<event>
 5    1  0.3235144E-002  0.1249783E+03  0.7818608E-02  0.1235103E+00
          4   -1    0    0  501    0  0.00000000000E+00  0.00000000000E+00  0.21590065374E+01  0.25048371661E+01  0.12700000000E+01 0. -1.
         -4   -1    0    0    0  501 -0.00000000000E+00 -0.00000000000E+00 -0.16741922671E+04  0.16741927488E+04  0.12700000000E+01 0. -1.
         25    2    1    2    0    0  0.00000000000E+00  0.00000000000E+00 -0.16720332606E+04  0.16766975860E+04  0.12497827947E+03 0.  0.
    9000005    1    3    3    0    0 -0.20435768135E+02  0.45735045945E+02 -0.13370210192E+04  0.13379594616E+04  0.10000000000E+01 0.  0.
    9000005    1    3    3    0    0  0.20435768135E+02 -0.45735045945E+02 -0.33501224137E+03  0.33873812439E+03  0.10000000000E+01 0.  0.
<mgrwt>
<rscale>  0 0.12497828E+03</rscale>
<asrwt>0</asrwt>
<pdfrwt beam="1">  1        4 0.35879560E-03 0.12497828E+03</pdfrwt>
<pdfrwt beam="2">  1       -4 0.25759372E+00 0.12497828E+03</pdfrwt>
<totfact> 0.14707520E+03</totfact>
</mgrwt>
</event>
<event>
 5    1  0.3235144E-002  0.1249997E+03  0.7818608E-02  0.1235070E+00
          4   -1    0    0  501    0  0.00000000000E+00  0.00000000000E+00  0.22544684988E+02  0.22580427835E+02  0.12700000000E+01 0.  1.
         -4   -1    0    0    0  501 -0.00000000000E+00 -0.00000000000E+00 -0.17309076591E+03  0.17309542497E+03  0.12700000000E+01 0.  1.
         25    2    1    2    0    0  0.00000000000E+00  0.00000000000E+00 -0.15054608092E+03  0.19567585280E+03  0.12499966755E+03 0.  0.
    9000005    1    3    3    0    0  0.23201363433E+02 -0.29833519146E+02  0.26348566863E+01  0.37898345605E+02  0.10000000000E+01 0.  0.
    9000005    1    3    3    0    0 -0.23201363433E+02  0.29833519146E+02 -0.15318093761E+03  0.15777750720E+03  0.10000000000E+01 0.  0.
<mgrwt>
<rscale>  0 0.12499967E+03</rscale>
<asrwt>0</asrwt>
<pdfrwt beam="1">  1        4 0.34715210E-02 0.12499967E+03</pdfrwt>
<pdfrwt beam="2">  1       -4 0.26632455E-01 0.12499967E+03</pdfrwt>
<totfact> 0.90869683E+03</totfact>
</mgrwt>
</event>
<event>
 5    1  0.3235144E-002  0.1250004E+03  0.7818608E-02  0.1235069E+00
          4   -1    0    0  501    0  0.00000000000E+00  0.00000000000E+00  0.66106418283E+02  0.66118616427E+02  0.12700000000E+01 0. -1.
         -4   -1    0    0    0  501 -0.00000000000E+00 -0.00000000000E+00 -0.59066185876E+02  0.59079837626E+02  0.12700000000E+01 0. -1.
         25    2    1    2    0    0  0.00000000000E+00  0.00000000000E+00  0.70402324071E+01  0.12519845405E+03  0.12500035210E+03 0.  0.
    9000005    1    3    3    0    0  0.22884188076E+01  0.53698171719E+02 -0.28413660670E+02  0.60803508281E+02  0.10000000000E+01 0.  0.
    9000005    1    3    3    0    0 -0.22884188076E+01 -0.53698171719E+02  0.35453893077E+02  0.64394945772E+02  0.10000000000E+01 0.  0.
<mgrwt>
<rscale>  0 0.12500035E+03</rscale>
<asrwt>0</asrwt>
<pdfrwt beam="1">  1        4 0.10172207E-01 0.12500035E+03</pdfrwt>
<pdfrwt beam="2">  1       -4 0.90890940E-02 0.12500035E+03</pdfrwt>
<totfact> 0.10448471E+04</totfact>
</mgrwt>
</event>
<event>
 5    1  0.3235144E-002  0.1250005E+03  0.7818608E-02  0.1235069E+00
         -4   -1    0    0    0  501 -0.00000000000E+00  0.00000000000E+00  0.19337284179E+02  0.19378943712E+02  0.12700000000E+01 0. -1.
          4   -1    0    0  501    0  0.00000000000E+00 -0.00000000000E+00 -0.20174665373E+03  0.20175065103E+03  0.12700000000E+01 0. -1.
         25    2    1    2    0    0  0.00000000000E+00  0.00000000000E+00 -0.18240936956E+03  0.22112959475E+03  0.12500047828E+03 0.  0.
    9000005    1    3    3    0    0 -0.31409467018E+02  0.19419168664E+02 -0.20199337466E+01  0.36996470944E+02  0.10000000000E+01 0.  0.
    9000005    1    3    3    0    0  0.31409467018E+02 -0.19419168664E+02 -0.18038943581E+03  0.18413312380E+03  0.10000000000E+01 0.  0.
<mgrwt>
<rscale>  0 0.12500048E+03</rscale>
<asrwt>0</asrwt>
<pdfrwt beam="2">  1        4 0.31041457E-01 0.12500048E+03</pdfrwt>
<pdfrwt beam="1">  1       -4 0.29784790E-02 0.12500048E+03</pdfrwt>
<totfact> 0.86688996E+03</totfact>
</mgrwt>
</event>
<event>
 5    1  0.3235144E-002  0.1249998E+03  0.7818608E-02  0.1235070E+00
          4   -1    0    0  501    0  0.00000000000E+00  0.00000000000E+00  0.68776607871E+02  0.68788332516E+02  0.12700000000E+01 0.  1.
         -4   -1    0    0    0  501 -0.00000000000E+00 -0.00000000000E+00 -0.56772372440E+02  0.56786575636E+02  0.12700000000E+01 0.  1.
         25    2    1    2    0    0  0.00000000000E+00  0.00000000000E+00  0.12004235431E+02  0.12557490815E+03  0.12499982356E+03 0.  0.
    9000005    1    3    3    0    0 -0.51181918034E+02  0.26535143035E+02  0.30228129800E+02  0.65103320812E+02  0.10000000000E+01 0.  0.
    9000005    1    3    3    0    0  0.51181918034E+02 -0.26535143035E+02 -0.18223894369E+02  0.60471587341E+02  0.10000000000E+01 0.  0.
<mgrwt>
<rscale>  0 0.12499982E+03</rscale>
<asrwt>0</asrwt>
<pdfrwt beam="1">  1        4 0.10583011E-01 0.12499982E+03</pdfrwt>
<pdfrwt beam="2">  1       -4 0.87362056E-02 0.12499982E+03</pdfrwt>
<totfact> 0.10440342E+04</totfact>
</mgrwt>
</event>
<event>
 5    1  0.3235144E-002  0.1249907E+03  0.7818608E-02  0.1235084E+00
          4   -1    0    0  501    0  0.00000000000E+00  0.00000000000E+00  0.19341403268E+03  0.19341820219E+03  0.12700000000E+01 0.  1.
         -4   -1    0    0    0  501 -0.00000000000E+00 -0.00000000000E+00 -0.20168955233E+02  0.20208900396E+02  0.12700000000E+01 0.  1.
         25    2    1    2    0    0  0.00000000000E+00  0.00000000000E+00  0.17324507745E+03  0.21362710259E+03  0.12499072805E+03 0.  0.
    9000005    1    3    3    0    0 -0.40576909697E+02 -0.47166106377E+02  0.76723758957E+02  0.98785942218E+02  0.10000000000E+01 0.  0.
    9000005    1    3    3    0    0  0.40576909697E+02  0.47166106377E+02  0.96521318493E+02  0.11484116037E+03  0.10000000000E+01 0.  0.
<mgrwt>
<rscale>  0 0.12499073E+03</rscale>
<asrwt>0</asrwt>
<pdfrwt beam="1">  1        4 0.29759399E-01 0.12499073E+03</pdfrwt>
<pdfrwt beam="2">  1       -4 0.31063096E-02 0.12499073E+03</pdfrwt>
<totfact> 0.87905146E+03</totfact>
</mgrwt>
</event>
<event>
 5    1  0.3235144E-002  0.1250026E+03  0.7818608E-02  0.1235065E+00
         -4   -1    0    0    0  501 -0.00000000000E+00  0.00000000000E+00  0.54181382147E+02  0.54196264367E+02  0.12700000000E+01 0.  1.
          4   -1    0    0  501    0  0.00000000000E+00 -0.00000000000E+00 -0.72068443287E+02  0.72079632475E+02  0.12700000000E+01 0.  1.
         25    2    1    2    0    0  0.00000000000E+00  0.00000000000E+00 -0.17887061140E+02  0.12627589684E+03  0.12500262064E+03 0.  0.
    9000005    1    3    3    0    0 -0.41607881375E+02  0.45640363911E+02 -0.18588303859E+02  0.64504136695E+02  0.10000000000E+01 0.  0.
    9000005    1    3    3    0    0  0.41607881375E+02 -0.45640363911E+02  0.70124271951E+00  0.61771760148E+02  0.10000000000E+01 0.  0.
<mgrwt>
<rscale>  0 0.12500262E+03</rscale>
<asrwt>0</asrwt>
<pdfrwt beam="2">  1        4 0.11089458E-01 0.12500262E+03</pdfrwt>
<pdfrwt beam="1">  1       -4 0.83376027E-02 0.12500262E+03</pdfrwt>
<totfact> 0.10424303E+04</totfact>
</mgrwt>
</event>
<event>
 5    1  0.3235144E-002  0.1250012E+03  0.7818608E-02  0.1235067E+00
          4   -1    0    0  501    0  0.00000000000E+00  0.00000000000E+00  0.25299699220E+02  0.25331555037E+02  0.12700000000E+01 0.  1.
         -4   -1    0    0    0  501 -0.00000000000E+00 -0.00000000000E+00 -0.15427039875E+03  0.15427562617E+03  0.12700000000E+01 0.  1.
         25    2    1    2    0    0  0.00000000000E+00  0.00000000000E+00 -0.12897069953E+03  0.17960718121E+03  0.12500119281E+03 0.  0.
    9000005    1    3    3    0    0  0.13613466972E+02  0.43512555658E+02 -0.30755229930E+01  0.45706977854E+02  0.10000000000E+01 0.  0.
    9000005    1    3    3    0    0 -0.13613466972E+02 -0.43512555658E+02 -0.12589517654E+03  0.13390020335E+03  0.10000000000E+01 0.  0.
<mgrwt>
<rscale>  0 0.12500119E+03</rscale>
<asrwt>0</asrwt>
<pdfrwt beam="1">  1        4 0.38951141E-02 0.12500119E+03</pdfrwt>
<pdfrwt beam="2">  1       -4 0.23736759E-01 0.12500119E+03</pdfrwt>
<totfact> 0.93685254E+03</totfact>
</mgrwt>
</event>
<event>
 5    1  0.3235144E-002  0.1249974E+03  0.7818608E-02  0.1235073E+00
         -4   -1    0    0    0  501 -0.00000000000E+00  0.00000000000E+00  0.10260349684E+04  0.10260357544E+04  0.12700000000E+01 0.  1.
          4   -1    0    0  501    0  0.00000000000E+00 -0.00000000000E+00 -0.37002473722E+01  0.39121260991E+01  0.12700000000E+01 0.  1.
         25    2    1    2    0    0  0.00000000000E+00  0.00000000000E+00  0.10223347210E+04  0.10299478805E+04  0.12499741876E+03 0.  0.
    9000005    1    3    3    0    0 -0.53644168862E+02 -0.31982675169E+02  0.52864711984E+03  0.53232449284E+03  0.10000000000E+01 0.  0.
    9000005    1    3    3    0    0  0.53644168862E+02  0.31982675169E+02  0.49368760118E+03  0.49762338764E+03  0.10000000000E+01 0.  0.
<mgrwt>
<rscale>  0 0.12499742E+03</rscale>
<asrwt>0</asrwt>
<pdfrwt beam="2">  1        4 0.58562740E-03 0.12499742E+03</pdfrwt>
<pdfrwt beam="1">  1       -4 0.15786796E+00 0.12499742E+03</pdfrwt>
<totfact> 0.29630877E+03</totfact>
</mgrwt>
</event>
<event>
 5    1  0.3235144E-002  0.1249987E+03  0.7818608E-02  0.1235071E+00
         -4   -1    0    0    0  501 -0.00000000000E+00  0.00000000000E+00  0.53218352946E+01  0.54712732433E+01  0.12700000000E+01 0.  1.
          4   -1    0    0  501    0  0.00000000000E+00 -0.00000000000E+00 -0.72367638755E+03  0.72367750193E+03  0.12700000000E+01 0.  1.
         25    2    1    2    0    0  0.00000000000E+00  0.00000000000E+00 -0.71835455225E+03  0.72914877517E+03  0.12499869435E+03 0.  0.
    9000005    1    3    3    0    0 -0.83817951970E+01  0.61466244980E+02 -0.31520886396E+03  0.32125687803E+03  0.10000000000E+01 0.  0.
    9000005    1    3    3    0    0  0.83817951970E+01 -0.61466244980E+02 -0.40314568829E+03  0.40789189714E+03  0.10000000000E+01 0.  0.
<mgrwt>
<rscale>  0 0.12499869E+03</rscale>
<asrwt>0</asrwt>
<pdfrwt beam="2">  1        4 0.11134633E+00 0.12499869E+03</pdfrwt>
<pdfrwt beam="1">  1       -4 0.83032541E-03 0.12499869E+03</pdfrwt>
<totfact> 0.41593065E+03</totfact>
</mgrwt>
</event>
<event>
 5    1  0.3235144E-002  0.1249912E+03  0.7818608E-02  0.1235083E+00
          4   -1    0    0  501    0  0.00000000000E+00  0.00000000000E+00  0.14063913194E+03  0.14064486600E+03  0.12700000000E+01 0. -1.
         -4   -1    0    0    0  501 -0.00000000000E+00 -0.00000000000E+00 -0.27750264327E+02  0.27779310111E+02  0.12700000000E+01 0. -1.
         25    2    1    2    0    0  0.00000000000E+00  0.00000000000E+00  0.11288886761E+03  0.16842417611E+03  0.12499122637E+03 0.  0.
    9000005    1    3    3    0    0  0.83035830829E+01 -0.48869435911E+02  0.10771153365E+03  0.11857464206E+03  0.10000000000E+01 0.  0.
    9000005    1    3    3    0    0 -0.83035830829E+01  0.48869435911E+02  0.51773339613E+01  0.49849534052E+02  0.10000000000E+01 0.  0.
<mgrwt>
<rscale>  0 0.12499123E+03</rscale>
<asrwt>0</asrwt>
<pdfrwt beam="1">  1        4 0.21639466E-01 0.12499123E+03</pdfrwt>
<pdfrwt beam="2">  1       -4 0.42719467E-02 0.12499123E+03</pdfrwt>
<totfact> 0.95761674E+03</totfact>
</mgrwt>
</event>
<event>
 5    1  0.3235144E-002  0.1249965E+03  0.7818608E-02  0.1235075E+00
         -4   -1    0    0    0  501 -0.00000000000E+00  0.00000000000E+00  0.11173141795E+03  0.11173863547E+03  0.12700000000E+01 0.  1.
          4   -1    0    0  501    0  0.00000000000E+00 -0.00000000000E+00 -0.34939241849E+02  0.34962315727E+02  0.12700000000E+01 0.  1.
         25    2    1    2    0    0  0.00000000000E+00  0.00000000000E+00  0.76792176101E+02  0.14670095120E+03  0.12499652304E+03 0.  0.
    9000005    1    3    3    0    0  0.11823202015E+02  0.54442966427E+02  0.71616700441E+02  0.90740159143E+02  0.10000000000E+01 0.  0.
    9000005    1    3    3    0    0 -0.11823202015E+02 -0.54442966427E+02  0.51754756599E+01  0.55960792056E+02  0.10000000000E+01 0.  0.
<mgrwt>
<rscale>  0 0.12499652E+03</rscale>
<asrwt>0</asrwt>
<pdfrwt beam="2">  1        4 0.53775981E-02 0.12499652E+03</pdfrwt>
<pdfrwt beam="1">  1       -4 0.17191779E-01 0.12499652E+03</pdfrwt>
<totfact> 0.99973253E+03</totfact>
</mgrwt>
</event>
<event>
 5    1  0.3235144E-002  0.1249959E+03  0.7818608E-02  0.1235076E+00
         -4   -1    0    0    0  501 -0.00000000000E+00  0.00000000000E+00  0.25944577605E+02  0.25975642573E+02  0.12700000000E+01 0. -1.
          4   -1    0    0  501    0  0.00000000000E+00 -0.00000000000E+00 -0.15042761791E+03  0.15043297887E+03  0.12700000000E+01 0. -1.
         25    2    1    2    0    0  0.00000000000E+00  0.00000000000E+00 -0.12448304031E+03  0.17640862144E+03  0.12499589751E+03 0.  0.
    9000005    1    3    3    0    0  0.41043597522E+02  0.45252285271E+02 -0.43697493563E+02  0.75118687179E+02  0.10000000000E+01 0.  0.
    9000005    1    3    3    0    0 -0.41043597522E+02 -0.45252285271E+02 -0.80785546747E+02  0.10128993426E+03  0.10000000000E+01 0.  0.
<mgrwt>
<rscale>  0 0.12499590E+03</rscale>
<asrwt>0</asrwt>
<pdfrwt beam="2">  1        4 0.23145512E-01 0.12499590E+03</pdfrwt>
<pdfrwt beam="1">  1       -4 0.39942755E-02 0.12499590E+03</pdfrwt>
<totfact> 0.94276162E+03</totfact>
</mgrwt>
</event>
<event>
 5    1  0.3235144E-002  0.1250082E+03  0.7818608E-02  0.1235056E+00
         -4   -1    0    0    0  501 -0.00000000000E+00  0.00000000000E+00  0.13624302439E+04  0.13624308358E+04  0.12700000000E+01 0. -1.
          4   -1    0    0  501    0  0.00000000000E+00 -0.00000000000E+00 -0.27262542762E+01  0.30075508937E+01  0.12700000000E+01 0. -1.
         25    2    1    2    0    0  0.00000000000E+00  0.00000000000E+00  0.13597039896E+04  0.13654383867E+04  0.12500819378E+03 0.  0.
    9000005    1    3    3    0    0 -0.22339129641E+02  0.51801714478E+02  0.38609027658E+03  0.39019117879E+03  0.10000000000E+01 0.  0.
    9000005    1    3    3    0    0  0.22339129641E+02 -0.51801714478E+02  0.97361371307E+03  0.97524720795E+03  0.10000000000E+01 0.  0.
<mgrwt>
<rscale>  0 0.12500819E+03</rscale>
<asrwt>0</asrwt>
<pdfrwt beam="2">  1        4 0.44110641E-03 0.12500819E+03</pdfrwt>
<pdfrwt beam="1">  1       -4 0.20962684E+00 0.12500819E+03</pdfrwt>
<totfact> 0.20730818E+03</totfact>
</mgrwt>
</event>
<event>
 5    1  0.3235144E-002  0.1250014E+03  0.7818608E-02  0.1235067E+00
          4   -1    0    0  501    0  0.00000000000E+00  0.00000000000E+00  0.12349750406E+03  0.12350403398E+03  0.12700000000E+01 0. -1.
         -4   -1    0    0    0  501 -0.00000000000E+00 -0.00000000000E+00 -0.31610789925E+02  0.31636291497E+02  0.12700000000E+01 0. -1.
         25    2    1    2    0    0  0.00000000000E+00  0.00000000000E+00  0.91886714133E+02  0.15514032547E+03  0.12500140941E+03 0.  0.
    9000005    1    3    3    0    0  0.46500943224E+01 -0.56184029303E+02  0.79408891929E+02  0.97391173334E+02  0.10000000000E+01 0.  0.
    9000005    1    3    3    0    0 -0.46500943224E+01  0.56184029303E+02  0.12477822204E+02  0.57749152140E+02  0.10000000000E+01 0.  0.
<mgrwt>
<rscale>  0 0.12500141E+03</rscale>
<asrwt>0</asrwt>
<pdfrwt beam="1">  1        4 0.19002080E-01 0.12500141E+03</pdfrwt>
<pdfrwt beam="2">  1       -4 0.48656624E-02 0.12500141E+03</pdfrwt>
<totfact> 0.98284843E+03</totfact>
</mgrwt>
</event>
<event>
 5    1  0.3235144E-002  0.1250024E+03  0.7818608E-02  0.1235066E+00
          4   -1    0    0  501    0  0.00000000000E+00  0.00000000000E+00  0.11267275517E+02  0.11338624148E+02  0.12700000000E+01 0.  1.
         -4   -1    0    0    0  501 -0.00000000000E+00 -0.00000000000E+00 -0.34553615559E+03  0.34553848950E+03  0.12700000000E+01 0.  1.
         25    2    1    2    0    0  0.00000000000E+00  0.00000000000E+00 -0.33426888008E+03  0.35687711364E+03  0.12500236019E+03 0.  0.
    9000005    1    3    3    0    0 -0.49774734893E+02  0.50084212822E+01 -0.27406372432E+03  0.27859385044E+03  0.10000000000E+01 0.  0.
    9000005    1    3    3    0    0  0.49774734893E+02 -0.50084212822E+01 -0.60205155762E+02  0.78283263203E+02  0.10000000000E+01 0.  0.
<mgrwt>
<rscale>  0 0.12500236E+03</rscale>
<asrwt>0</asrwt>
<pdfrwt beam="1">  1        4 0.17390951E-02 0.12500236E+03</pdfrwt>
<pdfrwt beam="2">  1       -4 0.53165069E-01 0.12500236E+03</pdfrwt>
<totfact> 0.68970959E+03</totfact>
</mgrwt>
</event>
<event>
 5    1  0.3235144E-002  0.1249478E+03  0.7818608E-02  0.1235151E+00
         -4   -1    0    0    0  501 -0.00000000000E+00  0.00000000000E+00  0.45073078779E+02  0.45090967284E+02  0.12700000000E+01 0.  1.
          4   -1    0    0  501    0  0.00000000000E+00 -0.00000000000E+00 -0.86552728651E+02  0.86562045591E+02  0.12700000000E+01 0.  1.
         25    2    1    2    0    0  0.00000000000E+00  0.00000000000E+00 -0.41479649872E+02  0.13165301288E+03  0.12494780689E+03 0.  0.
    9000005    1    3    3    0    0 -0.30967852439E+02 -0.21848947394E+02 -0.73059356559E+02  0.82310715996E+02  0.10000000000E+01 0.  0.
    9000005    1    3    3    0    0  0.30967852439E+02  0.21848947394E+02  0.31579706687E+02  0.49342296879E+02  0.10000000000E+01 0.  0.
<mgrwt>
<rscale>  0 0.12494781E+03</rscale>
<asrwt>0</asrwt>
<pdfrwt beam="2">  1        4 0.13317897E-01 0.12494781E+03</pdfrwt>
<pdfrwt beam="1">  1       -4 0.69364125E-02 0.12494781E+03</pdfrwt>
<totfact> 0.10321258E+04</totfact>
</mgrwt>
</event>
<event>
 5    1  0.3235144E-002  0.1250008E+03  0.7818608E-02  0.1235068E+00
         -4   -1    0    0    0  501 -0.00000000000E+00  0.00000000000E+00  0.83618689642E+02  0.83628333461E+02  0.12700000000E+01 0. -1.
          4   -1    0    0  501    0  0.00000000000E+00 -0.00000000000E+00 -0.46694624724E+02  0.46711892256E+02  0.12700000000E+01 0. -1.
         25    2    1    2    0    0  0.00000000000E+00  0.00000000000E+00  0.36924064918E+02  0.13034022572E+03  0.12500075148E+03 0.  0.
    9000005    1    3    3    0    0 -0.57933223248E+01  0.17115019739E+02  0.80840570965E+02  0.82841320597E+02  0.10000000000E+01 0.  0.
    9000005    1    3    3    0    0  0.57933223248E+01 -0.17115019739E+02 -0.43916506047E+02  0.47498905121E+02  0.10000000000E+01 0.  0.
<mgrwt>
<rscale>  0 0.12500075E+03</rscale>
<asrwt>0</asrwt>
<pdfrwt beam="2">  1        4 0.71858585E-02 0.12500075E+03</pdfrwt>
<pdfrwt beam="1">  1       -4 0.12866484E-01 0.12500075E+03</pdfrwt>
<totfact> 0.10337059E+04</totfact>
</mgrwt>
</event>
<event>
 5    1  0.3235144E-002  0.1250010E+03  0.7818608E-02  0.1235068E+00
         -4   -1    0    0    0  501 -0.00000000000E+00  0.00000000000E+00  0.14359147388E+03  0.14359709006E+03  0.12700000000E+01 0. -1.
          4   -1    0    0  501    0  0.00000000000E+00 -0.00000000000E+00 -0.27183388000E+02  0.27213038845E+02  0.12700000000E+01 0. -1.
         25    2    1    2    0    0  0.00000000000E+00  0.00000000000E+00  0.11640808588E+03  0.17081012890E+03  0.12500103070E+03 0.  0.
    9000005    1    3    3    0    0 -0.25194395962E+02 -0.97970628185E+01  0.13519554290E+03  0.13787521477E+03  0.10000000000E+01 0.  0.
    9000005    1    3    3    0    0  0.25194395962E+02  0.97970628185E+01 -0.18787457015E+02  0.32934914131E+02  0.10000000000E+01 0.  0.
<mgrwt>
<rscale>  0 0.12500103E+03</rscale>
<asrwt>0</asrwt>
<pdfrwt beam="2">  1        4 0.41847725E-02 0.12500103E+03</pdfrwt>
<pdfrwt beam="1">  1       -4 0.22093709E-01 0.12500103E+03</pdfrwt>
<totfact> 0.95295650E+03</totfact>
</mgrwt>
</event>
<event>
 5    1  0.3235144E-002  0.1249903E+03  0.7818608E-02  0.1235084E+00
          4   -1    0    0  501    0  0.00000000000E+00  0.00000000000E+00  0.70451491439E+01  0.71587028476E+01  0.12700000000E+01 0. -1.
         -4   -1    0    0    0  501 -0.00000000000E+00 -0.00000000000E+00 -0.54982722045E+03  0.54982868718E+03  0.12700000000E+01 0. -1.
         25    2    1    2    0    0  0.00000000000E+00  0.00000000000E+00 -0.54278207130E+03  0.55698739002E+03  0.12499030250E+03 0.  0.
    9000005    1    3    3    0    0 -0.61315297441E+02 -0.11981625877E+02 -0.27688302262E+03  0.28384561521E+03  0.10000000000E+01 0.  0.
    9000005    1    3    3    0    0  0.61315297441E+02  0.11981625877E+02 -0.26589904868E+03  0.27314177481E+03  0.10000000000E+01 0.  0.
<mgrwt>
<rscale>  0 0.12499030E+03</rscale>
<asrwt>0</asrwt>
<pdfrwt beam="1">  1        4 0.10927173E-02 0.12499030E+03</pdfrwt>
<pdfrwt beam="2">  1       -4 0.84597617E-01 0.12499030E+03</pdfrwt>
<totfact> 0.51711372E+03</totfact>
</mgrwt>
</event>
<event>
 5    1  0.3235144E-002  0.1250017E+03  0.7818608E-02  0.1235067E+00
         -4   -1    0    0    0  501 -0.00000000000E+00  0.00000000000E+00  0.11703032823E+02  0.11771740621E+02  0.12700000000E+01 0.  1.
          4   -1    0    0  501    0  0.00000000000E+00 -0.00000000000E+00 -0.33274337045E+03  0.33274579408E+03  0.12700000000E+01 0.  1.
         25    2    1    2    0    0  0.00000000000E+00  0.00000000000E+00 -0.32104033762E+03  0.34451753470E+03  0.12500173332E+03 0.  0.
    9000005    1    3    3    0    0  0.48389627979E+02  0.39415522082E+02 -0.16933058541E+03  0.18046879684E+03  0.10000000000E+01 0.  0.
    9000005    1    3    3    0    0 -0.48389627979E+02 -0.39415522082E+02 -0.15170975221E+03  0.16404873786E+03  0.10000000000E+01 0.  0.
<mgrwt>
<rscale>  0 0.12500173E+03</rscale>
<asrwt>0</asrwt>
<pdfrwt beam="2">  1        4 0.51196752E-01 0.12500173E+03</pdfrwt>
<pdfrwt beam="1">  1       -4 0.18059385E-02 0.12500173E+03</pdfrwt>
<totfact> 0.70329239E+03</totfact>
</mgrwt>
</event>
<event>
 5    1  0.3235144E-002  0.1250089E+03  0.7818608E-02  0.1235055E+00
          4   -1    0    0  501    0  0.00000000000E+00  0.00000000000E+00  0.11232065111E+02  0.11303635993E+02  0.12700000000E+01 0.  1.
         -4   -1    0    0    0  501 -0.00000000000E+00 -0.00000000000E+00 -0.34664873335E+03  0.34665105977E+03  0.12700000000E+01 0.  1.
         25    2    1    2    0    0  0.00000000000E+00  0.00000000000E+00 -0.33541666824E+03  0.35795469576E+03  0.12500889120E+03 0.  0.
    9000005    1    3    3    0    0  0.39074943782E+02 -0.37866940011E+02 -0.25573503047E+03  0.26146158836E+03  0.10000000000E+01 0.  0.
    9000005    1    3    3    0    0 -0.39074943782E+02  0.37866940011E+02 -0.79681637772E+02  0.96493107398E+02  0.10000000000E+01 0.  0.
<mgrwt>
<rscale>  0 0.12500889E+03</rscale>
<asrwt>0</asrwt>
<pdfrwt beam="1">  1        4 0.17336947E-02 0.12500889E+03</pdfrwt>
<pdfrwt beam="2">  1       -4 0.53336251E-01 0.12500889E+03</pdfrwt>
<totfact> 0.68844679E+03</totfact>
</mgrwt>
</event>
<event>
 5    1  0.3235144E-002  0.1249994E+03  0.7818608E-02  0.1235070E+00
         -4   -1    0    0    0  501 -0.00000000000E+00  0.00000000000E+00  0.13193730542E+02  0.13254713336E+02  0.12700000000E+01 0.  1.
          4   -1    0    0  501    0  0.00000000000E+00 -0.00000000000E+00 -0.29532104704E+03  0.29532377779E+03  0.12700000000E+01 0.  1.
         25    2    1    2    0    0  0.00000000000E+00  0.00000000000E+00 -0.28212731650E+03  0.30857849112E+03  0.12499944987E+03 0.  0.
    9000005    1    3    3    0    0  0.53317832671E+02 -0.32166479917E+02 -0.15406612337E+03  0.16617714668E+03  0.10000000000E+01 0.  0.
    9000005    1    3    3    0    0 -0.53317832671E+02  0.32166479917E+02 -0.12806119314E+03  0.14240134444E+03  0.10000000000E+01 0.  0.
<mgrwt>
<rscale>  0 0.12499945E+03</rscale>
<asrwt>0</asrwt>
<pdfrwt beam="2">  1        4 0.45438903E-01 0.12499945E+03</pdfrwt>
<pdfrwt beam="1">  1       -4 0.20347060E-02 0.12499945E+03</pdfrwt>
<totfact> 0.74536128E+03</totfact>
</mgrwt>
</event>
<event>
 5    1  0.3235144E-002  0.1249754E+03  0.7818608E-02  0.1235108E+00
          4   -1    0    0  501    0  0.00000000000E+00  0.00000000000E+00  0.86816983403E+03  0.86817076294E+03  0.12700000000E+01 0. -1.
         -4   -1    0    0    0  501 -0.00000000000E+00 -0.00000000000E+00 -0.44070371908E+01  0.45863794873E+01  0.12700000000E+01 0. -1.
         25    2    1    2    0    0  0.00000000000E+00  0.00000000000E+00  0.86376279684E+03  0.87275714243E+03  0.12497543939E+03 0.  0.
    9000005    1    3    3    0    0  0.56015890024E+01  0.61961361721E+02  0.39168755128E+03  0.39659894853E+03  0.10000000000E+01 0.  0.
    9000005    1    3    3    0    0 -0.56015890024E+01 -0.61961361721E+02  0.47207524556E+03  0.47615819390E+03  0.10000000000E+01 0.  0.
<mgrwt>
<rscale>  0 0.12497544E+03</rscale>
<asrwt>0</asrwt>
<pdfrwt beam="1">  1        4 0.13357833E+00 0.12497544E+03</pdfrwt>
<pdfrwt beam="2">  1       -4 0.69187337E-03 0.12497544E+03</pdfrwt>
<totfact> 0.35232667E+03</totfact>
</mgrwt>
</event>
<event>
 5    1  0.3235144E-002  0.1249996E+03  0.7818608E-02  0.1235070E+00
         -4   -1    0    0    0  501 -0.00000000000E+00  0.00000000000E+00  0.41771789362E+01  0.43659734155E+01  0.12700000000E+01 0.  1.
          4   -1    0    0  501    0  0.00000000000E+00 -0.00000000000E+00 -0.91428037019E+03  0.91428125225E+03  0.12700000000E+01 0.  1.
         25    2    1    2    0    0  0.00000000000E+00  0.00000000000E+00 -0.91010319126E+03  0.91864722567E+03  0.12499962597E+03 0.  0.
    9000005    1    3    3    0    0  0.32298935504E+02 -0.34504516855E+02 -0.15459210181E+03  0.16165859352E+03  0.10000000000E+01 0.  0.
    9000005    1    3    3    0    0 -0.32298935504E+02  0.34504516855E+02 -0.75551108945E+03  0.75698863215E+03  0.10000000000E+01 0.  0.
<mgrwt>
<rscale>  0 0.12499963E+03</rscale>
<asrwt>0</asrwt>
<pdfrwt beam="2">  1        4 0.14067295E+00 0.12499963E+03</pdfrwt>
<pdfrwt beam="1">  1       -4 0.65723415E-03 0.12499963E+03</pdfrwt>
<totfact> 0.33456197E+03</totfact>
</mgrwt>
</event>
<event>
 5    1  0.3235144E-002  0.1249924E+03  0.7818608E-02  0.1235081E+00
          4   -1    0    0  501    0  0.00000000000E+00  0.00000000000E+00  0.62433240707E+01  0.63711847762E+01  0.12700000000E+01 0.  1.
         -4   -1    0    0    0  501 -0.00000000000E+00 -0.00000000000E+00 -0.61912312507E+03  0.61912442763E+03  0.12700000000E+01 0.  1.
         25    2    1    2    0    0  0.00000000000E+00  0.00000000000E+00 -0.61287980100E+03  0.62549561241E+03  0.12499244247E+03 0.  0.
    9000005    1    3    3    0    0  0.44401698202E+02  0.40493763604E+02 -0.39217542780E+03  0.39675410756E+03  0.10000000000E+01 0.  0.
    9000005    1    3    3    0    0 -0.44401698202E+02 -0.40493763604E+02 -0.22070437320E+03  0.22874150485E+03  0.10000000000E+01 0.  0.
<mgrwt>
<rscale>  0 0.12499244E+03</rscale>
<asrwt>0</asrwt>
<pdfrwt beam="1">  1        4 0.97044752E-03 0.12499244E+03</pdfrwt>
<pdfrwt beam="2">  1       -4 0.95259599E-01 0.12499244E+03</pdfrwt>
<totfact> 0.47304664E+03</totfact>
</mgrwt>
</event>
<event>
 5    1  0.3235144E-002  0.1250011E+03  0.7818608E-02  0.1235068E+00
         -4   -1    0    0    0  501 -0.00000000000E+00  0.00000000000E+00  0.93294449515E+03  0.93294535956E+03  0.12700000000E+01 0. -1.
          4   -1    0    0  501    0  0.00000000000E+00 -0.00000000000E+00 -0.40898947201E+01  0.42825388289E+01  0.12700000000E+01 0. -1.
         25    2    1    2    0    0  0.00000000000E+00  0.00000000000E+00  0.92885460043E+03  0.93722789839E+03  0.12500105913E+03 0.  0.
    9000005    1    3    3    0    0 -0.51707448920E+02  0.23944073913E+02  0.27204915715E+03  0.27795453379E+03  0.10000000000E+01 0.  0.
    9000005    1    3    3    0    0  0.51707448920E+02 -0.23944073913E+02  0.65680544328E+03  0.65927336460E+03  0.10000000000E+01 0.  0.
<mgrwt>
<rscale>  0 0.12500106E+03</rscale>
<asrwt>0</asrwt>
<pdfrwt beam="2">  1        4 0.64409980E-03 0.12500106E+03</pdfrwt>
<pdfrwt beam="1">  1       -4 0.14354482E+00 0.12500106E+03</pdfrwt>
<totfact> 0.32773057E+03</totfact>
</mgrwt>
</event>
<event>
 5    1  0.3235144E-002  0.1250012E+03  0.7818608E-02  0.1235067E+00
          4   -1    0    0  501    0  0.00000000000E+00  0.00000000000E+00  0.10525715980E+03  0.10526482123E+03  0.12700000000E+01 0.  1.
         -4   -1    0    0    0  501 -0.00000000000E+00 -0.00000000000E+00 -0.37092294311E+02  0.37114029656E+02  0.12700000000E+01 0.  1.
         25    2    1    2    0    0  0.00000000000E+00  0.00000000000E+00  0.68164865487E+02  0.14237885089E+03  0.12500115317E+03 0.  0.
    9000005    1    3    3    0    0 -0.51412202571E+02  0.21558341802E+02  0.19195690486E+01  0.55791230671E+02  0.10000000000E+01 0.  0.
    9000005    1    3    3    0    0  0.51412202571E+02 -0.21558341802E+02  0.66245296439E+02  0.86587620216E+02  0.10000000000E+01 0.  0.
<mgrwt>
<rscale>  0 0.12500115E+03</rscale>
<asrwt>0</asrwt>
<pdfrwt beam="1">  1        4 0.16195671E-01 0.12500115E+03</pdfrwt>
<pdfrwt beam="2">  1       -4 0.57087681E-02 0.12500115E+03</pdfrwt>
<totfact> 0.10084257E+04</totfact>
</mgrwt>
</event>
<event>
 5    1  0.3235144E-002  0.1249998E+03  0.7818608E-02  0.1235070E+00
          4   -1    0    0  501    0  0.00000000000E+00  0.00000000000E+00  0.87855318099E+01  0.88768501836E+01  0.12700000000E+01 0.  1.
         -4   -1    0    0    0  501 -0.00000000000E+00 -0.00000000000E+00 -0.44223050577E+03  0.44223232936E+03  0.12700000000E+01 0.  1.
         25    2    1    2    0    0  0.00000000000E+00  0.00000000000E+00 -0.43344497396E+03  0.45110917954E+03  0.12499978568E+03 0.  0.
    9000005    1    3    3    0    0  0.20002592988E+01  0.60852807732E+02 -0.16591907979E+03  0.17674050550E+03  0.10000000000E+01 0.  0.
    9000005    1    3    3    0    0 -0.20002592988E+01 -0.60852807732E+02 -0.26752589417E+03  0.27436867404E+03  0.10000000000E+01 0.  0.
<mgrwt>
<rscale>  0 0.12499979E+03</rscale>
<asrwt>0</asrwt>
<pdfrwt beam="1">  1        4 0.13587854E-02 0.12499979E+03</pdfrwt>
<pdfrwt beam="2">  1       -4 0.68042610E-01 0.12499979E+03</pdfrwt>
<totfact> 0.59868117E+03</totfact>
</mgrwt>
</event>
<event>
 5    1  0.3235144E-002  0.1250013E+03  0.7818608E-02  0.1235067E+00
          4   -1    0    0  501    0  0.00000000000E+00  0.00000000000E+00  0.22384090733E+03  0.22384451009E+03  0.12700000000E+01 0. -1.
         -4   -1    0    0    0  501 -0.00000000000E+00 -0.00000000000E+00 -0.17424510358E+02  0.17470731559E+02  0.12700000000E+01 0. -1.
         25    2    1    2    0    0  0.00000000000E+00  0.00000000000E+00  0.20641639698E+03  0.24131524165E+03  0.12500126763E+03 0.  0.
    9000005    1    3    3    0    0 -0.54815656223E+02  0.16984818227E+02  0.55446734879E+02  0.79803387310E+02  0.10000000000E+01 0.  0.
    9000005    1    3    3    0    0  0.54815656223E+02 -0.16984818227E+02  0.15096966210E+03  0.16151185434E+03  0.10000000000E+01 0.  0.
<mgrwt>
<rscale>  0 0.12500127E+03</rscale>
<asrwt>0</asrwt>
<pdfrwt beam="1">  1        4 0.34440896E-01 0.12500127E+03</pdfrwt>
<pdfrwt beam="2">  1       -4 0.26845265E-02 0.12500127E+03</pdfrwt>
<totfact> 0.83599511E+03</totfact>
</mgrwt>
</event>
<event>
 5    1  0.3235144E-002  0.1250004E+03  0.7818608E-02  0.1235069E+00
          4   -1    0    0  501    0  0.00000000000E+00  0.00000000000E+00  0.35440043253E+02  0.35462791286E+02  0.12700000000E+01 0.  1.
         -4   -1    0    0    0  501 -0.00000000000E+00 -0.00000000000E+00 -0.11016021919E+03  0.11016753965E+03  0.12700000000E+01 0.  1.
         25    2    1    2    0    0  0.00000000000E+00  0.00000000000E+00 -0.74720175940E+02  0.14563033094E+03  0.12500035438E+03 0.  0.
    9000005    1    3    3    0    0  0.49802548760E+02 -0.27634015229E+02 -0.73993283856E+01  0.57442864842E+02  0.10000000000E+01 0.  0.
    9000005    1    3    3    0    0 -0.49802548760E+02  0.27634015229E+02 -0.67320847554E+02  0.88187466094E+02  0.10000000000E+01 0.  0.
<mgrwt>
<rscale>  0 0.12500035E+03</rscale>
<asrwt>0</asrwt>
<pdfrwt beam="1">  1        4 0.54546274E-02 0.12500035E+03</pdfrwt>
<pdfrwt beam="2">  1       -4 0.16950039E-01 0.12500035E+03</pdfrwt>
<totfact> 0.10018117E+04</totfact>
</mgrwt>
</event>
<event>
 5    1  0.3235144E-002  0.1249919E+03  0.7818608E-02  0.1235082E+00
          4   -1    0    0  501    0  0.00000000000E+00  0.00000000000E+00  0.15959609451E+03  0.15960114749E+03  0.12700000000E+01 0.  1.
         -4   -1    0    0    0  501 -0.00000000000E+00 -0.00000000000E+00 -0.24450737847E+02  0.24483698276E+02  0.12700000000E+01 0.  1.
         25    2    1    2    0    0  0.00000000000E+00  0.00000000000E+00  0.13514535666E+03  0.18408484577E+03  0.12499185180E+03 0.  0.
    9000005    1    3    3    0    0 -0.38725218573E+02 -0.21868356373E+02  0.29235158968E+01  0.44580427423E+02  0.10000000000E+01 0.  0.
    9000005    1    3    3    0    0  0.38725218573E+02  0.21868356373E+02  0.13222184076E+03  0.13950441835E+03  0.10000000000E+01 0.  0.
<mgrwt>
<rscale>  0 0.12499185E+03</rscale>
<asrwt>0</asrwt>
<pdfrwt beam="1">  1        4 0.24556169E-01 0.12499185E+03</pdfrwt>
<pdfrwt beam="2">  1       -4 0.37645761E-02 0.12499185E+03</pdfrwt>
<totfact> 0.92903808E+03</totfact>
</mgrwt>
</event>
<event>
 5    1  0.3235144E-002  0.1250096E+03  0.7818608E-02  0.1235054E+00
         -4   -1    0    0    0  501 -0.00000000000E+00  0.00000000000E+00  0.25086890573E+02  0.25119016275E+02  0.12700000000E+01 0. -1.
          4   -1    0    0  501    0  0.00000000000E+00 -0.00000000000E+00 -0.15559839387E+03  0.15560357668E+03  0.12700000000E+01 0. -1.
         25    2    1    2    0    0  0.00000000000E+00  0.00000000000E+00 -0.13051150330E+03  0.18072259296E+03  0.12500961207E+03 0.  0.
    9000005    1    3    3    0    0  0.18665435489E+02  0.49620880862E+02 -0.17412595762E+02  0.55810651230E+02  0.10000000000E+01 0.  0.
    9000005    1    3    3    0    0 -0.18665435489E+02 -0.49620880862E+02 -0.11309890754E+03  0.12491194173E+03  0.10000000000E+01 0.  0.
<mgrwt>
<rscale>  0 0.12500961E+03</rscale>
<asrwt>0</asrwt>
<pdfrwt beam="2">  1        4 0.23941084E-01 0.12500961E+03</pdfrwt>
<pdfrwt beam="1">  1       -4 0.38623916E-02 0.12500961E+03</pdfrwt>
<totfact> 0.93466952E+03</totfact>
</mgrwt>
</event>
<event>
 5    1  0.3235144E-002  0.1249999E+03  0.7818608E-02  0.1235069E+00
         -4   -1    0    0    0  501 -0.00000000000E+00  0.00000000000E+00  0.53089984509E+01  0.54587878280E+01  0.12700000000E+01 0.  1.
          4   -1    0    0  501    0  0.00000000000E+00 -0.00000000000E+00 -0.72539186778E+03  0.72539297953E+03  0.12700000000E+01 0.  1.
         25    2    1    2    0    0  0.00000000000E+00  0.00000000000E+00 -0.72008286933E+03  0.73085176735E+03  0.12499986856E+03 0.  0.
    9000005    1    3    3    0    0  0.25221392652E+02 -0.43749638606E+02 -0.14481075485E+03  0.15336656821E+03  0.10000000000E+01 0.  0.
    9000005    1    3    3    0    0 -0.25221392652E+02  0.43749638606E+02 -0.57527211448E+03  0.57748519914E+03  0.10000000000E+01 0.  0.
<mgrwt>
<rscale>  0 0.12499987E+03</rscale>
<asrwt>0</asrwt>
<pdfrwt beam="2">  1        4 0.11161028E+00 0.12499987E+03</pdfrwt>
<pdfrwt beam="1">  1       -4 0.82837735E-03 0.12499987E+03</pdfrwt>
<totfact> 0.41507311E+03</totfact>
</mgrwt>
</event>
<event>
 5    1  0.3235144E-002  0.1250005E+03  0.7818608E-02  0.1235068E+00
          4   -1    0    0  501    0  0.00000000000E+00  0.00000000000E+00  0.15641898312E+02  0.15693370665E+02  0.12700000000E+01 0. -1.
         -4   -1    0    0    0  501 -0.00000000000E+00 -0.00000000000E+00 -0.24926876740E+03  0.24927200264E+03  0.12700000000E+01 0. -1.
         25    2    1    2    0    0  0.00000000000E+00  0.00000000000E+00 -0.23362686909E+03  0.26496537331E+03  0.12500054037E+03 0.  0.
    9000005    1    3    3    0    0 -0.96621814678E+01  0.60166945511E+02 -0.14617469937E+03  0.15837127839E+03  0.10000000000E+01 0.  0.
    9000005    1    3    3    0    0  0.96621814678E+01 -0.60166945511E+02 -0.87452169720E+02  0.10659409492E+03  0.10000000000E+01 0.  0.
<mgrwt>
<rscale>  0 0.12500054E+03</rscale>
<asrwt>0</asrwt>
<pdfrwt beam="1">  1        4 0.24106543E-02 0.12500054E+03</pdfrwt>
<pdfrwt beam="2">  1       -4 0.38353247E-01 0.12500054E+03</pdfrwt>
<totfact> 0.80213289E+03</totfact>
</mgrwt>
</event>
<event>
 5    1  0.3235144E-002  0.1250010E+03  0.7818608E-02  0.1235068E+00
         -4   -1    0    0    0  501 -0.00000000000E+00  0.00000000000E+00  0.86448219400E+02  0.86457547603E+02  0.12700000000E+01 0.  1.
          4   -1    0    0  501    0  0.00000000000E+00 -0.00000000000E+00 -0.45166012330E+02  0.45183864042E+02  0.12700000000E+01 0.  1.
         25    2    1    2    0    0  0.00000000000E+00  0.00000000000E+00  0.41282207070E+02  0.13164141165E+03  0.12500096255E+03 0.  0.
    9000005    1    3    3    0    0 -0.89494121889E+01 -0.52518934159E+01  0.85539778474E+02  0.86172664252E+02  0.10000000000E+01 0.  0.
    9000005    1    3    3    0    0  0.89494121889E+01  0.52518934159E+01 -0.44257571403E+02  0.45468747393E+02  0.10000000000E+01 0.  0.
<mgrwt>
<rscale>  0 0.12500096E+03</rscale>
<asrwt>0</asrwt>
<pdfrwt beam="2">  1        4 0.69507081E-02 0.12500096E+03</pdfrwt>
<pdfrwt beam="1">  1       -4 0.13301817E-01 0.12500096E+03</pdfrwt>
<totfact> 0.10309134E+04</totfact>
</mgrwt>
</event>
<event>
 5    1  0.3235144E-002  0.1250006E+03  0.7818608E-02  0.1235068E+00
         -4   -1    0    0    0  501 -0.00000000000E+00  0.00000000000E+00  0.21311006220E+03  0.21311384636E+03  0.12700000000E+01 0. -1.
          4   -1    0    0  501    0  0.00000000000E+00 -0.00000000000E+00 -0.18303948813E+02  0.18347954713E+02  0.12700000000E+01 0. -1.
         25    2    1    2    0    0  0.00000000000E+00  0.00000000000E+00  0.19480611339E+03  0.23146180107E+03  0.12500057417E+03 0.  0.
    9000005    1    3    3    0    0  0.55140674928E+02  0.11710527469E+02  0.47453665544E+02  0.73691796414E+02  0.10000000000E+01 0.  0.
    9000005    1    3    3    0    0 -0.55140674928E+02 -0.11710527469E+02  0.14735244784E+03  0.15777000466E+03  0.10000000000E+01 0.  0.
<mgrwt>
<rscale>  0 0.12500057E+03</rscale>
<asrwt>0</asrwt>
<pdfrwt beam="2">  1        4 0.28196684E-02 0.12500057E+03</pdfrwt>
<pdfrwt beam="1">  1       -4 0.32789839E-01 0.12500057E+03</pdfrwt>
<totfact> 0.85084551E+03</totfact>
</mgrwt>
</event>
<event>
 5    1  0.3235144E-002  0.1249795E+03  0.7818608E-02  0.1235101E+00
         -4   -1    0    0    0  501 -0.00000000000E+00  0.00000000000E+00  0.42340055607E+01  0.44203736367E+01  0.12700000000E+01 0. -1.
          4   -1    0    0  501    0  0.00000000000E+00 -0.00000000000E+00 -0.90223960149E+03  0.90224049533E+03  0.12700000000E+01 0. -1.
         25    2    1    2    0    0  0.00000000000E+00  0.00000000000E+00 -0.89800559593E+03  0.90666086896E+03  0.12497952224E+03 0.  0.
    9000005    1    3    3    0    0 -0.41553368993E+02  0.26750355771E+00 -0.11050426424E+03  0.11806331543E+03  0.10000000000E+01 0.  0.
    9000005    1    3    3    0    0  0.41553368993E+02 -0.26750355771E+00 -0.78750133169E+03  0.78859755354E+03  0.10000000000E+01 0.  0.
<mgrwt>
<rscale>  0 0.12497952E+03</rscale>
<asrwt>0</asrwt>
<pdfrwt beam="2">  1        4 0.13882035E+00 0.12497952E+03</pdfrwt>
<pdfrwt beam="1">  1       -4 0.66579095E-03 0.12497952E+03</pdfrwt>
<totfact> 0.33921341E+03</totfact>
</mgrwt>
</event>
<event>
 5    1  0.3235144E-002  0.1250028E+03  0.7818608E-02  0.1235065E+00
          4   -1    0    0  501    0  0.00000000000E+00  0.00000000000E+00  0.57698918305E+03  0.57699058074E+03  0.12700000000E+01 0. -1.
         -4   -1    0    0    0  501 -0.00000000000E+00 -0.00000000000E+00 -0.67093858073E+01  0.68285253101E+01  0.12700000000E+01 0. -1.
         25    2    1    2    0    0  0.00000000000E+00  0.00000000000E+00  0.57027979724E+03  0.58381910605E+03  0.12500280573E+03 0.  0.
    9000005    1    3    3    0    0  0.24165346999E+02 -0.54990764857E+02  0.36569357109E+03  0.37059511080E+03  0.10000000000E+01 0.  0.
    9000005    1    3    3    0    0 -0.24165346999E+02  0.54990764857E+02  0.20458622615E+03  0.21322399524E+03  0.10000000000E+01 0.  0.
<mgrwt>
<rscale>  0 0.12500281E+03</rscale>
<asrwt>0</asrwt>
<pdfrwt beam="1">  1        4 0.88776835E-01 0.12500281E+03</pdfrwt>
<pdfrwt beam="2">  1       -4 0.10414853E-02 0.12500281E+03</pdfrwt>
<totfact> 0.49902118E+03</totfact>
</mgrwt>
</event>
<event>
 5    1  0.3235144E-002  0.1250014E+03  0.7818608E-02  0.1235067E+00
         -4   -1    0    0    0  501 -0.00000000000E+00  0.00000000000E+00  0.25264710705E+02  0.25296610584E+02  0.12700000000E+01 0.  1.
          4   -1    0    0  501    0  0.00000000000E+00 -0.00000000000E+00 -0.15448429183E+03  0.15448951201E+03  0.12700000000E+01 0.  1.
         25    2    1    2    0    0  0.00000000000E+00  0.00000000000E+00 -0.12921958112E+03  0.17978612259E+03  0.12500139892E+03 0.  0.
    9000005    1    3    3    0    0 -0.57864472060E+02 -0.23069996111E+02 -0.71774582076E+02  0.95042687670E+02  0.10000000000E+01 0.  0.
    9000005    1    3    3    0    0  0.57864472060E+02  0.23069996111E+02 -0.57444999046E+02  0.84743434924E+02  0.10000000000E+01 0.  0.
<mgrwt>
<rscale>  0 0.12500140E+03</rscale>
<asrwt>0</asrwt>
<pdfrwt beam="2">  1        4 0.23769669E-01 0.12500140E+03</pdfrwt>
<pdfrwt beam="1">  1       -4 0.38897341E-02 0.12500140E+03</pdfrwt>
<totfact> 0.93652579E+03</totfact>
</mgrwt>
</event>
<event>
 5    1  0.3235144E-002  0.1250003E+03  0.7818608E-02  0.1235069E+00
          4   -1    0    0  501    0  0.00000000000E+00  0.00000000000E+00  0.53540630326E+03  0.53540780950E+03  0.12700000000E+01 0.  1.
         -4   -1    0    0    0  501 -0.00000000000E+00 -0.00000000000E+00 -0.72390949292E+01  0.73496527396E+01  0.12700000000E+01 0.  1.
         25    2    1    2    0    0  0.00000000000E+00  0.00000000000E+00  0.52816720833E+03  0.54275746224E+03  0.12500025143E+03 0.  0.
    9000005    1    3    3    0    0  0.66896292480E+01  0.55413761329E+02  0.14205500446E+03  0.15263047001E+03  0.10000000000E+01 0.  0.
    9000005    1    3    3    0    0 -0.66896292480E+01 -0.55413761329E+02  0.38611220387E+03  0.39012699223E+03  0.10000000000E+01 0.  0.
<mgrwt>
<rscale>  0 0.12500025E+03</rscale>
<asrwt>0</asrwt>
<pdfrwt beam="1">  1        4 0.82378854E-01 0.12500025E+03</pdfrwt>
<pdfrwt beam="2">  1       -4 0.11223268E-02 0.12500025E+03</pdfrwt>
<totfact> 0.52692798E+03</totfact>
</mgrwt>
</event>
<event>
 5    1  0.3235144E-002  0.1250056E+03  0.7818608E-02  0.1235060E+00
          4   -1    0    0  501    0  0.00000000000E+00  0.00000000000E+00  0.12675566214E+03  0.12676202422E+03  0.12700000000E+01 0.  1.
         -4   -1    0    0    0  501 -0.00000000000E+00 -0.00000000000E+00 -0.30799714324E+02  0.30825886888E+02  0.12700000000E+01 0.  1.
         25    2    1    2    0    0  0.00000000000E+00  0.00000000000E+00  0.95955947817E+02  0.15758791111E+03  0.12500562310E+03 0.  0.
    9000005    1    3    3    0    0  0.38622890157E+01 -0.62029748163E+02  0.56244059394E+02  0.83827210085E+02  0.10000000000E+01 0.  0.
    9000005    1    3    3    0    0 -0.38622890157E+01  0.62029748163E+02  0.39711888423E+02  0.73760701025E+02  0.10000000000E+01 0.  0.
<mgrwt>
<rscale>  0 0.12500562E+03</rscale>
<asrwt>0</asrwt>
<pdfrwt beam="1">  1        4 0.19503374E-01 0.12500562E+03</pdfrwt>
<pdfrwt beam="2">  1       -4 0.47409203E-02 0.12500562E+03</pdfrwt>
<totfact> 0.97797478E+03</totfact>
</mgrwt>
</event>
<event>
 5    1  0.3235144E-002  0.1249751E+03  0.7818608E-02  0.1235108E+00
         -4   -1    0    0    0  501 -0.00000000000E+00  0.00000000000E+00  0.95849446500E+02  0.95857859847E+02  0.12700000000E+01 0. -1.
          4   -1    0    0  501    0  0.00000000000E+00 -0.00000000000E+00 -0.40717666742E+02  0.40737467827E+02  0.12700000000E+01 0. -1.
         25    2    1    2    0    0  0.00000000000E+00  0.00000000000E+00  0.55131779758E+02  0.13659532767E+03  0.12497507913E+03 0.  0.
    9000005    1    3    3    0    0 -0.30675144090E+01  0.46236366758E+02 -0.18241357451E+02  0.49809219802E+02  0.10000000000E+01 0.  0.
    9000005    1    3    3    0    0  0.30675144090E+01 -0.46236366758E+02  0.73373137209E+02  0.86786107871E+02  0.10000000000E+01 0.  0.
<mgrwt>
<rscale>  0 0.12497508E+03</rscale>
<asrwt>0</asrwt>
<pdfrwt beam="2">  1        4 0.62664269E-02 0.12497508E+03</pdfrwt>
<pdfrwt beam="1">  1       -4 0.14748239E-01 0.12497508E+03</pdfrwt>
<totfact> 0.10210290E+04</totfact>
</mgrwt>
</event>
<event>
 5    1  0.3235144E-002  0.1249995E+03  0.7818608E-02  0.1235070E+00
         -4   -1    0    0    0  501 -0.00000000000E+00  0.00000000000E+00  0.78135955513E+01  0.79161338694E+01  0.12700000000E+01 0.  1.
          4   -1    0    0  501    0  0.00000000000E+00 -0.00000000000E+00 -0.49656339048E+03  0.49656501454E+03  0.12700000000E+01 0.  1.
         25    2    1    2    0    0  0.00000000000E+00  0.00000000000E+00 -0.48874979493E+03  0.50448114841E+03  0.12499946823E+03 0.  0.
    9000005    1    3    3    0    0  0.56397633475E+02 -0.26236561718E+02 -0.22010375553E+03  0.22872628496E+03  0.10000000000E+01 0.  0.
    9000005    1    3    3    0    0 -0.56397633475E+02  0.26236561718E+02 -0.26864603940E+03  0.27575486345E+03  0.10000000000E+01 0.  0.
<mgrwt>
<rscale>  0 0.12499947E+03</rscale>
<asrwt>0</asrwt>
<pdfrwt beam="2">  1        4 0.76402356E-01 0.12499947E+03</pdfrwt>
<pdfrwt beam="1">  1       -4 0.12101045E-02 0.12499947E+03</pdfrwt>
<totfact> 0.55519013E+03</totfact>
</mgrwt>
</event>
<event>
 5    1  0.3235144E-002  0.1249928E+03  0.7818608E-02  0.1235080E+00
         -4   -1    0    0    0  501 -0.00000000000E+00  0.00000000000E+00  0.29161509778E+02  0.29189151281E+02  0.12700000000E+01 0.  1.
          4   -1    0    0  501    0  0.00000000000E+00 -0.00000000000E+00 -0.13384280965E+03  0.13384883486E+03  0.12700000000E+01 0.  1.
         25    2    1    2    0    0  0.00000000000E+00  0.00000000000E+00 -0.10468129987E+03  0.16303798615E+03  0.12499284133E+03 0.  0.
    9000005    1    3    3    0    0  0.40171311186E+02 -0.39761783262E+02 -0.17582718563E+02  0.59202074648E+02  0.10000000000E+01 0.  0.
    9000005    1    3    3    0    0 -0.40171311186E+02  0.39761783262E+02 -0.87098581308E+02  0.10383591150E+03  0.10000000000E+01 0.  0.
<mgrwt>
<rscale>  0 0.12499284E+03</rscale>
<asrwt>0</asrwt>
<pdfrwt beam="2">  1        4 0.20593791E-01 0.12499284E+03</pdfrwt>
<pdfrwt beam="1">  1       -4 0.44889760E-02 0.12499284E+03</pdfrwt>
<totfact> 0.96775828E+03</totfact>
</mgrwt>
</event>
<event>
 5    1  0.3235144E-002  0.1249954E+03  0.7818608E-02  0.1235076E+00
         -4   -1    0    0    0  501 -0.00000000000E+00  0.00000000000E+00  0.49986441472E+03  0.49986602805E+03  0.12700000000E+01 0. -1.
          4   -1    0    0  501    0  0.00000000000E+00 -0.00000000000E+00 -0.77608072556E+01  0.78640339049E+01  0.12700000000E+01 0. -1.
         25    2    1    2    0    0  0.00000000000E+00  0.00000000000E+00  0.49210360746E+03  0.50773006196E+03  0.12499542127E+03 0.  0.
    9000005    1    3    3    0    0  0.20166099577E+02  0.38955175249E+02  0.42683481514E+03  0.42908406713E+03  0.10000000000E+01 0.  0.
    9000005    1    3    3    0    0 -0.20166099577E+02 -0.38955175249E+02  0.65268792320E+02  0.78645994823E+02  0.10000000000E+01 0.  0.
<mgrwt>
<rscale>  0 0.12499542E+03</rscale>
<asrwt>0</asrwt>
<pdfrwt beam="2">  1        4 0.12020349E-02 0.12499542E+03</pdfrwt>
<pdfrwt beam="1">  1       -4 0.76910283E-01 0.12499542E+03</pdfrwt>
<totfact> 0.55275119E+03</totfact>
</mgrwt>
</event>
<event>
 5    1  0.3235144E-002  0.1249984E+03  0.7818608E-02  0.1235072E+00
          4   -1    0    0  501    0  0.00000000000E+00  0.00000000000E+00  0.21278441682E+03  0.21278820677E+03  0.12700000000E+01 0. -1.
         -4   -1    0    0    0  501 -0.00000000000E+00 -0.00000000000E+00 -0.18331389225E+02  0.18375329410E+02  0.12700000000E+01 0. -1.
         25    2    1    2    0    0  0.00000000000E+00  0.00000000000E+00  0.19445302760E+03  0.23116353618E+03  0.12499840207E+03 0.  0.
    9000005    1    3    3    0    0 -0.33929227054E+02  0.10835703687E+02  0.19218471504E+03  0.19545989261E+03  0.10000000000E+01 0.  0.
    9000005    1    3    3    0    0  0.33929227054E+02 -0.10835703687E+02  0.22683125573E+01  0.35703643578E+02  0.10000000000E+01 0.  0.
<mgrwt>
<rscale>  0 0.12499840E+03</rscale>
<asrwt>0</asrwt>
<pdfrwt beam="1">  1        4 0.32739738E-01 0.12499840E+03</pdfrwt>
<pdfrwt beam="2">  1       -4 0.28238851E-02 0.12499840E+03</pdfrwt>
<totfact> 0.85134287E+03</totfact>
</mgrwt>
</event>
<event>
 5    1  0.3235144E-002  0.1250019E+03  0.7818608E-02  0.1235066E+00
          4   -1    0    0  501    0  0.00000000000E+00  0.00000000000E+00  0.37978889578E+02  0.38000117810E+02  0.12700000000E+01 0.  1.
         -4   -1    0    0    0  501 -0.00000000000E+00 -0.00000000000E+00 -0.10280239674E+03  0.10281024110E+03  0.12700000000E+01 0.  1.
         25    2    1    2    0    0  0.00000000000E+00  0.00000000000E+00 -0.64823507163E+02  0.14081035891E+03  0.12500188037E+03 0.  0.
    9000005    1    3    3    0    0 -0.98935821205E+01  0.30714091543E+02  0.27873953241E+02  0.42652029914E+02  0.10000000000E+01 0.  0.
    9000005    1    3    3    0    0  0.98935821205E+01 -0.30714091543E+02 -0.92697460405E+02  0.98158328999E+02  0.10000000000E+01 0.  0.
<mgrwt>
<rscale>  0 0.12500188E+03</rscale>
<asrwt>0</asrwt>
<pdfrwt beam="1">  1        4 0.58451425E-02 0.12500188E+03</pdfrwt>
<pdfrwt beam="2">  1       -4 0.15817990E-01 0.12500188E+03</pdfrwt>
<totfact> 0.10116390E+04</totfact>
</mgrwt>
</event>
<event>
 5    1  0.3235144E-002  0.1249962E+03  0.7818608E-02  0.1235075E+00
          4   -1    0    0  501    0  0.00000000000E+00  0.00000000000E+00  0.35034794374E+02  0.35057805362E+02  0.12700000000E+01 0. -1.
         -4   -1    0    0    0  501 -0.00000000000E+00 -0.00000000000E+00 -0.11142633924E+03  0.11143357652E+03  0.12700000000E+01 0. -1.
         25    2    1    2    0    0  0.00000000000E+00  0.00000000000E+00 -0.76391544869E+02  0.14649138189E+03  0.12499622730E+03 0.  0.
    9000005    1    3    3    0    0  0.32761044420E+01  0.81797663354E+01  0.34308826109E+02  0.35436379423E+02  0.10000000000E+01 0.  0.
    9000005    1    3    3    0    0 -0.32761044420E+01 -0.81797663354E+01 -0.11070037098E+03  0.11105500246E+03  0.10000000000E+01 0.  0.
<mgrwt>
<rscale>  0 0.12499623E+03</rscale>
<asrwt>0</asrwt>
<pdfrwt beam="1">  1        4 0.53922952E-02 0.12499623E+03</pdfrwt>
<pdfrwt beam="2">  1       -4 0.17144840E-01 0.12499623E+03</pdfrwt>
<totfact> 0.10001624E+04</totfact>
</mgrwt>
</event>
<event>
 5    1  0.3235144E-002  0.1249996E+03  0.7818608E-02  0.1235070E+00
         -4   -1    0    0    0  501 -0.00000000000E+00  0.00000000000E+00  0.40961434674E+03  0.40961631554E+03  0.12700000000E+01 0.  1.
          4   -1    0    0  501    0  0.00000000000E+00 -0.00000000000E+00 -0.94920700189E+01  0.95766535514E+01  0.12700000000E+01 0.  1.
         25    2    1    2    0    0  0.00000000000E+00  0.00000000000E+00  0.40012227672E+03  0.41919296909E+03  0.12499963602E+03 0.  0.
    9000005    1    3    3    0    0  0.52296591915E+02 -0.22717048420E+02  0.28583802557E+03  0.29147105290E+03  0.10000000000E+01 0.  0.
    9000005    1    3    3    0    0 -0.52296591915E+02  0.22717048420E+02  0.11428425115E+03  0.12772191619E+03  0.10000000000E+01 0.  0.
<mgrwt>
<rscale>  0 0.12499964E+03</rscale>
<asrwt>0</asrwt>
<pdfrwt beam="2">  1        4 0.14669765E-02 0.12499964E+03</pdfrwt>
<pdfrwt beam="1">  1       -4 0.63024242E-01 0.12499964E+03</pdfrwt>
<totfact> 0.62728456E+03</totfact>
</mgrwt>
</event>
<event>
 5    1  0.3235144E-002  0.1249981E+03  0.7818608E-02  0.1235072E+00
         -4   -1    0    0    0  501 -0.00000000000E+00  0.00000000000E+00  0.65480189153E+02  0.65492503934E+02  0.12700000000E+01 0.  1.
          4   -1    0    0  501    0  0.00000000000E+00 -0.00000000000E+00 -0.59628933482E+02  0.59642456423E+02  0.12700000000E+01 0.  1.
         25    2    1    2    0    0  0.00000000000E+00  0.00000000000E+00  0.58512556719E+01  0.12513496036E+03  0.12499808443E+03 0.  0.
    9000005    1    3    3    0    0 -0.43853676765E+02 -0.33048181358E+02  0.32787858152E+02  0.63963824925E+02  0.10000000000E+01 0.  0.
    9000005    1    3    3    0    0  0.43853676765E+02  0.33048181358E+02 -0.26936602480E+02  0.61171135432E+02  0.10000000000E+01 0.  0.
<mgrwt>
<rscale>  0 0.12499808E+03</rscale>
<asrwt>0</asrwt>
<pdfrwt beam="2">  1        4 0.91756696E-02 0.12499808E+03</pdfrwt>
<pdfrwt beam="1">  1       -4 0.10075863E-01 0.12499808E+03</pdfrwt>
<totfact> 0.10450384E+04</totfact>
</mgrwt>
</event>
<event>
 5    1  0.3235144E-002  0.1249960E+03  0.7818608E-02  0.1235075E+00
          4   -1    0    0  501    0  0.00000000000E+00  0.00000000000E+00  0.39953823537E+02  0.39974002993E+02  0.12700000000E+01 0.  1.
         -4   -1    0    0    0  501 -0.00000000000E+00 -0.00000000000E+00 -0.97713932498E+02  0.97722185323E+02  0.12700000000E+01 0.  1.
         25    2    1    2    0    0  0.00000000000E+00  0.00000000000E+00 -0.57760108961E+02  0.13769618832E+03  0.12499604030E+03 0.  0.
    9000005    1    3    3    0    0  0.28632406798E+02  0.50775633051E+02 -0.53685066788E+02  0.79253176762E+02  0.10000000000E+01 0.  0.
    9000005    1    3    3    0    0 -0.28632406798E+02 -0.50775633051E+02 -0.40750421729E+01  0.58443011554E+02  0.10000000000E+01 0.  0.
<mgrwt>
<rscale>  0 0.12499604E+03</rscale>
<asrwt>0</asrwt>
<pdfrwt beam="1">  1        4 0.61489292E-02 0.12499604E+03</pdfrwt>
<pdfrwt beam="2">  1       -4 0.15035100E-01 0.12499604E+03</pdfrwt>
<totfact> 0.10182458E+04</totfact>
</mgrwt>
</event>
<event>
 5    1  0.3235144E-002  0.1250010E+03  0.7818608E-02  0.1235068E+00
          4   -1    0    0  501    0  0.00000000000E+00  0.00000000000E+00  0.53708698150E+02  0.53723711310E+02  0.12700000000E+01 0. -1.
         -4   -1    0    0    0  501 -0.00000000000E+00 -0.00000000000E+00 -0.72700758731E+02  0.72711850616E+02  0.12700000000E+01 0. -1.
         25    2    1    2    0    0  0.00000000000E+00  0.00000000000E+00 -0.18992060581E+02  0.12643556193E+03  0.12500101181E+03 0.  0.
    9000005    1    3    3    0    0 -0.34843380527E+02  0.42105871229E+02  0.21156002487E+02  0.58613496737E+02  0.10000000000E+01 0.  0.
    9000005    1    3    3    0    0  0.34843380527E+02 -0.42105871229E+02 -0.40148063068E+02  0.67822065190E+02  0.10000000000E+01 0.  0.
<mgrwt>
<rscale>  0 0.12500101E+03</rscale>
<asrwt>0</asrwt>
<pdfrwt beam="1">  1        4 0.82648847E-02 0.12500101E+03</pdfrwt>
<pdfrwt beam="2">  1       -4 0.11186740E-01 0.12500101E+03</pdfrwt>
<totfact> 0.10421196E+04</totfact>
</mgrwt>
</event>
<event>
 5    1  0.3235144E-002  0.1249978E+03  0.7818608E-02  0.1235073E+00
         -4   -1    0    0    0  501 -0.00000000000E+00  0.00000000000E+00  0.20153951707E+03  0.20154351847E+03  0.12700000000E+01 0. -1.
          4   -1    0    0  501    0  0.00000000000E+00 -0.00000000000E+00 -0.19356376701E+02  0.19397995231E+02  0.12700000000E+01 0. -1.
         25    2    1    2    0    0  0.00000000000E+00  0.00000000000E+00  0.18218314036E+03  0.22094151371E+03  0.12499782336E+03 0.  0.
    9000005    1    3    3    0    0  0.42299052956E+02  0.41957586734E+02  0.57766329497E+02  0.82991552516E+02  0.10000000000E+01 0.  0.
    9000005    1    3    3    0    0 -0.42299052956E+02 -0.41957586734E+02  0.12441681087E+03  0.13794996119E+03  0.10000000000E+01 0.  0.
<mgrwt>
<rscale>  0 0.12499782E+03</rscale>
<asrwt>0</asrwt>
<pdfrwt beam="2">  1        4 0.29814135E-02 0.12499782E+03</pdfrwt>
<pdfrwt beam="1">  1       -4 0.31009587E-01 0.12499782E+03</pdfrwt>
<totfact> 0.86723803E+03</totfact>
</mgrwt>
</event>
<event>
 5    1  0.3235144E-002  0.1250005E+03  0.7818608E-02  0.1235068E+00
         -4   -1    0    0    0  501 -0.00000000000E+00  0.00000000000E+00  0.10338714229E+03  0.10339494229E+03  0.12700000000E+01 0. -1.
          4   -1    0    0  501    0  0.00000000000E+00 -0.00000000000E+00 -0.37763163742E+02  0.37784513174E+02  0.12700000000E+01 0. -1.
         25    2    1    2    0    0  0.00000000000E+00  0.00000000000E+00  0.65623978547E+02  0.14117945546E+03  0.12500052833E+03 0.  0.
    9000005    1    3    3    0    0  0.10270610805E+02 -0.12941685038E+01  0.10241758413E+03  0.10294426578E+03  0.10000000000E+01 0.  0.
    9000005    1    3    3    0    0 -0.10270610805E+02  0.12941685038E+01 -0.36793605580E+02  0.38235189682E+02  0.10000000000E+01 0.  0.
<mgrwt>
<rscale>  0 0.12500053E+03</rscale>
<asrwt>0</asrwt>
<pdfrwt beam="2">  1        4 0.58119598E-02 0.12500053E+03</pdfrwt>
<pdfrwt beam="1">  1       -4 0.15907956E-01 0.12500053E+03</pdfrwt>
<totfact> 0.10109079E+04</totfact>
</mgrwt>
</event>
<event>
 5    1  0.3235144E-002  0.1249994E+03  0.7818608E-02  0.1235070E+00
          4   -1    0    0  501    0  0.00000000000E+00  0.00000000000E+00  0.42077267227E+03  0.42077458886E+03  0.12700000000E+01 0. -1.
         -4   -1    0    0    0  501 -0.00000000000E+00 -0.00000000000E+00 -0.92380519888E+01  0.93249399219E+01  0.12700000000E+01 0. -1.
         25    2    1    2    0    0  0.00000000000E+00  0.00000000000E+00  0.41153462029E+03  0.43009952878E+03  0.12499944387E+03 0.  0.
    9000005    1    3    3    0    0  0.52192213707E+02  0.12389156245E+01  0.32394569585E+03  0.32812707286E+03  0.10000000000E+01 0.  0.
    9000005    1    3    3    0    0 -0.52192213707E+02 -0.12389156245E+01  0.87588924431E+02  0.10197245592E+03  0.10000000000E+01 0.  0.
<mgrwt>
<rscale>  0 0.12499944E+03</rscale>
<asrwt>0</asrwt>
<pdfrwt beam="1">  1        4 0.64741085E-01 0.12499944E+03</pdfrwt>
<pdfrwt beam="2">  1       -4 0.14280700E-02 0.12499944E+03</pdfrwt>
<totfact> 0.61727728E+03</totfact>
</mgrwt>
</event>
<event>
 5    1  0.3235144E-002  0.1249998E+03  0.7818608E-02  0.1235070E+00
          4   -1    0    0  501    0  0.00000000000E+00  0.00000000000E+00  0.26703596029E+02  0.26733779024E+02  0.12700000000E+01 0.  1.
         -4   -1    0    0    0  501 -0.00000000000E+00 -0.00000000000E+00 -0.14616574199E+03  0.14617125925E+03  0.12700000000E+01 0.  1.
         25    2    1    2    0    0  0.00000000000E+00  0.00000000000E+00 -0.11946214596E+03  0.17290503827E+03  0.12499979177E+03 0.  0.
    9000005    1    3    3    0    0 -0.56354784801E+02  0.26711582557E+01 -0.96905062004E+02  0.11213646997E+03  0.10000000000E+01 0.  0.
    9000005    1    3    3    0    0  0.56354784801E+02 -0.26711582557E+01 -0.22557083953E+02  0.60768568297E+02  0.10000000000E+01 0.  0.
<mgrwt>
<rscale>  0 0.12499979E+03</rscale>
<asrwt>0</asrwt>
<pdfrwt beam="1">  1        4 0.41109918E-02 0.12499979E+03</pdfrwt>
<pdfrwt beam="2">  1       -4 0.22489783E-01 0.12499979E+03</pdfrwt>
<totfact> 0.94910378E+03</totfact>
</mgrwt>
</event>
<event>
 5    1  0.3235144E-002  0.1249994E+03  0.7818608E-02  0.1235070E+00
          4   -1    0    0  501    0  0.00000000000E+00  0.00000000000E+00  0.15225060966E+03  0.15225590642E+03  0.12700000000E+01 0. -1.
         -4   -1    0    0    0  501 -0.00000000000E+00 -0.00000000000E+00 -0.25635005027E+02  0.25666444685E+02  0.12700000000E+01 0. -1.
         25    2    1    2    0    0  0.00000000000E+00  0.00000000000E+00  0.12661560463E+03  0.17792235111E+03  0.12499940675E+03 0.  0.
    9000005    1    3    3    0    0  0.43517985975E+02 -0.23094764569E+02  0.85855287594E+01  0.50018941991E+02  0.10000000000E+01 0.  0.
    9000005    1    3    3    0    0 -0.43517985975E+02  0.23094764569E+02  0.11803007587E+03  0.12790340912E+03  0.10000000000E+01 0.  0.
<mgrwt>
<rscale>  0 0.12499941E+03</rscale>
<asrwt>0</asrwt>
<pdfrwt beam="1">  1        4 0.23425997E-01 0.12499941E+03</pdfrwt>
<pdfrwt beam="2">  1       -4 0.39466728E-02 0.12499941E+03</pdfrwt>
<totfact> 0.93993579E+03</totfact>
</mgrwt>
</event>
<event>
 5    1  0.3235144E-002  0.1249997E+03  0.7818608E-02  0.1235070E+00
          4   -1    0    0  501    0  0.00000000000E+00  0.00000000000E+00  0.71657185932E+01  0.72773912192E+01  0.12700000000E+01 0.  1.
         -4   -1    0    0    0  501 -0.00000000000E+00 -0.00000000000E+00 -0.54080050309E+03  0.54080199430E+03  0.12700000000E+01 0.  1.
         25    2    1    2    0    0  0.00000000000E+00  0.00000000000E+00 -0.53363478450E+03  0.54807938552E+03  0.12499971844E+03 0.  0.
    9000005    1    3    3    0    0 -0.29717915846E+02  0.20181300696E+02 -0.42608368226E+02  0.55739684812E+02  0.10000000000E+01 0.  0.
    9000005    1    3    3    0    0  0.29717915846E+02 -0.20181300696E+02 -0.49102641627E+03  0.49233970071E+03  0.10000000000E+01 0.  0.
<mgrwt>
<rscale>  0 0.12499972E+03</rscale>
<asrwt>0</asrwt>
<pdfrwt beam="1">  1        4 0.11111236E-02 0.12499972E+03</pdfrwt>
<pdfrwt beam="2">  1       -4 0.83208751E-01 0.12499972E+03</pdfrwt>
<totfact> 0.52318396E+03</totfact>
</mgrwt>
</event>
<event>
 5    1  0.3235144E-002  0.1250051E+03  0.7818608E-02  0.1235061E+00
         -4   -1    0    0    0  501 -0.00000000000E+00  0.00000000000E+00  0.14714019102E+03  0.14714567174E+03  0.12700000000E+01 0.  1.
          4   -1    0    0  501    0  0.00000000000E+00 -0.00000000000E+00 -0.26528818764E+02  0.26559200383E+02  0.12700000000E+01 0.  1.
         25    2    1    2    0    0  0.00000000000E+00  0.00000000000E+00  0.12061137225E+03  0.17370487213E+03  0.12500511783E+03 0.  0.
    9000005    1    3    3    0    0  0.61112460660E+02 -0.13038106177E+02  0.61582900522E+02  0.87739265425E+02  0.10000000000E+01 0.  0.
    9000005    1    3    3    0    0 -0.61112460660E+02  0.13038106177E+02  0.59028471732E+02  0.85965606702E+02  0.10000000000E+01 0.  0.
<mgrwt>
<rscale>  0 0.12500512E+03</rscale>
<asrwt>0</asrwt>
<pdfrwt beam="2">  1        4 0.40841153E-02 0.12500512E+03</pdfrwt>
<pdfrwt beam="1">  1       -4 0.22639711E-01 0.12500512E+03</pdfrwt>
<totfact> 0.94751696E+03</totfact>
</mgrwt>
</event>
<event>
 5    1  0.3235144E-002  0.1249989E+03  0.7818608E-02  0.1235071E+00
          4   -1    0    0  501    0  0.00000000000E+00  0.00000000000E+00  0.60094860221E+03  0.60094994417E+03  0.12700000000E+01 0.  1.
         -4   -1    0    0    0  501 -0.00000000000E+00 -0.00000000000E+00 -0.64366320437E+01  0.65607264892E+01  0.12700000000E+01 0.  1.
         25    2    1    2    0    0  0.00000000000E+00  0.00000000000E+00  0.59451197016E+03  0.60751067066E+03  0.12499892917E+03 0.  0.
    9000005    1    3    3    0    0  0.61287036411E+02  0.12169563670E+02  0.30207697992E+03  0.30847317697E+03  0.10000000000E+01 0.  0.
    9000005    1    3    3    0    0 -0.61287036411E+02 -0.12169563670E+02  0.29243499025E+03  0.29903749369E+03  0.10000000000E+01 0.  0.
<mgrwt>
<rscale>  0 0.12499893E+03</rscale>
<asrwt>0</asrwt>
<pdfrwt beam="1">  1        4 0.92463261E-01 0.12499893E+03</pdfrwt>
<pdfrwt beam="2">  1       -4 0.99990024E-03 0.12499893E+03</pdfrwt>
<totfact> 0.48398065E+03</totfact>
</mgrwt>
</event>
<event>
 5    1  0.3235144E-002  0.1250006E+03  0.7818608E-02  0.1235068E+00
         -4   -1    0    0    0  501 -0.00000000000E+00  0.00000000000E+00  0.65317969461E+03  0.65318092926E+03  0.12700000000E+01 0. -1.
          4   -1    0    0  501    0  0.00000000000E+00 -0.00000000000E+00 -0.59117371772E+01  0.60466136351E+01  0.12700000000E+01 0. -1.
         25    2    1    2    0    0  0.00000000000E+00  0.00000000000E+00  0.64726795743E+03  0.65922754289E+03  0.12500057837E+03 0.  0.
    9000005    1    3    3    0    0 -0.47636954315E+02  0.18775228355E+02  0.51257264296E+03  0.51512474501E+03  0.10000000000E+01 0.  0.
    9000005    1    3    3    0    0  0.47636954315E+02 -0.18775228355E+02  0.13469531447E+03  0.14410279788E+03  0.10000000000E+01 0.  0.
<mgrwt>
<rscale>  0 0.12500058E+03</rscale>
<asrwt>0</asrwt>
<pdfrwt beam="2">  1        4 0.91996867E-03 0.12500058E+03</pdfrwt>
<pdfrwt beam="1">  1       -4 0.10049959E+00 0.12500058E+03</pdfrwt>
<totfact> 0.45327437E+03</totfact>
</mgrwt>
</event>
<event>
 5    1  0.3235144E-002  0.1249990E+03  0.7818608E-02  0.1235071E+00
          4   -1    0    0  501    0  0.00000000000E+00  0.00000000000E+00  0.71474800215E+01  0.72594332187E+01  0.12700000000E+01 0.  1.
         -4   -1    0    0    0  501 -0.00000000000E+00 -0.00000000000E+00 -0.54215305012E+03  0.54215453761E+03  0.12700000000E+01 0.  1.
         25    2    1    2    0    0  0.00000000000E+00  0.00000000000E+00 -0.53500557010E+03  0.54941397083E+03  0.12499900523E+03 0.  0.
    9000005    1    3    3    0    0  0.38104350385E+02 -0.50368735928E+01 -0.48407683204E+03  0.48560137040E+03  0.10000000000E+01 0.  0.
    9000005    1    3    3    0    0 -0.38104350385E+02  0.50368735928E+01 -0.50928738055E+02  0.63812600431E+02  0.10000000000E+01 0.  0.
<mgrwt>
<rscale>  0 0.12499901E+03</rscale>
<asrwt>0</asrwt>
<pdfrwt beam="1">  1        4 0.11083389E-02 0.12499901E+03</pdfrwt>
<pdfrwt beam="2">  1       -4 0.83416856E-01 0.12499901E+03</pdfrwt>
<totfact> 0.52225954E+03</totfact>
</mgrwt>
</event>
<event>
 5    1  0.3235144E-002  0.1250029E+03  0.7818608E-02  0.1235065E+00
          4   -1    0    0  501    0  0.00000000000E+00  0.00000000000E+00  0.11135226001E+03  0.11135950211E+03  0.12700000000E+01 0.  1.
         -4   -1    0    0    0  501 -0.00000000000E+00 -0.00000000000E+00 -0.35061853928E+02  0.35084847169E+02  0.12700000000E+01 0.  1.
         25    2    1    2    0    0  0.00000000000E+00  0.00000000000E+00  0.76290406085E+02  0.14644434928E+03  0.12500288547E+03 0.  0.
    9000005    1    3    3    0    0 -0.20649275004E+02 -0.36060676406E+02 -0.16537232410E+02  0.44735276873E+02  0.10000000000E+01 0.  0.
    9000005    1    3    3    0    0  0.20649275004E+02  0.36060676406E+02  0.92827638495E+02  0.10170907241E+03  0.10000000000E+01 0.  0.
<mgrwt>
<rscale>  0 0.12500289E+03</rscale>
<asrwt>0</asrwt>
<pdfrwt beam="1">  1        4 0.17133443E-01 0.12500289E+03</pdfrwt>
<pdfrwt beam="2">  1       -4 0.53964572E-02 0.12500289E+03</pdfrwt>
<totfact> 0.10001075E+04</totfact>
</mgrwt>
</event>
<event>
 5    1  0.3235144E-002  0.1250007E+03  0.7818608E-02  0.1235068E+00
         -4   -1    0    0    0  501 -0.00000000000E+00  0.00000000000E+00  0.28187891026E+01  0.30916778624E+01  0.12700000000E+01 0. -1.
          4   -1    0    0  501    0  0.00000000000E+00 -0.00000000000E+00 -0.13215500869E+04  0.13215506971E+04  0.12700000000E+01 0. -1.
         25    2    1    2    0    0  0.00000000000E+00  0.00000000000E+00 -0.13187312978E+04  0.13246423750E+04  0.12500074334E+03 0.  0.
    9000005    1    3    3    0    0  0.48190782043E+01  0.33136083072E+02 -0.10021819316E+03  0.10566886843E+03  0.10000000000E+01 0.  0.
    9000005    1    3    3    0    0 -0.48190782043E+01 -0.33136083072E+02 -0.12185131046E+04  0.12189735065E+04  0.10000000000E+01 0.  0.
<mgrwt>
<rscale>  0 0.12500074E+03</rscale>
<asrwt>0</asrwt>
<pdfrwt beam="2">  1        4 0.20333596E+00 0.12500074E+03</pdfrwt>
<pdfrwt beam="1">  1       -4 0.45469930E-03 0.12500074E+03</pdfrwt>
<totfact> 0.21654005E+03</totfact>
</mgrwt>
</event>
<event>
 5    1  0.3235144E-002  0.1249973E+03  0.7818608E-02  0.1235073E+00
          4   -1    0    0  501    0  0.00000000000E+00  0.00000000000E+00  0.15854038223E+03  0.15854546887E+03  0.12700000000E+01 0. -1.
         -4   -1    0    0    0  501 -0.00000000000E+00 -0.00000000000E+00 -0.24615921286E+02  0.24648660831E+02  0.12700000000E+01 0. -1.
         25    2    1    2    0    0  0.00000000000E+00  0.00000000000E+00  0.13392446094E+03  0.18319412970E+03  0.12499731163E+03 0.  0.
    9000005    1    3    3    0    0 -0.57594721240E+02  0.24105755850E+02  0.63128501303E+02  0.88794408927E+02  0.10000000000E+01 0.  0.
    9000005    1    3    3    0    0  0.57594721240E+02 -0.24105755850E+02  0.70795959641E+02  0.94399720769E+02  0.10000000000E+01 0.  0.
<mgrwt>
<rscale>  0 0.12499731E+03</rscale>
<asrwt>0</asrwt>
<pdfrwt beam="1">  1        4 0.24393739E-01 0.12499731E+03</pdfrwt>
<pdfrwt beam="2">  1       -4 0.37899744E-02 0.12499731E+03</pdfrwt>
<totfact> 0.93050794E+03</totfact>
</mgrwt>
</event>
<event>
 5    1  0.3235144E-002  0.1250016E+03  0.7818608E-02  0.1235067E+00
          4   -1    0    0  501    0  0.00000000000E+00  0.00000000000E+00  0.22311042156E+02  0.22347158703E+02  0.12700000000E+01 0.  1.
         -4   -1    0    0    0  501 -0.00000000000E+00 -0.00000000000E+00 -0.17490601437E+03  0.17491062507E+03  0.12700000000E+01 0.  1.
         25    2    1    2    0    0  0.00000000000E+00  0.00000000000E+00 -0.15259497221E+03  0.19725778377E+03  0.12500163085E+03 0.  0.
    9000005    1    3    3    0    0  0.75176212619E+01 -0.52537043892E+02 -0.24229372059E+02  0.58349962131E+02  0.10000000000E+01 0.  0.
    9000005    1    3    3    0    0 -0.75176212619E+01  0.52537043892E+02 -0.12836560016E+03  0.13890782164E+03  0.10000000000E+01 0.  0.
<mgrwt>
<rscale>  0 0.12500163E+03</rscale>
<asrwt>0</asrwt>
<pdfrwt beam="1">  1        4 0.34356010E-02 0.12500163E+03</pdfrwt>
<pdfrwt beam="2">  1       -4 0.26911750E-01 0.12500163E+03</pdfrwt>
<totfact> 0.90596287E+03</totfact>
</mgrwt>
</event>
<event>
 5    1  0.3235144E-002  0.1250029E+03  0.7818608E-02  0.1235065E+00
          4   -1    0    0  501    0  0.00000000000E+00  0.00000000000E+00  0.19341894970E+02  0.19383544594E+02  0.12700000000E+01 0.  1.
         -4   -1    0    0    0  501 -0.00000000000E+00 -0.00000000000E+00 -0.20170654231E+03  0.20171054041E+03  0.12700000000E+01 0.  1.
         25    2    1    2    0    0  0.00000000000E+00  0.00000000000E+00 -0.18236464734E+03  0.22109408500E+03  0.12500291926E+03 0.  0.
    9000005    1    3    3    0    0 -0.23075851652E+02  0.46079377545E+01  0.11215287606E+02  0.26086599930E+02  0.10000000000E+01 0.  0.
    9000005    1    3    3    0    0  0.23075851652E+02 -0.46079377545E+01 -0.19357993495E+03  0.19500748507E+03  0.10000000000E+01 0.  0.
<mgrwt>
<rscale>  0 0.12500292E+03</rscale>
<asrwt>0</asrwt>
<pdfrwt beam="1">  1        4 0.29791877E-02 0.12500292E+03</pdfrwt>
<pdfrwt beam="2">  1       -4 0.31035286E-01 0.12500292E+03</pdfrwt>
<totfact> 0.86689869E+03</totfact>
</mgrwt>
</event>
<event>
 5    1  0.3235144E-002  0.1250195E+03  0.7818608E-02  0.1235039E+00
         -4   -1    0    0    0  501 -0.00000000000E+00  0.00000000000E+00  0.14135154357E+03  0.14135724873E+03  0.12700000000E+01 0. -1.
          4   -1    0    0  501    0  0.00000000000E+00 -0.00000000000E+00 -0.27622789881E+02  0.27651969564E+02  0.12700000000E+01 0. -1.
         25    2    1    2    0    0  0.00000000000E+00  0.00000000000E+00  0.11372875369E+03  0.16900921830E+03  0.12501954429E+03 0.  0.
    9000005    1    3    3    0    0  0.45583965891E+02  0.42555662006E+02  0.51194720460E+02  0.80689415155E+02  0.10000000000E+01 0.  0.
    9000005    1    3    3    0    0 -0.45583965891E+02 -0.42555662006E+02  0.62534033227E+02  0.88319803140E+02  0.10000000000E+01 0.  0.
<mgrwt>
<rscale>  0 0.12501954E+03</rscale>
<asrwt>0</asrwt>
<pdfrwt beam="2">  1        4 0.42523435E-02 0.12501954E+03</pdfrwt>
<pdfrwt beam="1">  1       -4 0.21749074E-01 0.12501954E+03</pdfrwt>
<totfact> 0.95591494E+03</totfact>
</mgrwt>
</event>
<event>
 5    1  0.3235144E-002  0.1250056E+03  0.7818608E-02  0.1235060E+00
          4   -1    0    0  501    0  0.00000000000E+00  0.00000000000E+00  0.86733799823E+03  0.86733892803E+03  0.12700000000E+01 0.  1.
         -4   -1    0    0    0  501 -0.00000000000E+00 -0.00000000000E+00 -0.44136535741E+01  0.45927375140E+01  0.12700000000E+01 0.  1.
         25    2    1    2    0    0  0.00000000000E+00  0.00000000000E+00  0.86292434466E+03  0.87193166554E+03  0.12500561898E+03 0.  0.
    9000005    1    3    3    0    0  0.20817844493E+02  0.40853835092E+02  0.13527054249E+03  0.14283395310E+03  0.10000000000E+01 0.  0.
    9000005    1    3    3    0    0 -0.20817844493E+02 -0.40853835092E+02  0.72765380216E+03  0.72909771244E+03  0.10000000000E+01 0.  0.
<mgrwt>
<rscale>  0 0.12500562E+03</rscale>
<asrwt>0</asrwt>
<pdfrwt beam="1">  1        4 0.13345038E+00 0.12500562E+03</pdfrwt>
<pdfrwt beam="2">  1       -4 0.69287129E-03 0.12500562E+03</pdfrwt>
<totfact> 0.35241982E+03</totfact>
</mgrwt>
</event>
<event>
 5    1  0.3235144E-002  0.1250022E+03  0.7818608E-02  0.1235066E+00
         -4   -1    0    0    0  501 -0.00000000000E+00  0.00000000000E+00  0.55774587882E+02  0.55789045102E+02  0.12700000000E+01 0. -1.
          4   -1    0    0  501    0  0.00000000000E+00 -0.00000000000E+00 -0.70009505138E+02  0.70021023341E+02  0.12700000000E+01 0. -1.
         25    2    1    2    0    0  0.00000000000E+00  0.00000000000E+00 -0.14234917257E+02  0.12581006844E+03  0.12500216179E+03 0.  0.
    9000005    1    3    3    0    0 -0.39316446025E+02  0.16496224210E+02 -0.53101665544E+02  0.68107967410E+02  0.10000000000E+01 0.  0.
    9000005    1    3    3    0    0  0.39316446025E+02 -0.16496224210E+02  0.38866748287E+02  0.57702101033E+02  0.10000000000E+01 0.  0.
<mgrwt>
<rscale>  0 0.12500216E+03</rscale>
<asrwt>0</asrwt>
<pdfrwt beam="2">  1        4 0.10772691E-01 0.12500216E+03</pdfrwt>
<pdfrwt beam="1">  1       -4 0.85827039E-02 0.12500216E+03</pdfrwt>
<totfact> 0.10434615E+04</totfact>
</mgrwt>
</event>
<event>
 5    1  0.3235144E-002  0.1249951E+03  0.7818608E-02  0.1235077E+00
         -4   -1    0    0    0  501 -0.00000000000E+00  0.00000000000E+00  0.15013538363E+03  0.15014075502E+03  0.12700000000E+01 0.  1.
          4   -1    0    0  501    0  0.00000000000E+00 -0.00000000000E+00 -0.25994788595E+02  0.26025793631E+02  0.12700000000E+01 0.  1.
         25    2    1    2    0    0  0.00000000000E+00  0.00000000000E+00  0.12414059504E+03  0.17616654865E+03  0.12499506201E+03 0.  0.
    9000005    1    3    3    0    0  0.43551073093E+02 -0.30799418521E+02  0.16191712569E+02  0.55753669877E+02  0.10000000000E+01 0.  0.
    9000005    1    3    3    0    0 -0.43551073093E+02  0.30799418521E+02  0.10794888247E+03  0.12041287877E+03  0.10000000000E+01 0.  0.
<mgrwt>
<rscale>  0 0.12499506E+03</rscale>
<asrwt>0</asrwt>
<pdfrwt beam="2">  1        4 0.40019963E-02 0.12499506E+03</pdfrwt>
<pdfrwt beam="1">  1       -4 0.23100550E-01 0.12499506E+03</pdfrwt>
<totfact> 0.94322069E+03</totfact>
</mgrwt>
</event>
<event>
 5    1  0.3235144E-002  0.1250007E+03  0.7818608E-02  0.1235068E+00
          4   -1    0    0  501    0  0.00000000000E+00  0.00000000000E+00  0.28619013537E+03  0.28619295324E+03  0.12700000000E+01 0.  1.
         -4   -1    0    0    0  501 -0.00000000000E+00 -0.00000000000E+00 -0.13616858944E+02  0.13675955086E+02  0.12700000000E+01 0.  1.
         25    2    1    2    0    0  0.00000000000E+00  0.00000000000E+00  0.27257327642E+03  0.29986890832E+03  0.12500068463E+03 0.  0.
    9000005    1    3    3    0    0  0.58167717146E+02 -0.22502439952E+02  0.12685735634E+03  0.14136347470E+03  0.10000000000E+01 0.  0.
    9000005    1    3    3    0    0 -0.58167717146E+02  0.22502439952E+02  0.14571592008E+03  0.15850543362E+03  0.10000000000E+01 0.  0.
<mgrwt>
<rscale>  0 0.12500068E+03</rscale>
<asrwt>0</asrwt>
<pdfrwt beam="1">  1        4 0.44034012E-01 0.12500068E+03</pdfrwt>
<pdfrwt beam="2">  1       -4 0.20996641E-02 0.12500068E+03</pdfrwt>
<totfact> 0.75614136E+03</totfact>
</mgrwt>
</event>
<event>
 5    1  0.3235144E-002  0.1249999E+03  0.7818608E-02  0.1235069E+00
         -4   -1    0    0    0  501 -0.00000000000E+00  0.00000000000E+00  0.30190898028E+03  0.30191165143E+03  0.12700000000E+01 0. -1.
          4   -1    0    0  501    0  0.00000000000E+00 -0.00000000000E+00 -0.12904582129E+02  0.12966924845E+02  0.12700000000E+01 0. -1.
         25    2    1    2    0    0  0.00000000000E+00  0.00000000000E+00  0.28900439815E+03  0.31487857628E+03  0.12499990260E+03 0.  0.
    9000005    1    3    3    0    0  0.61218897769E+01  0.57088524390E+02  0.82354760826E+02  0.10039862440E+03  0.10000000000E+01 0.  0.
    9000005    1    3    3    0    0 -0.61218897769E+01 -0.57088524390E+02  0.20664963732E+03  0.21447995187E+03  0.10000000000E+01 0.  0.
<mgrwt>
<rscale>  0 0.12499990E+03</rscale>
<asrwt>0</asrwt>
<pdfrwt beam="2">  1        4 0.19903215E-02 0.12499990E+03</pdfrwt>
<pdfrwt beam="1">  1       -4 0.46452533E-01 0.12499990E+03</pdfrwt>
<totfact> 0.73769580E+03</totfact>
</mgrwt>
</event>
<event>
 5    1  0.3235144E-002  0.1250015E+03  0.7818608E-02  0.1235067E+00
          4   -1    0    0  501    0  0.00000000000E+00  0.00000000000E+00  0.14995225337E+02  0.15048909691E+02  0.12700000000E+01 0.  1.
         -4   -1    0    0    0  501 -0.00000000000E+00 -0.00000000000E+00 -0.25998521462E+03  0.25998831651E+03  0.12700000000E+01 0.  1.
         25    2    1    2    0    0  0.00000000000E+00  0.00000000000E+00 -0.24498998929E+03  0.27503722620E+03  0.12500152378E+03 0.  0.
    9000005    1    3    3    0    0  0.60292452163E+02  0.12968513953E+01 -0.86442520497E+02  0.10540479572E+03  0.10000000000E+01 0.  0.
    9000005    1    3    3    0    0 -0.60292452163E+02 -0.12968513953E+01 -0.15854746879E+03  0.16963243048E+03  0.10000000000E+01 0.  0.
<mgrwt>
<rscale>  0 0.12500152E+03</rscale>
<asrwt>0</asrwt>
<pdfrwt beam="1">  1        4 0.23113261E-02 0.12500152E+03</pdfrwt>
<pdfrwt beam="2">  1       -4 0.40002090E-01 0.12500152E+03</pdfrwt>
<totfact> 0.78838098E+03</totfact>
</mgrwt>
</event>
<event>
 4    1  0.3235144E-002  0.1247584E+03  0.7818608E-02  0.1235447E+00
          4   -1    0    0  501    0  0.00000000000E+00  0.00000000000E+00  0.17694278328E+02  0.17739796661E+02  0.12700000000E+01 0.  1.
         -4   -1    0    0    0  501 -0.00000000000E+00 -0.00000000000E+00 -0.21958112308E+03  0.21958479572E+03  0.12700000000E+01 0.  1.
    9000005    1    1    2    0    0  0.44837631450E+02 -0.34898477104E+02 -0.52004729530E+02  0.77031219591E+02  0.10000000000E+01 0.  0.
    9000005    1    1    2    0    0 -0.44837631450E+02  0.34898477104E+02 -0.14988211522E+03  0.16029337279E+03  0.10000000000E+01 0.  0.
<mgrwt>
<rscale>  0 0.12475842E+03</rscale>
<asrwt>0</asrwt>
<pdfrwt beam="1">  1        4 0.27259807E-02 0.12475842E+03</pdfrwt>
<pdfrwt beam="2">  1       -4 0.33785493E-01 0.12475842E+03</pdfrwt>
<totfact> 0.84652608E+03</totfact>
</mgrwt>
</event>
<event>
 5    1  0.3235144E-002  0.1249963E+03  0.7818608E-02  0.1235075E+00
          4   -1    0    0  501    0  0.00000000000E+00  0.00000000000E+00  0.51613846143E+02  0.51629468462E+02  0.12700000000E+01 0.  1.
         -4   -1    0    0    0  501 -0.00000000000E+00 -0.00000000000E+00 -0.75645368530E+02  0.75656028709E+02  0.12700000000E+01 0.  1.
         25    2    1    2    0    0  0.00000000000E+00  0.00000000000E+00 -0.24031522387E+02  0.12728549717E+03  0.12499633483E+03 0.  0.
    9000005    1    3    3    0    0  0.48840911862E+02  0.23844538865E+02 -0.43419216390E+02  0.69571725989E+02  0.10000000000E+01 0.  0.
    9000005    1    3    3    0    0 -0.48840911862E+02 -0.23844538865E+02  0.19387694003E+02  0.57713771181E+02  0.10000000000E+01 0.  0.
<mgrwt>
<rscale>  0 0.12499633E+03</rscale>
<asrwt>0</asrwt>
<pdfrwt beam="1">  1        4 0.79426135E-02 0.12499633E+03</pdfrwt>
<pdfrwt beam="2">  1       -4 0.11639771E-01 0.12499633E+03</pdfrwt>
<totfact> 0.10403810E+04</totfact>
</mgrwt>
</event>
<event>
 5    1  0.3235144E-002  0.1249870E+03  0.7818608E-02  0.1235090E+00
          4   -1    0    0  501    0  0.00000000000E+00  0.00000000000E+00  0.20168281497E+03  0.20168681353E+03  0.12700000000E+01 0.  1.
         -4   -1    0    0    0  501 -0.00000000000E+00 -0.00000000000E+00 -0.19339246391E+02  0.19380901707E+02  0.12700000000E+01 0.  1.
         25    2    1    2    0    0  0.00000000000E+00  0.00000000000E+00  0.18234356857E+03  0.22106771524E+03  0.12498703021E+03 0.  0.
    9000005    1    3    3    0    0 -0.42185270213E+02 -0.33942772090E+01  0.17248163016E+03  0.17760076262E+03  0.10000000000E+01 0.  0.
    9000005    1    3    3    0    0  0.42185270213E+02  0.33942772090E+01  0.98619384153E+01  0.43466952619E+02  0.10000000000E+01 0.  0.
<mgrwt>
<rscale>  0 0.12498703E+03</rscale>
<asrwt>0</asrwt>
<pdfrwt beam="1">  1        4 0.31031636E-01 0.12498703E+03</pdfrwt>
<pdfrwt beam="2">  1       -4 0.29787807E-02 0.12498703E+03</pdfrwt>
<totfact> 0.86724799E+03</totfact>
</mgrwt>
</event>
<event>
 5    1  0.3235144E-002  0.1250014E+03  0.7818608E-02  0.1235067E+00
          4   -1    0    0  501    0  0.00000000000E+00  0.00000000000E+00  0.10308768938E+03  0.10309551204E+03  0.12700000000E+01 0.  1.
         -4   -1    0    0    0  501 -0.00000000000E+00 -0.00000000000E+00 -0.37873461514E+02  0.37894748806E+02  0.12700000000E+01 0.  1.
         25    2    1    2    0    0  0.00000000000E+00  0.00000000000E+00  0.65214227866E+02  0.14099026084E+03  0.12500143254E+03 0.  0.
    9000005    1    3    3    0    0 -0.92940828909E+01  0.14158939289E+02 -0.35240948828E+02  0.39112402289E+02  0.10000000000E+01 0.  0.
    9000005    1    3    3    0    0  0.92940828909E+01 -0.14158939289E+02  0.10045517669E+03  0.10187785855E+03  0.10000000000E+01 0.  0.
<mgrwt>
<rscale>  0 0.12500143E+03</rscale>
<asrwt>0</asrwt>
<pdfrwt beam="1">  1        4 0.15861883E-01 0.12500143E+03</pdfrwt>
<pdfrwt beam="2">  1       -4 0.58289258E-02 0.12500143E+03</pdfrwt>
<totfact> 0.10112777E+04</totfact>
</mgrwt>
</event>
<event>
 5    1  0.3235144E-002  0.1250003E+03  0.7818608E-02  0.1235069E+00
         -4   -1    0    0    0  501 -0.00000000000E+00  0.00000000000E+00  0.10767573077E+03  0.10768322013E+03  0.12700000000E+01 0. -1.
          4   -1    0    0  501    0  0.00000000000E+00 -0.00000000000E+00 -0.36258213291E+02  0.36280448331E+02  0.12700000000E+01 0. -1.
         25    2    1    2    0    0  0.00000000000E+00  0.00000000000E+00  0.71417517483E+02  0.14396366846E+03  0.12500030413E+03 0.  0.
    9000005    1    3    3    0    0  0.14326590841E+02 -0.31282642521E+02  0.95790034907E+02  0.10178696241E+03  0.10000000000E+01 0.  0.
    9000005    1    3    3    0    0 -0.14326590841E+02  0.31282642521E+02 -0.24372517424E+02  0.42176706057E+02  0.10000000000E+01 0.  0.
<mgrwt>
<rscale>  0 0.12500030E+03</rscale>
<asrwt>0</asrwt>
<pdfrwt beam="2">  1        4 0.55804733E-02 0.12500030E+03</pdfrwt>
<pdfrwt beam="1">  1       -4 0.16567783E-01 0.12500030E+03</pdfrwt>
<totfact> 0.10052018E+04</totfact>
</mgrwt>
</event>
<event>
 5    1  0.3235144E-002  0.1250028E+03  0.7818608E-02  0.1235065E+00
         -4   -1    0    0    0  501 -0.00000000000E+00  0.00000000000E+00  0.64717596768E+03  0.64717721378E+03  0.12700000000E+01 0.  1.
          4   -1    0    0  501    0  0.00000000000E+00 -0.00000000000E+00 -0.59680431760E+01  0.61016751266E+01  0.12700000000E+01 0.  1.
         25    2    1    2    0    0  0.00000000000E+00  0.00000000000E+00  0.64120792450E+03  0.65327888891E+03  0.12500281697E+03 0.  0.
    9000005    1    3    3    0    0 -0.35955399730E+02 -0.13525968686E+02  0.57820859724E+03  0.57948418832E+03  0.10000000000E+01 0.  0.
    9000005    1    3    3    0    0  0.35955399730E+02  0.13525968686E+02  0.62999327264E+02  0.73794700584E+02  0.10000000000E+01 0.  0.
<mgrwt>
<rscale>  0 0.12500282E+03</rscale>
<asrwt>0</asrwt>
<pdfrwt beam="2">  1        4 0.92853577E-03 0.12500282E+03</pdfrwt>
<pdfrwt beam="1">  1       -4 0.99575904E-01 0.12500282E+03</pdfrwt>
<totfact> 0.45665373E+03</totfact>
</mgrwt>
</event>
<event>
 5    1  0.3235144E-002  0.1249979E+03  0.7818608E-02  0.1235073E+00
         -4   -1    0    0    0  501 -0.00000000000E+00  0.00000000000E+00  0.63796339725E+02  0.63808979480E+02  0.12700000000E+01 0. -1.
          4   -1    0    0  501    0  0.00000000000E+00 -0.00000000000E+00 -0.61202678495E+02  0.61215853788E+02  0.12700000000E+01 0. -1.
         25    2    1    2    0    0  0.00000000000E+00  0.00000000000E+00  0.25936612297E+01  0.12502483327E+03  0.12499792740E+03 0.  0.
    9000005    1    3    3    0    0  0.62297405905E+02 -0.15416857545E-01  0.62125037932E+01  0.62614393102E+02  0.10000000000E+01 0.  0.
    9000005    1    3    3    0    0 -0.62297405905E+02  0.15416857545E-01 -0.36188425634E+01  0.62410440165E+02  0.10000000000E+01 0.  0.
<mgrwt>
<rscale>  0 0.12499793E+03</rscale>
<asrwt>0</asrwt>
<pdfrwt beam="2">  1        4 0.94177825E-02 0.12499793E+03</pdfrwt>
<pdfrwt beam="1">  1       -4 0.98168072E-02 0.12499793E+03</pdfrwt>
<totfact> 0.10452813E+04</totfact>
</mgrwt>
</event>
<event>
 5    1  0.3235144E-002  0.1249990E+03  0.7818608E-02  0.1235071E+00
          4   -1    0    0  501    0  0.00000000000E+00  0.00000000000E+00  0.26124722879E+03  0.26125031569E+03  0.12700000000E+01 0. -1.
         -4   -1    0    0    0  501 -0.00000000000E+00 -0.00000000000E+00 -0.14921933271E+02  0.14975880360E+02  0.12700000000E+01 0. -1.
         25    2    1    2    0    0  0.00000000000E+00  0.00000000000E+00  0.24632529552E+03  0.27622619605E+03  0.12499904069E+03 0.  0.
    9000005    1    3    3    0    0  0.29409984525E+02  0.22995327079E+02  0.12418413621E+02  0.39356692622E+02  0.10000000000E+01 0.  0.
    9000005    1    3    3    0    0 -0.29409984525E+02 -0.22995327079E+02  0.23390688189E+03  0.23686950343E+03  0.10000000000E+01 0.  0.
<mgrwt>
<rscale>  0 0.12499904E+03</rscale>
<asrwt>0</asrwt>
<pdfrwt beam="1">  1        4 0.40196265E-01 0.12499904E+03</pdfrwt>
<pdfrwt beam="2">  1       -4 0.23000695E-02 0.12499904E+03</pdfrwt>
<totfact> 0.78682839E+03</totfact>
</mgrwt>
</event>
<event>
 5    1  0.3235144E-002  0.1250061E+03  0.7818608E-02  0.1235060E+00
          4   -1    0    0  501    0  0.00000000000E+00  0.00000000000E+00  0.61261234362E+02  0.61274397064E+02  0.12700000000E+01 0. -1.
         -4   -1    0    0    0  501 -0.00000000000E+00 -0.00000000000E+00 -0.63743723040E+02  0.63756373226E+02  0.12700000000E+01 0. -1.
         25    2    1    2    0    0  0.00000000000E+00  0.00000000000E+00 -0.24824886776E+01  0.12503077029E+03  0.12500612293E+03 0.  0.
    9000005    1    3    3    0    0  0.21826873240E+02  0.38712114044E+02  0.42705927414E+02  0.61642813089E+02  0.10000000000E+01 0.  0.
    9000005    1    3    3    0    0 -0.21826873240E+02 -0.38712114044E+02 -0.45188416092E+02  0.63387957201E+02  0.10000000000E+01 0.  0.
<mgrwt>
<rscale>  0 0.12500612E+03</rscale>
<asrwt>0</asrwt>
<pdfrwt beam="1">  1        4 0.94267909E-02 0.12500612E+03</pdfrwt>
<pdfrwt beam="2">  1       -4 0.98087122E-02 0.12500612E+03</pdfrwt>
<totfact> 0.10450748E+04</totfact>
</mgrwt>
</event>
<event>
 5    1  0.3235144E-002  0.1250004E+03  0.7818608E-02  0.1235069E+00
          4   -1    0    0  501    0  0.00000000000E+00  0.00000000000E+00  0.46511582014E+02  0.46528917475E+02  0.12700000000E+01 0. -1.
         -4   -1    0    0    0  501 -0.00000000000E+00 -0.00000000000E+00 -0.83947200711E+02  0.83956806795E+02  0.12700000000E+01 0. -1.
         25    2    1    2    0    0  0.00000000000E+00  0.00000000000E+00 -0.37435618697E+02  0.13048572427E+03  0.12500039476E+03 0.  0.
    9000005    1    3    3    0    0  0.59793586463E+02 -0.16904061713E+02 -0.25662130329E+02  0.67235148677E+02  0.10000000000E+01 0.  0.
    9000005    1    3    3    0    0 -0.59793586463E+02  0.16904061713E+02 -0.11773488367E+02  0.63250575593E+02  0.10000000000E+01 0.  0.
<mgrwt>
<rscale>  0 0.12500039E+03</rscale>
<asrwt>0</asrwt>
<pdfrwt beam="1">  1        4 0.71577004E-02 0.12500039E+03</pdfrwt>
<pdfrwt beam="2">  1       -4 0.12917026E-01 0.12500039E+03</pdfrwt>
<totfact> 0.10334035E+04</totfact>
</mgrwt>
</event>
<event>
 5    1  0.3235144E-002  0.1249995E+03  0.7818608E-02  0.1235070E+00
         -4   -1    0    0    0  501 -0.00000000000E+00  0.00000000000E+00  0.38459144914E+02  0.38480108205E+02  0.12700000000E+01 0. -1.
          4   -1    0    0  501    0  0.00000000000E+00 -0.00000000000E+00 -0.10151540064E+03  0.10152334444E+03  0.12700000000E+01 0. -1.
         25    2    1    2    0    0  0.00000000000E+00  0.00000000000E+00 -0.63056255722E+02  0.14000345265E+03  0.12499950147E+03 0.  0.
    9000005    1    3    3    0    0 -0.56534601543E+02 -0.88965623870E+01 -0.59638676336E+02  0.82662456466E+02  0.10000000000E+01 0.  0.
    9000005    1    3    3    0    0  0.56534601543E+02  0.88965623870E+01 -0.34175793859E+01  0.57340996179E+02  0.10000000000E+01 0.  0.
<mgrwt>
<rscale>  0 0.12499950E+03</rscale>
<asrwt>0</asrwt>
<pdfrwt beam="2">  1        4 0.15619977E-01 0.12499950E+03</pdfrwt>
<pdfrwt beam="1">  1       -4 0.59190152E-02 0.12499950E+03</pdfrwt>
<totfact> 0.10133628E+04</totfact>
</mgrwt>
</event>
<event>
 5    1  0.3235144E-002  0.1249878E+03  0.7818608E-02  0.1235088E+00
          4   -1    0    0  501    0  0.00000000000E+00  0.00000000000E+00  0.95524390665E+03  0.95524475088E+03  0.12700000000E+01 0. -1.
         -4   -1    0    0    0  501 -0.00000000000E+00 -0.00000000000E+00 -0.39889789182E+01  0.41862695577E+01  0.12700000000E+01 0. -1.
         25    2    1    2    0    0  0.00000000000E+00  0.00000000000E+00  0.95125492773E+03  0.95943102044E+03  0.12498778121E+03 0.  0.
    9000005    1    3    3    0    0 -0.16041435629E+02 -0.59749118135E+02  0.54307394787E+03  0.54658722783E+03  0.10000000000E+01 0.  0.
    9000005    1    3    3    0    0  0.16041435629E+02  0.59749118135E+02  0.40818097986E+03  0.41284379261E+03  0.10000000000E+01 0.  0.
<mgrwt>
<rscale>  0 0.12498778E+03</rscale>
<asrwt>0</asrwt>
<pdfrwt beam="1">  1        4 0.14697605E+00 0.12498778E+03</pdfrwt>
<pdfrwt beam="2">  1       -4 0.62892930E-03 0.12498778E+03</pdfrwt>
<totfact> 0.31991958E+03</totfact>
</mgrwt>
</event>
<event>
 5    1  0.3235144E-002  0.1250024E+03  0.7818608E-02  0.1235066E+00
         -4   -1    0    0    0  501 -0.00000000000E+00  0.00000000000E+00  0.75048277995E+02  0.75059022975E+02  0.12700000000E+01 0.  1.
          4   -1    0    0  501    0  0.00000000000E+00 -0.00000000000E+00 -0.52029616021E+02  0.52045113539E+02  0.12700000000E+01 0.  1.
         25    2    1    2    0    0  0.00000000000E+00  0.00000000000E+00  0.23018661974E+02  0.12710413651E+03  0.12500241086E+03 0.  0.
    9000005    1    3    3    0    0  0.16404871871E+02 -0.35897011449E+02 -0.37758250962E+02  0.54629669299E+02  0.10000000000E+01 0.  0.
    9000005    1    3    3    0    0 -0.16404871871E+02  0.35897011449E+02  0.60776912935E+02  0.72474467215E+02  0.10000000000E+01 0.  0.
<mgrwt>
<rscale>  0 0.12500241E+03</rscale>
<asrwt>0</asrwt>
<pdfrwt beam="2">  1        4 0.80065750E-02 0.12500241E+03</pdfrwt>
<pdfrwt beam="1">  1       -4 0.11547908E-01 0.12500241E+03</pdfrwt>
<totfact> 0.10406318E+04</totfact>
</mgrwt>
</event>
<event>
 5    1  0.3235144E-002  0.1249994E+03  0.7818608E-02  0.1235070E+00
         -4   -1    0    0    0  501 -0.00000000000E+00  0.00000000000E+00  0.46355236988E+02  0.46372630896E+02  0.12700000000E+01 0. -1.
          4   -1    0    0  501    0  0.00000000000E+00 -0.00000000000E+00 -0.84228967588E+02  0.84238541541E+02  0.12700000000E+01 0. -1.
         25    2    1    2    0    0  0.00000000000E+00  0.00000000000E+00 -0.37873730600E+02  0.13061117244E+03  0.12499943558E+03 0.  0.
    9000005    1    3    3    0    0 -0.59961132823E+02  0.65730406317E+01 -0.36000098254E+02  0.70253465302E+02  0.10000000000E+01 0.  0.
    9000005    1    3    3    0    0  0.59961132823E+02 -0.65730406317E+01 -0.18736323460E+01  0.60357707136E+02  0.10000000000E+01 0.  0.
<mgrwt>
<rscale>  0 0.12499944E+03</rscale>
<asrwt>0</asrwt>
<pdfrwt beam="2">  1        4 0.12960377E-01 0.12499944E+03</pdfrwt>
<pdfrwt beam="1">  1       -4 0.71336494E-02 0.12499944E+03</pdfrwt>
<totfact> 0.10331564E+04</totfact>
</mgrwt>
</event>
<event>
 5    1  0.3235144E-002  0.1250062E+03  0.7818608E-02  0.1235060E+00
          4   -1    0    0  501    0  0.00000000000E+00  0.00000000000E+00  0.55390019814E+02  0.55404577383E+02  0.12700000000E+01 0.  1.
         -4   -1    0    0    0  501 -0.00000000000E+00 -0.00000000000E+00 -0.70500087541E+02  0.70511525606E+02  0.12700000000E+01 0.  1.
         25    2    1    2    0    0  0.00000000000E+00  0.00000000000E+00 -0.15110067728E+02  0.12591610299E+03  0.12500620323E+03 0.  0.
    9000005    1    3    3    0    0  0.17278500449E+02 -0.20356661223E+02 -0.64470276808E+02  0.69787941836E+02  0.10000000000E+01 0.  0.
    9000005    1    3    3    0    0 -0.17278500449E+02  0.20356661223E+02  0.49360209081E+02  0.56128161153E+02  0.10000000000E+01 0.  0.
<mgrwt>
<rscale>  0 0.12500620E+03</rscale>
<asrwt>0</asrwt>
<pdfrwt beam="1">  1        4 0.85235412E-02 0.12500620E+03</pdfrwt>
<pdfrwt beam="2">  1       -4 0.10848167E-01 0.12500620E+03</pdfrwt>
<totfact> 0.10431336E+04</totfact>
</mgrwt>
</event>
<event>
 5    1  0.3235144E-002  0.1249994E+03  0.7818608E-02  0.1235070E+00
          4   -1    0    0  501    0  0.00000000000E+00  0.00000000000E+00  0.17993834871E+03  0.17994283047E+03  0.12700000000E+01 0.  1.
         -4   -1    0    0    0  501 -0.00000000000E+00 -0.00000000000E+00 -0.21685278775E+02  0.21722435765E+02  0.12700000000E+01 0.  1.
         25    2    1    2    0    0  0.00000000000E+00  0.00000000000E+00  0.15825306993E+03  0.20166526623E+03  0.12499938184E+03 0.  0.
    9000005    1    3    3    0    0  0.20140676459E+02  0.11157001453E+02 -0.14600666495E+02  0.27281953592E+02  0.10000000000E+01 0.  0.
    9000005    1    3    3    0    0 -0.20140676459E+02 -0.11157001453E+02  0.17285373643E+03  0.17438331264E+03  0.10000000000E+01 0.  0.
<mgrwt>
<rscale>  0 0.12499938E+03</rscale>
<asrwt>0</asrwt>
<pdfrwt beam="1">  1        4 0.27686026E-01 0.12499938E+03</pdfrwt>
<pdfrwt beam="2">  1       -4 0.33393997E-02 0.12499938E+03</pdfrwt>
<totfact> 0.89856646E+03</totfact>
</mgrwt>
</event>
<event>
 5    1  0.3235144E-002  0.1249999E+03  0.7818608E-02  0.1235069E+00
         -4   -1    0    0    0  501 -0.00000000000E+00  0.00000000000E+00  0.28886308907E+03  0.28886588087E+03  0.12700000000E+01 0.  1.
          4   -1    0    0  501    0  0.00000000000E+00 -0.00000000000E+00 -0.13490138593E+02  0.13549787425E+02  0.12700000000E+01 0.  1.
         25    2    1    2    0    0  0.00000000000E+00  0.00000000000E+00  0.27537295048E+03  0.30241566829E+03  0.12499989829E+03 0.  0.
    9000005    1    3    3    0    0 -0.47380956822E+02  0.92536787661E+01  0.41682823872E+02  0.63789054280E+02  0.10000000000E+01 0.  0.
    9000005    1    3    3    0    0  0.47380956822E+02 -0.92536787661E+01  0.23369012661E+03  0.23862661401E+03  0.10000000000E+01 0.  0.
<mgrwt>
<rscale>  0 0.12499990E+03</rscale>
<asrwt>0</asrwt>
<pdfrwt beam="2">  1        4 0.20802091E-02 0.12499990E+03</pdfrwt>
<pdfrwt beam="1">  1       -4 0.44445277E-01 0.12499990E+03</pdfrwt>
<totfact> 0.75296987E+03</totfact>
</mgrwt>
</event>
<event>
 5    1  0.3235144E-002  0.1249985E+03  0.7818608E-02  0.1235072E+00
         -4   -1    0    0    0  501 -0.00000000000E+00  0.00000000000E+00  0.13779182290E+01  0.18739153252E+01  0.12700000000E+01 0.  1.
          4   -1    0    0  501    0  0.00000000000E+00 -0.00000000000E+00 -0.24019383325E+04  0.24019386683E+04  0.12700000000E+01 0.  1.
         25    2    1    2    0    0  0.00000000000E+00  0.00000000000E+00 -0.24005604143E+04  0.24038125836E+04  0.12499853754E+03 0.  0.
    9000005    1    3    3    0    0 -0.60197015353E+02  0.15273598981E+02 -0.13337850982E+04  0.13352305613E+04  0.10000000000E+01 0.  0.
    9000005    1    3    3    0    0  0.60197015353E+02 -0.15273598981E+02 -0.10667753160E+04  0.10685820223E+04  0.10000000000E+01 0.  0.
<mgrwt>
<rscale>  0 0.12499854E+03</rscale>
<asrwt>0</asrwt>
<pdfrwt beam="2">  1        4 0.36956431E+00 0.12499854E+03</pdfrwt>
<pdfrwt beam="1">  1       -4 0.25016879E-03 0.12499854E+03</pdfrwt>
<totfact> 0.54700390E+02</totfact>
</mgrwt>
</event>
<event>
 5    1  0.3235144E-002  0.1249994E+03  0.7818608E-02  0.1235070E+00
         -4   -1    0    0    0  501 -0.00000000000E+00  0.00000000000E+00  0.21341651763E+01  0.24834574689E+01  0.12700000000E+01 0. -1.
          4   -1    0    0  501    0  0.00000000000E+00 -0.00000000000E+00 -0.16915220143E+04  0.16915224911E+04  0.12700000000E+01 0. -1.
         25    2    1    2    0    0  0.00000000000E+00  0.00000000000E+00 -0.16893878492E+04  0.16940059486E+04  0.12499939554E+03 0.  0.
    9000005    1    3    3    0    0  0.10533209896E+01 -0.43805939962E+02 -0.14485074632E+04  0.14491704320E+04  0.10000000000E+01 0.  0.
    9000005    1    3    3    0    0 -0.10533209896E+01  0.43805939962E+02 -0.24088038595E+03  0.24483551661E+03  0.10000000000E+01 0.  0.
<mgrwt>
<rscale>  0 0.12499940E+03</rscale>
<asrwt>0</asrwt>
<pdfrwt beam="2">  1        4 0.26026007E+00 0.12499940E+03</pdfrwt>
<pdfrwt beam="1">  1       -4 0.35523977E-03 0.12499940E+03</pdfrwt>
<totfact> 0.14408465E+03</totfact>
</mgrwt>
</event>
<event>
 5    1  0.3235144E-002  0.1249978E+03  0.7818608E-02  0.1235073E+00
         -4   -1    0    0    0  501 -0.00000000000E+00  0.00000000000E+00  0.65613171690E+02  0.65625461517E+02  0.12700000000E+01 0. -1.
          4   -1    0    0  501    0  0.00000000000E+00 -0.00000000000E+00 -0.59507806859E+02  0.59521357320E+02  0.12700000000E+01 0. -1.
         25    2    1    2    0    0  0.00000000000E+00  0.00000000000E+00  0.61053648314E+01  0.12514681884E+03  0.12499780312E+03 0.  0.
    9000005    1    3    3    0    0  0.36596664271E+02 -0.38618664078E+02 -0.29764368741E+02  0.60972409314E+02  0.10000000000E+01 0.  0.
    9000005    1    3    3    0    0 -0.36596664271E+02  0.38618664078E+02  0.35869733573E+02  0.64174409522E+02  0.10000000000E+01 0.  0.
<mgrwt>
<rscale>  0 0.12499780E+03</rscale>
<asrwt>0</asrwt>
<pdfrwt beam="2">  1        4 0.91570349E-02 0.12499780E+03</pdfrwt>
<pdfrwt beam="1">  1       -4 0.10096322E-01 0.12499780E+03</pdfrwt>
<totfact> 0.10450193E+04</totfact>
</mgrwt>
</event>
<event>
 5    1  0.3235144E-002  0.1250022E+03  0.7818608E-02  0.1235066E+00
          4   -1    0    0  501    0  0.00000000000E+00  0.00000000000E+00  0.30714758728E+01  0.33236823008E+01  0.12700000000E+01 0. -1.
         -4   -1    0    0    0  501 -0.00000000000E+00 -0.00000000000E+00 -0.12214178464E+04  0.12214185067E+04  0.12700000000E+01 0. -1.
         25    2    1    2    0    0  0.00000000000E+00  0.00000000000E+00 -0.12183463706E+04  0.12247421890E+04  0.12500220333E+03 0.  0.
    9000005    1    3    3    0    0 -0.19681767970E+02  0.59158832499E+02 -0.56731911543E+03  0.57073559393E+03  0.10000000000E+01 0.  0.
    9000005    1    3    3    0    0  0.19681767970E+02 -0.59158832499E+02 -0.65102725515E+03  0.65400659507E+03  0.10000000000E+01 0.  0.
<mgrwt>
<rscale>  0 0.12500220E+03</rscale>
<asrwt>0</asrwt>
<pdfrwt beam="1">  1        4 0.49198701E-03 0.12500220E+03</pdfrwt>
<pdfrwt beam="2">  1       -4 0.18792952E+00 0.12500220E+03</pdfrwt>
<totfact> 0.24073067E+03</totfact>
</mgrwt>
</event>
<event>
 5    1  0.3235144E-002  0.1249996E+03  0.7818608E-02  0.1235070E+00
          4   -1    0    0  501    0  0.00000000000E+00  0.00000000000E+00  0.12895518670E+03  0.12896144027E+03  0.12700000000E+01 0. -1.
         -4   -1    0    0    0  501 -0.00000000000E+00 -0.00000000000E+00 -0.30271055664E+02  0.30297684912E+02  0.12700000000E+01 0. -1.
         25    2    1    2    0    0  0.00000000000E+00  0.00000000000E+00  0.98684131035E+02  0.15925912518E+03  0.12499964494E+03 0.  0.
    9000005    1    3    3    0    0 -0.41677105193E+02 -0.15238512532E+01 -0.99528169078E+01  0.42887781294E+02  0.10000000000E+01 0.  0.
    9000005    1    3    3    0    0  0.41677105193E+02  0.15238512532E+01  0.10863694794E+03  0.11637134389E+03  0.10000000000E+01 0.  0.
<mgrwt>
<rscale>  0 0.12499964E+03</rscale>
<asrwt>0</asrwt>
<pdfrwt beam="1">  1        4 0.19841789E-01 0.12499964E+03</pdfrwt>
<pdfrwt beam="2">  1       -4 0.46596150E-02 0.12499964E+03</pdfrwt>
<totfact> 0.97486588E+03</totfact>
</mgrwt>
</event>
<event>
 5    1  0.3235144E-002  0.1250253E+03  0.7818608E-02  0.1235030E+00
          4   -1    0    0  501    0  0.00000000000E+00  0.00000000000E+00  0.13806313387E+03  0.13806897491E+03  0.12700000000E+01 0. -1.
         -4   -1    0    0    0  501 -0.00000000000E+00 -0.00000000000E+00 -0.28283994257E+02  0.28312492492E+02  0.12700000000E+01 0. -1.
         25    2    1    2    0    0  0.00000000000E+00  0.00000000000E+00  0.10977913961E+03  0.16638146741E+03  0.12502533024E+03 0.  0.
    9000005    1    3    3    0    0 -0.23543011773E+02  0.35616684455E+02  0.11564107111E+03  0.12327481066E+03  0.10000000000E+01 0.  0.
    9000005    1    3    3    0    0  0.23543011773E+02 -0.35616684455E+02 -0.58619315020E+01  0.43106656746E+02  0.10000000000E+01 0.  0.
<mgrwt>
<rscale>  0 0.12502533E+03</rscale>
<asrwt>0</asrwt>
<pdfrwt beam="1">  1        4 0.21243124E-01 0.12502533E+03</pdfrwt>
<pdfrwt beam="2">  1       -4 0.43540252E-02 0.12502533E+03</pdfrwt>
<totfact> 0.96071731E+03</totfact>
</mgrwt>
</event>
<event>
 5    1  0.3235144E-002  0.1250028E+03  0.7818608E-02  0.1235065E+00
          4   -1    0    0  501    0  0.00000000000E+00  0.00000000000E+00  0.83074840242E+02  0.83084547187E+02  0.12700000000E+01 0.  1.
         -4   -1    0    0    0  501 -0.00000000000E+00 -0.00000000000E+00 -0.47001947842E+02  0.47019102511E+02  0.12700000000E+01 0.  1.
         25    2    1    2    0    0  0.00000000000E+00  0.00000000000E+00  0.36072892400E+02  0.13010364970E+03  0.12500282436E+03 0.  0.
    9000005    1    3    3    0    0  0.54321516205E+02 -0.28362628690E+02  0.30790486641E+02  0.68588044851E+02  0.10000000000E+01 0.  0.
    9000005    1    3    3    0    0 -0.54321516205E+02  0.28362628690E+02  0.52824057596E+01  0.61515604846E+02  0.10000000000E+01 0.  0.
<mgrwt>
<rscale>  0 0.12500282E+03</rscale>
<asrwt>0</asrwt>
<pdfrwt beam="1">  1        4 0.12782811E-01 0.12500282E+03</pdfrwt>
<pdfrwt beam="2">  1       -4 0.72331353E-02 0.12500282E+03</pdfrwt>
<totfact> 0.10341631E+04</totfact>
</mgrwt>
</event>
<event>
 5    1  0.3235144E-002  0.1250010E+03  0.7818608E-02  0.1235068E+00
         -4   -1    0    0    0  501 -0.00000000000E+00  0.00000000000E+00  0.21703726209E+02  0.21740851671E+02  0.12700000000E+01 0.  1.
          4   -1    0    0  501    0  0.00000000000E+00 -0.00000000000E+00 -0.17979038099E+03  0.17979486644E+03  0.12700000000E+01 0.  1.
         25    2    1    2    0    0  0.00000000000E+00  0.00000000000E+00 -0.15808665479E+03  0.20153571811E+03  0.12500102101E+03 0.  0.
    9000005    1    3    3    0    0 -0.21904140832E+02 -0.47987595235E+02 -0.25021052569E+02  0.58392240526E+02  0.10000000000E+01 0.  0.
    9000005    1    3    3    0    0  0.21904140832E+02  0.47987595235E+02 -0.13306560222E+03  0.14314347758E+03  0.10000000000E+01 0.  0.
<mgrwt>
<rscale>  0 0.12500102E+03</rscale>
<asrwt>0</asrwt>
<pdfrwt beam="2">  1        4 0.27663258E-01 0.12500102E+03</pdfrwt>
<pdfrwt beam="1">  1       -4 0.33422358E-02 0.12500102E+03</pdfrwt>
<totfact> 0.89875087E+03</totfact>
</mgrwt>
</event>
<event>
 5    1  0.3235144E-002  0.1250130E+03  0.7818608E-02  0.1235049E+00
          4   -1    0    0  501    0  0.00000000000E+00  0.00000000000E+00  0.77117077618E+02  0.77127534385E+02  0.12700000000E+01 0. -1.
         -4   -1    0    0    0  501 -0.00000000000E+00 -0.00000000000E+00 -0.50642162446E+02  0.50658084421E+02  0.12700000000E+01 0. -1.
         25    2    1    2    0    0  0.00000000000E+00  0.00000000000E+00  0.26474915172E+02  0.12778561881E+03  0.12501297229E+03 0.  0.
    9000005    1    3    3    0    0 -0.45247228421E+02  0.59134078400E+01  0.56890368753E+02  0.72936918834E+02  0.10000000000E+01 0.  0.
    9000005    1    3    3    0    0  0.45247228421E+02 -0.59134078400E+01 -0.30415453582E+02  0.54848699972E+02  0.10000000000E+01 0.  0.
<mgrwt>
<rscale>  0 0.12501297E+03</rscale>
<asrwt>0</asrwt>
<pdfrwt beam="1">  1        4 0.11866195E-01 0.12501297E+03</pdfrwt>
<pdfrwt beam="2">  1       -4 0.77931311E-02 0.12501297E+03</pdfrwt>
<totfact> 0.10389077E+04</totfact>
</mgrwt>
</event>
<event>
 5    1  0.3235144E-002  0.1250074E+03  0.7818608E-02  0.1235058E+00
         -4   -1    0    0    0  501 -0.00000000000E+00  0.00000000000E+00  0.49475527804E+03  0.49475690804E+03  0.12700000000E+01 0. -1.
          4   -1    0    0  501    0  0.00000000000E+00 -0.00000000000E+00 -0.78435320643E+01  0.79456840639E+01  0.12700000000E+01 0. -1.
         25    2    1    2    0    0  0.00000000000E+00  0.00000000000E+00  0.48691174598E+03  0.50270259210E+03  0.12500739072E+03 0.  0.
    9000005    1    3    3    0    0 -0.45542180558E+02  0.42723891180E+02  0.25354212841E+03  0.26112072297E+03  0.10000000000E+01 0.  0.
    9000005    1    3    3    0    0  0.45542180558E+02 -0.42723891180E+02  0.23336961757E+03  0.24158186913E+03  0.10000000000E+01 0.  0.
<mgrwt>
<rscale>  0 0.12500739E+03</rscale>
<asrwt>0</asrwt>
<pdfrwt beam="2">  1        4 0.12146806E-02 0.12500739E+03</pdfrwt>
<pdfrwt beam="1">  1       -4 0.76124170E-01 0.12500739E+03</pdfrwt>
<totfact> 0.55646247E+03</totfact>
</mgrwt>
</event>
<event>
 5    1  0.3235144E-002  0.1250004E+03  0.7818608E-02  0.1235069E+00
         -4   -1    0    0    0  501 -0.00000000000E+00  0.00000000000E+00  0.66534521178E+01  0.67735755022E+01  0.12700000000E+01 0.  1.
          4   -1    0    0  501    0  0.00000000000E+00 -0.00000000000E+00 -0.58173130869E+03  0.58173269498E+03  0.12700000000E+01 0.  1.
         25    2    1    2    0    0  0.00000000000E+00  0.00000000000E+00 -0.57507785657E+03  0.58850627048E+03  0.12500035711E+03 0.  0.
    9000005    1    3    3    0    0 -0.40736507466E+01 -0.34261855612E+02 -0.42232462105E+02  0.54544021083E+02  0.10000000000E+01 0.  0.
    9000005    1    3    3    0    0  0.40736507466E+01  0.34261855612E+02 -0.53284539446E+03  0.53396224940E+03  0.10000000000E+01 0.  0.
<mgrwt>
<rscale>  0 0.12500036E+03</rscale>
<asrwt>0</asrwt>
<pdfrwt beam="2">  1        4 0.89506431E-01 0.12500036E+03</pdfrwt>
<pdfrwt beam="1">  1       -4 0.10329554E-02 0.12500036E+03</pdfrwt>
<totfact> 0.49600887E+03</totfact>
</mgrwt>
</event>
<event>
 5    1  0.3235144E-002  0.1250086E+03  0.7818608E-02  0.1235056E+00
          4   -1    0    0  501    0  0.00000000000E+00  0.00000000000E+00  0.95431799613E+01  0.96273144632E+01  0.12700000000E+01 0.  1.
         -4   -1    0    0    0  501 -0.00000000000E+00 -0.00000000000E+00 -0.40749819725E+03  0.40750017627E+03  0.12700000000E+01 0.  1.
         25    2    1    2    0    0  0.00000000000E+00  0.00000000000E+00 -0.39795501729E+03  0.41712749074E+03  0.12500859067E+03 0.  0.
    9000005    1    3    3    0    0  0.51500557611E+02 -0.45364589029E+01 -0.31614115723E+03  0.32034218921E+03  0.10000000000E+01 0.  0.
    9000005    1    3    3    0    0 -0.51500557611E+02  0.45364589029E+01 -0.81813860063E+02  0.96785301529E+02  0.10000000000E+01 0.  0.
<mgrwt>
<rscale>  0 0.12500859E+03</rscale>
<asrwt>0</asrwt>
<pdfrwt beam="1">  1        4 0.14748060E-02 0.12500859E+03</pdfrwt>
<pdfrwt beam="2">  1       -4 0.62698641E-01 0.12500859E+03</pdfrwt>
<totfact> 0.62908478E+03</totfact>
</mgrwt>
</event>
<event>
 5    1  0.3235144E-002  0.1249950E+03  0.7818608E-02  0.1235077E+00
          4   -1    0    0  501    0  0.00000000000E+00  0.00000000000E+00  0.24845645727E+02  0.24878082956E+02  0.12700000000E+01 0.  1.
         -4   -1    0    0    0  501 -0.00000000000E+00 -0.00000000000E+00 -0.15707060328E+03  0.15707573751E+03  0.12700000000E+01 0.  1.
         25    2    1    2    0    0  0.00000000000E+00  0.00000000000E+00 -0.13222495755E+03  0.18195382046E+03  0.12499501343E+03 0.  0.
    9000005    1    3    3    0    0 -0.35975225674E+02  0.47522284653E+02 -0.93437345994E+02  0.11083375852E+03  0.10000000000E+01 0.  0.
    9000005    1    3    3    0    0  0.35975225674E+02 -0.47522284653E+02 -0.38787611555E+02  0.71120061945E+02  0.10000000000E+01 0.  0.
<mgrwt>
<rscale>  0 0.12499501E+03</rscale>
<asrwt>0</asrwt>
<pdfrwt beam="1">  1        4 0.38252972E-02 0.12499501E+03</pdfrwt>
<pdfrwt beam="2">  1       -4 0.24167598E-01 0.12499501E+03</pdfrwt>
<totfact> 0.93276914E+03</totfact>
</mgrwt>
</event>
<event>
 5    1  0.3235144E-002  0.1249994E+03  0.7818608E-02  0.1235070E+00
          4   -1    0    0  501    0  0.00000000000E+00  0.00000000000E+00  0.34711615667E+02  0.34734840754E+02  0.12700000000E+01 0.  1.
         -4   -1    0    0    0  501 -0.00000000000E+00 -0.00000000000E+00 -0.11246878352E+03  0.11247595373E+03  0.12700000000E+01 0.  1.
         25    2    1    2    0    0  0.00000000000E+00  0.00000000000E+00 -0.77757167856E+02  0.14721079448E+03  0.12499936344E+03 0.  0.
    9000005    1    3    3    0    0 -0.39331618628E+02  0.13763670977E+02  0.15966934010E+02  0.44635835876E+02  0.10000000000E+01 0.  0.
    9000005    1    3    3    0    0  0.39331618628E+02 -0.13763670977E+02 -0.93724101866E+02  0.10257495861E+03  0.10000000000E+01 0.  0.
<mgrwt>
<rscale>  0 0.12499936E+03</rscale>
<asrwt>0</asrwt>
<pdfrwt beam="1">  1        4 0.53425867E-02 0.12499936E+03</pdfrwt>
<pdfrwt beam="2">  1       -4 0.17305228E-01 0.12499936E+03</pdfrwt>
<totfact> 0.99864049E+03</totfact>
</mgrwt>
</event>
<event>
 5    1  0.3235144E-002  0.1250014E+03  0.7818608E-02  0.1235067E+00
         -4   -1    0    0    0  501 -0.00000000000E+00  0.00000000000E+00  0.59239998852E+03  0.59240134985E+03  0.12700000000E+01 0. -1.
          4   -1    0    0  501    0  0.00000000000E+00 -0.00000000000E+00 -0.65315539164E+01  0.66538783099E+01  0.12700000000E+01 0. -1.
         25    2    1    2    0    0  0.00000000000E+00  0.00000000000E+00  0.58586843461E+03  0.59905522816E+03  0.12500137485E+03 0.  0.
    9000005    1    3    3    0    0 -0.22335328718E+02  0.57216533863E+02  0.34814812920E+03  0.35352612141E+03  0.10000000000E+01 0.  0.
    9000005    1    3    3    0    0  0.22335328718E+02 -0.57216533863E+02  0.23772030541E+03  0.24552910675E+03  0.10000000000E+01 0.  0.
<mgrwt>
<rscale>  0 0.12500137E+03</rscale>
<asrwt>0</asrwt>
<pdfrwt beam="2">  1        4 0.10143688E-02 0.12500137E+03</pdfrwt>
<pdfrwt beam="1">  1       -4 0.91147969E-01 0.12500137E+03</pdfrwt>
<totfact> 0.48925828E+03</totfact>
</mgrwt>
</event>
<event>
 5    1  0.3235144E-002  0.1249963E+03  0.7818608E-02  0.1235075E+00
          4   -1    0    0  501    0  0.00000000000E+00  0.00000000000E+00  0.10027686635E+02  0.10107789038E+02  0.12700000000E+01 0.  1.
         -4   -1    0    0    0  501 -0.00000000000E+00 -0.00000000000E+00 -0.38789290019E+03  0.38789497923E+03  0.12700000000E+01 0.  1.
         25    2    1    2    0    0  0.00000000000E+00  0.00000000000E+00 -0.37786521355E+03  0.39800276827E+03  0.12499633571E+03 0.  0.
    9000005    1    3    3    0    0 -0.11677763772E+02 -0.68503531591E+01  0.53173193040E+01  0.14579828178E+02  0.10000000000E+01 0.  0.
    9000005    1    3    3    0    0  0.11677763772E+02  0.68503531591E+01 -0.38318253286E+03  0.38342294009E+03  0.10000000000E+01 0.  0.
<mgrwt>
<rscale>  0 0.12499634E+03</rscale>
<asrwt>0</asrwt>
<pdfrwt beam="1">  1        4 0.15490430E-02 0.12499634E+03</pdfrwt>
<pdfrwt beam="2">  1       -4 0.59682141E-01 0.12499634E+03</pdfrwt>
<totfact> 0.64752746E+03</totfact>
</mgrwt>
</event>
<event>
 5    1  0.3235144E-002  0.1250023E+03  0.7818608E-02  0.1235066E+00
         -4   -1    0    0    0  501 -0.00000000000E+00  0.00000000000E+00  0.19370400231E+03  0.19370816558E+03  0.12700000000E+01 0. -1.
          4   -1    0    0  501    0  0.00000000000E+00 -0.00000000000E+00 -0.20142448099E+02  0.20182445724E+02  0.12700000000E+01 0. -1.
         25    2    1    2    0    0  0.00000000000E+00  0.00000000000E+00  0.17356155421E+03  0.21389061130E+03  0.12500232199E+03 0.  0.
    9000005    1    3    3    0    0  0.38098039042E+02 -0.46515327479E+02  0.11593264460E+03  0.13060059094E+03  0.10000000000E+01 0.  0.
    9000005    1    3    3    0    0 -0.38098039042E+02  0.46515327479E+02  0.57628909614E+02  0.83290020366E+02  0.10000000000E+01 0.  0.
<mgrwt>
<rscale>  0 0.12500232E+03</rscale>
<asrwt>0</asrwt>
<pdfrwt beam="2">  1        4 0.31022352E-02 0.12500232E+03</pdfrwt>
<pdfrwt beam="1">  1       -4 0.29804012E-01 0.12500232E+03</pdfrwt>
<totfact> 0.87839851E+03</totfact>
</mgrwt>
</event>
<event>
 5    1  0.3235144E-002  0.1250004E+03  0.7818608E-02  0.1235069E+00
          4   -1    0    0  501    0  0.00000000000E+00  0.00000000000E+00  0.15463675609E+04  0.15463680825E+04  0.12700000000E+01 0.  1.
         -4   -1    0    0    0  501 -0.00000000000E+00 -0.00000000000E+00 -0.23659171593E+01  0.26852307172E+01  0.12700000000E+01 0.  1.
         25    2    1    2    0    0  0.00000000000E+00  0.00000000000E+00  0.15440016438E+04  0.15490533132E+04  0.12500036418E+03 0.  0.
    9000005    1    3    3    0    0 -0.58665853495E+02  0.92920975617E+01  0.10126964306E+04  0.10144373248E+04  0.10000000000E+01 0.  0.
    9000005    1    3    3    0    0  0.58665853495E+02 -0.92920975617E+01  0.53130521322E+03  0.53461598838E+03  0.10000000000E+01 0.  0.
<mgrwt>
<rscale>  0 0.12500036E+03</rscale>
<asrwt>0</asrwt>
<pdfrwt beam="1">  1        4 0.23792760E+00 0.12500036E+03</pdfrwt>
<pdfrwt beam="2">  1       -4 0.38858947E-03 0.12500036E+03</pdfrwt>
<totfact> 0.16985898E+03</totfact>
</mgrwt>
</event>
<event>
 5    1  0.3235144E-002  0.1250070E+03  0.7818608E-02  0.1235058E+00
         -4   -1    0    0    0  501 -0.00000000000E+00  0.00000000000E+00  0.87086065474E+03  0.87086158078E+03  0.12700000000E+01 0.  1.
          4   -1    0    0  501    0  0.00000000000E+00 -0.00000000000E+00 -0.43951782430E+01  0.45749854412E+01  0.12700000000E+01 0.  1.
         25    2    1    2    0    0  0.00000000000E+00  0.00000000000E+00  0.86646547650E+03  0.87543656622E+03  0.12500703785E+03 0.  0.
    9000005    1    3    3    0    0  0.28200684628E+02  0.31268307237E+02  0.75664429383E+03  0.75781565900E+03  0.10000000000E+01 0.  0.
    9000005    1    3    3    0    0 -0.28200684628E+02 -0.31268307237E+02  0.10982118267E+03  0.11762090722E+03  0.10000000000E+01 0.  0.
<mgrwt>
<rscale>  0 0.12500704E+03</rscale>
<asrwt>0</asrwt>
<pdfrwt beam="2">  1        4 0.69008402E-03 0.12500704E+03</pdfrwt>
<pdfrwt beam="1">  1       -4 0.13399243E+00 0.12500704E+03</pdfrwt>
<totfact> 0.35103056E+03</totfact>
</mgrwt>
</event>
<event>
 5    1  0.3235144E-002  0.1249983E+03  0.7818608E-02  0.1235072E+00
          4   -1    0    0  501    0  0.00000000000E+00  0.00000000000E+00  0.18105345967E+03  0.18105791382E+03  0.12700000000E+01 0. -1.
         -4   -1    0    0    0  501 -0.00000000000E+00 -0.00000000000E+00 -0.21551121732E+02  0.21588509627E+02  0.12700000000E+01 0. -1.
         25    2    1    2    0    0  0.00000000000E+00  0.00000000000E+00  0.15950233794E+03  0.20264642345E+03  0.12499830851E+03 0.  0.
    9000005    1    3    3    0    0  0.33829255849E+02  0.21784143671E+02  0.15726687645E+03  0.16233557187E+03  0.10000000000E+01 0.  0.
    9000005    1    3    3    0    0 -0.33829255849E+02 -0.21784143671E+02  0.22354614853E+01  0.40310851577E+02  0.10000000000E+01 0.  0.
<mgrwt>
<rscale>  0 0.12499831E+03</rscale>
<asrwt>0</asrwt>
<pdfrwt beam="1">  1        4 0.27857598E-01 0.12499831E+03</pdfrwt>
<pdfrwt beam="2">  1       -4 0.33187757E-02 0.12499831E+03</pdfrwt>
<totfact> 0.89694470E+03</totfact>
</mgrwt>
</event>
<event>
 5    1  0.3235144E-002  0.1249984E+03  0.7818608E-02  0.1235072E+00
         -4   -1    0    0    0  501 -0.00000000000E+00  0.00000000000E+00  0.22340306827E+02  0.22376376140E+02  0.12700000000E+01 0.  1.
          4   -1    0    0  501    0  0.00000000000E+00 -0.00000000000E+00 -0.17466809349E+03  0.17467271047E+03  0.12700000000E+01 0.  1.
         25    2    1    2    0    0  0.00000000000E+00  0.00000000000E+00 -0.15232778666E+03  0.19704908661E+03  0.12499835177E+03 0.  0.
    9000005    1    3    3    0    0  0.18720275661E+01 -0.30049752795E+02  0.10160469294E+02  0.31791937131E+02  0.10000000000E+01 0.  0.
    9000005    1    3    3    0    0 -0.18720275661E+01  0.30049752795E+02 -0.16248825596E+03  0.16525714948E+03  0.10000000000E+01 0.  0.
<mgrwt>
<rscale>  0 0.12499835E+03</rscale>
<asrwt>0</asrwt>
<pdfrwt beam="2">  1        4 0.26875143E-01 0.12499835E+03</pdfrwt>
<pdfrwt beam="1">  1       -4 0.34401001E-02 0.12499835E+03</pdfrwt>
<totfact> 0.90638401E+03</totfact>
</mgrwt>
</event>
<event>
 5    1  0.3235144E-002  0.1249807E+03  0.7818608E-02  0.1235099E+00
          4   -1    0    0  501    0  0.00000000000E+00  0.00000000000E+00  0.35590716325E+02  0.35613368116E+02  0.12700000000E+01 0.  1.
         -4   -1    0    0    0  501 -0.00000000000E+00 -0.00000000000E+00 -0.10965959833E+03  0.10966695220E+03  0.12700000000E+01 0.  1.
         25    2    1    2    0    0  0.00000000000E+00  0.00000000000E+00 -0.74068882004E+02  0.14528032032E+03  0.12498068727E+03 0.  0.
    9000005    1    3    3    0    0 -0.27967210353E+02 -0.42634418196E+02 -0.79013568738E+02  0.94042556934E+02  0.10000000000E+01 0.  0.
    9000005    1    3    3    0    0  0.27967210353E+02  0.42634418196E+02  0.49446867347E+01  0.51237763386E+02  0.10000000000E+01 0.  0.
<mgrwt>
<rscale>  0 0.12498069E+03</rscale>
<asrwt>0</asrwt>
<pdfrwt beam="1">  1        4 0.54778030E-02 0.12498069E+03</pdfrwt>
<pdfrwt beam="2">  1       -4 0.16873015E-01 0.12498069E+03</pdfrwt>
<totfact> 0.10029657E+04</totfact>
</mgrwt>
</event>
<event>
 5    1  0.3235144E-002  0.1249997E+03  0.7818608E-02  0.1235070E+00
         -4   -1    0    0    0  501 -0.00000000000E+00  0.00000000000E+00  0.26093070366E+03  0.26093379431E+03  0.12700000000E+01 0.  1.
          4   -1    0    0  501    0  0.00000000000E+00 -0.00000000000E+00 -0.14940264835E+02  0.14994145969E+02  0.12700000000E+01 0.  1.
         25    2    1    2    0    0  0.00000000000E+00  0.00000000000E+00  0.24599043883E+03  0.27592794028E+03  0.12499972893E+03 0.  0.
    9000005    1    3    3    0    0  0.16407639518E+02 -0.38313039787E+02  0.20210250625E+02  0.46330917135E+02  0.10000000000E+01 0.  0.
    9000005    1    3    3    0    0 -0.16407639518E+02  0.38313039787E+02  0.22578018820E+03  0.22959702314E+03  0.10000000000E+01 0.  0.
<mgrwt>
<rscale>  0 0.12499973E+03</rscale>
<asrwt>0</asrwt>
<pdfrwt beam="2">  1        4 0.23028848E-02 0.12499973E+03</pdfrwt>
<pdfrwt beam="1">  1       -4 0.40147567E-01 0.12499973E+03</pdfrwt>
<totfact> 0.78721621E+03</totfact>
</mgrwt>
</event>
<event>
 5    1  0.3235144E-002  0.1250011E+03  0.7818608E-02  0.1235067E+00
          4   -1    0    0  501    0  0.00000000000E+00  0.00000000000E+00  0.13009742679E+02  0.13071583859E+02  0.12700000000E+01 0.  1.
         -4   -1    0    0    0  501 -0.00000000000E+00 -0.00000000000E+00 -0.29948611097E+03  0.29948880373E+03  0.12700000000E+01 0.  1.
         25    2    1    2    0    0  0.00000000000E+00  0.00000000000E+00 -0.28647636829E+03  0.31256038759E+03  0.12500114521E+03 0.  0.
    9000005    1    3    3    0    0 -0.99349169158E+01  0.14680352769E+02 -0.29308036040E+03  0.29361763058E+03  0.10000000000E+01 0.  0.
    9000005    1    3    3    0    0  0.99349169158E+01 -0.14680352769E+02  0.66039921151E+01  0.18942757017E+02  0.10000000000E+01 0.  0.
<mgrwt>
<rscale>  0 0.12500115E+03</rscale>
<asrwt>0</asrwt>
<pdfrwt beam="1">  1        4 0.20064633E-02 0.12500115E+03</pdfrwt>
<pdfrwt beam="2">  1       -4 0.46079745E-01 0.12500115E+03</pdfrwt>
<totfact> 0.74047915E+03</totfact>
</mgrwt>
</event>
<event>
 5    1  0.3235144E-002  0.1249983E+03  0.7818608E-02  0.1235072E+00
          4   -1    0    0  501    0  0.00000000000E+00  0.00000000000E+00  0.18010166848E+02  0.18054888808E+02  0.12700000000E+01 0.  1.
         -4   -1    0    0    0  501 -0.00000000000E+00 -0.00000000000E+00 -0.21657009433E+03  0.21657381804E+03  0.12700000000E+01 0.  1.
         25    2    1    2    0    0  0.00000000000E+00  0.00000000000E+00 -0.19855992748E+03  0.23462870684E+03  0.12499834108E+03 0.  0.
    9000005    1    3    3    0    0  0.20250666618E+01 -0.27689869801E+02  0.58068742435E+01  0.28382205219E+02  0.10000000000E+01 0.  0.
    9000005    1    3    3    0    0 -0.20250666618E+01  0.27689869801E+02 -0.20436680173E+03  0.20624650162E+03  0.10000000000E+01 0.  0.
<mgrwt>
<rscale>  0 0.12499834E+03</rscale>
<asrwt>0</asrwt>
<pdfrwt beam="1">  1        4 0.27745216E-02 0.12499834E+03</pdfrwt>
<pdfrwt beam="2">  1       -4 0.33322201E-01 0.12499834E+03</pdfrwt>
<totfact> 0.84607017E+03</totfact>
</mgrwt>
</event>
<event>
 5    1  0.3235144E-002  0.1249981E+03  0.7818608E-02  0.1235072E+00
         -4   -1    0    0    0  501 -0.00000000000E+00  0.00000000000E+00  0.29913587118E+03  0.29913856710E+03  0.12700000000E+01 0.  1.
          4   -1    0    0  501    0  0.00000000000E+00 -0.00000000000E+00 -0.13024413501E+02  0.13086185352E+02  0.12700000000E+01 0.  1.
         25    2    1    2    0    0  0.00000000000E+00  0.00000000000E+00  0.28611145768E+03  0.31222475245E+03  0.12499811930E+03 0.  0.
    9000005    1    3    3    0    0 -0.41311136522E+02 -0.12949613924E+02  0.25562001760E+03  0.25926221457E+03  0.10000000000E+01 0.  0.
    9000005    1    3    3    0    0  0.41311136522E+02  0.12949613924E+02  0.30491440075E+02  0.52962537886E+02  0.10000000000E+01 0.  0.
<mgrwt>
<rscale>  0 0.12499812E+03</rscale>
<asrwt>0</asrwt>
<pdfrwt beam="2">  1        4 0.20087151E-02 0.12499812E+03</pdfrwt>
<pdfrwt beam="1">  1       -4 0.46025859E-01 0.12499812E+03</pdfrwt>
<totfact> 0.74093623E+03</totfact>
</mgrwt>
</event>
<event>
 5    1  0.3235144E-002  0.1249542E+03  0.7818608E-02  0.1235141E+00
         -4   -1    0    0    0  501 -0.00000000000E+00  0.00000000000E+00  0.13562403847E+03  0.13562998456E+03  0.12700000000E+01 0.  1.
          4   -1    0    0  501    0  0.00000000000E+00 -0.00000000000E+00 -0.28760337631E+02  0.28788364327E+02  0.12700000000E+01 0.  1.
         25    2    1    2    0    0  0.00000000000E+00  0.00000000000E+00  0.10686370084E+03  0.16441834889E+03  0.12495416317E+03 0.  0.
    9000005    1    3    3    0    0 -0.58217167692E+02  0.13730299970E+02  0.29724054302E+02  0.66800293079E+02  0.10000000000E+01 0.  0.
    9000005    1    3    3    0    0  0.58217167692E+02 -0.13730299970E+02  0.77139646538E+02  0.97618055806E+02  0.10000000000E+01 0.  0.
<mgrwt>
<rscale>  0 0.12495416E+03</rscale>
<asrwt>0</asrwt>
<pdfrwt beam="2">  1        4 0.44272806E-02 0.12495416E+03</pdfrwt>
<pdfrwt beam="1">  1       -4 0.20867850E-01 0.12495416E+03</pdfrwt>
<totfact> 0.96597100E+03</totfact>
</mgrwt>
</event>
<event>
 5    1  0.3235144E-002  0.1250001E+03  0.7818608E-02  0.1235069E+00
          4   -1    0    0  501    0  0.00000000000E+00  0.00000000000E+00  0.19318677617E+03  0.19319095058E+03  0.12700000000E+01 0. -1.
         -4   -1    0    0    0  501 -0.00000000000E+00 -0.00000000000E+00 -0.20195774225E+02  0.20235666447E+02  0.12700000000E+01 0. -1.
         25    2    1    2    0    0  0.00000000000E+00  0.00000000000E+00  0.17299100195E+03  0.21342661703E+03  0.12500013641E+03 0.  0.
    9000005    1    3    3    0    0 -0.20497334064E+02 -0.39970311287E+02  0.16067444689E+03  0.16683837799E+03  0.10000000000E+01 0.  0.
    9000005    1    3    3    0    0  0.20497334064E+02  0.39970311287E+02  0.12316555057E+02  0.46588239037E+02  0.10000000000E+01 0.  0.
<mgrwt>
<rscale>  0 0.12500014E+03</rscale>
<asrwt>0</asrwt>
<pdfrwt beam="1">  1        4 0.29724431E-01 0.12500014E+03</pdfrwt>
<pdfrwt beam="2">  1       -4 0.31104320E-02 0.12500014E+03</pdfrwt>
<totfact> 0.87919042E+03</totfact>
</mgrwt>
</event>
<event>
 5    1  0.3235144E-002  0.1249945E+03  0.7818608E-02  0.1235078E+00
         -4   -1    0    0    0  501 -0.00000000000E+00  0.00000000000E+00  0.41028989937E+03  0.41029186493E+03  0.12700000000E+01 0. -1.
          4   -1    0    0  501    0  0.00000000000E+00 -0.00000000000E+00 -0.94755150733E+01  0.95602450756E+01  0.12700000000E+01 0. -1.
         25    2    1    2    0    0  0.00000000000E+00  0.00000000000E+00  0.40081438430E+03  0.41985211001E+03  0.12499449434E+03 0.  0.
    9000005    1    3    3    0    0 -0.13160397618E+02 -0.60944535912E+02  0.21444805913E+03  0.22333025453E+03  0.10000000000E+01 0.  0.
    9000005    1    3    3    0    0  0.13160397618E+02  0.60944535912E+02  0.18636632517E+03  0.19652185547E+03  0.10000000000E+01 0.  0.
<mgrwt>
<rscale>  0 0.12499449E+03</rscale>
<asrwt>0</asrwt>
<pdfrwt beam="2">  1        4 0.14644409E-02 0.12499449E+03</pdfrwt>
<pdfrwt beam="1">  1       -4 0.63128172E-01 0.12499449E+03</pdfrwt>
<totfact> 0.62674352E+03</totfact>
</mgrwt>
</event>
<event>
 5    1  0.3235144E-002  0.1250018E+03  0.7818608E-02  0.1235066E+00
          4   -1    0    0  501    0  0.00000000000E+00  0.00000000000E+00  0.74266725267E+02  0.74277583307E+02  0.12700000000E+01 0.  1.
         -4   -1    0    0    0  501 -0.00000000000E+00 -0.00000000000E+00 -0.52576714980E+02  0.52592051283E+02  0.12700000000E+01 0.  1.
         25    2    1    2    0    0  0.00000000000E+00  0.00000000000E+00  0.21690010286E+02  0.12686963459E+03  0.12500179053E+03 0.  0.
    9000005    1    3    3    0    0  0.30524848343E+02 -0.54530327704E+02  0.11045190338E+02  0.63469041551E+02  0.10000000000E+01 0.  0.
    9000005    1    3    3    0    0 -0.30524848343E+02  0.54530327704E+02  0.10644819948E+02  0.63400593038E+02  0.10000000000E+01 0.  0.
<mgrwt>
<rscale>  0 0.12500179E+03</rscale>
<asrwt>0</asrwt>
<pdfrwt beam="1">  1        4 0.11427665E-01 0.12500179E+03</pdfrwt>
<pdfrwt beam="2">  1       -4 0.80907404E-02 0.12500179E+03</pdfrwt>
<totfact> 0.10411558E+04</totfact>
</mgrwt>
</event>
<event>
 5    1  0.3235144E-002  0.1250035E+03  0.7818608E-02  0.1235064E+00
          4   -1    0    0  501    0  0.00000000000E+00  0.00000000000E+00  0.21243289592E+01  0.24750098034E+01  0.12700000000E+01 0. -1.
         -4   -1    0    0    0  501 -0.00000000000E+00 -0.00000000000E+00 -0.16983580640E+04  0.16983585388E+04  0.12700000000E+01 0. -1.
         25    2    1    2    0    0  0.00000000000E+00  0.00000000000E+00 -0.16962337350E+04  0.17008335486E+04  0.12500350517E+03 0.  0.
    9000005    1    3    3    0    0  0.23780421549E+02  0.52924474615E+02 -0.53223977131E+03  0.53539395087E+03  0.10000000000E+01 0.  0.
    9000005    1    3    3    0    0 -0.23780421549E+02 -0.52924474615E+02 -0.11639939637E+04  0.11654395978E+04  0.10000000000E+01 0.  0.
<mgrwt>
<rscale>  0 0.12500351E+03</rscale>
<asrwt>0</asrwt>
<pdfrwt beam="1">  1        4 0.35383317E-03 0.12500351E+03</pdfrwt>
<pdfrwt beam="2">  1       -4 0.26131187E+00 0.12500351E+03</pdfrwt>
<totfact> 0.14293025E+03</totfact>
</mgrwt>
</event>
<event>
 5    1  0.3235144E-002  0.1250043E+03  0.7818608E-02  0.1235062E+00
          4   -1    0    0  501    0  0.00000000000E+00  0.00000000000E+00  0.71052524655E+03  0.71052638155E+03  0.12700000000E+01 0. -1.
         -4   -1    0    0    0  501 -0.00000000000E+00 -0.00000000000E+00 -0.54235819318E+01  0.55702909233E+01  0.12700000000E+01 0. -1.
         25    2    1    2    0    0  0.00000000000E+00  0.00000000000E+00  0.70510166462E+03  0.71609667248E+03  0.12500434747E+03 0.  0.
    9000005    1    3    3    0    0 -0.34524700376E+02  0.48930494537E+02  0.45492631686E+03  0.45885193908E+03  0.10000000000E+01 0.  0.
    9000005    1    3    3    0    0  0.34524700376E+02 -0.48930494537E+02  0.25017534776E+03  0.25724473339E+03  0.10000000000E+01 0.  0.
<mgrwt>
<rscale>  0 0.12500435E+03</rscale>
<asrwt>0</asrwt>
<pdfrwt beam="1">  1        4 0.10932290E+00 0.12500435E+03</pdfrwt>
<pdfrwt beam="2">  1       -4 0.84577025E-03 0.12500435E+03</pdfrwt>
<totfact> 0.42246483E+03</totfact>
</mgrwt>
</event>
<event>
 5    1  0.3235144E-002  0.1249989E+03  0.7818608E-02  0.1235071E+00
         -4   -1    0    0    0  501 -0.00000000000E+00  0.00000000000E+00  0.22420873483E+03  0.22421233167E+03  0.12700000000E+01 0. -1.
          4   -1    0    0  501    0  0.00000000000E+00 -0.00000000000E+00 -0.17395186884E+02  0.17441485795E+02  0.12700000000E+01 0. -1.
         25    2    1    2    0    0  0.00000000000E+00  0.00000000000E+00  0.20681354795E+03  0.24165381747E+03  0.12499889553E+03 0.  0.
    9000005    1    3    3    0    0 -0.13370804381E+02  0.31647575305E+02  0.24913677876E+01  0.34460910405E+02  0.10000000000E+01 0.  0.
    9000005    1    3    3    0    0  0.13370804381E+02 -0.31647575305E+02  0.20432218016E+03  0.20719290706E+03  0.10000000000E+01 0.  0.
<mgrwt>
<rscale>  0 0.12499890E+03</rscale>
<asrwt>0</asrwt>
<pdfrwt beam="2">  1        4 0.26800207E-02 0.12499890E+03</pdfrwt>
<pdfrwt beam="1">  1       -4 0.34497490E-01 0.12499890E+03</pdfrwt>
<totfact> 0.83553731E+03</totfact>
</mgrwt>
</event>
<event>
 5    1  0.3235144E-002  0.1249971E+03  0.7818608E-02  0.1235074E+00
         -4   -1    0    0    0  501 -0.00000000000E+00  0.00000000000E+00  0.28806994690E+02  0.28834976037E+02  0.12700000000E+01 0. -1.
          4   -1    0    0  501    0  0.00000000000E+00 -0.00000000000E+00 -0.13549772387E+03  0.13550367550E+03  0.12700000000E+01 0. -1.
         25    2    1    2    0    0  0.00000000000E+00  0.00000000000E+00 -0.10669072918E+03  0.16433865154E+03  0.12499712275E+03 0.  0.
    9000005    1    3    3    0    0 -0.38210662528E+02  0.48472033009E+02 -0.40498707572E+02  0.73829113701E+02  0.10000000000E+01 0.  0.
    9000005    1    3    3    0    0  0.38210662528E+02 -0.48472033009E+02 -0.66192021610E+02  0.90509537838E+02  0.10000000000E+01 0.  0.
<mgrwt>
<rscale>  0 0.12499712E+03</rscale>
<asrwt>0</asrwt>
<pdfrwt beam="2">  1        4 0.20848414E-01 0.12499712E+03</pdfrwt>
<pdfrwt beam="1">  1       -4 0.44344556E-02 0.12499712E+03</pdfrwt>
<totfact> 0.96519027E+03</totfact>
</mgrwt>
</event>
<event>
 5    1  0.3235144E-002  0.1249989E+03  0.7818608E-02  0.1235071E+00
         -4   -1    0    0    0  501 -0.00000000000E+00  0.00000000000E+00  0.18837619982E+04  0.18837624263E+04  0.12700000000E+01 0. -1.
          4   -1    0    0  501    0  0.00000000000E+00 -0.00000000000E+00 -0.18786826505E+01  0.22676746903E+01  0.12700000000E+01 0. -1.
         25    2    1    2    0    0  0.00000000000E+00  0.00000000000E+00  0.18818833155E+04  0.18860301010E+04  0.12499891408E+03 0.  0.
    9000005    1    3    3    0    0  0.36079954628E+02 -0.89600549352E+01  0.16988431216E+04  0.16992501280E+04  0.10000000000E+01 0.  0.
    9000005    1    3    3    0    0 -0.36079954628E+02  0.89600549352E+01  0.18304019395E+03  0.18677997300E+03  0.10000000000E+01 0.  0.
<mgrwt>
<rscale>  0 0.12499891E+03</rscale>
<asrwt>0</asrwt>
<pdfrwt beam="2">  1        4 0.31898408E-03 0.12499891E+03</pdfrwt>
<pdfrwt beam="1">  1       -4 0.28983896E+00 0.12499891E+03</pdfrwt>
<totfact> 0.11423395E+03</totfact>
</mgrwt>
</event>
<event>
 5    1  0.3235144E-002  0.1250139E+03  0.7818608E-02  0.1235048E+00
         -4   -1    0    0    0  501 -0.00000000000E+00  0.00000000000E+00  0.47573970369E+01  0.49239949804E+01  0.12700000000E+01 0. -1.
          4   -1    0    0  501    0  0.00000000000E+00 -0.00000000000E+00 -0.80697241297E+03  0.80697341232E+03  0.12700000000E+01 0. -1.
         25    2    1    2    0    0  0.00000000000E+00  0.00000000000E+00 -0.80221501593E+03  0.81189740730E+03  0.12501387201E+03 0.  0.
    9000005    1    3    3    0    0 -0.61513150891E+02 -0.88422066809E+01 -0.35799648342E+03  0.36335180541E+03  0.10000000000E+01 0.  0.
    9000005    1    3    3    0    0  0.61513150891E+02  0.88422066809E+01 -0.44421853251E+03  0.44854560189E+03  0.10000000000E+01 0.  0.
<mgrwt>
<rscale>  0 0.12501387E+03</rscale>
<asrwt>0</asrwt>
<pdfrwt beam="2">  1        4 0.12416239E+00 0.12501387E+03</pdfrwt>
<pdfrwt beam="1">  1       -4 0.74479998E-03 0.12501387E+03</pdfrwt>
<totfact> 0.37727679E+03</totfact>
</mgrwt>
</event>
<event>
 5    1  0.3235144E-002  0.1249971E+03  0.7818608E-02  0.1235074E+00
         -4   -1    0    0    0  501 -0.00000000000E+00  0.00000000000E+00  0.59874095669E+03  0.59874230360E+03  0.12700000000E+01 0. -1.
          4   -1    0    0  501    0  0.00000000000E+00 -0.00000000000E+00 -0.64606277265E+01  0.65842699383E+01  0.12700000000E+01 0. -1.
         25    2    1    2    0    0  0.00000000000E+00  0.00000000000E+00  0.59228032897E+03  0.60532657354E+03  0.12499709018E+03 0.  0.
    9000005    1    3    3    0    0  0.27614341138E+02 -0.42398083431E+02  0.11854224556E+03  0.12889303045E+03  0.10000000000E+01 0.  0.
    9000005    1    3    3    0    0 -0.27614341138E+02  0.42398083431E+02  0.47373808341E+03  0.47643354309E+03  0.10000000000E+01 0.  0.
<mgrwt>
<rscale>  0 0.12499709E+03</rscale>
<asrwt>0</asrwt>
<pdfrwt beam="2">  1        4 0.10035570E-02 0.12499709E+03</pdfrwt>
<pdfrwt beam="1">  1       -4 0.92123635E-01 0.12499709E+03</pdfrwt>
<totfact> 0.48536184E+03</totfact>
</mgrwt>
</event>
<event>
 5    1  0.3235144E-002  0.1249985E+03  0.7818608E-02  0.1235072E+00
          4   -1    0    0  501    0  0.00000000000E+00  0.00000000000E+00  0.94380350950E+02  0.94388895244E+02  0.12700000000E+01 0. -1.
         -4   -1    0    0    0  501 -0.00000000000E+00 -0.00000000000E+00 -0.41367227788E+02  0.41386718098E+02  0.12700000000E+01 0. -1.
         25    2    1    2    0    0  0.00000000000E+00  0.00000000000E+00  0.53013123162E+02  0.13577561334E+03  0.12499850380E+03 0.  0.
    9000005    1    3    3    0    0  0.23691505267E+02  0.35301907435E+02 -0.23242270768E+02  0.48463545483E+02  0.10000000000E+01 0.  0.
    9000005    1    3    3    0    0 -0.23691505267E+02 -0.35301907435E+02  0.76255393929E+02  0.87312067858E+02  0.10000000000E+01 0.  0.
<mgrwt>
<rscale>  0 0.12499850E+03</rscale>
<asrwt>0</asrwt>
<pdfrwt beam="1">  1        4 0.14522210E-01 0.12499850E+03</pdfrwt>
<pdfrwt beam="2">  1       -4 0.63663455E-02 0.12499850E+03</pdfrwt>
<totfact> 0.10222094E+04</totfact>
</mgrwt>
</event>
<event>
 5    1  0.3235144E-002  0.1249784E+03  0.7818608E-02  0.1235103E+00
         -4   -1    0    0    0  501 -0.00000000000E+00  0.00000000000E+00  0.10902487729E+02  0.10976207846E+02  0.12700000000E+01 0.  1.
          4   -1    0    0  501    0  0.00000000000E+00 -0.00000000000E+00 -0.35688411568E+03  0.35688637537E+03  0.12700000000E+01 0.  1.
         25    2    1    2    0    0  0.00000000000E+00  0.00000000000E+00 -0.34598162795E+03  0.36786258321E+03  0.12497837113E+03 0.  0.
    9000005    1    3    3    0    0  0.62363172336E+01  0.33506061678E+02 -0.18851920845E+02  0.38960784661E+02  0.10000000000E+01 0.  0.
    9000005    1    3    3    0    0 -0.62363172336E+01 -0.33506061678E+02 -0.32712970710E+03  0.32890179855E+03  0.10000000000E+01 0.  0.
<mgrwt>
<rscale>  0 0.12497837E+03</rscale>
<asrwt>0</asrwt>
<pdfrwt beam="2">  1        4 0.54911084E-01 0.12497837E+03</pdfrwt>
<pdfrwt beam="1">  1       -4 0.16831507E-02 0.12497837E+03</pdfrwt>
<totfact> 0.67835584E+03</totfact>
</mgrwt>
</event>
<event>
 5    1  0.3235144E-002  0.1249988E+03  0.7818608E-02  0.1235071E+00
         -4   -1    0    0    0  501 -0.00000000000E+00  0.00000000000E+00  0.49211709112E+01  0.50824032836E+01  0.12700000000E+01 0.  1.
          4   -1    0    0  501    0  0.00000000000E+00 -0.00000000000E+00 -0.78079469142E+03  0.78079572427E+03  0.12700000000E+01 0.  1.
         25    2    1    2    0    0  0.00000000000E+00  0.00000000000E+00 -0.77587352050E+03  0.78587812756E+03  0.12499884620E+03 0.  0.
    9000005    1    3    3    0    0 -0.48556811164E+02  0.75624526540E+01 -0.14523391353E+03  0.15332594119E+03  0.10000000000E+01 0.  0.
    9000005    1    3    3    0    0  0.48556811164E+02 -0.75624526540E+01 -0.63063960697E+03  0.63255218637E+03  0.10000000000E+01 0.  0.
<mgrwt>
<rscale>  0 0.12499885E+03</rscale>
<asrwt>0</asrwt>
<pdfrwt beam="2">  1        4 0.12013465E+00 0.12499885E+03</pdfrwt>
<pdfrwt beam="1">  1       -4 0.76958578E-03 0.12499885E+03</pdfrwt>
<totfact> 0.38904002E+03</totfact>
</mgrwt>
</event>
<event>
 5    1  0.3235144E-002  0.1249989E+03  0.7818608E-02  0.1235071E+00
         -4   -1    0    0    0  501 -0.00000000000E+00  0.00000000000E+00  0.16147682538E+03  0.16148181952E+03  0.12700000000E+01 0.  1.
          4   -1    0    0  501    0  0.00000000000E+00 -0.00000000000E+00 -0.24168306855E+02  0.24201651932E+02  0.12700000000E+01 0.  1.
         25    2    1    2    0    0  0.00000000000E+00  0.00000000000E+00  0.13730851853E+03  0.18568347145E+03  0.12499888924E+03 0.  0.
    9000005    1    3    3    0    0 -0.48356954374E+02  0.38217952948E+01  0.12717880533E+03  0.13611924801E+03  0.10000000000E+01 0.  0.
    9000005    1    3    3    0    0  0.48356954374E+02 -0.38217952948E+01  0.10129713201E+02  0.49564223439E+02  0.10000000000E+01 0.  0.
<mgrwt>
<rscale>  0 0.12499889E+03</rscale>
<asrwt>0</asrwt>
<pdfrwt beam="2">  1        4 0.37211503E-02 0.12499889E+03</pdfrwt>
<pdfrwt beam="1">  1       -4 0.24845537E-01 0.12499889E+03</pdfrwt>
<totfact> 0.92606153E+03</totfact>
</mgrwt>
</event>
<event>
 5    1  0.3235144E-002  0.1249991E+03  0.7818608E-02  0.1235071E+00
         -4   -1    0    0    0  501 -0.00000000000E+00  0.00000000000E+00  0.18529019763E+03  0.18529454994E+03  0.12700000000E+01 0. -1.
          4   -1    0    0  501    0  0.00000000000E+00 -0.00000000000E+00 -0.21057748976E+02  0.21096011281E+02  0.12700000000E+01 0. -1.
         25    2    1    2    0    0  0.00000000000E+00  0.00000000000E+00  0.16423244865E+03  0.20639056122E+03  0.12499906628E+03 0.  0.
    9000005    1    3    3    0    0 -0.12156091532E+02  0.21075391167E+02 -0.12924579063E+02  0.27567869307E+02  0.10000000000E+01 0.  0.
    9000005    1    3    3    0    0  0.12156091532E+02 -0.21075391167E+02  0.17715702771E+03  0.17882269191E+03  0.10000000000E+01 0.  0.
<mgrwt>
<rscale>  0 0.12499907E+03</rscale>
<asrwt>0</asrwt>
<pdfrwt beam="2">  1        4 0.32429317E-02 0.12499907E+03</pdfrwt>
<pdfrwt beam="1">  1       -4 0.28509463E-01 0.12499907E+03</pdfrwt>
<totfact> 0.89070622E+03</totfact>
</mgrwt>
</event>
<event>
 5    1  0.3235144E-002  0.1249956E+03  0.7818608E-02  0.1235076E+00
          4   -1    0    0  501    0  0.00000000000E+00  0.00000000000E+00  0.13127896073E+02  0.13189183269E+02  0.12700000000E+01 0.  1.
         -4   -1    0    0    0  501 -0.00000000000E+00 -0.00000000000E+00 -0.29677705087E+03  0.29677976822E+03  0.12700000000E+01 0.  1.
         25    2    1    2    0    0  0.00000000000E+00  0.00000000000E+00 -0.28364915480E+03  0.30996895149E+03  0.12499563140E+03 0.  0.
    9000005    1    3    3    0    0  0.77068682326E+01 -0.62010108140E+02 -0.14324402809E+03  0.15628339935E+03  0.10000000000E+01 0.  0.
    9000005    1    3    3    0    0 -0.77068682326E+01  0.62010108140E+02 -0.14040512671E+03  0.15368555214E+03  0.10000000000E+01 0.  0.
<mgrwt>
<rscale>  0 0.12499563E+03</rscale>
<asrwt>0</asrwt>
<pdfrwt beam="1">  1        4 0.20246000E-02 0.12499563E+03</pdfrwt>
<pdfrwt beam="2">  1       -4 0.45662926E-01 0.12499563E+03</pdfrwt>
<totfact> 0.74372338E+03</totfact>
</mgrwt>
</event>
<event>
 5    1  0.3235144E-002  0.1250096E+03  0.7818608E-02  0.1235054E+00
         -4   -1    0    0    0  501 -0.00000000000E+00  0.00000000000E+00  0.20684319784E+02  0.20723271579E+02  0.12700000000E+01 0. -1.
          4   -1    0    0  501    0  0.00000000000E+00 -0.00000000000E+00 -0.18866110174E+03  0.18866537629E+03  0.12700000000E+01 0. -1.
         25    2    1    2    0    0  0.00000000000E+00  0.00000000000E+00 -0.16797678196E+03  0.20938864787E+03  0.12500962595E+03 0.  0.
    9000005    1    3    3    0    0 -0.61943861442E+02 -0.51793646348E+01 -0.73135365042E+02  0.95987756554E+02  0.10000000000E+01 0.  0.
    9000005    1    3    3    0    0  0.61943861442E+02  0.51793646348E+01 -0.94841416915E+02  0.11340089131E+03  0.10000000000E+01 0.  0.
<mgrwt>
<rscale>  0 0.12500963E+03</rscale>
<asrwt>0</asrwt>
<pdfrwt beam="2">  1        4 0.29028109E-01 0.12500963E+03</pdfrwt>
<pdfrwt beam="1">  1       -4 0.31855283E-02 0.12500963E+03</pdfrwt>
<totfact> 0.88556760E+03</totfact>
</mgrwt>
</event>
<event>
 5    1  0.3235144E-002  0.1250010E+03  0.7818608E-02  0.1235068E+00
         -4   -1    0    0    0  501 -0.00000000000E+00  0.00000000000E+00  0.24084335319E+02  0.24117796495E+02  0.12700000000E+01 0. -1.
          4   -1    0    0  501    0  0.00000000000E+00 -0.00000000000E+00 -0.16204454864E+03  0.16204952528E+03  0.12700000000E+01 0. -1.
         25    2    1    2    0    0  0.00000000000E+00  0.00000000000E+00 -0.13796021332E+03  0.18616732178E+03  0.12500100495E+03 0.  0.
    9000005    1    3    3    0    0  0.13046960245E+02 -0.44562729119E+02 -0.13126980630E+03  0.13924375047E+03  0.10000000000E+01 0.  0.
    9000005    1    3    3    0    0 -0.13046960245E+02  0.44562729119E+02 -0.66904070200E+01  0.46923571308E+02  0.10000000000E+01 0.  0.
<mgrwt>
<rscale>  0 0.12500100E+03</rscale>
<asrwt>0</asrwt>
<pdfrwt beam="2">  1        4 0.24932887E-01 0.12500100E+03</pdfrwt>
<pdfrwt beam="1">  1       -4 0.37082392E-02 0.12500100E+03</pdfrwt>
<totfact> 0.92516415E+03</totfact>
</mgrwt>
</event>
<event>
 5    1  0.3235144E-002  0.1249945E+03  0.7818608E-02  0.1235078E+00
          4   -1    0    0  501    0  0.00000000000E+00  0.00000000000E+00  0.12514720814E+03  0.12515365198E+03  0.12700000000E+01 0.  1.
         -4   -1    0    0    0  501 -0.00000000000E+00 -0.00000000000E+00 -0.31190331867E+02  0.31216176927E+02  0.12700000000E+01 0.  1.
         25    2    1    2    0    0  0.00000000000E+00  0.00000000000E+00  0.93956876272E+02  0.15636982891E+03  0.12499451506E+03 0.  0.
    9000005    1    3    3    0    0 -0.44111560664E+02  0.24481223956E+02  0.84762883521E+00  0.50466608616E+02  0.10000000000E+01 0.  0.
    9000005    1    3    3    0    0  0.44111560664E+02 -0.24481223956E+02  0.93109247437E+02  0.10590322030E+03  0.10000000000E+01 0.  0.
<mgrwt>
<rscale>  0 0.12499452E+03</rscale>
<asrwt>0</asrwt>
<pdfrwt beam="1">  1        4 0.19255900E-01 0.12499452E+03</pdfrwt>
<pdfrwt beam="2">  1       -4 0.48009965E-02 0.12499452E+03</pdfrwt>
<totfact> 0.98059348E+03</totfact>
</mgrwt>
</event>
<event>
 5    1  0.3235144E-002  0.1249946E+03  0.7818608E-02  0.1235078E+00
          4   -1    0    0  501    0  0.00000000000E+00  0.00000000000E+00  0.13388253048E+03  0.13388855391E+03  0.12700000000E+01 0. -1.
         -4   -1    0    0    0  501 -0.00000000000E+00 -0.00000000000E+00 -0.29153655661E+02  0.29181304604E+02  0.12700000000E+01 0. -1.
         25    2    1    2    0    0  0.00000000000E+00  0.00000000000E+00  0.10472887482E+03  0.16306985852E+03  0.12499456602E+03 0.  0.
    9000005    1    3    3    0    0 -0.10545982576E+02 -0.29197541572E+02 -0.18388513789E+02  0.36095035970E+02  0.10000000000E+01 0.  0.
    9000005    1    3    3    0    0  0.10545982576E+02  0.29197541572E+02  0.12311738861E+03  0.12697482255E+03  0.10000000000E+01 0.  0.
<mgrwt>
<rscale>  0 0.12499457E+03</rscale>
<asrwt>0</asrwt>
<pdfrwt beam="1">  1        4 0.20599903E-01 0.12499457E+03</pdfrwt>
<pdfrwt beam="2">  1       -4 0.44877679E-02 0.12499457E+03</pdfrwt>
<totfact> 0.96765998E+03</totfact>
</mgrwt>
</event>
<event>
 5    1  0.3235144E-002  0.1250026E+03  0.7818608E-02  0.1235065E+00
         -4   -1    0    0    0  501 -0.00000000000E+00  0.00000000000E+00  0.43834718100E+02  0.43853111759E+02  0.12700000000E+01 0.  1.
          4   -1    0    0  501    0  0.00000000000E+00 -0.00000000000E+00 -0.89075213025E+02  0.89084266150E+02  0.12700000000E+01 0.  1.
         25    2    1    2    0    0  0.00000000000E+00  0.00000000000E+00 -0.45240494925E+02  0.13293737791E+03  0.12500257623E+03 0.  0.
    9000005    1    3    3    0    0  0.33141914425E+02  0.33323689984E+02 -0.66424096276E+02  0.81375766490E+02  0.10000000000E+01 0.  0.
    9000005    1    3    3    0    0 -0.33141914425E+02 -0.33323689984E+02  0.21183601351E+02  0.51561611418E+02  0.10000000000E+01 0.  0.
<mgrwt>
<rscale>  0 0.12500258E+03</rscale>
<asrwt>0</asrwt>
<pdfrwt beam="2">  1        4 0.13705990E-01 0.12500258E+03</pdfrwt>
<pdfrwt beam="1">  1       -4 0.67459141E-02 0.12500258E+03</pdfrwt>
<totfact> 0.10281134E+04</totfact>
</mgrwt>
</event>
<event>
 5    1  0.3235144E-002  0.1249991E+03  0.7818608E-02  0.1235071E+00
          4   -1    0    0  501    0  0.00000000000E+00  0.00000000000E+00  0.16975679455E+03  0.16976154510E+03  0.12700000000E+01 0. -1.
         -4   -1    0    0    0  501 -0.00000000000E+00 -0.00000000000E+00 -0.22987929329E+02  0.23022984056E+02  0.12700000000E+01 0. -1.
         25    2    1    2    0    0  0.00000000000E+00  0.00000000000E+00  0.14676886522E+03  0.19278452915E+03  0.12499909953E+03 0.  0.
    9000005    1    3    3    0    0  0.27848377463E+02  0.29842156117E+02  0.40461918605E+00  0.40831974305E+02  0.10000000000E+01 0.  0.
    9000005    1    3    3    0    0 -0.27848377463E+02 -0.29842156117E+02  0.14636424603E+03  0.15195255485E+03  0.10000000000E+01 0.  0.
<mgrwt>
<rscale>  0 0.12499910E+03</rscale>
<asrwt>0</asrwt>
<pdfrwt beam="1">  1        4 0.26119492E-01 0.12499910E+03</pdfrwt>
<pdfrwt beam="2">  1       -4 0.35396664E-02 0.12499910E+03</pdfrwt>
<totfact> 0.91366902E+03</totfact>
</mgrwt>
</event>
<event>
 5    1  0.3235144E-002  0.1250004E+03  0.7818608E-02  0.1235069E+00
         -4   -1    0    0    0  501 -0.00000000000E+00  0.00000000000E+00  0.73139266331E+03  0.73139376593E+03  0.12700000000E+01 0. -1.
          4   -1    0    0  501    0  0.00000000000E+00 -0.00000000000E+00 -0.52642498408E+01  0.54152771292E+01  0.12700000000E+01 0. -1.
         25    2    1    2    0    0  0.00000000000E+00  0.00000000000E+00  0.72612841347E+03  0.73680904306E+03  0.12500037236E+03 0.  0.
    9000005    1    3    3    0    0 -0.18987653185E+02  0.32932794448E+02  0.65542995728E+03  0.65653219939E+03  0.10000000000E+01 0.  0.
    9000005    1    3    3    0    0  0.18987653185E+02 -0.32932794448E+02  0.70698456186E+02  0.80276843677E+02  0.10000000000E+01 0.  0.
<mgrwt>
<rscale>  0 0.12500037E+03</rscale>
<asrwt>0</asrwt>
<pdfrwt beam="2">  1        4 0.82158682E-03 0.12500037E+03</pdfrwt>
<pdfrwt beam="1">  1       -4 0.11253366E+00 0.12500037E+03</pdfrwt>
<totfact> 0.41212808E+03</totfact>
</mgrwt>
</event>
<event>
 5    1  0.3235144E-002  0.1249980E+03  0.7818608E-02  0.1235072E+00
         -4   -1    0    0    0  501 -0.00000000000E+00  0.00000000000E+00  0.32249828215E+02  0.32274824862E+02  0.12700000000E+01 0. -1.
          4   -1    0    0  501    0  0.00000000000E+00 -0.00000000000E+00 -0.12104555288E+03  0.12105221507E+03  0.12700000000E+01 0. -1.
         25    2    1    2    0    0  0.00000000000E+00  0.00000000000E+00 -0.88795724667E+02  0.15332703993E+03  0.12499800180E+03 0.  0.
    9000005    1    3    3    0    0  0.37778407613E+02 -0.47534644630E+02 -0.26271246365E+02  0.66165919532E+02  0.10000000000E+01 0.  0.
    9000005    1    3    3    0    0 -0.37778407613E+02  0.47534644630E+02 -0.62524478302E+02  0.87161120397E+02  0.10000000000E+01 0.  0.
<mgrwt>
<rscale>  0 0.12499800E+03</rscale>
<asrwt>0</asrwt>
<pdfrwt beam="2">  1        4 0.18624828E-01 0.12499800E+03</pdfrwt>
<pdfrwt beam="1">  1       -4 0.49639474E-02 0.12499800E+03</pdfrwt>
<totfact> 0.98649024E+03</totfact>
</mgrwt>
</event>
<event>
 5    1  0.3235144E-002  0.1249964E+03  0.7818608E-02  0.1235075E+00
         -4   -1    0    0    0  501 -0.00000000000E+00  0.00000000000E+00  0.25742943013E+01  0.28705210589E+01  0.12700000000E+01 0.  1.
          4   -1    0    0  501    0  0.00000000000E+00 -0.00000000000E+00 -0.14344718302E+04  0.14344723924E+04  0.12700000000E+01 0.  1.
         25    2    1    2    0    0  0.00000000000E+00  0.00000000000E+00 -0.14318975359E+04  0.14373429135E+04  0.12499639010E+03 0.  0.
    9000005    1    3    3    0    0 -0.18939350135E+02 -0.49817586986E+02 -0.34076626787E+03  0.34491033657E+03  0.10000000000E+01 0.  0.
    9000005    1    3    3    0    0  0.18939350135E+02  0.49817586986E+02 -0.10911312680E+04  0.10924325769E+04  0.10000000000E+01 0.  0.
<mgrwt>
<rscale>  0 0.12499639E+03</rscale>
<asrwt>0</asrwt>
<pdfrwt beam="2">  1        4 0.22071020E+00 0.12499639E+03</pdfrwt>
<pdfrwt beam="1">  1       -4 0.41887634E-03 0.12499639E+03</pdfrwt>
<totfact> 0.19195076E+03</totfact>
</mgrwt>
</event>
<event>
 5    1  0.3235144E-002  0.1249939E+03  0.7818608E-02  0.1235079E+00
         -4   -1    0    0    0  501 -0.00000000000E+00  0.00000000000E+00  0.14891275591E+03  0.14891817140E+03  0.12700000000E+01 0.  1.
          4   -1    0    0  501    0  0.00000000000E+00 -0.00000000000E+00 -0.26207954104E+02  0.26238707253E+02  0.12700000000E+01 0.  1.
         25    2    1    2    0    0  0.00000000000E+00  0.00000000000E+00  0.12270480180E+03  0.17515687865E+03  0.12499385486E+03 0.  0.
    9000005    1    3    3    0    0  0.14052432793E+02 -0.51414893202E+01  0.14637200800E+03  0.14713827003E+03  0.10000000000E+01 0.  0.
    9000005    1    3    3    0    0 -0.14052432793E+02  0.51414893202E+01 -0.23667206200E+02  0.28018608622E+02  0.10000000000E+01 0.  0.
<mgrwt>
<rscale>  0 0.12499385E+03</rscale>
<asrwt>0</asrwt>
<pdfrwt beam="2">  1        4 0.40347750E-02 0.12499385E+03</pdfrwt>
<pdfrwt beam="1">  1       -4 0.22912438E-01 0.12499385E+03</pdfrwt>
<totfact> 0.94509143E+03</totfact>
</mgrwt>
</event>
<event>
 5    1  0.3235144E-002  0.1249963E+03  0.7818608E-02  0.1235075E+00
          4   -1    0    0  501    0  0.00000000000E+00  0.00000000000E+00  0.16227328433E+03  0.16227825396E+03  0.12700000000E+01 0.  1.
         -4   -1    0    0    0  501 -0.00000000000E+00 -0.00000000000E+00 -0.24048537504E+02  0.24082048419E+02  0.12700000000E+01 0.  1.
         25    2    1    2    0    0  0.00000000000E+00  0.00000000000E+00  0.13822474683E+03  0.18636030238E+03  0.12499632661E+03 0.  0.
    9000005    1    3    3    0    0  0.17723288584E+02 -0.16180520524E+02  0.15513631338E+03  0.15698471241E+03  0.10000000000E+01 0.  0.
    9000005    1    3    3    0    0 -0.17723288584E+02  0.16180520524E+02 -0.16911566549E+02  0.29375589966E+02  0.10000000000E+01 0.  0.
<mgrwt>
<rscale>  0 0.12499633E+03</rscale>
<asrwt>0</asrwt>
<pdfrwt beam="1">  1        4 0.24968082E-01 0.12499633E+03</pdfrwt>
<pdfrwt beam="2">  1       -4 0.37027349E-02 0.12499633E+03</pdfrwt>
<totfact> 0.92492106E+03</totfact>
</mgrwt>
</event>
<event>
 5    1  0.3235144E-002  0.1249944E+03  0.7818608E-02  0.1235078E+00
          4   -1    0    0  501    0  0.00000000000E+00  0.00000000000E+00  0.17464703741E+03  0.17465165495E+03  0.12700000000E+01 0.  1.
         -4   -1    0    0    0  501 -0.00000000000E+00 -0.00000000000E+00 -0.22341585914E+02  0.22377653165E+02  0.12700000000E+01 0.  1.
         25    2    1    2    0    0  0.00000000000E+00  0.00000000000E+00  0.15230545150E+03  0.19702930811E+03  0.12499439067E+03 0.  0.
    9000005    1    3    3    0    0  0.45007223559E+02 -0.22478299126E+02  0.13458190348E+03  0.14368094114E+03  0.10000000000E+01 0.  0.
    9000005    1    3    3    0    0 -0.45007223559E+02  0.22478299126E+02  0.17723548020E+02  0.53348366971E+02  0.10000000000E+01 0.  0.
<mgrwt>
<rscale>  0 0.12499439E+03</rscale>
<asrwt>0</asrwt>
<pdfrwt beam="1">  1        4 0.26871905E-01 0.12499439E+03</pdfrwt>
<pdfrwt beam="2">  1       -4 0.34402966E-02 0.12499439E+03</pdfrwt>
<totfact> 0.90649800E+03</totfact>
</mgrwt>
</event>
<event>
 5    1  0.3235144E-002  0.1249964E+03  0.7818608E-02  0.1235075E+00
          4   -1    0    0  501    0  0.00000000000E+00  0.00000000000E+00  0.40009216793E+02  0.40029368323E+02  0.12700000000E+01 0.  1.
         -4   -1    0    0    0  501 -0.00000000000E+00 -0.00000000000E+00 -0.97579200275E+02  0.97587464494E+02  0.12700000000E+01 0.  1.
         25    2    1    2    0    0  0.00000000000E+00  0.00000000000E+00 -0.57569983482E+02  0.13761683282E+03  0.12499635865E+03 0.  0.
    9000005    1    3    3    0    0  0.56728364630E+02 -0.22851907975E+02 -0.42914533367E+02  0.74719302899E+02  0.10000000000E+01 0.  0.
    9000005    1    3    3    0    0 -0.56728364630E+02  0.22851907975E+02 -0.14655450115E+02  0.62897529918E+02  0.10000000000E+01 0.  0.
<mgrwt>
<rscale>  0 0.12499636E+03</rscale>
<asrwt>0</asrwt>
<pdfrwt beam="1">  1        4 0.61574500E-02 0.12499636E+03</pdfrwt>
<pdfrwt beam="2">  1       -4 0.15014370E-01 0.12499636E+03</pdfrwt>
<totfact> 0.10184040E+04</totfact>
</mgrwt>
</event>
<event>
 5    1  0.3235144E-002  0.1249967E+03  0.7818608E-02  0.1235074E+00
          4   -1    0    0  501    0  0.00000000000E+00  0.00000000000E+00  0.25575586779E+03  0.25575902097E+03  0.12700000000E+01 0.  1.
         -4   -1    0    0    0  501 -0.00000000000E+00 -0.00000000000E+00 -0.15242904341E+02  0.15295719426E+02  0.12700000000E+01 0.  1.
         25    2    1    2    0    0  0.00000000000E+00  0.00000000000E+00  0.24051296344E+03  0.27105474039E+03  0.12499674678E+03 0.  0.
    9000005    1    3    3    0    0 -0.52550911817E+02  0.18747051392E+02  0.59229779399E+02  0.81377005574E+02  0.10000000000E+01 0.  0.
    9000005    1    3    3    0    0  0.52550911817E+02 -0.18747051392E+02  0.18128318405E+03  0.18967773482E+03  0.10000000000E+01 0.  0.
<mgrwt>
<rscale>  0 0.12499675E+03</rscale>
<asrwt>0</asrwt>
<pdfrwt beam="1">  1        4 0.39351366E-01 0.12499675E+03</pdfrwt>
<pdfrwt beam="2">  1       -4 0.23493672E-02 0.12499675E+03</pdfrwt>
<totfact> 0.79385026E+03</totfact>
</mgrwt>
</event>
<event>
 4    1  0.3235144E-002  0.1249323E+03  0.7818608E-02  0.1235175E+00
          4   -1    0    0  501    0  0.00000000000E+00  0.00000000000E+00  0.42436709088E+03  0.42436899124E+03  0.12700000000E+01 0.  1.
         -4   -1    0    0    0  501 -0.00000000000E+00 -0.00000000000E+00 -0.91491264610E+01  0.92368509244E+01  0.12700000000E+01 0.  1.
    9000005    1    1    2    0    0  0.15207210449E+02 -0.26273524932E+02  0.18161295913E+02  0.35389123064E+02  0.10000000000E+01 0.  0.
    9000005    1    1    2    0    0 -0.15207210449E+02  0.26273524932E+02  0.39705666851E+03  0.39821671910E+03  0.10000000000E+01 0.  0.
<mgrwt>
<rscale>  0 0.12493226E+03</rscale>
<asrwt>0</asrwt>
<pdfrwt beam="1">  1        4 0.65294135E-01 0.12493226E+03</pdfrwt>
<pdfrwt beam="2">  1       -4 0.14144522E-02 0.12493226E+03</pdfrwt>
<totfact> 0.61502303E+03</totfact>
</mgrwt>
</event>
<event>
 5    1  0.3235144E-002  0.1249974E+03  0.7818608E-02  0.1235073E+00
          4   -1    0    0  501    0  0.00000000000E+00  0.00000000000E+00  0.49606753680E+03  0.49606916248E+03  0.12700000000E+01 0. -1.
         -4   -1    0    0    0  501 -0.00000000000E+00 -0.00000000000E+00 -0.78212432144E+01  0.79236825667E+01  0.12700000000E+01 0. -1.
         25    2    1    2    0    0  0.00000000000E+00  0.00000000000E+00  0.48824629358E+03  0.50399284505E+03  0.12499737862E+03 0.  0.
    9000005    1    3    3    0    0  0.19728704070E+02 -0.44536382363E+02  0.40195912326E+03  0.40490103469E+03  0.10000000000E+01 0.  0.
    9000005    1    3    3    0    0 -0.19728704070E+02  0.44536382363E+02  0.86287170321E+02  0.99091810359E+02  0.10000000000E+01 0.  0.
<mgrwt>
<rscale>  0 0.12499738E+03</rscale>
<asrwt>0</asrwt>
<pdfrwt beam="1">  1        4 0.76326099E-01 0.12499738E+03</pdfrwt>
<pdfrwt beam="2">  1       -4 0.12112730E-02 0.12499738E+03</pdfrwt>
<totfact> 0.55559091E+03</totfact>
</mgrwt>
</event>
<event>
 5    1  0.3235144E-002  0.1250037E+03  0.7818608E-02  0.1235064E+00
          4   -1    0    0  501    0  0.00000000000E+00  0.00000000000E+00  0.57451877881E+03  0.57452018250E+03  0.12700000000E+01 0.  1.
         -4   -1    0    0    0  501 -0.00000000000E+00 -0.00000000000E+00 -0.67388433063E+01  0.68574710431E+01  0.12700000000E+01 0.  1.
         25    2    1    2    0    0  0.00000000000E+00  0.00000000000E+00  0.56777993550E+03  0.58137765355E+03  0.12500368348E+03 0.  0.
    9000005    1    3    3    0    0  0.13926989697E+02  0.58801184606E+01  0.56590937518E+03  0.56611214238E+03  0.10000000000E+01 0.  0.
    9000005    1    3    3    0    0 -0.13926989697E+02 -0.58801184606E+01  0.18705603193E+01  0.15265511162E+02  0.10000000000E+01 0.  0.
<mgrwt>
<rscale>  0 0.12500368E+03</rscale>
<asrwt>0</asrwt>
<pdfrwt beam="1">  1        4 0.88396724E-01 0.12500368E+03</pdfrwt>
<pdfrwt beam="2">  1       -4 0.10459785E-02 0.12500368E+03</pdfrwt>
<totfact> 0.50060568E+03</totfact>
</mgrwt>
</event>
<event>
 5    1  0.3235144E-002  0.1249992E+03  0.7818608E-02  0.1235071E+00
          4   -1    0    0  501    0  0.00000000000E+00  0.00000000000E+00  0.76558530659E+02  0.76569063705E+02  0.12700000000E+01 0.  1.
         -4   -1    0    0    0  501 -0.00000000000E+00 -0.00000000000E+00 -0.51000433417E+02  0.51016243577E+02  0.12700000000E+01 0.  1.
         25    2    1    2    0    0  0.00000000000E+00  0.00000000000E+00  0.25558097242E+02  0.12758530728E+03  0.12499917720E+03 0.  0.
    9000005    1    3    3    0    0  0.24636245373E+02  0.48467105328E+02  0.44225448369E+02  0.70092047826E+02  0.10000000000E+01 0.  0.
    9000005    1    3    3    0    0 -0.24636245373E+02 -0.48467105328E+02 -0.18667351127E+02  0.57493259457E+02  0.10000000000E+01 0.  0.
<mgrwt>
<rscale>  0 0.12499918E+03</rscale>
<asrwt>0</asrwt>
<pdfrwt beam="1">  1        4 0.11780262E-01 0.12499918E+03</pdfrwt>
<pdfrwt beam="2">  1       -4 0.78482469E-02 0.12499918E+03</pdfrwt>
<totfact> 0.10396647E+04</totfact>
</mgrwt>
</event>
<event>
 5    1  0.3235144E-002  0.1250079E+03  0.7818608E-02  0.1235057E+00
          4   -1    0    0  501    0  0.00000000000E+00  0.00000000000E+00  0.29902756431E+03  0.29903026121E+03  0.12700000000E+01 0. -1.
         -4   -1    0    0    0  501 -0.00000000000E+00 -0.00000000000E+00 -0.13031195377E+02  0.13092935231E+02  0.12700000000E+01 0. -1.
         25    2    1    2    0    0  0.00000000000E+00  0.00000000000E+00  0.28599636893E+03  0.31212319644E+03  0.12500786660E+03 0.  0.
    9000005    1    3    3    0    0  0.41484160269E+02  0.45136654414E+02  0.11267548514E+03  0.12827711439E+03  0.10000000000E+01 0.  0.
    9000005    1    3    3    0    0 -0.41484160269E+02 -0.45136654414E+02  0.17332088380E+03  0.18384608205E+03  0.10000000000E+01 0.  0.
<mgrwt>
<rscale>  0 0.12500787E+03</rscale>
<asrwt>0</asrwt>
<pdfrwt beam="1">  1        4 0.46009201E-01 0.12500787E+03</pdfrwt>
<pdfrwt beam="2">  1       -4 0.20097558E-02 0.12500787E+03</pdfrwt>
<totfact> 0.74089929E+03</totfact>
</mgrwt>
</event>
<event>
 5    1  0.3235144E-002  0.1249995E+03  0.7818608E-02  0.1235070E+00
         -4   -1    0    0    0  501 -0.00000000000E+00  0.00000000000E+00  0.24305913167E+02  0.24339069721E+02  0.12700000000E+01 0.  1.
          4   -1    0    0  501    0  0.00000000000E+00 -0.00000000000E+00 -0.16056531220E+03  0.16057033469E+03  0.12700000000E+01 0.  1.
         25    2    1    2    0    0  0.00000000000E+00  0.00000000000E+00 -0.13625939903E+03  0.18490940441E+03  0.12499945606E+03 0.  0.
    9000005    1    3    3    0    0  0.93476280100E+01 -0.25463979869E+02  0.15150358523E+02  0.31085781051E+02  0.10000000000E+01 0.  0.
    9000005    1    3    3    0    0 -0.93476280100E+01  0.25463979869E+02 -0.15140975755E+03  0.15382362336E+03  0.10000000000E+01 0.  0.
<mgrwt>
<rscale>  0 0.12499946E+03</rscale>
<asrwt>0</asrwt>
<pdfrwt beam="2">  1        4 0.24705292E-01 0.12499946E+03</pdfrwt>
<pdfrwt beam="1">  1       -4 0.37423082E-02 0.12499946E+03</pdfrwt>
<totfact> 0.92741815E+03</totfact>
</mgrwt>
</event>
<event>
 5    1  0.3235144E-002  0.1250031E+03  0.7818608E-02  0.1235064E+00
          4   -1    0    0  501    0  0.00000000000E+00  0.00000000000E+00  0.79524256563E+02  0.79534396847E+02  0.12700000000E+01 0. -1.
         -4   -1    0    0    0  501 -0.00000000000E+00 -0.00000000000E+00 -0.49101221330E+02  0.49117642819E+02  0.12700000000E+01 0. -1.
         25    2    1    2    0    0  0.00000000000E+00  0.00000000000E+00  0.30423035233E+02  0.12865203967E+03  0.12500314491E+03 0.  0.
    9000005    1    3    3    0    0  0.33345001949E+02 -0.42257994202E+02 -0.17461336871E+02  0.56599695355E+02  0.10000000000E+01 0.  0.
    9000005    1    3    3    0    0 -0.33345001949E+02  0.42257994202E+02  0.47884372104E+02  0.72052344311E+02  0.10000000000E+01 0.  0.
<mgrwt>
<rscale>  0 0.12500314E+03</rscale>
<asrwt>0</asrwt>
<pdfrwt beam="1">  1        4 0.12236544E-01 0.12500314E+03</pdfrwt>
<pdfrwt beam="2">  1       -4 0.75560773E-02 0.12500314E+03</pdfrwt>
<totfact> 0.10372694E+04</totfact>
</mgrwt>
</event>
<event>
 5    1  0.3235144E-002  0.1249971E+03  0.7818608E-02  0.1235074E+00
         -4   -1    0    0    0  501 -0.00000000000E+00  0.00000000000E+00  0.84208203216E+01  0.85160504278E+01  0.12700000000E+01 0. -1.
          4   -1    0    0  501    0  0.00000000000E+00 -0.00000000000E+00 -0.46115446186E+03  0.46115621062E+03  0.12700000000E+01 0. -1.
         25    2    1    2    0    0  0.00000000000E+00  0.00000000000E+00 -0.45273364154E+03  0.46967226105E+03  0.12499713044E+03 0.  0.
    9000005    1    3    3    0    0 -0.50637981491E+02  0.17813810281E+02 -0.34657829705E+03  0.35071220821E+03  0.10000000000E+01 0.  0.
    9000005    1    3    3    0    0  0.50637981491E+02 -0.17813810281E+02 -0.10615534449E+03  0.11896005283E+03  0.10000000000E+01 0.  0.
<mgrwt>
<rscale>  0 0.12499713E+03</rscale>
<asrwt>0</asrwt>
<pdfrwt beam="2">  1        4 0.70954280E-01 0.12499713E+03</pdfrwt>
<pdfrwt beam="1">  1       -4 0.13029711E-02 0.12499713E+03</pdfrwt>
<totfact> 0.58300371E+03</totfact>
</mgrwt>
</event>
<event>
 5    1  0.3235144E-002  0.1249979E+03  0.7818608E-02  0.1235073E+00
         -4   -1    0    0    0  501 -0.00000000000E+00  0.00000000000E+00  0.24616032376E+01  0.27699080308E+01  0.12700000000E+01 0. -1.
          4   -1    0    0  501    0  0.00000000000E+00 -0.00000000000E+00 -0.14929955832E+04  0.14929961233E+04  0.12700000000E+01 0. -1.
         25    2    1    2    0    0  0.00000000000E+00  0.00000000000E+00 -0.14905339799E+04  0.14957660314E+04  0.12499790089E+03 0.  0.
    9000005    1    3    3    0    0 -0.62424642584E+02 -0.28559649755E+01 -0.74101483322E+03  0.74364573258E+03  0.10000000000E+01 0.  0.
    9000005    1    3    3    0    0  0.62424642584E+02  0.28559649755E+01 -0.74951914672E+03  0.75212029878E+03  0.10000000000E+01 0.  0.
<mgrwt>
<rscale>  0 0.12499790E+03</rscale>
<asrwt>0</asrwt>
<pdfrwt beam="2">  1        4 0.22971470E+00 0.12499790E+03</pdfrwt>
<pdfrwt beam="1">  1       -4 0.40246669E-03 0.12499790E+03</pdfrwt>
<totfact> 0.18014754E+03</totfact>
</mgrwt>
</event>
<event>
 5    1  0.3235144E-002  0.1249999E+03  0.7818608E-02  0.1235069E+00
          4   -1    0    0  501    0  0.00000000000E+00  0.00000000000E+00  0.63883961393E+03  0.63884087630E+03  0.12700000000E+01 0.  1.
         -4   -1    0    0    0  501 -0.00000000000E+00 -0.00000000000E+00 -0.60473694985E+01  0.61792861927E+01  0.12700000000E+01 0.  1.
         25    2    1    2    0    0  0.00000000000E+00  0.00000000000E+00  0.63279224443E+03  0.64502016249E+03  0.12499994162E+03 0.  0.
    9000005    1    3    3    0    0  0.27395092752E+02 -0.39749746927E+02  0.52116510257E+03  0.52339717006E+03  0.10000000000E+01 0.  0.
    9000005    1    3    3    0    0 -0.27395092752E+02  0.39749746927E+02  0.11162714186E+03  0.12162299243E+03  0.10000000000E+01 0.  0.
<mgrwt>
<rscale>  0 0.12499994E+03</rscale>
<asrwt>0</asrwt>
<pdfrwt beam="1">  1        4 0.98293287E-01 0.12499994E+03</pdfrwt>
<pdfrwt beam="2">  1       -4 0.94060884E-03 0.12499994E+03</pdfrwt>
<totfact> 0.46143705E+03</totfact>
</mgrwt>
</event>
<event>
 5    1  0.3235144E-002  0.1249982E+03  0.7818608E-02  0.1235072E+00
          4   -1    0    0  501    0  0.00000000000E+00  0.00000000000E+00  0.42708157686E+02  0.42727036322E+02  0.12700000000E+01 0.  1.
         -4   -1    0    0    0  501 -0.00000000000E+00 -0.00000000000E+00 -0.91417650585E+02  0.91426471760E+02  0.12700000000E+01 0.  1.
         25    2    1    2    0    0  0.00000000000E+00  0.00000000000E+00 -0.48709492900E+02  0.13415350808E+03  0.12499819612E+03 0.  0.
    9000005    1    3    3    0    0  0.14313578417E+02 -0.51523158107E+02  0.10349756869E+02  0.54475974664E+02  0.10000000000E+01 0.  0.
    9000005    1    3    3    0    0 -0.14313578417E+02  0.51523158107E+02 -0.59059249769E+02  0.79677533418E+02  0.10000000000E+01 0.  0.
<mgrwt>
<rscale>  0 0.12499820E+03</rscale>
<asrwt>0</asrwt>
<pdfrwt beam="1">  1        4 0.65726166E-02 0.12499820E+03</pdfrwt>
<pdfrwt beam="2">  1       -4 0.14066385E-01 0.12499820E+03</pdfrwt>
<totfact> 0.10256361E+04</totfact>
</mgrwt>
</event>
<event>
 5    1  0.3235144E-002  0.1249891E+03  0.7818608E-02  0.1235086E+00
          4   -1    0    0  501    0  0.00000000000E+00  0.00000000000E+00  0.11984087995E+03  0.11984760910E+03  0.12700000000E+01 0.  1.
         -4   -1    0    0    0  501 -0.00000000000E+00 -0.00000000000E+00 -0.32569622928E+02  0.32594374326E+02  0.12700000000E+01 0.  1.
         25    2    1    2    0    0  0.00000000000E+00  0.00000000000E+00  0.87271257023E+02  0.15244198343E+03  0.12498914356E+03 0.  0.
    9000005    1    3    3    0    0  0.41307976731E+02  0.41605394131E+02  0.69998341504E+02  0.91313337337E+02  0.10000000000E+01 0.  0.
    9000005    1    3    3    0    0 -0.41307976731E+02 -0.41605394131E+02  0.17272915519E+02  0.61128646091E+02  0.10000000000E+01 0.  0.
<mgrwt>
<rscale>  0 0.12498914E+03</rscale>
<asrwt>0</asrwt>
<pdfrwt beam="1">  1        4 0.18439480E-01 0.12498914E+03</pdfrwt>
<pdfrwt beam="2">  1       -4 0.50131328E-02 0.12498914E+03</pdfrwt>
<totfact> 0.98843276E+03</totfact>
</mgrwt>
</event>
<event>
 5    1  0.3235144E-002  0.1249968E+03  0.7818608E-02  0.1235074E+00
         -4   -1    0    0    0  501 -0.00000000000E+00  0.00000000000E+00  0.96983898726E+02  0.96992213667E+02  0.12700000000E+01 0. -1.
          4   -1    0    0  501    0  0.00000000000E+00 -0.00000000000E+00 -0.40255196527E+02  0.40275224983E+02  0.12700000000E+01 0. -1.
         25    2    1    2    0    0  0.00000000000E+00  0.00000000000E+00  0.56728702199E+02  0.13726743865E+03  0.12499681620E+03 0.  0.
    9000005    1    3    3    0    0  0.16051339912E+02  0.57441446401E+02  0.78816658789E+01  0.60168811976E+02  0.10000000000E+01 0.  0.
    9000005    1    3    3    0    0 -0.16051339912E+02 -0.57441446401E+02  0.48847036320E+02  0.77098626673E+02  0.10000000000E+01 0.  0.
<mgrwt>
<rscale>  0 0.12499682E+03</rscale>
<asrwt>0</asrwt>
<pdfrwt beam="2">  1        4 0.61952874E-02 0.12499682E+03</pdfrwt>
<pdfrwt beam="1">  1       -4 0.14922780E-01 0.12499682E+03</pdfrwt>
<totfact> 0.10191228E+04</totfact>
</mgrwt>
</event>
<event>
 5    1  0.3235144E-002  0.1249963E+03  0.7818608E-02  0.1235075E+00
          4   -1    0    0  501    0  0.00000000000E+00  0.00000000000E+00  0.17226971968E+02  0.17273721752E+02  0.12700000000E+01 0. -1.
         -4   -1    0    0    0  501 -0.00000000000E+00 -0.00000000000E+00 -0.22638282987E+03  0.22638639217E+03  0.12700000000E+01 0. -1.
         25    2    1    2    0    0  0.00000000000E+00  0.00000000000E+00 -0.20915585790E+03  0.24366011392E+03  0.12499631283E+03 0.  0.
    9000005    1    3    3    0    0  0.15345257801E+02 -0.51411036916E+02 -0.42124585083E+02  0.68220615082E+02  0.10000000000E+01 0.  0.
    9000005    1    3    3    0    0 -0.15345257801E+02  0.51411036916E+02 -0.16703127282E+03  0.17543949884E+03  0.10000000000E+01 0.  0.
<mgrwt>
<rscale>  0 0.12499631E+03</rscale>
<asrwt>0</asrwt>
<pdfrwt beam="1">  1        4 0.26541737E-02 0.12499631E+03</pdfrwt>
<pdfrwt beam="2">  1       -4 0.34831996E-01 0.12499631E+03</pdfrwt>
<totfact> 0.83262103E+03</totfact>
</mgrwt>
</event>
<event>
 5    1  0.3235144E-002  0.1250065E+03  0.7818608E-02  0.1235059E+00
         -4   -1    0    0    0  501 -0.00000000000E+00  0.00000000000E+00  0.23562300301E+02  0.23596501763E+02  0.12700000000E+01 0.  1.
          4   -1    0    0  501    0  0.00000000000E+00 -0.00000000000E+00 -0.16564413778E+03  0.16564900627E+03  0.12700000000E+01 0.  1.
         25    2    1    2    0    0  0.00000000000E+00  0.00000000000E+00 -0.14208183747E+03  0.18924550804E+03  0.12500645492E+03 0.  0.
    9000005    1    3    3    0    0  0.34258302137E+02 -0.23715803185E+01  0.80065105546E+01  0.35275485394E+02  0.10000000000E+01 0.  0.
    9000005    1    3    3    0    0 -0.34258302137E+02  0.23715803185E+01 -0.15008834803E+03  0.15397002264E+03  0.10000000000E+01 0.  0.
<mgrwt>
<rscale>  0 0.12500645E+03</rscale>
<asrwt>0</asrwt>
<pdfrwt beam="2">  1        4 0.25486718E-01 0.12500645E+03</pdfrwt>
<pdfrwt beam="1">  1       -4 0.36279748E-02 0.12500645E+03</pdfrwt>
<totfact> 0.91965461E+03</totfact>
</mgrwt>
</event>
<event>
 5    1  0.3235144E-002  0.1249952E+03  0.7818608E-02  0.1235077E+00
         -4   -1    0    0    0  501 -0.00000000000E+00  0.00000000000E+00  0.11120644028E+03  0.11121369187E+03  0.12700000000E+01 0. -1.
          4   -1    0    0  501    0  0.00000000000E+00 -0.00000000000E+00 -0.35103545378E+02  0.35126511329E+02  0.12700000000E+01 0. -1.
         25    2    1    2    0    0  0.00000000000E+00  0.00000000000E+00  0.76102894900E+02  0.14634020320E+03  0.12499521775E+03 0.  0.
    9000005    1    3    3    0    0 -0.44637190970E+02 -0.25924313758E+02 -0.31821787527E+01  0.51726928413E+02  0.10000000000E+01 0.  0.
    9000005    1    3    3    0    0  0.44637190970E+02  0.25924313758E+02  0.79285073653E+02  0.94613274785E+02  0.10000000000E+01 0.  0.
<mgrwt>
<rscale>  0 0.12499522E+03</rscale>
<asrwt>0</asrwt>
<pdfrwt beam="2">  1        4 0.54028699E-02 0.12499522E+03</pdfrwt>
<pdfrwt beam="1">  1       -4 0.17111007E-01 0.12499522E+03</pdfrwt>
<totfact> 0.10004906E+04</totfact>
</mgrwt>
</event>
<event>
 5    1  0.3235144E-002  0.1249989E+03  0.7818608E-02  0.1235071E+00
         -4   -1    0    0    0  501 -0.00000000000E+00  0.00000000000E+00  0.16190012189E+02  0.16239747371E+02  0.12700000000E+01 0. -1.
          4   -1    0    0  501    0  0.00000000000E+00 -0.00000000000E+00 -0.24084955725E+03  0.24085290558E+03  0.12700000000E+01 0. -1.
         25    2    1    2    0    0  0.00000000000E+00  0.00000000000E+00 -0.22465954506E+03  0.25709265295E+03  0.12499888406E+03 0.  0.
    9000005    1    3    3    0    0  0.30674542462E-01  0.42848781603E+02 -0.18771822783E+02  0.46791028588E+02  0.10000000000E+01 0.  0.
    9000005    1    3    3    0    0 -0.30674542462E-01 -0.42848781603E+02 -0.20588772228E+03  0.21030162436E+03  0.10000000000E+01 0.  0.
<mgrwt>
<rscale>  0 0.12499888E+03</rscale>
<asrwt>0</asrwt>
<pdfrwt beam="2">  1        4 0.37057859E-01 0.12499888E+03</pdfrwt>
<pdfrwt beam="1">  1       -4 0.24948546E-02 0.12499888E+03</pdfrwt>
<totfact> 0.81317826E+03</totfact>
</mgrwt>
</event>
<event>
 5    1  0.3235144E-002  0.1249990E+03  0.7818608E-02  0.1235071E+00
          4   -1    0    0  501    0  0.00000000000E+00  0.00000000000E+00  0.27148984412E+02  0.27178672790E+02  0.12700000000E+01 0. -1.
         -4   -1    0    0    0  501 -0.00000000000E+00 -0.00000000000E+00 -0.14376857405E+03  0.14377418331E+03  0.12700000000E+01 0. -1.
         25    2    1    2    0    0  0.00000000000E+00  0.00000000000E+00 -0.11661958964E+03  0.17095285610E+03  0.12499900127E+03 0.  0.
    9000005    1    3    3    0    0  0.10325784806E+02  0.26926983736E+02 -0.13413029749E+03  0.13719920186E+03  0.10000000000E+01 0.  0.
    9000005    1    3    3    0    0 -0.10325784806E+02 -0.26926983736E+02  0.17510707852E+02  0.33753654238E+02  0.10000000000E+01 0.  0.
<mgrwt>
<rscale>  0 0.12499900E+03</rscale>
<asrwt>0</asrwt>
<pdfrwt beam="1">  1        4 0.41794821E-02 0.12499900E+03</pdfrwt>
<pdfrwt beam="2">  1       -4 0.22120957E-01 0.12499900E+03</pdfrwt>
<totfact> 0.95273470E+03</totfact>
</mgrwt>
</event>
<event>
 5    1  0.3235144E-002  0.1250192E+03  0.7818608E-02  0.1235039E+00
          4   -1    0    0  501    0  0.00000000000E+00  0.00000000000E+00  0.17407862206E+03  0.17408325468E+03  0.12700000000E+01 0. -1.
         -4   -1    0    0    0  501 -0.00000000000E+00 -0.00000000000E+00 -0.22423560854E+02  0.22459496463E+02  0.12700000000E+01 0. -1.
         25    2    1    2    0    0  0.00000000000E+00  0.00000000000E+00  0.15165506121E+03  0.19654275114E+03  0.12501918027E+03 0.  0.
    9000005    1    3    3    0    0 -0.28008069845E+02 -0.42032396293E+02  0.17952128088E+02  0.53613927458E+02  0.10000000000E+01 0.  0.
    9000005    1    3    3    0    0  0.28008069845E+02  0.42032396293E+02  0.13370293312E+03  0.14292882368E+03  0.10000000000E+01 0.  0.
<mgrwt>
<rscale>  0 0.12501918E+03</rscale>
<asrwt>0</asrwt>
<pdfrwt beam="1">  1        4 0.26784448E-01 0.12501918E+03</pdfrwt>
<pdfrwt beam="2">  1       -4 0.34528991E-02 0.12501918E+03</pdfrwt>
<totfact> 0.90682252E+03</totfact>
</mgrwt>
</event>
<event>
 5    1  0.3235144E-002  0.1249985E+03  0.7818608E-02  0.1235072E+00
          4   -1    0    0  501    0  0.00000000000E+00  0.00000000000E+00  0.29405543562E+03  0.29405817812E+03  0.12700000000E+01 0. -1.
         -4   -1    0    0    0  501 -0.00000000000E+00 -0.00000000000E+00 -0.13250567894E+02  0.13311290302E+02  0.12700000000E+01 0. -1.
         25    2    1    2    0    0  0.00000000000E+00  0.00000000000E+00  0.28080486773E+03  0.30736946842E+03  0.12499846550E+03 0.  0.
    9000005    1    3    3    0    0 -0.23839450332E+02  0.54335606270E+02  0.18861841375E+03  0.19773361755E+03  0.10000000000E+01 0.  0.
    9000005    1    3    3    0    0  0.23839450332E+02 -0.54335606270E+02  0.92186453973E+02  0.10963585087E+03  0.10000000000E+01 0.  0.
<mgrwt>
<rscale>  0 0.12499847E+03</rscale>
<asrwt>0</asrwt>
<pdfrwt beam="1">  1        4 0.45244182E-01 0.12499847E+03</pdfrwt>
<pdfrwt beam="2">  1       -4 0.20434307E-02 0.12499847E+03</pdfrwt>
<totfact> 0.74686168E+03</totfact>
</mgrwt>
</event>
<event>
 5    1  0.3235144E-002  0.1249866E+03  0.7818608E-02  0.1235090E+00
          4   -1    0    0  501    0  0.00000000000E+00  0.00000000000E+00  0.28847377996E+03  0.28847657553E+03  0.12700000000E+01 0.  1.
         -4   -1    0    0    0  501 -0.00000000000E+00 -0.00000000000E+00 -0.13505535300E+02  0.13565116429E+02  0.12700000000E+01 0.  1.
         25    2    1    2    0    0  0.00000000000E+00  0.00000000000E+00  0.27496824466E+03  0.30204169195E+03  0.12498659170E+03 0.  0.
    9000005    1    3    3    0    0 -0.12871830378E+02 -0.23972786047E+02  0.15514019993E+01  0.27272428133E+02  0.10000000000E+01 0.  0.
    9000005    1    3    3    0    0  0.12871830378E+02  0.23972786047E+02  0.27341684267E+03  0.27476926382E+03  0.10000000000E+01 0.  0.
<mgrwt>
<rscale>  0 0.12498659E+03</rscale>
<asrwt>0</asrwt>
<pdfrwt beam="1">  1        4 0.44385375E-01 0.12498659E+03</pdfrwt>
<pdfrwt beam="2">  1       -4 0.20825731E-02 0.12498659E+03</pdfrwt>
<totfact> 0.75365874E+03</totfact>
</mgrwt>
</event>
<event>
 5    1  0.3235144E-002  0.1250033E+03  0.7818608E-02  0.1235064E+00
          4   -1    0    0  501    0  0.00000000000E+00  0.00000000000E+00  0.89601339652E+02  0.89610339623E+02  0.12700000000E+01 0. -1.
         -4   -1    0    0    0  501 -0.00000000000E+00 -0.00000000000E+00 -0.43577716321E+02  0.43596218411E+02  0.12700000000E+01 0. -1.
         25    2    1    2    0    0  0.00000000000E+00  0.00000000000E+00  0.46023623331E+02  0.13320655803E+03  0.12500325275E+03 0.  0.
    9000005    1    3    3    0    0 -0.18845806076E+01 -0.30177931894E+02  0.81292757191E+02  0.86739677133E+02  0.10000000000E+01 0.  0.
    9000005    1    3    3    0    0  0.18845806076E+01  0.30177931894E+02 -0.35269133860E+02  0.46466880901E+02  0.10000000000E+01 0.  0.
<mgrwt>
<rscale>  0 0.12500325E+03</rscale>
<asrwt>0</asrwt>
<pdfrwt beam="1">  1        4 0.13786937E-01 0.12500325E+03</pdfrwt>
<pdfrwt beam="2">  1       -4 0.67063797E-02 0.12500325E+03</pdfrwt>
<totfact> 0.10275258E+04</totfact>
</mgrwt>
</event>
<event>
 5    1  0.3235144E-002  0.1249954E+03  0.7818608E-02  0.1235076E+00
          4   -1    0    0  501    0  0.00000000000E+00  0.00000000000E+00  0.52318166117E+02  0.52333578187E+02  0.12700000000E+01 0.  1.
         -4   -1    0    0    0  501 -0.00000000000E+00 -0.00000000000E+00 -0.74626094515E+02  0.74636900274E+02  0.12700000000E+01 0.  1.
         25    2    1    2    0    0  0.00000000000E+00  0.00000000000E+00 -0.22307928398E+02  0.12697047846E+03  0.12499543484E+03 0.  0.
    9000005    1    3    3    0    0 -0.32478676653E+02  0.48651678942E+02 -0.33481129488E+02  0.67407984192E+02  0.10000000000E+01 0.  0.
    9000005    1    3    3    0    0  0.32478676653E+02 -0.48651678942E+02  0.11173201090E+02  0.59562494270E+02  0.10000000000E+01 0.  0.
<mgrwt>
<rscale>  0 0.12499543E+03</rscale>
<asrwt>0</asrwt>
<pdfrwt beam="1">  1        4 0.80509654E-02 0.12499543E+03</pdfrwt>
<pdfrwt beam="2">  1       -4 0.11482954E-01 0.12499543E+03</pdfrwt>
<totfact> 0.10410860E+04</totfact>
</mgrwt>
</event>
<event>
 5    1  0.3235144E-002  0.1250017E+03  0.7818608E-02  0.1235067E+00
         -4   -1    0    0    0  501 -0.00000000000E+00  0.00000000000E+00  0.23066995075E+02  0.23101929828E+02  0.12700000000E+01 0.  1.
          4   -1    0    0  501    0  0.00000000000E+00 -0.00000000000E+00 -0.16918279278E+03  0.16918755945E+03  0.12700000000E+01 0.  1.
         25    2    1    2    0    0  0.00000000000E+00  0.00000000000E+00 -0.14611579770E+03  0.19228948928E+03  0.12500168538E+03 0.  0.
    9000005    1    3    3    0    0 -0.47425856522E+02 -0.12945799419E+02 -0.13240798505E+03  0.14124333646E+03  0.10000000000E+01 0.  0.
    9000005    1    3    3    0    0  0.47425856522E+02  0.12945799419E+02 -0.13707812649E+02  0.51046152814E+02  0.10000000000E+01 0.  0.
<mgrwt>
<rscale>  0 0.12500169E+03</rscale>
<asrwt>0</asrwt>
<pdfrwt beam="2">  1        4 0.26031175E-01 0.12500169E+03</pdfrwt>
<pdfrwt beam="1">  1       -4 0.35518225E-02 0.12500169E+03</pdfrwt>
<totfact> 0.91447019E+03</totfact>
</mgrwt>
</event>
<event>
 5    1  0.3235144E-002  0.1249951E+03  0.7818608E-02  0.1235077E+00
         -4   -1    0    0    0  501 -0.00000000000E+00  0.00000000000E+00  0.18952775437E+04  0.18952779692E+04  0.12700000000E+01 0. -1.
          4   -1    0    0  501    0  0.00000000000E+00 -0.00000000000E+00 -0.18647591798E+01  0.22561530973E+01  0.12700000000E+01 0. -1.
         25    2    1    2    0    0  0.00000000000E+00  0.00000000000E+00  0.18934127846E+04  0.18975341223E+04  0.12499509077E+03 0.  0.
    9000005    1    3    3    0    0  0.12467755173E+02 -0.60399600728E+02  0.79384891544E+03  0.79624158220E+03  0.10000000000E+01 0.  0.
    9000005    1    3    3    0    0 -0.12467755173E+02  0.60399600728E+02  0.10995638691E+04  0.11012925401E+04  0.10000000000E+01 0.  0.
<mgrwt>
<rscale>  0 0.12499509E+03</rscale>
<asrwt>0</asrwt>
<pdfrwt beam="2">  1        4 0.31702509E-03 0.12499509E+03</pdfrwt>
<pdfrwt beam="1">  1       -4 0.29161212E+00 0.12499509E+03</pdfrwt>
<totfact> 0.11259675E+03</totfact>
</mgrwt>
</event>
<event>
 5    1  0.3235144E-002  0.1250063E+03  0.7818608E-02  0.1235059E+00
         -4   -1    0    0    0  501 -0.00000000000E+00  0.00000000000E+00  0.26171290432E+03  0.26171598573E+03  0.12700000000E+01 0. -1.
          4   -1    0    0  501    0  0.00000000000E+00 -0.00000000000E+00 -0.14897030158E+02  0.14951067104E+02  0.12700000000E+01 0. -1.
         25    2    1    2    0    0  0.00000000000E+00  0.00000000000E+00  0.24681587416E+03  0.27666705283E+03  0.12500632939E+03 0.  0.
    9000005    1    3    3    0    0  0.21383212876E+02 -0.11002355219E+01 -0.65366694519E+01  0.22409381041E+02  0.10000000000E+01 0.  0.
    9000005    1    3    3    0    0 -0.21383212876E+02  0.11002355219E+01  0.25335254361E+03  0.25425767179E+03  0.10000000000E+01 0.  0.
<mgrwt>
<rscale>  0 0.12500633E+03</rscale>
<asrwt>0</asrwt>
<pdfrwt beam="2">  1        4 0.22962445E-02 0.12500633E+03</pdfrwt>
<pdfrwt beam="1">  1       -4 0.40267917E-01 0.12500633E+03</pdfrwt>
<totfact> 0.78611051E+03</totfact>
</mgrwt>
</event>
<event>
 5    1  0.3235144E-002  0.1249986E+03  0.7818608E-02  0.1235071E+00
          4   -1    0    0  501    0  0.00000000000E+00  0.00000000000E+00  0.19060706553E+02  0.19102969254E+02  0.12700000000E+01 0. -1.
         -4   -1    0    0    0  501 -0.00000000000E+00 -0.00000000000E+00 -0.20466155974E+03  0.20466550011E+03  0.12700000000E+01 0. -1.
         25    2    1    2    0    0  0.00000000000E+00  0.00000000000E+00 -0.18560085319E+03  0.22376846937E+03  0.12499860470E+03 0.  0.
    9000005    1    3    3    0    0  0.34830157164E+02  0.41970782449E+02 -0.38193667811E+02  0.66591611246E+02  0.10000000000E+01 0.  0.
    9000005    1    3    3    0    0 -0.34830157164E+02 -0.41970782449E+02 -0.14740718538E+03  0.15717685812E+03  0.10000000000E+01 0.  0.
<mgrwt>
<rscale>  0 0.12499860E+03</rscale>
<asrwt>0</asrwt>
<pdfrwt beam="1">  1        4 0.29359706E-02 0.12499860E+03</pdfrwt>
<pdfrwt beam="2">  1       -4 0.31489946E-01 0.12499860E+03</pdfrwt>
<totfact> 0.86278218E+03</totfact>
</mgrwt>
</event>
<event>
 5    1  0.3235144E-002  0.1249987E+03  0.7818608E-02  0.1235071E+00
         -4   -1    0    0    0  501 -0.00000000000E+00  0.00000000000E+00  0.15401912240E+03  0.15402435835E+03  0.12700000000E+01 0.  1.
          4   -1    0    0  501    0  0.00000000000E+00 -0.00000000000E+00 -0.25340015213E+02  0.25371820411E+02  0.12700000000E+01 0.  1.
         25    2    1    2    0    0  0.00000000000E+00  0.00000000000E+00  0.12867910719E+03  0.17939617876E+03  0.12499870530E+03 0.  0.
    9000005    1    3    3    0    0  0.23831642909E+02 -0.45482902983E+01 -0.18311798275E+02  0.30413091005E+02  0.10000000000E+01 0.  0.
    9000005    1    3    3    0    0 -0.23831642909E+02  0.45482902983E+01  0.14699090547E+03  0.14898308776E+03  0.10000000000E+01 0.  0.
<mgrwt>
<rscale>  0 0.12499871E+03</rscale>
<asrwt>0</asrwt>
<pdfrwt beam="2">  1        4 0.39013131E-02 0.12499871E+03</pdfrwt>
<pdfrwt beam="1">  1       -4 0.23698099E-01 0.12499871E+03</pdfrwt>
<totfact> 0.93728526E+03</totfact>
</mgrwt>
</event>
<event>
 5    1  0.3235144E-002  0.1250025E+03  0.7818608E-02  0.1235065E+00
         -4   -1    0    0    0  501 -0.00000000000E+00  0.00000000000E+00  0.22317177045E+03  0.22317538401E+03  0.12700000000E+01 0.  1.
          4   -1    0    0  501    0  0.00000000000E+00 -0.00000000000E+00 -0.17477233663E+02  0.17523315797E+02  0.12700000000E+01 0.  1.
         25    2    1    2    0    0  0.00000000000E+00  0.00000000000E+00  0.20569453679E+03  0.24069869981E+03  0.12500248647E+03 0.  0.
    9000005    1    3    3    0    0  0.61795540165E+02 -0.72571192054E+01  0.91611079773E+02  0.11074720990E+03  0.10000000000E+01 0.  0.
    9000005    1    3    3    0    0 -0.61795540165E+02  0.72571192054E+01  0.11408345702E+03  0.12995148991E+03  0.10000000000E+01 0.  0.
<mgrwt>
<rscale>  0 0.12500249E+03</rscale>
<asrwt>0</asrwt>
<pdfrwt beam="2">  1        4 0.26926280E-02 0.12500249E+03</pdfrwt>
<pdfrwt beam="1">  1       -4 0.34337941E-01 0.12500249E+03</pdfrwt>
<totfact> 0.83688779E+03</totfact>
</mgrwt>
</event>
<event>
 5    1  0.3235144E-002  0.1249996E+03  0.7818608E-02  0.1235070E+00
          4   -1    0    0  501    0  0.00000000000E+00  0.00000000000E+00  0.66922391037E+02  0.66934440478E+02  0.12700000000E+01 0.  1.
         -4   -1    0    0    0  501 -0.00000000000E+00 -0.00000000000E+00 -0.58345217441E+02  0.58359037845E+02  0.12700000000E+01 0.  1.
         25    2    1    2    0    0  0.00000000000E+00  0.00000000000E+00  0.85771735963E+01  0.12529347832E+03  0.12499955121E+03 0.  0.
    9000005    1    3    3    0    0  0.70843301316E+01 -0.41286072769E+02 -0.42193880406E+02  0.59464704504E+02  0.10000000000E+01 0.  0.
    9000005    1    3    3    0    0 -0.70843301316E+01  0.41286072769E+02  0.50771054002E+02  0.65828773819E+02  0.10000000000E+01 0.  0.
<mgrwt>
<rscale>  0 0.12499955E+03</rscale>
<asrwt>0</asrwt>
<pdfrwt beam="1">  1        4 0.10297742E-01 0.12499955E+03</pdfrwt>
<pdfrwt beam="2">  1       -4 0.89781773E-02 0.12499955E+03</pdfrwt>
<totfact> 0.10446597E+04</totfact>
</mgrwt>
</event>
<event>
 5    1  0.3235144E-002  0.1249995E+03  0.7818608E-02  0.1235070E+00
          4   -1    0    0  501    0  0.00000000000E+00  0.00000000000E+00  0.19487016739E+02  0.19528356853E+02  0.12700000000E+01 0. -1.
         -4   -1    0    0    0  501 -0.00000000000E+00 -0.00000000000E+00 -0.20019659530E+03  0.20020062355E+03  0.12700000000E+01 0. -1.
         25    2    1    2    0    0  0.00000000000E+00  0.00000000000E+00 -0.18070957856E+03  0.21972898041E+03  0.12499949218E+03 0.  0.
    9000005    1    3    3    0    0 -0.35711030590E+02 -0.10223443389E+02 -0.17869248184E+03  0.18251520366E+03  0.10000000000E+01 0.  0.
    9000005    1    3    3    0    0  0.35711030590E+02  0.10223443389E+02 -0.20170967236E+01  0.37213776746E+02  0.10000000000E+01 0.  0.
<mgrwt>
<rscale>  0 0.12499949E+03</rscale>
<asrwt>0</asrwt>
<pdfrwt beam="1">  1        4 0.30014926E-02 0.12499949E+03</pdfrwt>
<pdfrwt beam="2">  1       -4 0.30802965E-01 0.12499949E+03</pdfrwt>
<totfact> 0.86912240E+03</totfact>
</mgrwt>
</event>
<event>
 5    1  0.3235144E-002  0.1250029E+03  0.7818608E-02  0.1235065E+00
          4   -1    0    0  501    0  0.00000000000E+00  0.00000000000E+00  0.17349865791E+02  0.17396285321E+02  0.12700000000E+01 0.  1.
         -4   -1    0    0    0  501 -0.00000000000E+00 -0.00000000000E+00 -0.22480711036E+03  0.22481069763E+03  0.12700000000E+01 0.  1.
         25    2    1    2    0    0  0.00000000000E+00  0.00000000000E+00 -0.20745724457E+03  0.24220698295E+03  0.12500285703E+03 0.  0.
    9000005    1    3    3    0    0 -0.44263422599E+02  0.31448420254E+02 -0.16367491915E+03  0.17244921825E+03  0.10000000000E+01 0.  0.
    9000005    1    3    3    0    0  0.44263422599E+02 -0.31448420254E+02 -0.43782325421E+02  0.69757764700E+02  0.10000000000E+01 0.  0.
<mgrwt>
<rscale>  0 0.12500286E+03</rscale>
<asrwt>0</asrwt>
<pdfrwt beam="1">  1        4 0.26730570E-02 0.12500286E+03</pdfrwt>
<pdfrwt beam="2">  1       -4 0.34589554E-01 0.12500286E+03</pdfrwt>
<totfact> 0.83464456E+03</totfact>
</mgrwt>
</event>
<event>
 5    1  0.3235144E-002  0.1249986E+03  0.7818608E-02  0.1235072E+00
          4   -1    0    0  501    0  0.00000000000E+00  0.00000000000E+00  0.10166442332E+02  0.10245459955E+02  0.12700000000E+01 0.  1.
         -4   -1    0    0    0  501 -0.00000000000E+00 -0.00000000000E+00 -0.38265349891E+03  0.38265560643E+03  0.12700000000E+01 0.  1.
         25    2    1    2    0    0  0.00000000000E+00  0.00000000000E+00 -0.37248705658E+03  0.39290106638E+03  0.12499856257E+03 0.  0.
    9000005    1    3    3    0    0 -0.33330512270E+02 -0.52159682969E+02 -0.15927665315E+03  0.17088477935E+03  0.10000000000E+01 0.  0.
    9000005    1    3    3    0    0  0.33330512270E+02  0.52159682969E+02 -0.21321040343E+03  0.22201628703E+03  0.10000000000E+01 0.  0.
<mgrwt>
<rscale>  0 0.12499856E+03</rscale>
<asrwt>0</asrwt>
<pdfrwt beam="1">  1        4 0.15703087E-02 0.12499856E+03</pdfrwt>
<pdfrwt beam="2">  1       -4 0.58875998E-01 0.12499856E+03</pdfrwt>
<totfact> 0.65251205E+03</totfact>
</mgrwt>
</event>
<event>
 5    1  0.3235144E-002  0.1250010E+03  0.7818608E-02  0.1235068E+00
         -4   -1    0    0    0  501 -0.00000000000E+00  0.00000000000E+00  0.89889070764E+03  0.89889160481E+03  0.12700000000E+01 0. -1.
          4   -1    0    0  501    0  0.00000000000E+00 -0.00000000000E+00 -0.42520004443E+01  0.44376128468E+01  0.12700000000E+01 0. -1.
         25    2    1    2    0    0  0.00000000000E+00  0.00000000000E+00  0.89463870720E+03  0.90332921765E+03  0.12500103617E+03 0.  0.
    9000005    1    3    3    0    0 -0.51883147856E+02  0.32616117233E+02  0.35891775780E+03  0.36411348368E+03  0.10000000000E+01 0.  0.
    9000005    1    3    3    0    0  0.51883147856E+02 -0.32616117233E+02  0.53572094940E+03  0.53921573397E+03  0.10000000000E+01 0.  0.
<mgrwt>
<rscale>  0 0.12500104E+03</rscale>
<asrwt>0</asrwt>
<pdfrwt beam="2">  1        4 0.66850057E-03 0.12500104E+03</pdfrwt>
<pdfrwt beam="1">  1       -4 0.13830527E+00 0.12500104E+03</pdfrwt>
<totfact> 0.34031975E+03</totfact>
</mgrwt>
</event>
<event>
 5    1  0.3235144E-002  0.1250057E+03  0.7818608E-02  0.1235060E+00
          4   -1    0    0  501    0  0.00000000000E+00  0.00000000000E+00  0.11150613893E+03  0.11151337103E+03  0.12700000000E+01 0.  1.
         -4   -1    0    0    0  501 -0.00000000000E+00 -0.00000000000E+00 -0.35015033006E+02  0.35038056972E+02  0.12700000000E+01 0.  1.
         25    2    1    2    0    0  0.00000000000E+00  0.00000000000E+00  0.76491105923E+02  0.14655142800E+03  0.12500572693E+03 0.  0.
    9000005    1    3    3    0    0  0.86808388362E+01  0.86762282333E+01 -0.33593998845E+02  0.35779752062E+02  0.10000000000E+01 0.  0.
    9000005    1    3    3    0    0 -0.86808388362E+01 -0.86762282333E+01  0.11008510477E+03  0.11077167594E+03  0.10000000000E+01 0.  0.
<mgrwt>
<rscale>  0 0.12500573E+03</rscale>
<asrwt>0</asrwt>
<pdfrwt beam="1">  1        4 0.17157118E-01 0.12500573E+03</pdfrwt>
<pdfrwt beam="2">  1       -4 0.53892554E-02 0.12500573E+03</pdfrwt>
<totfact> 0.99982724E+03</totfact>
</mgrwt>
</event>
<event>
 5    1  0.3235144E-002  0.1250049E+03  0.7818608E-02  0.1235062E+00
         -4   -1    0    0    0  501 -0.00000000000E+00  0.00000000000E+00  0.10277347037E+02  0.10355518438E+02  0.12700000000E+01 0. -1.
          4   -1    0    0  501    0  0.00000000000E+00 -0.00000000000E+00 -0.37859405228E+03  0.37859618239E+03  0.12700000000E+01 0. -1.
         25    2    1    2    0    0  0.00000000000E+00  0.00000000000E+00 -0.36831670524E+03  0.38895170083E+03  0.12500492077E+03 0.  0.
    9000005    1    3    3    0    0 -0.47885399967E+02 -0.37012547529E+02 -0.23262349500E+03  0.24036977895E+03  0.10000000000E+01 0.  0.
    9000005    1    3    3    0    0  0.47885399967E+02  0.37012547529E+02 -0.13569321024E+03  0.14858192188E+03  0.10000000000E+01 0.  0.
<mgrwt>
<rscale>  0 0.12500492E+03</rscale>
<asrwt>0</asrwt>
<pdfrwt beam="2">  1        4 0.58251405E-01 0.12500492E+03</pdfrwt>
<pdfrwt beam="1">  1       -4 0.15873077E-02 0.12500492E+03</pdfrwt>
<totfact> 0.65634578E+03</totfact>
</mgrwt>
</event>
<event>
 5    1  0.3235144E-002  0.1249992E+03  0.7818608E-02  0.1235071E+00
          4   -1    0    0  501    0  0.00000000000E+00  0.00000000000E+00  0.17317486342E+01  0.21475226034E+01  0.12700000000E+01 0.  1.
         -4   -1    0    0    0  501 -0.00000000000E+00 -0.00000000000E+00 -0.20134664793E+04  0.20134668798E+04  0.12700000000E+01 0.  1.
         25    2    1    2    0    0  0.00000000000E+00  0.00000000000E+00 -0.20117347306E+04  0.20156144024E+04  0.12499917088E+03 0.  0.
    9000005    1    3    3    0    0  0.14021039887E+02 -0.60300605740E+02 -0.11431154310E+04  0.11447910907E+04  0.10000000000E+01 0.  0.
    9000005    1    3    3    0    0 -0.14021039887E+02  0.60300605740E+02 -0.86861929962E+03  0.87082331174E+03  0.10000000000E+01 0.  0.
<mgrwt>
<rscale>  0 0.12499917E+03</rscale>
<asrwt>0</asrwt>
<pdfrwt beam="1">  1        4 0.29843790E-03 0.12499917E+03</pdfrwt>
<pdfrwt beam="2">  1       -4 0.30979442E+00 0.12499917E+03</pdfrwt>
<totfact> 0.96590720E+02</totfact>
</mgrwt>
</event>
<event>
 5    1  0.3235144E-002  0.1249985E+03  0.7818608E-02  0.1235072E+00
         -4   -1    0    0    0  501 -0.00000000000E+00  0.00000000000E+00  0.53745666369E+02  0.53760669206E+02  0.12700000000E+01 0. -1.
          4   -1    0    0  501    0  0.00000000000E+00 -0.00000000000E+00 -0.72647884016E+02  0.72658983973E+02  0.12700000000E+01 0. -1.
         25    2    1    2    0    0  0.00000000000E+00  0.00000000000E+00 -0.18902217647E+02  0.12641965318E+03  0.12499853950E+03 0.  0.
    9000005    1    3    3    0    0  0.92827265186E+01  0.67349837048E+01 -0.71579383983E+02  0.72499222262E+02  0.10000000000E+01 0.  0.
    9000005    1    3    3    0    0 -0.92827265186E+01 -0.67349837048E+01  0.52677166336E+02  0.53920430918E+02  0.10000000000E+01 0.  0.
<mgrwt>
<rscale>  0 0.12499854E+03</rscale>
<asrwt>0</asrwt>
<pdfrwt beam="2">  1        4 0.11178605E-01 0.12499854E+03</pdfrwt>
<pdfrwt beam="1">  1       -4 0.82705720E-02 0.12499854E+03</pdfrwt>
<totfact> 0.10422124E+04</totfact>
</mgrwt>
</event>
<event>
 5    1  0.3235144E-002  0.1250087E+03  0.7818608E-02  0.1235056E+00
          4   -1    0    0  501    0  0.00000000000E+00  0.00000000000E+00  0.79262898310E+02  0.79273072026E+02  0.12700000000E+01 0.  1.
         -4   -1    0    0    0  501 -0.00000000000E+00 -0.00000000000E+00 -0.49267575020E+02  0.49283941080E+02  0.12700000000E+01 0.  1.
         25    2    1    2    0    0  0.00000000000E+00  0.00000000000E+00  0.29995323290E+02  0.12855701311E+03  0.12500874449E+03 0.  0.
    9000005    1    3    3    0    0 -0.13586680431E+02 -0.16781539120E+02 -0.45314931273E+02  0.50206184247E+02  0.10000000000E+01 0.  0.
    9000005    1    3    3    0    0  0.13586680431E+02  0.16781539120E+02  0.75310254563E+02  0.78350828858E+02  0.10000000000E+01 0.  0.
<mgrwt>
<rscale>  0 0.12500874E+03</rscale>
<asrwt>0</asrwt>
<pdfrwt beam="1">  1        4 0.12196334E-01 0.12500874E+03</pdfrwt>
<pdfrwt beam="2">  1       -4 0.75816684E-02 0.12500874E+03</pdfrwt>
<totfact> 0.10373428E+04</totfact>
</mgrwt>
</event>
<event>
 5    1  0.3235144E-002  0.1249961E+03  0.7818608E-02  0.1235075E+00
         -4   -1    0    0    0  501 -0.00000000000E+00  0.00000000000E+00  0.18737225642E+03  0.18737656037E+03  0.12700000000E+01 0.  1.
          4   -1    0    0  501    0  0.00000000000E+00 -0.00000000000E+00 -0.20822346273E+02  0.20861040346E+02  0.12700000000E+01 0.  1.
         25    2    1    2    0    0  0.00000000000E+00  0.00000000000E+00  0.16654991014E+03  0.20823760071E+03  0.12499610307E+03 0.  0.
    9000005    1    3    3    0    0 -0.44593654771E+01 -0.50158883588E+02  0.21630045811E+02  0.54814764663E+02  0.10000000000E+01 0.  0.
    9000005    1    3    3    0    0  0.44593654771E+01  0.50158883588E+02  0.14491986433E+03  0.15342283605E+03  0.10000000000E+01 0.  0.
<mgrwt>
<rscale>  0 0.12499610E+03</rscale>
<asrwt>0</asrwt>
<pdfrwt beam="2">  1        4 0.32067456E-02 0.12499610E+03</pdfrwt>
<pdfrwt beam="1">  1       -4 0.28829807E-01 0.12499610E+03</pdfrwt>
<totfact> 0.88772251E+03</totfact>
</mgrwt>
</event>
<event>
 5    1  0.3235144E-002  0.1249989E+03  0.7818608E-02  0.1235071E+00
          4   -1    0    0  501    0  0.00000000000E+00  0.00000000000E+00  0.55156382179E+02  0.55171001396E+02  0.12700000000E+01 0. -1.
         -4   -1    0    0    0  501 -0.00000000000E+00 -0.00000000000E+00 -0.70790376645E+02  0.70801767814E+02  0.12700000000E+01 0. -1.
         25    2    1    2    0    0  0.00000000000E+00  0.00000000000E+00 -0.15633994466E+02  0.12597276921E+03  0.12499886719E+03 0.  0.
    9000005    1    3    3    0    0 -0.24699329610E+02 -0.61264375713E+01 -0.65336980280E+02  0.70124967826E+02  0.10000000000E+01 0.  0.
    9000005    1    3    3    0    0  0.24699329610E+02  0.61264375713E+01  0.49702985814E+02  0.55847801383E+02  0.10000000000E+01 0.  0.
<mgrwt>
<rscale>  0 0.12499887E+03</rscale>
<asrwt>0</asrwt>
<pdfrwt beam="1">  1        4 0.84875981E-02 0.12499887E+03</pdfrwt>
<pdfrwt beam="2">  1       -4 0.10892828E-01 0.12499887E+03</pdfrwt>
<totfact> 0.10431820E+04</totfact>
</mgrwt>
</event>
<event>
 5    1  0.3235144E-002  0.1250000E+03  0.7818608E-02  0.1235069E+00
          4   -1    0    0  501    0  0.00000000000E+00  0.00000000000E+00  0.31078105474E+02  0.31104043786E+02  0.12700000000E+01 0.  1.
         -4   -1    0    0    0  501 -0.00000000000E+00 -0.00000000000E+00 -0.12560983782E+03  0.12561625794E+03  0.12700000000E+01 0.  1.
         25    2    1    2    0    0  0.00000000000E+00  0.00000000000E+00 -0.94531732351E+02  0.15672030172E+03  0.12500001820E+03 0.  0.
    9000005    1    3    3    0    0  0.62444313804E+02 -0.17968299119E+01 -0.49337502400E+02  0.79609736008E+02  0.10000000000E+01 0.  0.
    9000005    1    3    3    0    0 -0.62444313804E+02  0.17968299119E+01 -0.45194229951E+02  0.77110565716E+02  0.10000000000E+01 0.  0.
<mgrwt>
<rscale>  0 0.12500002E+03</rscale>
<asrwt>0</asrwt>
<pdfrwt beam="1">  1        4 0.47837362E-02 0.12500002E+03</pdfrwt>
<pdfrwt beam="2">  1       -4 0.19327079E-01 0.12500002E+03</pdfrwt>
<totfact> 0.97978797E+03</totfact>
</mgrwt>
</event>
<event>
 5    1  0.3235144E-002  0.1250009E+03  0.7818608E-02  0.1235068E+00
         -4   -1    0    0    0  501 -0.00000000000E+00  0.00000000000E+00  0.84493059778E+02  0.84502603809E+02  0.12700000000E+01 0.  1.
          4   -1    0    0  501    0  0.00000000000E+00 -0.00000000000E+00 -0.46211408493E+02  0.46228856517E+02  0.12700000000E+01 0.  1.
         25    2    1    2    0    0  0.00000000000E+00  0.00000000000E+00  0.38281651285E+02  0.13073146033E+03  0.12500091957E+03 0.  0.
    9000005    1    3    3    0    0 -0.54981362489E+02 -0.22619421646E+02 -0.99592243544E+00  0.59469154343E+02  0.10000000000E+01 0.  0.
    9000005    1    3    3    0    0  0.54981362489E+02  0.22619421646E+02  0.39277573720E+02  0.71262305984E+02  0.10000000000E+01 0.  0.
<mgrwt>
<rscale>  0 0.12500092E+03</rscale>
<asrwt>0</asrwt>
<pdfrwt beam="2">  1        4 0.71115239E-02 0.12500092E+03</pdfrwt>
<pdfrwt beam="1">  1       -4 0.13001008E-01 0.12500092E+03</pdfrwt>
<totfact> 0.10328635E+04</totfact>
</mgrwt>
</event>
<event>
 5    1  0.3235144E-002  0.1249979E+03  0.7818608E-02  0.1235073E+00
         -4   -1    0    0    0  501 -0.00000000000E+00  0.00000000000E+00  0.82566473115E+02  0.82576239819E+02  0.12700000000E+01 0. -1.
          4   -1    0    0  501    0  0.00000000000E+00 -0.00000000000E+00 -0.47287709440E+02  0.47304760481E+02  0.12700000000E+01 0. -1.
         25    2    1    2    0    0  0.00000000000E+00  0.00000000000E+00  0.35278763675E+02  0.12988100030E+03  0.12499793227E+03 0.  0.
    9000005    1    3    3    0    0  0.44500278135E+02 -0.40707434795E+02  0.34641700719E+02  0.69558733674E+02  0.10000000000E+01 0.  0.
    9000005    1    3    3    0    0 -0.44500278135E+02  0.40707434795E+02  0.63706295584E+00  0.60322266626E+02  0.10000000000E+01 0.  0.
<mgrwt>
<rscale>  0 0.12499793E+03</rscale>
<asrwt>0</asrwt>
<pdfrwt beam="2">  1        4 0.72770952E-02 0.12499793E+03</pdfrwt>
<pdfrwt beam="1">  1       -4 0.12704597E-01 0.12499793E+03</pdfrwt>
<totfact> 0.10347537E+04</totfact>
</mgrwt>
</event>
<event>
 5    1  0.3235144E-002  0.1249975E+03  0.7818608E-02  0.1235073E+00
         -4   -1    0    0    0  501 -0.00000000000E+00  0.00000000000E+00  0.24494214691E+04  0.24494217983E+04  0.12700000000E+01 0.  1.
          4   -1    0    0  501    0  0.00000000000E+00 -0.00000000000E+00 -0.13414652080E+01  0.18472760769E+01  0.12700000000E+01 0.  1.
         25    2    1    2    0    0  0.00000000000E+00  0.00000000000E+00  0.24480800039E+04  0.24512690744E+04  0.12499747894E+03 0.  0.
    9000005    1    3    3    0    0 -0.19908515754E+02 -0.29804434615E+02  0.22279083678E+04  0.22281968828E+04  0.10000000000E+01 0.  0.
    9000005    1    3    3    0    0  0.19908515754E+02  0.29804434615E+02  0.22017163611E+03  0.22307219161E+03  0.10000000000E+01 0.  0.
<mgrwt>
<rscale>  0 0.12499748E+03</rscale>
<asrwt>0</asrwt>
<pdfrwt beam="2">  1        4 0.24531250E-03 0.12499748E+03</pdfrwt>
<pdfrwt beam="1">  1       -4 0.37687396E+00 0.12499748E+03</pdfrwt>
<totfact> 0.50638433E+02</totfact>
</mgrwt>
</event>
<event>
 5    1  0.3235144E-002  0.1250022E+03  0.7818608E-02  0.1235066E+00
         -4   -1    0    0    0  501 -0.00000000000E+00  0.00000000000E+00  0.45538665883E+02  0.45556371567E+02  0.12700000000E+01 0.  1.
          4   -1    0    0  501    0  0.00000000000E+00 -0.00000000000E+00 -0.85742707917E+02  0.85752112865E+02  0.12700000000E+01 0.  1.
         25    2    1    2    0    0  0.00000000000E+00  0.00000000000E+00 -0.40204042034E+02  0.13130848443E+03  0.12500221233E+03 0.  0.
    9000005    1    3    3    0    0  0.68066451561E+00 -0.55611716719E+02  0.98360034567E+01  0.56487815541E+02  0.10000000000E+01 0.  0.
    9000005    1    3    3    0    0 -0.68066451561E+00  0.55611716719E+02 -0.50040045491E+02  0.74820668891E+02  0.10000000000E+01 0.  0.
<mgrwt>
<rscale>  0 0.12500221E+03</rscale>
<asrwt>0</asrwt>
<pdfrwt beam="2">  1        4 0.13193271E-01 0.12500221E+03</pdfrwt>
<pdfrwt beam="1">  1       -4 0.70080340E-02 0.12500221E+03</pdfrwt>
<totfact> 0.10315966E+04</totfact>
</mgrwt>
</event>
<event>
 5    1  0.3235144E-002  0.1250019E+03  0.7818608E-02  0.1235066E+00
          4   -1    0    0  501    0  0.00000000000E+00  0.00000000000E+00  0.15666488027E+02  0.15717879854E+02  0.12700000000E+01 0. -1.
         -4   -1    0    0    0  501 -0.00000000000E+00 -0.00000000000E+00 -0.24888403779E+03  0.24888727804E+03  0.12700000000E+01 0. -1.
         25    2    1    2    0    0  0.00000000000E+00  0.00000000000E+00 -0.23321754977E+03  0.26460515789E+03  0.12500185624E+03 0.  0.
    9000005    1    3    3    0    0  0.12608508042E+02 -0.43593704486E+02 -0.20755724423E+03  0.21246269126E+03  0.10000000000E+01 0.  0.
    9000005    1    3    3    0    0 -0.12608508042E+02  0.43593704486E+02 -0.25660305536E+02  0.52142466628E+02  0.10000000000E+01 0.  0.
<mgrwt>
<rscale>  0 0.12500186E+03</rscale>
<asrwt>0</asrwt>
<pdfrwt beam="1">  1        4 0.24144316E-02 0.12500186E+03</pdfrwt>
<pdfrwt beam="2">  1       -4 0.38294052E-01 0.12500186E+03</pdfrwt>
<totfact> 0.80260791E+03</totfact>
</mgrwt>
</event>
<event>
 5    1  0.3235144E-002  0.1249970E+03  0.7818608E-02  0.1235074E+00
         -4   -1    0    0    0  501 -0.00000000000E+00  0.00000000000E+00  0.60742626126E+02  0.60755901184E+02  0.12700000000E+01 0. -1.
          4   -1    0    0  501    0  0.00000000000E+00 -0.00000000000E+00 -0.64278543379E+02  0.64291088332E+02  0.12700000000E+01 0. -1.
         25    2    1    2    0    0  0.00000000000E+00  0.00000000000E+00 -0.35359172527E+01  0.12504698952E+03  0.12499698747E+03 0.  0.
    9000005    1    3    3    0    0 -0.65192874205E+01 -0.59754565006E+02 -0.18861413380E+02  0.63006841393E+02  0.10000000000E+01 0.  0.
    9000005    1    3    3    0    0  0.65192874205E+01  0.59754565006E+02  0.15325496128E+02  0.62040148123E+02  0.10000000000E+01 0.  0.
<mgrwt>
<rscale>  0 0.12499699E+03</rscale>
<asrwt>0</asrwt>
<pdfrwt beam="2">  1        4 0.98909928E-02 0.12499699E+03</pdfrwt>
<pdfrwt beam="1">  1       -4 0.93470056E-02 0.12499699E+03</pdfrwt>
<totfact> 0.10452554E+04</totfact>
</mgrwt>
</event>
<event>
 5    1  0.3235144E-002  0.1249993E+03  0.7818608E-02  0.1235070E+00
         -4   -1    0    0    0  501 -0.00000000000E+00  0.00000000000E+00  0.43815075524E+03  0.43815259582E+03  0.12700000000E+01 0. -1.
          4   -1    0    0  501    0  0.00000000000E+00 -0.00000000000E+00 -0.88681059098E+01  0.89585826126E+01  0.12700000000E+01 0. -1.
         25    2    1    2    0    0  0.00000000000E+00  0.00000000000E+00  0.42928264933E+03  0.44711117843E+03  0.12499925143E+03 0.  0.
    9000005    1    3    3    0    0 -0.13522297473E+02 -0.58678450285E+02  0.27440787198E+03  0.28093894935E+03  0.10000000000E+01 0.  0.
    9000005    1    3    3    0    0  0.13522297473E+02  0.58678450285E+02  0.15487477735E+03  0.16617222908E+03  0.10000000000E+01 0.  0.
<mgrwt>
<rscale>  0 0.12499925E+03</rscale>
<asrwt>0</asrwt>
<pdfrwt beam="2">  1        4 0.13714250E-02 0.12499925E+03</pdfrwt>
<pdfrwt beam="1">  1       -4 0.67414927E-01 0.12499925E+03</pdfrwt>
<totfact> 0.60215854E+03</totfact>
</mgrwt>
</event>
<event>
 5    1  0.3235144E-002  0.1250039E+03  0.7818608E-02  0.1235063E+00
         -4   -1    0    0    0  501 -0.00000000000E+00  0.00000000000E+00  0.30836910746E+03  0.30837172266E+03  0.12700000000E+01 0. -1.
          4   -1    0    0  501    0  0.00000000000E+00 -0.00000000000E+00 -0.12633734678E+02  0.12697407291E+02  0.12700000000E+01 0. -1.
         25    2    1    2    0    0  0.00000000000E+00  0.00000000000E+00  0.29573537279E+03  0.32106912995E+03  0.12500390191E+03 0.  0.
    9000005    1    3    3    0    0 -0.53853791682E+02 -0.31634657544E+02  0.14241221342E+03  0.15550955266E+03  0.10000000000E+01 0.  0.
    9000005    1    3    3    0    0  0.53853791682E+02  0.31634657544E+02  0.15332315936E+03  0.16555957729E+03  0.10000000000E+01 0.  0.
<mgrwt>
<rscale>  0 0.12500390E+03</rscale>
<asrwt>0</asrwt>
<pdfrwt beam="2">  1        4 0.19487504E-02 0.12500390E+03</pdfrwt>
<pdfrwt beam="1">  1       -4 0.47446503E-01 0.12500390E+03</pdfrwt>
<totfact> 0.73022827E+03</totfact>
</mgrwt>
</event>
<event>
 5    1  0.3235144E-002  0.1249972E+03  0.7818608E-02  0.1235074E+00
         -4   -1    0    0    0  501 -0.00000000000E+00  0.00000000000E+00  0.72651587419E+02  0.72662686811E+02  0.12700000000E+01 0.  1.
          4   -1    0    0  501    0  0.00000000000E+00 -0.00000000000E+00 -0.53741753805E+02  0.53756757733E+02  0.12700000000E+01 0.  1.
         25    2    1    2    0    0  0.00000000000E+00  0.00000000000E+00  0.18909833614E+02  0.12641944454E+03  0.12499717657E+03 0.  0.
    9000005    1    3    3    0    0  0.54946109992E+01 -0.28590102265E+02  0.65378644813E+02  0.71574799302E+02  0.10000000000E+01 0.  0.
    9000005    1    3    3    0    0 -0.54946109992E+01  0.28590102265E+02 -0.46468811198E+02  0.54844645242E+02  0.10000000000E+01 0.  0.
<mgrwt>
<rscale>  0 0.12499718E+03</rscale>
<asrwt>0</asrwt>
<pdfrwt beam="2">  1        4 0.82699700E-02 0.12499718E+03</pdfrwt>
<pdfrwt beam="1">  1       -4 0.11179175E-01 0.12499718E+03</pdfrwt>
<totfact> 0.10422449E+04</totfact>
</mgrwt>
</event>
<event>
 5    1  0.3235144E-002  0.1250068E+03  0.7818608E-02  0.1235059E+00
          4   -1    0    0  501    0  0.00000000000E+00  0.00000000000E+00  0.94991338601E+02  0.94999827943E+02  0.12700000000E+01 0.  1.
         -4   -1    0    0    0  501 -0.00000000000E+00 -0.00000000000E+00 -0.41106532389E+02  0.41126146246E+02  0.12700000000E+01 0.  1.
         25    2    1    2    0    0  0.00000000000E+00  0.00000000000E+00  0.53884806211E+02  0.13612597419E+03  0.12500683385E+03 0.  0.
    9000005    1    3    3    0    0 -0.13151464856E+02 -0.31239797661E+02  0.84117798615E+02  0.90695589913E+02  0.10000000000E+01 0.  0.
    9000005    1    3    3    0    0  0.13151464856E+02  0.31239797661E+02 -0.30232992404E+02  0.45430384276E+02  0.10000000000E+01 0.  0.
<mgrwt>
<rscale>  0 0.12500683E+03</rscale>
<asrwt>0</asrwt>
<pdfrwt beam="1">  1        4 0.14616214E-01 0.12500683E+03</pdfrwt>
<pdfrwt beam="2">  1       -4 0.63262437E-02 0.12500683E+03</pdfrwt>
<totfact> 0.10212819E+04</totfact>
</mgrwt>
</event>
<event>
 5    1  0.3235144E-002  0.1250031E+03  0.7818608E-02  0.1235064E+00
         -4   -1    0    0    0  501 -0.00000000000E+00  0.00000000000E+00  0.25815266511E+02  0.25846486899E+02  0.12700000000E+01 0. -1.
          4   -1    0    0  501    0  0.00000000000E+00 -0.00000000000E+00 -0.15119761395E+03  0.15120294761E+03  0.12700000000E+01 0. -1.
         25    2    1    2    0    0  0.00000000000E+00  0.00000000000E+00 -0.12538234744E+03  0.17704943451E+03  0.12500307680E+03 0.  0.
    9000005    1    3    3    0    0 -0.13804321698E+02 -0.59877781767E+02 -0.46571132138E+02  0.77108873649E+02  0.10000000000E+01 0.  0.
    9000005    1    3    3    0    0  0.13804321698E+02  0.59877781767E+02 -0.78811215305E+02  0.99940560858E+02  0.10000000000E+01 0.  0.
<mgrwt>
<rscale>  0 0.12500308E+03</rscale>
<asrwt>0</asrwt>
<pdfrwt beam="2">  1        4 0.23263983E-01 0.12500308E+03</pdfrwt>
<pdfrwt beam="1">  1       -4 0.39743914E-02 0.12500308E+03</pdfrwt>
<totfact> 0.94144330E+03</totfact>
</mgrwt>
</event>
<event>
 5    1  0.3235144E-002  0.1249988E+03  0.7818608E-02  0.1235071E+00
          4   -1    0    0  501    0  0.00000000000E+00  0.00000000000E+00  0.39958356799E+02  0.39978533966E+02  0.12700000000E+01 0. -1.
         -4   -1    0    0    0  501 -0.00000000000E+00 -0.00000000000E+00 -0.97707128126E+02  0.97715381526E+02  0.12700000000E+01 0. -1.
         25    2    1    2    0    0  0.00000000000E+00  0.00000000000E+00 -0.57748771327E+02  0.13769391549E+03  0.12499877509E+03 0.  0.
    9000005    1    3    3    0    0 -0.12571605421E+02 -0.51215266023E+02  0.80587549204E+01  0.53357213829E+02  0.10000000000E+01 0.  0.
    9000005    1    3    3    0    0  0.12571605421E+02  0.51215266023E+02 -0.65807526247E+02  0.84336701663E+02  0.10000000000E+01 0.  0.
<mgrwt>
<rscale>  0 0.12499878E+03</rscale>
<asrwt>0</asrwt>
<pdfrwt beam="1">  1        4 0.61496265E-02 0.12499878E+03</pdfrwt>
<pdfrwt beam="2">  1       -4 0.15034053E-01 0.12499878E+03</pdfrwt>
<totfact> 0.10181878E+04</totfact>
</mgrwt>
</event>
<event>
 5    1  0.3235144E-002  0.1250225E+03  0.7818608E-02  0.1235034E+00
         -4   -1    0    0    0  501 -0.00000000000E+00  0.00000000000E+00  0.23121473740E+02  0.23156326305E+02  0.12700000000E+01 0.  1.
          4   -1    0    0  501    0  0.00000000000E+00 -0.00000000000E+00 -0.16884089601E+03  0.16884567233E+03  0.12700000000E+01 0.  1.
         25    2    1    2    0    0  0.00000000000E+00  0.00000000000E+00 -0.14571942227E+03  0.19200199864E+03  0.12502246780E+03 0.  0.
    9000005    1    3    3    0    0 -0.20462583307E+02  0.48285367779E+02 -0.12508526420E+03  0.13563744829E+03  0.10000000000E+01 0.  0.
    9000005    1    3    3    0    0  0.20462583307E+02 -0.48285367779E+02 -0.20634158067E+02  0.56364550351E+02  0.10000000000E+01 0.  0.
<mgrwt>
<rscale>  0 0.12502247E+03</rscale>
<asrwt>0</asrwt>
<pdfrwt beam="2">  1        4 0.25978570E-01 0.12502247E+03</pdfrwt>
<pdfrwt beam="1">  1       -4 0.35601983E-02 0.12502247E+03</pdfrwt>
<totfact> 0.91454111E+03</totfact>
</mgrwt>
</event>
<event>
 5    1  0.3235144E-002  0.1250020E+03  0.7818608E-02  0.1235066E+00
         -4   -1    0    0    0  501 -0.00000000000E+00  0.00000000000E+00  0.77600752252E+03  0.77600856175E+03  0.12700000000E+01 0. -1.
          4   -1    0    0  501    0  0.00000000000E+00 -0.00000000000E+00 -0.49527807337E+01  0.51130164283E+01  0.12700000000E+01 0. -1.
         25    2    1    2    0    0  0.00000000000E+00  0.00000000000E+00  0.77105474179E+03  0.78112157818E+03  0.12500202024E+03 0.  0.
    9000005    1    3    3    0    0  0.32642514370E+02  0.50100027813E+02  0.27204026895E+03  0.27853627136E+03  0.10000000000E+01 0.  0.
    9000005    1    3    3    0    0 -0.32642514370E+02 -0.50100027813E+02  0.49901447284E+03  0.50258530682E+03  0.10000000000E+01 0.  0.
<mgrwt>
<rscale>  0 0.12500202E+03</rscale>
<asrwt>0</asrwt>
<pdfrwt beam="2">  1        4 0.77437214E-03 0.12500202E+03</pdfrwt>
<pdfrwt beam="1">  1       -4 0.11939816E+00 0.12500202E+03</pdfrwt>
<totfact> 0.39119804E+03</totfact>
</mgrwt>
</event>
<event>
 5    1  0.3235144E-002  0.1249964E+03  0.7818608E-02  0.1235075E+00
         -4   -1    0    0    0  501 -0.00000000000E+00  0.00000000000E+00  0.92110492845E+01  0.92981895507E+01  0.12700000000E+01 0.  1.
          4   -1    0    0  501    0  0.00000000000E+00 -0.00000000000E+00 -0.42197440399E+03  0.42197631512E+03  0.12700000000E+01 0.  1.
         25    2    1    2    0    0  0.00000000000E+00  0.00000000000E+00 -0.41276335470E+03  0.43127450467E+03  0.12499644552E+03 0.  0.
    9000005    1    3    3    0    0  0.27844463740E+02  0.52015260198E+02 -0.13532518395E+03  0.14763064338E+03  0.10000000000E+01 0.  0.
    9000005    1    3    3    0    0 -0.27844463740E+02 -0.52015260198E+02 -0.27743817076E+03  0.28364386129E+03  0.10000000000E+01 0.  0.
<mgrwt>
<rscale>  0 0.12499645E+03</rscale>
<asrwt>0</asrwt>
<pdfrwt beam="2">  1        4 0.64925974E-01 0.12499645E+03</pdfrwt>
<pdfrwt beam="1">  1       -4 0.14239349E-02 0.12499645E+03</pdfrwt>
<totfact> 0.61625471E+03</totfact>
</mgrwt>
</event>
<event>
 5    1  0.3235144E-002  0.1250008E+03  0.7818608E-02  0.1235068E+00
          4   -1    0    0  501    0  0.00000000000E+00  0.00000000000E+00  0.17511211210E+02  0.17557204164E+02  0.12700000000E+01 0. -1.
         -4   -1    0    0    0  501 -0.00000000000E+00 -0.00000000000E+00 -0.22273389314E+03  0.22273751380E+03  0.12700000000E+01 0. -1.
         25    2    1    2    0    0  0.00000000000E+00  0.00000000000E+00 -0.20522268193E+03  0.24029471796E+03  0.12500080921E+03 0.  0.
    9000005    1    3    3    0    0 -0.19825918885E+02  0.24047144129E+02 -0.20673732391E+03  0.20907571188E+03  0.10000000000E+01 0.  0.
    9000005    1    3    3    0    0  0.19825918885E+02 -0.24047144129E+02  0.15146419817E+01  0.31219006082E+02  0.10000000000E+01 0.  0.
<mgrwt>
<rscale>  0 0.12500081E+03</rscale>
<asrwt>0</asrwt>
<pdfrwt beam="1">  1        4 0.26978491E-02 0.12500081E+03</pdfrwt>
<pdfrwt beam="2">  1       -4 0.34270567E-01 0.12500081E+03</pdfrwt>
<totfact> 0.83751984E+03</totfact>
</mgrwt>
</event>
<event>
 5    1  0.3235144E-002  0.1250021E+03  0.7818608E-02  0.1235066E+00
         -4   -1    0    0    0  501 -0.00000000000E+00  0.00000000000E+00  0.11284120016E+03  0.11284834671E+03  0.12700000000E+01 0.  1.
          4   -1    0    0  501    0  0.00000000000E+00 -0.00000000000E+00 -0.34598490047E+02  0.34621791022E+02  0.12700000000E+01 0.  1.
         25    2    1    2    0    0  0.00000000000E+00  0.00000000000E+00  0.78242710116E+02  0.14747013773E+03  0.12500207932E+03 0.  0.
    9000005    1    3    3    0    0  0.10266627844E+02  0.26586067547E+02 -0.26491336453E+02  0.38923174870E+02  0.10000000000E+01 0.  0.
    9000005    1    3    3    0    0 -0.10266627844E+02 -0.26586067547E+02  0.10473404657E+03  0.10854696286E+03  0.10000000000E+01 0.  0.
<mgrwt>
<rscale>  0 0.12500208E+03</rscale>
<asrwt>0</asrwt>
<pdfrwt beam="2">  1        4 0.53251867E-02 0.12500208E+03</pdfrwt>
<pdfrwt beam="1">  1       -4 0.17362527E-01 0.12500208E+03</pdfrwt>
<totfact> 0.99805727E+03</totfact>
</mgrwt>
</event>
<event>
 5    1  0.3235144E-002  0.1250015E+03  0.7818608E-02  0.1235067E+00
         -4   -1    0    0    0  501 -0.00000000000E+00  0.00000000000E+00  0.13150466117E+03  0.13151079351E+03  0.12700000000E+01 0.  1.
          4   -1    0    0  501    0  0.00000000000E+00 -0.00000000000E+00 -0.29684602300E+02  0.29711757163E+02  0.12700000000E+01 0.  1.
         25    2    1    2    0    0  0.00000000000E+00  0.00000000000E+00  0.10182005887E+03  0.16122255067E+03  0.12500154582E+03 0.  0.
    9000005    1    3    3    0    0  0.33360395180E+01 -0.61952076463E+02  0.41244737656E+02  0.74507162890E+02  0.10000000000E+01 0.  0.
    9000005    1    3    3    0    0 -0.33360395180E+01  0.61952076463E+02  0.60575321211E+02  0.86715387778E+02  0.10000000000E+01 0.  0.
<mgrwt>
<rscale>  0 0.12500155E+03</rscale>
<asrwt>0</asrwt>
<pdfrwt beam="2">  1        4 0.45694224E-02 0.12500155E+03</pdfrwt>
<pdfrwt beam="1">  1       -4 0.20234047E-01 0.12500155E+03</pdfrwt>
<totfact> 0.97104230E+03</totfact>
</mgrwt>
</event>
<event>
 5    1  0.3235144E-002  0.1250056E+03  0.7818608E-02  0.1235061E+00
         -4   -1    0    0    0  501 -0.00000000000E+00  0.00000000000E+00  0.97771724727E+02  0.97779972674E+02  0.12700000000E+01 0.  1.
          4   -1    0    0  501    0  0.00000000000E+00 -0.00000000000E+00 -0.39936278544E+02  0.39956466860E+02  0.12700000000E+01 0.  1.
         25    2    1    2    0    0  0.00000000000E+00  0.00000000000E+00  0.57835446183E+02  0.13773643953E+03  0.12500555164E+03 0.  0.
    9000005    1    3    3    0    0  0.19296852902E+02 -0.55691614307E+02  0.51810409926E+02  0.78480844878E+02  0.10000000000E+01 0.  0.
    9000005    1    3    3    0    0 -0.19296852902E+02  0.55691614307E+02  0.60250362562E+01  0.59255594655E+02  0.10000000000E+01 0.  0.
<mgrwt>
<rscale>  0 0.12500555E+03</rscale>
<asrwt>0</asrwt>
<pdfrwt beam="2">  1        4 0.61462303E-02 0.12500555E+03</pdfrwt>
<pdfrwt beam="1">  1       -4 0.15043991E-01 0.12500555E+03</pdfrwt>
<totfact> 0.10179436E+04</totfact>
</mgrwt>
</event>
<event>
 5    1  0.3235144E-002  0.1250000E+03  0.7818608E-02  0.1235069E+00
         -4   -1    0    0    0  501 -0.00000000000E+00  0.00000000000E+00  0.10420968187E+03  0.10421742031E+03  0.12700000000E+01 0.  1.
          4   -1    0    0  501    0  0.00000000000E+00 -0.00000000000E+00 -0.37464635416E+02  0.37486154869E+02  0.12700000000E+01 0.  1.
         25    2    1    2    0    0  0.00000000000E+00  0.00000000000E+00  0.66745046458E+02  0.14170357518E+03  0.12500000797E+03 0.  0.
    9000005    1    3    3    0    0  0.42429951331E+02  0.16364467939E+02 -0.15217100784E+02  0.47965161703E+02  0.10000000000E+01 0.  0.
    9000005    1    3    3    0    0 -0.42429951331E+02 -0.16364467939E+02  0.81962147242E+02  0.93738413478E+02  0.10000000000E+01 0.  0.
<mgrwt>
<rscale>  0 0.12500001E+03</rscale>
<asrwt>0</asrwt>
<pdfrwt beam="2">  1        4 0.57660407E-02 0.12500001E+03</pdfrwt>
<pdfrwt beam="1">  1       -4 0.16034509E-01 0.12500001E+03</pdfrwt>
<totfact> 0.10098398E+04</totfact>
</mgrwt>
</event>
<event>
 5    1  0.3235144E-002  0.1250078E+03  0.7818608E-02  0.1235057E+00
          4   -1    0    0  501    0  0.00000000000E+00  0.00000000000E+00  0.75933694067E+02  0.75944313775E+02  0.12700000000E+01 0.  1.
         -4   -1    0    0    0  501 -0.00000000000E+00 -0.00000000000E+00 -0.51427305439E+02  0.51442984407E+02  0.12700000000E+01 0.  1.
         25    2    1    2    0    0  0.00000000000E+00  0.00000000000E+00  0.24506388628E+02  0.12738729818E+03  0.12500784237E+03 0.  0.
    9000005    1    3    3    0    0 -0.24995357658E+02 -0.31325695649E+02 -0.36614507500E+02  0.54292626312E+02  0.10000000000E+01 0.  0.
    9000005    1    3    3    0    0  0.24995357658E+02  0.31325695649E+02  0.61120896129E+02  0.73094671871E+02  0.10000000000E+01 0.  0.
<mgrwt>
<rscale>  0 0.12500784E+03</rscale>
<asrwt>0</asrwt>
<pdfrwt beam="1">  1        4 0.11684130E-01 0.12500784E+03</pdfrwt>
<pdfrwt beam="2">  1       -4 0.79139161E-02 0.12500784E+03</pdfrwt>
<totfact> 0.10398901E+04</totfact>
</mgrwt>
</event>
<event>
 5    1  0.3235144E-002  0.1250020E+03  0.7818608E-02  0.1235066E+00
          4   -1    0    0  501    0  0.00000000000E+00  0.00000000000E+00  0.38650372968E+02  0.38671232596E+02  0.12700000000E+01 0. -1.
         -4   -1    0    0    0  501 -0.00000000000E+00 -0.00000000000E+00 -0.10101739908E+03  0.10102538204E+03  0.12700000000E+01 0. -1.
         25    2    1    2    0    0  0.00000000000E+00  0.00000000000E+00 -0.62367026112E+02  0.13969661464E+03  0.12500199277E+03 0.  0.
    9000005    1    3    3    0    0 -0.40889806387E+02 -0.37829455441E+02  0.47172753946E+00  0.55715944686E+02  0.10000000000E+01 0.  0.
    9000005    1    3    3    0    0  0.40889806387E+02  0.37829455441E+02 -0.62838753652E+02  0.83980669954E+02  0.10000000000E+01 0.  0.
<mgrwt>
<rscale>  0 0.12500199E+03</rscale>
<asrwt>0</asrwt>
<pdfrwt beam="1">  1        4 0.59484299E-02 0.12500199E+03</pdfrwt>
<pdfrwt beam="2">  1       -4 0.15543357E-01 0.12500199E+03</pdfrwt>
<totfact> 0.10139422E+04</totfact>
</mgrwt>
</event>
<event>
 4    1  0.3235144E-002  0.1249313E+03  0.7818608E-02  0.1235177E+00
         -4   -1    0    0    0  501 -0.00000000000E+00  0.00000000000E+00  0.27444432828E+03  0.27444726674E+03  0.12700000000E+01 0. -1.
          4   -1    0    0  501    0  0.00000000000E+00 -0.00000000000E+00 -0.14186277293E+02  0.14243011038E+02  0.12700000000E+01 0. -1.
    9000005    1    1    2    0    0  0.53924869708E+02  0.21982015566E+02  0.18230666662E+03  0.19138396296E+03  0.10000000000E+01 0.  0.
    9000005    1    1    2    0    0 -0.53924869708E+02 -0.21982015566E+02  0.77951384360E+02  0.97306314826E+02  0.10000000000E+01 0.  0.
<mgrwt>
<rscale>  0 0.12493127E+03</rscale>
<asrwt>0</asrwt>
<pdfrwt beam="2">  1        4 0.21870941E-02 0.12493127E+03</pdfrwt>
<pdfrwt beam="1">  1       -4 0.42226800E-01 0.12493127E+03</pdfrwt>
<totfact> 0.77157503E+03</totfact>
</mgrwt>
</event>
<event>
 5    1  0.3235144E-002  0.1250385E+03  0.7818608E-02  0.1235009E+00
         -4   -1    0    0    0  501 -0.00000000000E+00  0.00000000000E+00  0.28093795993E+03  0.28094083048E+03  0.12700000000E+01 0.  1.
          4   -1    0    0  501    0  0.00000000000E+00 -0.00000000000E+00 -0.13880948543E+02  0.13938925082E+02  0.12700000000E+01 0.  1.
         25    2    1    2    0    0  0.00000000000E+00  0.00000000000E+00  0.26705701139E+03  0.29487975556E+03  0.12503848571E+03 0.  0.
    9000005    1    3    3    0    0 -0.52703353990E+02  0.25371176208E+02  0.18553533335E+03  0.19453971324E+03  0.10000000000E+01 0.  0.
    9000005    1    3    3    0    0  0.52703353990E+02 -0.25371176208E+02  0.81521678036E+02  0.10034004233E+03  0.10000000000E+01 0.  0.
<mgrwt>
<rscale>  0 0.12503849E+03</rscale>
<asrwt>0</asrwt>
<pdfrwt beam="2">  1        4 0.21402111E-02 0.12503849E+03</pdfrwt>
<pdfrwt beam="1">  1       -4 0.43225904E-01 0.12503849E+03</pdfrwt>
<totfact> 0.76180508E+03</totfact>
</mgrwt>
</event>
<event>
 5    1  0.3235144E-002  0.1250019E+03  0.7818608E-02  0.1235066E+00
          4   -1    0    0  501    0  0.00000000000E+00  0.00000000000E+00  0.38883023235E+03  0.38883230638E+03  0.12700000000E+01 0.  1.
         -4   -1    0    0    0  501 -0.00000000000E+00 -0.00000000000E+00 -0.10004220080E+02  0.10084508883E+02  0.12700000000E+01 0.  1.
         25    2    1    2    0    0  0.00000000000E+00  0.00000000000E+00  0.37882601227E+03  0.39891681526E+03  0.12500191171E+03 0.  0.
    9000005    1    3    3    0    0  0.14392797011E+01  0.25305078614E+02  0.37170641286E+03  0.37257090049E+03  0.10000000000E+01 0.  0.
    9000005    1    3    3    0    0 -0.14392797011E+01 -0.25305078614E+02  0.71195994070E+01  0.26345914777E+02  0.10000000000E+01 0.  0.
<mgrwt>
<rscale>  0 0.12500191E+03</rscale>
<asrwt>0</asrwt>
<pdfrwt beam="1">  1        4 0.59826372E-01 0.12500191E+03</pdfrwt>
<pdfrwt beam="2">  1       -4 0.15454464E-02 0.12500191E+03</pdfrwt>
<totfact> 0.64655544E+03</totfact>
</mgrwt>
</event>
<event>
 5    1  0.3235144E-002  0.1249784E+03  0.7818608E-02  0.1235103E+00
          4   -1    0    0  501    0  0.00000000000E+00  0.00000000000E+00  0.29371908276E+02  0.29399351962E+02  0.12700000000E+01 0.  1.
         -4   -1    0    0    0  501 -0.00000000000E+00 -0.00000000000E+00 -0.13285421374E+03  0.13286028379E+03  0.12700000000E+01 0.  1.
         25    2    1    2    0    0  0.00000000000E+00  0.00000000000E+00 -0.10348230547E+03  0.16225963575E+03  0.12497840554E+03 0.  0.
    9000005    1    3    3    0    0  0.37972648370E+02  0.29359652960E+02 -0.10367303273E+03  0.11424976570E+03  0.10000000000E+01 0.  0.
    9000005    1    3    3    0    0 -0.37972648370E+02 -0.29359652960E+02  0.19072726272E+00  0.48009870058E+02  0.10000000000E+01 0.  0.
<mgrwt>
<rscale>  0 0.12497841E+03</rscale>
<asrwt>0</asrwt>
<pdfrwt beam="1">  1        4 0.45213332E-02 0.12497841E+03</pdfrwt>
<pdfrwt beam="2">  1       -4 0.20441687E-01 0.12497841E+03</pdfrwt>
<totfact> 0.96955947E+03</totfact>
</mgrwt>
</event>
<event>
 5    1  0.3235144E-002  0.1249873E+03  0.7818608E-02  0.1235089E+00
          4   -1    0    0  501    0  0.00000000000E+00  0.00000000000E+00  0.29274540816E+02  0.29302075694E+02  0.12700000000E+01 0. -1.
         -4   -1    0    0    0  501 -0.00000000000E+00 -0.00000000000E+00 -0.13331473251E+03  0.13332078159E+03  0.12700000000E+01 0. -1.
         25    2    1    2    0    0  0.00000000000E+00  0.00000000000E+00 -0.10404019169E+03  0.16262285728E+03  0.12498732825E+03 0.  0.
    9000005    1    3    3    0    0 -0.60818159689E+02 -0.17981743498E+01 -0.33510574454E+02  0.69469709796E+02  0.10000000000E+01 0.  0.
    9000005    1    3    3    0    0  0.60818159689E+02  0.17981743498E+01 -0.70529617235E+02  0.93153147485E+02  0.10000000000E+01 0.  0.
<mgrwt>
<rscale>  0 0.12498733E+03</rscale>
<asrwt>0</asrwt>
<pdfrwt beam="1">  1        4 0.45063590E-02 0.12498733E+03</pdfrwt>
<pdfrwt beam="2">  1       -4 0.20512542E-01 0.12498733E+03</pdfrwt>
<totfact> 0.96867069E+03</totfact>
</mgrwt>
</event>
<event>
 5    1  0.3235144E-002  0.1249972E+03  0.7818608E-02  0.1235074E+00
          4   -1    0    0  501    0  0.00000000000E+00  0.00000000000E+00  0.28427550586E+04  0.28427553423E+04  0.12700000000E+01 0.  1.
         -4   -1    0    0    0  501 -0.00000000000E+00 -0.00000000000E+00 -0.10802430275E+01  0.16672807198E+01  0.12700000000E+01 0.  1.
         25    2    1    2    0    0  0.00000000000E+00  0.00000000000E+00  0.28416748156E+04  0.28444226230E+04  0.12499720320E+03 0.  0.
    9000005    1    3    3    0    0 -0.36905040253E+02 -0.34121660199E+02  0.57585954025E+03  0.57804972086E+03  0.10000000000E+01 0.  0.
    9000005    1    3    3    0    0  0.36905040253E+02  0.34121660199E+02  0.22658152753E+04  0.22663729021E+04  0.10000000000E+01 0.  0.
<mgrwt>
<rscale>  0 0.12499720E+03</rscale>
<asrwt>0</asrwt>
<pdfrwt beam="1">  1        4 0.43738448E+00 0.12499720E+03</pdfrwt>
<pdfrwt beam="2">  1       -4 0.21137349E-03 0.12499720E+03</pdfrwt>
<totfact> 0.24930328E+02</totfact>
</mgrwt>
</event>
<event>
 5    1  0.3235144E-002  0.1250261E+03  0.7818608E-02  0.1235029E+00
          4   -1    0    0  501    0  0.00000000000E+00  0.00000000000E+00  0.16936638293E+03  0.16937114444E+03  0.12700000000E+01 0. -1.
         -4   -1    0    0    0  501 -0.00000000000E+00 -0.00000000000E+00 -0.23050967984E+02  0.23085926991E+02  0.12700000000E+01 0. -1.
         25    2    1    2    0    0  0.00000000000E+00  0.00000000000E+00  0.14631541495E+03  0.19245707143E+03  0.12502609204E+03 0.  0.
    9000005    1    3    3    0    0  0.13767708971E+02  0.52827105344E+02  0.26299471139E+02  0.60604579460E+02  0.10000000000E+01 0.  0.
    9000005    1    3    3    0    0 -0.13767708971E+02 -0.52827105344E+02  0.12001594381E+03  0.13185249197E+03  0.10000000000E+01 0.  0.
<mgrwt>
<rscale>  0 0.12502609E+03</rscale>
<asrwt>0</asrwt>
<pdfrwt beam="1">  1        4 0.26059422E-01 0.12502609E+03</pdfrwt>
<pdfrwt beam="2">  1       -4 0.35493582E-02 0.12502609E+03</pdfrwt>
<totfact> 0.91368142E+03</totfact>
</mgrwt>
</event>
<event>
 5    1  0.3235144E-002  0.1250000E+03  0.7818608E-02  0.1235069E+00
          4   -1    0    0  501    0  0.00000000000E+00  0.00000000000E+00  0.13029375804E+02  0.13091124239E+02  0.12700000000E+01 0. -1.
         -4   -1    0    0    0  501 -0.00000000000E+00 -0.00000000000E+00 -0.29903170035E+03  0.29903439721E+03  0.12700000000E+01 0. -1.
         25    2    1    2    0    0  0.00000000000E+00  0.00000000000E+00 -0.28600232455E+03  0.31212552145E+03  0.12500004597E+03 0.  0.
    9000005    1    3    3    0    0  0.34457326957E+02 -0.41364792530E+02 -0.22223526715E+03  0.22866540492E+03  0.10000000000E+01 0.  0.
    9000005    1    3    3    0    0 -0.34457326957E+02  0.41364792530E+02 -0.63767057400E+02  0.83460116532E+02  0.10000000000E+01 0.  0.
<mgrwt>
<rscale>  0 0.12500005E+03</rscale>
<asrwt>0</asrwt>
<pdfrwt beam="1">  1        4 0.20094769E-02 0.12500005E+03</pdfrwt>
<pdfrwt beam="2">  1       -4 0.46009829E-01 0.12500005E+03</pdfrwt>
<totfact> 0.74102507E+03</totfact>
</mgrwt>
</event>
<event>
 5    1  0.3235144E-002  0.1249966E+03  0.7818608E-02  0.1235075E+00
          4   -1    0    0  501    0  0.00000000000E+00  0.00000000000E+00  0.74430694037E+01  0.75506411747E+01  0.12700000000E+01 0. -1.
         -4   -1    0    0    0  501 -0.00000000000E+00 -0.00000000000E+00 -0.52091514558E+03  0.52091669372E+03  0.12700000000E+01 0. -1.
         25    2    1    2    0    0  0.00000000000E+00  0.00000000000E+00 -0.51347207618E+03  0.52846733489E+03  0.12499660410E+03 0.  0.
    9000005    1    3    3    0    0  0.49006306803E+02 -0.23646407278E+02 -0.12681862703E+03  0.13800266246E+03  0.10000000000E+01 0.  0.
    9000005    1    3    3    0    0 -0.49006306803E+02  0.23646407278E+02 -0.38665344914E+03  0.39046467243E+03  0.10000000000E+01 0.  0.
<mgrwt>
<rscale>  0 0.12499660E+03</rscale>
<asrwt>0</asrwt>
<pdfrwt beam="1">  1        4 0.11534818E-02 0.12499660E+03</pdfrwt>
<pdfrwt beam="2">  1       -4 0.80149157E-01 0.12499660E+03</pdfrwt>
<totfact> 0.53725396E+03</totfact>
</mgrwt>
</event>
<event>
 5    1  0.3235144E-002  0.1249979E+03  0.7818608E-02  0.1235073E+00
          4   -1    0    0  501    0  0.00000000000E+00  0.00000000000E+00  0.14424432408E+03  0.14424991484E+03  0.12700000000E+01 0.  1.
         -4   -1    0    0    0  501 -0.00000000000E+00 -0.00000000000E+00 -0.27058886241E+02  0.27088673363E+02  0.12700000000E+01 0.  1.
         25    2    1    2    0    0  0.00000000000E+00  0.00000000000E+00  0.11718543784E+03  0.17133858820E+03  0.12499793984E+03 0.  0.
    9000005    1    3    3    0    0  0.42042784893E+02  0.31560860988E+02  0.12282332655E+02  0.53995735047E+02  0.10000000000E+01 0.  0.
    9000005    1    3    3    0    0 -0.42042784893E+02 -0.31560860988E+02  0.10490310519E+03  0.11734285315E+03  0.10000000000E+01 0.  0.
<mgrwt>
<rscale>  0 0.12499794E+03</rscale>
<asrwt>0</asrwt>
<pdfrwt beam="1">  1        4 0.22194156E-01 0.12499794E+03</pdfrwt>
<pdfrwt beam="2">  1       -4 0.41656269E-02 0.12499794E+03</pdfrwt>
<totfact> 0.95204130E+03</totfact>
</mgrwt>
</event>
<event>
 5    1  0.3235144E-002  0.1249998E+03  0.7818608E-02  0.1235070E+00
         -4   -1    0    0    0  501 -0.00000000000E+00  0.00000000000E+00  0.22767657537E+03  0.22768011742E+03  0.12700000000E+01 0.  1.
          4   -1    0    0  501    0  0.00000000000E+00 -0.00000000000E+00 -0.17129769746E+02  0.17176784086E+02  0.12700000000E+01 0.  1.
         25    2    1    2    0    0  0.00000000000E+00  0.00000000000E+00  0.21054680562E+03  0.24485690151E+03  0.12499977944E+03 0.  0.
    9000005    1    3    3    0    0  0.54775924776E+02 -0.22621108438E+02  0.14411217794E+03  0.15582501825E+03  0.10000000000E+01 0.  0.
    9000005    1    3    3    0    0 -0.54775924776E+02  0.22621108438E+02  0.66434627684E+02  0.89031883265E+02  0.10000000000E+01 0.  0.
<mgrwt>
<rscale>  0 0.12499978E+03</rscale>
<asrwt>0</asrwt>
<pdfrwt beam="2">  1        4 0.26392382E-02 0.12499978E+03</pdfrwt>
<pdfrwt beam="1">  1       -4 0.35031053E-01 0.12499978E+03</pdfrwt>
<totfact> 0.83079703E+03</totfact>
</mgrwt>
</event>
<event>
 5    1  0.3235144E-002  0.1250017E+03  0.7818608E-02  0.1235067E+00
         -4   -1    0    0    0  501 -0.00000000000E+00  0.00000000000E+00  0.19015378754E+02  0.19057741975E+02  0.12700000000E+01 0. -1.
          4   -1    0    0  501    0  0.00000000000E+00 -0.00000000000E+00 -0.20515846993E+03  0.20516240076E+03  0.12700000000E+01 0. -1.
         25    2    1    2    0    0  0.00000000000E+00  0.00000000000E+00 -0.18614309118E+03  0.22422014273E+03  0.12500168804E+03 0.  0.
    9000005    1    3    3    0    0 -0.56117799651E+02  0.12930731325E+02 -0.49540826534E+02  0.75971736481E+02  0.10000000000E+01 0.  0.
    9000005    1    3    3    0    0  0.56117799651E+02 -0.12930731325E+02 -0.13660226464E+03  0.14824840625E+03  0.10000000000E+01 0.  0.
<mgrwt>
<rscale>  0 0.12500169E+03</rscale>
<asrwt>0</asrwt>
<pdfrwt beam="2">  1        4 0.31566401E-01 0.12500169E+03</pdfrwt>
<pdfrwt beam="1">  1       -4 0.29290041E-02 0.12500169E+03</pdfrwt>
<totfact> 0.86201693E+03</totfact>
</mgrwt>
</event>
<event>
 5    1  0.3235144E-002  0.1249967E+03  0.7818608E-02  0.1235074E+00
          4   -1    0    0  501    0  0.00000000000E+00  0.00000000000E+00  0.49313376840E+03  0.49313540376E+03  0.12700000000E+01 0.  1.
         -4   -1    0    0    0  501 -0.00000000000E+00 -0.00000000000E+00 -0.78683002313E+01  0.79701347874E+01  0.12700000000E+01 0.  1.
         25    2    1    2    0    0  0.00000000000E+00  0.00000000000E+00  0.48526546817E+03  0.50110553855E+03  0.12499674460E+03 0.  0.
    9000005    1    3    3    0    0 -0.17454862848E+02  0.57399960286E+02  0.17254846025E+03  0.18268387672E+03  0.10000000000E+01 0.  0.
    9000005    1    3    3    0    0  0.17454862848E+02 -0.57399960286E+02  0.31271700792E+03  0.31842166183E+03  0.10000000000E+01 0.  0.
<mgrwt>
<rscale>  0 0.12499674E+03</rscale>
<asrwt>0</asrwt>
<pdfrwt beam="1">  1        4 0.75874728E-01 0.12499674E+03</pdfrwt>
<pdfrwt beam="2">  1       -4 0.12184664E-02 0.12499674E+03</pdfrwt>
<totfact> 0.55782666E+03</totfact>
</mgrwt>
</event>
<event>
 5    1  0.3235144E-002  0.1250057E+03  0.7818608E-02  0.1235060E+00
          4   -1    0    0  501    0  0.00000000000E+00  0.00000000000E+00  0.32973038914E+02  0.32997487711E+02  0.12700000000E+01 0. -1.
         -4   -1    0    0    0  501 -0.00000000000E+00 -0.00000000000E+00 -0.11840712863E+03  0.11841393926E+03  0.12700000000E+01 0. -1.
         25    2    1    2    0    0  0.00000000000E+00  0.00000000000E+00 -0.85434089718E+02  0.15141142697E+03  0.12500574599E+03 0.  0.
    9000005    1    3    3    0    0 -0.40294713653E+02 -0.40526137413E+02 -0.73349035525E+02  0.92989853072E+02  0.10000000000E+01 0.  0.
    9000005    1    3    3    0    0  0.40294713653E+02  0.40526137413E+02 -0.12085054193E+02  0.58421573899E+02  0.10000000000E+01 0.  0.
<mgrwt>
<rscale>  0 0.12500575E+03</rscale>
<asrwt>0</asrwt>
<pdfrwt beam="1">  1        4 0.50751798E-02 0.12500575E+03</pdfrwt>
<pdfrwt beam="2">  1       -4 0.18218886E-01 0.12500575E+03</pdfrwt>
<totfact> 0.99010290E+03</totfact>
</mgrwt>
</event>
<event>
 5    1  0.3235144E-002  0.1250003E+03  0.7818608E-02  0.1235069E+00
         -4   -1    0    0    0  501 -0.00000000000E+00  0.00000000000E+00  0.18775279153E+02  0.18818182890E+02  0.12700000000E+01 0.  1.
          4   -1    0    0  501    0  0.00000000000E+00 -0.00000000000E+00 -0.20777137722E+03  0.20777525861E+03  0.12700000000E+01 0.  1.
         25    2    1    2    0    0  0.00000000000E+00  0.00000000000E+00 -0.18899609806E+03  0.22659344150E+03  0.12500025059E+03 0.  0.
    9000005    1    3    3    0    0 -0.43337219080E+02 -0.63515603067E+01 -0.13697467249E+02  0.45902913687E+02  0.10000000000E+01 0.  0.
    9000005    1    3    3    0    0  0.43337219080E+02  0.63515603067E+01 -0.17529863081E+03  0.18069052781E+03  0.10000000000E+01 0.  0.
<mgrwt>
<rscale>  0 0.12500025E+03</rscale>
<asrwt>0</asrwt>
<pdfrwt beam="2">  1        4 0.31968425E-01 0.12500025E+03</pdfrwt>
<pdfrwt beam="1">  1       -4 0.28921035E-02 0.12500025E+03</pdfrwt>
<totfact> 0.85834957E+03</totfact>
</mgrwt>
</event>
<event>
 5    1  0.3235144E-002  0.1249984E+03  0.7818608E-02  0.1235072E+00
          4   -1    0    0  501    0  0.00000000000E+00  0.00000000000E+00  0.15169183554E+04  0.15169188871E+04  0.12700000000E+01 0.  1.
         -4   -1    0    0    0  501 -0.00000000000E+00 -0.00000000000E+00 -0.24179025533E+01  0.27311449535E+01  0.12700000000E+01 0.  1.
         25    2    1    2    0    0  0.00000000000E+00  0.00000000000E+00  0.15145004529E+04  0.15196500320E+04  0.12499839221E+03 0.  0.
    9000005    1    3    3    0    0 -0.91886620092E+01 -0.57729537459E+02  0.48868034738E+03  0.49216522929E+03  0.10000000000E+01 0.  0.
    9000005    1    3    3    0    0  0.91886620092E+01  0.57729537459E+02  0.10258201055E+04  0.10274848027E+04  0.10000000000E+01 0.  0.
<mgrwt>
<rscale>  0 0.12499839E+03</rscale>
<asrwt>0</asrwt>
<pdfrwt beam="1">  1        4 0.23339579E+00 0.12499839E+03</pdfrwt>
<pdfrwt beam="2">  1       -4 0.39612215E-03 0.12499839E+03</pdfrwt>
<totfact> 0.17548014E+03</totfact>
</mgrwt>
</event>
<event>
 5    1  0.3235144E-002  0.1250040E+03  0.7818608E-02  0.1235063E+00
         -4   -1    0    0    0  501 -0.00000000000E+00  0.00000000000E+00  0.16081643104E+03  0.16082144569E+03  0.12700000000E+01 0. -1.
          4   -1    0    0  501    0  0.00000000000E+00 -0.00000000000E+00 -0.24269657937E+02  0.24302863954E+02  0.12700000000E+01 0. -1.
         25    2    1    2    0    0  0.00000000000E+00  0.00000000000E+00  0.13654677310E+03  0.18512430964E+03  0.12500395504E+03 0.  0.
    9000005    1    3    3    0    0 -0.28083135058E+02  0.17802343522E+02 -0.10089754099E+02  0.34761890733E+02  0.10000000000E+01 0.  0.
    9000005    1    3    3    0    0  0.28083135058E+02 -0.17802343522E+02  0.14663652720E+03  0.15036241891E+03  0.10000000000E+01 0.  0.
<mgrwt>
<rscale>  0 0.12500396E+03</rscale>
<asrwt>0</asrwt>
<pdfrwt beam="2">  1        4 0.37367334E-02 0.12500396E+03</pdfrwt>
<pdfrwt beam="1">  1       -4 0.24743930E-01 0.12500396E+03</pdfrwt>
<totfact> 0.92694441E+03</totfact>
</mgrwt>
</event>
<event>
 5    1  0.3235144E-002  0.1250012E+03  0.7818608E-02  0.1235067E+00
          4   -1    0    0  501    0  0.00000000000E+00  0.00000000000E+00  0.34716323681E+02  0.34739545620E+02  0.12700000000E+01 0. -1.
         -4   -1    0    0    0  501 -0.00000000000E+00 -0.00000000000E+00 -0.11245686890E+03  0.11246403987E+03  0.12700000000E+01 0. -1.
         25    2    1    2    0    0  0.00000000000E+00  0.00000000000E+00 -0.77740545224E+02  0.14720358549E+03  0.12500121283E+03 0.  0.
    9000005    1    3    3    0    0  0.12092932324E+02 -0.59551175151E+02 -0.56046712622E+02  0.82672942791E+02  0.10000000000E+01 0.  0.
    9000005    1    3    3    0    0 -0.12092932324E+02  0.59551175151E+02 -0.21693832602E+02  0.64530642698E+02  0.10000000000E+01 0.  0.
<mgrwt>
<rscale>  0 0.12500121E+03</rscale>
<asrwt>0</asrwt>
<pdfrwt beam="1">  1        4 0.53433108E-02 0.12500121E+03</pdfrwt>
<pdfrwt beam="2">  1       -4 0.17303394E-01 0.12500121E+03</pdfrwt>
<totfact> 0.99861344E+03</totfact>
</mgrwt>
</event>
<event>
 4    1  0.3235144E-002  0.1248395E+03  0.7818608E-02  0.1235320E+00
          4   -1    0    0  501    0  0.00000000000E+00  0.00000000000E+00  0.11674659998E+02  0.11743533798E+02  0.12700000000E+01 0.  1.
         -4   -1    0    0    0  501 -0.00000000000E+00 -0.00000000000E+00 -0.33268176307E+03  0.33268418715E+03  0.12700000000E+01 0.  1.
    9000005    1    1    2    0    0  0.43192518806E+02  0.42002781076E+02 -0.20544982217E+03  0.21410384567E+03  0.10000000000E+01 0.  0.
    9000005    1    1    2    0    0 -0.43192518806E+02 -0.42002781076E+02 -0.11555728090E+03  0.13032387528E+03  0.10000000000E+01 0.  0.
<mgrwt>
<rscale>  0 0.12483948E+03</rscale>
<asrwt>0</asrwt>
<pdfrwt beam="1">  1        4 0.18015862E-02 0.12483948E+03</pdfrwt>
<pdfrwt beam="2">  1       -4 0.51187287E-01 0.12483948E+03</pdfrwt>
<totfact> 0.70592507E+03</totfact>
</mgrwt>
</event>
<event>
 5    1  0.3235144E-002  0.1249605E+03  0.7818608E-02  0.1235131E+00
          4   -1    0    0  501    0  0.00000000000E+00  0.00000000000E+00  0.14444024918E+03  0.14444583235E+03  0.12700000000E+01 0. -1.
         -4   -1    0    0    0  501 -0.00000000000E+00 -0.00000000000E+00 -0.27005938748E+02  0.27035784207E+02  0.12700000000E+01 0. -1.
         25    2    1    2    0    0  0.00000000000E+00  0.00000000000E+00  0.11743431043E+03  0.17148161656E+03  0.12496050396E+03 0.  0.
    9000005    1    3    3    0    0 -0.30036070678E+02 -0.42096486585E+02  0.10618518883E+02  0.52801824474E+02  0.10000000000E+01 0.  0.
    9000005    1    3    3    0    0  0.30036070678E+02  0.42096486585E+02  0.10681579155E+03  0.11867979209E+03  0.10000000000E+01 0.  0.
<mgrwt>
<rscale>  0 0.12496050E+03</rscale>
<asrwt>0</asrwt>
<pdfrwt beam="1">  1        4 0.22224302E-01 0.12496050E+03</pdfrwt>
<pdfrwt beam="2">  1       -4 0.41574851E-02 0.12496050E+03</pdfrwt>
<totfact> 0.95257609E+03</totfact>
</mgrwt>
</event>
<event>
 5    1  0.3235144E-002  0.1250441E+03  0.7818608E-02  0.1235000E+00
          4   -1    0    0  501    0  0.00000000000E+00  0.00000000000E+00  0.36840455427E+02  0.36862339264E+02  0.12700000000E+01 0.  1.
         -4   -1    0    0    0  501 -0.00000000000E+00 -0.00000000000E+00 -0.10604918943E+03  0.10605679365E+03  0.12700000000E+01 0.  1.
         25    2    1    2    0    0  0.00000000000E+00  0.00000000000E+00 -0.69208734007E+02  0.14291913292E+03  0.12504411098E+03 0.  0.
    9000005    1    3    3    0    0 -0.15181158449E+02  0.60072723872E+02 -0.25123552673E+02  0.66868472573E+02  0.10000000000E+01 0.  0.
    9000005    1    3    3    0    0  0.15181158449E+02 -0.60072723872E+02 -0.44085181333E+02  0.76050660342E+02  0.10000000000E+01 0.  0.
<mgrwt>
<rscale>  0 0.12504411E+03</rscale>
<asrwt>0</asrwt>
<pdfrwt beam="1">  1        4 0.56700308E-02 0.12504411E+03</pdfrwt>
<pdfrwt beam="2">  1       -4 0.16317528E-01 0.12504411E+03</pdfrwt>
<totfact> 0.10063438E+04</totfact>
</mgrwt>
</event>
<event>
 5    1  0.3235144E-002  0.1249972E+03  0.7818608E-02  0.1235074E+00
          4   -1    0    0  501    0  0.00000000000E+00  0.00000000000E+00  0.28224763677E+02  0.28253321656E+02  0.12700000000E+01 0.  1.
         -4   -1    0    0    0  501 -0.00000000000E+00 -0.00000000000E+00 -0.13829041494E+03  0.13829624639E+03  0.12700000000E+01 0.  1.
         25    2    1    2    0    0  0.00000000000E+00  0.00000000000E+00 -0.11006565127E+03  0.16654956804E+03  0.12499724408E+03 0.  0.
    9000005    1    3    3    0    0  0.39348404747E+02 -0.37442862877E+02 -0.13860803873E+02  0.56065914962E+02  0.10000000000E+01 0.  0.
    9000005    1    3    3    0    0 -0.39348404747E+02  0.37442862877E+02 -0.96204847392E+02  0.11048365308E+03  0.10000000000E+01 0.  0.
<mgrwt>
<rscale>  0 0.12499724E+03</rscale>
<asrwt>0</asrwt>
<pdfrwt beam="1">  1        4 0.43449167E-02 0.12499724E+03</pdfrwt>
<pdfrwt beam="2">  1       -4 0.21278093E-01 0.12499724E+03</pdfrwt>
<totfact> 0.96100680E+03</totfact>
</mgrwt>
</event>
<event>
 5    1  0.3235144E-002  0.1249985E+03  0.7818608E-02  0.1235072E+00
         -4   -1    0    0    0  501 -0.00000000000E+00  0.00000000000E+00  0.12196139272E+03  0.12196800488E+03  0.12700000000E+01 0.  1.
          4   -1    0    0  501    0  0.00000000000E+00 -0.00000000000E+00 -0.32007741358E+02  0.32032926916E+02  0.12700000000E+01 0.  1.
         25    2    1    2    0    0  0.00000000000E+00  0.00000000000E+00  0.89953651363E+02  0.15400093180E+03  0.12499851039E+03 0.  0.
    9000005    1    3    3    0    0  0.39287348161E+02 -0.88386610046E+01  0.10385071825E+03  0.11138935917E+03  0.10000000000E+01 0.  0.
    9000005    1    3    3    0    0 -0.39287348161E+02  0.88386610046E+01 -0.13897066890E+02  0.42611572630E+02  0.10000000000E+01 0.  0.
<mgrwt>
<rscale>  0 0.12499851E+03</rscale>
<asrwt>0</asrwt>
<pdfrwt beam="2">  1        4 0.49267138E-02 0.12499851E+03</pdfrwt>
<pdfrwt beam="1">  1       -4 0.18765737E-01 0.12499851E+03</pdfrwt>
<totfact> 0.98515286E+03</totfact>
</mgrwt>
</event>
<event>
 5    1  0.3235144E-002  0.1250033E+03  0.7818608E-02  0.1235064E+00
         -4   -1    0    0    0  501 -0.00000000000E+00  0.00000000000E+00  0.18549345479E+02  0.18592770576E+02  0.12700000000E+01 0.  1.
          4   -1    0    0  501    0  0.00000000000E+00 -0.00000000000E+00 -0.21030641133E+03  0.21031024594E+03  0.12700000000E+01 0.  1.
         25    2    1    2    0    0  0.00000000000E+00  0.00000000000E+00 -0.19175706585E+03  0.22890301651E+03  0.12500327462E+03 0.  0.
    9000005    1    3    3    0    0  0.22633068771E+01  0.45773181942E+02 -0.18077292023E+02  0.49275706286E+02  0.10000000000E+01 0.  0.
    9000005    1    3    3    0    0 -0.22633068771E+01 -0.45773181942E+02 -0.17367977383E+03  0.17962731023E+03  0.10000000000E+01 0.  0.
<mgrwt>
<rscale>  0 0.12500327E+03</rscale>
<asrwt>0</asrwt>
<pdfrwt beam="2">  1        4 0.32358466E-01 0.12500327E+03</pdfrwt>
<pdfrwt beam="1">  1       -4 0.28573810E-02 0.12500327E+03</pdfrwt>
<totfact> 0.85472080E+03</totfact>
</mgrwt>
</event>
<event>
 5    1  0.3235144E-002  0.1249897E+03  0.7818608E-02  0.1235085E+00
         -4   -1    0    0    0  501 -0.00000000000E+00  0.00000000000E+00  0.71653375401E+03  0.71653487950E+03  0.12700000000E+01 0. -1.
          4   -1    0    0  501    0  0.00000000000E+00 -0.00000000000E+00 -0.53755689969E+01  0.55235533890E+01  0.12700000000E+01 0. -1.
         25    2    1    2    0    0  0.00000000000E+00  0.00000000000E+00  0.71115818501E+03  0.72205843288E+03  0.12498966513E+03 0.  0.
    9000005    1    3    3    0    0 -0.20072084165E+00 -0.52872756991E+02  0.54796397387E+03  0.55050984132E+03  0.10000000000E+01 0.  0.
    9000005    1    3    3    0    0  0.20072084165E+00  0.52872756991E+02  0.16319421114E+03  0.17154859157E+03  0.10000000000E+01 0.  0.
<mgrwt>
<rscale>  0 0.12498967E+03</rscale>
<asrwt>0</asrwt>
<pdfrwt beam="2">  1        4 0.83848057E-03 0.12498967E+03</pdfrwt>
<pdfrwt beam="1">  1       -4 0.11024744E+00 0.12498967E+03</pdfrwt>
<totfact> 0.41957006E+03</totfact>
</mgrwt>
</event>
<event>
 5    1  0.3235144E-002  0.1249983E+03  0.7818608E-02  0.1235072E+00
         -4   -1    0    0    0  501 -0.00000000000E+00  0.00000000000E+00  0.39213522959E+03  0.39213728615E+03  0.12700000000E+01 0.  1.
          4   -1    0    0  501    0  0.00000000000E+00 -0.00000000000E+00 -0.99186475606E+01  0.99996234645E+01  0.12700000000E+01 0.  1.
         25    2    1    2    0    0  0.00000000000E+00  0.00000000000E+00  0.38221658203E+03  0.40213690961E+03  0.12499831396E+03 0.  0.
    9000005    1    3    3    0    0 -0.21338634096E+02  0.44923869911E+02  0.31283579020E+03  0.31676603830E+03  0.10000000000E+01 0.  0.
    9000005    1    3    3    0    0  0.21338634096E+02 -0.44923869911E+02  0.69380791837E+02  0.85370871314E+02  0.10000000000E+01 0.  0.
<mgrwt>
<rscale>  0 0.12499831E+03</rscale>
<asrwt>0</asrwt>
<pdfrwt beam="2">  1        4 0.15323325E-02 0.12499831E+03</pdfrwt>
<pdfrwt beam="1">  1       -4 0.60334898E-01 0.12499831E+03</pdfrwt>
<totfact> 0.64347870E+03</totfact>
</mgrwt>
</event>
<event>
 5    1  0.3235144E-002  0.1250008E+03  0.7818608E-02  0.1235068E+00
          4   -1    0    0  501    0  0.00000000000E+00  0.00000000000E+00  0.54658198856E+03  0.54658346400E+03  0.12700000000E+01 0.  1.
         -4   -1    0    0    0  501 -0.00000000000E+00 -0.00000000000E+00 -0.70888599917E+01  0.72017245145E+01  0.12700000000E+01 0.  1.
         25    2    1    2    0    0  0.00000000000E+00  0.00000000000E+00  0.53949312857E+03  0.55378518852E+03  0.12500079698E+03 0.  0.
    9000005    1    3    3    0    0  0.50884949881E+02  0.30347761020E+02  0.18169311151E+03  0.19111162051E+03  0.10000000000E+01 0.  0.
    9000005    1    3    3    0    0 -0.50884949881E+02 -0.30347761020E+02  0.35780001706E+03  0.36267356801E+03  0.10000000000E+01 0.  0.
<mgrwt>
<rscale>  0 0.12500080E+03</rscale>
<asrwt>0</asrwt>
<pdfrwt beam="1">  1        4 0.84098378E-01 0.12500080E+03</pdfrwt>
<pdfrwt beam="2">  1       -4 0.10993886E-02 0.12500080E+03</pdfrwt>
<totfact> 0.51920185E+03</totfact>
</mgrwt>
</event>
<event>
 5    1  0.3235144E-002  0.1250012E+03  0.7818608E-02  0.1235067E+00
         -4   -1    0    0    0  501 -0.00000000000E+00  0.00000000000E+00  0.62416795384E+03  0.62416924588E+03  0.12700000000E+01 0. -1.
          4   -1    0    0  501    0  0.00000000000E+00 -0.00000000000E+00 -0.61927109725E+01  0.63215954623E+01  0.12700000000E+01 0. -1.
         25    2    1    2    0    0  0.00000000000E+00  0.00000000000E+00  0.61797524287E+03  0.63049084134E+03  0.12500120086E+03 0.  0.
    9000005    1    3    3    0    0  0.36242061064E+02 -0.49710978904E+02  0.25358373737E+03  0.26094133493E+03  0.10000000000E+01 0.  0.
    9000005    1    3    3    0    0 -0.36242061064E+02  0.49710978904E+02  0.36439150549E+03  0.36954950641E+03  0.10000000000E+01 0.  0.
<mgrwt>
<rscale>  0 0.12500120E+03</rscale>
<asrwt>0</asrwt>
<pdfrwt beam="2">  1        4 0.96273843E-03 0.12500120E+03</pdfrwt>
<pdfrwt beam="1">  1       -4 0.96035844E-01 0.12500120E+03</pdfrwt>
<totfact> 0.46996586E+03</totfact>
</mgrwt>
</event>
<event>
 5    1  0.3235144E-002  0.1250002E+03  0.7818608E-02  0.1235069E+00
          4   -1    0    0  501    0  0.00000000000E+00  0.00000000000E+00  0.15158998903E+02  0.15212105303E+02  0.12700000000E+01 0. -1.
         -4   -1    0    0    0  501 -0.00000000000E+00 -0.00000000000E+00 -0.25718071809E+03  0.25718385380E+03  0.12700000000E+01 0. -1.
         25    2    1    2    0    0  0.00000000000E+00  0.00000000000E+00 -0.24202171919E+03  0.27239595910E+03  0.12500018392E+03 0.  0.
    9000005    1    3    3    0    0 -0.18194553189E+01 -0.32419023516E+00 -0.25713184039E+03  0.25714042634E+03  0.10000000000E+01 0.  0.
    9000005    1    3    3    0    0  0.18194553189E+01  0.32419023516E+00  0.15110121206E+02  0.15255532761E+02  0.10000000000E+01 0.  0.
<mgrwt>
<rscale>  0 0.12500018E+03</rscale>
<asrwt>0</asrwt>
<pdfrwt beam="1">  1        4 0.23364802E-02 0.12500018E+03</pdfrwt>
<pdfrwt beam="2">  1       -4 0.39570587E-01 0.12500018E+03</pdfrwt>
<totfact> 0.79196948E+03</totfact>
</mgrwt>
</event>
<event>
 5    1  0.3235144E-002  0.1250049E+03  0.7818608E-02  0.1235062E+00
          4   -1    0    0  501    0  0.00000000000E+00  0.00000000000E+00  0.43759636331E+02  0.43778061536E+02  0.12700000000E+01 0. -1.
         -4   -1    0    0    0  501 -0.00000000000E+00 -0.00000000000E+00 -0.89231345910E+02  0.89240383195E+02  0.12700000000E+01 0. -1.
         25    2    1    2    0    0  0.00000000000E+00  0.00000000000E+00 -0.45471709578E+02  0.13301844473E+03  0.12500492097E+03 0.  0.
    9000005    1    3    3    0    0  0.28166725893E+02  0.55648779274E+02 -0.18559123539E+02  0.65081427064E+02  0.10000000000E+01 0.  0.
    9000005    1    3    3    0    0 -0.28166725893E+02 -0.55648779274E+02 -0.26912586039E+02  0.67937017667E+02  0.10000000000E+01 0.  0.
<mgrwt>
<rscale>  0 0.12500492E+03</rscale>
<asrwt>0</asrwt>
<pdfrwt beam="1">  1        4 0.67343643E-02 0.12500492E+03</pdfrwt>
<pdfrwt beam="2">  1       -4 0.13730012E-01 0.12500492E+03</pdfrwt>
<totfact> 0.10278867E+04</totfact>
</mgrwt>
</event>
<event>
 4    1  0.3235144E-002  0.1251689E+03  0.7818608E-02  0.1234806E+00
          4   -1    0    0  501    0  0.00000000000E+00  0.00000000000E+00  0.63798119348E+03  0.63798245754E+03  0.12700000000E+01 0. -1.
         -4   -1    0    0    0  501 -0.00000000000E+00 -0.00000000000E+00 -0.60724228629E+01  0.62038068495E+01  0.12700000000E+01 0. -1.
    9000005    1    1    2    0    0  0.29332059822E+02  0.52861438109E+02  0.39911688615E+03  0.40367064568E+03  0.10000000000E+01 0.  0.
    9000005    1    1    2    0    0 -0.29332059822E+02 -0.52861438109E+02  0.23279188447E+03  0.24051561871E+03  0.10000000000E+01 0.  0.
<mgrwt>
<rscale>  0 0.12516888E+03</rscale>
<asrwt>0</asrwt>
<pdfrwt beam="1">  1        4 0.98161143E-01 0.12516888E+03</pdfrwt>
<pdfrwt beam="2">  1       -4 0.94442273E-03 0.12516888E+03</pdfrwt>
<totfact> 0.46021629E+03</totfact>
</mgrwt>
</event>
<event>
 5    1  0.3235144E-002  0.1249963E+03  0.7818608E-02  0.1235075E+00
         -4   -1    0    0    0  501 -0.00000000000E+00  0.00000000000E+00  0.57580822732E+01  0.58964744946E+01  0.12700000000E+01 0.  1.
          4   -1    0    0  501    0  0.00000000000E+00 -0.00000000000E+00 -0.67016017660E+03  0.67016137997E+03  0.12700000000E+01 0.  1.
         25    2    1    2    0    0  0.00000000000E+00  0.00000000000E+00 -0.66440209433E+03  0.67605785446E+03  0.12499631848E+03 0.  0.
    9000005    1    3    3    0    0  0.57621738338E+01  0.61917086083E+02 -0.36558224287E+03  0.37083460531E+03  0.10000000000E+01 0.  0.
    9000005    1    3    3    0    0 -0.57621738338E+01 -0.61917086083E+02 -0.29881985146E+03  0.30522324915E+03  0.10000000000E+01 0.  0.
<mgrwt>
<rscale>  0 0.12499632E+03</rscale>
<asrwt>0</asrwt>
<pdfrwt beam="2">  1        4 0.10311224E+00 0.12499632E+03</pdfrwt>
<pdfrwt beam="1">  1       -4 0.89659746E-03 0.12499632E+03</pdfrwt>
<totfact> 0.44384661E+03</totfact>
</mgrwt>
</event>
<event>
 5    1  0.3235144E-002  0.1249992E+03  0.7818608E-02  0.1235071E+00
         -4   -1    0    0    0  501 -0.00000000000E+00  0.00000000000E+00  0.95790456226E+01  0.96628678475E+01  0.12700000000E+01 0. -1.
          4   -1    0    0  501    0  0.00000000000E+00 -0.00000000000E+00 -0.40592440033E+03  0.40592638703E+03  0.12700000000E+01 0. -1.
         25    2    1    2    0    0  0.00000000000E+00  0.00000000000E+00 -0.39634535471E+03  0.41558925487E+03  0.12499915427E+03 0.  0.
    9000005    1    3    3    0    0  0.23021247888E+02 -0.23051114311E+02 -0.20871444429E+02  0.38703345047E+02  0.10000000000E+01 0.  0.
    9000005    1    3    3    0    0 -0.23021247888E+02  0.23051114311E+02 -0.37547391028E+03  0.37688590983E+03  0.10000000000E+01 0.  0.
<mgrwt>
<rscale>  0 0.12499915E+03</rscale>
<asrwt>0</asrwt>
<pdfrwt beam="2">  1        4 0.62456495E-01 0.12499915E+03</pdfrwt>
<pdfrwt beam="1">  1       -4 0.14803003E-02 0.12499915E+03</pdfrwt>
<totfact> 0.63065503E+03</totfact>
</mgrwt>
</event>
<event>
 5    1  0.3235144E-002  0.1250049E+03  0.7818608E-02  0.1235062E+00
          4   -1    0    0  501    0  0.00000000000E+00  0.00000000000E+00  0.19991648508E+02  0.20031947236E+02  0.12700000000E+01 0. -1.
         -4   -1    0    0    0  501 -0.00000000000E+00 -0.00000000000E+00 -0.19517036881E+03  0.19517450080E+03  0.12700000000E+01 0. -1.
         25    2    1    2    0    0  0.00000000000E+00  0.00000000000E+00 -0.17517872030E+03  0.21520644803E+03  0.12500492482E+03 0.  0.
    9000005    1    3    3    0    0 -0.45041698257E+02 -0.34905888165E+02 -0.43415312468E+02  0.71645411347E+02  0.10000000000E+01 0.  0.
    9000005    1    3    3    0    0  0.45041698257E+02  0.34905888165E+02 -0.13176340783E+03  0.14356103669E+03  0.10000000000E+01 0.  0.
<mgrwt>
<rscale>  0 0.12500492E+03</rscale>
<asrwt>0</asrwt>
<pdfrwt beam="1">  1        4 0.30790561E-02 0.12500492E+03</pdfrwt>
<pdfrwt beam="2">  1       -4 0.30029627E-01 0.12500492E+03</pdfrwt>
<totfact> 0.87622953E+03</totfact>
</mgrwt>
</event>
<event>
 5    1  0.3235144E-002  0.1250026E+03  0.7818608E-02  0.1235065E+00
         -4   -1    0    0    0  501 -0.00000000000E+00  0.00000000000E+00  0.12289077722E+02  0.12354526752E+02  0.12700000000E+01 0. -1.
          4   -1    0    0  501    0  0.00000000000E+00 -0.00000000000E+00 -0.31696607410E+03  0.31696861836E+03  0.12700000000E+01 0. -1.
         25    2    1    2    0    0  0.00000000000E+00  0.00000000000E+00 -0.30467699637E+03  0.32932314512E+03  0.12500264713E+03 0.  0.
    9000005    1    3    3    0    0 -0.31975676327E+02  0.27204443721E+02 -0.30382556350E+02  0.51832666969E+02  0.10000000000E+01 0.  0.
    9000005    1    3    3    0    0  0.31975676327E+02 -0.27204443721E+02 -0.27429444002E+03  0.27749047815E+03  0.10000000000E+01 0.  0.
<mgrwt>
<rscale>  0 0.12500265E+03</rscale>
<asrwt>0</asrwt>
<pdfrwt beam="2">  1        4 0.48769235E-01 0.12500265E+03</pdfrwt>
<pdfrwt beam="1">  1       -4 0.18958578E-02 0.12500265E+03</pdfrwt>
<totfact> 0.72056588E+03</totfact>
</mgrwt>
</event>
<event>
 5    1  0.3235144E-002  0.1250030E+03  0.7818608E-02  0.1235065E+00
          4   -1    0    0  501    0  0.00000000000E+00  0.00000000000E+00  0.26354275072E+03  0.26354581074E+03  0.12700000000E+01 0.  1.
         -4   -1    0    0    0  501 -0.00000000000E+00 -0.00000000000E+00 -0.14792425280E+02  0.14846842953E+02  0.12700000000E+01 0.  1.
         25    2    1    2    0    0  0.00000000000E+00  0.00000000000E+00  0.24875032544E+03  0.27839265369E+03  0.12500298085E+03 0.  0.
    9000005    1    3    3    0    0 -0.22784591102E+02  0.66476702069E+01 -0.43749414311E+01  0.24155107604E+02  0.10000000000E+01 0.  0.
    9000005    1    3    3    0    0  0.22784591102E+02 -0.66476702069E+01  0.25312526687E+03  0.25423754608E+03  0.10000000000E+01 0.  0.
<mgrwt>
<rscale>  0 0.12500298E+03</rscale>
<asrwt>0</asrwt>
<pdfrwt beam="1">  1        4 0.40549457E-01 0.12500298E+03</pdfrwt>
<pdfrwt beam="2">  1       -4 0.22801793E-02 0.12500298E+03</pdfrwt>
<totfact> 0.78386518E+03</totfact>
</mgrwt>
</event>
<event>
 5    1  0.3235144E-002  0.1249921E+03  0.7818608E-02  0.1235082E+00
         -4   -1    0    0    0  501 -0.00000000000E+00  0.00000000000E+00  0.11337684023E+03  0.11338395301E+03  0.12700000000E+01 0.  1.
          4   -1    0    0  501    0  0.00000000000E+00 -0.00000000000E+00 -0.34429436188E+02  0.34452851497E+02  0.12700000000E+01 0.  1.
         25    2    1    2    0    0  0.00000000000E+00  0.00000000000E+00  0.78947404042E+02  0.14783680451E+03  0.12499211240E+03 0.  0.
    9000005    1    3    3    0    0 -0.10439807157E+01 -0.19427382506E+02  0.10970911432E+03  0.11142532410E+03  0.10000000000E+01 0.  0.
    9000005    1    3    3    0    0  0.10439807157E+01  0.19427382506E+02 -0.30761710273E+02  0.36411480410E+02  0.10000000000E+01 0.  0.
<mgrwt>
<rscale>  0 0.12499211E+03</rscale>
<asrwt>0</asrwt>
<pdfrwt beam="2">  1        4 0.52991848E-02 0.12499211E+03</pdfrwt>
<pdfrwt beam="1">  1       -4 0.17444939E-01 0.12499211E+03</pdfrwt>
<totfact> 0.99754370E+03</totfact>
</mgrwt>
</event>
<event>
 5    1  0.3235144E-002  0.1250022E+03  0.7818608E-02  0.1235066E+00
         -4   -1    0    0    0  501 -0.00000000000E+00  0.00000000000E+00  0.47156807365E+02  0.47173905720E+02  0.12700000000E+01 0. -1.
          4   -1    0    0  501    0  0.00000000000E+00 -0.00000000000E+00 -0.82801233422E+02  0.82810972439E+02  0.12700000000E+01 0. -1.
         25    2    1    2    0    0  0.00000000000E+00  0.00000000000E+00 -0.35644426057E+02  0.12998487816E+03  0.12500217375E+03 0.  0.
    9000005    1    3    3    0    0  0.52641058235E+02 -0.12014575041E+02  0.14895501339E+02  0.56020594300E+02  0.10000000000E+01 0.  0.
    9000005    1    3    3    0    0 -0.52641058235E+02  0.12014575041E+02 -0.50539927396E+02  0.73964283859E+02  0.10000000000E+01 0.  0.
<mgrwt>
<rscale>  0 0.12500217E+03</rscale>
<asrwt>0</asrwt>
<pdfrwt beam="2">  1        4 0.12740716E-01 0.12500217E+03</pdfrwt>
<pdfrwt beam="1">  1       -4 0.72569579E-02 0.12500217E+03</pdfrwt>
<totfact> 0.10344323E+04</totfact>
</mgrwt>
</event>
<event>
 4    1  0.3235144E-002  0.1248778E+03  0.7818608E-02  0.1235260E+00
         -4   -1    0    0    0  501 -0.00000000000E+00  0.00000000000E+00  0.75359160434E+02  0.75369861094E+02  0.12700000000E+01 0. -1.
          4   -1    0    0  501    0  0.00000000000E+00 -0.00000000000E+00 -0.51711616391E+02  0.51727209182E+02  0.12700000000E+01 0. -1.
    9000005    1    1    2    0    0  0.52933782001E+01 -0.60513152182E+02 -0.28460330451E+01  0.60819087003E+02  0.10000000000E+01 0.  0.
    9000005    1    1    2    0    0 -0.52933782001E+01  0.60513152182E+02  0.26493577088E+02  0.66277983273E+02  0.10000000000E+01 0.  0.
<mgrwt>
<rscale>  0 0.12487778E+03</rscale>
<asrwt>0</asrwt>
<pdfrwt beam="2">  1        4 0.79576559E-02 0.12487778E+03</pdfrwt>
<pdfrwt beam="1">  1       -4 0.11595740E-01 0.12487778E+03</pdfrwt>
<totfact> 0.10435803E+04</totfact>
</mgrwt>
</event>
<event>
 5    1  0.3235144E-002  0.1250049E+03  0.7818608E-02  0.1235062E+00
          4   -1    0    0  501    0  0.00000000000E+00  0.00000000000E+00  0.42321510335E+03  0.42321700888E+03  0.12700000000E+01 0. -1.
         -4   -1    0    0    0  501 -0.00000000000E+00 -0.00000000000E+00 -0.91850467898E+01  0.92724314250E+01  0.12700000000E+01 0. -1.
         25    2    1    2    0    0  0.00000000000E+00  0.00000000000E+00  0.41403005656E+03  0.43248944031E+03  0.12500491286E+03 0.  0.
    9000005    1    3    3    0    0 -0.26206628058E+02  0.38196478832E+02  0.35215262384E+03  0.35518759667E+03  0.10000000000E+01 0.  0.
    9000005    1    3    3    0    0  0.26206628058E+02 -0.38196478832E+02  0.61877432720E+02  0.77301843635E+02  0.10000000000E+01 0.  0.
<mgrwt>
<rscale>  0 0.12500491E+03</rscale>
<asrwt>0</asrwt>
<pdfrwt beam="1">  1        4 0.65116878E-01 0.12500491E+03</pdfrwt>
<pdfrwt beam="2">  1       -4 0.14199527E-02 0.12500491E+03</pdfrwt>
<totfact> 0.61504325E+03</totfact>
</mgrwt>
</event>
<event>
 5    1  0.3235144E-002  0.1250005E+03  0.7818608E-02  0.1235068E+00
          4   -1    0    0  501    0  0.00000000000E+00  0.00000000000E+00  0.18545187834E+02  0.18588622644E+02  0.12700000000E+01 0. -1.
         -4   -1    0    0    0  501 -0.00000000000E+00 -0.00000000000E+00 -0.21034426360E+03  0.21034809752E+03  0.12700000000E+01 0. -1.
         25    2    1    2    0    0  0.00000000000E+00  0.00000000000E+00 -0.19179907577E+03  0.22893672016E+03  0.12500054549E+03 0.  0.
    9000005    1    3    3    0    0 -0.32418503366E+02  0.52114183411E+02 -0.74350442536E+02  0.96414914709E+02  0.10000000000E+01 0.  0.
    9000005    1    3    3    0    0  0.32418503366E+02 -0.52114183411E+02 -0.11744863323E+03  0.13252180545E+03  0.10000000000E+01 0.  0.
<mgrwt>
<rscale>  0 0.12500055E+03</rscale>
<asrwt>0</asrwt>
<pdfrwt beam="1">  1        4 0.28567420E-02 0.12500055E+03</pdfrwt>
<pdfrwt beam="2">  1       -4 0.32364290E-01 0.12500055E+03</pdfrwt>
<totfact> 0.85472093E+03</totfact>
</mgrwt>
</event>
<event>
 5    1  0.3235144E-002  0.1250008E+03  0.7818608E-02  0.1235068E+00
          4   -1    0    0  501    0  0.00000000000E+00  0.00000000000E+00  0.81078568743E+01  0.82067193868E+01  0.12700000000E+01 0.  1.
         -4   -1    0    0    0  501 -0.00000000000E+00 -0.00000000000E+00 -0.47877300766E+03  0.47877469207E+03  0.12700000000E+01 0.  1.
         25    2    1    2    0    0  0.00000000000E+00  0.00000000000E+00 -0.47066515079E+03  0.48698141146E+03  0.12500084375E+03 0.  0.
    9000005    1    3    3    0    0  0.38418821028E+02 -0.44765816770E+02 -0.31567716083E+03  0.32114335433E+03  0.10000000000E+01 0.  0.
    9000005    1    3    3    0    0 -0.38418821028E+02  0.44765816770E+02 -0.15498798995E+03  0.16583805712E+03  0.10000000000E+01 0.  0.
<mgrwt>
<rscale>  0 0.12500084E+03</rscale>
<asrwt>0</asrwt>
<pdfrwt beam="1">  1        4 0.12550973E-02 0.12500084E+03</pdfrwt>
<pdfrwt beam="2">  1       -4 0.73665098E-01 0.12500084E+03</pdfrwt>
<totfact> 0.56887742E+03</totfact>
</mgrwt>
</event>
<event>
 5    1  0.3235144E-002  0.1249989E+03  0.7818608E-02  0.1235071E+00
         -4   -1    0    0    0  501 -0.00000000000E+00  0.00000000000E+00  0.14921424695E+02  0.14975373615E+02  0.12700000000E+01 0. -1.
          4   -1    0    0  501    0  0.00000000000E+00 -0.00000000000E+00 -0.26125531226E+03  0.26125839907E+03  0.12700000000E+01 0. -1.
         25    2    1    2    0    0  0.00000000000E+00  0.00000000000E+00 -0.24633388756E+03  0.27623377268E+03  0.12499885203E+03 0.  0.
    9000005    1    3    3    0    0 -0.46004517718E+02  0.41721163473E+02 -0.10783929890E+03  0.12444832470E+03  0.10000000000E+01 0.  0.
    9000005    1    3    3    0    0  0.46004517718E+02 -0.41721163473E+02 -0.13849458866E+03  0.15178544799E+03  0.10000000000E+01 0.  0.
<mgrwt>
<rscale>  0 0.12499885E+03</rscale>
<asrwt>0</asrwt>
<pdfrwt beam="2">  1        4 0.40197509E-01 0.12499885E+03</pdfrwt>
<pdfrwt beam="1">  1       -4 0.22999914E-02 0.12499885E+03</pdfrwt>
<totfact> 0.78682154E+03</totfact>
</mgrwt>
</event>
<event>
 5    1  0.3235144E-002  0.1249993E+03  0.7818608E-02  0.1235070E+00
         -4   -1    0    0    0  501 -0.00000000000E+00  0.00000000000E+00  0.69241562865E+02  0.69253208792E+02  0.12700000000E+01 0. -1.
          4   -1    0    0  501    0  0.00000000000E+00 -0.00000000000E+00 -0.56390672652E+02  0.56404971963E+02  0.12700000000E+01 0. -1.
         25    2    1    2    0    0  0.00000000000E+00  0.00000000000E+00  0.12850890213E+02  0.12565818075E+03  0.12499933204E+03 0.  0.
    9000005    1    3    3    0    0 -0.28103317359E+02 -0.81650044558E+01  0.61931912849E+02  0.68505660886E+02  0.10000000000E+01 0.  0.
    9000005    1    3    3    0    0  0.28103317359E+02  0.81650044558E+01 -0.49081022636E+02  0.57152519869E+02  0.10000000000E+01 0.  0.
<mgrwt>
<rscale>  0 0.12499933E+03</rscale>
<asrwt>0</asrwt>
<pdfrwt beam="2">  1        4 0.86774839E-02 0.12499933E+03</pdfrwt>
<pdfrwt beam="1">  1       -4 0.10654544E-01 0.12499933E+03</pdfrwt>
<totfact> 0.10438622E+04</totfact>
</mgrwt>
</event>
<event>
 5    1  0.3235144E-002  0.1250005E+03  0.7818608E-02  0.1235069E+00
          4   -1    0    0  501    0  0.00000000000E+00  0.00000000000E+00  0.79933138852E+01  0.80935756540E+01  0.12700000000E+01 0. -1.
         -4   -1    0    0    0  501 -0.00000000000E+00 -0.00000000000E+00 -0.48554633109E+03  0.48554799200E+03  0.12700000000E+01 0. -1.
         25    2    1    2    0    0  0.00000000000E+00  0.00000000000E+00 -0.47755301720E+03  0.49364156765E+03  0.12500045230E+03 0.  0.
    9000005    1    3    3    0    0  0.34772049329E+02 -0.45370236011E+02 -0.13904860209E+03  0.15034316570E+03  0.10000000000E+01 0.  0.
    9000005    1    3    3    0    0 -0.34772049329E+02  0.45370236011E+02 -0.33850441511E+03  0.34329840195E+03  0.10000000000E+01 0.  0.
<mgrwt>
<rscale>  0 0.12500045E+03</rscale>
<asrwt>0</asrwt>
<pdfrwt beam="1">  1        4 0.12375812E-02 0.12500045E+03</pdfrwt>
<pdfrwt beam="2">  1       -4 0.74707253E-01 0.12500045E+03</pdfrwt>
<totfact> 0.56360549E+03</totfact>
</mgrwt>
</event>
<event>
 5    1  0.3235144E-002  0.1249804E+03  0.7818608E-02  0.1235100E+00
         -4   -1    0    0    0  501 -0.00000000000E+00  0.00000000000E+00  0.31164003700E+02  0.31189870577E+02  0.12700000000E+01 0. -1.
          4   -1    0    0  501    0  0.00000000000E+00 -0.00000000000E+00 -0.12522446022E+03  0.12523090009E+03  0.12700000000E+01 0. -1.
         25    2    1    2    0    0  0.00000000000E+00  0.00000000000E+00 -0.94060456519E+02  0.15642077067E+03  0.12498035052E+03 0.  0.
    9000005    1    3    3    0    0 -0.39453405485E+02  0.47686235952E+02 -0.36302231374E+02  0.71759322087E+02  0.10000000000E+01 0.  0.
    9000005    1    3    3    0    0  0.39453405485E+02 -0.47686235952E+02 -0.57758225145E+02  0.84661448579E+02  0.10000000000E+01 0.  0.
<mgrwt>
<rscale>  0 0.12498035E+03</rscale>
<asrwt>0</asrwt>
<pdfrwt beam="2">  1        4 0.19267786E-01 0.12498035E+03</pdfrwt>
<pdfrwt beam="1">  1       -4 0.47969473E-02 0.12498035E+03</pdfrwt>
<totfact> 0.98080634E+03</totfact>
</mgrwt>
</event>
<event>
 5    1  0.3235144E-002  0.1249994E+03  0.7818608E-02  0.1235070E+00
          4   -1    0    0  501    0  0.00000000000E+00  0.00000000000E+00  0.57000600095E+03  0.57000741576E+03  0.12700000000E+01 0.  1.
         -4   -1    0    0    0  501 -0.00000000000E+00 -0.00000000000E+00 -0.67926521780E+01  0.69103562579E+01  0.12700000000E+01 0.  1.
         25    2    1    2    0    0  0.00000000000E+00  0.00000000000E+00  0.56321334877E+03  0.57691777202E+03  0.12499935773E+03 0.  0.
    9000005    1    3    3    0    0 -0.26843457922E+01  0.22054948038E+02  0.12028869124E+02  0.25284780753E+02  0.10000000000E+01 0.  0.
    9000005    1    3    3    0    0  0.26843457922E+01 -0.22054948038E+02  0.55118447965E+03  0.55163299126E+03  0.10000000000E+01 0.  0.
<mgrwt>
<rscale>  0 0.12499936E+03</rscale>
<asrwt>0</asrwt>
<pdfrwt beam="1">  1        4 0.87702353E-01 0.12499936E+03</pdfrwt>
<pdfrwt beam="2">  1       -4 0.10541869E-02 0.12499936E+03</pdfrwt>
<totfact> 0.50358540E+03</totfact>
</mgrwt>
</event>
<event>
 5    1  0.3235144E-002  0.1250023E+03  0.7818608E-02  0.1235066E+00
          4   -1    0    0  501    0  0.00000000000E+00  0.00000000000E+00  0.38096157215E+01  0.40157280717E+01  0.12700000000E+01 0.  1.
         -4   -1    0    0    0  501 -0.00000000000E+00 -0.00000000000E+00 -0.99818949796E+03  0.99819030588E+03  0.12700000000E+01 0.  1.
         25    2    1    2    0    0  0.00000000000E+00  0.00000000000E+00 -0.99437988224E+03  0.10022060339E+04  0.12500233707E+03 0.  0.
    9000005    1    3    3    0    0 -0.40900917887E+02 -0.44090633676E+02 -0.36100405052E+03  0.36598059177E+03  0.10000000000E+01 0.  0.
    9000005    1    3    3    0    0  0.40900917887E+02  0.44090633676E+02 -0.63337583172E+03  0.63622544217E+03  0.10000000000E+01 0.  0.
<mgrwt>
<rscale>  0 0.12500234E+03</rscale>
<asrwt>0</asrwt>
<pdfrwt beam="1">  1        4 0.60201246E-03 0.12500234E+03</pdfrwt>
<pdfrwt beam="2">  1       -4 0.15358333E+00 0.12500234E+03</pdfrwt>
<totfact> 0.30530240E+03</totfact>
</mgrwt>
</event>
<event>
 5    1  0.3235144E-002  0.1249999E+03  0.7818608E-02  0.1235069E+00
         -4   -1    0    0    0  501 -0.00000000000E+00  0.00000000000E+00  0.18548447835E+03  0.18548882610E+03  0.12700000000E+01 0. -1.
          4   -1    0    0  501    0  0.00000000000E+00 -0.00000000000E+00 -0.21035926836E+02  0.21074228760E+02  0.12700000000E+01 0. -1.
         25    2    1    2    0    0  0.00000000000E+00  0.00000000000E+00  0.16444855151E+03  0.20656305486E+03  0.12499987815E+03 0.  0.
    9000005    1    3    3    0    0 -0.13814973968E+02  0.54034277725E+02  0.35639848553E+02  0.66194829706E+02  0.10000000000E+01 0.  0.
    9000005    1    3    3    0    0  0.13814973968E+02 -0.54034277725E+02  0.12880870296E+03  0.14036822515E+03  0.10000000000E+01 0.  0.
<mgrwt>
<rscale>  0 0.12499988E+03</rscale>
<asrwt>0</asrwt>
<pdfrwt beam="2">  1        4 0.32395770E-02 0.12499988E+03</pdfrwt>
<pdfrwt beam="1">  1       -4 0.28539356E-01 0.12499988E+03</pdfrwt>
<totfact> 0.89040514E+03</totfact>
</mgrwt>
</event>
<event>
 5    1  0.3235144E-002  0.1250091E+03  0.7818608E-02  0.1235055E+00
         -4   -1    0    0    0  501 -0.00000000000E+00  0.00000000000E+00  0.51871487005E+03  0.51871642476E+03  0.12700000000E+01 0. -1.
          4   -1    0    0  501    0  0.00000000000E+00 -0.00000000000E+00 -0.74766177038E+01  0.75837136212E+01  0.12700000000E+01 0. -1.
         25    2    1    2    0    0  0.00000000000E+00  0.00000000000E+00  0.51123825235E+03  0.52630013838E+03  0.12500913964E+03 0.  0.
    9000005    1    3    3    0    0  0.59330718723E+02  0.19431711846E+02  0.26759803558E+03  0.27478616097E+03  0.10000000000E+01 0.  0.
    9000005    1    3    3    0    0 -0.59330718723E+02 -0.19431711846E+02  0.24364021676E+03  0.25151397741E+03  0.10000000000E+01 0.  0.
<mgrwt>
<rscale>  0 0.12500914E+03</rscale>
<asrwt>0</asrwt>
<pdfrwt beam="2">  1        4 0.11586067E-02 0.12500914E+03</pdfrwt>
<pdfrwt beam="1">  1       -4 0.79810641E-01 0.12500914E+03</pdfrwt>
<totfact> 0.53869202E+03</totfact>
</mgrwt>
</event>
<event>
 5    1  0.3235144E-002  0.1250008E+03  0.7818608E-02  0.1235068E+00
          4   -1    0    0  501    0  0.00000000000E+00  0.00000000000E+00  0.57141737279E+03  0.57141878411E+03  0.12700000000E+01 0.  1.
         -4   -1    0    0    0  501 -0.00000000000E+00 -0.00000000000E+00 -0.67757431746E+01  0.68937359659E+01  0.12700000000E+01 0.  1.
         25    2    1    2    0    0  0.00000000000E+00  0.00000000000E+00  0.56464162962E+03  0.57831252007E+03  0.12500080389E+03 0.  0.
    9000005    1    3    3    0    0 -0.17692851311E+02 -0.58375739630E+02  0.21947292971E+03  0.22779405356E+03  0.10000000000E+01 0.  0.
    9000005    1    3    3    0    0  0.17692851311E+02  0.58375739630E+02  0.34516869991E+03  0.35051846651E+03  0.10000000000E+01 0.  0.
<mgrwt>
<rscale>  0 0.12500080E+03</rscale>
<asrwt>0</asrwt>
<pdfrwt beam="1">  1        4 0.87919542E-01 0.12500080E+03</pdfrwt>
<pdfrwt beam="2">  1       -4 0.10516071E-02 0.12500080E+03</pdfrwt>
<totfact> 0.50264958E+03</totfact>
</mgrwt>
</event>
<event>
 5    1  0.3235144E-002  0.1249634E+03  0.7818608E-02  0.1235126E+00
         -4   -1    0    0    0  501 -0.00000000000E+00  0.00000000000E+00  0.47212200117E+02  0.47229278418E+02  0.12700000000E+01 0.  1.
          4   -1    0    0  501    0  0.00000000000E+00 -0.00000000000E+00 -0.82652841457E+02  0.82662597956E+02  0.12700000000E+01 0.  1.
         25    2    1    2    0    0  0.00000000000E+00  0.00000000000E+00 -0.35440641340E+02  0.12989187637E+03  0.12496343661E+03 0.  0.
    9000005    1    3    3    0    0  0.50970985934E+02  0.42225359513E+01 -0.55011330772E+02  0.75120687764E+02  0.10000000000E+01 0.  0.
    9000005    1    3    3    0    0 -0.50970985934E+02 -0.42225359513E+01  0.19570689432E+02  0.54771188610E+02  0.10000000000E+01 0.  0.
<mgrwt>
<rscale>  0 0.12496344E+03</rscale>
<asrwt>0</asrwt>
<pdfrwt beam="2">  1        4 0.12717886E-01 0.12496344E+03</pdfrwt>
<pdfrwt beam="1">  1       -4 0.72654796E-02 0.12496344E+03</pdfrwt>
<totfact> 0.10355365E+04</totfact>
</mgrwt>
</event>
<event>
 5    1  0.3235144E-002  0.1250006E+03  0.7818608E-02  0.1235068E+00
         -4   -1    0    0    0  501 -0.00000000000E+00  0.00000000000E+00  0.92323231247E+01  0.93192644709E+01  0.12700000000E+01 0. -1.
          4   -1    0    0  501    0  0.00000000000E+00 -0.00000000000E+00 -0.42103885556E+03  0.42104077094E+03  0.12700000000E+01 0. -1.
         25    2    1    2    0    0  0.00000000000E+00  0.00000000000E+00 -0.41180653244E+03  0.43036003541E+03  0.12500055968E+03 0.  0.
    9000005    1    3    3    0    0  0.57279450429E+02  0.24469570348E+02 -0.18848711122E+03  0.19851470074E+03  0.10000000000E+01 0.  0.
    9000005    1    3    3    0    0 -0.57279450429E+02 -0.24469570348E+02 -0.22331942122E+03  0.23184533467E+03  0.10000000000E+01 0.  0.
<mgrwt>
<rscale>  0 0.12500056E+03</rscale>
<asrwt>0</asrwt>
<pdfrwt beam="2">  1        4 0.64782029E-01 0.12500056E+03</pdfrwt>
<pdfrwt beam="1">  1       -4 0.14271929E-02 0.12500056E+03</pdfrwt>
<totfact> 0.61702615E+03</totfact>
</mgrwt>
</event>
<event>
 5    1  0.3235144E-002  0.1250033E+03  0.7818608E-02  0.1235064E+00
          4   -1    0    0  501    0  0.00000000000E+00  0.00000000000E+00  0.71148456249E+02  0.71159790097E+02  0.12700000000E+01 0.  1.
         -4   -1    0    0    0  501 -0.00000000000E+00 -0.00000000000E+00 -0.54882615457E+02  0.54897307579E+02  0.12700000000E+01 0.  1.
         25    2    1    2    0    0  0.00000000000E+00  0.00000000000E+00  0.16265840792E+02  0.12605709768E+03  0.12500325715E+03 0.  0.
    9000005    1    3    3    0    0  0.20989219324E+02 -0.52014408975E+02 -0.19656751356E+02  0.59442694612E+02  0.10000000000E+01 0.  0.
    9000005    1    3    3    0    0 -0.20989219324E+02  0.52014408975E+02  0.35922592149E+02  0.66614403064E+02  0.10000000000E+01 0.  0.
<mgrwt>
<rscale>  0 0.12500326E+03</rscale>
<asrwt>0</asrwt>
<pdfrwt beam="1">  1        4 0.10947918E-01 0.12500326E+03</pdfrwt>
<pdfrwt beam="2">  1       -4 0.84454813E-02 0.12500326E+03</pdfrwt>
<totfact> 0.10428939E+04</totfact>
</mgrwt>
</event>
<event>
 5    1  0.3235144E-002  0.1249991E+03  0.7818608E-02  0.1235071E+00
         -4   -1    0    0    0  501 -0.00000000000E+00  0.00000000000E+00  0.15161108884E+03  0.15161640795E+03  0.12700000000E+01 0. -1.
          4   -1    0    0  501    0  0.00000000000E+00 -0.00000000000E+00 -0.25743157043E+02  0.25774464777E+02  0.12700000000E+01 0. -1.
         25    2    1    2    0    0  0.00000000000E+00  0.00000000000E+00  0.12586793180E+03  0.17739087273E+03  0.12499914188E+03 0.  0.
    9000005    1    3    3    0    0 -0.36399917183E+02  0.42153465507E+02  0.22711321309E+02  0.60155404917E+02  0.10000000000E+01 0.  0.
    9000005    1    3    3    0    0  0.36399917183E+02 -0.42153465507E+02  0.10315661049E+03  0.11723546781E+03  0.10000000000E+01 0.  0.
<mgrwt>
<rscale>  0 0.12499914E+03</rscale>
<asrwt>0</asrwt>
<pdfrwt beam="2">  1        4 0.39633032E-02 0.12499914E+03</pdfrwt>
<pdfrwt beam="1">  1       -4 0.23327600E-01 0.12499914E+03</pdfrwt>
<totfact> 0.94090585E+03</totfact>
</mgrwt>
</event>
<event>
 4    1  0.3235144E-002  0.1248950E+03  0.7818608E-02  0.1235233E+00
          4   -1    0    0  501    0  0.00000000000E+00  0.00000000000E+00  0.16084379612E+03  0.16084880992E+03  0.12700000000E+01 0.  1.
         -4   -1    0    0    0  501 -0.00000000000E+00 -0.00000000000E+00 -0.24223174676E+02  0.24256444327E+02  0.12700000000E+01 0.  1.
    9000005    1    1    2    0    0  0.28684366207E+02 -0.50764429078E+02  0.10141331711E+03  0.11698496062E+03  0.10000000000E+01 0.  0.
    9000005    1    1    2    0    0 -0.28684366207E+02  0.50764429078E+02  0.35207304338E+02  0.68120293621E+02  0.10000000000E+01 0.  0.
<mgrwt>
<rscale>  0 0.12489500E+03</rscale>
<asrwt>0</asrwt>
<pdfrwt beam="1">  1        4 0.24748144E-01 0.12489500E+03</pdfrwt>
<pdfrwt beam="2">  1       -4 0.37295871E-02 0.12489500E+03</pdfrwt>
<totfact> 0.92924515E+03</totfact>
</mgrwt>
</event>
<event>
 5    1  0.3235144E-002  0.1250012E+03  0.7818608E-02  0.1235067E+00
         -4   -1    0    0    0  501 -0.00000000000E+00  0.00000000000E+00  0.39261306572E+02  0.39281841781E+02  0.12700000000E+01 0. -1.
          4   -1    0    0  501    0  0.00000000000E+00 -0.00000000000E+00 -0.99444887152E+02  0.99452996339E+02  0.12700000000E+01 0. -1.
         25    2    1    2    0    0  0.00000000000E+00  0.00000000000E+00 -0.60183580581E+02  0.13873483812E+03  0.12500116774E+03 0.  0.
    9000005    1    3    3    0    0 -0.56730113712E+02  0.16878575432E+02 -0.52348203224E+02  0.79022316412E+02  0.10000000000E+01 0.  0.
    9000005    1    3    3    0    0  0.56730113712E+02 -0.16878575432E+02 -0.78353773566E+01  0.59712521708E+02  0.10000000000E+01 0.  0.
<mgrwt>
<rscale>  0 0.12500117E+03</rscale>
<asrwt>0</asrwt>
<pdfrwt beam="2">  1        4 0.15301417E-01 0.12500117E+03</pdfrwt>
<pdfrwt beam="1">  1       -4 0.60424045E-02 0.12500117E+03</pdfrwt>
<totfact> 0.10159607E+04</totfact>
</mgrwt>
</event>
<event>
 5    1  0.3235144E-002  0.1250000E+03  0.7818608E-02  0.1235069E+00
         -4   -1    0    0    0  501 -0.00000000000E+00  0.00000000000E+00  0.52985628065E+01  0.54486390791E+01  0.12700000000E+01 0. -1.
          4   -1    0    0  501    0  0.00000000000E+00 -0.00000000000E+00 -0.72678287092E+03  0.72678398053E+03  0.12700000000E+01 0. -1.
         25    2    1    2    0    0  0.00000000000E+00  0.00000000000E+00 -0.72148430811E+03  0.73223261961E+03  0.12500000949E+03 0.  0.
    9000005    1    3    3    0    0  0.15791520628E+02 -0.60357470916E+02 -0.33974013166E+03  0.34542257234E+03  0.10000000000E+01 0.  0.
    9000005    1    3    3    0    0 -0.15791520628E+02  0.60357470916E+02 -0.38174417645E+03  0.38681004727E+03  0.10000000000E+01 0.  0.
<mgrwt>
<rscale>  0 0.12500001E+03</rscale>
<asrwt>0</asrwt>
<pdfrwt beam="2">  1        4 0.11182430E+00 0.12500001E+03</pdfrwt>
<pdfrwt beam="1">  1       -4 0.82679377E-03 0.12500001E+03</pdfrwt>
<totfact> 0.41438725E+03</totfact>
</mgrwt>
</event>
<event>
 5    1  0.3235144E-002  0.1250139E+03  0.7818608E-02  0.1235048E+00
          4   -1    0    0  501    0  0.00000000000E+00  0.00000000000E+00  0.39316565367E+03  0.39316770484E+03  0.12700000000E+01 0.  1.
         -4   -1    0    0    0  501 -0.00000000000E+00 -0.00000000000E+00 -0.98949292083E+01  0.99760976357E+01  0.12700000000E+01 0.  1.
         25    2    1    2    0    0  0.00000000000E+00  0.00000000000E+00  0.38327072446E+03  0.40314380247E+03  0.12501390819E+03 0.  0.
    9000005    1    3    3    0    0  0.92905386878E+01 -0.81996607079E+01 -0.59096646149E+01  0.13764907580E+02  0.10000000000E+01 0.  0.
    9000005    1    3    3    0    0 -0.92905386878E+01  0.81996607079E+01  0.38918038908E+03  0.38937889489E+03  0.10000000000E+01 0.  0.
<mgrwt>
<rscale>  0 0.12501391E+03</rscale>
<asrwt>0</asrwt>
<pdfrwt beam="1">  1        4 0.60493415E-01 0.12501391E+03</pdfrwt>
<pdfrwt beam="2">  1       -4 0.15286986E-02 0.12501391E+03</pdfrwt>
<totfact> 0.64228455E+03</totfact>
</mgrwt>
</event>
<event>
 5    1  0.3235144E-002  0.1250032E+03  0.7818608E-02  0.1235064E+00
          4   -1    0    0  501    0  0.00000000000E+00  0.00000000000E+00  0.18476121553E+03  0.18476558030E+03  0.12700000000E+01 0. -1.
         -4   -1    0    0    0  501 -0.00000000000E+00 -0.00000000000E+00 -0.21119561450E+02  0.21157711971E+02  0.12700000000E+01 0. -1.
         25    2    1    2    0    0  0.00000000000E+00  0.00000000000E+00  0.16364165408E+03  0.20592329227E+03  0.12500324536E+03 0.  0.
    9000005    1    3    3    0    0  0.14699496935E+02 -0.16280108347E+02 -0.14578133597E+02  0.26356007230E+02  0.10000000000E+01 0.  0.
    9000005    1    3    3    0    0 -0.14699496935E+02  0.16280108347E+02  0.17821978767E+03  0.17956728504E+03  0.10000000000E+01 0.  0.
<mgrwt>
<rscale>  0 0.12500325E+03</rscale>
<asrwt>0</asrwt>
<pdfrwt beam="1">  1        4 0.28428072E-01 0.12500325E+03</pdfrwt>
<pdfrwt beam="2">  1       -4 0.32524337E-02 0.12500325E+03</pdfrwt>
<totfact> 0.89139548E+03</totfact>
</mgrwt>
</event>
<event>
 5    1  0.3235144E-002  0.1249855E+03  0.7818608E-02  0.1235092E+00
          4   -1    0    0  501    0  0.00000000000E+00  0.00000000000E+00  0.23909578238E+03  0.23909915527E+03  0.12700000000E+01 0. -1.
         -4   -1    0    0    0  501 -0.00000000000E+00 -0.00000000000E+00 -0.16305630962E+02  0.16355014555E+02  0.12700000000E+01 0. -1.
         25    2    1    2    0    0  0.00000000000E+00  0.00000000000E+00  0.22279015142E+03  0.25545416982E+03  0.12498552441E+03 0.  0.
    9000005    1    3    3    0    0 -0.57040556715E+02  0.23622164834E+02  0.91715085573E+02  0.11056350530E+03  0.10000000000E+01 0.  0.
    9000005    1    3    3    0    0  0.57040556715E+02 -0.23622164834E+02  0.13107506584E+03  0.14489066453E+03  0.10000000000E+01 0.  0.
<mgrwt>
<rscale>  0 0.12498552E+03</rscale>
<asrwt>0</asrwt>
<pdfrwt beam="1">  1        4 0.36788021E-01 0.12498552E+03</pdfrwt>
<pdfrwt beam="2">  1       -4 0.25126170E-02 0.12498552E+03</pdfrwt>
<totfact> 0.81574559E+03</totfact>
</mgrwt>
</event>
<event>
 5    1  0.3235144E-002  0.1250020E+03  0.7818608E-02  0.1235066E+00
          4   -1    0    0  501    0  0.00000000000E+00  0.00000000000E+00  0.19292772694E+03  0.19293190695E+03  0.12700000000E+01 0. -1.
         -4   -1    0    0    0  501 -0.00000000000E+00 -0.00000000000E+00 -0.20223557573E+02  0.20263395098E+02  0.12700000000E+01 0. -1.
         25    2    1    2    0    0  0.00000000000E+00  0.00000000000E+00  0.17270416936E+03  0.21319530205E+03  0.12500202679E+03 0.  0.
    9000005    1    3    3    0    0  0.17219334904E+02  0.59843611626E+02  0.95314394545E+02  0.11385779356E+03  0.10000000000E+01 0.  0.
    9000005    1    3    3    0    0 -0.17219334904E+02 -0.59843611626E+02  0.77389774820E+02  0.99337508493E+02  0.10000000000E+01 0.  0.
<mgrwt>
<rscale>  0 0.12500203E+03</rscale>
<asrwt>0</asrwt>
<pdfrwt beam="1">  1        4 0.29684575E-01 0.12500203E+03</pdfrwt>
<pdfrwt beam="2">  1       -4 0.31147025E-02 0.12500203E+03</pdfrwt>
<totfact> 0.87952706E+03</totfact>
</mgrwt>
</event>
<event>
 5    1  0.3235144E-002  0.1250001E+03  0.7818608E-02  0.1235069E+00
         -4   -1    0    0    0  501 -0.00000000000E+00  0.00000000000E+00  0.71988775889E+01  0.73100436756E+01  0.12700000000E+01 0. -1.
          4   -1    0    0  501    0  0.00000000000E+00 -0.00000000000E+00 -0.53835099386E+03  0.53835249186E+03  0.12700000000E+01 0. -1.
         25    2    1    2    0    0  0.00000000000E+00  0.00000000000E+00 -0.53115211627E+03  0.54566253554E+03  0.12500012826E+03 0.  0.
    9000005    1    3    3    0    0  0.36369945195E+02 -0.48938399981E+02 -0.32535321937E+03  0.33101881708E+03  0.10000000000E+01 0.  0.
    9000005    1    3    3    0    0 -0.36369945195E+02  0.48938399981E+02 -0.20579889690E+03  0.21464371846E+03  0.10000000000E+01 0.  0.
<mgrwt>
<rscale>  0 0.12500013E+03</rscale>
<asrwt>0</asrwt>
<pdfrwt beam="2">  1        4 0.82831865E-01 0.12500013E+03</pdfrwt>
<pdfrwt beam="1">  1       -4 0.11161865E-02 0.12500013E+03</pdfrwt>
<totfact> 0.52487639E+03</totfact>
</mgrwt>
</event>
<event>
 5    1  0.3235144E-002  0.1249999E+03  0.7818608E-02  0.1235069E+00
          4   -1    0    0  501    0  0.00000000000E+00  0.00000000000E+00  0.67577941589E+02  0.67589874163E+02  0.12700000000E+01 0. -1.
         -4   -1    0    0    0  501 -0.00000000000E+00 -0.00000000000E+00 -0.57779513338E+02  0.57793469022E+02  0.12700000000E+01 0. -1.
         25    2    1    2    0    0  0.00000000000E+00  0.00000000000E+00  0.97984282504E+01  0.12538334318E+03  0.12499989421E+03 0.  0.
    9000005    1    3    3    0    0  0.27706419210E+02  0.56014203562E+02  0.49814526311E+01  0.62698098348E+02  0.10000000000E+01 0.  0.
    9000005    1    3    3    0    0 -0.27706419210E+02 -0.56014203562E+02  0.48169756193E+01  0.62685244837E+02  0.10000000000E+01 0.  0.
<mgrwt>
<rscale>  0 0.12499989E+03</rscale>
<asrwt>0</asrwt>
<pdfrwt beam="1">  1        4 0.10398598E-01 0.12499989E+03</pdfrwt>
<pdfrwt beam="2">  1       -4 0.88911473E-02 0.12499989E+03</pdfrwt>
<totfact> 0.10444561E+04</totfact>
</mgrwt>
</event>
<event>
 5    1  0.3235144E-002  0.1249961E+03  0.7818608E-02  0.1235075E+00
         -4   -1    0    0    0  501 -0.00000000000E+00  0.00000000000E+00  0.49789929385E+01  0.51384112994E+01  0.12700000000E+01 0. -1.
          4   -1    0    0  501    0  0.00000000000E+00 -0.00000000000E+00 -0.77197601744E+03  0.77197706210E+03  0.12700000000E+01 0. -1.
         25    2    1    2    0    0  0.00000000000E+00  0.00000000000E+00 -0.76699702451E+03  0.77711547340E+03  0.12499609353E+03 0.  0.
    9000005    1    3    3    0    0  0.36977251518E+02  0.46113409621E+02 -0.25742091068E+03  0.26412173128E+03  0.10000000000E+01 0.  0.
    9000005    1    3    3    0    0 -0.36977251518E+02 -0.46113409621E+02 -0.50957611383E+03  0.51299374212E+03  0.10000000000E+01 0.  0.
<mgrwt>
<rscale>  0 0.12499609E+03</rscale>
<asrwt>0</asrwt>
<pdfrwt beam="2">  1        4 0.11877779E+00 0.12499609E+03</pdfrwt>
<pdfrwt beam="1">  1       -4 0.77834284E-03 0.12499609E+03</pdfrwt>
<totfact> 0.39310364E+03</totfact>
</mgrwt>
</event>
<event>
 5    1  0.3235144E-002  0.1249998E+03  0.7818608E-02  0.1235070E+00
          4   -1    0    0  501    0  0.00000000000E+00  0.00000000000E+00  0.12365647349E+04  0.12365653870E+04  0.12700000000E+01 0.  1.
         -4   -1    0    0    0  501 -0.00000000000E+00 -0.00000000000E+00 -0.30306167544E+01  0.32859607289E+01  0.12700000000E+01 0.  1.
         25    2    1    2    0    0  0.00000000000E+00  0.00000000000E+00  0.12335341181E+04  0.12398513478E+04  0.12499977603E+03 0.  0.
    9000005    1    3    3    0    0 -0.13258053802E+02 -0.54734450836E+02  0.88541902080E+03  0.88720881336E+03  0.10000000000E+01 0.  0.
    9000005    1    3    3    0    0  0.13258053802E+02  0.54734450836E+02  0.34811509731E+03  0.35264253441E+03  0.10000000000E+01 0.  0.
<mgrwt>
<rscale>  0 0.12499978E+03</rscale>
<asrwt>0</asrwt>
<pdfrwt beam="1">  1        4 0.19026063E+00 0.12499978E+03</pdfrwt>
<pdfrwt beam="2">  1       -4 0.48594021E-03 0.12499978E+03</pdfrwt>
<totfact> 0.23692900E+03</totfact>
</mgrwt>
</event>
<event>
 5    1  0.3235144E-002  0.1250079E+03  0.7818608E-02  0.1235057E+00
          4   -1    0    0  501    0  0.00000000000E+00  0.00000000000E+00  0.49296384543E+03  0.49296548135E+03  0.12700000000E+01 0. -1.
         -4   -1    0    0    0  501 -0.00000000000E+00 -0.00000000000E+00 -0.78724729581E+01  0.79742542269E+01  0.12700000000E+01 0. -1.
         25    2    1    2    0    0  0.00000000000E+00  0.00000000000E+00  0.48509137247E+03  0.50093973558E+03  0.12500791588E+03 0.  0.
    9000005    1    3    3    0    0 -0.33943841239E+02  0.39995932821E+02  0.10642335634E+03  0.11865407610E+03  0.10000000000E+01 0.  0.
    9000005    1    3    3    0    0  0.33943841239E+02 -0.39995932821E+02  0.37866801613E+03  0.38228565947E+03  0.10000000000E+01 0.  0.
<mgrwt>
<rscale>  0 0.12500792E+03</rscale>
<asrwt>0</asrwt>
<pdfrwt beam="1">  1        4 0.75848579E-01 0.12500792E+03</pdfrwt>
<pdfrwt beam="2">  1       -4 0.12191043E-02 0.12500792E+03</pdfrwt>
<totfact> 0.55781801E+03</totfact>
</mgrwt>
</event>
<event>
 5    1  0.3235144E-002  0.1250012E+03  0.7818608E-02  0.1235067E+00
         -4   -1    0    0    0  501 -0.00000000000E+00  0.00000000000E+00  0.22936966036E+03  0.22937317627E+03  0.12700000000E+01 0. -1.
          4   -1    0    0  501    0  0.00000000000E+00 -0.00000000000E+00 -0.17003371700E+02  0.17050734564E+02  0.12700000000E+01 0. -1.
         25    2    1    2    0    0  0.00000000000E+00  0.00000000000E+00  0.21236628866E+03  0.24642391083E+03  0.12500121309E+03 0.  0.
    9000005    1    3    3    0    0 -0.26359485523E+02 -0.23680369454E+02  0.20766082465E+03  0.21066466355E+03  0.10000000000E+01 0.  0.
    9000005    1    3    3    0    0  0.26359485523E+02  0.23680369454E+02  0.47054640030E+01  0.35759247280E+02  0.10000000000E+01 0.  0.
<mgrwt>
<rscale>  0 0.12500121E+03</rscale>
<asrwt>0</asrwt>
<pdfrwt beam="2">  1        4 0.26198172E-02 0.12500121E+03</pdfrwt>
<pdfrwt beam="1">  1       -4 0.35291552E-01 0.12500121E+03</pdfrwt>
<totfact> 0.82847608E+03</totfact>
</mgrwt>
</event>
<event>
 5    1  0.3235144E-002  0.1249985E+03  0.7818608E-02  0.1235072E+00
          4   -1    0    0  501    0  0.00000000000E+00  0.00000000000E+00  0.29046279182E+03  0.29046556824E+03  0.12700000000E+01 0.  1.
         -4   -1    0    0    0  501 -0.00000000000E+00 -0.00000000000E+00 -0.13415208476E+02  0.13475188995E+02  0.12700000000E+01 0.  1.
         25    2    1    2    0    0  0.00000000000E+00  0.00000000000E+00  0.27704758334E+03  0.30394075723E+03  0.12499848187E+03 0.  0.
    9000005    1    3    3    0    0 -0.26268316773E+02  0.36205441267E+02  0.32414966244E+02  0.55250235113E+02  0.10000000000E+01 0.  0.
    9000005    1    3    3    0    0  0.26268316773E+02 -0.36205441267E+02  0.24463261710E+03  0.24869052212E+03  0.10000000000E+01 0.  0.
<mgrwt>
<rscale>  0 0.12499848E+03</rscale>
<asrwt>0</asrwt>
<pdfrwt beam="1">  1        4 0.44691406E-01 0.12499848E+03</pdfrwt>
<pdfrwt beam="2">  1       -4 0.20687059E-02 0.12499848E+03</pdfrwt>
<totfact> 0.75109694E+03</totfact>
</mgrwt>
</event>
<event>
 5    1  0.3235144E-002  0.1249960E+03  0.7818608E-02  0.1235076E+00
         -4   -1    0    0    0  501 -0.00000000000E+00  0.00000000000E+00  0.12988863808E+03  0.12989484671E+03  0.12700000000E+01 0.  1.
          4   -1    0    0  501    0  0.00000000000E+00 -0.00000000000E+00 -0.30051569529E+02  0.30078393094E+02  0.12700000000E+01 0.  1.
         25    2    1    2    0    0  0.00000000000E+00  0.00000000000E+00  0.99837068552E+02  0.15997323981E+03  0.12499598872E+03 0.  0.
    9000005    1    3    3    0    0 -0.23125094317E+02 -0.57874845124E+02  0.44091228313E+02  0.76349879499E+02  0.10000000000E+01 0.  0.
    9000005    1    3    3    0    0  0.23125094317E+02  0.57874845124E+02  0.55745840239E+02  0.83623360308E+02  0.10000000000E+01 0.  0.
<mgrwt>
<rscale>  0 0.12499599E+03</rscale>
<asrwt>0</asrwt>
<pdfrwt beam="2">  1        4 0.46258593E-02 0.12499599E+03</pdfrwt>
<pdfrwt beam="1">  1       -4 0.19985408E-01 0.12499599E+03</pdfrwt>
<totfact> 0.97356722E+03</totfact>
</mgrwt>
</event>
<event>
 5    1  0.3235144E-002  0.1249968E+03  0.7818608E-02  0.1235074E+00
          4   -1    0    0  501    0  0.00000000000E+00  0.00000000000E+00  0.99479035709E+01  0.10028643251E+02  0.12700000000E+01 0. -1.
         -4   -1    0    0    0  501 -0.00000000000E+00 -0.00000000000E+00 -0.39098174022E+03  0.39098380284E+03  0.12700000000E+01 0. -1.
         25    2    1    2    0    0  0.00000000000E+00  0.00000000000E+00 -0.38103383665E+03  0.40101244609E+03  0.12499678896E+03 0.  0.
    9000005    1    3    3    0    0 -0.58413877511E+02 -0.20845146385E+02 -0.21502291390E+03  0.22379131957E+03  0.10000000000E+01 0.  0.
    9000005    1    3    3    0    0  0.58413877511E+02  0.20845146385E+02 -0.16601092275E+03  0.17722112653E+03  0.10000000000E+01 0.  0.
<mgrwt>
<rscale>  0 0.12499679E+03</rscale>
<asrwt>0</asrwt>
<pdfrwt beam="1">  1        4 0.15368164E-02 0.12499679E+03</pdfrwt>
<pdfrwt beam="2">  1       -4 0.60157395E-01 0.12499679E+03</pdfrwt>
<totfact> 0.64459013E+03</totfact>
</mgrwt>
</event>
<event>
 5    1  0.3235144E-002  0.1249929E+03  0.7818608E-02  0.1235080E+00
          4   -1    0    0  501    0  0.00000000000E+00  0.00000000000E+00  0.40903826143E+02  0.40923537153E+02  0.12700000000E+01 0. -1.
         -4   -1    0    0    0  501 -0.00000000000E+00 -0.00000000000E+00 -0.95440554331E+02  0.95449003719E+02  0.12700000000E+01 0. -1.
         25    2    1    2    0    0  0.00000000000E+00  0.00000000000E+00 -0.54536728188E+02  0.13637254087E+03  0.12499286053E+03 0.  0.
    9000005    1    3    3    0    0 -0.21323441549E+02  0.38594673269E+02  0.21041124473E+02  0.48866828047E+02  0.10000000000E+01 0.  0.
    9000005    1    3    3    0    0  0.21323441549E+02 -0.38594673269E+02 -0.75577852661E+02  0.87505712826E+02  0.10000000000E+01 0.  0.
<mgrwt>
<rscale>  0 0.12499286E+03</rscale>
<asrwt>0</asrwt>
<pdfrwt beam="1">  1        4 0.62950625E-02 0.12499286E+03</pdfrwt>
<pdfrwt beam="2">  1       -4 0.14685328E-01 0.12499286E+03</pdfrwt>
<totfact> 0.10210865E+04</totfact>
</mgrwt>
</event>
<event>
 5    1  0.3235144E-002  0.1250076E+03  0.7818608E-02  0.1235057E+00
         -4   -1    0    0    0  501 -0.00000000000E+00  0.00000000000E+00  0.16895556470E+03  0.16896033778E+03  0.12700000000E+01 0. -1.
          4   -1    0    0  501    0  0.00000000000E+00 -0.00000000000E+00 -0.23100255347E+02  0.23135139876E+02  0.12700000000E+01 0. -1.
         25    2    1    2    0    0  0.00000000000E+00  0.00000000000E+00  0.14585530935E+03  0.19209547765E+03  0.12500760485E+03 0.  0.
    9000005    1    3    3    0    0 -0.31016087262E+02  0.27559983046E+01 -0.10338499011E+02  0.32824956321E+02  0.10000000000E+01 0.  0.
    9000005    1    3    3    0    0  0.31016087262E+02 -0.27559983046E+01  0.15619380836E+03  0.15927052133E+03  0.10000000000E+01 0.  0.
<mgrwt>
<rscale>  0 0.12500760E+03</rscale>
<asrwt>0</asrwt>
<pdfrwt beam="2">  1        4 0.35569362E-02 0.12500760E+03</pdfrwt>
<pdfrwt beam="1">  1       -4 0.25996213E-01 0.12500760E+03</pdfrwt>
<totfact> 0.91468403E+03</totfact>
</mgrwt>
</event>
<event>
 5    1  0.3235144E-002  0.1249998E+03  0.7818608E-02  0.1235070E+00
          4   -1    0    0  501    0  0.00000000000E+00  0.00000000000E+00  0.71957483016E+02  0.71968689456E+02  0.12700000000E+01 0. -1.
         -4   -1    0    0    0  501 -0.00000000000E+00 -0.00000000000E+00 -0.54262462268E+02  0.54277322257E+02  0.12700000000E+01 0. -1.
         25    2    1    2    0    0  0.00000000000E+00  0.00000000000E+00  0.17695020747E+02  0.12624601171E+03  0.12499976686E+03 0.  0.
    9000005    1    3    3    0    0 -0.44605302217E+02  0.14614783806E+02  0.50514256478E+02  0.68963142323E+02  0.10000000000E+01 0.  0.
    9000005    1    3    3    0    0  0.44605302217E+02 -0.14614783806E+02 -0.32819235731E+02  0.57282869390E+02  0.10000000000E+01 0.  0.
<mgrwt>
<rscale>  0 0.12499977E+03</rscale>
<asrwt>0</asrwt>
<pdfrwt beam="1">  1        4 0.11072387E-01 0.12499977E+03</pdfrwt>
<pdfrwt beam="2">  1       -4 0.83500762E-02 0.12499977E+03</pdfrwt>
<totfact> 0.10425628E+04</totfact>
</mgrwt>
</event>
<event>
 5    1  0.3235144E-002  0.1250037E+03  0.7818608E-02  0.1235063E+00
          4   -1    0    0  501    0  0.00000000000E+00  0.00000000000E+00  0.36114985466E+02  0.36137308633E+02  0.12700000000E+01 0. -1.
         -4   -1    0    0    0  501 -0.00000000000E+00 -0.00000000000E+00 -0.10810845994E+03  0.10811591932E+03  0.12700000000E+01 0. -1.
         25    2    1    2    0    0  0.00000000000E+00  0.00000000000E+00 -0.71993474475E+02  0.14425322796E+03  0.12500373358E+03 0.  0.
    9000005    1    3    3    0    0  0.44833719882E+02  0.19797305201E+02 -0.80742558532E+02  0.94458226163E+02  0.10000000000E+01 0.  0.
    9000005    1    3    3    0    0 -0.44833719882E+02 -0.19797305201E+02  0.87490840566E+01  0.49795001792E+02  0.10000000000E+01 0.  0.
<mgrwt>
<rscale>  0 0.12500373E+03</rscale>
<asrwt>0</asrwt>
<pdfrwt beam="1">  1        4 0.55584426E-02 0.12500373E+03</pdfrwt>
<pdfrwt beam="2">  1       -4 0.16634362E-01 0.12500373E+03</pdfrwt>
<totfact> 0.10045339E+04</totfact>
</mgrwt>
</event>
<event>
 5    1  0.3235144E-002  0.1250017E+03  0.7818608E-02  0.1235067E+00
          4   -1    0    0  501    0  0.00000000000E+00  0.00000000000E+00  0.36977373883E+02  0.36999176738E+02  0.12700000000E+01 0. -1.
         -4   -1    0    0    0  501 -0.00000000000E+00 -0.00000000000E+00 -0.10558510960E+03  0.10559274724E+03  0.12700000000E+01 0. -1.
         25    2    1    2    0    0  0.00000000000E+00  0.00000000000E+00 -0.68607735717E+02  0.14259192398E+03  0.12500174152E+03 0.  0.
    9000005    1    3    3    0    0  0.15789866877E+02 -0.59729333920E+01 -0.10294033560E+03  0.10432022106E+03  0.10000000000E+01 0.  0.
    9000005    1    3    3    0    0 -0.15789866877E+02  0.59729333920E+01  0.34332599881E+02  0.38271702914E+02  0.10000000000E+01 0.  0.
<mgrwt>
<rscale>  0 0.12500174E+03</rscale>
<asrwt>0</asrwt>
<pdfrwt beam="1">  1        4 0.56910914E-02 0.12500174E+03</pdfrwt>
<pdfrwt beam="2">  1       -4 0.16246128E-01 0.12500174E+03</pdfrwt>
<totfact> 0.10079751E+04</totfact>
</mgrwt>
</event>
<event>
 5    1  0.3235144E-002  0.1250007E+03  0.7818608E-02  0.1235068E+00
          4   -1    0    0  501    0  0.00000000000E+00  0.00000000000E+00  0.55906803651E+03  0.55906947900E+03  0.12700000000E+01 0.  1.
         -4   -1    0    0    0  501 -0.00000000000E+00 -0.00000000000E+00 -0.69279839707E+01  0.70434268576E+01  0.12700000000E+01 0.  1.
         25    2    1    2    0    0  0.00000000000E+00  0.00000000000E+00  0.55214005254E+03  0.56611290586E+03  0.12500073823E+03 0.  0.
    9000005    1    3    3    0    0  0.12344104989E+02 -0.57929283124E+02  0.36632058906E+03  0.37107944263E+03  0.10000000000E+01 0.  0.
    9000005    1    3    3    0    0 -0.12344104989E+02  0.57929283124E+02  0.18581946348E+03  0.19503346323E+03  0.10000000000E+01 0.  0.
<mgrwt>
<rscale>  0 0.12500074E+03</rscale>
<asrwt>0</asrwt>
<pdfrwt beam="1">  1        4 0.86019470E-01 0.12500074E+03</pdfrwt>
<pdfrwt beam="2">  1       -4 0.10748347E-02 0.12500074E+03</pdfrwt>
<totfact> 0.51078162E+03</totfact>
</mgrwt>
</event>
<event>
 5    1  0.3235144E-002  0.1249992E+03  0.7818608E-02  0.1235071E+00
          4   -1    0    0  501    0  0.00000000000E+00  0.00000000000E+00  0.17467155358E+02  0.17513264011E+02  0.12700000000E+01 0. -1.
         -4   -1    0    0    0  501 -0.00000000000E+00 -0.00000000000E+00 -0.22328836109E+03  0.22329197276E+03  0.12700000000E+01 0. -1.
         25    2    1    2    0    0  0.00000000000E+00  0.00000000000E+00 -0.20582120573E+03  0.24080523677E+03  0.12499917330E+03 0.  0.
    9000005    1    3    3    0    0  0.50477244280E+02  0.27039294977E+02 -0.15111520474E+03  0.16160408648E+03  0.10000000000E+01 0.  0.
    9000005    1    3    3    0    0 -0.50477244280E+02 -0.27039294977E+02 -0.54706000997E+02  0.79201150295E+02  0.10000000000E+01 0.  0.
<mgrwt>
<rscale>  0 0.12499917E+03</rscale>
<asrwt>0</asrwt>
<pdfrwt beam="1">  1        4 0.26910795E-02 0.12499917E+03</pdfrwt>
<pdfrwt beam="2">  1       -4 0.34355878E-01 0.12499917E+03</pdfrwt>
<totfact> 0.83679131E+03</totfact>
</mgrwt>
</event>
<event>
 5    1  0.3235144E-002  0.1249972E+03  0.7818608E-02  0.1235074E+00
         -4   -1    0    0    0  501 -0.00000000000E+00  0.00000000000E+00  0.57969255521E+03  0.57969394638E+03  0.12700000000E+01 0.  1.
          4   -1    0    0  501    0  0.00000000000E+00 -0.00000000000E+00 -0.66769316934E+01  0.67966401139E+01  0.12700000000E+01 0.  1.
         25    2    1    2    0    0  0.00000000000E+00  0.00000000000E+00  0.57301562352E+03  0.58649058649E+03  0.12499721296E+03 0.  0.
    9000005    1    3    3    0    0 -0.50893280554E+02 -0.35552809932E+02  0.25301726731E+03  0.26052421357E+03  0.10000000000E+01 0.  0.
    9000005    1    3    3    0    0  0.50893280554E+02  0.35552809932E+02  0.31999835621E+03  0.32596637293E+03  0.10000000000E+01 0.  0.
<mgrwt>
<rscale>  0 0.12499721E+03</rscale>
<asrwt>0</asrwt>
<pdfrwt beam="2">  1        4 0.10365361E-02 0.12499721E+03</pdfrwt>
<pdfrwt beam="1">  1       -4 0.89192740E-01 0.12499721E+03</pdfrwt>
<totfact> 0.49734679E+03</totfact>
</mgrwt>
</event>
<event>
 5    1  0.3235144E-002  0.1249794E+03  0.7818608E-02  0.1235101E+00
         -4   -1    0    0    0  501 -0.00000000000E+00  0.00000000000E+00  0.34429017542E+02  0.34452433135E+02  0.12700000000E+01 0.  1.
          4   -1    0    0  501    0  0.00000000000E+00 -0.00000000000E+00 -0.11335516420E+03  0.11336227834E+03  0.12700000000E+01 0.  1.
         25    2    1    2    0    0  0.00000000000E+00  0.00000000000E+00 -0.78926146658E+02  0.14781471148E+03  0.12497940751E+03 0.  0.
    9000005    1    3    3    0    0 -0.21309202512E+02 -0.48385081118E+02 -0.80967858971E-01  0.52879152246E+02  0.10000000000E+01 0.  0.
    9000005    1    3    3    0    0  0.21309202512E+02  0.48385081118E+02 -0.78845178799E+02  0.94935559230E+02  0.10000000000E+01 0.  0.
<mgrwt>
<rscale>  0 0.12497941E+03</rscale>
<asrwt>0</asrwt>
<pdfrwt beam="2">  1        4 0.17441604E-01 0.12497941E+03</pdfrwt>
<pdfrwt beam="1">  1       -4 0.52991204E-02 0.12497941E+03</pdfrwt>
<totfact> 0.99787349E+03</totfact>
</mgrwt>
</event>
<event>
 4    1  0.3235144E-002  0.1250936E+03  0.7818608E-02  0.1234923E+00
         -4   -1    0    0    0  501 -0.00000000000E+00  0.00000000000E+00  0.44609217763E+02  0.44627292204E+02  0.12700000000E+01 0.  1.
          4   -1    0    0  501    0  0.00000000000E+00 -0.00000000000E+00 -0.87656728077E+02  0.87665927687E+02  0.12700000000E+01 0.  1.
    9000005    1    1    2    0    0  0.42332790751E+01  0.49301941117E+02  0.18919903263E+02  0.52986458545E+02  0.10000000000E+01 0.  0.
    9000005    1    1    2    0    0 -0.42332790751E+01 -0.49301941117E+02 -0.61967413577E+02  0.79306761346E+02  0.10000000000E+01 0.  0.
<mgrwt>
<rscale>  0 0.12509360E+03</rscale>
<asrwt>0</asrwt>
<pdfrwt beam="2">  1        4 0.13487748E-01 0.12509360E+03</pdfrwt>
<pdfrwt beam="1">  1       -4 0.68650546E-02 0.12509360E+03</pdfrwt>
<totfact> 0.10273736E+04</totfact>
</mgrwt>
</event>
<event>
 5    1  0.3235144E-002  0.1250023E+03  0.7818608E-02  0.1235066E+00
          4   -1    0    0  501    0  0.00000000000E+00  0.00000000000E+00  0.46228057542E+02  0.46245499285E+02  0.12700000000E+01 0.  1.
         -4   -1    0    0    0  501 -0.00000000000E+00 -0.00000000000E+00 -0.84464441471E+02  0.84473988736E+02  0.12700000000E+01 0.  1.
         25    2    1    2    0    0  0.00000000000E+00  0.00000000000E+00 -0.38236383929E+02  0.13071948802E+03  0.12500225395E+03 0.  0.
    9000005    1    3    3    0    0  0.61530664842E+02  0.63171944629E+01 -0.97963854349E+01  0.62633049019E+02  0.10000000000E+01 0.  0.
    9000005    1    3    3    0    0 -0.61530664842E+02 -0.63171944629E+01 -0.28439998494E+02  0.68086439003E+02  0.10000000000E+01 0.  0.
<mgrwt>
<rscale>  0 0.12500225E+03</rscale>
<asrwt>0</asrwt>
<pdfrwt beam="1">  1        4 0.71140850E-02 0.12500225E+03</pdfrwt>
<pdfrwt beam="2">  1       -4 0.12996605E-01 0.12500225E+03</pdfrwt>
<totfact> 0.10328581E+04</totfact>
</mgrwt>
</event>
<event>
 5    1  0.3235144E-002  0.1250002E+03  0.7818608E-02  0.1235069E+00
         -4   -1    0    0    0  501 -0.00000000000E+00  0.00000000000E+00  0.84975275637E+03  0.84975370541E+03  0.12700000000E+01 0. -1.
          4   -1    0    0  501    0  0.00000000000E+00 -0.00000000000E+00 -0.45082542197E+01  0.46837224629E+01  0.12700000000E+01 0. -1.
         25    2    1    2    0    0  0.00000000000E+00  0.00000000000E+00  0.84524450215E+03  0.85443742787E+03  0.12500019894E+03 0.  0.
    9000005    1    3    3    0    0  0.62327121099E+02  0.30867042628E+01  0.44535954182E+03  0.44971137328E+03  0.10000000000E+01 0.  0.
    9000005    1    3    3    0    0 -0.62327121099E+02 -0.30867042628E+01  0.39988496033E+03  0.40472605459E+03  0.10000000000E+01 0.  0.
<mgrwt>
<rscale>  0 0.12500020E+03</rscale>
<asrwt>0</asrwt>
<pdfrwt beam="2">  1        4 0.70714877E-03 0.12500020E+03</pdfrwt>
<pdfrwt beam="1">  1       -4 0.13074465E+00 0.12500020E+03</pdfrwt>
<totfact> 0.35946297E+03</totfact>
</mgrwt>
</event>
<event>
 5    1  0.3235144E-002  0.1250034E+03  0.7818608E-02  0.1235064E+00
         -4   -1    0    0    0  501 -0.00000000000E+00  0.00000000000E+00  0.56579176303E+02  0.56593427985E+02  0.12700000000E+01 0. -1.
          4   -1    0    0  501    0  0.00000000000E+00 -0.00000000000E+00 -0.69015356628E+02  0.69027040719E+02  0.12700000000E+01 0. -1.
         25    2    1    2    0    0  0.00000000000E+00  0.00000000000E+00 -0.12436180325E+02  0.12562046870E+03  0.12500337426E+03 0.  0.
    9000005    1    3    3    0    0 -0.39174364871E+01 -0.74943736616E+01  0.56006470092E+02  0.56650124778E+02  0.10000000000E+01 0.  0.
    9000005    1    3    3    0    0  0.39174364871E+01  0.74943736616E+01 -0.68442650417E+02  0.68970343926E+02  0.10000000000E+01 0.  0.
<mgrwt>
<rscale>  0 0.12500337E+03</rscale>
<asrwt>0</asrwt>
<pdfrwt beam="2">  1        4 0.10619742E-01 0.12500337E+03</pdfrwt>
<pdfrwt beam="1">  1       -4 0.87064837E-02 0.12500337E+03</pdfrwt>
<totfact> 0.10438501E+04</totfact>
</mgrwt>
</event>
<event>
 5    1  0.3235144E-002  0.1250003E+03  0.7818608E-02  0.1235069E+00
          4   -1    0    0  501    0  0.00000000000E+00  0.00000000000E+00  0.63371867187E+02  0.63384591588E+02  0.12700000000E+01 0.  1.
         -4   -1    0    0    0  501 -0.00000000000E+00 -0.00000000000E+00 -0.61614978576E+02  0.61628065724E+02  0.12700000000E+01 0.  1.
         25    2    1    2    0    0  0.00000000000E+00  0.00000000000E+00  0.17568886112E+01  0.12501265731E+03  0.12500031132E+03 0.  0.
    9000005    1    3    3    0    0 -0.31893619789E+02  0.32992339430E+02  0.43303996865E+02  0.63102564043E+02  0.10000000000E+01 0.  0.
    9000005    1    3    3    0    0  0.31893619789E+02 -0.32992339430E+02 -0.41547108254E+02  0.61910093269E+02  0.10000000000E+01 0.  0.
<mgrwt>
<rscale>  0 0.12500031E+03</rscale>
<asrwt>0</asrwt>
<pdfrwt beam="1">  1        4 0.97515035E-02 0.12500031E+03</pdfrwt>
<pdfrwt beam="2">  1       -4 0.94812130E-02 0.12500031E+03</pdfrwt>
<totfact> 0.10452514E+04</totfact>
</mgrwt>
</event>
<event>
 5    1  0.3235144E-002  0.1250010E+03  0.7818608E-02  0.1235068E+00
          4   -1    0    0  501    0  0.00000000000E+00  0.00000000000E+00  0.15709221883E+02  0.15760474363E+02  0.12700000000E+01 0. -1.
         -4   -1    0    0    0  501 -0.00000000000E+00 -0.00000000000E+00 -0.24820569752E+03  0.24820894662E+03  0.12700000000E+01 0. -1.
         25    2    1    2    0    0  0.00000000000E+00  0.00000000000E+00 -0.23249647564E+03  0.26396942098E+03  0.12500097612E+03 0.  0.
    9000005    1    3    3    0    0  0.53171838489E+02  0.10526094036E+02 -0.50571191532E+02  0.74138306407E+02  0.10000000000E+01 0.  0.
    9000005    1    3    3    0    0 -0.53171838489E+02 -0.10526094036E+02 -0.18192528411E+03  0.18983111458E+03  0.10000000000E+01 0.  0.
<mgrwt>
<rscale>  0 0.12500098E+03</rscale>
<asrwt>0</asrwt>
<pdfrwt beam="1">  1        4 0.24209960E-02 0.12500098E+03</pdfrwt>
<pdfrwt beam="2">  1       -4 0.38189682E-01 0.12500098E+03</pdfrwt>
<totfact> 0.80350472E+03</totfact>
</mgrwt>
</event>
<event>
 5    1  0.3235144E-002  0.1249997E+03  0.7818608E-02  0.1235070E+00
         -4   -1    0    0    0  501 -0.00000000000E+00  0.00000000000E+00  0.93077211061E+01  0.93939646683E+01  0.12700000000E+01 0.  1.
          4   -1    0    0  501    0  0.00000000000E+00 -0.00000000000E+00 -0.41765370415E+03  0.41765563505E+03  0.12700000000E+01 0.  1.
         25    2    1    2    0    0  0.00000000000E+00  0.00000000000E+00 -0.40834598305E+03  0.42704959972E+03  0.12499967501E+03 0.  0.
    9000005    1    3    3    0    0  0.72439330939E+00  0.30419324866E+02 -0.39065271975E+03  0.39183722069E+03  0.10000000000E+01 0.  0.
    9000005    1    3    3    0    0 -0.72439330939E+00 -0.30419324866E+02 -0.17693263297E+02  0.35212379032E+02  0.10000000000E+01 0.  0.
<mgrwt>
<rscale>  0 0.12499968E+03</rscale>
<asrwt>0</asrwt>
<pdfrwt beam="2">  1        4 0.64261184E-01 0.12499968E+03</pdfrwt>
<pdfrwt beam="1">  1       -4 0.14387401E-02 0.12499968E+03</pdfrwt>
<totfact> 0.62004791E+03</totfact>
</mgrwt>
</event>
<event>
 5    1  0.3235144E-002  0.1249992E+03  0.7818608E-02  0.1235071E+00
         -4   -1    0    0    0  501 -0.00000000000E+00  0.00000000000E+00  0.10490486049E+03  0.10491254765E+03  0.12700000000E+01 0.  1.
          4   -1    0    0  501    0  0.00000000000E+00 -0.00000000000E+00 -0.37215763883E+02  0.37237427158E+02  0.12700000000E+01 0.  1.
         25    2    1    2    0    0  0.00000000000E+00  0.00000000000E+00  0.67689096612E+02  0.14214997481E+03  0.12499920615E+03 0.  0.
    9000005    1    3    3    0    0 -0.40694072836E+01 -0.60150718523E+02  0.52549144997E+02  0.79981758260E+02  0.10000000000E+01 0.  0.
    9000005    1    3    3    0    0  0.40694072836E+01  0.60150718523E+02  0.15139951615E+02  0.62168216553E+02  0.10000000000E+01 0.  0.
<mgrwt>
<rscale>  0 0.12499921E+03</rscale>
<asrwt>0</asrwt>
<pdfrwt beam="2">  1        4 0.57277599E-02 0.12499921E+03</pdfrwt>
<pdfrwt beam="1">  1       -4 0.16141467E-01 0.12499921E+03</pdfrwt>
<totfact> 0.10089400E+04</totfact>
</mgrwt>
</event>
<event>
 5    1  0.3235144E-002  0.1249955E+03  0.7818608E-02  0.1235076E+00
          4   -1    0    0  501    0  0.00000000000E+00  0.00000000000E+00  0.13690152506E+04  0.13690158397E+04  0.12700000000E+01 0. -1.
         -4   -1    0    0    0  501 -0.00000000000E+00 -0.00000000000E+00 -0.27111762849E+01  0.29938899191E+01  0.12700000000E+01 0. -1.
         25    2    1    2    0    0  0.00000000000E+00  0.00000000000E+00  0.13663040743E+04  0.13720097296E+04  0.12499549834E+03 0.  0.
    9000005    1    3    3    0    0 -0.18179732151E+02  0.32064378983E+02  0.12926506461E+03  0.13442129291E+03  0.10000000000E+01 0.  0.
    9000005    1    3    3    0    0  0.18179732151E+02 -0.32064378983E+02  0.12370390097E+04  0.12375884367E+04  0.10000000000E+01 0.  0.
<mgrwt>
<rscale>  0 0.12499550E+03</rscale>
<asrwt>0</asrwt>
<pdfrwt beam="1">  1        4 0.21063925E+00 0.12499550E+03</pdfrwt>
<pdfrwt beam="2">  1       -4 0.43889714E-03 0.12499550E+03</pdfrwt>
<totfact> 0.20591704E+03</totfact>
</mgrwt>
</event>
<event>
 5    1  0.3235144E-002  0.1249986E+03  0.7818608E-02  0.1235072E+00
         -4   -1    0    0    0  501 -0.00000000000E+00  0.00000000000E+00  0.10856047717E+04  0.10856055146E+04  0.12700000000E+01 0.  1.
          4   -1    0    0  501    0  0.00000000000E+00 -0.00000000000E+00 -0.34853104292E+01  0.37094863239E+01  0.12700000000E+01 0.  1.
         25    2    1    2    0    0  0.00000000000E+00  0.00000000000E+00  0.10821194613E+04  0.10893150009E+04  0.12499857073E+03 0.  0.
    9000005    1    3    3    0    0 -0.20006728660E+02 -0.48582735348E+02  0.24622606412E+03  0.25177137649E+03  0.10000000000E+01 0.  0.
    9000005    1    3    3    0    0  0.20006728660E+02  0.48582735348E+02  0.83589339719E+03  0.83754362444E+03  0.10000000000E+01 0.  0.
<mgrwt>
<rscale>  0 0.12499857E+03</rscale>
<asrwt>0</asrwt>
<pdfrwt beam="2">  1        4 0.55350289E-03 0.12499857E+03</pdfrwt>
<pdfrwt beam="1">  1       -4 0.16703347E+00 0.12499857E+03</pdfrwt>
<totfact> 0.27799085E+03</totfact>
</mgrwt>
</event>
<event>
 5    1  0.3235144E-002  0.1250014E+03  0.7818608E-02  0.1235067E+00
          4   -1    0    0  501    0  0.00000000000E+00  0.00000000000E+00  0.21863709299E+02  0.21900563562E+02  0.12700000000E+01 0.  1.
         -4   -1    0    0    0  501 -0.00000000000E+00 -0.00000000000E+00 -0.17847815571E+03  0.17848267414E+03  0.12700000000E+01 0.  1.
         25    2    1    2    0    0  0.00000000000E+00  0.00000000000E+00 -0.15661444641E+03  0.20038323770E+03  0.12500142849E+03 0.  0.
    9000005    1    3    3    0    0  0.36827351688E+02 -0.23483718929E+02 -0.66597760395E+01  0.44193794859E+02  0.10000000000E+01 0.  0.
    9000005    1    3    3    0    0 -0.36827351688E+02  0.23483718929E+02 -0.14995467038E+03  0.15618944284E+03  0.10000000000E+01 0.  0.
<mgrwt>
<rscale>  0 0.12500143E+03</rscale>
<asrwt>0</asrwt>
<pdfrwt beam="1">  1        4 0.33668302E-02 0.12500143E+03</pdfrwt>
<pdfrwt beam="2">  1       -4 0.27461359E-01 0.12500143E+03</pdfrwt>
<totfact> 0.90068032E+03</totfact>
</mgrwt>
</event>
<event>
 5    1  0.3235144E-002  0.1250009E+03  0.7818608E-02  0.1235068E+00
          4   -1    0    0  501    0  0.00000000000E+00  0.00000000000E+00  0.32043488717E+03  0.32043740389E+03  0.12700000000E+01 0.  1.
         -4   -1    0    0    0  501 -0.00000000000E+00 -0.00000000000E+00 -0.12154999803E+02  0.12221166892E+02  0.12700000000E+01 0.  1.
         25    2    1    2    0    0  0.00000000000E+00  0.00000000000E+00  0.30827988736E+03  0.33265857078E+03  0.12500094305E+03 0.  0.
    9000005    1    3    3    0    0  0.47484631132E+02  0.26519355805E+02  0.23604600061E+03  0.24223290617E+03  0.10000000000E+01 0.  0.
    9000005    1    3    3    0    0 -0.47484631132E+02 -0.26519355805E+02  0.72233886751E+02  0.90425664616E+02  0.10000000000E+01 0.  0.
<mgrwt>
<rscale>  0 0.12500094E+03</rscale>
<asrwt>0</asrwt>
<pdfrwt beam="1">  1        4 0.49302955E-01 0.12500094E+03</pdfrwt>
<pdfrwt beam="2">  1       -4 0.18752835E-02 0.12500094E+03</pdfrwt>
<totfact> 0.71673930E+03</totfact>
</mgrwt>
</event>
<event>
 5    1  0.3235144E-002  0.1250044E+03  0.7818608E-02  0.1235062E+00
         -4   -1    0    0    0  501 -0.00000000000E+00  0.00000000000E+00  0.84465500842E+03  0.84465596319E+03  0.12700000000E+01 0. -1.
          4   -1    0    0  501    0  0.00000000000E+00 -0.00000000000E+00 -0.45368352456E+01  0.47112391200E+01  0.12700000000E+01 0. -1.
         25    2    1    2    0    0  0.00000000000E+00  0.00000000000E+00  0.84011817318E+03  0.84936720231E+03  0.12500439776E+03 0.  0.
    9000005    1    3    3    0    0  0.56126123164E+02  0.10338401933E+02  0.59309067275E+03  0.59583099144E+03  0.10000000000E+01 0.  0.
    9000005    1    3    3    0    0 -0.56126123164E+02 -0.10338401933E+02  0.24702750042E+03  0.25353621087E+03  0.10000000000E+01 0.  0.
<mgrwt>
<rscale>  0 0.12500440E+03</rscale>
<asrwt>0</asrwt>
<pdfrwt beam="2">  1        4 0.71146349E-03 0.12500440E+03</pdfrwt>
<pdfrwt beam="1">  1       -4 0.12996047E+00 0.12500440E+03</pdfrwt>
<totfact> 0.36149744E+03</totfact>
</mgrwt>
</event>
<event>
 5    1  0.3235144E-002  0.1250045E+03  0.7818608E-02  0.1235062E+00
          4   -1    0    0  501    0  0.00000000000E+00  0.00000000000E+00  0.56569636902E+01  0.57977701052E+01  0.12700000000E+01 0.  1.
         -4   -1    0    0    0  501 -0.00000000000E+00 -0.00000000000E+00 -0.68194047273E+03  0.68194165531E+03  0.12700000000E+01 0.  1.
         25    2    1    2    0    0  0.00000000000E+00  0.00000000000E+00 -0.67628350904E+03  0.68773942541E+03  0.12500453060E+03 0.  0.
    9000005    1    3    3    0    0 -0.63516594986E+01  0.58400229551E+02 -0.45544612964E+03  0.45922010779E+03  0.10000000000E+01 0.  0.
    9000005    1    3    3    0    0  0.63516594986E+01 -0.58400229551E+02 -0.22083737940E+03  0.22851931763E+03  0.10000000000E+01 0.  0.
<mgrwt>
<rscale>  0 0.12500453E+03</rscale>
<asrwt>0</asrwt>
<pdfrwt beam="1">  1        4 0.88122488E-03 0.12500453E+03</pdfrwt>
<pdfrwt beam="2">  1       -4 0.10492478E+00 0.12500453E+03</pdfrwt>
<totfact> 0.43737547E+03</totfact>
</mgrwt>
</event>
<event>
 5    1  0.3235144E-002  0.1250033E+03  0.7818608E-02  0.1235064E+00
         -4   -1    0    0    0  501 -0.00000000000E+00  0.00000000000E+00  0.34529256108E+03  0.34529489663E+03  0.12700000000E+01 0. -1.
          4   -1    0    0  501    0  0.00000000000E+00 -0.00000000000E+00 -0.11275448300E+02  0.11346745541E+02  0.12700000000E+01 0. -1.
         25    2    1    2    0    0  0.00000000000E+00  0.00000000000E+00  0.33401711278E+03  0.35664164217E+03  0.12500331715E+03 0.  0.
    9000005    1    3    3    0    0 -0.29336607078E+02  0.54625760898E+02  0.18926369477E+03  0.19916414443E+03  0.10000000000E+01 0.  0.
    9000005    1    3    3    0    0  0.29336607078E+02 -0.54625760898E+02  0.14475341801E+03  0.15747749773E+03  0.10000000000E+01 0.  0.
<mgrwt>
<rscale>  0 0.12500332E+03</rscale>
<asrwt>0</asrwt>
<pdfrwt beam="2">  1        4 0.17403486E-02 0.12500332E+03</pdfrwt>
<pdfrwt beam="1">  1       -4 0.53127590E-01 0.12500332E+03</pdfrwt>
<totfact> 0.68994961E+03</totfact>
</mgrwt>
</event>
<event>
 5    1  0.3235144E-002  0.1249935E+03  0.7818608E-02  0.1235079E+00
          4   -1    0    0  501    0  0.00000000000E+00  0.00000000000E+00  0.17411462675E+02  0.17457718421E+02  0.12700000000E+01 0.  1.
         -4   -1    0    0    0  501 -0.00000000000E+00 -0.00000000000E+00 -0.22398023819E+03  0.22398383870E+03  0.12700000000E+01 0.  1.
         25    2    1    2    0    0  0.00000000000E+00  0.00000000000E+00 -0.20656877552E+03  0.24144155713E+03  0.12499346578E+03 0.  0.
    9000005    1    3    3    0    0 -0.22817922514E+02 -0.16801733770E+02  0.42971168174E+01  0.28677884484E+02  0.10000000000E+01 0.  0.
    9000005    1    3    3    0    0  0.22817922514E+02  0.16801733770E+02 -0.21086589234E+03  0.21276367264E+03  0.10000000000E+01 0.  0.
<mgrwt>
<rscale>  0 0.12499347E+03</rscale>
<asrwt>0</asrwt>
<pdfrwt beam="1">  1        4 0.26825218E-02 0.12499347E+03</pdfrwt>
<pdfrwt beam="2">  1       -4 0.34462331E-01 0.12499347E+03</pdfrwt>
<totfact> 0.83595317E+03</totfact>
</mgrwt>
</event>
<event>
 5    1  0.3235144E-002  0.1249967E+03  0.7818608E-02  0.1235074E+00
          4   -1    0    0  501    0  0.00000000000E+00  0.00000000000E+00  0.22502794043E+02  0.22538603323E+02  0.12700000000E+01 0. -1.
         -4   -1    0    0    0  501 -0.00000000000E+00 -0.00000000000E+00 -0.17340432137E+03  0.17340897199E+03  0.12700000000E+01 0. -1.
         25    2    1    2    0    0  0.00000000000E+00  0.00000000000E+00 -0.15090152732E+03  0.19594757532E+03  0.12499672526E+03 0.  0.
    9000005    1    3    3    0    0 -0.48084156819E+02 -0.39910150099E+02 -0.76035453343E+02  0.98424064044E+02  0.10000000000E+01 0.  0.
    9000005    1    3    3    0    0  0.48084156819E+02  0.39910150099E+02 -0.74866073979E+02  0.97523511273E+02  0.10000000000E+01 0.  0.
<mgrwt>
<rscale>  0 0.12499673E+03</rscale>
<asrwt>0</asrwt>
<pdfrwt beam="1">  1        4 0.34650807E-02 0.12499673E+03</pdfrwt>
<pdfrwt beam="2">  1       -4 0.26680699E-01 0.12499673E+03</pdfrwt>
<totfact> 0.90829290E+03</totfact>
</mgrwt>
</event>
<event>
 5    1  0.3235144E-002  0.1250041E+03  0.7818608E-02  0.1235063E+00
         -4   -1    0    0    0  501 -0.00000000000E+00  0.00000000000E+00  0.24804128800E+02  0.24836620252E+02  0.12700000000E+01 0. -1.
          4   -1    0    0  501    0  0.00000000000E+00 -0.00000000000E+00 -0.15735608919E+03  0.15736121410E+03  0.12700000000E+01 0. -1.
         25    2    1    2    0    0  0.00000000000E+00  0.00000000000E+00 -0.13255196039E+03  0.18219783436E+03  0.12500411450E+03 0.  0.
    9000005    1    3    3    0    0 -0.56247028728E+02 -0.99739081815E+01 -0.29336745884E+02  0.64225008713E+02  0.10000000000E+01 0.  0.
    9000005    1    3    3    0    0  0.56247028728E+02  0.99739081815E+01 -0.10321521450E+03  0.11797282564E+03  0.10000000000E+01 0.  0.
<mgrwt>
<rscale>  0 0.12500411E+03</rscale>
<asrwt>0</asrwt>
<pdfrwt beam="2">  1        4 0.24211522E-01 0.12500411E+03</pdfrwt>
<pdfrwt beam="1">  1       -4 0.38189135E-02 0.12500411E+03</pdfrwt>
<totfact> 0.93214278E+03</totfact>
</mgrwt>
</event>
<event>
 5    1  0.3235144E-002  0.1249968E+03  0.7818608E-02  0.1235074E+00
          4   -1    0    0  501    0  0.00000000000E+00  0.00000000000E+00  0.88201217331E+01  0.89110856458E+01  0.12700000000E+01 0. -1.
         -4   -1    0    0    0  501 -0.00000000000E+00 -0.00000000000E+00 -0.44049291507E+03  0.44049474585E+03  0.12700000000E+01 0. -1.
         25    2    1    2    0    0  0.00000000000E+00  0.00000000000E+00 -0.43167279334E+03  0.44940583150E+03  0.12499680348E+03 0.  0.
    9000005    1    3    3    0    0  0.50305605702E+02  0.34757029984E+02 -0.16946557076E+03  0.18016182940E+03  0.10000000000E+01 0.  0.
    9000005    1    3    3    0    0 -0.50305605702E+02 -0.34757029984E+02 -0.26220722258E+03  0.26924400210E+03  0.10000000000E+01 0.  0.
<mgrwt>
<rscale>  0 0.12499680E+03</rscale>
<asrwt>0</asrwt>
<pdfrwt beam="1">  1        4 0.13640802E-02 0.12499680E+03</pdfrwt>
<pdfrwt beam="2">  1       -4 0.67775262E-01 0.12499680E+03</pdfrwt>
<totfact> 0.60019535E+03</totfact>
</mgrwt>
</event>
<event>
 5    1  0.3235144E-002  0.1250012E+03  0.7818608E-02  0.1235067E+00
         -4   -1    0    0    0  501 -0.00000000000E+00  0.00000000000E+00  0.63159973821E+01  0.64424159234E+01  0.12700000000E+01 0.  1.
          4   -1    0    0  501    0  0.00000000000E+00 -0.00000000000E+00 -0.61222537131E+03  0.61222668855E+03  0.12700000000E+01 0.  1.
         25    2    1    2    0    0  0.00000000000E+00  0.00000000000E+00 -0.60590937393E+03  0.61866910448E+03  0.12500116567E+03 0.  0.
    9000005    1    3    3    0    0 -0.87458764506E+01  0.59881049754E+02 -0.22578796737E+03  0.23375935635E+03  0.10000000000E+01 0.  0.
    9000005    1    3    3    0    0  0.87458764506E+01 -0.59881049754E+02 -0.38012140656E+03  0.38490974812E+03  0.10000000000E+01 0.  0.
<mgrwt>
<rscale>  0 0.12500117E+03</rscale>
<asrwt>0</asrwt>
<pdfrwt beam="2">  1        4 0.94198298E-01 0.12500117E+03</pdfrwt>
<pdfrwt beam="1">  1       -4 0.98151822E-03 0.12500117E+03</pdfrwt>
<totfact> 0.47708775E+03</totfact>
</mgrwt>
</event>
<event>
 5    1  0.3235144E-002  0.1249997E+03  0.7818608E-02  0.1235070E+00
         -4   -1    0    0    0  501 -0.00000000000E+00  0.00000000000E+00  0.72694196300E+01  0.73795231389E+01  0.12700000000E+01 0.  1.
          4   -1    0    0  501    0  0.00000000000E+00 -0.00000000000E+00 -0.53320181710E+03  0.53320332956E+03  0.12700000000E+01 0.  1.
         25    2    1    2    0    0  0.00000000000E+00  0.00000000000E+00 -0.52593239747E+03  0.54058285270E+03  0.12499973571E+03 0.  0.
    9000005    1    3    3    0    0 -0.89461384173E+01 -0.60492180407E+02 -0.31866827569E+03  0.32448390902E+03  0.10000000000E+01 0.  0.
    9000005    1    3    3    0    0  0.89461384173E+01  0.60492180407E+02 -0.20726412178E+03  0.21609894368E+03  0.10000000000E+01 0.  0.
<mgrwt>
<rscale>  0 0.12499974E+03</rscale>
<asrwt>0</asrwt>
<pdfrwt beam="2">  1        4 0.82039604E-01 0.12499974E+03</pdfrwt>
<pdfrwt beam="1">  1       -4 0.11269585E-02 0.12499974E+03</pdfrwt>
<totfact> 0.52847937E+03</totfact>
</mgrwt>
</event>
<event>
 5    1  0.3235144E-002  0.1249983E+03  0.7818608E-02  0.1235072E+00
         -4   -1    0    0    0  501 -0.00000000000E+00  0.00000000000E+00  0.21138508915E+02  0.21176625302E+02  0.12700000000E+01 0. -1.
          4   -1    0    0  501    0  0.00000000000E+00 -0.00000000000E+00 -0.18458114564E+03  0.18458551467E+03  0.12700000000E+01 0. -1.
         25    2    1    2    0    0  0.00000000000E+00  0.00000000000E+00 -0.16344263673E+03  0.20576213997E+03  0.12499825097E+03 0.  0.
    9000005    1    3    3    0    0 -0.54456921930E+02 -0.37678063962E+01 -0.31646030130E+02  0.63104864584E+02  0.10000000000E+01 0.  0.
    9000005    1    3    3    0    0  0.54456921930E+02  0.37678063962E+01 -0.13179660660E+03  0.14265727539E+03  0.10000000000E+01 0.  0.
<mgrwt>
<rscale>  0 0.12499825E+03</rscale>
<asrwt>0</asrwt>
<pdfrwt beam="2">  1        4 0.28400366E-01 0.12499825E+03</pdfrwt>
<pdfrwt beam="1">  1       -4 0.32553465E-02 0.12499825E+03</pdfrwt>
<totfact> 0.89176178E+03</totfact>
</mgrwt>
</event>
<event>
 5    1  0.3235144E-002  0.1249990E+03  0.7818608E-02  0.1235071E+00
          4   -1    0    0  501    0  0.00000000000E+00  0.00000000000E+00  0.28240375369E+02  0.28268917577E+02  0.12700000000E+01 0.  1.
         -4   -1    0    0    0  501 -0.00000000000E+00 -0.00000000000E+00 -0.13821798674E+03  0.13822382124E+03  0.12700000000E+01 0.  1.
         25    2    1    2    0    0  0.00000000000E+00  0.00000000000E+00 -0.10997761137E+03  0.16649273882E+03  0.12499902830E+03 0.  0.
    9000005    1    3    3    0    0 -0.55790896593E+02 -0.13186038870E+02 -0.88119187354E+02  0.10513080873E+03  0.10000000000E+01 0.  0.
    9000005    1    3    3    0    0  0.55790896593E+02  0.13186038870E+02 -0.21858424016E+02  0.61361930089E+02  0.10000000000E+01 0.  0.
<mgrwt>
<rscale>  0 0.12499903E+03</rscale>
<asrwt>0</asrwt>
<pdfrwt beam="1">  1        4 0.43473176E-02 0.12499903E+03</pdfrwt>
<pdfrwt beam="2">  1       -4 0.21266950E-01 0.12499903E+03</pdfrwt>
<totfact> 0.96107534E+03</totfact>
</mgrwt>
</event>
<event>
 5    1  0.3235144E-002  0.1249986E+03  0.7818608E-02  0.1235072E+00
         -4   -1    0    0    0  501 -0.00000000000E+00  0.00000000000E+00  0.19131388996E+03  0.19131810524E+03  0.12700000000E+01 0.  1.
          4   -1    0    0  501    0  0.00000000000E+00 -0.00000000000E+00 -0.20393354508E+02  0.20432860986E+02  0.12700000000E+01 0.  1.
         25    2    1    2    0    0  0.00000000000E+00  0.00000000000E+00  0.17092053545E+03  0.21175096623E+03  0.12499856902E+03 0.  0.
    9000005    1    3    3    0    0  0.10202211454E+02 -0.59585990611E+02  0.58644018022E+02  0.84230019859E+02  0.10000000000E+01 0.  0.
    9000005    1    3    3    0    0 -0.10202211454E+02  0.59585990611E+02  0.11227651743E+03  0.12752094637E+03  0.10000000000E+01 0.  0.
<mgrwt>
<rscale>  0 0.12499857E+03</rscale>
<asrwt>0</asrwt>
<pdfrwt beam="2">  1        4 0.31408026E-02 0.12499857E+03</pdfrwt>
<pdfrwt beam="1">  1       -4 0.29436267E-01 0.12499857E+03</pdfrwt>
<totfact> 0.88193544E+03</totfact>
</mgrwt>
</event>
<event>
 5    1  0.3235144E-002  0.1249967E+03  0.7818608E-02  0.1235074E+00
         -4   -1    0    0    0  501 -0.00000000000E+00  0.00000000000E+00  0.23590165445E+03  0.23590507302E+03  0.12700000000E+01 0.  1.
          4   -1    0    0  501    0  0.00000000000E+00 -0.00000000000E+00 -0.16530037016E+02  0.16578752177E+02  0.12700000000E+01 0.  1.
         25    2    1    2    0    0  0.00000000000E+00  0.00000000000E+00  0.21937161744E+03  0.25248382519E+03  0.12499670174E+03 0.  0.
    9000005    1    3    3    0    0  0.93264316603E+01 -0.61602374225E+02  0.11941694255E+03  0.13469684854E+03  0.10000000000E+01 0.  0.
    9000005    1    3    3    0    0 -0.93264316603E+01  0.61602374225E+02  0.99954674889E+02  0.11778697666E+03  0.10000000000E+01 0.  0.
<mgrwt>
<rscale>  0 0.12499670E+03</rscale>
<asrwt>0</asrwt>
<pdfrwt beam="2">  1        4 0.25470928E-02 0.12499670E+03</pdfrwt>
<pdfrwt beam="1">  1       -4 0.36296575E-01 0.12499670E+03</pdfrwt>
<totfact> 0.81978577E+03</totfact>
</mgrwt>
</event>
<event>
 5    1  0.3235144E-002  0.1250046E+03  0.7818608E-02  0.1235062E+00
         -4   -1    0    0    0  501 -0.00000000000E+00  0.00000000000E+00  0.29063462436E+03  0.29063739913E+03  0.12700000000E+01 0.  1.
          4   -1    0    0  501    0  0.00000000000E+00 -0.00000000000E+00 -0.13408552112E+02  0.13468562274E+02  0.12700000000E+01 0.  1.
         25    2    1    2    0    0  0.00000000000E+00  0.00000000000E+00  0.27722607225E+03  0.30410596141E+03  0.12500456244E+03 0.  0.
    9000005    1    3    3    0    0 -0.26855364786E+01 -0.42631429729E+02  0.24958749374E+03  0.25321841943E+03  0.10000000000E+01 0.  0.
    9000005    1    3    3    0    0  0.26855364786E+01  0.42631429729E+02  0.27638578507E+02  0.50887541981E+02  0.10000000000E+01 0.  0.
<mgrwt>
<rscale>  0 0.12500456E+03</rscale>
<asrwt>0</asrwt>
<pdfrwt beam="2">  1        4 0.20676839E-02 0.12500456E+03</pdfrwt>
<pdfrwt beam="1">  1       -4 0.44717847E-01 0.12500456E+03</pdfrwt>
<totfact> 0.75079062E+03</totfact>
</mgrwt>
</event>
<event>
 4    1  0.3235144E-002  0.1253674E+03  0.7818608E-02  0.1234496E+00
         -4   -1    0    0    0  501 -0.00000000000E+00  0.00000000000E+00  0.10892353638E+02  0.10966141882E+02  0.12700000000E+01 0.  1.
          4   -1    0    0  501    0  0.00000000000E+00 -0.00000000000E+00 -0.35944163988E+03  0.35944388349E+03  0.12700000000E+01 0.  1.
    9000005    1    1    2    0    0 -0.33525970974E+02 -0.23287663741E+02 -0.31479480630E+03  0.31743200231E+03  0.10000000000E+01 0.  0.
    9000005    1    1    2    0    0  0.33525970974E+02  0.23287663741E+02 -0.33754479936E+02  0.52978023066E+02  0.10000000000E+01 0.  0.
<mgrwt>
<rscale>  0 0.12536739E+03</rscale>
<asrwt>0</asrwt>
<pdfrwt beam="2">  1        4 0.55304553E-01 0.12536739E+03</pdfrwt>
<pdfrwt beam="1">  1       -4 0.16815956E-02 0.12536739E+03</pdfrwt>
<totfact> 0.66990466E+03</totfact>
</mgrwt>
</event>
<event>
 5    1  0.3235144E-002  0.1250004E+03  0.7818608E-02  0.1235069E+00
         -4   -1    0    0    0  501 -0.00000000000E+00  0.00000000000E+00  0.89560258686E+02  0.89569262786E+02  0.12700000000E+01 0.  1.
          4   -1    0    0  501    0  0.00000000000E+00 -0.00000000000E+00 -0.43595702799E+02  0.43614197258E+02  0.12700000000E+01 0.  1.
         25    2    1    2    0    0  0.00000000000E+00  0.00000000000E+00  0.45964555888E+02  0.13318346004E+03  0.12500037452E+03 0.  0.
    9000005    1    3    3    0    0  0.26221234550E+02 -0.56674776926E+02  0.20440765029E+02  0.65714597739E+02  0.10000000000E+01 0.  0.
    9000005    1    3    3    0    0 -0.26221234550E+02  0.56674776926E+02  0.25523790859E+02  0.67468862306E+02  0.10000000000E+01 0.  0.
<mgrwt>
<rscale>  0 0.12500037E+03</rscale>
<asrwt>0</asrwt>
<pdfrwt beam="2">  1        4 0.67091465E-02 0.12500037E+03</pdfrwt>
<pdfrwt beam="1">  1       -4 0.13780617E-01 0.12500037E+03</pdfrwt>
<totfact> 0.10276416E+04</totfact>
</mgrwt>
</event>
<event>
 5    1  0.3235144E-002  0.1250039E+03  0.7818608E-02  0.1235063E+00
         -4   -1    0    0    0  501 -0.00000000000E+00  0.00000000000E+00  0.49526468832E+02  0.49542749368E+02  0.12700000000E+01 0.  1.
          4   -1    0    0  501    0  0.00000000000E+00 -0.00000000000E+00 -0.78842575819E+02  0.78852803766E+02  0.12700000000E+01 0.  1.
         25    2    1    2    0    0  0.00000000000E+00  0.00000000000E+00 -0.29316106987E+02  0.12839555313E+03  0.12500393568E+03 0.  0.
    9000005    1    3    3    0    0 -0.21089277619E+02 -0.32373892707E+02  0.35793576973E+02  0.52678332472E+02  0.10000000000E+01 0.  0.
    9000005    1    3    3    0    0  0.21089277619E+02  0.32373892707E+02 -0.65109683960E+02  0.75717220662E+02  0.10000000000E+01 0.  0.
<mgrwt>
<rscale>  0 0.12500394E+03</rscale>
<asrwt>0</asrwt>
<pdfrwt beam="2">  1        4 0.12131666E-01 0.12500394E+03</pdfrwt>
<pdfrwt beam="1">  1       -4 0.76214959E-02 0.12500394E+03</pdfrwt>
<totfact> 0.10378032E+04</totfact>
</mgrwt>
</event>
<event>
 5    1  0.3235144E-002  0.1250001E+03  0.7818608E-02  0.1235069E+00
         -4   -1    0    0    0  501 -0.00000000000E+00  0.00000000000E+00  0.27120987202E+02  0.27150706194E+02  0.12700000000E+01 0.  1.
          4   -1    0    0  501    0  0.00000000000E+00 -0.00000000000E+00 -0.14391929226E+03  0.14392489564E+03  0.12700000000E+01 0.  1.
         25    2    1    2    0    0  0.00000000000E+00  0.00000000000E+00 -0.11679830505E+03  0.17107560183E+03  0.12500006991E+03 0.  0.
    9000005    1    3    3    0    0  0.49841123469E+02  0.12688372379E+02 -0.10698212862E+03  0.11870681626E+03  0.10000000000E+01 0.  0.
    9000005    1    3    3    0    0 -0.49841123469E+02 -0.12688372379E+02 -0.98161764338E+01  0.52368785569E+02  0.10000000000E+01 0.  0.
<mgrwt>
<rscale>  0 0.12500007E+03</rscale>
<asrwt>0</asrwt>
<pdfrwt beam="2">  1        4 0.22144146E-01 0.12500007E+03</pdfrwt>
<pdfrwt beam="1">  1       -4 0.41751767E-02 0.12500007E+03</pdfrwt>
<totfact> 0.95248389E+03</totfact>
</mgrwt>
</event>
<event>
 5    1  0.3235144E-002  0.1250079E+03  0.7818608E-02  0.1235057E+00
         -4   -1    0    0    0  501 -0.00000000000E+00  0.00000000000E+00  0.10496114639E+04  0.10496122322E+04  0.12700000000E+01 0. -1.
          4   -1    0    0  501    0  0.00000000000E+00 -0.00000000000E+00 -0.36129604529E+01  0.38296714264E+01  0.12700000000E+01 0. -1.
         25    2    1    2    0    0  0.00000000000E+00  0.00000000000E+00  0.10459985034E+04  0.10534419037E+04  0.12500790043E+03 0.  0.
    9000005    1    3    3    0    0  0.24979885381E+02  0.52775120017E+02  0.71077885755E+03  0.71317374623E+03  0.10000000000E+01 0.  0.
    9000005    1    3    3    0    0 -0.24979885381E+02 -0.52775120017E+02  0.33521964589E+03  0.34026815743E+03  0.10000000000E+01 0.  0.
<mgrwt>
<rscale>  0 0.12500790E+03</rscale>
<asrwt>0</asrwt>
<pdfrwt beam="2">  1        4 0.57256958E-03 0.12500790E+03</pdfrwt>
<pdfrwt beam="1">  1       -4 0.16149532E+00 0.12500790E+03</pdfrwt>
<totfact> 0.28882582E+03</totfact>
</mgrwt>
</event>
<event>
 5    1  0.3235144E-002  0.1250006E+03  0.7818608E-02  0.1235068E+00
          4   -1    0    0  501    0  0.00000000000E+00  0.00000000000E+00  0.65196198320E+03  0.65196322016E+03  0.12700000000E+01 0. -1.
         -4   -1    0    0    0  501 -0.00000000000E+00 -0.00000000000E+00 -0.59230336843E+01  0.60576586257E+01  0.12700000000E+01 0. -1.
         25    2    1    2    0    0  0.00000000000E+00  0.00000000000E+00  0.64603894952E+03  0.65802087878E+03  0.12500061049E+03 0.  0.
    9000005    1    3    3    0    0 -0.40427932506E+02 -0.38187474110E+02  0.47307864535E+03  0.47633717637E+03  0.10000000000E+01 0.  0.
    9000005    1    3    3    0    0  0.40427932506E+02  0.38187474110E+02  0.17296030417E+03  0.18168370242E+03  0.10000000000E+01 0.  0.
<mgrwt>
<rscale>  0 0.12500061E+03</rscale>
<asrwt>0</asrwt>
<pdfrwt beam="1">  1        4 0.10031229E+00 0.12500061E+03</pdfrwt>
<pdfrwt beam="2">  1       -4 0.92168691E-03 0.12500061E+03</pdfrwt>
<totfact> 0.45396458E+03</totfact>
</mgrwt>
</event>
<event>
 5    1  0.3235144E-002  0.1250029E+03  0.7818608E-02  0.1235065E+00
          4   -1    0    0  501    0  0.00000000000E+00  0.00000000000E+00  0.36256766966E+02  0.36279002892E+02  0.12700000000E+01 0.  1.
         -4   -1    0    0    0  501 -0.00000000000E+00 -0.00000000000E+00 -0.10768442763E+03  0.10769191638E+03  0.12700000000E+01 0.  1.
         25    2    1    2    0    0  0.00000000000E+00  0.00000000000E+00 -0.71427660667E+02  0.14397091928E+03  0.12500285952E+03 0.  0.
    9000005    1    3    3    0    0 -0.30285647446E+02  0.27638040838E+02 -0.90033372030E+02  0.98934775593E+02  0.10000000000E+01 0.  0.
    9000005    1    3    3    0    0  0.30285647446E+02 -0.27638040838E+02  0.18605711363E+02  0.45036143684E+02  0.10000000000E+01 0.  0.
<mgrwt>
<rscale>  0 0.12500286E+03</rscale>
<asrwt>0</asrwt>
<pdfrwt beam="1">  1        4 0.55802507E-02 0.12500286E+03</pdfrwt>
<pdfrwt beam="2">  1       -4 0.16569121E-01 0.12500286E+03</pdfrwt>
<totfact> 0.10051292E+04</totfact>
</mgrwt>
</event>
<event>
 5    1  0.3235144E-002  0.1250218E+03  0.7818608E-02  0.1235035E+00
         -4   -1    0    0    0  501 -0.00000000000E+00  0.00000000000E+00  0.66291869991E+02  0.66304034017E+02  0.12700000000E+01 0. -1.
          4   -1    0    0  501    0  0.00000000000E+00 -0.00000000000E+00 -0.58921190128E+02  0.58934875465E+02  0.12700000000E+01 0. -1.
         25    2    1    2    0    0  0.00000000000E+00  0.00000000000E+00  0.73706798633E+01  0.12523890948E+03  0.12502182820E+03 0.  0.
    9000005    1    3    3    0    0 -0.50634903625E+02 -0.15416978951E+02 -0.29614486885E+02  0.60659661543E+02  0.10000000000E+01 0.  0.
    9000005    1    3    3    0    0  0.50634903625E+02  0.15416978951E+02  0.36985166748E+02  0.64579247940E+02  0.10000000000E+01 0.  0.
<mgrwt>
<rscale>  0 0.12502183E+03</rscale>
<asrwt>0</asrwt>
<pdfrwt beam="2">  1        4 0.90667869E-02 0.12502183E+03</pdfrwt>
<pdfrwt beam="1">  1       -4 0.10200738E-01 0.12502183E+03</pdfrwt>
<totfact> 0.10442523E+04</totfact>
</mgrwt>
</event>
<event>
 5    1  0.3235144E-002  0.1250001E+03  0.7818608E-02  0.1235069E+00
         -4   -1    0    0    0  501 -0.00000000000E+00  0.00000000000E+00  0.19094689316E+03  0.19095111654E+03  0.12700000000E+01 0. -1.
          4   -1    0    0  501    0  0.00000000000E+00 -0.00000000000E+00 -0.20433134915E+02  0.20472564628E+02  0.12700000000E+01 0. -1.
         25    2    1    2    0    0  0.00000000000E+00  0.00000000000E+00  0.17051375824E+03  0.21142368117E+03  0.12500012483E+03 0.  0.
    9000005    1    3    3    0    0  0.11211958627E+02  0.59955061704E+02  0.10825853145E+03  0.12426273404E+03  0.10000000000E+01 0.  0.
    9000005    1    3    3    0    0 -0.11211958627E+02 -0.59955061704E+02  0.62255226795E+02  0.87160947124E+02  0.10000000000E+01 0.  0.
<mgrwt>
<rscale>  0 0.12500012E+03</rscale>
<asrwt>0</asrwt>
<pdfrwt beam="2">  1        4 0.31469172E-02 0.12500012E+03</pdfrwt>
<pdfrwt beam="1">  1       -4 0.29379802E-01 0.12500012E+03</pdfrwt>
<totfact> 0.88243656E+03</totfact>
</mgrwt>
</event>
<event>
 5    1  0.3235144E-002  0.1250023E+03  0.7818608E-02  0.1235066E+00
         -4   -1    0    0    0  501 -0.00000000000E+00  0.00000000000E+00  0.19186643197E+02  0.19228629102E+02  0.12700000000E+01 0. -1.
          4   -1    0    0  501    0  0.00000000000E+00 -0.00000000000E+00 -0.20333330587E+03  0.20333727198E+03  0.12700000000E+01 0. -1.
         25    2    1    2    0    0  0.00000000000E+00  0.00000000000E+00 -0.18414666267E+03  0.22256590108E+03  0.12500234778E+03 0.  0.
    9000005    1    3    3    0    0 -0.36391028830E+02 -0.41566606634E+02 -0.14408407991E+03  0.15431562413E+03  0.10000000000E+01 0.  0.
    9000005    1    3    3    0    0  0.36391028830E+02  0.41566606634E+02 -0.40062582759E+02  0.68250276950E+02  0.10000000000E+01 0.  0.
<mgrwt>
<rscale>  0 0.12500235E+03</rscale>
<asrwt>0</asrwt>
<pdfrwt beam="2">  1        4 0.31285580E-01 0.12500235E+03</pdfrwt>
<pdfrwt beam="1">  1       -4 0.29553262E-02 0.12500235E+03</pdfrwt>
<totfact> 0.86459418E+03</totfact>
</mgrwt>
</event>
<event>
 5    1  0.3235144E-002  0.1249997E+03  0.7818608E-02  0.1235070E+00
          4   -1    0    0  501    0  0.00000000000E+00  0.00000000000E+00  0.17340693442E+03  0.17341158498E+03  0.12700000000E+01 0.  1.
         -4   -1    0    0    0  501 -0.00000000000E+00 -0.00000000000E+00 -0.22503532714E+02  0.22539340820E+02  0.12700000000E+01 0.  1.
         25    2    1    2    0    0  0.00000000000E+00  0.00000000000E+00  0.15090340171E+03  0.19595092580E+03  0.12499971470E+03 0.  0.
    9000005    1    3    3    0    0 -0.53216346620E+02 -0.25720877610E+02  0.43644681754E+02  0.73480618791E+02  0.10000000000E+01 0.  0.
    9000005    1    3    3    0    0  0.53216346620E+02  0.25720877610E+02  0.10725871995E+03  0.12247030701E+03  0.10000000000E+01 0.  0.
<mgrwt>
<rscale>  0 0.12499971E+03</rscale>
<asrwt>0</asrwt>
<pdfrwt beam="1">  1        4 0.26681101E-01 0.12499971E+03</pdfrwt>
<pdfrwt beam="2">  1       -4 0.34651942E-02 0.12499971E+03</pdfrwt>
<totfact> 0.90822639E+03</totfact>
</mgrwt>
</event>
<event>
 5    1  0.3235144E-002  0.1249949E+03  0.7818608E-02  0.1235077E+00
          4   -1    0    0  501    0  0.00000000000E+00  0.00000000000E+00  0.98023419206E+02  0.98031645976E+02  0.12700000000E+01 0.  1.
         -4   -1    0    0    0  501 -0.00000000000E+00 -0.00000000000E+00 -0.39826900027E+02  0.39847143759E+02  0.12700000000E+01 0.  1.
         25    2    1    2    0    0  0.00000000000E+00  0.00000000000E+00  0.58196519179E+02  0.13787878974E+03  0.12499490315E+03 0.  0.
    9000005    1    3    3    0    0  0.32999638345E+02  0.37616449794E+02 -0.12189158043E+02  0.51512610105E+02  0.10000000000E+01 0.  0.
    9000005    1    3    3    0    0 -0.32999638345E+02 -0.37616449794E+02  0.70385677222E+02  0.86366179631E+02  0.10000000000E+01 0.  0.
<mgrwt>
<rscale>  0 0.12499490E+03</rscale>
<asrwt>0</asrwt>
<pdfrwt beam="1">  1        4 0.15082716E-01 0.12499490E+03</pdfrwt>
<pdfrwt beam="2">  1       -4 0.61294053E-02 0.12499490E+03</pdfrwt>
<totfact> 0.10178908E+04</totfact>
</mgrwt>
</event>
<event>
 5    1  0.3235144E-002  0.1249998E+03  0.7818608E-02  0.1235070E+00
         -4   -1    0    0    0  501 -0.00000000000E+00  0.00000000000E+00  0.10201392045E+04  0.10201399951E+04  0.12700000000E+01 0. -1.
          4   -1    0    0  501    0  0.00000000000E+00 -0.00000000000E+00 -0.37230036201E+01  0.39336568172E+01  0.12700000000E+01 0. -1.
         25    2    1    2    0    0  0.00000000000E+00  0.00000000000E+00  0.10164162009E+04  0.10240736519E+04  0.12499980398E+03 0.  0.
    9000005    1    3    3    0    0 -0.48914418545E+02  0.92407404902E+01  0.81771351672E+03  0.81922793351E+03  0.10000000000E+01 0.  0.
    9000005    1    3    3    0    0  0.48914418545E+02 -0.92407404902E+01  0.19870268421E+03  0.20484571838E+03  0.10000000000E+01 0.  0.
<mgrwt>
<rscale>  0 0.12499980E+03</rscale>
<asrwt>0</asrwt>
<pdfrwt beam="2">  1        4 0.58903396E-03 0.12499980E+03</pdfrwt>
<pdfrwt beam="1">  1       -4 0.15696095E+00 0.12499980E+03</pdfrwt>
<totfact> 0.29818376E+03</totfact>
</mgrwt>
</event>
<event>
 5    1  0.3235144E-002  0.1249941E+03  0.7818608E-02  0.1235078E+00
          4   -1    0    0  501    0  0.00000000000E+00  0.00000000000E+00  0.10991076996E+02  0.11064206864E+02  0.12700000000E+01 0.  1.
         -4   -1    0    0    0  501 -0.00000000000E+00 -0.00000000000E+00 -0.35411600238E+03  0.35411827973E+03  0.12700000000E+01 0.  1.
         25    2    1    2    0    0  0.00000000000E+00  0.00000000000E+00 -0.34312492538E+03  0.36518248660E+03  0.12499413625E+03 0.  0.
    9000005    1    3    3    0    0 -0.30213191084E+02  0.45919342469E+02 -0.84723646643E+02  0.10099761992E+03  0.10000000000E+01 0.  0.
    9000005    1    3    3    0    0  0.30213191084E+02 -0.45919342469E+02 -0.25840127874E+03  0.26418486668E+03  0.10000000000E+01 0.  0.
<mgrwt>
<rscale>  0 0.12499414E+03</rscale>
<asrwt>0</asrwt>
<pdfrwt beam="1">  1        4 0.16967358E-02 0.12499414E+03</pdfrwt>
<pdfrwt beam="2">  1       -4 0.54485177E-01 0.12499414E+03</pdfrwt>
<totfact> 0.68094802E+03</totfact>
</mgrwt>
</event>
<event>
 5    1  0.3235144E-002  0.1250001E+03  0.7818608E-02  0.1235069E+00
          4   -1    0    0  501    0  0.00000000000E+00  0.00000000000E+00  0.67411089706E+02  0.67423051810E+02  0.12700000000E+01 0. -1.
         -4   -1    0    0    0  501 -0.00000000000E+00 -0.00000000000E+00 -0.57922771082E+02  0.57936692258E+02  0.12700000000E+01 0. -1.
         25    2    1    2    0    0  0.00000000000E+00  0.00000000000E+00  0.94883186241E+01  0.12535974407E+03  0.12500014897E+03 0.  0.
    9000005    1    3    3    0    0  0.57236433686E+02  0.58677038425E+01 -0.19714934079E+02  0.60828594552E+02  0.10000000000E+01 0.  0.
    9000005    1    3    3    0    0 -0.57236433686E+02 -0.58677038425E+01  0.29203252703E+02  0.64531149516E+02  0.10000000000E+01 0.  0.
<mgrwt>
<rscale>  0 0.12500015E+03</rscale>
<asrwt>0</asrwt>
<pdfrwt beam="1">  1        4 0.10372928E-01 0.12500015E+03</pdfrwt>
<pdfrwt beam="2">  1       -4 0.89131865E-02 0.12500015E+03</pdfrwt>
<totfact> 0.10445019E+04</totfact>
</mgrwt>
</event>
<event>
 5    1  0.3235144E-002  0.1250012E+03  0.7818608E-02  0.1235067E+00
          4   -1    0    0  501    0  0.00000000000E+00  0.00000000000E+00  0.47368226559E+03  0.47368396810E+03  0.12700000000E+01 0.  1.
         -4   -1    0    0    0  501 -0.00000000000E+00 -0.00000000000E+00 -0.81961027774E+01  0.82939134754E+01  0.12700000000E+01 0.  1.
         25    2    1    2    0    0  0.00000000000E+00  0.00000000000E+00  0.46548616281E+03  0.48197788157E+03  0.12500124222E+03 0.  0.
    9000005    1    3    3    0    0 -0.32843181209E+02  0.31564712858E+02  0.67783886521E+02  0.81674114147E+02  0.10000000000E+01 0.  0.
    9000005    1    3    3    0    0  0.32843181209E+02 -0.31564712858E+02  0.39770227629E+03  0.40030376743E+03  0.10000000000E+01 0.  0.
<mgrwt>
<rscale>  0 0.12500124E+03</rscale>
<asrwt>0</asrwt>
<pdfrwt beam="1">  1        4 0.72881825E-01 0.12500124E+03</pdfrwt>
<pdfrwt beam="2">  1       -4 0.12685942E-02 0.12500124E+03</pdfrwt>
<totfact> 0.57288730E+03</totfact>
</mgrwt>
</event>
<event>
 5    1  0.3235144E-002  0.1250072E+03  0.7818608E-02  0.1235058E+00
          4   -1    0    0  501    0  0.00000000000E+00  0.00000000000E+00  0.54846648283E+02  0.54861350037E+02  0.12700000000E+01 0.  1.
         -4   -1    0    0    0  501 -0.00000000000E+00 -0.00000000000E+00 -0.71199598065E+02  0.71210923773E+02  0.12700000000E+01 0.  1.
         25    2    1    2    0    0  0.00000000000E+00  0.00000000000E+00 -0.16352949782E+02  0.12607227381E+03  0.12500719682E+03 0.  0.
    9000005    1    3    3    0    0  0.43024862764E+02  0.42139005328E+02  0.86650632034E+01  0.60851605617E+02  0.10000000000E+01 0.  0.
    9000005    1    3    3    0    0 -0.43024862764E+02 -0.42139005328E+02 -0.25018012985E+02  0.65220668193E+02  0.10000000000E+01 0.  0.
<mgrwt>
<rscale>  0 0.12500720E+03</rscale>
<asrwt>0</asrwt>
<pdfrwt beam="1">  1        4 0.84399480E-02 0.12500720E+03</pdfrwt>
<pdfrwt beam="2">  1       -4 0.10955786E-01 0.12500720E+03</pdfrwt>
<totfact> 0.10427680E+04</totfact>
</mgrwt>
</event>
<event>
 5    1  0.3235144E-002  0.1249962E+03  0.7818608E-02  0.1235075E+00
          4   -1    0    0  501    0  0.00000000000E+00  0.00000000000E+00  0.59896494205E+01  0.61228098272E+01  0.12700000000E+01 0. -1.
         -4   -1    0    0    0  501 -0.00000000000E+00 -0.00000000000E+00 -0.64482413391E+03  0.64482538456E+03  0.12700000000E+01 0. -1.
         25    2    1    2    0    0  0.00000000000E+00  0.00000000000E+00 -0.63883448449E+03  0.65094819439E+03  0.12499621275E+03 0.  0.
    9000005    1    3    3    0    0 -0.57807761569E+02  0.23733272108E+02 -0.31895736191E+03  0.32502277493E+03  0.10000000000E+01 0.  0.
    9000005    1    3    3    0    0  0.57807761569E+02 -0.23733272108E+02 -0.31987712258E+03  0.32592541947E+03  0.10000000000E+01 0.  0.
<mgrwt>
<rscale>  0 0.12499621E+03</rscale>
<asrwt>0</asrwt>
<pdfrwt beam="1">  1        4 0.93182435E-03 0.12499621E+03</pdfrwt>
<pdfrwt beam="2">  1       -4 0.99213998E-01 0.12499621E+03</pdfrwt>
<totfact> 0.45805462E+03</totfact>
</mgrwt>
</event>
<event>
 5    1  0.3235144E-002  0.1249987E+03  0.7818608E-02  0.1235071E+00
         -4   -1    0    0    0  501 -0.00000000000E+00  0.00000000000E+00  0.53818496711E+02  0.53833479251E+02  0.12700000000E+01 0. -1.
          4   -1    0    0  501    0  0.00000000000E+00 -0.00000000000E+00 -0.72549812525E+02  0.72560927484E+02  0.12700000000E+01 0. -1.
         25    2    1    2    0    0  0.00000000000E+00  0.00000000000E+00 -0.18731315813E+02  0.12639440674E+03  0.12499873544E+03 0.  0.
    9000005    1    3    3    0    0 -0.60044698093E+02  0.25992858082E+01  0.79441517098E+01  0.60631935497E+02  0.10000000000E+01 0.  0.
    9000005    1    3    3    0    0  0.60044698093E+02 -0.25992858082E+01 -0.26675467523E+02  0.65762471238E+02  0.10000000000E+01 0.  0.
<mgrwt>
<rscale>  0 0.12499874E+03</rscale>
<asrwt>0</asrwt>
<pdfrwt beam="2">  1        4 0.11163517E-01 0.12499874E+03</pdfrwt>
<pdfrwt beam="1">  1       -4 0.82817762E-02 0.12499874E+03</pdfrwt>
<totfact> 0.10422629E+04</totfact>
</mgrwt>
</event>
<event>
 5    1  0.3235144E-002  0.1249993E+03  0.7818608E-02  0.1235070E+00
          4   -1    0    0  501    0  0.00000000000E+00  0.00000000000E+00  0.41665263745E+02  0.41684614703E+02  0.12700000000E+01 0. -1.
         -4   -1    0    0    0  501 -0.00000000000E+00 -0.00000000000E+00 -0.93706743033E+02  0.93715348742E+02  0.12700000000E+01 0. -1.
         25    2    1    2    0    0  0.00000000000E+00  0.00000000000E+00 -0.52041479288E+02  0.13539996344E+03  0.12499933814E+03 0.  0.
    9000005    1    3    3    0    0  0.22466680656E+01 -0.13712815058E+02  0.39975900530E+02  0.42333927734E+02  0.10000000000E+01 0.  0.
    9000005    1    3    3    0    0 -0.22466680656E+01  0.13712815058E+02 -0.92017379818E+02  0.93066035710E+02  0.10000000000E+01 0.  0.
<mgrwt>
<rscale>  0 0.12499934E+03</rscale>
<asrwt>0</asrwt>
<pdfrwt beam="1">  1        4 0.64121911E-02 0.12499934E+03</pdfrwt>
<pdfrwt beam="2">  1       -4 0.14418572E-01 0.12499934E+03</pdfrwt>
<totfact> 0.10229800E+04</totfact>
</mgrwt>
</event>
<event>
 5    1  0.3235144E-002  0.1250037E+03  0.7818608E-02  0.1235063E+00
         -4   -1    0    0    0  501 -0.00000000000E+00  0.00000000000E+00  0.50856365702E+02  0.50872220636E+02  0.12700000000E+01 0. -1.
          4   -1    0    0  501    0  0.00000000000E+00 -0.00000000000E+00 -0.76780969800E+02  0.76791472335E+02  0.12700000000E+01 0. -1.
         25    2    1    2    0    0  0.00000000000E+00  0.00000000000E+00 -0.25924604098E+02  0.12766369297E+03  0.12500373357E+03 0.  0.
    9000005    1    3    3    0    0 -0.46724410179E+02  0.25742342525E+02  0.20282560585E+02  0.57080828385E+02  0.10000000000E+01 0.  0.
    9000005    1    3    3    0    0  0.46724410179E+02 -0.25742342525E+02 -0.46207164683E+02  0.70582864587E+02  0.10000000000E+01 0.  0.
<mgrwt>
<rscale>  0 0.12500373E+03</rscale>
<asrwt>0</asrwt>
<pdfrwt beam="2">  1        4 0.11814484E-01 0.12500373E+03</pdfrwt>
<pdfrwt beam="1">  1       -4 0.78260837E-02 0.12500373E+03</pdfrwt>
<totfact> 0.10393881E+04</totfact>
</mgrwt>
</event>
<event>
 5    1  0.3235144E-002  0.1249964E+03  0.7818608E-02  0.1235075E+00
         -4   -1    0    0    0  501 -0.00000000000E+00  0.00000000000E+00  0.16172115266E+02  0.16221905319E+02  0.12700000000E+01 0. -1.
          4   -1    0    0  501    0  0.00000000000E+00 -0.00000000000E+00 -0.24110579507E+03  0.24110913984E+03  0.12700000000E+01 0. -1.
         25    2    1    2    0    0  0.00000000000E+00  0.00000000000E+00 -0.22493367980E+03  0.25733104516E+03  0.12499642593E+03 0.  0.
    9000005    1    3    3    0    0  0.61397333711E+02  0.12500953976E+01 -0.13628309284E+03  0.14948336603E+03  0.10000000000E+01 0.  0.
    9000005    1    3    3    0    0 -0.61397333711E+02 -0.12500953976E+01 -0.88650586961E+02  0.10784767913E+03  0.10000000000E+01 0.  0.
<mgrwt>
<rscale>  0 0.12499643E+03</rscale>
<asrwt>0</asrwt>
<pdfrwt beam="2">  1        4 0.37097284E-01 0.12499643E+03</pdfrwt>
<pdfrwt beam="1">  1       -4 0.24921052E-02 0.12499643E+03</pdfrwt>
<totfact> 0.81288545E+03</totfact>
</mgrwt>
</event>
<event>
 5    1  0.3235144E-002  0.1249955E+03  0.7818608E-02  0.1235076E+00
         -4   -1    0    0    0  501 -0.00000000000E+00  0.00000000000E+00  0.43011237004E+01  0.44847034558E+01  0.12700000000E+01 0. -1.
          4   -1    0    0  501    0  0.00000000000E+00 -0.00000000000E+00 -0.88896872821E+03  0.88896963538E+03  0.12700000000E+01 0. -1.
         25    2    1    2    0    0  0.00000000000E+00  0.00000000000E+00 -0.88466760451E+03  0.89345433884E+03  0.12499554041E+03 0.  0.
    9000005    1    3    3    0    0  0.51660958530E+02  0.34017915359E+02 -0.50582464021E+03  0.50959360263E+03  0.10000000000E+01 0.  0.
    9000005    1    3    3    0    0 -0.51660958530E+02 -0.34017915359E+02 -0.37884296430E+03  0.38386073621E+03  0.10000000000E+01 0.  0.
<mgrwt>
<rscale>  0 0.12499554E+03</rscale>
<asrwt>0</asrwt>
<pdfrwt beam="2">  1        4 0.13677847E+00 0.12499554E+03</pdfrwt>
<pdfrwt beam="1">  1       -4 0.67590335E-03 0.12499554E+03</pdfrwt>
<totfact> 0.34415184E+03</totfact>
</mgrwt>
</event>
<event>
 5    1  0.3235144E-002  0.1250029E+03  0.7818608E-02  0.1235065E+00
         -4   -1    0    0    0  501 -0.00000000000E+00  0.00000000000E+00  0.12190429429E+03  0.12191090954E+03  0.12700000000E+01 0.  1.
          4   -1    0    0  501    0  0.00000000000E+00 -0.00000000000E+00 -0.32025010269E+02  0.32050182257E+02  0.12700000000E+01 0.  1.
         25    2    1    2    0    0  0.00000000000E+00  0.00000000000E+00  0.89879284018E+02  0.15396109180E+03  0.12500292834E+03 0.  0.
    9000005    1    3    3    0    0  0.20469592084E+02  0.38139731547E+02 -0.10577892664E+02  0.44570563557E+02  0.10000000000E+01 0.  0.
    9000005    1    3    3    0    0 -0.20469592084E+02 -0.38139731547E+02  0.10045717668E+03  0.10939052824E+03  0.10000000000E+01 0.  0.
<mgrwt>
<rscale>  0 0.12500293E+03</rscale>
<asrwt>0</asrwt>
<pdfrwt beam="2">  1        4 0.49293698E-02 0.12500293E+03</pdfrwt>
<pdfrwt beam="1">  1       -4 0.18756952E-01 0.12500293E+03</pdfrwt>
<totfact> 0.98513347E+03</totfact>
</mgrwt>
</event>
<event>
 5    1  0.3235144E-002  0.1250011E+03  0.7818608E-02  0.1235068E+00
          4   -1    0    0  501    0  0.00000000000E+00  0.00000000000E+00  0.43075137732E+02  0.43093855601E+02  0.12700000000E+01 0. -1.
         -4   -1    0    0    0  501 -0.00000000000E+00 -0.00000000000E+00 -0.90643338772E+02  0.90652235293E+02  0.12700000000E+01 0. -1.
         25    2    1    2    0    0  0.00000000000E+00  0.00000000000E+00 -0.47568201040E+02  0.13374609089E+03  0.12500113231E+03 0.  0.
    9000005    1    3    3    0    0 -0.37057497366E+02 -0.13321780152E+02 -0.75702949909E+02  0.85338529178E+02  0.10000000000E+01 0.  0.
    9000005    1    3    3    0    0  0.37057497366E+02  0.13321780152E+02  0.28134748868E+02  0.48407561717E+02  0.10000000000E+01 0.  0.
<mgrwt>
<rscale>  0 0.12500113E+03</rscale>
<asrwt>0</asrwt>
<pdfrwt beam="1">  1        4 0.66290685E-02 0.12500113E+03</pdfrwt>
<pdfrwt beam="2">  1       -4 0.13947253E-01 0.12500113E+03</pdfrwt>
<totfact> 0.10264306E+04</totfact>
</mgrwt>
</event>
<event>
 5    1  0.3235144E-002  0.1250096E+03  0.7818608E-02  0.1235054E+00
          4   -1    0    0  501    0  0.00000000000E+00  0.00000000000E+00  0.16510992895E+02  0.16559764079E+02  0.12700000000E+01 0. -1.
         -4   -1    0    0    0  501 -0.00000000000E+00 -0.00000000000E+00 -0.23622168996E+03  0.23622510389E+03  0.12700000000E+01 0. -1.
         25    2    1    2    0    0  0.00000000000E+00  0.00000000000E+00 -0.21971069706E+03  0.25278486796E+03  0.12500959591E+03 0.  0.
    9000005    1    3    3    0    0  0.17363410342E+02 -0.19433758869E+02 -0.22471999881E+03  0.22622828485E+03  0.10000000000E+01 0.  0.
    9000005    1    3    3    0    0 -0.17363410342E+02  0.19433758869E+02  0.50093017502E+01  0.26556583110E+02  0.10000000000E+01 0.  0.
<mgrwt>
<rscale>  0 0.12500960E+03</rscale>
<asrwt>0</asrwt>
<pdfrwt beam="1">  1        4 0.25441672E-02 0.12500960E+03</pdfrwt>
<pdfrwt beam="2">  1       -4 0.36345810E-01 0.12500960E+03</pdfrwt>
<totfact> 0.81911880E+03</totfact>
</mgrwt>
</event>
<event>
 5    1  0.3235144E-002  0.1250056E+03  0.7818608E-02  0.1235061E+00
         -4   -1    0    0    0  501 -0.00000000000E+00  0.00000000000E+00  0.22210203416E+03  0.22210566512E+03  0.12700000000E+01 0. -1.
          4   -1    0    0  501    0  0.00000000000E+00 -0.00000000000E+00 -0.17562502258E+02  0.17608361240E+02  0.12700000000E+01 0. -1.
         25    2    1    2    0    0  0.00000000000E+00  0.00000000000E+00  0.20453953190E+03  0.23971402636E+03  0.12500557717E+03 0.  0.
    9000005    1    3    3    0    0  0.57167178869E+01 -0.59414269533E+02  0.13777757859E+03  0.15015457852E+03  0.10000000000E+01 0.  0.
    9000005    1    3    3    0    0 -0.57167178869E+01  0.59414269533E+02  0.66761953308E+02  0.89559447838E+02  0.10000000000E+01 0.  0.
<mgrwt>
<rscale>  0 0.12500558E+03</rscale>
<asrwt>0</asrwt>
<pdfrwt beam="2">  1        4 0.27057304E-02 0.12500558E+03</pdfrwt>
<pdfrwt beam="1">  1       -4 0.34173350E-01 0.12500558E+03</pdfrwt>
<totfact> 0.83829552E+03</totfact>
</mgrwt>
</event>
<event>
 5    1  0.3235144E-002  0.1249976E+03  0.7818608E-02  0.1235073E+00
          4   -1    0    0  501    0  0.00000000000E+00  0.00000000000E+00  0.22325415122E+02  0.22361508455E+02  0.12700000000E+01 0.  1.
         -4   -1    0    0    0  501 -0.00000000000E+00 -0.00000000000E+00 -0.17478244560E+03  0.17478705956E+03  0.12700000000E+01 0.  1.
         25    2    1    2    0    0  0.00000000000E+00  0.00000000000E+00 -0.15245703048E+03  0.19714856802E+03  0.12499764689E+03 0.  0.
    9000005    1    3    3    0    0  0.33722880203E+02  0.64861452177E+01 -0.15857381206E+03  0.16225275529E+03  0.10000000000E+01 0.  0.
    9000005    1    3    3    0    0 -0.33722880203E+02 -0.64861452177E+01  0.61167815784E+01  0.34895812726E+02  0.10000000000E+01 0.  0.
<mgrwt>
<rscale>  0 0.12499765E+03</rscale>
<asrwt>0</asrwt>
<pdfrwt beam="1">  1        4 0.34378107E-02 0.12499765E+03</pdfrwt>
<pdfrwt beam="2">  1       -4 0.26892737E-01 0.12499765E+03</pdfrwt>
<totfact> 0.90622923E+03</totfact>
</mgrwt>
</event>
<event>
 5    1  0.3235144E-002  0.1250032E+03  0.7818608E-02  0.1235064E+00
          4   -1    0    0  501    0  0.00000000000E+00  0.00000000000E+00  0.40654122771E+02  0.40673954790E+02  0.12700000000E+01 0. -1.
         -4   -1    0    0    0  501 -0.00000000000E+00 -0.00000000000E+00 -0.96042423677E+02  0.96050820120E+02  0.12700000000E+01 0. -1.
         25    2    1    2    0    0  0.00000000000E+00  0.00000000000E+00 -0.55388300906E+02  0.13672477491E+03  0.12500320075E+03 0.  0.
    9000005    1    3    3    0    0 -0.40520471770E+02 -0.42925652542E+02 -0.52537343796E+01  0.59271595250E+02  0.10000000000E+01 0.  0.
    9000005    1    3    3    0    0  0.40520471770E+02  0.42925652542E+02 -0.50134566526E+02  0.77453179660E+02  0.10000000000E+01 0.  0.
<mgrwt>
<rscale>  0 0.12500320E+03</rscale>
<asrwt>0</asrwt>
<pdfrwt beam="1">  1        4 0.62566519E-02 0.12500320E+03</pdfrwt>
<pdfrwt beam="2">  1       -4 0.14777929E-01 0.12500320E+03</pdfrwt>
<totfact> 0.10201107E+04</totfact>
</mgrwt>
</event>
<event>
 5    1  0.3235144E-002  0.1250003E+03  0.7818608E-02  0.1235069E+00
          4   -1    0    0  501    0  0.00000000000E+00  0.00000000000E+00  0.16328324378E+03  0.16328818267E+03  0.12700000000E+01 0. -1.
         -4   -1    0    0    0  501 -0.00000000000E+00 -0.00000000000E+00 -0.23901111385E+02  0.23934828711E+02  0.12700000000E+01 0. -1.
         25    2    1    2    0    0  0.00000000000E+00  0.00000000000E+00  0.13938213240E+03  0.18722301138E+03  0.12500030864E+03 0.  0.
    9000005    1    3    3    0    0 -0.45311475807E+02 -0.38210493513E+02  0.40032834566E+02  0.71531807594E+02  0.10000000000E+01 0.  0.
    9000005    1    3    3    0    0  0.45311475807E+02  0.38210493513E+02  0.99349297830E+02  0.11569120379E+03  0.10000000000E+01 0.  0.
<mgrwt>
<rscale>  0 0.12500031E+03</rscale>
<asrwt>0</asrwt>
<pdfrwt beam="1">  1        4 0.25123474E-01 0.12500031E+03</pdfrwt>
<pdfrwt beam="2">  1       -4 0.36800674E-02 0.12500031E+03</pdfrwt>
<totfact> 0.92332119E+03</totfact>
</mgrwt>
</event>
<event>
 5    1  0.3235144E-002  0.1249972E+03  0.7818608E-02  0.1235074E+00
          4   -1    0    0  501    0  0.00000000000E+00  0.00000000000E+00  0.16681621675E+03  0.16682105104E+03  0.12700000000E+01 0.  1.
         -4   -1    0    0    0  501 -0.00000000000E+00 -0.00000000000E+00 -0.23393026995E+02  0.23427475579E+02  0.12700000000E+01 0.  1.
         25    2    1    2    0    0  0.00000000000E+00  0.00000000000E+00  0.14342318975E+03  0.19024852662E+03  0.12499716205E+03 0.  0.
    9000005    1    3    3    0    0  0.23426368959E+02  0.55789046599E+02  0.47943653633E+02  0.77206258857E+02  0.10000000000E+01 0.  0.
    9000005    1    3    3    0    0 -0.23426368959E+02 -0.55789046599E+02  0.95479536118E+02  0.11304226776E+03  0.10000000000E+01 0.  0.
<mgrwt>
<rscale>  0 0.12499716E+03</rscale>
<asrwt>0</asrwt>
<pdfrwt beam="1">  1        4 0.25667056E-01 0.12499716E+03</pdfrwt>
<pdfrwt beam="2">  1       -4 0.36019489E-02 0.12499716E+03</pdfrwt>
<totfact> 0.91809925E+03</totfact>
</mgrwt>
</event>
<event>
 5    1  0.3235144E-002  0.1250004E+03  0.7818608E-02  0.1235069E+00
          4   -1    0    0  501    0  0.00000000000E+00  0.00000000000E+00  0.88738399256E+02  0.88747486739E+02  0.12700000000E+01 0. -1.
         -4   -1    0    0    0  501 -0.00000000000E+00 -0.00000000000E+00 -0.43999644361E+02  0.44017969102E+02  0.12700000000E+01 0. -1.
         25    2    1    2    0    0  0.00000000000E+00  0.00000000000E+00  0.44738754895E+02  0.13276545584E+03  0.12500044030E+03 0.  0.
    9000005    1    3    3    0    0  0.36813593168E+02 -0.13587319367E+02  0.74026216782E+02  0.83789836260E+02  0.10000000000E+01 0.  0.
    9000005    1    3    3    0    0 -0.36813593168E+02  0.13587319367E+02 -0.29287461887E+02  0.48975619581E+02  0.10000000000E+01 0.  0.
<mgrwt>
<rscale>  0 0.12500044E+03</rscale>
<asrwt>0</asrwt>
<pdfrwt beam="1">  1        4 0.13654170E-01 0.12500044E+03</pdfrwt>
<pdfrwt beam="2">  1       -4 0.67712847E-02 0.12500044E+03</pdfrwt>
<totfact> 0.10285285E+04</totfact>
</mgrwt>
</event>
<event>
 5    1  0.3235144E-002  0.1249981E+03  0.7818608E-02  0.1235072E+00
         -4   -1    0    0    0  501 -0.00000000000E+00  0.00000000000E+00  0.30335175585E+03  0.30335441431E+03  0.12700000000E+01 0. -1.
          4   -1    0    0  501    0  0.00000000000E+00 -0.00000000000E+00 -0.12842527344E+02  0.12905169839E+02  0.12700000000E+01 0. -1.
         25    2    1    2    0    0  0.00000000000E+00  0.00000000000E+00  0.29050922851E+03  0.31625958415E+03  0.12499805085E+03 0.  0.
    9000005    1    3    3    0    0 -0.56134207623E+02  0.93483849001E+01  0.79926319515E+02  0.98120630435E+02  0.10000000000E+01 0.  0.
    9000005    1    3    3    0    0  0.56134207623E+02 -0.93483849001E+01  0.21058290899E+03  0.21813895371E+03  0.10000000000E+01 0.  0.
<mgrwt>
<rscale>  0 0.12499805E+03</rscale>
<asrwt>0</asrwt>
<pdfrwt beam="2">  1        4 0.19807966E-02 0.12499805E+03</pdfrwt>
<pdfrwt beam="1">  1       -4 0.46674524E-01 0.12499805E+03</pdfrwt>
<totfact> 0.73606397E+03</totfact>
</mgrwt>
</event>
<event>
 5    1  0.3235144E-002  0.1249850E+03  0.7818608E-02  0.1235093E+00
         -4   -1    0    0    0  501 -0.00000000000E+00  0.00000000000E+00  0.29093952056E+02  0.29121657683E+02  0.12700000000E+01 0. -1.
          4   -1    0    0  501    0  0.00000000000E+00 -0.00000000000E+00 -0.13413644823E+03  0.13414246026E+03  0.12700000000E+01 0. -1.
         25    2    1    2    0    0  0.00000000000E+00  0.00000000000E+00 -0.10504249618E+03  0.16326411794E+03  0.12498498392E+03 0.  0.
    9000005    1    3    3    0    0 -0.27287557377E+02 -0.54973106611E+02 -0.37195060763E+02  0.71771343746E+02  0.10000000000E+01 0.  0.
    9000005    1    3    3    0    0  0.27287557377E+02  0.54973106611E+02 -0.67847435415E+02  0.91492774198E+02  0.10000000000E+01 0.  0.
<mgrwt>
<rscale>  0 0.12498498E+03</rscale>
<asrwt>0</asrwt>
<pdfrwt beam="2">  1        4 0.20638970E-01 0.12498498E+03</pdfrwt>
<pdfrwt beam="1">  1       -4 0.44785864E-02 0.12498498E+03</pdfrwt>
<totfact> 0.96749794E+03</totfact>
</mgrwt>
</event>
<event>
 5    1  0.3235144E-002  0.1250017E+03  0.7818608E-02  0.1235067E+00
          4   -1    0    0  501    0  0.00000000000E+00  0.00000000000E+00  0.27438181590E+02  0.27467557390E+02  0.12700000000E+01 0. -1.
         -4   -1    0    0    0  501 -0.00000000000E+00 -0.00000000000E+00 -0.14226094264E+03  0.14226661134E+03  0.12700000000E+01 0. -1.
         25    2    1    2    0    0  0.00000000000E+00  0.00000000000E+00 -0.11482276105E+03  0.16973416873E+03  0.12500168630E+03 0.  0.
    9000005    1    3    3    0    0 -0.39340228551E+02 -0.40255413337E+02 -0.94279170342E+02  0.10980762198E+03  0.10000000000E+01 0.  0.
    9000005    1    3    3    0    0  0.39340228551E+02  0.40255413337E+02 -0.20543590710E+02  0.59926546744E+02  0.10000000000E+01 0.  0.
<mgrwt>
<rscale>  0 0.12500169E+03</rscale>
<asrwt>0</asrwt>
<pdfrwt beam="1">  1        4 0.42239545E-02 0.12500169E+03</pdfrwt>
<pdfrwt beam="2">  1       -4 0.21888994E-01 0.12500169E+03</pdfrwt>
<totfact> 0.95494593E+03</totfact>
</mgrwt>
</event>
<event>
 5    1  0.3235144E-002  0.1249992E+03  0.7818608E-02  0.1235070E+00
          4   -1    0    0  501    0  0.00000000000E+00  0.00000000000E+00  0.10578400006E+02  0.10654362800E+02  0.12700000000E+01 0.  1.
         -4   -1    0    0    0  501 -0.00000000000E+00 -0.00000000000E+00 -0.36786400551E+03  0.36786619775E+03  0.12700000000E+01 0.  1.
         25    2    1    2    0    0  0.00000000000E+00  0.00000000000E+00 -0.35728560550E+03  0.37852056055E+03  0.12499924344E+03 0.  0.
    9000005    1    3    3    0    0 -0.28935727201E+02  0.55308792948E+02 -0.16962724121E+03  0.18075049058E+03  0.10000000000E+01 0.  0.
    9000005    1    3    3    0    0  0.28935727201E+02 -0.55308792948E+02 -0.18765836429E+03  0.19777006997E+03  0.10000000000E+01 0.  0.
<mgrwt>
<rscale>  0 0.12499924E+03</rscale>
<asrwt>0</asrwt>
<pdfrwt beam="1">  1        4 0.16334584E-02 0.12499924E+03</pdfrwt>
<pdfrwt beam="2">  1       -4 0.56600464E-01 0.12499924E+03</pdfrwt>
<totfact> 0.66697968E+03</totfact>
</mgrwt>
</event>
<event>
 5    1  0.3235144E-002  0.1249982E+03  0.7818608E-02  0.1235072E+00
         -4   -1    0    0    0  501 -0.00000000000E+00  0.00000000000E+00  0.87925360479E+02  0.87934531984E+02  0.12700000000E+01 0. -1.
          4   -1    0    0  501    0  0.00000000000E+00 -0.00000000000E+00 -0.44405009229E+02  0.44423166756E+02  0.12700000000E+01 0. -1.
         25    2    1    2    0    0  0.00000000000E+00  0.00000000000E+00  0.43520351250E+02  0.13235769874E+03  0.12499815776E+03 0.  0.
    9000005    1    3    3    0    0  0.33669058190E+02 -0.15140636004E+02 -0.31629610917E+02  0.48623827747E+02  0.10000000000E+01 0.  0.
    9000005    1    3    3    0    0 -0.33669058190E+02  0.15140636004E+02  0.75149962166E+02  0.83733870994E+02  0.10000000000E+01 0.  0.
<mgrwt>
<rscale>  0 0.12499816E+03</rscale>
<asrwt>0</asrwt>
<pdfrwt beam="2">  1        4 0.68336422E-02 0.12499816E+03</pdfrwt>
<pdfrwt beam="1">  1       -4 0.13529081E-01 0.12499816E+03</pdfrwt>
<totfact> 0.10294497E+04</totfact>
</mgrwt>
</event>
<event>
 5    1  0.3235144E-002  0.1249985E+03  0.7818608E-02  0.1235072E+00
          4   -1    0    0  501    0  0.00000000000E+00  0.00000000000E+00  0.59251033328E+02  0.59264642498E+02  0.12700000000E+01 0. -1.
         -4   -1    0    0    0  501 -0.00000000000E+00 -0.00000000000E+00 -0.65898213540E+02  0.65910450216E+02  0.12700000000E+01 0. -1.
         25    2    1    2    0    0  0.00000000000E+00  0.00000000000E+00 -0.66471802122E+01  0.12517509271E+03  0.12499847532E+03 0.  0.
    9000005    1    3    3    0    0 -0.11034522816E+01  0.43482919163E+02 -0.48255381882E+02  0.64973561903E+02  0.10000000000E+01 0.  0.
    9000005    1    3    3    0    0  0.11034522816E+01 -0.43482919163E+02  0.41608201669E+02  0.60201530811E+02  0.10000000000E+01 0.  0.
<mgrwt>
<rscale>  0 0.12499848E+03</rscale>
<asrwt>0</asrwt>
<pdfrwt beam="1">  1        4 0.91175318E-02 0.12499848E+03</pdfrwt>
<pdfrwt beam="2">  1       -4 0.10140175E-01 0.12499848E+03</pdfrwt>
<totfact> 0.10449421E+04</totfact>
</mgrwt>
</event>
<event>
 5    1  0.3235144E-002  0.1250007E+03  0.7818608E-02  0.1235068E+00
          4   -1    0    0  501    0  0.00000000000E+00  0.00000000000E+00  0.63901141522E+02  0.63913760551E+02  0.12700000000E+01 0.  1.
         -4   -1    0    0    0  501 -0.00000000000E+00 -0.00000000000E+00 -0.61105006341E+02  0.61118202689E+02  0.12700000000E+01 0.  1.
         25    2    1    2    0    0  0.00000000000E+00  0.00000000000E+00  0.27961351809E+01  0.12503196324E+03  0.12500069384E+03 0.  0.
    9000005    1    3    3    0    0  0.37822380426E+02 -0.16633096536E+02  0.48293705637E+02  0.63564725797E+02  0.10000000000E+01 0.  0.
    9000005    1    3    3    0    0 -0.37822380426E+02  0.16633096536E+02 -0.45497570456E+02  0.61467237443E+02  0.10000000000E+01 0.  0.
<mgrwt>
<rscale>  0 0.12500069E+03</rscale>
<asrwt>0</asrwt>
<pdfrwt beam="1">  1        4 0.98329307E-02 0.12500069E+03</pdfrwt>
<pdfrwt beam="2">  1       -4 0.94027560E-02 0.12500069E+03</pdfrwt>
<totfact> 0.10452004E+04</totfact>
</mgrwt>
</event>
<event>
 5    1  0.3235144E-002  0.1250017E+03  0.7818608E-02  0.1235067E+00
         -4   -1    0    0    0  501 -0.00000000000E+00  0.00000000000E+00  0.25186410865E+03  0.25186731055E+03  0.12700000000E+01 0. -1.
          4   -1    0    0  501    0  0.00000000000E+00 -0.00000000000E+00 -0.15480484275E+02  0.15532491538E+02  0.12700000000E+01 0. -1.
         25    2    1    2    0    0  0.00000000000E+00  0.00000000000E+00  0.23638362437E+03  0.26739980209E+03  0.12500174513E+03 0.  0.
    9000005    1    3    3    0    0 -0.22914601781E+02  0.53219246842E+02  0.16826809229E+03  0.17796774453E+03  0.10000000000E+01 0.  0.
    9000005    1    3    3    0    0  0.22914601781E+02 -0.53219246842E+02  0.68115532083E+02  0.89432057564E+02  0.10000000000E+01 0.  0.
<mgrwt>
<rscale>  0 0.12500175E+03</rscale>
<asrwt>0</asrwt>
<pdfrwt beam="2">  1        4 0.23858601E-02 0.12500175E+03</pdfrwt>
<pdfrwt beam="1">  1       -4 0.38752567E-01 0.12500175E+03</pdfrwt>
<totfact> 0.79875591E+03</totfact>
</mgrwt>
</event>
<event>
 5    1  0.3235144E-002  0.1249995E+03  0.7818608E-02  0.1235070E+00
          4   -1    0    0  501    0  0.00000000000E+00  0.00000000000E+00  0.52882807316E+02  0.52898054876E+02  0.12700000000E+01 0. -1.
         -4   -1    0    0    0  501 -0.00000000000E+00 -0.00000000000E+00 -0.73834202544E+02  0.73845124181E+02  0.12700000000E+01 0. -1.
         25    2    1    2    0    0  0.00000000000E+00  0.00000000000E+00 -0.20951395228E+02  0.12674317906E+03  0.12499948990E+03 0.  0.
    9000005    1    3    3    0    0 -0.24242949018E+02 -0.18706657494E+02  0.44759511240E+02  0.54240883641E+02  0.10000000000E+01 0.  0.
    9000005    1    3    3    0    0  0.24242949018E+02  0.18706657494E+02 -0.65710906468E+02  0.72502295415E+02  0.10000000000E+01 0.  0.
<mgrwt>
<rscale>  0 0.12499949E+03</rscale>
<asrwt>0</asrwt>
<pdfrwt beam="1">  1        4 0.81378296E-02 0.12499949E+03</pdfrwt>
<pdfrwt beam="2">  1       -4 0.11361121E-01 0.12499949E+03</pdfrwt>
<totfact> 0.10414850E+04</totfact>
</mgrwt>
</event>
<event>
 5    1  0.3235144E-002  0.1249966E+03  0.7818608E-02  0.1235075E+00
          4   -1    0    0  501    0  0.00000000000E+00  0.00000000000E+00  0.81501725998E+01  0.82485279539E+01  0.12700000000E+01 0. -1.
         -4   -1    0    0    0  501 -0.00000000000E+00 -0.00000000000E+00 -0.47628427779E+03  0.47628597100E+03  0.12700000000E+01 0. -1.
         25    2    1    2    0    0  0.00000000000E+00  0.00000000000E+00 -0.46813410519E+03  0.48453449896E+03  0.12499656088E+03 0.  0.
    9000005    1    3    3    0    0  0.15378837129E+02 -0.49524868829E+02 -0.98903320944E+02  0.11167850356E+03  0.10000000000E+01 0.  0.
    9000005    1    3    3    0    0 -0.15378837129E+02  0.49524868829E+02 -0.36923078425E+03  0.37285599540E+03  0.10000000000E+01 0.  0.
<mgrwt>
<rscale>  0 0.12499656E+03</rscale>
<asrwt>0</asrwt>
<pdfrwt beam="1">  1        4 0.12615691E-02 0.12499656E+03</pdfrwt>
<pdfrwt beam="2">  1       -4 0.73282179E-01 0.12499656E+03</pdfrwt>
<totfact> 0.57088916E+03</totfact>
</mgrwt>
</event>
<event>
 5    1  0.3235144E-002  0.1250057E+03  0.7818608E-02  0.1235060E+00
          4   -1    0    0  501    0  0.00000000000E+00  0.00000000000E+00  0.29205061792E+03  0.29205337924E+03  0.12700000000E+01 0.  1.
         -4   -1    0    0    0  501 -0.00000000000E+00 -0.00000000000E+00 -0.13343497900E+02  0.13403799320E+02  0.12700000000E+01 0.  1.
         25    2    1    2    0    0  0.00000000000E+00  0.00000000000E+00  0.27870712002E+03  0.30545717857E+03  0.12500571662E+03 0.  0.
    9000005    1    3    3    0    0  0.38520465483E+02 -0.24516930555E+01  0.25945501672E+03  0.26231230006E+03  0.10000000000E+01 0.  0.
    9000005    1    3    3    0    0 -0.38520465483E+02  0.24516930555E+01  0.19252103298E+02  0.43144878506E+02  0.10000000000E+01 0.  0.
<mgrwt>
<rscale>  0 0.12500572E+03</rscale>
<asrwt>0</asrwt>
<pdfrwt beam="1">  1        4 0.44935712E-01 0.12500572E+03</pdfrwt>
<pdfrwt beam="2">  1       -4 0.20576969E-02 0.12500572E+03</pdfrwt>
<totfact> 0.74909857E+03</totfact>
</mgrwt>
</event>
<event>
 5    1  0.3235144E-002  0.1250046E+03  0.7818608E-02  0.1235062E+00
          4   -1    0    0  501    0  0.00000000000E+00  0.00000000000E+00  0.12200989458E+03  0.12201650411E+03  0.12700000000E+01 0. -1.
         -4   -1    0    0    0  501 -0.00000000000E+00 -0.00000000000E+00 -0.31998104785E+02  0.32023297923E+02  0.12700000000E+01 0. -1.
         25    2    1    2    0    0  0.00000000000E+00  0.00000000000E+00  0.90011789796E+02  0.15403980204E+03  0.12500455315E+03 0.  0.
    9000005    1    3    3    0    0  0.56100581246E+01 -0.33853603023E+02  0.10936780667E+03  0.11462921236E+03  0.10000000000E+01 0.  0.
    9000005    1    3    3    0    0 -0.56100581246E+01  0.33853603023E+02 -0.19356016872E+02  0.39410589680E+02  0.10000000000E+01 0.  0.
<mgrwt>
<rscale>  0 0.12500455E+03</rscale>
<asrwt>0</asrwt>
<pdfrwt beam="1">  1        4 0.18773199E-01 0.12500455E+03</pdfrwt>
<pdfrwt beam="2">  1       -4 0.49252318E-02 0.12500455E+03</pdfrwt>
<totfact> 0.98494241E+03</totfact>
</mgrwt>
</event>
<event>
 5    1  0.3235144E-002  0.1249971E+03  0.7818608E-02  0.1235074E+00
          4   -1    0    0  501    0  0.00000000000E+00  0.00000000000E+00  0.18930350496E+03  0.18930776500E+03  0.12700000000E+01 0. -1.
         -4   -1    0    0    0  501 -0.00000000000E+00 -0.00000000000E+00 -0.20609848621E+02  0.20648940897E+02  0.12700000000E+01 0. -1.
         25    2    1    2    0    0  0.00000000000E+00  0.00000000000E+00  0.16869365634E+03  0.20995670590E+03  0.12499707462E+03 0.  0.
    9000005    1    3    3    0    0 -0.21684293205E+02 -0.21913124453E+02 -0.69560892756E+01  0.31619310130E+02  0.10000000000E+01 0.  0.
    9000005    1    3    3    0    0  0.21684293205E+02  0.21913124453E+02  0.17564974561E+03  0.17833739577E+03  0.10000000000E+01 0.  0.
<mgrwt>
<rscale>  0 0.12499707E+03</rscale>
<asrwt>0</asrwt>
<pdfrwt beam="1">  1        4 0.29126950E-01 0.12499707E+03</pdfrwt>
<pdfrwt beam="2">  1       -4 0.31740809E-02 0.12499707E+03</pdfrwt>
<totfact> 0.88488739E+03</totfact>
</mgrwt>
</event>
<event>
 5    1  0.3235144E-002  0.1249924E+03  0.7818608E-02  0.1235081E+00
         -4   -1    0    0    0  501 -0.00000000000E+00  0.00000000000E+00  0.36688652228E+03  0.36688872036E+03  0.12700000000E+01 0. -1.
          4   -1    0    0  501    0  0.00000000000E+00 -0.00000000000E+00 -0.10605611029E+02  0.10681380308E+02  0.12700000000E+01 0. -1.
         25    2    1    2    0    0  0.00000000000E+00  0.00000000000E+00  0.35628091125E+03  0.37757010067E+03  0.12499237257E+03 0.  0.
    9000005    1    3    3    0    0  0.15049392809E+02 -0.15670323222E+02  0.11564950372E+01  0.21780283161E+02  0.10000000000E+01 0.  0.
    9000005    1    3    3    0    0 -0.15049392809E+02  0.15670323222E+02  0.35512441621E+03  0.35578981751E+03  0.10000000000E+01 0.  0.
<mgrwt>
<rscale>  0 0.12499237E+03</rscale>
<asrwt>0</asrwt>
<pdfrwt beam="2">  1        4 0.16376299E-02 0.12499237E+03</pdfrwt>
<pdfrwt beam="1">  1       -4 0.56450080E-01 0.12499237E+03</pdfrwt>
<totfact> 0.66805587E+03</totfact>
</mgrwt>
</event>
<event>
 5    1  0.3235144E-002  0.1249964E+03  0.7818608E-02  0.1235075E+00
         -4   -1    0    0    0  501 -0.00000000000E+00  0.00000000000E+00  0.36629505275E+03  0.36629725438E+03  0.12700000000E+01 0. -1.
          4   -1    0    0  501    0  0.00000000000E+00 -0.00000000000E+00 -0.10623544704E+02  0.10699186983E+02  0.12700000000E+01 0. -1.
         25    2    1    2    0    0  0.00000000000E+00  0.00000000000E+00  0.35567150805E+03  0.37699644137E+03  0.12499638062E+03 0.  0.
    9000005    1    3    3    0    0 -0.42250008194E+02 -0.16374770351E+02  0.30762540871E+03  0.31094627893E+03  0.10000000000E+01 0.  0.
    9000005    1    3    3    0    0  0.42250008194E+02  0.16374770351E+02  0.48046099332E+02  0.66050162433E+02  0.10000000000E+01 0.  0.
<mgrwt>
<rscale>  0 0.12499638E+03</rscale>
<asrwt>0</asrwt>
<pdfrwt beam="2">  1        4 0.16403795E-02 0.12499638E+03</pdfrwt>
<pdfrwt beam="1">  1       -4 0.56359074E-01 0.12499638E+03</pdfrwt>
<totfact> 0.66858621E+03</totfact>
</mgrwt>
</event>
<event>
 5    1  0.3235144E-002  0.1250009E+03  0.7818608E-02  0.1235068E+00
          4   -1    0    0  501    0  0.00000000000E+00  0.00000000000E+00  0.29323283278E+03  0.29323558297E+03  0.12700000000E+01 0. -1.
         -4   -1    0    0    0  501 -0.00000000000E+00 -0.00000000000E+00 -0.13288426849E+02  0.13348977044E+02  0.12700000000E+01 0. -1.
         25    2    1    2    0    0  0.00000000000E+00  0.00000000000E+00  0.27994440593E+03  0.30658456002E+03  0.12500088811E+03 0.  0.
    9000005    1    3    3    0    0  0.24604007097E+02  0.43265125183E+02  0.23265796746E+03  0.23792426956E+03  0.10000000000E+01 0.  0.
    9000005    1    3    3    0    0 -0.24604007097E+02 -0.43265125183E+02  0.47286438469E+02  0.68660290455E+02  0.10000000000E+01 0.  0.
<mgrwt>
<rscale>  0 0.12500089E+03</rscale>
<asrwt>0</asrwt>
<pdfrwt beam="1">  1        4 0.45117611E-01 0.12500089E+03</pdfrwt>
<pdfrwt beam="2">  1       -4 0.20492427E-02 0.12500089E+03</pdfrwt>
<totfact> 0.74778764E+03</totfact>
</mgrwt>
</event>
<event>
 5    1  0.3235144E-002  0.1250017E+03  0.7818608E-02  0.1235067E+00
          4   -1    0    0  501    0  0.00000000000E+00  0.00000000000E+00  0.35510847235E+03  0.35511074334E+03  0.12700000000E+01 0.  1.
         -4   -1    0    0    0  501 -0.00000000000E+00 -0.00000000000E+00 -0.10961481383E+02  0.11034807389E+02  0.12700000000E+01 0.  1.
         25    2    1    2    0    0  0.00000000000E+00  0.00000000000E+00  0.34414699097E+03  0.36614555073E+03  0.12500165169E+03 0.  0.
    9000005    1    3    3    0    0 -0.18358095952E+01 -0.52421720155E+02  0.72571725255E+02  0.89549216899E+02  0.10000000000E+01 0.  0.
    9000005    1    3    3    0    0  0.18358095952E+01  0.52421720155E+02  0.27157526572E+03  0.27659633383E+03  0.10000000000E+01 0.  0.
<mgrwt>
<rscale>  0 0.12500165E+03</rscale>
<asrwt>0</asrwt>
<pdfrwt beam="1">  1        4 0.54637884E-01 0.12500165E+03</pdfrwt>
<pdfrwt beam="2">  1       -4 0.16921970E-02 0.12500165E+03</pdfrwt>
<totfact> 0.67981639E+03</totfact>
</mgrwt>
</event>
<event>
 5    1  0.3235144E-002  0.1250009E+03  0.7818608E-02  0.1235068E+00
          4   -1    0    0  501    0  0.00000000000E+00  0.00000000000E+00  0.20743478581E+03  0.20743867350E+03  0.12700000000E+01 0.  1.
         -4   -1    0    0    0  501 -0.00000000000E+00 -0.00000000000E+00 -0.18806008588E+02  0.18848842378E+02  0.12700000000E+01 0.  1.
         25    2    1    2    0    0  0.00000000000E+00  0.00000000000E+00  0.18862877722E+03  0.22628751588E+03  0.12500089698E+03 0.  0.
    9000005    1    3    3    0    0  0.13160059393E+02  0.15108509595E+02  0.20147133572E+03  0.20246765999E+03  0.10000000000E+01 0.  0.
    9000005    1    3    3    0    0 -0.13160059393E+02 -0.15108509595E+02 -0.12842558503E+02  0.23819855883E+02  0.10000000000E+01 0.  0.
<mgrwt>
<rscale>  0 0.12500090E+03</rscale>
<asrwt>0</asrwt>
<pdfrwt beam="1">  1        4 0.31916638E-01 0.12500090E+03</pdfrwt>
<pdfrwt beam="2">  1       -4 0.28968261E-02 0.12500090E+03</pdfrwt>
<totfact> 0.85881212E+03</totfact>
</mgrwt>
</event>
<event>
 5    1  0.3235144E-002  0.1249979E+03  0.7818608E-02  0.1235072E+00
          4   -1    0    0  501    0  0.00000000000E+00  0.00000000000E+00  0.26584635072E+03  0.26584938423E+03  0.12700000000E+01 0. -1.
         -4   -1    0    0    0  501 -0.00000000000E+00 -0.00000000000E+00 -0.14662588526E+02  0.14717486276E+02  0.12700000000E+01 0. -1.
         25    2    1    2    0    0  0.00000000000E+00  0.00000000000E+00  0.25118376220E+03  0.28056687050E+03  0.12499794571E+03 0.  0.
    9000005    1    3    3    0    0 -0.49867889075E+02  0.37460467739E+02  0.13429335514E+03  0.14807362438E+03  0.10000000000E+01 0.  0.
    9000005    1    3    3    0    0  0.49867889075E+02 -0.37460467739E+02  0.11689040706E+03  0.13249324612E+03  0.10000000000E+01 0.  0.
<mgrwt>
<rscale>  0 0.12499795E+03</rscale>
<asrwt>0</asrwt>
<pdfrwt beam="1">  1        4 0.40903897E-01 0.12499795E+03</pdfrwt>
<pdfrwt beam="2">  1       -4 0.22602390E-02 0.12499795E+03</pdfrwt>
<totfact> 0.78106565E+03</totfact>
</mgrwt>
</event>
<event>
 5    1  0.3235144E-002  0.1250017E+03  0.7818608E-02  0.1235067E+00
         -4   -1    0    0    0  501 -0.00000000000E+00  0.00000000000E+00  0.38448507653E+02  0.38469476742E+02  0.12700000000E+01 0.  1.
          4   -1    0    0  501    0  0.00000000000E+00 -0.00000000000E+00 -0.10154705597E+03  0.10155499730E+03  0.12700000000E+01 0.  1.
         25    2    1    2    0    0  0.00000000000E+00  0.00000000000E+00 -0.63098548318E+02  0.14002447404E+03  0.12500170611E+03 0.  0.
    9000005    1    3    3    0    0 -0.54091443777E+02  0.31234406775E+02 -0.33756960984E+02  0.71007076207E+02  0.10000000000E+01 0.  0.
    9000005    1    3    3    0    0  0.54091443777E+02 -0.31234406775E+02 -0.29341587333E+02  0.69017397834E+02  0.10000000000E+01 0.  0.
<mgrwt>
<rscale>  0 0.12500171E+03</rscale>
<asrwt>0</asrwt>
<pdfrwt beam="2">  1        4 0.15624848E-01 0.12500171E+03</pdfrwt>
<pdfrwt beam="1">  1       -4 0.59173789E-02 0.12500171E+03</pdfrwt>
<totfact> 0.10132689E+04</totfact>
</mgrwt>
</event>
<event>
 5    1  0.3235144E-002  0.1249965E+03  0.7818608E-02  0.1235075E+00
          4   -1    0    0  501    0  0.00000000000E+00  0.00000000000E+00  0.52998383338E+03  0.52998535503E+03  0.12700000000E+01 0.  1.
         -4   -1    0    0    0  501 -0.00000000000E+00 -0.00000000000E+00 -0.73138441302E+01  0.74232887564E+01  0.12700000000E+01 0.  1.
         25    2    1    2    0    0  0.00000000000E+00  0.00000000000E+00  0.52266998925E+03  0.53740864379E+03  0.12499653096E+03 0.  0.
    9000005    1    3    3    0    0  0.52089960439E+02  0.12341639211E+01  0.11301256981E+03  0.12444970098E+03  0.10000000000E+01 0.  0.
    9000005    1    3    3    0    0 -0.52089960439E+02 -0.12341639211E+01  0.40965741944E+03  0.41295894281E+03  0.10000000000E+01 0.  0.
<mgrwt>
<rscale>  0 0.12499653E+03</rscale>
<asrwt>0</asrwt>
<pdfrwt beam="1">  1        4 0.81544520E-01 0.12499653E+03</pdfrwt>
<pdfrwt beam="2">  1       -4 0.11337425E-02 0.12499653E+03</pdfrwt>
<totfact> 0.53078448E+03</totfact>
</mgrwt>
</event>
<event>
 5    1  0.3235144E-002  0.1250006E+03  0.7818608E-02  0.1235068E+00
         -4   -1    0    0    0  501 -0.00000000000E+00  0.00000000000E+00  0.13654724930E+02  0.13713657897E+02  0.12700000000E+01 0.  1.
          4   -1    0    0  501    0  0.00000000000E+00 -0.00000000000E+00 -0.28539941046E+03  0.28540223614E+03  0.12700000000E+01 0.  1.
         25    2    1    2    0    0  0.00000000000E+00  0.00000000000E+00 -0.27174468553E+03  0.29911589404E+03  0.12500057579E+03 0.  0.
    9000005    1    3    3    0    0  0.51787227192E+02  0.34028119536E+02 -0.15523222739E+03  0.16714626600E+03  0.10000000000E+01 0.  0.
    9000005    1    3    3    0    0 -0.51787227192E+02 -0.34028119536E+02 -0.11651245815E+03  0.13196962803E+03  0.10000000000E+01 0.  0.
<mgrwt>
<rscale>  0 0.12500058E+03</rscale>
<asrwt>0</asrwt>
<pdfrwt beam="2">  1        4 0.43912348E-01 0.12500058E+03</pdfrwt>
<pdfrwt beam="1">  1       -4 0.21054778E-02 0.12500058E+03</pdfrwt>
<totfact> 0.75708908E+03</totfact>
</mgrwt>
</event>
<event>
 5    1  0.3235144E-002  0.1249936E+03  0.7818608E-02  0.1235079E+00
          4   -1    0    0  501    0  0.00000000000E+00  0.00000000000E+00  0.31882583411E+03  0.31882836353E+03  0.12700000000E+01 0. -1.
         -4   -1    0    0    0  501 -0.00000000000E+00 -0.00000000000E+00 -0.12215231010E+02  0.12281073594E+02  0.12700000000E+01 0. -1.
         25    2    1    2    0    0  0.00000000000E+00  0.00000000000E+00  0.30661060310E+03  0.33110943713E+03  0.12499358953E+03 0.  0.
    9000005    1    3    3    0    0 -0.85322176957E+01 -0.60618775131E+01 -0.98897995474E+01  0.14434446054E+02  0.10000000000E+01 0.  0.
    9000005    1    3    3    0    0  0.85322176957E+01  0.60618775131E+01  0.31650040264E+03  0.31667499107E+03  0.10000000000E+01 0.  0.
<mgrwt>
<rscale>  0 0.12499359E+03</rscale>
<asrwt>0</asrwt>
<pdfrwt beam="1">  1        4 0.49055380E-01 0.12499359E+03</pdfrwt>
<pdfrwt beam="2">  1       -4 0.18845260E-02 0.12499359E+03</pdfrwt>
<totfact> 0.71864209E+03</totfact>
</mgrwt>
</event>
<event>
 5    1  0.3235144E-002  0.1249996E+03  0.7818608E-02  0.1235070E+00
          4   -1    0    0  501    0  0.00000000000E+00  0.00000000000E+00  0.30517589327E+02  0.30544003640E+02  0.12700000000E+01 0.  1.
         -4   -1    0    0    0  501 -0.00000000000E+00 -0.00000000000E+00 -0.12791424593E+03  0.12792055039E+03  0.12700000000E+01 0.  1.
         25    2    1    2    0    0  0.00000000000E+00  0.00000000000E+00 -0.97396656606E+02  0.15846455403E+03  0.12499962467E+03 0.  0.
    9000005    1    3    3    0    0  0.11828848892E+02  0.53740879443E+02 -0.11151058150E+02  0.56154696039E+02  0.10000000000E+01 0.  0.
    9000005    1    3    3    0    0 -0.11828848892E+02 -0.53740879443E+02 -0.86245598456E+02  0.10230985799E+03  0.10000000000E+01 0.  0.
<mgrwt>
<rscale>  0 0.12499962E+03</rscale>
<asrwt>0</asrwt>
<pdfrwt beam="1">  1        4 0.46975307E-02 0.12499962E+03</pdfrwt>
<pdfrwt beam="2">  1       -4 0.19681631E-01 0.12499962E+03</pdfrwt>
<totfact> 0.97640450E+03</totfact>
</mgrwt>
</event>
<event>
 5    1  0.3235144E-002  0.1249996E+03  0.7818608E-02  0.1235070E+00
         -4   -1    0    0    0  501 -0.00000000000E+00  0.00000000000E+00  0.11718356029E+03  0.11719044203E+03  0.12700000000E+01 0. -1.
          4   -1    0    0  501    0  0.00000000000E+00 -0.00000000000E+00 -0.33314298350E+02  0.33338496885E+02  0.12700000000E+01 0. -1.
         25    2    1    2    0    0  0.00000000000E+00  0.00000000000E+00  0.83869261940E+02  0.15052893891E+03  0.12499963341E+03 0.  0.
    9000005    1    3    3    0    0  0.52848673873E+01  0.60296247210E+02  0.60654960963E+02  0.85694757952E+02  0.10000000000E+01 0.  0.
    9000005    1    3    3    0    0 -0.52848673873E+01 -0.60296247210E+02  0.23214300977E+02  0.64834180960E+02  0.10000000000E+01 0.  0.
<mgrwt>
<rscale>  0 0.12499963E+03</rscale>
<asrwt>0</asrwt>
<pdfrwt beam="2">  1        4 0.51276675E-02 0.12499963E+03</pdfrwt>
<pdfrwt beam="1">  1       -4 0.18030631E-01 0.12499963E+03</pdfrwt>
<totfact> 0.99199185E+03</totfact>
</mgrwt>
</event>
<event>
 5    1  0.3235144E-002  0.1249996E+03  0.7818608E-02  0.1235070E+00
         -4   -1    0    0    0  501 -0.00000000000E+00  0.00000000000E+00  0.35018730063E+03  0.35018960353E+03  0.12700000000E+01 0.  1.
          4   -1    0    0  501    0  0.00000000000E+00 -0.00000000000E+00 -0.11116183773E+02  0.11188495952E+02  0.12700000000E+01 0.  1.
         25    2    1    2    0    0  0.00000000000E+00  0.00000000000E+00  0.33907111686E+03  0.36137809949E+03  0.12499963400E+03 0.  0.
    9000005    1    3    3    0    0  0.56535788784E+02  0.14670113247E+02  0.10529737907E+03  0.12041613544E+03  0.10000000000E+01 0.  0.
    9000005    1    3    3    0    0 -0.56535788784E+02 -0.14670113247E+02  0.23377373779E+03  0.24096196404E+03  0.10000000000E+01 0.  0.
<mgrwt>
<rscale>  0 0.12499963E+03</rscale>
<asrwt>0</asrwt>
<pdfrwt beam="2">  1        4 0.17159218E-02 0.12499963E+03</pdfrwt>
<pdfrwt beam="1">  1       -4 0.53880707E-01 0.12499963E+03</pdfrwt>
<totfact> 0.68491254E+03</totfact>
</mgrwt>
</event>
<event>
 5    1  0.3235144E-002  0.1249979E+03  0.7818608E-02  0.1235073E+00
         -4   -1    0    0    0  501 -0.00000000000E+00  0.00000000000E+00  0.20498919494E+03  0.20499312901E+03  0.12700000000E+01 0. -1.
          4   -1    0    0  501    0  0.00000000000E+00 -0.00000000000E+00 -0.19029948754E+02  0.19072279612E+02  0.12700000000E+01 0. -1.
         25    2    1    2    0    0  0.00000000000E+00  0.00000000000E+00  0.18595924618E+03  0.22406540862E+03  0.12499786438E+03 0.  0.
    9000005    1    3    3    0    0  0.19067077206E+02  0.56096190209E+02  0.57363217522E+02  0.82473478850E+02  0.10000000000E+01 0.  0.
    9000005    1    3    3    0    0 -0.19067077206E+02 -0.56096190209E+02  0.12859602866E+03  0.14159192977E+03  0.10000000000E+01 0.  0.
<mgrwt>
<rscale>  0 0.12499786E+03</rscale>
<asrwt>0</asrwt>
<pdfrwt beam="2">  1        4 0.29312432E-02 0.12499786E+03</pdfrwt>
<pdfrwt beam="1">  1       -4 0.31540359E-01 0.12499786E+03</pdfrwt>
<totfact> 0.86233222E+03</totfact>
</mgrwt>
</event>
<event>
 5    1  0.3235144E-002  0.1250057E+03  0.7818608E-02  0.1235060E+00
         -4   -1    0    0    0  501 -0.00000000000E+00  0.00000000000E+00  0.20442877964E+02  0.20482288921E+02  0.12700000000E+01 0.  1.
          4   -1    0    0  501    0  0.00000000000E+00 -0.00000000000E+00 -0.19087314315E+03  0.19087736816E+03  0.12700000000E+01 0.  1.
         25    2    1    2    0    0  0.00000000000E+00  0.00000000000E+00 -0.17043026519E+03  0.21135965708E+03  0.12500571727E+03 0.  0.
    9000005    1    3    3    0    0  0.29837702915E+02 -0.58351949213E+01  0.71042358608E+01  0.31237928583E+02  0.10000000000E+01 0.  0.
    9000005    1    3    3    0    0 -0.29837702915E+02  0.58351949213E+01 -0.17753450105E+03  0.18012172850E+03  0.10000000000E+01 0.  0.
<mgrwt>
<rscale>  0 0.12500572E+03</rscale>
<asrwt>0</asrwt>
<pdfrwt beam="2">  1        4 0.29368454E-01 0.12500572E+03</pdfrwt>
<pdfrwt beam="1">  1       -4 0.31484149E-02 0.12500572E+03</pdfrwt>
<totfact> 0.88243034E+03</totfact>
</mgrwt>
</event>
<event>
 5    1  0.3235144E-002  0.1249991E+03  0.7818608E-02  0.1235071E+00
         -4   -1    0    0    0  501 -0.00000000000E+00  0.00000000000E+00  0.27453026949E+02  0.27482386881E+02  0.12700000000E+01 0. -1.
          4   -1    0    0  501    0  0.00000000000E+00 -0.00000000000E+00 -0.14217824195E+03  0.14218391394E+03  0.12700000000E+01 0. -1.
         25    2    1    2    0    0  0.00000000000E+00  0.00000000000E+00 -0.11472521500E+03  0.16966630082E+03  0.12499911471E+03 0.  0.
    9000005    1    3    3    0    0  0.34947547212E+02 -0.26375317400E+02 -0.11788545753E+03  0.12575758236E+03  0.10000000000E+01 0.  0.
    9000005    1    3    3    0    0 -0.34947547212E+02  0.26375317400E+02  0.31602425299E+01  0.43908718462E+02  0.10000000000E+01 0.  0.
<mgrwt>
<rscale>  0 0.12499911E+03</rscale>
<asrwt>0</asrwt>
<pdfrwt beam="2">  1        4 0.21876270E-01 0.12499911E+03</pdfrwt>
<pdfrwt beam="1">  1       -4 0.42262375E-02 0.12499911E+03</pdfrwt>
<totfact> 0.95512768E+03</totfact>
</mgrwt>
</event>
<event>
 5    1  0.3235144E-002  0.1250009E+03  0.7818608E-02  0.1235068E+00
          4   -1    0    0  501    0  0.00000000000E+00  0.00000000000E+00  0.10307446466E+03  0.10308228831E+03  0.12700000000E+01 0. -1.
         -4   -1    0    0    0  501 -0.00000000000E+00 -0.00000000000E+00 -0.37878027521E+02  0.37899312248E+02  0.12700000000E+01 0. -1.
         25    2    1    2    0    0  0.00000000000E+00  0.00000000000E+00  0.65196437134E+02  0.14098160056E+03  0.12500094512E+03 0.  0.
    9000005    1    3    3    0    0  0.53938706718E+02 -0.31076130132E+02  0.38796143527E+02  0.73357008520E+02  0.10000000000E+01 0.  0.
    9000005    1    3    3    0    0 -0.53938706718E+02  0.31076130132E+02  0.26400293608E+02  0.67624592043E+02  0.10000000000E+01 0.  0.
<mgrwt>
<rscale>  0 0.12500095E+03</rscale>
<asrwt>0</asrwt>
<pdfrwt beam="1">  1        4 0.15859849E-01 0.12500095E+03</pdfrwt>
<pdfrwt beam="2">  1       -4 0.58296280E-02 0.12500095E+03</pdfrwt>
<totfact> 0.10113067E+04</totfact>
</mgrwt>
</event>
<event>
 5    1  0.3235144E-002  0.1250010E+03  0.7818608E-02  0.1235068E+00
          4   -1    0    0  501    0  0.00000000000E+00  0.00000000000E+00  0.36186085207E+03  0.36186308068E+03  0.12700000000E+01 0.  1.
         -4   -1    0    0    0  501 -0.00000000000E+00 -0.00000000000E+00 -0.10755439930E+02  0.10830161037E+02  0.12700000000E+01 0.  1.
         25    2    1    2    0    0  0.00000000000E+00  0.00000000000E+00  0.35110541214E+03  0.37269324172E+03  0.12500096796E+03 0.  0.
    9000005    1    3    3    0    0  0.21892029072E+02 -0.28945635691E+02  0.23869662035E+02  0.43449643590E+02  0.10000000000E+01 0.  0.
    9000005    1    3    3    0    0 -0.21892029072E+02  0.28945635691E+02  0.32723575011E+03  0.32924359813E+03  0.10000000000E+01 0.  0.
<mgrwt>
<rscale>  0 0.12500097E+03</rscale>
<asrwt>0</asrwt>
<pdfrwt beam="1">  1        4 0.55676822E-01 0.12500097E+03</pdfrwt>
<pdfrwt beam="2">  1       -4 0.16606022E-02 0.12500097E+03</pdfrwt>
<totfact> 0.67296668E+03</totfact>
</mgrwt>
</event>
<event>
 5    1  0.3235144E-002  0.1250001E+03  0.7818608E-02  0.1235069E+00
         -4   -1    0    0    0  501 -0.00000000000E+00  0.00000000000E+00  0.16445479793E+03  0.16445970163E+03  0.12700000000E+01 0.  1.
          4   -1    0    0  501    0  0.00000000000E+00 -0.00000000000E+00 -0.23730537680E+02  0.23764497019E+02  0.12700000000E+01 0.  1.
         25    2    1    2    0    0  0.00000000000E+00  0.00000000000E+00  0.14072426025E+03  0.18822419865E+03  0.12500012614E+03 0.  0.
    9000005    1    3    3    0    0  0.56281976152E+02  0.93197409507E+01  0.31949983209E+02  0.65393576428E+02  0.10000000000E+01 0.  0.
    9000005    1    3    3    0    0 -0.56281976152E+02 -0.93197409507E+01  0.10877427704E+03  0.12283062222E+03  0.10000000000E+01 0.  0.
<mgrwt>
<rscale>  0 0.12500013E+03</rscale>
<asrwt>0</asrwt>
<pdfrwt beam="2">  1        4 0.36538415E-02 0.12500013E+03</pdfrwt>
<pdfrwt beam="1">  1       -4 0.25303727E-01 0.12500013E+03</pdfrwt>
<totfact> 0.92156959E+03</totfact>
</mgrwt>
</event>
<event>
 5    1  0.3235144E-002  0.1250031E+03  0.7818608E-02  0.1235064E+00
          4   -1    0    0  501    0  0.00000000000E+00  0.00000000000E+00  0.12695969743E+02  0.12759331789E+02  0.12700000000E+01 0.  1.
         -4   -1    0    0    0  501 -0.00000000000E+00 -0.00000000000E+00 -0.30686122148E+03  0.30686384953E+03  0.12700000000E+01 0.  1.
         25    2    1    2    0    0  0.00000000000E+00  0.00000000000E+00 -0.29416525174E+03  0.31962318132E+03  0.12500313079E+03 0.  0.
    9000005    1    3    3    0    0 -0.44255286690E+02 -0.43210814011E+02 -0.16991535126E+03  0.18082569353E+03  0.10000000000E+01 0.  0.
    9000005    1    3    3    0    0  0.44255286690E+02  0.43210814011E+02 -0.12424990048E+03  0.13879748779E+03  0.10000000000E+01 0.  0.
<mgrwt>
<rscale>  0 0.12500313E+03</rscale>
<asrwt>0</asrwt>
<pdfrwt beam="1">  1        4 0.19583025E-02 0.12500313E+03</pdfrwt>
<pdfrwt beam="2">  1       -4 0.47214490E-01 0.12500313E+03</pdfrwt>
<totfact> 0.73195887E+03</totfact>
</mgrwt>
</event>
<event>
 5    1  0.3235144E-002  0.1250005E+03  0.7818608E-02  0.1235069E+00
         -4   -1    0    0    0  501 -0.00000000000E+00  0.00000000000E+00  0.50450654467E+02  0.50466636862E+02  0.12700000000E+01 0. -1.
          4   -1    0    0  501    0  0.00000000000E+00 -0.00000000000E+00 -0.77394283371E+02  0.77404702690E+02  0.12700000000E+01 0. -1.
         25    2    1    2    0    0  0.00000000000E+00  0.00000000000E+00 -0.26943628904E+02  0.12787133955E+03  0.12500048136E+03 0.  0.
    9000005    1    3    3    0    0 -0.44318949212E+02 -0.23314433872E+01  0.31534947876E+02  0.54452344532E+02  0.10000000000E+01 0.  0.
    9000005    1    3    3    0    0  0.44318949212E+02  0.23314433872E+01 -0.58478576780E+02  0.73418995019E+02  0.10000000000E+01 0.  0.
<mgrwt>
<rscale>  0 0.12500048E+03</rscale>
<asrwt>0</asrwt>
<pdfrwt beam="2">  1        4 0.11908844E-01 0.12500048E+03</pdfrwt>
<pdfrwt beam="1">  1       -4 0.77636701E-02 0.12500048E+03</pdfrwt>
<totfact> 0.10390154E+04</totfact>
</mgrwt>
</event>
<event>
 5    1  0.3235144E-002  0.1250016E+03  0.7818608E-02  0.1235067E+00
         -4   -1    0    0    0  501 -0.00000000000E+00  0.00000000000E+00  0.36857365553E+02  0.36879239357E+02  0.12700000000E+01 0. -1.
          4   -1    0    0  501    0  0.00000000000E+00 -0.00000000000E+00 -0.10592852343E+03  0.10593613631E+03  0.12700000000E+01 0. -1.
         25    2    1    2    0    0  0.00000000000E+00  0.00000000000E+00 -0.69071157875E+02  0.14281537566E+03  0.12500162669E+03 0.  0.
    9000005    1    3    3    0    0  0.37624555052E+02  0.37347204533E+02  0.32697173463E+01  0.53123552976E+02  0.10000000000E+01 0.  0.
    9000005    1    3    3    0    0 -0.37624555052E+02 -0.37347204533E+02 -0.72340875221E+02  0.89691822688E+02  0.10000000000E+01 0.  0.
<mgrwt>
<rscale>  0 0.12500163E+03</rscale>
<asrwt>0</asrwt>
<pdfrwt beam="2">  1        4 0.16298964E-01 0.12500163E+03</pdfrwt>
<pdfrwt beam="1">  1       -4 0.56726322E-02 0.12500163E+03</pdfrwt>
<totfact> 0.10075196E+04</totfact>
</mgrwt>
</event>
<event>
 5    1  0.3235144E-002  0.1250002E+03  0.7818608E-02  0.1235069E+00
          4   -1    0    0  501    0  0.00000000000E+00  0.00000000000E+00  0.21157616797E+03  0.21157997957E+03  0.12700000000E+01 0.  1.
         -4   -1    0    0    0  501 -0.00000000000E+00 -0.00000000000E+00 -0.18436844397E+02  0.18480533848E+02  0.12700000000E+01 0.  1.
         25    2    1    2    0    0  0.00000000000E+00  0.00000000000E+00  0.19313932358E+03  0.23006051342E+03  0.12500016609E+03 0.  0.
    9000005    1    3    3    0    0 -0.22141060296E+02  0.28142824487E+02  0.23086921011E+01  0.35896729383E+02  0.10000000000E+01 0.  0.
    9000005    1    3    3    0    0  0.22141060296E+02 -0.28142824487E+02  0.19083063147E+03  0.19416378403E+03  0.10000000000E+01 0.  0.
<mgrwt>
<rscale>  0 0.12500017E+03</rscale>
<asrwt>0</asrwt>
<pdfrwt beam="1">  1        4 0.32553834E-01 0.12500017E+03</pdfrwt>
<pdfrwt beam="2">  1       -4 0.28400915E-02 0.12500017E+03</pdfrwt>
<totfact> 0.85299989E+03</totfact>
</mgrwt>
</event>
<event>
 5    1  0.3235144E-002  0.1250009E+03  0.7818608E-02  0.1235068E+00
         -4   -1    0    0    0  501 -0.00000000000E+00  0.00000000000E+00  0.62521564389E+03  0.62521693377E+03  0.12700000000E+01 0. -1.
          4   -1    0    0  501    0  0.00000000000E+00 -0.00000000000E+00 -0.61820888616E+01  0.63111902755E+01  0.12700000000E+01 0. -1.
         25    2    1    2    0    0  0.00000000000E+00  0.00000000000E+00  0.61903355503E+03  0.63152812404E+03  0.12500091680E+03 0.  0.
    9000005    1    3    3    0    0  0.46915369136E+02  0.29315860391E+02  0.45636396870E+03  0.45970593151E+03  0.10000000000E+01 0.  0.
    9000005    1    3    3    0    0 -0.46915369136E+02 -0.29315860391E+02  0.16266958633E+03  0.17182219254E+03  0.10000000000E+01 0.  0.
<mgrwt>
<rscale>  0 0.12500092E+03</rscale>
<asrwt>0</asrwt>
<pdfrwt beam="2">  1        4 0.96112077E-03 0.12500092E+03</pdfrwt>
<pdfrwt beam="1">  1       -4 0.96197044E-01 0.12500092E+03</pdfrwt>
<totfact> 0.46935141E+03</totfact>
</mgrwt>
</event>
<event>
 5    1  0.3235144E-002  0.1250212E+03  0.7818608E-02  0.1235036E+00
         -4   -1    0    0    0  501 -0.00000000000E+00  0.00000000000E+00  0.92328073903E+01  0.93197442189E+01  0.12700000000E+01 0. -1.
          4   -1    0    0  501    0  0.00000000000E+00 -0.00000000000E+00 -0.42115592772E+03  0.42115784256E+03  0.12700000000E+01 0. -1.
         25    2    1    2    0    0  0.00000000000E+00  0.00000000000E+00 -0.41192312033E+03  0.43047758678E+03  0.12502118085E+03 0.  0.
    9000005    1    3    3    0    0 -0.52491203164E+00  0.12341267093E+02 -0.41692810533E+03  0.41711224799E+03  0.10000000000E+01 0.  0.
    9000005    1    3    3    0    0  0.52491203164E+00 -0.12341267093E+02  0.50049850063E+01  0.13365338791E+02  0.10000000000E+01 0.  0.
<mgrwt>
<rscale>  0 0.12502118E+03</rscale>
<asrwt>0</asrwt>
<pdfrwt beam="2">  1        4 0.64800040E-01 0.12502118E+03</pdfrwt>
<pdfrwt beam="1">  1       -4 0.14272670E-02 0.12502118E+03</pdfrwt>
<totfact> 0.61663930E+03</totfact>
</mgrwt>
</event>
<event>
 5    1  0.3235144E-002  0.1250018E+03  0.7818608E-02  0.1235067E+00
          4   -1    0    0  501    0  0.00000000000E+00  0.00000000000E+00  0.20395819614E+03  0.20396215010E+03  0.12700000000E+01 0. -1.
         -4   -1    0    0    0  501 -0.00000000000E+00 -0.00000000000E+00 -0.19127549389E+02  0.19169664723E+02  0.12700000000E+01 0. -1.
         25    2    1    2    0    0  0.00000000000E+00  0.00000000000E+00  0.18483064675E+03  0.22313181482E+03  0.12500175522E+03 0.  0.
    9000005    1    3    3    0    0  0.60301648251E+02 -0.15873700271E+02  0.85034586029E+02  0.10545209321E+03  0.10000000000E+01 0.  0.
    9000005    1    3    3    0    0 -0.60301648251E+02  0.15873700271E+02  0.99796060725E+02  0.11767972161E+03  0.10000000000E+01 0.  0.
<mgrwt>
<rscale>  0 0.12500176E+03</rscale>
<asrwt>0</asrwt>
<pdfrwt beam="1">  1        4 0.31381729E-01 0.12500176E+03</pdfrwt>
<pdfrwt beam="2">  1       -4 0.29462436E-02 0.12500176E+03</pdfrwt>
<totfact> 0.86371807E+03</totfact>
</mgrwt>
</event>
<event>
 5    1  0.3235144E-002  0.1250049E+03  0.7818608E-02  0.1235062E+00
         -4   -1    0    0    0  501 -0.00000000000E+00  0.00000000000E+00  0.98712996682E+02  0.98721165987E+02  0.12700000000E+01 0. -1.
          4   -1    0    0  501    0  0.00000000000E+00 -0.00000000000E+00 -0.39554905836E+02  0.39575288701E+02  0.12700000000E+01 0. -1.
         25    2    1    2    0    0  0.00000000000E+00  0.00000000000E+00  0.59158090845E+02  0.13829645469E+03  0.12500491857E+03 0.  0.
    9000005    1    3    3    0    0  0.52709476020E+02  0.32542172204E+02  0.38720528355E+02  0.73058614483E+02  0.10000000000E+01 0.  0.
    9000005    1    3    3    0    0 -0.52709476020E+02 -0.32542172204E+02  0.20437562490E+02  0.65237840205E+02  0.10000000000E+01 0.  0.
<mgrwt>
<rscale>  0 0.12500492E+03</rscale>
<asrwt>0</asrwt>
<pdfrwt beam="2">  1        4 0.60875664E-02 0.12500492E+03</pdfrwt>
<pdfrwt beam="1">  1       -4 0.15188811E-01 0.12500492E+03</pdfrwt>
<totfact> 0.10167888E+04</totfact>
</mgrwt>
</event>
<event>
 5    1  0.3235144E-002  0.1249893E+03  0.7818608E-02  0.1235086E+00
          4   -1    0    0  501    0  0.00000000000E+00  0.00000000000E+00  0.86293972944E+03  0.86294066398E+03  0.12700000000E+01 0.  1.
         -4   -1    0    0    0  501 -0.00000000000E+00 -0.00000000000E+00 -0.44358520037E+01  0.46140744465E+01  0.12700000000E+01 0.  1.
         25    2    1    2    0    0  0.00000000000E+00  0.00000000000E+00  0.85850387744E+03  0.86755473843E+03  0.12498926589E+03 0.  0.
    9000005    1    3    3    0    0  0.26981003193E+02  0.44969954274E+02  0.19342957451E+03  0.20041524796E+03  0.10000000000E+01 0.  0.
    9000005    1    3    3    0    0 -0.26981003193E+02 -0.44969954274E+02  0.66507430293E+03  0.66713949046E+03  0.10000000000E+01 0.  0.
<mgrwt>
<rscale>  0 0.12498927E+03</rscale>
<asrwt>0</asrwt>
<pdfrwt beam="1">  1        4 0.13277374E+00 0.12498927E+03</pdfrwt>
<pdfrwt beam="2">  1       -4 0.69622006E-03 0.12498927E+03</pdfrwt>
<totfact> 0.35427843E+03</totfact>
</mgrwt>
</event>
<event>
 5    1  0.3235144E-002  0.1250004E+03  0.7818608E-02  0.1235069E+00
         -4   -1    0    0    0  501 -0.00000000000E+00  0.00000000000E+00  0.91783294334E+01  0.92657774195E+01  0.12700000000E+01 0.  1.
          4   -1    0    0  501    0  0.00000000000E+00 -0.00000000000E+00 -0.42349115177E+03  0.42349305605E+03  0.12700000000E+01 0.  1.
         25    2    1    2    0    0  0.00000000000E+00  0.00000000000E+00 -0.41431282233E+03  0.43275883347E+03  0.12500037279E+03 0.  0.
    9000005    1    3    3    0    0  0.46729631566E+02 -0.40135121474E+02 -0.17071637870E+03  0.18149261252E+03  0.10000000000E+01 0.  0.
    9000005    1    3    3    0    0 -0.46729631566E+02  0.40135121474E+02 -0.24359644363E+03  0.25126622095E+03  0.10000000000E+01 0.  0.
<mgrwt>
<rscale>  0 0.12500037E+03</rscale>
<asrwt>0</asrwt>
<pdfrwt beam="2">  1        4 0.65159343E-01 0.12500037E+03</pdfrwt>
<pdfrwt beam="1">  1       -4 0.14189243E-02 0.12500037E+03</pdfrwt>
<totfact> 0.61486215E+03</totfact>
</mgrwt>
</event>
<event>
 5    1  0.3235144E-002  0.1249979E+03  0.7818608E-02  0.1235073E+00
         -4   -1    0    0    0  501 -0.00000000000E+00  0.00000000000E+00  0.57967943276E+02  0.57981853607E+02  0.12700000000E+01 0. -1.
          4   -1    0    0  501    0  0.00000000000E+00 -0.00000000000E+00 -0.67356165224E+02  0.67368137080E+02  0.12700000000E+01 0. -1.
         25    2    1    2    0    0  0.00000000000E+00  0.00000000000E+00 -0.93882219477E+01  0.12534999069E+03  0.12499792580E+03 0.  0.
    9000005    1    3    3    0    0 -0.37052155751E+01 -0.54260259796E+02  0.26169447705E+02  0.60363436026E+02  0.10000000000E+01 0.  0.
    9000005    1    3    3    0    0  0.37052155751E+01  0.54260259796E+02 -0.35557669653E+02  0.64986554662E+02  0.10000000000E+01 0.  0.
<mgrwt>
<rscale>  0 0.12499793E+03</rscale>
<asrwt>0</asrwt>
<pdfrwt beam="2">  1        4 0.10364478E-01 0.12499793E+03</pdfrwt>
<pdfrwt beam="1">  1       -4 0.89201360E-02 0.12499793E+03</pdfrwt>
<totfact> 0.10445755E+04</totfact>
</mgrwt>
</event>
<event>
 5    1  0.3235144E-002  0.1249812E+03  0.7818608E-02  0.1235099E+00
          4   -1    0    0  501    0  0.00000000000E+00  0.00000000000E+00  0.91667480085E+03  0.91667568061E+03  0.12700000000E+01 0. -1.
         -4   -1    0    0    0  501 -0.00000000000E+00 -0.00000000000E+00 -0.41644893691E+01  0.43538341385E+01  0.12700000000E+01 0. -1.
         25    2    1    2    0    0  0.00000000000E+00  0.00000000000E+00  0.91251031148E+03  0.92102951475E+03  0.12498119247E+03 0.  0.
    9000005    1    3    3    0    0  0.45754129287E+01  0.60116121921E+02  0.33534576348E+03  0.34072373502E+03  0.10000000000E+01 0.  0.
    9000005    1    3    3    0    0 -0.45754129287E+01 -0.60116121921E+02  0.57716454800E+03  0.58030577973E+03  0.10000000000E+01 0.  0.
<mgrwt>
<rscale>  0 0.12498119E+03</rscale>
<asrwt>0</asrwt>
<pdfrwt beam="1">  1        4 0.14104156E+00 0.12498119E+03</pdfrwt>
<pdfrwt beam="2">  1       -4 0.65532317E-03 0.12498119E+03</pdfrwt>
<totfact> 0.33381047E+03</totfact>
</mgrwt>
</event>
<event>
 5    1  0.3235144E-002  0.1250065E+03  0.7818608E-02  0.1235059E+00
         -4   -1    0    0    0  501 -0.00000000000E+00  0.00000000000E+00  0.23250191054E+02  0.23284850956E+02  0.12700000000E+01 0.  1.
          4   -1    0    0  501    0  0.00000000000E+00 -0.00000000000E+00 -0.16786469187E+03  0.16786949597E+03  0.12700000000E+01 0.  1.
         25    2    1    2    0    0  0.00000000000E+00  0.00000000000E+00 -0.14461450082E+03  0.19115434693E+03  0.12500652184E+03 0.  0.
    9000005    1    3    3    0    0 -0.52610040358E+02 -0.31270628835E+02 -0.52965461535E+02  0.80944479057E+02  0.10000000000E+01 0.  0.
    9000005    1    3    3    0    0  0.52610040358E+02  0.31270628835E+02 -0.91649039282E+02  0.11020986787E+03  0.10000000000E+01 0.  0.
<mgrwt>
<rscale>  0 0.12500652E+03</rscale>
<asrwt>0</asrwt>
<pdfrwt beam="2">  1        4 0.25828372E-01 0.12500652E+03</pdfrwt>
<pdfrwt beam="1">  1       -4 0.35799883E-02 0.12500652E+03</pdfrwt>
<totfact> 0.91633464E+03</totfact>
</mgrwt>
</event>
<event>
 5    1  0.3235144E-002  0.1250034E+03  0.7818608E-02  0.1235064E+00
          4   -1    0    0  501    0  0.00000000000E+00  0.00000000000E+00  0.10795658765E+02  0.10870103412E+02  0.12700000000E+01 0.  1.
         -4   -1    0    0    0  501 -0.00000000000E+00 -0.00000000000E+00 -0.36053602313E+03  0.36053825993E+03  0.12700000000E+01 0.  1.
         25    2    1    2    0    0  0.00000000000E+00  0.00000000000E+00 -0.34974036437E+03  0.37140836335E+03  0.12500339954E+03 0.  0.
    9000005    1    3    3    0    0  0.79173385282E+01  0.61777738873E+02 -0.15963601999E+03  0.17135878194E+03  0.10000000000E+01 0.  0.
    9000005    1    3    3    0    0 -0.79173385282E+01 -0.61777738873E+02 -0.19010434438E+03  0.20004958141E+03  0.10000000000E+01 0.  0.
<mgrwt>
<rscale>  0 0.12500340E+03</rscale>
<asrwt>0</asrwt>
<pdfrwt beam="1">  1        4 0.16667694E-02 0.12500340E+03</pdfrwt>
<pdfrwt beam="2">  1       -4 0.55472970E-01 0.12500340E+03</pdfrwt>
<totfact> 0.67426790E+03</totfact>
</mgrwt>
</event>
<event>
 5    1  0.3235144E-002  0.1249930E+03  0.7818608E-02  0.1235080E+00
         -4   -1    0    0    0  501 -0.00000000000E+00  0.00000000000E+00  0.14448310717E+03  0.14448868868E+03  0.12700000000E+01 0. -1.
          4   -1    0    0  501    0  0.00000000000E+00 -0.00000000000E+00 -0.27011991976E+02  0.27041830754E+02  0.12700000000E+01 0. -1.
         25    2    1    2    0    0  0.00000000000E+00  0.00000000000E+00  0.11747111519E+03  0.17153051943E+03  0.12499302458E+03 0.  0.
    9000005    1    3    3    0    0 -0.20781663241E+02  0.56241021233E+02  0.34577876800E+02  0.69221091875E+02  0.10000000000E+01 0.  0.
    9000005    1    3    3    0    0  0.20781663241E+02 -0.56241021233E+02  0.82893238390E+02  0.10230942756E+03  0.10000000000E+01 0.  0.
<mgrwt>
<rscale>  0 0.12499302E+03</rscale>
<asrwt>0</asrwt>
<pdfrwt beam="2">  1        4 0.41584157E-02 0.12499302E+03</pdfrwt>
<pdfrwt beam="1">  1       -4 0.22230895E-01 0.12499302E+03</pdfrwt>
<totfact> 0.95179034E+03</totfact>
</mgrwt>
</event>
<event>
 5    1  0.3235144E-002  0.1250010E+03  0.7818608E-02  0.1235068E+00
         -4   -1    0    0    0  501 -0.00000000000E+00  0.00000000000E+00  0.24051396031E+04  0.24051399384E+04  0.12700000000E+01 0.  1.
          4   -1    0    0  501    0  0.00000000000E+00 -0.00000000000E+00 -0.13754964232E+01  0.18721352543E+01  0.12700000000E+01 0.  1.
         25    2    1    2    0    0  0.00000000000E+00  0.00000000000E+00  0.24037641067E+04  0.24070120736E+04  0.12500096873E+03 0.  0.
    9000005    1    3    3    0    0 -0.30529918728E+02  0.53107079809E+02  0.96379826023E+03  0.96574350854E+03  0.10000000000E+01 0.  0.
    9000005    1    3    3    0    0  0.30529918728E+02 -0.53107079809E+02  0.14399658464E+04  0.14412685651E+04  0.10000000000E+01 0.  0.
<mgrwt>
<rscale>  0 0.12500097E+03</rscale>
<asrwt>0</asrwt>
<pdfrwt beam="2">  1        4 0.24984336E-03 0.12500097E+03</pdfrwt>
<pdfrwt beam="1">  1       -4 0.37006009E+00 0.12500097E+03</pdfrwt>
<totfact> 0.54414864E+02</totfact>
</mgrwt>
</event>
<event>
 5    1  0.3235144E-002  0.1250066E+03  0.7818608E-02  0.1235059E+00
         -4   -1    0    0    0  501 -0.00000000000E+00  0.00000000000E+00  0.36820564605E+02  0.36842460258E+02  0.12700000000E+01 0. -1.
          4   -1    0    0  501    0  0.00000000000E+00 -0.00000000000E+00 -0.10604284429E+03  0.10605044896E+03  0.12700000000E+01 0. -1.
         25    2    1    2    0    0  0.00000000000E+00  0.00000000000E+00 -0.69222279686E+02  0.14289290922E+03  0.12500663783E+03 0.  0.
    9000005    1    3    3    0    0 -0.66448849235E+00  0.17000323539E+02 -0.10335035435E+03  0.10474611348E+03  0.10000000000E+01 0.  0.
    9000005    1    3    3    0    0  0.66448849235E+00 -0.17000323539E+02  0.34128074661E+02  0.38146795742E+02  0.10000000000E+01 0.  0.
<mgrwt>
<rscale>  0 0.12500664E+03</rscale>
<asrwt>0</asrwt>
<pdfrwt beam="2">  1        4 0.16316553E-01 0.12500664E+03</pdfrwt>
<pdfrwt beam="1">  1       -4 0.56669715E-02 0.12500664E+03</pdfrwt>
<totfact> 0.10072471E+04</totfact>
</mgrwt>
</event>
<event>
 5    1  0.3235144E-002  0.1249990E+03  0.7818608E-02  0.1235071E+00
         -4   -1    0    0    0  501 -0.00000000000E+00  0.00000000000E+00  0.32721629878E+02  0.32746266381E+02  0.12700000000E+01 0. -1.
          4   -1    0    0  501    0  0.00000000000E+00 -0.00000000000E+00 -0.11930335265E+03  0.11931011211E+03  0.12700000000E+01 0. -1.
         25    2    1    2    0    0  0.00000000000E+00  0.00000000000E+00 -0.86581722767E+02  0.15205637849E+03  0.12499899009E+03 0.  0.
    9000005    1    3    3    0    0  0.50357261628E+02  0.36273915016E+02 -0.34390209933E+02  0.70960110262E+02  0.10000000000E+01 0.  0.
    9000005    1    3    3    0    0 -0.50357261628E+02 -0.36273915016E+02 -0.52191512835E+02  0.81096268232E+02  0.10000000000E+01 0.  0.
<mgrwt>
<rscale>  0 0.12499899E+03</rscale>
<asrwt>0</asrwt>
<pdfrwt beam="2">  1        4 0.18356777E-01 0.12499899E+03</pdfrwt>
<pdfrwt beam="1">  1       -4 0.50365120E-02 0.12499899E+03</pdfrwt>
<totfact> 0.98897606E+03</totfact>
</mgrwt>
</event>
<event>
 5    1  0.3235144E-002  0.1249946E+03  0.7818608E-02  0.1235078E+00
         -4   -1    0    0    0  501 -0.00000000000E+00  0.00000000000E+00  0.22747373446E+03  0.22747727968E+03  0.12700000000E+01 0. -1.
          4   -1    0    0  501    0  0.00000000000E+00 -0.00000000000E+00 -0.17143659369E+02  0.17190635723E+02  0.12700000000E+01 0. -1.
         25    2    1    2    0    0  0.00000000000E+00  0.00000000000E+00  0.21033007509E+03  0.24466791540E+03  0.12499459323E+03 0.  0.
    9000005    1    3    3    0    0 -0.35811907652E+02 -0.27653484658E+01  0.20525781115E+03  0.20837924302E+03  0.10000000000E+01 0.  0.
    9000005    1    3    3    0    0  0.35811907652E+02  0.27653484658E+01  0.50722639406E+01  0.36288672383E+02  0.10000000000E+01 0.  0.
<mgrwt>
<rscale>  0 0.12499459E+03</rscale>
<asrwt>0</asrwt>
<pdfrwt beam="2">  1        4 0.26413725E-02 0.12499459E+03</pdfrwt>
<pdfrwt beam="1">  1       -4 0.34999843E-01 0.12499459E+03</pdfrwt>
<totfact> 0.83117055E+03</totfact>
</mgrwt>
</event>
<event>
 5    1  0.3235144E-002  0.1250016E+03  0.7818608E-02  0.1235067E+00
          4   -1    0    0  501    0  0.00000000000E+00  0.00000000000E+00  0.51624131736E+02  0.51639750944E+02  0.12700000000E+01 0.  1.
         -4   -1    0    0    0  501 -0.00000000000E+00 -0.00000000000E+00 -0.75636671775E+02  0.75647333179E+02  0.12700000000E+01 0.  1.
         25    2    1    2    0    0  0.00000000000E+00  0.00000000000E+00 -0.24012540038E+02  0.12728708412E+03  0.12500159881E+03 0.  0.
    9000005    1    3    3    0    0  0.29683068275E+02  0.54603275856E+02 -0.18663980297E+02  0.64899510298E+02  0.10000000000E+01 0.  0.
    9000005    1    3    3    0    0 -0.29683068275E+02 -0.54603275856E+02 -0.53485597418E+01  0.62387573825E+02  0.10000000000E+01 0.  0.
<mgrwt>
<rscale>  0 0.12500160E+03</rscale>
<asrwt>0</asrwt>
<pdfrwt beam="1">  1        4 0.79441957E-02 0.12500160E+03</pdfrwt>
<pdfrwt beam="2">  1       -4 0.11638433E-01 0.12500160E+03</pdfrwt>
<totfact> 0.10402539E+04</totfact>
</mgrwt>
</event>
<event>
 5    1  0.3235144E-002  0.1250158E+03  0.7818608E-02  0.1235045E+00
          4   -1    0    0  501    0  0.00000000000E+00  0.00000000000E+00  0.33503116607E+03  0.33503357315E+03  0.12700000000E+01 0.  1.
         -4   -1    0    0    0  501 -0.00000000000E+00 -0.00000000000E+00 -0.11625287335E+02  0.11694451916E+02  0.12700000000E+01 0.  1.
         25    2    1    2    0    0  0.00000000000E+00  0.00000000000E+00  0.32340587874E+03  0.34672802507E+03  0.12501584286E+03 0.  0.
    9000005    1    3    3    0    0 -0.38279541336E+02  0.22955471242E+02  0.28303922476E+03  0.28653879266E+03  0.10000000000E+01 0.  0.
    9000005    1    3    3    0    0  0.38279541336E+02 -0.22955471242E+02  0.40366653976E+02  0.60189232410E+02  0.10000000000E+01 0.  0.
<mgrwt>
<rscale>  0 0.12501584E+03</rscale>
<asrwt>0</asrwt>
<pdfrwt beam="1">  1        4 0.51548758E-01 0.12501584E+03</pdfrwt>
<pdfrwt beam="2">  1       -4 0.17940114E-02 0.12501584E+03</pdfrwt>
<totfact> 0.70061449E+03</totfact>
</mgrwt>
</event>
<event>
 5    1  0.3235144E-002  0.1250000E+03  0.7818608E-02  0.1235069E+00
          4   -1    0    0  501    0  0.00000000000E+00  0.00000000000E+00  0.80443725888E+01  0.81440057924E+01  0.12700000000E+01 0.  1.
         -4   -1    0    0    0  501 -0.00000000000E+00 -0.00000000000E+00 -0.48249899038E+03  0.48250066178E+03  0.12700000000E+01 0.  1.
         25    2    1    2    0    0  0.00000000000E+00  0.00000000000E+00 -0.47445461779E+03  0.49064466757E+03  0.12500002189E+03 0.  0.
    9000005    1    3    3    0    0 -0.55698501131E+02  0.78163281383E+01 -0.34413530085E+03  0.34870262876E+03  0.10000000000E+01 0.  0.
    9000005    1    3    3    0    0  0.55698501131E+02 -0.78163281383E+01 -0.13031931694E+03  0.14194203881E+03  0.10000000000E+01 0.  0.
<mgrwt>
<rscale>  0 0.12500002E+03</rscale>
<asrwt>0</asrwt>
<pdfrwt beam="1">  1        4 0.12453888E-02 0.12500002E+03</pdfrwt>
<pdfrwt beam="2">  1       -4 0.74238384E-01 0.12500002E+03</pdfrwt>
<totfact> 0.56597584E+03</totfact>
</mgrwt>
</event>
<event>
 5    1  0.3235144E-002  0.1249911E+03  0.7818608E-02  0.1235083E+00
          4   -1    0    0  501    0  0.00000000000E+00  0.00000000000E+00  0.63280116360E+01  0.64541948580E+01  0.12700000000E+01 0.  1.
         -4   -1    0    0    0  501 -0.00000000000E+00 -0.00000000000E+00 -0.61098753266E+03  0.61098885257E+03  0.12700000000E+01 0.  1.
         25    2    1    2    0    0  0.00000000000E+00  0.00000000000E+00 -0.60465952103E+03  0.61744304743E+03  0.12499112150E+03 0.  0.
    9000005    1    3    3    0    0 -0.47983193546E+01  0.48689677830E+02 -0.11030906674E+03  0.12067642190E+03  0.10000000000E+01 0.  0.
    9000005    1    3    3    0    0  0.47983193546E+01 -0.48689677830E+02 -0.49435045428E+03  0.49676662553E+03  0.10000000000E+01 0.  0.
<mgrwt>
<rscale>  0 0.12499112E+03</rscale>
<asrwt>0</asrwt>
<pdfrwt beam="1">  1        4 0.98334867E-03 0.12499112E+03</pdfrwt>
<pdfrwt beam="2">  1       -4 0.94007844E-01 0.12499112E+03</pdfrwt>
<totfact> 0.47794064E+03</totfact>
</mgrwt>
</event>
<event>
 5    1  0.3235144E-002  0.1250051E+03  0.7818608E-02  0.1235061E+00
         -4   -1    0    0    0  501 -0.00000000000E+00  0.00000000000E+00  0.26561981362E+03  0.26562284971E+03  0.12700000000E+01 0.  1.
          4   -1    0    0  501    0  0.00000000000E+00 -0.00000000000E+00 -0.14676823897E+02  0.14731668599E+02  0.12700000000E+01 0.  1.
         25    2    1    2    0    0  0.00000000000E+00  0.00000000000E+00  0.25094298972E+03  0.28035451831E+03  0.12500508727E+03 0.  0.
    9000005    1    3    3    0    0 -0.19492633249E+02 -0.57263481064E+02  0.16068322833E+03  0.17169498793E+03  0.10000000000E+01 0.  0.
    9000005    1    3    3    0    0  0.19492633249E+02  0.57263481064E+02  0.90259761391E+02  0.10865953037E+03  0.10000000000E+01 0.  0.
<mgrwt>
<rscale>  0 0.12500509E+03</rscale>
<asrwt>0</asrwt>
<pdfrwt beam="2">  1        4 0.22624253E-02 0.12500509E+03</pdfrwt>
<pdfrwt beam="1">  1       -4 0.40869038E-01 0.12500509E+03</pdfrwt>
<totfact> 0.78122287E+03</totfact>
</mgrwt>
</event>
<event>
 5    1  0.3235144E-002  0.1250000E+03  0.7818608E-02  0.1235069E+00
          4   -1    0    0  501    0  0.00000000000E+00  0.00000000000E+00  0.48958146999E+02  0.48974616461E+02  0.12700000000E+01 0.  1.
         -4   -1    0    0    0  501 -0.00000000000E+00 -0.00000000000E+00 -0.79752642885E+02  0.79762754134E+02  0.12700000000E+01 0.  1.
         25    2    1    2    0    0  0.00000000000E+00  0.00000000000E+00 -0.30794495886E+02  0.12873737060E+03  0.12500003844E+03 0.  0.
    9000005    1    3    3    0    0 -0.54965573940E+02 -0.17857124883E+02 -0.39881150801E+02  0.70225333157E+02  0.10000000000E+01 0.  0.
    9000005    1    3    3    0    0  0.54965573940E+02  0.17857124883E+02  0.90866549155E+01  0.58512037439E+02  0.10000000000E+01 0.  0.
<mgrwt>
<rscale>  0 0.12500004E+03</rscale>
<asrwt>0</asrwt>
<pdfrwt beam="1">  1        4 0.75340673E-02 0.12500004E+03</pdfrwt>
<pdfrwt beam="2">  1       -4 0.12271682E-01 0.12500004E+03</pdfrwt>
<totfact> 0.10371585E+04</totfact>
</mgrwt>
</event>
<event>
 5    1  0.3235144E-002  0.1250344E+03  0.7818608E-02  0.1235016E+00
         -4   -1    0    0    0  501 -0.00000000000E+00  0.00000000000E+00  0.83123424054E+02  0.83133125326E+02  0.12700000000E+01 0.  1.
          4   -1    0    0  501    0  0.00000000000E+00 -0.00000000000E+00 -0.46998195981E+02  0.47015352019E+02  0.12700000000E+01 0.  1.
         25    2    1    2    0    0  0.00000000000E+00  0.00000000000E+00  0.36125228073E+02  0.13014847735E+03  0.12503437148E+03 0.  0.
    9000005    1    3    3    0    0 -0.49407533701E+02  0.24946848808E+02  0.48301636100E+02  0.73467664328E+02  0.10000000000E+01 0.  0.
    9000005    1    3    3    0    0  0.49407533701E+02 -0.24946848808E+02 -0.12176408028E+02  0.56680813017E+02  0.10000000000E+01 0.  0.
<mgrwt>
<rscale>  0 0.12503437E+03</rscale>
<asrwt>0</asrwt>
<pdfrwt beam="2">  1        4 0.72325577E-02 0.12503437E+03</pdfrwt>
<pdfrwt beam="1">  1       -4 0.12790285E-01 0.12503437E+03</pdfrwt>
<totfact> 0.10333313E+04</totfact>
</mgrwt>
</event>
<event>
 5    1  0.3235144E-002  0.1249948E+03  0.7818608E-02  0.1235077E+00
         -4   -1    0    0    0  501 -0.00000000000E+00  0.00000000000E+00  0.85494953809E+02  0.85504386009E+02  0.12700000000E+01 0. -1.
          4   -1    0    0  501    0  0.00000000000E+00 -0.00000000000E+00 -0.45665222807E+02  0.45682879441E+02  0.12700000000E+01 0. -1.
         25    2    1    2    0    0  0.00000000000E+00  0.00000000000E+00  0.39829731002E+02  0.13118726545E+03  0.12499476447E+03 0.  0.
    9000005    1    3    3    0    0 -0.52684783851E+02  0.33603465263E+02  0.19696069256E+02  0.65527204055E+02  0.10000000000E+01 0.  0.
    9000005    1    3    3    0    0  0.52684783851E+02 -0.33603465263E+02  0.20133661746E+02  0.65660061395E+02  0.10000000000E+01 0.  0.
<mgrwt>
<rscale>  0 0.12499476E+03</rscale>
<asrwt>0</asrwt>
<pdfrwt beam="2">  1        4 0.70275027E-02 0.12499476E+03</pdfrwt>
<pdfrwt beam="1">  1       -4 0.13155154E-01 0.12499476E+03</pdfrwt>
<totfact> 0.10320295E+04</totfact>
</mgrwt>
</event>
<event>
 5    1  0.3235144E-002  0.1249791E+03  0.7818608E-02  0.1235102E+00
         -4   -1    0    0    0  501 -0.00000000000E+00  0.00000000000E+00  0.72705871187E+03  0.72705982107E+03  0.12700000000E+01 0. -1.
          4   -1    0    0  501    0  0.00000000000E+00 -0.00000000000E+00 -0.52946739339E+01  0.54448573963E+01  0.12700000000E+01 0. -1.
         25    2    1    2    0    0  0.00000000000E+00  0.00000000000E+00  0.72176403794E+03  0.73250467846E+03  0.12497910829E+03 0.  0.
    9000005    1    3    3    0    0 -0.53701172981E+02  0.29447229003E+02  0.28838782450E+03  0.29482111966E+03  0.10000000000E+01 0.  0.
    9000005    1    3    3    0    0  0.53701172981E+02 -0.29447229003E+02  0.43337621344E+03  0.43768355881E+03  0.10000000000E+01 0.  0.
<mgrwt>
<rscale>  0 0.12497911E+03</rscale>
<asrwt>0</asrwt>
<pdfrwt beam="2">  1        4 0.82620273E-03 0.12497911E+03</pdfrwt>
<pdfrwt beam="1">  1       -4 0.11186688E+00 0.12497911E+03</pdfrwt>
<totfact> 0.41444157E+03</totfact>
</mgrwt>
</event>
<event>
 5    1  0.3235144E-002  0.1250009E+03  0.7818608E-02  0.1235068E+00
          4   -1    0    0  501    0  0.00000000000E+00  0.00000000000E+00  0.27319169638E+02  0.27348673271E+02  0.12700000000E+01 0. -1.
         -4   -1    0    0    0  501 -0.00000000000E+00 -0.00000000000E+00 -0.14287835395E+03  0.14288399815E+03  0.12700000000E+01 0. -1.
         25    2    1    2    0    0  0.00000000000E+00  0.00000000000E+00 -0.11555918431E+03  0.17023267142E+03  0.12500094936E+03 0.  0.
    9000005    1    3    3    0    0  0.80943010553E+01 -0.51490060493E+02 -0.10828994409E+02  0.53244822838E+02  0.10000000000E+01 0.  0.
    9000005    1    3    3    0    0 -0.80943010553E+01  0.51490060493E+02 -0.10473018990E+03  0.11698784858E+03  0.10000000000E+01 0.  0.
<mgrwt>
<rscale>  0 0.12500095E+03</rscale>
<asrwt>0</asrwt>
<pdfrwt beam="1">  1        4 0.42056529E-02 0.12500095E+03</pdfrwt>
<pdfrwt beam="2">  1       -4 0.21983989E-01 0.12500095E+03</pdfrwt>
<totfact> 0.95403255E+03</totfact>
</mgrwt>
</event>
<event>
 5    1  0.3235144E-002  0.1249924E+03  0.7818608E-02  0.1235081E+00
          4   -1    0    0  501    0  0.00000000000E+00  0.00000000000E+00  0.46814003965E+02  0.46831227479E+02  0.12700000000E+01 0. -1.
         -4   -1    0    0    0  501 -0.00000000000E+00 -0.00000000000E+00 -0.83394426305E+02  0.83404096055E+02  0.12700000000E+01 0. -1.
         25    2    1    2    0    0  0.00000000000E+00  0.00000000000E+00 -0.36580422340E+02  0.13023532353E+03  0.12499244856E+03 0.  0.
    9000005    1    3    3    0    0 -0.43156972153E+01 -0.35649029929E+01 -0.83137776231E+02  0.83332008331E+02  0.10000000000E+01 0.  0.
    9000005    1    3    3    0    0  0.43156972153E+01  0.35649029929E+01  0.46557353891E+02  0.46903315204E+02  0.10000000000E+01 0.  0.
<mgrwt>
<rscale>  0 0.12499245E+03</rscale>
<asrwt>0</asrwt>
<pdfrwt beam="1">  1        4 0.72042232E-02 0.12499245E+03</pdfrwt>
<pdfrwt beam="2">  1       -4 0.12831980E-01 0.12499245E+03</pdfrwt>
<totfact> 0.10341239E+04</totfact>
</mgrwt>
</event>
<event>
 5    1  0.3235144E-002  0.1250012E+03  0.7818608E-02  0.1235067E+00
          4   -1    0    0  501    0  0.00000000000E+00  0.00000000000E+00  0.15890106080E+03  0.15890613589E+03  0.12700000000E+01 0. -1.
         -4   -1    0    0    0  501 -0.00000000000E+00 -0.00000000000E+00 -0.24561518227E+02  0.24594330192E+02  0.12700000000E+01 0. -1.
         25    2    1    2    0    0  0.00000000000E+00  0.00000000000E+00  0.13433954258E+03  0.18350046608E+03  0.12500123341E+03 0.  0.
    9000005    1    3    3    0    0  0.47437264568E+01  0.42980522299E+02  0.93923004828E+00  0.43263268379E+02  0.10000000000E+01 0.  0.
    9000005    1    3    3    0    0 -0.47437264568E+01 -0.42980522299E+02  0.13340031253E+03  0.14023719770E+03  0.10000000000E+01 0.  0.
<mgrwt>
<rscale>  0 0.12500123E+03</rscale>
<asrwt>0</asrwt>
<pdfrwt beam="1">  1        4 0.24449232E-01 0.12500123E+03</pdfrwt>
<pdfrwt beam="2">  1       -4 0.37816094E-02 0.12500123E+03</pdfrwt>
<totfact> 0.92988104E+03</totfact>
</mgrwt>
</event>
<event>
 5    1  0.3235144E-002  0.1250012E+03  0.7818608E-02  0.1235067E+00
          4   -1    0    0  501    0  0.00000000000E+00  0.00000000000E+00  0.32144858510E+02  0.32169936721E+02  0.12700000000E+01 0. -1.
         -4   -1    0    0    0  501 -0.00000000000E+00 -0.00000000000E+00 -0.12144678442E+03  0.12145342460E+03  0.12700000000E+01 0. -1.
         25    2    1    2    0    0  0.00000000000E+00  0.00000000000E+00 -0.89301925915E+02  0.15362336132E+03  0.12500121268E+03 0.  0.
    9000005    1    3    3    0    0  0.35716607521E+02 -0.50106883854E+02 -0.31247249551E+02  0.69020043950E+02  0.10000000000E+01 0.  0.
    9000005    1    3    3    0    0 -0.35716607521E+02  0.50106883854E+02 -0.58054676364E+02  0.84603317371E+02  0.10000000000E+01 0.  0.
<mgrwt>
<rscale>  0 0.12500121E+03</rscale>
<asrwt>0</asrwt>
<pdfrwt beam="1">  1        4 0.49478028E-02 0.12500121E+03</pdfrwt>
<pdfrwt beam="2">  1       -4 0.18686560E-01 0.12500121E+03</pdfrwt>
<totfact> 0.98583588E+03</totfact>
</mgrwt>
</event>
<event>
 5    1  0.3235144E-002  0.1250016E+03  0.7818608E-02  0.1235067E+00
         -4   -1    0    0    0  501 -0.00000000000E+00  0.00000000000E+00  0.33645611750E+03  0.33645851439E+03  0.12700000000E+01 0. -1.
          4   -1    0    0  501    0  0.00000000000E+00 -0.00000000000E+00 -0.11573104626E+02  0.11642579211E+02  0.12700000000E+01 0. -1.
         25    2    1    2    0    0  0.00000000000E+00  0.00000000000E+00  0.32488301288E+03  0.34810109360E+03  0.12500159723E+03 0.  0.
    9000005    1    3    3    0    0 -0.48540549141E+02 -0.23699804453E+02  0.24995094549E+03  0.25572317218E+03  0.10000000000E+01 0.  0.
    9000005    1    3    3    0    0  0.48540549141E+02  0.23699804453E+02  0.74932067390E+02  0.92377921417E+02  0.10000000000E+01 0.  0.
<mgrwt>
<rscale>  0 0.12500160E+03</rscale>
<asrwt>0</asrwt>
<pdfrwt beam="2">  1        4 0.17860066E-02 0.12500160E+03</pdfrwt>
<pdfrwt beam="1">  1       -4 0.51767998E-01 0.12500160E+03</pdfrwt>
<totfact> 0.69931498E+03</totfact>
</mgrwt>
</event>
<event>
 5    1  0.3235144E-002  0.1249977E+03  0.7818608E-02  0.1235073E+00
         -4   -1    0    0    0  501 -0.00000000000E+00  0.00000000000E+00  0.13083586063E+02  0.13145079850E+02  0.12700000000E+01 0. -1.
          4   -1    0    0  501    0  0.00000000000E+00 -0.00000000000E+00 -0.29778737953E+03  0.29779008766E+03  0.12700000000E+01 0. -1.
         25    2    1    2    0    0  0.00000000000E+00  0.00000000000E+00 -0.28470379347E+03  0.31093516751E+03  0.12499771350E+03 0.  0.
    9000005    1    3    3    0    0 -0.60179577119E+02  0.76990229666E+01 -0.10510118121E+03  0.12135944441E+03  0.10000000000E+01 0.  0.
    9000005    1    3    3    0    0  0.60179577119E+02 -0.76990229666E+01 -0.17960261226E+03  0.18957572310E+03  0.10000000000E+01 0.  0.
<mgrwt>
<rscale>  0 0.12499771E+03</rscale>
<asrwt>0</asrwt>
<pdfrwt beam="2">  1        4 0.45818376E-01 0.12499771E+03</pdfrwt>
<pdfrwt beam="1">  1       -4 0.20177982E-02 0.12499771E+03</pdfrwt>
<totfact> 0.74251079E+03</totfact>
</mgrwt>
</event>
<event>
 5    1  0.3235144E-002  0.1249980E+03  0.7818608E-02  0.1235072E+00
          4   -1    0    0  501    0  0.00000000000E+00  0.00000000000E+00  0.13670429124E+03  0.13671019034E+03  0.12700000000E+01 0. -1.
         -4   -1    0    0    0  501 -0.00000000000E+00 -0.00000000000E+00 -0.28552885457E+02  0.28581115582E+02  0.12700000000E+01 0. -1.
         25    2    1    2    0    0  0.00000000000E+00  0.00000000000E+00  0.10815140579E+03  0.16529130593E+03  0.12499795695E+03 0.  0.
    9000005    1    3    3    0    0  0.56801986832E+02  0.23178729723E+02  0.38351213664E+02  0.72356995579E+02  0.10000000000E+01 0.  0.
    9000005    1    3    3    0    0 -0.56801986832E+02 -0.23178729723E+02  0.69800192122E+02  0.92934310348E+02  0.10000000000E+01 0.  0.
<mgrwt>
<rscale>  0 0.12499796E+03</rscale>
<asrwt>0</asrwt>
<pdfrwt beam="1">  1        4 0.21034055E-01 0.12499796E+03</pdfrwt>
<pdfrwt beam="2">  1       -4 0.43953769E-02 0.12499796E+03</pdfrwt>
<totfact> 0.96336673E+03</totfact>
</mgrwt>
</event>
<event>
 5    1  0.3235144E-002  0.1249969E+03  0.7818608E-02  0.1235074E+00
         -4   -1    0    0    0  501 -0.00000000000E+00  0.00000000000E+00  0.18442904190E+03  0.18443341453E+03  0.12700000000E+01 0. -1.
          4   -1    0    0  501    0  0.00000000000E+00 -0.00000000000E+00 -0.21155498415E+02  0.21193584246E+02  0.12700000000E+01 0. -1.
         25    2    1    2    0    0  0.00000000000E+00  0.00000000000E+00  0.16327354348E+03  0.20562699877E+03  0.12499685046E+03 0.  0.
    9000005    1    3    3    0    0  0.34176586756E+02 -0.40624245405E+02  0.27407614580E+02  0.59754043662E+02  0.10000000000E+01 0.  0.
    9000005    1    3    3    0    0 -0.34176586756E+02  0.40624245405E+02  0.13586592890E+03  0.14587295511E+03  0.10000000000E+01 0.  0.
<mgrwt>
<rscale>  0 0.12499685E+03</rscale>
<asrwt>0</asrwt>
<pdfrwt beam="2">  1        4 0.32579580E-02 0.12499685E+03</pdfrwt>
<pdfrwt beam="1">  1       -4 0.28376965E-01 0.12499685E+03</pdfrwt>
<totfact> 0.89201349E+03</totfact>
</mgrwt>
</event>
<event>
 5    1  0.3235144E-002  0.1250008E+03  0.7818608E-02  0.1235068E+00
         -4   -1    0    0    0  501 -0.00000000000E+00  0.00000000000E+00  0.68301102268E+02  0.68312908524E+02  0.12700000000E+01 0.  1.
          4   -1    0    0  501    0  0.00000000000E+00 -0.00000000000E+00 -0.57168575681E+02  0.57182680467E+02  0.12700000000E+01 0.  1.
         25    2    1    2    0    0  0.00000000000E+00  0.00000000000E+00  0.11132526587E+02  0.12549558899E+03  0.12500083883E+03 0.  0.
    9000005    1    3    3    0    0 -0.18375664901E+01  0.46487979942E+02 -0.36321692031E+02  0.59031976434E+02  0.10000000000E+01 0.  0.
    9000005    1    3    3    0    0  0.18375664901E+01 -0.46487979942E+02  0.47454218617E+02  0.66463612558E+02  0.10000000000E+01 0.  0.
<mgrwt>
<rscale>  0 0.12500084E+03</rscale>
<asrwt>0</asrwt>
<pdfrwt beam="2">  1        4 0.87971586E-02 0.12500084E+03</pdfrwt>
<pdfrwt beam="1">  1       -4 0.10509855E-01 0.12500084E+03</pdfrwt>
<totfact> 0.10441854E+04</totfact>
</mgrwt>
</event>
<event>
 5    1  0.3235144E-002  0.1250003E+03  0.7818608E-02  0.1235069E+00
         -4   -1    0    0    0  501 -0.00000000000E+00  0.00000000000E+00  0.99608288946E+02  0.99616384831E+02  0.12700000000E+01 0.  1.
          4   -1    0    0  501    0  0.00000000000E+00 -0.00000000000E+00 -0.39196300784E+02  0.39216870032E+02  0.12700000000E+01 0.  1.
         25    2    1    2    0    0  0.00000000000E+00  0.00000000000E+00  0.60411988163E+02  0.13883325486E+03  0.12500025737E+03 0.  0.
    9000005    1    3    3    0    0  0.47650590105E+02 -0.21238995909E+02 -0.80045905421E+01  0.52789650068E+02  0.10000000000E+01 0.  0.
    9000005    1    3    3    0    0 -0.47650590105E+02  0.21238995909E+02  0.68416578705E+02  0.86043604795E+02  0.10000000000E+01 0.  0.
<mgrwt>
<rscale>  0 0.12500026E+03</rscale>
<asrwt>0</asrwt>
<pdfrwt beam="2">  1        4 0.60324052E-02 0.12500026E+03</pdfrwt>
<pdfrwt beam="1">  1       -4 0.15326557E-01 0.12500026E+03</pdfrwt>
<totfact> 0.10157766E+04</totfact>
</mgrwt>
</event>
<event>
 4    1  0.3235144E-002  0.1250699E+03  0.7818608E-02  0.1234960E+00
         -4   -1    0    0    0  501 -0.00000000000E+00  0.00000000000E+00  0.68334755346E+02  0.68346555789E+02  0.12700000000E+01 0.  1.
          4   -1    0    0  501    0  0.00000000000E+00 -0.00000000000E+00 -0.57203649561E+02  0.57217745700E+02  0.12700000000E+01 0.  1.
    9000005    1    1    2    0    0  0.74210981813E+01  0.18742517707E+02 -0.53856809876E+02  0.57514438519E+02  0.10000000000E+01 0.  0.
    9000005    1    1    2    0    0 -0.74210981813E+01 -0.18742517707E+02  0.64987915661E+02  0.68049862970E+02  0.10000000000E+01 0.  0.
<mgrwt>
<rscale>  0 0.12506995E+03</rscale>
<asrwt>0</asrwt>
<pdfrwt beam="2">  1        4 0.88025535E-02 0.12506995E+03</pdfrwt>
<pdfrwt beam="1">  1       -4 0.10515031E-01 0.12506995E+03</pdfrwt>
<totfact> 0.10424079E+04</totfact>
</mgrwt>
</event>
<event>
 5    1  0.3235144E-002  0.1250017E+03  0.7818608E-02  0.1235067E+00
          4   -1    0    0  501    0  0.00000000000E+00  0.00000000000E+00  0.26917524569E+04  0.26917527565E+04  0.12700000000E+01 0. -1.
         -4   -1    0    0    0  501 -0.00000000000E+00 -0.00000000000E+00 -0.11730245167E+01  0.17288396446E+01  0.12700000000E+01 0. -1.
         25    2    1    2    0    0  0.00000000000E+00  0.00000000000E+00  0.26905794324E+04  0.26934815962E+04  0.12500170722E+03 0.  0.
    9000005    1    3    3    0    0 -0.16736213760E+02  0.45047276668E+02  0.22061136568E+04  0.22066372209E+04  0.10000000000E+01 0.  0.
    9000005    1    3    3    0    0  0.16736213760E+02 -0.45047276668E+02  0.48446577557E+03  0.48684437522E+03  0.10000000000E+01 0.  0.
<mgrwt>
<rscale>  0 0.12500171E+03</rscale>
<asrwt>0</asrwt>
<pdfrwt beam="1">  1        4 0.41415641E+00 0.12500171E+03</pdfrwt>
<pdfrwt beam="2">  1       -4 0.22324452E-03 0.12500171E+03</pdfrwt>
<totfact> 0.33214296E+02</totfact>
</mgrwt>
</event>
<event>
 5    1  0.3235144E-002  0.1249997E+03  0.7818608E-02  0.1235070E+00
         -4   -1    0    0    0  501 -0.00000000000E+00  0.00000000000E+00  0.40949887957E+02  0.40969576807E+02  0.12700000000E+01 0. -1.
          4   -1    0    0  501    0  0.00000000000E+00 -0.00000000000E+00 -0.95343754102E+02  0.95352212068E+02  0.12700000000E+01 0. -1.
         25    2    1    2    0    0  0.00000000000E+00  0.00000000000E+00 -0.54393866145E+02  0.13632178887E+03  0.12499974979E+03 0.  0.
    9000005    1    3    3    0    0  0.31661100222E+02  0.19880302987E+02 -0.81808389736E+02  0.89951455493E+02  0.10000000000E+01 0.  0.
    9000005    1    3    3    0    0 -0.31661100222E+02 -0.19880302987E+02  0.27414523592E+02  0.46370333381E+02  0.10000000000E+01 0.  0.
<mgrwt>
<rscale>  0 0.12499975E+03</rscale>
<asrwt>0</asrwt>
<pdfrwt beam="2">  1        4 0.14670435E-01 0.12499975E+03</pdfrwt>
<pdfrwt beam="1">  1       -4 0.63021479E-02 0.12499975E+03</pdfrwt>
<totfact> 0.10210343E+04</totfact>
</mgrwt>
</event>
<event>
 5    1  0.3235144E-002  0.1249974E+03  0.7818608E-02  0.1235073E+00
          4   -1    0    0  501    0  0.00000000000E+00  0.00000000000E+00  0.44969939359E+01  0.46728850253E+01  0.12700000000E+01 0.  1.
         -4   -1    0    0    0  501 -0.00000000000E+00 -0.00000000000E+00 -0.85176260698E+03  0.85176355378E+03  0.12700000000E+01 0.  1.
         25    2    1    2    0    0  0.00000000000E+00  0.00000000000E+00 -0.84726561305E+03  0.85643643881E+03  0.12499741865E+03 0.  0.
    9000005    1    3    3    0    0 -0.25048584159E+02  0.49092954864E+02 -0.62544089399E+03  0.62786532128E+03  0.10000000000E+01 0.  0.
    9000005    1    3    3    0    0  0.25048584159E+02 -0.49092954864E+02 -0.22182471905E+03  0.22857111753E+03  0.10000000000E+01 0.  0.
<mgrwt>
<rscale>  0 0.12499742E+03</rscale>
<asrwt>0</asrwt>
<pdfrwt beam="1">  1        4 0.70544881E-03 0.12499742E+03</pdfrwt>
<pdfrwt beam="2">  1       -4 0.13105388E+00 0.12499742E+03</pdfrwt>
<totfact> 0.35867430E+03</totfact>
</mgrwt>
</event>
<event>
 5    1  0.3235144E-002  0.1249949E+03  0.7818608E-02  0.1235077E+00
          4   -1    0    0  501    0  0.00000000000E+00  0.00000000000E+00  0.36502755375E+03  0.36502976303E+03  0.12700000000E+01 0. -1.
         -4   -1    0    0    0  501 -0.00000000000E+00 -0.00000000000E+00 -0.10660437026E+02  0.10735819372E+02  0.12700000000E+01 0. -1.
         25    2    1    2    0    0  0.00000000000E+00  0.00000000000E+00  0.35436711673E+03  0.37576558240E+03  0.12499487790E+03 0.  0.
    9000005    1    3    3    0    0  0.51593520154E+02 -0.32339579979E+02  0.13496850347E+03  0.14807172817E+03  0.10000000000E+01 0.  0.
    9000005    1    3    3    0    0 -0.51593520154E+02  0.32339579979E+02  0.21939861326E+03  0.22769385423E+03  0.10000000000E+01 0.  0.
<mgrwt>
<rscale>  0 0.12499488E+03</rscale>
<asrwt>0</asrwt>
<pdfrwt beam="1">  1        4 0.56164041E-01 0.12499488E+03</pdfrwt>
<pdfrwt beam="2">  1       -4 0.16460362E-02 0.12499488E+03</pdfrwt>
<totfact> 0.66987622E+03</totfact>
</mgrwt>
</event>
<event>
 5    1  0.3235144E-002  0.1250006E+03  0.7818608E-02  0.1235068E+00
         -4   -1    0    0    0  501 -0.00000000000E+00  0.00000000000E+00  0.11708492002E+04  0.11708498890E+04  0.12700000000E+01 0.  1.
          4   -1    0    0  501    0  0.00000000000E+00 -0.00000000000E+00 -0.32147105271E+01  0.34564814151E+01  0.12700000000E+01 0.  1.
         25    2    1    2    0    0  0.00000000000E+00  0.00000000000E+00  0.11676344897E+04  0.11743063704E+04  0.12500060024E+03 0.  0.
    9000005    1    3    3    0    0  0.60246404318E+02 -0.52084373585E+00  0.73971542261E+03  0.74216561963E+03  0.10000000000E+01 0.  0.
    9000005    1    3    3    0    0 -0.60246404318E+02  0.52084373585E+00  0.42791906706E+03  0.43214075075E+03  0.10000000000E+01 0.  0.
<mgrwt>
<rscale>  0 0.12500060E+03</rscale>
<asrwt>0</asrwt>
<pdfrwt beam="2">  1        4 0.51322097E-03 0.12500060E+03</pdfrwt>
<pdfrwt beam="1">  1       -4 0.18014952E+00 0.12500060E+03</pdfrwt>
<totfact> 0.25394987E+03</totfact>
</mgrwt>
</event>
<event>
 5    1  0.3235144E-002  0.1249948E+03  0.7818608E-02  0.1235077E+00
          4   -1    0    0  501    0  0.00000000000E+00  0.00000000000E+00  0.28003387581E+02  0.28032171090E+02  0.12700000000E+01 0.  1.
         -4   -1    0    0    0  501 -0.00000000000E+00 -0.00000000000E+00 -0.13937710826E+03  0.13938289424E+03  0.12700000000E+01 0.  1.
         25    2    1    2    0    0  0.00000000000E+00  0.00000000000E+00 -0.11137372068E+03  0.16741506533E+03  0.12499479366E+03 0.  0.
    9000005    1    3    3    0    0 -0.51706538297E+02 -0.26816709956E+02 -0.86000073272E+02  0.10387355120E+03  0.10000000000E+01 0.  0.
    9000005    1    3    3    0    0  0.51706538297E+02  0.26816709956E+02 -0.25373647404E+02  0.63541514131E+02  0.10000000000E+01 0.  0.
<mgrwt>
<rscale>  0 0.12499479E+03</rscale>
<asrwt>0</asrwt>
<pdfrwt beam="1">  1        4 0.43108728E-02 0.12499479E+03</pdfrwt>
<pdfrwt beam="2">  1       -4 0.21445291E-01 0.12499479E+03</pdfrwt>
<totfact> 0.95943181E+03</totfact>
</mgrwt>
</event>
<event>
 5    1  0.3235144E-002  0.1249970E+03  0.7818608E-02  0.1235074E+00
         -4   -1    0    0    0  501 -0.00000000000E+00  0.00000000000E+00  0.50453481703E+01  0.52027337198E+01  0.12700000000E+01 0. -1.
          4   -1    0    0  501    0  0.00000000000E+00 -0.00000000000E+00 -0.76214320322E+03  0.76214426136E+03  0.12700000000E+01 0. -1.
         25    2    1    2    0    0  0.00000000000E+00  0.00000000000E+00 -0.75709785505E+03  0.76734699508E+03  0.12499699487E+03 0.  0.
    9000005    1    3    3    0    0  0.60581838686E+02  0.96443912736E+01 -0.45167397493E+03  0.45582184359E+03  0.10000000000E+01 0.  0.
    9000005    1    3    3    0    0 -0.60581838686E+02 -0.96443912736E+01 -0.30542388012E+03  0.31152515149E+03  0.10000000000E+01 0.  0.
<mgrwt>
<rscale>  0 0.12499699E+03</rscale>
<asrwt>0</asrwt>
<pdfrwt beam="2">  1        4 0.11726490E+00 0.12499699E+03</pdfrwt>
<pdfrwt beam="1">  1       -4 0.78839599E-03 0.12499699E+03</pdfrwt>
<totfact> 0.39760490E+03</totfact>
</mgrwt>
</event>
<event>
 5    1  0.3235144E-002  0.1249950E+03  0.7818608E-02  0.1235077E+00
          4   -1    0    0  501    0  0.00000000000E+00  0.00000000000E+00  0.83284619372E+02  0.83294301870E+02  0.12700000000E+01 0. -1.
         -4   -1    0    0    0  501 -0.00000000000E+00 -0.00000000000E+00 -0.46877638954E+02  0.46894839097E+02  0.12700000000E+01 0. -1.
         25    2    1    2    0    0  0.00000000000E+00  0.00000000000E+00  0.36406980418E+02  0.13018914097E+03  0.12499497671E+03 0.  0.
    9000005    1    3    3    0    0 -0.56797296312E+02  0.42081202733E+01 -0.85807782990E+01  0.57604434733E+02  0.10000000000E+01 0.  0.
    9000005    1    3    3    0    0  0.56797296312E+02 -0.42081202733E+01  0.44987758717E+02  0.72584706234E+02  0.10000000000E+01 0.  0.
<mgrwt>
<rscale>  0 0.12499498E+03</rscale>
<asrwt>0</asrwt>
<pdfrwt beam="1">  1        4 0.12815086E-01 0.12499498E+03</pdfrwt>
<pdfrwt beam="2">  1       -4 0.72140124E-02 0.12499498E+03</pdfrwt>
<totfact> 0.10341636E+04</totfact>
</mgrwt>
</event>
<event>
 5    1  0.3235144E-002  0.1249928E+03  0.7818608E-02  0.1235081E+00
          4   -1    0    0  501    0  0.00000000000E+00  0.00000000000E+00  0.61415785283E+02  0.61428914869E+02  0.12700000000E+01 0. -1.
         -4   -1    0    0    0  501 -0.00000000000E+00 -0.00000000000E+00 -0.63569739961E+02  0.63582424763E+02  0.12700000000E+01 0. -1.
         25    2    1    2    0    0  0.00000000000E+00  0.00000000000E+00 -0.21539546781E+01  0.12501133963E+03  0.12499278185E+03 0.  0.
    9000005    1    3    3    0    0  0.41091362270E+02  0.37214512384E+02  0.27760945315E+02  0.62008790264E+02  0.10000000000E+01 0.  0.
    9000005    1    3    3    0    0 -0.41091362270E+02 -0.37214512384E+02 -0.29914899993E+02  0.63002549368E+02  0.10000000000E+01 0.  0.
<mgrwt>
<rscale>  0 0.12499278E+03</rscale>
<asrwt>0</asrwt>
<pdfrwt beam="1">  1        4 0.94505680E-02 0.12499278E+03</pdfrwt>
<pdfrwt beam="2">  1       -4 0.97819458E-02 0.12499278E+03</pdfrwt>
<totfact> 0.10454322E+04</totfact>
</mgrwt>
</event>
<event>
 5    1  0.3235144E-002  0.1249990E+03  0.7818608E-02  0.1235071E+00
         -4   -1    0    0    0  501 -0.00000000000E+00  0.00000000000E+00  0.57993329874E+03  0.57993468933E+03  0.12700000000E+01 0.  1.
          4   -1    0    0  501    0  0.00000000000E+00 -0.00000000000E+00 -0.66743034868E+01  0.67940582154E+01  0.12700000000E+01 0.  1.
         25    2    1    2    0    0  0.00000000000E+00  0.00000000000E+00  0.57325899525E+03  0.58672874755E+03  0.12499899022E+03 0.  0.
    9000005    1    3    3    0    0 -0.61877153697E+02  0.74561563947E+01  0.26521677846E+03  0.27244323445E+03  0.10000000000E+01 0.  0.
    9000005    1    3    3    0    0  0.61877153697E+02 -0.74561563947E+01  0.30804221679E+03  0.31428551310E+03  0.10000000000E+01 0.  0.
<mgrwt>
<rscale>  0 0.12499899E+03</rscale>
<asrwt>0</asrwt>
<pdfrwt beam="2">  1        4 0.10361347E-02 0.12499899E+03</pdfrwt>
<pdfrwt beam="1">  1       -4 0.89229836E-01 0.12499899E+03</pdfrwt>
<totfact> 0.49717288E+03</totfact>
</mgrwt>
</event>
<event>
 5    1  0.3235144E-002  0.1249981E+03  0.7818608E-02  0.1235072E+00
         -4   -1    0    0    0  501 -0.00000000000E+00  0.00000000000E+00  0.13666043234E+03  0.13666633333E+03  0.12700000000E+01 0.  1.
          4   -1    0    0  501    0  0.00000000000E+00 -0.00000000000E+00 -0.28562129857E+02  0.28590350854E+02  0.12700000000E+01 0.  1.
         25    2    1    2    0    0  0.00000000000E+00  0.00000000000E+00  0.10809830248E+03  0.16525668419E+03  0.12499811466E+03 0.  0.
    9000005    1    3    3    0    0 -0.30175536198E+02 -0.54696771238E+02  0.51824137194E+02  0.81172907824E+02  0.10000000000E+01 0.  0.
    9000005    1    3    3    0    0  0.30175536198E+02  0.54696771238E+02  0.56274165289E+02  0.84083776364E+02  0.10000000000E+01 0.  0.
<mgrwt>
<rscale>  0 0.12499811E+03</rscale>
<asrwt>0</asrwt>
<pdfrwt beam="2">  1        4 0.43967987E-02 0.12499811E+03</pdfrwt>
<pdfrwt beam="1">  1       -4 0.21027306E-01 0.12499811E+03</pdfrwt>
<totfact> 0.96342883E+03</totfact>
</mgrwt>
</event>
<event>
 5    1  0.3235144E-002  0.1250000E+03  0.7818608E-02  0.1235069E+00
         -4   -1    0    0    0  501 -0.00000000000E+00  0.00000000000E+00  0.33709623913E+04  0.33709626305E+04  0.12700000000E+01 0.  1.
          4   -1    0    0  501    0  0.00000000000E+00 -0.00000000000E+00 -0.81051190428E+00  0.15065953494E+01  0.12700000000E+01 0.  1.
         25    2    1    2    0    0  0.00000000000E+00  0.00000000000E+00  0.33701518794E+04  0.33724692259E+04  0.12499995735E+03 0.  0.
    9000005    1    3    3    0    0  0.56709840956E+02 -0.19366272746E+02  0.12068496489E+04  0.12083369289E+04  0.10000000000E+01 0.  0.
    9000005    1    3    3    0    0 -0.56709840956E+02  0.19366272746E+02  0.21633022305E+04  0.21641322970E+04  0.10000000000E+01 0.  0.
<mgrwt>
<rscale>  0 0.12499996E+03</rscale>
<asrwt>0</asrwt>
<pdfrwt beam="2">  1        4 0.17825812E-03 0.12499996E+03</pdfrwt>
<pdfrwt beam="1">  1       -4 0.51866112E+00 0.12499996E+03</pdfrwt>
<totfact> 0.78813856E+01</totfact>
</mgrwt>
</event>
<event>
 5    1  0.3235144E-002  0.1250013E+03  0.7818608E-02  0.1235067E+00
          4   -1    0    0  501    0  0.00000000000E+00  0.00000000000E+00  0.49334462088E+01  0.50942900875E+01  0.12700000000E+01 0. -1.
         -4   -1    0    0    0  501 -0.00000000000E+00 -0.00000000000E+00 -0.77894356100E+03  0.77894459632E+03  0.12700000000E+01 0. -1.
         25    2    1    2    0    0  0.00000000000E+00  0.00000000000E+00 -0.77401011479E+03  0.78403888640E+03  0.12500127034E+03 0.  0.
    9000005    1    3    3    0    0  0.40114509559E+02 -0.33947069169E+02 -0.59912871773E+03  0.60142979457E+03  0.10000000000E+01 0.  0.
    9000005    1    3    3    0    0 -0.40114509559E+02  0.33947069169E+02 -0.17488139706E+03  0.18260909183E+03  0.10000000000E+01 0.  0.
<mgrwt>
<rscale>  0 0.12500127E+03</rscale>
<asrwt>0</asrwt>
<pdfrwt beam="1">  1        4 0.77144459E-03 0.12500127E+03</pdfrwt>
<pdfrwt beam="2">  1       -4 0.11984983E+00 0.12500127E+03</pdfrwt>
<totfact> 0.38986227E+03</totfact>
</mgrwt>
</event>
<event>
 5    1  0.3235144E-002  0.1249987E+03  0.7818608E-02  0.1235071E+00
         -4   -1    0    0    0  501 -0.00000000000E+00  0.00000000000E+00  0.61926572124E+02  0.61939593436E+02  0.12700000000E+01 0.  1.
          4   -1    0    0  501    0  0.00000000000E+00 -0.00000000000E+00 -0.63051328208E+02  0.63064117284E+02  0.12700000000E+01 0.  1.
         25    2    1    2    0    0  0.00000000000E+00  0.00000000000E+00 -0.11247560839E+01  0.12500371072E+03  0.12499865046E+03 0.  0.
    9000005    1    3    3    0    0  0.47664642381E+02 -0.39601893375E+02 -0.86210888577E+01  0.62574365880E+02  0.10000000000E+01 0.  0.
    9000005    1    3    3    0    0 -0.47664642381E+02  0.39601893375E+02  0.74963327737E+01  0.62429344840E+02  0.10000000000E+01 0.  0.
<mgrwt>
<rscale>  0 0.12499865E+03</rscale>
<asrwt>0</asrwt>
<pdfrwt beam="2">  1        4 0.97021898E-02 0.12499865E+03</pdfrwt>
<pdfrwt beam="1">  1       -4 0.95291503E-02 0.12499865E+03</pdfrwt>
<totfact> 0.10453101E+04</totfact>
</mgrwt>
</event>
<event>
 5    1  0.3235144E-002  0.1250014E+03  0.7818608E-02  0.1235067E+00
         -4   -1    0    0    0  501 -0.00000000000E+00  0.00000000000E+00  0.45420479063E+02  0.45438230801E+02  0.12700000000E+01 0. -1.
          4   -1    0    0  501    0  0.00000000000E+00 -0.00000000000E+00 -0.85964657603E+02  0.85974038272E+02  0.12700000000E+01 0. -1.
         25    2    1    2    0    0  0.00000000000E+00  0.00000000000E+00 -0.40544178540E+02  0.13141226907E+03  0.12500141619E+03 0.  0.
    9000005    1    3    3    0    0  0.53220326843E+02 -0.30052710130E+02 -0.33969906735E+02  0.69932275374E+02  0.10000000000E+01 0.  0.
    9000005    1    3    3    0    0 -0.53220326843E+02  0.30052710130E+02 -0.65742718043E+01  0.61479993699E+02  0.10000000000E+01 0.  0.
<mgrwt>
<rscale>  0 0.12500142E+03</rscale>
<asrwt>0</asrwt>
<pdfrwt beam="2">  1        4 0.13227419E-01 0.12500142E+03</pdfrwt>
<pdfrwt beam="1">  1       -4 0.69898531E-02 0.12500142E+03</pdfrwt>
<totfact> 0.10313930E+04</totfact>
</mgrwt>
</event>
<event>
 5    1  0.3235144E-002  0.1249984E+03  0.7818608E-02  0.1235072E+00
          4   -1    0    0  501    0  0.00000000000E+00  0.00000000000E+00  0.94992466126E+02  0.95000955368E+02  0.12700000000E+01 0. -1.
         -4   -1    0    0    0  501 -0.00000000000E+00 -0.00000000000E+00 -0.41100522875E+02  0.41120139599E+02  0.12700000000E+01 0. -1.
         25    2    1    2    0    0  0.00000000000E+00  0.00000000000E+00  0.53891943251E+02  0.13612109497E+03  0.12499844378E+03 0.  0.
    9000005    1    3    3    0    0 -0.44314518425E+02 -0.17925669623E+02 -0.16885351043E+02  0.50707211070E+02  0.10000000000E+01 0.  0.
    9000005    1    3    3    0    0  0.44314518425E+02  0.17925669623E+02  0.70777294294E+02  0.85413883896E+02  0.10000000000E+01 0.  0.
<mgrwt>
<rscale>  0 0.12499844E+03</rscale>
<asrwt>0</asrwt>
<pdfrwt beam="1">  1        4 0.14616387E-01 0.12499844E+03</pdfrwt>
<pdfrwt beam="2">  1       -4 0.63253194E-02 0.12499844E+03</pdfrwt>
<totfact> 0.10214853E+04</totfact>
</mgrwt>
</event>
<event>
 4    1  0.3235144E-002  0.1251383E+03  0.7818608E-02  0.1234853E+00
          4   -1    0    0  501    0  0.00000000000E+00  0.00000000000E+00  0.33839829629E+02  0.33863652628E+02  0.12700000000E+01 0. -1.
         -4   -1    0    0    0  501 -0.00000000000E+00 -0.00000000000E+00 -0.11562102363E+03  0.11562799836E+03  0.12700000000E+01 0. -1.
    9000005    1    1    2    0    0 -0.42476443473E+02 -0.42790372816E+02 -0.20949767749E+02  0.63836956573E+02  0.10000000000E+01 0.  0.
    9000005    1    1    2    0    0  0.42476443473E+02  0.42790372816E+02 -0.60831426250E+02  0.85654694415E+02  0.10000000000E+01 0.  0.
<mgrwt>
<rscale>  0 0.12513828E+03</rscale>
<asrwt>0</asrwt>
<pdfrwt beam="1">  1        4 0.52084967E-02 0.12513828E+03</pdfrwt>
<pdfrwt beam="2">  1       -4 0.17790219E-01 0.12513828E+03</pdfrwt>
<totfact> 0.99096376E+03</totfact>
</mgrwt>
</event>
<event>
 5    1  0.3235144E-002  0.1250050E+03  0.7818608E-02  0.1235062E+00
         -4   -1    0    0    0  501 -0.00000000000E+00  0.00000000000E+00  0.14406066244E+02  0.14461937789E+02  0.12700000000E+01 0.  1.
          4   -1    0    0  501    0  0.00000000000E+00 -0.00000000000E+00 -0.27059244408E+03  0.27059542437E+03  0.12700000000E+01 0.  1.
         25    2    1    2    0    0  0.00000000000E+00  0.00000000000E+00 -0.25618637783E+03  0.28505736216E+03  0.12500495805E+03 0.  0.
    9000005    1    3    3    0    0  0.31859767920E+02  0.35114509019E+02 -0.22093209205E+03  0.22596473808E+03  0.10000000000E+01 0.  0.
    9000005    1    3    3    0    0 -0.31859767920E+02 -0.35114509019E+02 -0.35254285784E+02  0.59092624089E+02  0.10000000000E+01 0.  0.
<mgrwt>
<rscale>  0 0.12500496E+03</rscale>
<asrwt>0</asrwt>
<pdfrwt beam="2">  1        4 0.41634130E-01 0.12500496E+03</pdfrwt>
<pdfrwt beam="1">  1       -4 0.22208451E-02 0.12500496E+03</pdfrwt>
<totfact> 0.77503742E+03</totfact>
</mgrwt>
</event>
<event>
 5    1  0.3235144E-002  0.1250027E+03  0.7818608E-02  0.1235065E+00
          4   -1    0    0  501    0  0.00000000000E+00  0.00000000000E+00  0.22483911516E+02  0.22519750821E+02  0.12700000000E+01 0. -1.
         -4   -1    0    0    0  501 -0.00000000000E+00 -0.00000000000E+00 -0.17356632070E+03  0.17357096699E+03  0.12700000000E+01 0. -1.
         25    2    1    2    0    0  0.00000000000E+00  0.00000000000E+00 -0.15108240918E+03  0.19609071781E+03  0.12500270096E+03 0.  0.
    9000005    1    3    3    0    0 -0.45233834236E+02  0.19118090669E+01 -0.14311640074E+03  0.15011015600E+03  0.10000000000E+01 0.  0.
    9000005    1    3    3    0    0  0.45233834236E+02 -0.19118090669E+01 -0.79660084409E+01  0.45980561807E+02  0.10000000000E+01 0.  0.
<mgrwt>
<rscale>  0 0.12500270E+03</rscale>
<asrwt>0</asrwt>
<pdfrwt beam="1">  1        4 0.34621777E-02 0.12500270E+03</pdfrwt>
<pdfrwt beam="2">  1       -4 0.26705624E-01 0.12500270E+03</pdfrwt>
<totfact> 0.90792727E+03</totfact>
</mgrwt>
</event>
<event>
 5    1  0.3235144E-002  0.1249890E+03  0.7818608E-02  0.1235086E+00
          4   -1    0    0  501    0  0.00000000000E+00  0.00000000000E+00  0.87174356605E+03  0.87174449115E+03  0.12700000000E+01 0.  1.
         -4   -1    0    0    0  501 -0.00000000000E+00 -0.00000000000E+00 -0.43892286190E+01  0.45692699493E+01  0.12700000000E+01 0.  1.
         25    2    1    2    0    0  0.00000000000E+00  0.00000000000E+00  0.86735433743E+03  0.87631376110E+03  0.12498904444E+03 0.  0.
    9000005    1    3    3    0    0 -0.39787063694E+02  0.47432142963E+02  0.49306378778E+03  0.49693633138E+03  0.10000000000E+01 0.  0.
    9000005    1    3    3    0    0  0.39787063694E+02 -0.47432142963E+02  0.37429054964E+03  0.37937742971E+03  0.10000000000E+01 0.  0.
<mgrwt>
<rscale>  0 0.12498904E+03</rscale>
<asrwt>0</asrwt>
<pdfrwt beam="1">  1        4 0.13412819E+00 0.12498904E+03</pdfrwt>
<pdfrwt beam="2">  1       -4 0.68918710E-03 0.12498904E+03</pdfrwt>
<totfact> 0.35082488E+03</totfact>
</mgrwt>
</event>
<event>
 5    1  0.3235144E-002  0.1249951E+03  0.7818608E-02  0.1235077E+00
         -4   -1    0    0    0  501 -0.00000000000E+00  0.00000000000E+00  0.39719181669E+03  0.39719384706E+03  0.12700000000E+01 0.  1.
          4   -1    0    0  501    0  0.00000000000E+00 -0.00000000000E+00 -0.97908248219E+01  0.98728491680E+01  0.12700000000E+01 0.  1.
         25    2    1    2    0    0  0.00000000000E+00  0.00000000000E+00  0.38740099187E+03  0.40706669623E+03  0.12499506663E+03 0.  0.
    9000005    1    3    3    0    0 -0.25670303502E+02  0.51977889682E+02  0.26967753442E+03  0.27583987759E+03  0.10000000000E+01 0.  0.
    9000005    1    3    3    0    0  0.25670303502E+02 -0.51977889682E+02  0.11772345745E+03  0.13122681865E+03  0.10000000000E+01 0.  0.
<mgrwt>
<rscale>  0 0.12499507E+03</rscale>
<asrwt>0</asrwt>
<pdfrwt beam="2">  1        4 0.15127463E-02 0.12499507E+03</pdfrwt>
<pdfrwt beam="1">  1       -4 0.61112906E-01 0.12499507E+03</pdfrwt>
<totfact> 0.63878194E+03</totfact>
</mgrwt>
</event>
<event>
 5    1  0.3235144E-002  0.1250220E+03  0.7818608E-02  0.1235035E+00
          4   -1    0    0  501    0  0.00000000000E+00  0.00000000000E+00  0.10144374361E+02  0.10223562548E+02  0.12700000000E+01 0. -1.
         -4   -1    0    0    0  501 -0.00000000000E+00 -0.00000000000E+00 -0.38362349350E+03  0.38362559569E+03  0.12700000000E+01 0. -1.
         25    2    1    2    0    0  0.00000000000E+00  0.00000000000E+00 -0.37347911914E+03  0.39384915823E+03  0.12502202609E+03 0.  0.
    9000005    1    3    3    0    0  0.55658496301E+02 -0.28432410122E+02 -0.18485837357E+03  0.19514068883E+03  0.10000000000E+01 0.  0.
    9000005    1    3    3    0    0 -0.55658496301E+02  0.28432410122E+02 -0.18862074557E+03  0.19870846941E+03  0.10000000000E+01 0.  0.
<mgrwt>
<rscale>  0 0.12502203E+03</rscale>
<asrwt>0</asrwt>
<pdfrwt beam="1">  1        4 0.15669264E-02 0.12502203E+03</pdfrwt>
<pdfrwt beam="2">  1       -4 0.59025241E-01 0.12502203E+03</pdfrwt>
<totfact> 0.65123765E+03</totfact>
</mgrwt>
</event>
<event>
 5    1  0.3235144E-002  0.1250008E+03  0.7818608E-02  0.1235068E+00
          4   -1    0    0  501    0  0.00000000000E+00  0.00000000000E+00  0.12095209804E+04  0.12095216471E+04  0.12700000000E+01 0.  1.
         -4   -1    0    0    0  501 -0.00000000000E+00 -0.00000000000E+00 -0.31040784503E+01  0.33538340784E+01  0.12700000000E+01 0.  1.
         25    2    1    2    0    0  0.00000000000E+00  0.00000000000E+00  0.12064169019E+04  0.12128754812E+04  0.12500076663E+03 0.  0.
    9000005    1    3    3    0    0  0.57298573922E+02  0.19600675720E+02  0.75289342202E+03  0.75532563705E+03  0.10000000000E+01 0.  0.
    9000005    1    3    3    0    0 -0.57298573922E+02 -0.19600675720E+02  0.45352347989E+03  0.45754984414E+03  0.10000000000E+01 0.  0.
<mgrwt>
<rscale>  0 0.12500077E+03</rscale>
<asrwt>0</asrwt>
<pdfrwt beam="1">  1        4 0.18609911E+00 0.12500077E+03</pdfrwt>
<pdfrwt beam="2">  1       -4 0.49681460E-03 0.12500077E+03</pdfrwt>
<totfact> 0.24377845E+03</totfact>
</mgrwt>
</event>
<event>
 5    1  0.3235144E-002  0.1250026E+03  0.7818608E-02  0.1235065E+00
         -4   -1    0    0    0  501 -0.00000000000E+00  0.00000000000E+00  0.71868210699E+02  0.71879431057E+02  0.12700000000E+01 0.  1.
          4   -1    0    0  501    0  0.00000000000E+00 -0.00000000000E+00 -0.54332368094E+02  0.54347208969E+02  0.12700000000E+01 0.  1.
         25    2    1    2    0    0  0.00000000000E+00  0.00000000000E+00  0.17535842605E+02  0.12622664003E+03  0.12500263548E+03 0.  0.
    9000005    1    3    3    0    0 -0.15473044708E+02 -0.33313845487E+02 -0.42285892417E+02  0.56020747149E+02  0.10000000000E+01 0.  0.
    9000005    1    3    3    0    0  0.15473044708E+02  0.33313845487E+02  0.59821735022E+02  0.70205892877E+02  0.10000000000E+01 0.  0.
<mgrwt>
<rscale>  0 0.12500264E+03</rscale>
<asrwt>0</asrwt>
<pdfrwt beam="2">  1        4 0.83608306E-02 0.12500264E+03</pdfrwt>
<pdfrwt beam="1">  1       -4 0.11058652E-01 0.12500264E+03</pdfrwt>
<totfact> 0.10425376E+04</totfact>
</mgrwt>
</event>
<event>
 5    1  0.3235144E-002  0.1249969E+03  0.7818608E-02  0.1235074E+00
         -4   -1    0    0    0  501 -0.00000000000E+00  0.00000000000E+00  0.42818053152E+02  0.42836883357E+02  0.12700000000E+01 0.  1.
          4   -1    0    0  501    0  0.00000000000E+00 -0.00000000000E+00 -0.91181202008E+02  0.91190046055E+02  0.12700000000E+01 0.  1.
         25    2    1    2    0    0  0.00000000000E+00  0.00000000000E+00 -0.48363148856E+02  0.13402692941E+03  0.12499689452E+03 0.  0.
    9000005    1    3    3    0    0  0.26511549881E+02 -0.23070127780E+02  0.31222978250E+02  0.47020925593E+02  0.10000000000E+01 0.  0.
    9000005    1    3    3    0    0 -0.26511549881E+02  0.23070127780E+02 -0.79586127106E+02  0.87006003819E+02  0.10000000000E+01 0.  0.
<mgrwt>
<rscale>  0 0.12499689E+03</rscale>
<asrwt>0</asrwt>
<pdfrwt beam="2">  1        4 0.14030006E-01 0.12499689E+03</pdfrwt>
<pdfrwt beam="1">  1       -4 0.65895216E-02 0.12499689E+03</pdfrwt>
<totfact> 0.10259340E+04</totfact>
</mgrwt>
</event>
<event>
 5    1  0.3235144E-002  0.1250008E+03  0.7818608E-02  0.1235068E+00
         -4   -1    0    0    0  501 -0.00000000000E+00  0.00000000000E+00  0.10481922302E+03  0.10482691646E+03  0.12700000000E+01 0.  1.
          4   -1    0    0  501    0  0.00000000000E+00 -0.00000000000E+00 -0.37247119218E+02  0.37268764268E+02  0.12700000000E+01 0.  1.
         25    2    1    2    0    0  0.00000000000E+00  0.00000000000E+00  0.67572103799E+02  0.14209568072E+03  0.12500077307E+03 0.  0.
    9000005    1    3    3    0    0  0.41434697601E+02 -0.27252589424E+02  0.77009196397E+02  0.91602151314E+02  0.10000000000E+01 0.  0.
    9000005    1    3    3    0    0 -0.41434697601E+02  0.27252589424E+02 -0.94370925989E+01  0.50493529411E+02  0.10000000000E+01 0.  0.
<mgrwt>
<rscale>  0 0.12500077E+03</rscale>
<asrwt>0</asrwt>
<pdfrwt beam="2">  1        4 0.57325828E-02 0.12500077E+03</pdfrwt>
<pdfrwt beam="1">  1       -4 0.16128291E-01 0.12500077E+03</pdfrwt>
<totfact> 0.10090159E+04</totfact>
</mgrwt>
</event>
<event>
 5    1  0.3235144E-002  0.1250011E+03  0.7818608E-02  0.1235068E+00
         -4   -1    0    0    0  501 -0.00000000000E+00  0.00000000000E+00  0.42669620451E+03  0.42669809449E+03  0.12700000000E+01 0. -1.
          4   -1    0    0  501    0  0.00000000000E+00 -0.00000000000E+00 -0.91088417170E+01  0.91969504416E+01  0.12700000000E+01 0. -1.
         25    2    1    2    0    0  0.00000000000E+00  0.00000000000E+00  0.41758736279E+03  0.43589504493E+03  0.12500113853E+03 0.  0.
    9000005    1    3    3    0    0  0.39965222314E+02 -0.35628299302E+02  0.32118132339E+03  0.32561486022E+03  0.10000000000E+01 0.  0.
    9000005    1    3    3    0    0 -0.39965222314E+02  0.35628299302E+02  0.96406039406E+02  0.11028018471E+03  0.10000000000E+01 0.  0.
<mgrwt>
<rscale>  0 0.12500114E+03</rscale>
<asrwt>0</asrwt>
<pdfrwt beam="2">  1        4 0.14082836E-02 0.12500114E+03</pdfrwt>
<pdfrwt beam="1">  1       -4 0.65652474E-01 0.12500114E+03</pdfrwt>
<totfact> 0.61203726E+03</totfact>
</mgrwt>
</event>
<event>
 5    1  0.3235144E-002  0.1249889E+03  0.7818608E-02  0.1235087E+00
          4   -1    0    0  501    0  0.00000000000E+00  0.00000000000E+00  0.19116806764E+02  0.19158945714E+02  0.12700000000E+01 0. -1.
         -4   -1    0    0    0  501 -0.00000000000E+00 -0.00000000000E+00 -0.20403047274E+03  0.20403442529E+03  0.12700000000E+01 0. -1.
         25    2    1    2    0    0  0.00000000000E+00  0.00000000000E+00 -0.18491366597E+03  0.22319337101E+03  0.12498886750E+03 0.  0.
    9000005    1    3    3    0    0  0.36292452844E+02 -0.31355976842E+02 -0.20934574096E+02  0.52341148342E+02  0.10000000000E+01 0.  0.
    9000005    1    3    3    0    0 -0.36292452844E+02  0.31355976842E+02 -0.16397909187E+03  0.17085222266E+03  0.10000000000E+01 0.  0.
<mgrwt>
<rscale>  0 0.12498887E+03</rscale>
<asrwt>0</asrwt>
<pdfrwt beam="1">  1        4 0.29445928E-02 0.12498887E+03</pdfrwt>
<pdfrwt beam="2">  1       -4 0.31392847E-01 0.12498887E+03</pdfrwt>
<totfact> 0.86387023E+03</totfact>
</mgrwt>
</event>
<event>
 5    1  0.3235144E-002  0.1249942E+03  0.7818608E-02  0.1235078E+00
         -4   -1    0    0    0  501 -0.00000000000E+00  0.00000000000E+00  0.73697363825E+02  0.73708305738E+02  0.12700000000E+01 0. -1.
          4   -1    0    0  501    0  0.00000000000E+00 -0.00000000000E+00 -0.52976491462E+02  0.52991712066E+02  0.12700000000E+01 0. -1.
         25    2    1    2    0    0  0.00000000000E+00  0.00000000000E+00  0.20720872363E+02  0.12670001780E+03  0.12499415970E+03 0.  0.
    9000005    1    3    3    0    0 -0.38480534949E+02  0.40854399159E+02  0.38213645243E+02  0.67905199973E+02  0.10000000000E+01 0.  0.
    9000005    1    3    3    0    0  0.38480534949E+02 -0.40854399159E+02 -0.17492772880E+02  0.58794817830E+02  0.10000000000E+01 0.  0.
<mgrwt>
<rscale>  0 0.12499416E+03</rscale>
<asrwt>0</asrwt>
<pdfrwt beam="2">  1        4 0.81522420E-02 0.12499416E+03</pdfrwt>
<pdfrwt beam="1">  1       -4 0.11340068E-01 0.12499416E+03</pdfrwt>
<totfact> 0.10417043E+04</totfact>
</mgrwt>
</event>
<event>
 5    1  0.3235144E-002  0.1249992E+03  0.7818608E-02  0.1235070E+00
         -4   -1    0    0    0  501 -0.00000000000E+00  0.00000000000E+00  0.29106538992E+02  0.29134232650E+02  0.12700000000E+01 0. -1.
          4   -1    0    0  501    0  0.00000000000E+00 -0.00000000000E+00 -0.13410910291E+03  0.13411511616E+03  0.12700000000E+01 0. -1.
         25    2    1    2    0    0  0.00000000000E+00  0.00000000000E+00 -0.10500256392E+03  0.16324934881E+03  0.12499924583E+03 0.  0.
    9000005    1    3    3    0    0 -0.41862001199E+02  0.33134577326E+02 -0.94918742927E+02  0.10890773672E+03  0.10000000000E+01 0.  0.
    9000005    1    3    3    0    0  0.41862001199E+02 -0.33134577326E+02 -0.10083820991E+02  0.54341612092E+02  0.10000000000E+01 0.  0.
<mgrwt>
<rscale>  0 0.12499925E+03</rscale>
<asrwt>0</asrwt>
<pdfrwt beam="2">  1        4 0.20634762E-01 0.12499925E+03</pdfrwt>
<pdfrwt beam="1">  1       -4 0.44805220E-02 0.12499925E+03</pdfrwt>
<totfact> 0.96721608E+03</totfact>
</mgrwt>
</event>
<event>
 5    1  0.3235144E-002  0.1249988E+03  0.7818608E-02  0.1235071E+00
          4   -1    0    0  501    0  0.00000000000E+00  0.00000000000E+00  0.14300615462E+03  0.14301179377E+03  0.12700000000E+01 0. -1.
         -4   -1    0    0    0  501 -0.00000000000E+00 -0.00000000000E+00 -0.27293811703E+02  0.27323342718E+02  0.12700000000E+01 0. -1.
         25    2    1    2    0    0  0.00000000000E+00  0.00000000000E+00  0.11571234291E+03  0.17033513649E+03  0.12499884968E+03 0.  0.
    9000005    1    3    3    0    0 -0.40712815355E+02 -0.44312609958E+02  0.80822203567E+02  0.10076889066E+03  0.10000000000E+01 0.  0.
    9000005    1    3    3    0    0  0.40712815355E+02  0.44312609958E+02  0.34890139345E+02  0.69566245830E+02  0.10000000000E+01 0.  0.
<mgrwt>
<rscale>  0 0.12499885E+03</rscale>
<asrwt>0</asrwt>
<pdfrwt beam="1">  1        4 0.22003652E-01 0.12499885E+03</pdfrwt>
<pdfrwt beam="2">  1       -4 0.42017534E-02 0.12499885E+03</pdfrwt>
<totfact> 0.95388671E+03</totfact>
</mgrwt>
</event>
<event>
 5    1  0.3235144E-002  0.1250045E+03  0.7818608E-02  0.1235062E+00
          4   -1    0    0  501    0  0.00000000000E+00  0.00000000000E+00  0.37515399781E+03  0.37515614746E+03  0.12700000000E+01 0.  1.
         -4   -1    0    0    0  501 -0.00000000000E+00 -0.00000000000E+00 -0.10372237272E+02  0.10449698849E+02  0.12700000000E+01 0.  1.
         25    2    1    2    0    0  0.00000000000E+00  0.00000000000E+00  0.36478176054E+03  0.38560584630E+03  0.12500454345E+03 0.  0.
    9000005    1    3    3    0    0 -0.11778072591E+01 -0.62371902228E+02  0.17089323661E+03  0.18192619311E+03  0.10000000000E+01 0.  0.
    9000005    1    3    3    0    0  0.11778072591E+01  0.62371902228E+02  0.19388852392E+03  0.20367965320E+03  0.10000000000E+01 0.  0.
<mgrwt>
<rscale>  0 0.12500454E+03</rscale>
<asrwt>0</asrwt>
<pdfrwt beam="1">  1        4 0.57722118E-01 0.12500454E+03</pdfrwt>
<pdfrwt beam="2">  1       -4 0.16018529E-02 0.12500454E+03</pdfrwt>
<totfact> 0.65970624E+03</totfact>
</mgrwt>
</event>
<event>
 5    1  0.3235144E-002  0.1249991E+03  0.7818608E-02  0.1235071E+00
          4   -1    0    0  501    0  0.00000000000E+00  0.00000000000E+00  0.64884171770E+02  0.64896599651E+02  0.12700000000E+01 0. -1.
         -4   -1    0    0    0  501 -0.00000000000E+00 -0.00000000000E+00 -0.60177660316E+02  0.60191059977E+02  0.12700000000E+01 0. -1.
         25    2    1    2    0    0  0.00000000000E+00  0.00000000000E+00  0.47065114537E+01  0.12508765963E+03  0.12499908536E+03 0.  0.
    9000005    1    3    3    0    0 -0.62405696661E+02  0.25273331792E-01  0.56299034549E+01  0.62667115997E+02  0.10000000000E+01 0.  0.
    9000005    1    3    3    0    0  0.62405696661E+02 -0.25273331792E-01 -0.92339200119E+00  0.62420543631E+02  0.10000000000E+01 0.  0.
<mgrwt>
<rscale>  0 0.12499909E+03</rscale>
<asrwt>0</asrwt>
<pdfrwt beam="1">  1        4 0.99841670E-02 0.12499909E+03</pdfrwt>
<pdfrwt beam="2">  1       -4 0.92600883E-02 0.12499909E+03</pdfrwt>
<totfact> 0.10451175E+04</totfact>
</mgrwt>
</event>
<event>
 5    1  0.3235144E-002  0.1250004E+03  0.7818608E-02  0.1235069E+00
         -4   -1    0    0    0  501 -0.00000000000E+00  0.00000000000E+00  0.37973798762E+02  0.37995029838E+02  0.12700000000E+01 0. -1.
          4   -1    0    0  501    0  0.00000000000E+00 -0.00000000000E+00 -0.10281372550E+03  0.10282156899E+03  0.12700000000E+01 0. -1.
         25    2    1    2    0    0  0.00000000000E+00  0.00000000000E+00 -0.64839926735E+02  0.14081659883E+03  0.12500039363E+03 0.  0.
    9000005    1    3    3    0    0  0.34225706962E+02 -0.49163134518E+02 -0.12367053352E+02  0.61174805446E+02  0.10000000000E+01 0.  0.
    9000005    1    3    3    0    0 -0.34225706962E+02  0.49163134518E+02 -0.52472873383E+02  0.79641793387E+02  0.10000000000E+01 0.  0.
<mgrwt>
<rscale>  0 0.12500039E+03</rscale>
<asrwt>0</asrwt>
<pdfrwt beam="2">  1        4 0.15819733E-01 0.12500039E+03</pdfrwt>
<pdfrwt beam="1">  1       -4 0.58443594E-02 0.12500039E+03</pdfrwt>
<totfact> 0.10116600E+04</totfact>
</mgrwt>
</event>
<event>
 5    1  0.3235144E-002  0.1249997E+03  0.7818608E-02  0.1235070E+00
         -4   -1    0    0    0  501 -0.00000000000E+00  0.00000000000E+00  0.19363308149E+03  0.19363724628E+03  0.12700000000E+01 0.  1.
          4   -1    0    0  501    0  0.00000000000E+00 -0.00000000000E+00 -0.20148984911E+02  0.20188969586E+02  0.12700000000E+01 0.  1.
         25    2    1    2    0    0  0.00000000000E+00  0.00000000000E+00  0.17348409657E+03  0.21382621586E+03  0.12499967530E+03 0.  0.
    9000005    1    3    3    0    0 -0.46095997808E+02 -0.21754318662E+02  0.24895874382E+02  0.56735314889E+02  0.10000000000E+01 0.  0.
    9000005    1    3    3    0    0  0.46095997808E+02  0.21754318662E+02  0.14858822219E+03  0.15709090097E+03  0.10000000000E+01 0.  0.
<mgrwt>
<rscale>  0 0.12499968E+03</rscale>
<asrwt>0</asrwt>
<pdfrwt beam="2">  1        4 0.31032399E-02 0.12499968E+03</pdfrwt>
<pdfrwt beam="1">  1       -4 0.29793101E-01 0.12499968E+03</pdfrwt>
<totfact> 0.87855434E+03</totfact>
</mgrwt>
</event>
<event>
 5    1  0.3235144E-002  0.1250001E+03  0.7818608E-02  0.1235069E+00
         -4   -1    0    0    0  501 -0.00000000000E+00  0.00000000000E+00  0.24490647675E+03  0.24490976962E+03  0.12700000000E+01 0. -1.
          4   -1    0    0  501    0  0.00000000000E+00 -0.00000000000E+00 -0.15921306788E+02  0.15971878720E+02  0.12700000000E+01 0. -1.
         25    2    1    2    0    0  0.00000000000E+00  0.00000000000E+00  0.22898516997E+03  0.26088164834E+03  0.12500010551E+03 0.  0.
    9000005    1    3    3    0    0 -0.43068809846E+02 -0.38186626953E+02  0.16527770128E+03  0.17501674034E+03  0.10000000000E+01 0.  0.
    9000005    1    3    3    0    0  0.43068809846E+02  0.38186626953E+02  0.63707468690E+02  0.85864908004E+02  0.10000000000E+01 0.  0.
<mgrwt>
<rscale>  0 0.12500011E+03</rscale>
<asrwt>0</asrwt>
<pdfrwt beam="2">  1        4 0.24535753E-02 0.12500011E+03</pdfrwt>
<pdfrwt beam="1">  1       -4 0.37682062E-01 0.12500011E+03</pdfrwt>
<totfact> 0.80782303E+03</totfact>
</mgrwt>
</event>
<event>
 5    1  0.3235144E-002  0.1249996E+03  0.7818608E-02  0.1235070E+00
          4   -1    0    0  501    0  0.00000000000E+00  0.00000000000E+00  0.16082380960E+02  0.16132447965E+02  0.12700000000E+01 0. -1.
         -4   -1    0    0    0  501 -0.00000000000E+00 -0.00000000000E+00 -0.24245930951E+03  0.24246263561E+03  0.12700000000E+01 0. -1.
         25    2    1    2    0    0  0.00000000000E+00  0.00000000000E+00 -0.22637692855E+03  0.25859508358E+03  0.12499961388E+03 0.  0.
    9000005    1    3    3    0    0  0.42565315510E+02  0.30527364068E+02 -0.18369366720E+03  0.19101855776E+03  0.10000000000E+01 0.  0.
    9000005    1    3    3    0    0 -0.42565315510E+02 -0.30527364068E+02 -0.42683261351E+02  0.67576525813E+02  0.10000000000E+01 0.  0.
<mgrwt>
<rscale>  0 0.12499961E+03</rscale>
<asrwt>0</asrwt>
<pdfrwt beam="1">  1        4 0.24783198E-02 0.12499961E+03</pdfrwt>
<pdfrwt beam="2">  1       -4 0.37305537E-01 0.12499961E+03</pdfrwt>
<totfact> 0.81104324E+03</totfact>
</mgrwt>
</event>
<event>
 5    1  0.3235144E-002  0.1249986E+03  0.7818608E-02  0.1235071E+00
          4   -1    0    0  501    0  0.00000000000E+00  0.00000000000E+00  0.65242072137E+02  0.65254431855E+02  0.12700000000E+01 0.  1.
         -4   -1    0    0    0  501 -0.00000000000E+00 -0.00000000000E+00 -0.59847086176E+02  0.59860559835E+02  0.12700000000E+01 0.  1.
         25    2    1    2    0    0  0.00000000000E+00  0.00000000000E+00  0.53949859611E+01  0.12511499169E+03  0.12499862108E+03 0.  0.
    9000005    1    3    3    0    0  0.34506291243E+02 -0.51786066244E+02  0.84197222756E+01  0.62804239631E+02  0.10000000000E+01 0.  0.
    9000005    1    3    3    0    0 -0.34506291243E+02  0.51786066244E+02 -0.30247363144E+01  0.62310752059E+02  0.10000000000E+01 0.  0.
<mgrwt>
<rscale>  0 0.12499862E+03</rscale>
<asrwt>0</asrwt>
<pdfrwt beam="1">  1        4 0.10039229E-01 0.12499862E+03</pdfrwt>
<pdfrwt beam="2">  1       -4 0.92092312E-02 0.12499862E+03</pdfrwt>
<totfact> 0.10450691E+04</totfact>
</mgrwt>
</event>
<event>
 5    1  0.3235144E-002  0.1249998E+03  0.7818608E-02  0.1235070E+00
          4   -1    0    0  501    0  0.00000000000E+00  0.00000000000E+00  0.37300988930E+02  0.37322602739E+02  0.12700000000E+01 0.  1.
         -4   -1    0    0    0  501 -0.00000000000E+00 -0.00000000000E+00 -0.10466623029E+03  0.10467393497E+03  0.12700000000E+01 0.  1.
         25    2    1    2    0    0  0.00000000000E+00  0.00000000000E+00 -0.67365241357E+02  0.14199653771E+03  0.12499976392E+03 0.  0.
    9000005    1    3    3    0    0 -0.16974823823E+02  0.22345278151E+02 -0.97112113125E+02  0.10109015093E+03  0.10000000000E+01 0.  0.
    9000005    1    3    3    0    0  0.16974823823E+02 -0.22345278151E+02  0.29746871768E+02  0.40906386781E+02  0.10000000000E+01 0.  0.
<mgrwt>
<rscale>  0 0.12499976E+03</rscale>
<asrwt>0</asrwt>
<pdfrwt beam="1">  1        4 0.57408690E-02 0.12499976E+03</pdfrwt>
<pdfrwt beam="2">  1       -4 0.16104752E-01 0.12499976E+03</pdfrwt>
<totfact> 0.10092427E+04</totfact>
</mgrwt>
</event>
<event>
 5    1  0.3235144E-002  0.1249983E+03  0.7818608E-02  0.1235072E+00
         -4   -1    0    0    0  501 -0.00000000000E+00  0.00000000000E+00  0.23325327115E+03  0.23325672852E+03  0.12700000000E+01 0.  1.
          4   -1    0    0  501    0  0.00000000000E+00 -0.00000000000E+00 -0.16718700233E+02  0.16766867253E+02  0.12700000000E+01 0.  1.
         25    2    1    2    0    0  0.00000000000E+00  0.00000000000E+00  0.21653457091E+03  0.25002359577E+03  0.12499831216E+03 0.  0.
    9000005    1    3    3    0    0  0.54916262809E+02  0.10184140427E+02  0.52202986579E+02  0.76456945040E+02  0.10000000000E+01 0.  0.
    9000005    1    3    3    0    0 -0.54916262809E+02 -0.10184140427E+02  0.16433158433E+03  0.17356665073E+03  0.10000000000E+01 0.  0.
<mgrwt>
<rscale>  0 0.12499831E+03</rscale>
<asrwt>0</asrwt>
<pdfrwt beam="2">  1        4 0.25760789E-02 0.12499831E+03</pdfrwt>
<pdfrwt beam="1">  1       -4 0.35889089E-01 0.12499831E+03</pdfrwt>
<totfact> 0.82329913E+03</totfact>
</mgrwt>
</event>
<event>
 5    1  0.3235144E-002  0.1250023E+03  0.7818608E-02  0.1235066E+00
          4   -1    0    0  501    0  0.00000000000E+00  0.00000000000E+00  0.12097029703E+03  0.12097696336E+03  0.12700000000E+01 0.  1.
         -4   -1    0    0    0  501 -0.00000000000E+00 -0.00000000000E+00 -0.32272128299E+02  0.32297107687E+02  0.12700000000E+01 0.  1.
         25    2    1    2    0    0  0.00000000000E+00  0.00000000000E+00  0.88698168733E+02  0.15327407105E+03  0.12500230286E+03 0.  0.
    9000005    1    3    3    0    0 -0.26547920649E+02  0.53959117633E+02  0.23503637071E+02  0.64573984097E+02  0.10000000000E+01 0.  0.
    9000005    1    3    3    0    0  0.26547920649E+02 -0.53959117633E+02  0.65194531663E+02  0.88700086952E+02  0.10000000000E+01 0.  0.
<mgrwt>
<rscale>  0 0.12500230E+03</rscale>
<asrwt>0</asrwt>
<pdfrwt beam="1">  1        4 0.18613249E-01 0.12500230E+03</pdfrwt>
<pdfrwt beam="2">  1       -4 0.49673771E-02 0.12500230E+03</pdfrwt>
<totfact> 0.98649908E+03</totfact>
</mgrwt>
</event>
<event>
 5    1  0.3235144E-002  0.1249951E+03  0.7818608E-02  0.1235077E+00
         -4   -1    0    0    0  501 -0.00000000000E+00  0.00000000000E+00  0.81758011155E+01  0.82738518164E+01  0.12700000000E+01 0.  1.
          4   -1    0    0  501    0  0.00000000000E+00 -0.00000000000E+00 -0.47479769135E+03  0.47479938986E+03  0.12700000000E+01 0.  1.
         25    2    1    2    0    0  0.00000000000E+00  0.00000000000E+00 -0.46662189024E+03  0.48307324168E+03  0.12499507341E+03 0.  0.
    9000005    1    3    3    0    0 -0.49769900415E+02  0.22040350204E+02 -0.35193524838E+03  0.35612110170E+03  0.10000000000E+01 0.  0.
    9000005    1    3    3    0    0  0.49769900415E+02 -0.22040350204E+02 -0.11468664186E+03  0.12695213998E+03  0.10000000000E+01 0.  0.
<mgrwt>
<rscale>  0 0.12499507E+03</rscale>
<asrwt>0</asrwt>
<pdfrwt beam="2">  1        4 0.73053450E-01 0.12499507E+03</pdfrwt>
<pdfrwt beam="1">  1       -4 0.12654889E-02 0.12499507E+03</pdfrwt>
<totfact> 0.57208225E+03</totfact>
</mgrwt>
</event>
<event>
 5    1  0.3235144E-002  0.1250044E+03  0.7818608E-02  0.1235062E+00
         -4   -1    0    0    0  501 -0.00000000000E+00  0.00000000000E+00  0.54866812262E+02  0.54881508614E+02  0.12700000000E+01 0. -1.
          4   -1    0    0  501    0  0.00000000000E+00 -0.00000000000E+00 -0.71170280052E+02  0.71181610425E+02  0.12700000000E+01 0. -1.
         25    2    1    2    0    0  0.00000000000E+00  0.00000000000E+00 -0.16303467790E+02  0.12606311904E+03  0.12500442760E+03 0.  0.
    9000005    1    3    3    0    0  0.51622908180E+02 -0.50227848956E+01 -0.43309200411E+02  0.67578397860E+02  0.10000000000E+01 0.  0.
    9000005    1    3    3    0    0 -0.51622908180E+02  0.50227848956E+01  0.27005732621E+02  0.58484721179E+02  0.10000000000E+01 0.  0.
<mgrwt>
<rscale>  0 0.12500443E+03</rscale>
<asrwt>0</asrwt>
<pdfrwt beam="2">  1        4 0.10951276E-01 0.12500443E+03</pdfrwt>
<pdfrwt beam="1">  1       -4 0.84430501E-02 0.12500443E+03</pdfrwt>
<totfact> 0.10428532E+04</totfact>
</mgrwt>
</event>
<event>
 5    1  0.3235144E-002  0.1250004E+03  0.7818608E-02  0.1235069E+00
         -4   -1    0    0    0  501 -0.00000000000E+00  0.00000000000E+00  0.86119847437E+01  0.87051238490E+01  0.12700000000E+01 0.  1.
          4   -1    0    0  501    0  0.00000000000E+00 -0.00000000000E+00 -0.45105201893E+03  0.45105380685E+03  0.12700000000E+01 0.  1.
         25    2    1    2    0    0  0.00000000000E+00  0.00000000000E+00 -0.44244003418E+03  0.45975893070E+03  0.12500036205E+03 0.  0.
    9000005    1    3    3    0    0  0.11125314368E+02 -0.46170374697E+02 -0.37061433965E+03  0.37364617605E+03  0.10000000000E+01 0.  0.
    9000005    1    3    3    0    0 -0.11125314368E+02  0.46170374697E+02 -0.71825694530E+02  0.86112754655E+02  0.10000000000E+01 0.  0.
<mgrwt>
<rscale>  0 0.12500036E+03</rscale>
<asrwt>0</asrwt>
<pdfrwt beam="2">  1        4 0.69399902E-01 0.12500036E+03</pdfrwt>
<pdfrwt beam="1">  1       -4 0.13322232E-02 0.12500036E+03</pdfrwt>
<totfact> 0.59127142E+03</totfact>
</mgrwt>
</event>
<event>
 5    1  0.3235144E-002  0.1249963E+03  0.7818608E-02  0.1235075E+00
         -4   -1    0    0    0  501 -0.00000000000E+00  0.00000000000E+00  0.23374926957E+02  0.23409402176E+02  0.12700000000E+01 0.  1.
          4   -1    0    0  501    0  0.00000000000E+00 -0.00000000000E+00 -0.16694284316E+03  0.16694767378E+03  0.12700000000E+01 0.  1.
         25    2    1    2    0    0  0.00000000000E+00  0.00000000000E+00 -0.14356791620E+03  0.19035707596E+03  0.12499627917E+03 0.  0.
    9000005    1    3    3    0    0  0.39860366761E+02  0.33343242078E+02 -0.18932528408E+02  0.55317820478E+02  0.10000000000E+01 0.  0.
    9000005    1    3    3    0    0 -0.39860366761E+02 -0.33343242078E+02 -0.12463538779E+03  0.13503925548E+03  0.10000000000E+01 0.  0.
<mgrwt>
<rscale>  0 0.12499628E+03</rscale>
<asrwt>0</asrwt>
<pdfrwt beam="2">  1        4 0.25686537E-01 0.12499628E+03</pdfrwt>
<pdfrwt beam="1">  1       -4 0.35991662E-02 0.12499628E+03</pdfrwt>
<totfact> 0.91792872E+03</totfact>
</mgrwt>
</event>
<event>
 5    1  0.3235144E-002  0.1249976E+03  0.7818608E-02  0.1235073E+00
          4   -1    0    0  501    0  0.00000000000E+00  0.00000000000E+00  0.66108568494E+03  0.66108690483E+03  0.12700000000E+01 0.  1.
         -4   -1    0    0    0  501 -0.00000000000E+00 -0.00000000000E+00 -0.58391321718E+01  0.59756476234E+01  0.12700000000E+01 0.  1.
         25    2    1    2    0    0  0.00000000000E+00  0.00000000000E+00  0.65524655277E+03  0.66706255245E+03  0.12499761584E+03 0.  0.
    9000005    1    3    3    0    0  0.42185355948E+01 -0.97216838235E+00 -0.50641106911E+01  0.67369407760E+01  0.10000000000E+01 0.  0.
    9000005    1    3    3    0    0 -0.42185355948E+01  0.97216838235E+00  0.66031066346E+03  0.66032561167E+03  0.10000000000E+01 0.  0.
<mgrwt>
<rscale>  0 0.12499762E+03</rscale>
<asrwt>0</asrwt>
<pdfrwt beam="1">  1        4 0.10171609E+00 0.12499762E+03</pdfrwt>
<pdfrwt beam="2">  1       -4 0.90892296E-03 0.12499762E+03</pdfrwt>
<totfact> 0.44885674E+03</totfact>
</mgrwt>
</event>
<event>
 5    1  0.3235144E-002  0.1250026E+03  0.7818608E-02  0.1235065E+00
          4   -1    0    0  501    0  0.00000000000E+00  0.00000000000E+00  0.14946491389E+03  0.14947030938E+03  0.12700000000E+01 0.  1.
         -4   -1    0    0    0  501 -0.00000000000E+00 -0.00000000000E+00 -0.26114680519E+02  0.26145543380E+02  0.12700000000E+01 0.  1.
         25    2    1    2    0    0  0.00000000000E+00  0.00000000000E+00  0.12335023337E+03  0.17561585276E+03  0.12500259064E+03 0.  0.
    9000005    1    3    3    0    0 -0.20384951292E+02 -0.30675147916E+02  0.13260368359E+03  0.13762720604E+03  0.10000000000E+01 0.  0.
    9000005    1    3    3    0    0  0.20384951292E+02  0.30675147916E+02 -0.92534502177E+01  0.37988646722E+02  0.10000000000E+01 0.  0.
<mgrwt>
<rscale>  0 0.12500259E+03</rscale>
<asrwt>0</asrwt>
<pdfrwt beam="1">  1        4 0.22997391E-01 0.12500259E+03</pdfrwt>
<pdfrwt beam="2">  1       -4 0.40204323E-02 0.12500259E+03</pdfrwt>
<totfact> 0.94406683E+03</totfact>
</mgrwt>
</event>
<event>
 5    1  0.3235144E-002  0.1250040E+03  0.7818608E-02  0.1235063E+00
         -4   -1    0    0    0  501 -0.00000000000E+00  0.00000000000E+00  0.11485154634E+03  0.11485856780E+03  0.12700000000E+01 0.  1.
          4   -1    0    0  501    0  0.00000000000E+00 -0.00000000000E+00 -0.33993577231E+02  0.34017292558E+02  0.12700000000E+01 0.  1.
         25    2    1    2    0    0  0.00000000000E+00  0.00000000000E+00  0.80857969108E+02  0.14887586036E+03  0.12500404245E+03 0.  0.
    9000005    1    3    3    0    0  0.25004635612E+02 -0.44797587402E+01  0.10843111554E+03  0.11137148135E+03  0.10000000000E+01 0.  0.
    9000005    1    3    3    0    0 -0.25004635612E+02  0.44797587402E+01 -0.27573146433E+02  0.37504379006E+02  0.10000000000E+01 0.  0.
<mgrwt>
<rscale>  0 0.12500404E+03</rscale>
<asrwt>0</asrwt>
<pdfrwt beam="2">  1        4 0.52321456E-02 0.12500404E+03</pdfrwt>
<pdfrwt beam="1">  1       -4 0.17671833E-01 0.12500404E+03</pdfrwt>
<totfact> 0.99519196E+03</totfact>
</mgrwt>
</event>
<event>
 5    1  0.3235144E-002  0.1250072E+03  0.7818608E-02  0.1235058E+00
          4   -1    0    0  501    0  0.00000000000E+00  0.00000000000E+00  0.83002876364E+01  0.83968848299E+01  0.12700000000E+01 0. -1.
         -4   -1    0    0    0  501 -0.00000000000E+00 -0.00000000000E+00 -0.46785003439E+03  0.46785175812E+03  0.12700000000E+01 0. -1.
         25    2    1    2    0    0  0.00000000000E+00  0.00000000000E+00 -0.45954974675E+03  0.47624864295E+03  0.12500720049E+03 0.  0.
    9000005    1    3    3    0    0  0.47862616530E+02 -0.36857112758E+02 -0.29078155429E+03  0.29699190079E+03  0.10000000000E+01 0.  0.
    9000005    1    3    3    0    0 -0.47862616530E+02  0.36857112758E+02 -0.16876819246E+03  0.17925674216E+03  0.10000000000E+01 0.  0.
<mgrwt>
<rscale>  0 0.12500720E+03</rscale>
<asrwt>0</asrwt>
<pdfrwt beam="1">  1        4 0.12845308E-02 0.12500720E+03</pdfrwt>
<pdfrwt beam="2">  1       -4 0.71984471E-01 0.12500720E+03</pdfrwt>
<totfact> 0.57746308E+03</totfact>
</mgrwt>
</event>
<event>
 5    1  0.3235144E-002  0.1249996E+03  0.7818608E-02  0.1235070E+00
          4   -1    0    0  501    0  0.00000000000E+00  0.00000000000E+00  0.98783374481E+01  0.99596410949E+01  0.12700000000E+01 0.  1.
         -4   -1    0    0    0  501 -0.00000000000E+00 -0.00000000000E+00 -0.39373029255E+03  0.39373234077E+03  0.12700000000E+01 0.  1.
         25    2    1    2    0    0  0.00000000000E+00  0.00000000000E+00 -0.38385195510E+03  0.40369198187E+03  0.12499957116E+03 0.  0.
    9000005    1    3    3    0    0  0.22867637839E+02  0.57734783593E+02 -0.21453029164E+03  0.22333938329E+03  0.10000000000E+01 0.  0.
    9000005    1    3    3    0    0 -0.22867637839E+02 -0.57734783593E+02 -0.16932166346E+03  0.18035259858E+03  0.10000000000E+01 0.  0.
<mgrwt>
<rscale>  0 0.12499957E+03</rscale>
<asrwt>0</asrwt>
<pdfrwt beam="1">  1        4 0.15261562E-02 0.12499957E+03</pdfrwt>
<pdfrwt beam="2">  1       -4 0.60580291E-01 0.12499957E+03</pdfrwt>
<totfact> 0.64195902E+03</totfact>
</mgrwt>
</event>
<event>
 5    1  0.3235144E-002  0.1250033E+03  0.7818608E-02  0.1235064E+00
         -4   -1    0    0    0  501 -0.00000000000E+00  0.00000000000E+00  0.10591104282E+02  0.10666976606E+02  0.12700000000E+01 0.  1.
          4   -1    0    0  501    0  0.00000000000E+00 -0.00000000000E+00 -0.36744948319E+03  0.36745167790E+03  0.12700000000E+01 0.  1.
         25    2    1    2    0    0  0.00000000000E+00  0.00000000000E+00 -0.35685837890E+03  0.37811865451E+03  0.12500325713E+03 0.  0.
    9000005    1    3    3    0    0 -0.28529877138E+02  0.30227055749E+02 -0.37267046549E+02  0.55834232754E+02  0.10000000000E+01 0.  0.
    9000005    1    3    3    0    0  0.28529877138E+02 -0.30227055749E+02 -0.31959133236E+03  0.32228442175E+03  0.10000000000E+01 0.  0.
<mgrwt>
<rscale>  0 0.12500326E+03</rscale>
<asrwt>0</asrwt>
<pdfrwt beam="2">  1        4 0.56536685E-01 0.12500326E+03</pdfrwt>
<pdfrwt beam="1">  1       -4 0.16354061E-02 0.12500326E+03</pdfrwt>
<totfact> 0.66733242E+03</totfact>
</mgrwt>
</event>
<event>
 5    1  0.3235144E-002  0.1249983E+03  0.7818608E-02  0.1235072E+00
         -4   -1    0    0    0  501 -0.00000000000E+00  0.00000000000E+00  0.64052384684E+03  0.64052510589E+03  0.12700000000E+01 0. -1.
          4   -1    0    0  501    0  0.00000000000E+00 -0.00000000000E+00 -0.60309612558E+01  0.61632291592E+01  0.12700000000E+01 0. -1.
         25    2    1    2    0    0  0.00000000000E+00  0.00000000000E+00  0.63449288558E+03  0.64668833505E+03  0.12499832330E+03 0.  0.
    9000005    1    3    3    0    0 -0.26996371690E+02 -0.46837839421E+02  0.15507666553E+03  0.16423263829E+03  0.10000000000E+01 0.  0.
    9000005    1    3    3    0    0  0.26996371690E+02  0.46837839421E+02  0.47941622005E+03  0.48245569676E+03  0.10000000000E+01 0.  0.
<mgrwt>
<rscale>  0 0.12499832E+03</rscale>
<asrwt>0</asrwt>
<pdfrwt beam="2">  1        4 0.93811152E-03 0.12499832E+03</pdfrwt>
<pdfrwt beam="1">  1       -4 0.98552399E-01 0.12499832E+03</pdfrwt>
<totfact> 0.46048727E+03</totfact>
</mgrwt>
</event>
<event>
 5    1  0.3235144E-002  0.1249997E+03  0.7818608E-02  0.1235070E+00
         -4   -1    0    0    0  501 -0.00000000000E+00  0.00000000000E+00  0.25835819335E+03  0.25836131477E+03  0.12700000000E+01 0.  1.
          4   -1    0    0  501    0  0.00000000000E+00 -0.00000000000E+00 -0.15089562141E+02  0.15142912058E+02  0.12700000000E+01 0.  1.
         25    2    1    2    0    0  0.00000000000E+00  0.00000000000E+00  0.24326863121E+03  0.27350422683E+03  0.12499974066E+03 0.  0.
    9000005    1    3    3    0    0 -0.55783793586E+02  0.15734853193E+02  0.70515794115E+02  0.91284689032E+02  0.10000000000E+01 0.  0.
    9000005    1    3    3    0    0  0.55783793586E+02 -0.15734853193E+02  0.17275283709E+03  0.18221953780E+03  0.10000000000E+01 0.  0.
<mgrwt>
<rscale>  0 0.12499974E+03</rscale>
<asrwt>0</asrwt>
<pdfrwt beam="2">  1        4 0.23258153E-02 0.12499974E+03</pdfrwt>
<pdfrwt beam="1">  1       -4 0.39751753E-01 0.12499974E+03</pdfrwt>
<totfact> 0.79047815E+03</totfact>
</mgrwt>
</event>
<event>
 4    1  0.3235144E-002  0.1249169E+03  0.7818608E-02  0.1235199E+00
          4   -1    0    0  501    0  0.00000000000E+00  0.00000000000E+00  0.18533906470E+01  0.22467658735E+01  0.12700000000E+01 0.  1.
         -4   -1    0    0    0  501 -0.00000000000E+00 -0.00000000000E+00 -0.19024897413E+04  0.19024901652E+04  0.12700000000E+01 0.  1.
    9000005    1    1    2    0    0 -0.14687446952E+02  0.46700253830E+02 -0.15415456185E+04  0.15423230948E+04  0.10000000000E+01 0.  0.
    9000005    1    1    2    0    0  0.14687446952E+02 -0.46700253830E+02 -0.35909073216E+03  0.36241383628E+03  0.10000000000E+01 0.  0.
<mgrwt>
<rscale>  0 0.12491693E+03</rscale>
<asrwt>0</asrwt>
<pdfrwt beam="1">  1        4 0.31543078E-03 0.12491693E+03</pdfrwt>
<pdfrwt beam="2">  1       -4 0.29271961E+00 0.12491693E+03</pdfrwt>
<totfact> 0.11176844E+03</totfact>
</mgrwt>
</event>
<event>
 5    1  0.3235144E-002  0.1249919E+03  0.7818608E-02  0.1235082E+00
          4   -1    0    0  501    0  0.00000000000E+00  0.00000000000E+00  0.16230670934E+02  0.16280281907E+02  0.12700000000E+01 0.  1.
         -4   -1    0    0    0  501 -0.00000000000E+00 -0.00000000000E+00 -0.24022102682E+03  0.24022438392E+03  0.12700000000E+01 0.  1.
         25    2    1    2    0    0  0.00000000000E+00  0.00000000000E+00 -0.22399035589E+03  0.25650466582E+03  0.12499185597E+03 0.  0.
    9000005    1    3    3    0    0 -0.46775831492E+02 -0.40586016352E+02 -0.12910810399E+03  0.14319603923E+03  0.10000000000E+01 0.  0.
    9000005    1    3    3    0    0  0.46775831492E+02  0.40586016352E+02 -0.94882251894E+02  0.11330862659E+03  0.10000000000E+01 0.  0.
<mgrwt>
<rscale>  0 0.12499186E+03</rscale>
<asrwt>0</asrwt>
<pdfrwt beam="1">  1        4 0.25011009E-02 0.12499186E+03</pdfrwt>
<pdfrwt beam="2">  1       -4 0.36961153E-01 0.12499186E+03</pdfrwt>
<totfact> 0.81413860E+03</totfact>
</mgrwt>
</event>
<event>
 5    1  0.3235144E-002  0.1250007E+03  0.7818608E-02  0.1235068E+00
          4   -1    0    0  501    0  0.00000000000E+00  0.00000000000E+00  0.15734081049E+03  0.15734593591E+03  0.12700000000E+01 0. -1.
         -4   -1    0    0    0  501 -0.00000000000E+00 -0.00000000000E+00 -0.24805195227E+02  0.24837685284E+02  0.12700000000E+01 0. -1.
         25    2    1    2    0    0  0.00000000000E+00  0.00000000000E+00  0.13253561527E+03  0.18218362119E+03  0.12500073006E+03 0.  0.
    9000005    1    3    3    0    0  0.25982077851E+02  0.52634301664E+02  0.97522011474E+02  0.11382873452E+03  0.10000000000E+01 0.  0.
    9000005    1    3    3    0    0 -0.25982077851E+02 -0.52634301664E+02  0.35013603793E+02  0.68354886670E+02  0.10000000000E+01 0.  0.
<mgrwt>
<rscale>  0 0.12500073E+03</rscale>
<asrwt>0</asrwt>
<pdfrwt beam="1">  1        4 0.24209171E-01 0.12500073E+03</pdfrwt>
<pdfrwt beam="2">  1       -4 0.38190775E-02 0.12500073E+03</pdfrwt>
<totfact> 0.93223889E+03</totfact>
</mgrwt>
</event>
<event>
 5    1  0.3235144E-002  0.1249998E+03  0.7818608E-02  0.1235070E+00
          4   -1    0    0  501    0  0.00000000000E+00  0.00000000000E+00  0.40244312536E+02  0.40264346406E+02  0.12700000000E+01 0. -1.
         -4   -1    0    0    0  501 -0.00000000000E+00 -0.00000000000E+00 -0.97014789386E+02  0.97023101680E+02  0.12700000000E+01 0. -1.
         25    2    1    2    0    0  0.00000000000E+00  0.00000000000E+00 -0.56770476850E+02  0.13728744809E+03  0.12499982544E+03 0.  0.
    9000005    1    3    3    0    0 -0.61432938809E+02 -0.63828842779E+00 -0.15822972820E+02  0.63449033497E+02  0.10000000000E+01 0.  0.
    9000005    1    3    3    0    0  0.61432938809E+02  0.63828842779E+00 -0.40947504030E+02  0.73838414589E+02  0.10000000000E+01 0.  0.
<mgrwt>
<rscale>  0 0.12499983E+03</rscale>
<asrwt>0</asrwt>
<pdfrwt beam="1">  1        4 0.61936132E-02 0.12499983E+03</pdfrwt>
<pdfrwt beam="2">  1       -4 0.14927533E-01 0.12499983E+03</pdfrwt>
<totfact> 0.10190119E+04</totfact>
</mgrwt>
</event>
<event>
 5    1  0.3235144E-002  0.1250001E+03  0.7818608E-02  0.1235069E+00
          4   -1    0    0  501    0  0.00000000000E+00  0.00000000000E+00  0.43666892629E+03  0.43667077311E+03  0.12700000000E+01 0. -1.
         -4   -1    0    0    0  501 -0.00000000000E+00 -0.00000000000E+00 -0.88986277665E+01  0.89887972570E+01  0.12700000000E+01 0. -1.
         25    2    1    2    0    0  0.00000000000E+00  0.00000000000E+00  0.42777029853E+03  0.44565957037E+03  0.12500009744E+03 0.  0.
    9000005    1    3    3    0    0 -0.62816446987E+01  0.25777226549E+02  0.41560944964E+03  0.41645664733E+03  0.10000000000E+01 0.  0.
    9000005    1    3    3    0    0  0.62816446987E+01 -0.25777226549E+02  0.12160848882E+02  0.29202923042E+02  0.10000000000E+01 0.  0.
<mgrwt>
<rscale>  0 0.12500010E+03</rscale>
<asrwt>0</asrwt>
<pdfrwt beam="1">  1        4 0.67186902E-01 0.12500010E+03</pdfrwt>
<pdfrwt beam="2">  1       -4 0.13760981E-02 0.12500010E+03</pdfrwt>
<totfact> 0.60341534E+03</totfact>
</mgrwt>
</event>
<event>
 5    1  0.3235144E-002  0.1250020E+03  0.7818608E-02  0.1235066E+00
         -4   -1    0    0    0  501 -0.00000000000E+00  0.00000000000E+00  0.78115178463E+01  0.79140830841E+01  0.12700000000E+01 0.  1.
          4   -1    0    0  501    0  0.00000000000E+00 -0.00000000000E+00 -0.49671375361E+03  0.49671537717E+03  0.12700000000E+01 0.  1.
         25    2    1    2    0    0  0.00000000000E+00  0.00000000000E+00 -0.48890223576E+03  0.50462946026E+03  0.12500198410E+03 0.  0.
    9000005    1    3    3    0    0  0.31549164397E+02 -0.44489992744E+02 -0.36760619876E+03  0.37163157373E+03  0.10000000000E+01 0.  0.
    9000005    1    3    3    0    0 -0.31549164397E+02  0.44489992744E+02 -0.12129603700E+03  0.13299788653E+03  0.10000000000E+01 0.  0.
<mgrwt>
<rscale>  0 0.12500198E+03</rscale>
<asrwt>0</asrwt>
<pdfrwt beam="2">  1        4 0.76425491E-01 0.12500198E+03</pdfrwt>
<pdfrwt beam="1">  1       -4 0.12097869E-02 0.12500198E+03</pdfrwt>
<totfact> 0.55504547E+03</totfact>
</mgrwt>
</event>
<event>
 5    1  0.3235144E-002  0.1249952E+03  0.7818608E-02  0.1235077E+00
         -4   -1    0    0    0  501 -0.00000000000E+00  0.00000000000E+00  0.73753047730E+01  0.74838506462E+01  0.12700000000E+01 0. -1.
          4   -1    0    0  501    0  0.00000000000E+00 -0.00000000000E+00 -0.52562040619E+03  0.52562194047E+03  0.12700000000E+01 0. -1.
         25    2    1    2    0    0  0.00000000000E+00  0.00000000000E+00 -0.51824510142E+03  0.53310579112E+03  0.12499519742E+03 0.  0.
    9000005    1    3    3    0    0 -0.53210530177E+02 -0.11361233237E+02 -0.12804638009E+03  0.13913056313E+03  0.10000000000E+01 0.  0.
    9000005    1    3    3    0    0  0.53210530177E+02  0.11361233237E+02 -0.39019872133E+03  0.39397522799E+03  0.10000000000E+01 0.  0.
<mgrwt>
<rscale>  0 0.12499520E+03</rscale>
<asrwt>0</asrwt>
<pdfrwt beam="2">  1        4 0.80873116E-01 0.12499520E+03</pdfrwt>
<pdfrwt beam="1">  1       -4 0.11431304E-02 0.12499520E+03</pdfrwt>
<totfact> 0.53389888E+03</totfact>
</mgrwt>
</event>
<event>
 5    1  0.3235144E-002  0.1249980E+03  0.7818608E-02  0.1235072E+00
          4   -1    0    0  501    0  0.00000000000E+00  0.00000000000E+00  0.58653182186E+02  0.58666930042E+02  0.12700000000E+01 0. -1.
         -4   -1    0    0    0  501 -0.00000000000E+00 -0.00000000000E+00 -0.66569397188E+02  0.66581510511E+02  0.12700000000E+01 0. -1.
         25    2    1    2    0    0  0.00000000000E+00  0.00000000000E+00 -0.79162150013E+01  0.12524844055E+03  0.12499802159E+03 0.  0.
    9000005    1    3    3    0    0  0.58523708031E+02  0.20500523369E+02 -0.11708620845E+02  0.63114084500E+02  0.10000000000E+01 0.  0.
    9000005    1    3    3    0    0 -0.58523708031E+02 -0.20500523369E+02  0.37924058437E+01  0.62134356054E+02  0.10000000000E+01 0.  0.
<mgrwt>
<rscale>  0 0.12499802E+03</rscale>
<asrwt>0</asrwt>
<pdfrwt beam="1">  1        4 0.90255558E-02 0.12499802E+03</pdfrwt>
<pdfrwt beam="2">  1       -4 0.10243435E-01 0.12499802E+03</pdfrwt>
<totfact> 0.10447936E+04</totfact>
</mgrwt>
</event>
<event>
 5    1  0.3235144E-002  0.1249967E+03  0.7818608E-02  0.1235074E+00
          4   -1    0    0  501    0  0.00000000000E+00  0.00000000000E+00  0.30149464385E+02  0.30176200932E+02  0.12700000000E+01 0.  1.
         -4   -1    0    0    0  501 -0.00000000000E+00 -0.00000000000E+00 -0.12946869484E+03  0.12947492361E+03  0.12700000000E+01 0.  1.
         25    2    1    2    0    0  0.00000000000E+00  0.00000000000E+00 -0.99319230456E+02  0.15965112454E+03  0.12499668807E+03 0.  0.
    9000005    1    3    3    0    0  0.17441202945E+02  0.39023884248E+02 -0.10788261342E+03  0.11604618641E+03  0.10000000000E+01 0.  0.
    9000005    1    3    3    0    0 -0.17441202945E+02 -0.39023884248E+02  0.85633829608E+01  0.43604938135E+02  0.10000000000E+01 0.  0.
<mgrwt>
<rscale>  0 0.12499669E+03</rscale>
<asrwt>0</asrwt>
<pdfrwt beam="1">  1        4 0.46409150E-02 0.12499669E+03</pdfrwt>
<pdfrwt beam="2">  1       -4 0.19920796E-01 0.12499669E+03</pdfrwt>
<totfact> 0.97417340E+03</totfact>
</mgrwt>
</event>
<event>
 5    1  0.3235144E-002  0.1249985E+03  0.7818608E-02  0.1235072E+00
         -4   -1    0    0    0  501 -0.00000000000E+00  0.00000000000E+00  0.98996184322E+01  0.99807487245E+01  0.12700000000E+01 0.  1.
          4   -1    0    0  501    0  0.00000000000E+00 -0.00000000000E+00 -0.39288408516E+03  0.39288613780E+03  0.12700000000E+01 0.  1.
         25    2    1    2    0    0  0.00000000000E+00  0.00000000000E+00 -0.38298446673E+03  0.40286688652E+03  0.12499850599E+03 0.  0.
    9000005    1    3    3    0    0 -0.32749733632E+02  0.22628098077E+02 -0.34675062846E+03  0.34902947470E+03  0.10000000000E+01 0.  0.
    9000005    1    3    3    0    0  0.32749733632E+02 -0.22628098077E+02 -0.36233838275E+02  0.53837411822E+02  0.10000000000E+01 0.  0.
<mgrwt>
<rscale>  0 0.12499851E+03</rscale>
<asrwt>0</asrwt>
<pdfrwt beam="2">  1        4 0.60450092E-01 0.12499851E+03</pdfrwt>
<pdfrwt beam="1">  1       -4 0.15294172E-02 0.12499851E+03</pdfrwt>
<totfact> 0.64277036E+03</totfact>
</mgrwt>
</event>
<event>
 5    1  0.3235144E-002  0.1249977E+03  0.7818608E-02  0.1235073E+00
         -4   -1    0    0    0  501 -0.00000000000E+00  0.00000000000E+00  0.26844122546E+03  0.26844422964E+03  0.12700000000E+01 0. -1.
          4   -1    0    0  501    0  0.00000000000E+00 -0.00000000000E+00 -0.14520263619E+02  0.14575697430E+02  0.12700000000E+01 0. -1.
         25    2    1    2    0    0  0.00000000000E+00  0.00000000000E+00  0.25392096184E+03  0.28301992707E+03  0.12499769700E+03 0.  0.
    9000005    1    3    3    0    0 -0.30061361160E+02  0.49962885931E+02  0.17784865492E+03  0.18716602112E+03  0.10000000000E+01 0.  0.
    9000005    1    3    3    0    0  0.30061361160E+02 -0.49962885931E+02  0.76072306924E+02  0.95853905951E+02  0.10000000000E+01 0.  0.
<mgrwt>
<rscale>  0 0.12499770E+03</rscale>
<asrwt>0</asrwt>
<pdfrwt beam="2">  1        4 0.22383819E-02 0.12499770E+03</pdfrwt>
<pdfrwt beam="1">  1       -4 0.41303146E-01 0.12499770E+03</pdfrwt>
<totfact> 0.77783360E+03</totfact>
</mgrwt>
</event>
<event>
 5    1  0.3235144E-002  0.1250029E+03  0.7818608E-02  0.1235065E+00
         -4   -1    0    0    0  501 -0.00000000000E+00  0.00000000000E+00  0.18828353229E+02  0.18871136302E+02  0.12700000000E+01 0.  1.
          4   -1    0    0  501    0  0.00000000000E+00 -0.00000000000E+00 -0.20719571010E+03  0.20719960228E+03  0.12700000000E+01 0.  1.
         25    2    1    2    0    0  0.00000000000E+00  0.00000000000E+00 -0.18836735687E+03  0.22607073858E+03  0.12500287080E+03 0.  0.
    9000005    1    3    3    0    0  0.58241289867E+02  0.20304687949E+02 -0.11236822947E+03  0.12818715689E+03  0.10000000000E+01 0.  0.
    9000005    1    3    3    0    0 -0.58241289867E+02 -0.20304687949E+02 -0.75999127402E+02  0.97883581688E+02  0.10000000000E+01 0.  0.
<mgrwt>
<rscale>  0 0.12500287E+03</rscale>
<asrwt>0</asrwt>
<pdfrwt beam="2">  1        4 0.31879852E-01 0.12500287E+03</pdfrwt>
<pdfrwt beam="1">  1       -4 0.29002603E-02 0.12500287E+03</pdfrwt>
<totfact> 0.85911109E+03</totfact>
</mgrwt>
</event>
<event>
 5    1  0.3235144E-002  0.1250027E+03  0.7818608E-02  0.1235065E+00
          4   -1    0    0  501    0  0.00000000000E+00  0.00000000000E+00  0.13994987611E+02  0.14052493666E+02  0.12700000000E+01 0. -1.
         -4   -1    0    0    0  501 -0.00000000000E+00 -0.00000000000E+00 -0.27849855257E+03  0.27850144827E+03  0.12700000000E+01 0. -1.
         25    2    1    2    0    0  0.00000000000E+00  0.00000000000E+00 -0.26450356496E+03  0.29255394193E+03  0.12500269221E+03 0.  0.
    9000005    1    3    3    0    0 -0.39528030663E+02 -0.31590222629E+02 -0.46419731905E+02  0.68674586886E+02  0.10000000000E+01 0.  0.
    9000005    1    3    3    0    0  0.39528030663E+02  0.31590222629E+02 -0.21808383306E+03  0.22387935505E+03  0.10000000000E+01 0.  0.
<mgrwt>
<rscale>  0 0.12500269E+03</rscale>
<asrwt>0</asrwt>
<pdfrwt beam="1">  1        4 0.21577215E-02 0.12500269E+03</pdfrwt>
<pdfrwt beam="2">  1       -4 0.42850573E-01 0.12500269E+03</pdfrwt>
<totfact> 0.76537878E+03</totfact>
</mgrwt>
</event>
<event>
 5    1  0.3235144E-002  0.1249988E+03  0.7818608E-02  0.1235071E+00
          4   -1    0    0  501    0  0.00000000000E+00  0.00000000000E+00  0.11899872324E+04  0.11899879101E+04  0.12700000000E+01 0.  1.
         -4   -1    0    0    0  501 -0.00000000000E+00 -0.00000000000E+00 -0.31589893212E+01  0.34047193029E+01  0.12700000000E+01 0.  1.
         25    2    1    2    0    0  0.00000000000E+00  0.00000000000E+00  0.11868282431E+04  0.11933926294E+04  0.12499875733E+03 0.  0.
    9000005    1    3    3    0    0 -0.32070428948E+02 -0.24282894881E+02  0.10499877540E+04  0.10507585141E+04  0.10000000000E+01 0.  0.
    9000005    1    3    3    0    0  0.32070428948E+02  0.24282894881E+02  0.13684048907E+03  0.14263411530E+03  0.10000000000E+01 0.  0.
<mgrwt>
<rscale>  0 0.12499876E+03</rscale>
<asrwt>0</asrwt>
<pdfrwt beam="1">  1        4 0.18309381E+00 0.12499876E+03</pdfrwt>
<pdfrwt beam="2">  1       -4 0.50495308E-03 0.12499876E+03</pdfrwt>
<totfact> 0.24887045E+03</totfact>
</mgrwt>
</event>
<event>
 5    1  0.3235144E-002  0.1250000E+03  0.7818608E-02  0.1235069E+00
          4   -1    0    0  501    0  0.00000000000E+00  0.00000000000E+00  0.13251955687E+02  0.13312671765E+02  0.12700000000E+01 0. -1.
         -4   -1    0    0    0  501 -0.00000000000E+00 -0.00000000000E+00 -0.29403192653E+03  0.29403466924E+03  0.12700000000E+01 0. -1.
         25    2    1    2    0    0  0.00000000000E+00  0.00000000000E+00 -0.28077997084E+03  0.30734734101E+03  0.12499998400E+03 0.  0.
    9000005    1    3    3    0    0  0.50952175949E+02 -0.29032250111E+01 -0.22906625471E+03  0.23468468633E+03  0.10000000000E+01 0.  0.
    9000005    1    3    3    0    0 -0.50952175949E+02  0.29032250111E+01 -0.51713716127E+02  0.72662654679E+02  0.10000000000E+01 0.  0.
<mgrwt>
<rscale>  0 0.12499998E+03</rscale>
<asrwt>0</asrwt>
<pdfrwt beam="1">  1        4 0.20436441E-02 0.12499998E+03</pdfrwt>
<pdfrwt beam="2">  1       -4 0.45240557E-01 0.12499998E+03</pdfrwt>
<totfact> 0.74686377E+03</totfact>
</mgrwt>
</event>
<event>
 5    1  0.3235144E-002  0.1250004E+03  0.7818608E-02  0.1235069E+00
         -4   -1    0    0    0  501 -0.00000000000E+00  0.00000000000E+00  0.44529935475E+01  0.46305562878E+01  0.12700000000E+01 0. -1.
          4   -1    0    0  501    0  0.00000000000E+00 -0.00000000000E+00 -0.85989882795E+03  0.85989976579E+03  0.12700000000E+01 0. -1.
         25    2    1    2    0    0  0.00000000000E+00  0.00000000000E+00 -0.85544583440E+03  0.86453032208E+03  0.12500040880E+03 0.  0.
    9000005    1    3    3    0    0  0.15047841719E+02  0.29346544628E+02 -0.60601366961E+02  0.69001325346E+02  0.10000000000E+01 0.  0.
    9000005    1    3    3    0    0 -0.15047841719E+02 -0.29346544628E+02 -0.79484446744E+03  0.79552899673E+03  0.10000000000E+01 0.  0.
<mgrwt>
<rscale>  0 0.12500041E+03</rscale>
<asrwt>0</asrwt>
<pdfrwt beam="2">  1        4 0.13230573E+00 0.12500041E+03</pdfrwt>
<pdfrwt beam="1">  1       -4 0.69880743E-03 0.12500041E+03</pdfrwt>
<totfact> 0.35539713E+03</totfact>
</mgrwt>
</event>
<event>
 5    1  0.3235144E-002  0.1249999E+03  0.7818608E-02  0.1235069E+00
          4   -1    0    0  501    0  0.00000000000E+00  0.00000000000E+00  0.23408624079E+03  0.23408968586E+03  0.12700000000E+01 0. -1.
         -4   -1    0    0    0  501 -0.00000000000E+00 -0.00000000000E+00 -0.16659456348E+02  0.16707794164E+02  0.12700000000E+01 0. -1.
         25    2    1    2    0    0  0.00000000000E+00  0.00000000000E+00  0.21742678444E+03  0.25079748002E+03  0.12499987758E+03 0.  0.
    9000005    1    3    3    0    0  0.51742152677E+02 -0.24696256014E+02  0.58832023852E+02  0.82154503560E+02  0.10000000000E+01 0.  0.
    9000005    1    3    3    0    0 -0.51742152677E+02  0.24696256014E+02  0.15859476059E+03  0.16864297646E+03  0.10000000000E+01 0.  0.
<mgrwt>
<rscale>  0 0.12499988E+03</rscale>
<asrwt>0</asrwt>
<pdfrwt beam="1">  1        4 0.36017247E-01 0.12499988E+03</pdfrwt>
<pdfrwt beam="2">  1       -4 0.25669769E-02 0.12499988E+03</pdfrwt>
<totfact> 0.82215330E+03</totfact>
</mgrwt>
</event>
<event>
 5    1  0.3235144E-002  0.1250054E+03  0.7818608E-02  0.1235061E+00
          4   -1    0    0  501    0  0.00000000000E+00  0.00000000000E+00  0.84076277485E+02  0.84085868823E+02  0.12700000000E+01 0. -1.
         -4   -1    0    0    0  501 -0.00000000000E+00 -0.00000000000E+00 -0.46443845084E+02  0.46461205820E+02  0.12700000000E+01 0. -1.
         25    2    1    2    0    0  0.00000000000E+00  0.00000000000E+00  0.37632432400E+02  0.13054707464E+03  0.12500535480E+03 0.  0.
    9000005    1    3    3    0    0 -0.40746611254E+02 -0.46159422965E+02  0.29996227757E+02  0.68496367326E+02  0.10000000000E+01 0.  0.
    9000005    1    3    3    0    0  0.40746611254E+02  0.46159422965E+02  0.76362046432E+01  0.62050707317E+02  0.10000000000E+01 0.  0.
<mgrwt>
<rscale>  0 0.12500535E+03</rscale>
<asrwt>0</asrwt>
<pdfrwt beam="1">  1        4 0.12936885E-01 0.12500535E+03</pdfrwt>
<pdfrwt beam="2">  1       -4 0.71472802E-02 0.12500535E+03</pdfrwt>
<totfact> 0.10331561E+04</totfact>
</mgrwt>
</event>
<event>
 5    1  0.3235144E-002  0.1250010E+03  0.7818608E-02  0.1235068E+00
          4   -1    0    0  501    0  0.00000000000E+00  0.00000000000E+00  0.45076285085E+03  0.45076463992E+03  0.12700000000E+01 0.  1.
         -4   -1    0    0    0  501 -0.00000000000E+00 -0.00000000000E+00 -0.86176543631E+01  0.87107328464E+01  0.12700000000E+01 0.  1.
         25    2    1    2    0    0  0.00000000000E+00  0.00000000000E+00  0.44214519648E+03  0.45947537277E+03  0.12500097362E+03 0.  0.
    9000005    1    3    3    0    0  0.34730563633E+02 -0.50906059721E+02  0.25921429432E+03  0.26644078018E+03  0.10000000000E+01 0.  0.
    9000005    1    3    3    0    0 -0.34730563633E+02  0.50906059721E+02  0.18293090217E+03  0.19303459258E+03  0.10000000000E+01 0.  0.
<mgrwt>
<rscale>  0 0.12500097E+03</rscale>
<asrwt>0</asrwt>
<pdfrwt beam="1">  1        4 0.69355426E-01 0.12500097E+03</pdfrwt>
<pdfrwt beam="2">  1       -4 0.13330905E-02 0.12500097E+03</pdfrwt>
<totfact> 0.59150376E+03</totfact>
</mgrwt>
</event>
<event>
 5    1  0.3235144E-002  0.1249997E+03  0.7818608E-02  0.1235070E+00
          4   -1    0    0  501    0  0.00000000000E+00  0.00000000000E+00  0.33294678613E+02  0.33318891398E+02  0.12700000000E+01 0.  1.
         -4   -1    0    0    0  501 -0.00000000000E+00 -0.00000000000E+00 -0.11725263678E+03  0.11725951446E+03  0.12700000000E+01 0.  1.
         25    2    1    2    0    0  0.00000000000E+00  0.00000000000E+00 -0.83957958165E+02  0.15057840586E+03  0.12499967029E+03 0.  0.
    9000005    1    3    3    0    0 -0.28970317821E+02  0.46439467762E+02 -0.78304647224E+02  0.95543295199E+02  0.10000000000E+01 0.  0.
    9000005    1    3    3    0    0  0.28970317821E+02 -0.46439467762E+02 -0.56533109414E+01  0.55035110659E+02  0.10000000000E+01 0.  0.
<mgrwt>
<rscale>  0 0.12499967E+03</rscale>
<asrwt>0</asrwt>
<pdfrwt beam="1">  1        4 0.51246499E-02 0.12499967E+03</pdfrwt>
<pdfrwt beam="2">  1       -4 0.18041259E-01 0.12499967E+03</pdfrwt>
<totfact> 0.99189263E+03</totfact>
</mgrwt>
</event>
<event>
 5    1  0.3235144E-002  0.1249572E+03  0.7818608E-02  0.1235136E+00
          4   -1    0    0  501    0  0.00000000000E+00  0.00000000000E+00  0.75987851095E+02  0.75998463235E+02  0.12700000000E+01 0. -1.
         -4   -1    0    0    0  501 -0.00000000000E+00 -0.00000000000E+00 -0.51349005998E+02  0.51364708867E+02  0.12700000000E+01 0. -1.
         25    2    1    2    0    0  0.00000000000E+00  0.00000000000E+00  0.24638845097E+02  0.12736317210E+03  0.12495721236E+03 0.  0.
    9000005    1    3    3    0    0  0.33024908454E+02  0.22059318611E+01  0.66321294352E+02  0.74128434479E+02  0.10000000000E+01 0.  0.
    9000005    1    3    3    0    0 -0.33024908454E+02 -0.22059318611E+01 -0.41682449255E+02  0.53234737622E+02  0.10000000000E+01 0.  0.
<mgrwt>
<rscale>  0 0.12495721E+03</rscale>
<asrwt>0</asrwt>
<pdfrwt beam="1">  1        4 0.11692463E-01 0.12495721E+03</pdfrwt>
<pdfrwt beam="2">  1       -4 0.79018713E-02 0.12495721E+03</pdfrwt>
<totfact> 0.10411318E+04</totfact>
</mgrwt>
</event>
<event>
 5    1  0.3235144E-002  0.1249995E+03  0.7818608E-02  0.1235070E+00
          4   -1    0    0  501    0  0.00000000000E+00  0.00000000000E+00  0.77188242305E+02  0.77198689432E+02  0.12700000000E+01 0.  1.
         -4   -1    0    0    0  501 -0.00000000000E+00 -0.00000000000E+00 -0.50584576709E+02  0.50600516804E+02  0.12700000000E+01 0.  1.
         25    2    1    2    0    0  0.00000000000E+00  0.00000000000E+00  0.26603665596E+02  0.12779920624E+03  0.12499952836E+03 0.  0.
    9000005    1    3    3    0    0  0.51876894609E+02 -0.18929537358E+02 -0.16605364256E+02  0.57673890981E+02  0.10000000000E+01 0.  0.
    9000005    1    3    3    0    0 -0.51876894609E+02  0.18929537358E+02  0.43209029852E+02  0.70125315255E+02  0.10000000000E+01 0.  0.
<mgrwt>
<rscale>  0 0.12499953E+03</rscale>
<asrwt>0</asrwt>
<pdfrwt beam="1">  1        4 0.11877144E-01 0.12499953E+03</pdfrwt>
<pdfrwt beam="2">  1       -4 0.77842724E-02 0.12499953E+03</pdfrwt>
<totfact> 0.10391937E+04</totfact>
</mgrwt>
</event>
<event>
 5    1  0.3235144E-002  0.1249976E+03  0.7818608E-02  0.1235073E+00
          4   -1    0    0  501    0  0.00000000000E+00  0.00000000000E+00  0.11430495797E+03  0.11431201300E+03  0.12700000000E+01 0. -1.
         -4   -1    0    0    0  501 -0.00000000000E+00 -0.00000000000E+00 -0.34152732412E+02  0.34176337299E+02  0.12700000000E+01 0. -1.
         25    2    1    2    0    0  0.00000000000E+00  0.00000000000E+00  0.80152225556E+02  0.14848835030E+03  0.12499764363E+03 0.  0.
    9000005    1    3    3    0    0 -0.52032337605E+02 -0.11074606806E+02  0.11255890324E+01  0.53219150907E+02  0.10000000000E+01 0.  0.
    9000005    1    3    3    0    0  0.52032337605E+02  0.11074606806E+02  0.79026636523E+02  0.95269199392E+02  0.10000000000E+01 0.  0.
<mgrwt>
<rscale>  0 0.12499764E+03</rscale>
<asrwt>0</asrwt>
<pdfrwt beam="1">  1        4 0.17587737E-01 0.12499764E+03</pdfrwt>
<pdfrwt beam="2">  1       -4 0.52566250E-02 0.12499764E+03</pdfrwt>
<totfact> 0.99611163E+03</totfact>
</mgrwt>
</event>
<event>
 5    1  0.3235144E-002  0.1249987E+03  0.7818608E-02  0.1235071E+00
          4   -1    0    0  501    0  0.00000000000E+00  0.00000000000E+00  0.55564747030E+02  0.55579258834E+02  0.12700000000E+01 0. -1.
         -4   -1    0    0    0  501 -0.00000000000E+00 -0.00000000000E+00 -0.70269971860E+02  0.70281447376E+02  0.12700000000E+01 0. -1.
         25    2    1    2    0    0  0.00000000000E+00  0.00000000000E+00 -0.14705224829E+02  0.12586070621E+03  0.12499869491E+03 0.  0.
    9000005    1    3    3    0    0 -0.42549278963E+02  0.45409681853E+02 -0.15958350555E+01  0.62257746793E+02  0.10000000000E+01 0.  0.
    9000005    1    3    3    0    0  0.42549278963E+02 -0.45409681853E+02 -0.13109389774E+02  0.63602959416E+02  0.10000000000E+01 0.  0.
<mgrwt>
<rscale>  0 0.12499869E+03</rscale>
<asrwt>0</asrwt>
<pdfrwt beam="1">  1        4 0.85504216E-02 0.12499869E+03</pdfrwt>
<pdfrwt beam="2">  1       -4 0.10812764E-01 0.12499869E+03</pdfrwt>
<totfact> 0.10434319E+04</totfact>
</mgrwt>
</event>
<event>
 5    1  0.3235144E-002  0.1250023E+03  0.7818608E-02  0.1235066E+00
         -4   -1    0    0    0  501 -0.00000000000E+00  0.00000000000E+00  0.53829997416E+02  0.53844976756E+02  0.12700000000E+01 0.  1.
          4   -1    0    0  501    0  0.00000000000E+00 -0.00000000000E+00 -0.72538435789E+02  0.72549552492E+02  0.12700000000E+01 0.  1.
         25    2    1    2    0    0  0.00000000000E+00  0.00000000000E+00 -0.18708438373E+02  0.12639452925E+03  0.12500228541E+03 0.  0.
    9000005    1    3    3    0    0 -0.19433164700E+02  0.13193113936E+02  0.49201803091E+02  0.54530024509E+02  0.10000000000E+01 0.  0.
    9000005    1    3    3    0    0  0.19433164700E+02 -0.13193113936E+02 -0.67910241464E+02  0.71864504738E+02  0.10000000000E+01 0.  0.
<mgrwt>
<rscale>  0 0.12500229E+03</rscale>
<asrwt>0</asrwt>
<pdfrwt beam="2">  1        4 0.11161767E-01 0.12500229E+03</pdfrwt>
<pdfrwt beam="1">  1       -4 0.82835455E-02 0.12500229E+03</pdfrwt>
<totfact> 0.10421791E+04</totfact>
</mgrwt>
</event>
<event>
 5    1  0.3235144E-002  0.1249924E+03  0.7818608E-02  0.1235081E+00
          4   -1    0    0  501    0  0.00000000000E+00  0.00000000000E+00  0.19708493865E+03  0.19708903050E+03  0.12700000000E+01 0. -1.
         -4   -1    0    0    0  501 -0.00000000000E+00 -0.00000000000E+00 -0.19793069595E+02  0.19833771804E+02  0.12700000000E+01 0. -1.
         25    2    1    2    0    0  0.00000000000E+00  0.00000000000E+00  0.17729186906E+03  0.21692280230E+03  0.12499238107E+03 0.  0.
    9000005    1    3    3    0    0 -0.28859083322E+02 -0.35791584083E+02  0.15201975751E+02  0.48435361546E+02  0.10000000000E+01 0.  0.
    9000005    1    3    3    0    0  0.28859083322E+02  0.35791584083E+02  0.16208989330E+03  0.16848744076E+03  0.10000000000E+01 0.  0.
<mgrwt>
<rscale>  0 0.12499238E+03</rscale>
<asrwt>0</asrwt>
<pdfrwt beam="1">  1        4 0.30324205E-01 0.12499238E+03</pdfrwt>
<pdfrwt beam="2">  1       -4 0.30485333E-02 0.12499238E+03</pdfrwt>
<totfact> 0.87372502E+03</totfact>
</mgrwt>
</event>
<event>
 5    1  0.3235144E-002  0.1250481E+03  0.7818608E-02  0.1234994E+00
         -4   -1    0    0    0  501 -0.00000000000E+00  0.00000000000E+00  0.38855884238E+02  0.38876633598E+02  0.12700000000E+01 0. -1.
          4   -1    0    0  501    0  0.00000000000E+00 -0.00000000000E+00 -0.10055743912E+03  0.10056545860E+03  0.12700000000E+01 0. -1.
         25    2    1    2    0    0  0.00000000000E+00  0.00000000000E+00 -0.61701554885E+02  0.13944209220E+03  0.12504805157E+03 0.  0.
    9000005    1    3    3    0    0 -0.11611175985E+02  0.20009068222E+02  0.33912637373E+02  0.41063964647E+02  0.10000000000E+01 0.  0.
    9000005    1    3    3    0    0  0.11611175985E+02 -0.20009068222E+02 -0.95614192258E+02  0.98378127549E+02  0.10000000000E+01 0.  0.
<mgrwt>
<rscale>  0 0.12504805E+03</rscale>
<asrwt>0</asrwt>
<pdfrwt beam="2">  1        4 0.15472588E-01 0.12504805E+03</pdfrwt>
<pdfrwt beam="1">  1       -4 0.59800414E-02 0.12504805E+03</pdfrwt>
<totfact> 0.10134186E+04</totfact>
</mgrwt>
</event>
<event>
 5    1  0.3235144E-002  0.1249974E+03  0.7818608E-02  0.1235073E+00
          4   -1    0    0  501    0  0.00000000000E+00  0.00000000000E+00  0.18149985317E+03  0.18150429637E+03  0.12700000000E+01 0. -1.
         -4   -1    0    0    0  501 -0.00000000000E+00 -0.00000000000E+00 -0.21497703307E+02  0.21535183943E+02  0.12700000000E+01 0. -1.
         25    2    1    2    0    0  0.00000000000E+00  0.00000000000E+00  0.16000214986E+03  0.20303948031E+03  0.12499737039E+03 0.  0.
    9000005    1    3    3    0    0  0.18803313237E+02  0.57626499307E+02  0.10467342990E+03  0.12096241126E+03  0.10000000000E+01 0.  0.
    9000005    1    3    3    0    0 -0.18803313237E+02 -0.57626499307E+02  0.55328719958E+02  0.82077069047E+02  0.10000000000E+01 0.  0.
<mgrwt>
<rscale>  0 0.12499737E+03</rscale>
<asrwt>0</asrwt>
<pdfrwt beam="1">  1        4 0.27926279E-01 0.12499737E+03</pdfrwt>
<pdfrwt beam="2">  1       -4 0.33105639E-02 0.12499737E+03</pdfrwt>
<totfact> 0.89630666E+03</totfact>
</mgrwt>
</event>
<event>
 5    1  0.3235144E-002  0.1249995E+03  0.7818608E-02  0.1235070E+00
          4   -1    0    0  501    0  0.00000000000E+00  0.00000000000E+00  0.19946013375E+02  0.19986404118E+02  0.12700000000E+01 0. -1.
         -4   -1    0    0    0  501 -0.00000000000E+00 -0.00000000000E+00 -0.19559891441E+03  0.19560303735E+03  0.12700000000E+01 0. -1.
         25    2    1    2    0    0  0.00000000000E+00  0.00000000000E+00 -0.17565290104E+03  0.21558944146E+03  0.12499946251E+03 0.  0.
    9000005    1    3    3    0    0  0.34323248152E+02 -0.48743390096E+02 -0.12014892578E+03  0.13412966789E+03  0.10000000000E+01 0.  0.
    9000005    1    3    3    0    0 -0.34323248152E+02  0.48743390096E+02 -0.55503975256E+02  0.81459773576E+02  0.10000000000E+01 0.  0.
<mgrwt>
<rscale>  0 0.12499946E+03</rscale>
<asrwt>0</asrwt>
<pdfrwt beam="1">  1        4 0.30720417E-02 0.12499946E+03</pdfrwt>
<pdfrwt beam="2">  1       -4 0.30095563E-01 0.12499946E+03</pdfrwt>
<totfact> 0.87572163E+03</totfact>
</mgrwt>
</event>
<event>
 5    1  0.3235144E-002  0.1250002E+03  0.7818608E-02  0.1235069E+00
         -4   -1    0    0    0  501 -0.00000000000E+00  0.00000000000E+00  0.69610240861E+02  0.69621825118E+02  0.12700000000E+01 0. -1.
          4   -1    0    0  501    0  0.00000000000E+00 -0.00000000000E+00 -0.56092776119E+02  0.56107151351E+02  0.12700000000E+01 0. -1.
         25    2    1    2    0    0  0.00000000000E+00  0.00000000000E+00  0.13517464742E+02  0.12572897647E+03  0.12500021468E+03 0.  0.
    9000005    1    3    3    0    0 -0.39449691374E+02 -0.23469836288E+02 -0.35893113166E+02  0.58278872138E+02  0.10000000000E+01 0.  0.
    9000005    1    3    3    0    0  0.39449691374E+02  0.23469836288E+02  0.49410577908E+02  0.67450104330E+02  0.10000000000E+01 0.  0.
<mgrwt>
<rscale>  0 0.12500021E+03</rscale>
<asrwt>0</asrwt>
<pdfrwt beam="2">  1        4 0.86316548E-02 0.12500021E+03</pdfrwt>
<pdfrwt beam="1">  1       -4 0.10711265E-01 0.12500021E+03</pdfrwt>
<totfact> 0.10436856E+04</totfact>
</mgrwt>
</event>
<event>
 5    1  0.3235144E-002  0.1250011E+03  0.7818608E-02  0.1235068E+00
         -4   -1    0    0    0  501 -0.00000000000E+00  0.00000000000E+00  0.45188478016E+01  0.46939200520E+01  0.12700000000E+01 0.  1.
          4   -1    0    0  501    0  0.00000000000E+00 -0.00000000000E+00 -0.84784723231E+03  0.84784818348E+03  0.12700000000E+01 0.  1.
         25    2    1    2    0    0  0.00000000000E+00  0.00000000000E+00 -0.84332838450E+03  0.85254210353E+03  0.12500109673E+03 0.  0.
    9000005    1    3    3    0    0  0.47958225854E+02 -0.39140110406E+02 -0.36324069635E+03  0.36847895891E+03  0.10000000000E+01 0.  0.
    9000005    1    3    3    0    0 -0.47958225854E+02  0.39140110406E+02 -0.48008768815E+03  0.48406314462E+03  0.10000000000E+01 0.  0.
<mgrwt>
<rscale>  0 0.12500110E+03</rscale>
<asrwt>0</asrwt>
<pdfrwt beam="2">  1        4 0.13045145E+00 0.12500110E+03</pdfrwt>
<pdfrwt beam="1">  1       -4 0.70874829E-03 0.12500110E+03</pdfrwt>
<totfact> 0.36022691E+03</totfact>
</mgrwt>
</event>
<event>
 5    1  0.3235144E-002  0.1249983E+03  0.7818608E-02  0.1235072E+00
          4   -1    0    0  501    0  0.00000000000E+00  0.00000000000E+00  0.13714418901E+03  0.13715006919E+03  0.12700000000E+01 0.  1.
         -4   -1    0    0    0  501 -0.00000000000E+00 -0.00000000000E+00 -0.28461354269E+02  0.28489675092E+02  0.12700000000E+01 0.  1.
         25    2    1    2    0    0  0.00000000000E+00  0.00000000000E+00  0.10868283474E+03  0.16563974428E+03  0.12499826526E+03 0.  0.
    9000005    1    3    3    0    0 -0.27284913633E+02 -0.38729278226E+02  0.10834325291E+03  0.11825262768E+03  0.10000000000E+01 0.  0.
    9000005    1    3    3    0    0  0.27284913633E+02  0.38729278226E+02  0.33958183564E+00  0.47387116600E+02  0.10000000000E+01 0.  0.
<mgrwt>
<rscale>  0 0.12499827E+03</rscale>
<asrwt>0</asrwt>
<pdfrwt beam="1">  1        4 0.21101737E-01 0.12499827E+03</pdfrwt>
<pdfrwt beam="2">  1       -4 0.43813006E-02 0.12499827E+03</pdfrwt>
<totfact> 0.96270123E+03</totfact>
</mgrwt>
</event>
<event>
 5    1  0.3235144E-002  0.1250021E+03  0.7818608E-02  0.1235066E+00
          4   -1    0    0  501    0  0.00000000000E+00  0.00000000000E+00  0.28421110939E+02  0.28449471823E+02  0.12700000000E+01 0.  1.
         -4   -1    0    0    0  501 -0.00000000000E+00 -0.00000000000E+00 -0.13734667398E+03  0.13735254549E+03  0.12700000000E+01 0.  1.
         25    2    1    2    0    0  0.00000000000E+00  0.00000000000E+00 -0.10892556304E+03  0.16580201732E+03  0.12500212263E+03 0.  0.
    9000005    1    3    3    0    0 -0.39328120604E+02 -0.41795720262E+02 -0.87270568235E+02  0.10445446559E+03  0.10000000000E+01 0.  0.
    9000005    1    3    3    0    0  0.39328120604E+02  0.41795720262E+02 -0.21654994808E+02  0.61347551724E+02  0.10000000000E+01 0.  0.
<mgrwt>
<rscale>  0 0.12500212E+03</rscale>
<asrwt>0</asrwt>
<pdfrwt beam="1">  1        4 0.43751119E-02 0.12500212E+03</pdfrwt>
<pdfrwt beam="2">  1       -4 0.21132890E-01 0.12500212E+03</pdfrwt>
<totfact> 0.96231130E+03</totfact>
</mgrwt>
</event>
<event>
 5    1  0.3235144E-002  0.1249623E+03  0.7818608E-02  0.1235128E+00
         -4   -1    0    0    0  501 -0.00000000000E+00  0.00000000000E+00  0.47407819761E+03  0.47407989870E+03  0.12700000000E+01 0. -1.
          4   -1    0    0  501    0  0.00000000000E+00 -0.00000000000E+00 -0.81840142223E+01  0.82819676884E+01  0.12700000000E+01 0. -1.
         25    2    1    2    0    0  0.00000000000E+00  0.00000000000E+00  0.46589418339E+03  0.48236186639E+03  0.12496231444E+03 0.  0.
    9000005    1    3    3    0    0  0.77386107844E+01 -0.12543235234E+02 -0.13961824764E+01  0.14838064985E+02  0.10000000000E+01 0.  0.
    9000005    1    3    3    0    0 -0.77386107844E+01  0.12543235234E+02  0.46729036587E+03  0.46752380140E+03  0.10000000000E+01 0.  0.
<mgrwt>
<rscale>  0 0.12496231E+03</rscale>
<asrwt>0</asrwt>
<pdfrwt beam="2">  1        4 0.12667449E-02 0.12496231E+03</pdfrwt>
<pdfrwt beam="1">  1       -4 0.72942770E-01 0.12496231E+03</pdfrwt>
<totfact> 0.57306819E+03</totfact>
</mgrwt>
</event>
<event>
 5    1  0.3235144E-002  0.1249648E+03  0.7818608E-02  0.1235124E+00
         -4   -1    0    0    0  501 -0.00000000000E+00  0.00000000000E+00  0.38853106506E+02  0.38873857348E+02  0.12700000000E+01 0.  1.
          4   -1    0    0  501    0  0.00000000000E+00 -0.00000000000E+00 -0.10043079435E+03  0.10043882393E+03  0.12700000000E+01 0.  1.
         25    2    1    2    0    0  0.00000000000E+00  0.00000000000E+00 -0.61577687841E+02  0.13931268128E+03  0.12496484116E+03 0.  0.
    9000005    1    3    3    0    0  0.47465382624E+02  0.32690095699E+02 -0.57670637469E+02  0.81538379494E+02  0.10000000000E+01 0.  0.
    9000005    1    3    3    0    0 -0.47465382624E+02 -0.32690095699E+02 -0.39070503725E+01  0.57774301788E+02  0.10000000000E+01 0.  0.
<mgrwt>
<rscale>  0 0.12496484E+03</rscale>
<asrwt>0</asrwt>
<pdfrwt beam="2">  1        4 0.15453105E-01 0.12496484E+03</pdfrwt>
<pdfrwt beam="1">  1       -4 0.59796149E-02 0.12496484E+03</pdfrwt>
<totfact> 0.10155894E+04</totfact>
</mgrwt>
</event>
<event>
 5    1  0.3235144E-002  0.1250001E+03  0.7818608E-02  0.1235069E+00
         -4   -1    0    0    0  501 -0.00000000000E+00  0.00000000000E+00  0.26403095869E+03  0.26403401305E+03  0.12700000000E+01 0. -1.
          4   -1    0    0  501    0  0.00000000000E+00 -0.00000000000E+00 -0.14764291860E+02  0.14818812844E+02  0.12700000000E+01 0. -1.
         25    2    1    2    0    0  0.00000000000E+00  0.00000000000E+00  0.24926666683E+03  0.27885282589E+03  0.12500010926E+03 0.  0.
    9000005    1    3    3    0    0  0.28315970848E+02  0.18194064053E+02  0.24209485713E+03  0.24442532197E+03  0.10000000000E+01 0.  0.
    9000005    1    3    3    0    0 -0.28315970848E+02 -0.18194064053E+02  0.71718096978E+01  0.34427503920E+02  0.10000000000E+01 0.  0.
<mgrwt>
<rscale>  0 0.12500011E+03</rscale>
<asrwt>0</asrwt>
<pdfrwt beam="2">  1        4 0.22758584E-02 0.12500011E+03</pdfrwt>
<pdfrwt beam="1">  1       -4 0.40624575E-01 0.12500011E+03</pdfrwt>
<totfact> 0.78330268E+03</totfact>
</mgrwt>
</event>
<event>
 5    1  0.3235144E-002  0.1250019E+03  0.7818608E-02  0.1235066E+00
         -4   -1    0    0    0  501 -0.00000000000E+00  0.00000000000E+00  0.23375108983E+03  0.23375453984E+03  0.12700000000E+01 0. -1.
          4   -1    0    0  501    0  0.00000000000E+00 -0.00000000000E+00 -0.16683939672E+02  0.16732206758E+02  0.12700000000E+01 0. -1.
         25    2    1    2    0    0  0.00000000000E+00  0.00000000000E+00  0.21706715015E+03  0.25048674660E+03  0.12500185016E+03 0.  0.
    9000005    1    3    3    0    0  0.18306476344E+02 -0.57280503414E+02  0.14261002206E+03  0.15477338770E+03  0.10000000000E+01 0.  0.
    9000005    1    3    3    0    0 -0.18306476344E+02  0.57280503414E+02  0.74457128091E+02  0.95713358896E+02  0.10000000000E+01 0.  0.
<mgrwt>
<rscale>  0 0.12500185E+03</rscale>
<asrwt>0</asrwt>
<pdfrwt beam="2">  1        4 0.25707382E-02 0.12500185E+03</pdfrwt>
<pdfrwt beam="1">  1       -4 0.35965685E-01 0.12500185E+03</pdfrwt>
<totfact> 0.82256537E+03</totfact>
</mgrwt>
</event>
<event>
 5    1  0.3235144E-002  0.1249989E+03  0.7818608E-02  0.1235071E+00
         -4   -1    0    0    0  501 -0.00000000000E+00  0.00000000000E+00  0.49552081316E+02  0.49568353440E+02  0.12700000000E+01 0.  1.
          4   -1    0    0  501    0  0.00000000000E+00 -0.00000000000E+00 -0.78795470327E+02  0.78805704388E+02  0.12700000000E+01 0.  1.
         25    2    1    2    0    0  0.00000000000E+00  0.00000000000E+00 -0.29243389011E+02  0.12837405783E+03  0.12499889168E+03 0.  0.
    9000005    1    3    3    0    0  0.57425970556E+02  0.14074886426E+02 -0.35400050756E+02  0.68920302639E+02  0.10000000000E+01 0.  0.
    9000005    1    3    3    0    0 -0.57425970556E+02 -0.14074886426E+02  0.61566617459E+01  0.59453755189E+02  0.10000000000E+01 0.  0.
<mgrwt>
<rscale>  0 0.12499889E+03</rscale>
<asrwt>0</asrwt>
<pdfrwt beam="2">  1        4 0.12124419E-01 0.12499889E+03</pdfrwt>
<pdfrwt beam="1">  1       -4 0.76254360E-02 0.12499889E+03</pdfrwt>
<totfact> 0.10379677E+04</totfact>
</mgrwt>
</event>
<event>
 5    1  0.3235144E-002  0.1249980E+03  0.7818608E-02  0.1235072E+00
         -4   -1    0    0    0  501 -0.00000000000E+00  0.00000000000E+00  0.13585186555E+03  0.13585780167E+03  0.12700000000E+01 0. -1.
          4   -1    0    0  501    0  0.00000000000E+00 -0.00000000000E+00 -0.28732248093E+02  0.28760302163E+02  0.12700000000E+01 0. -1.
         25    2    1    2    0    0  0.00000000000E+00  0.00000000000E+00  0.10711961746E+03  0.16461810383E+03  0.12499803064E+03 0.  0.
    9000005    1    3    3    0    0 -0.52332789332E+02 -0.32597328252E+01  0.98332381686E+02  0.11144327699E+03  0.10000000000E+01 0.  0.
    9000005    1    3    3    0    0  0.52332789332E+02  0.32597328252E+01  0.87872357721E+01  0.53174826844E+02  0.10000000000E+01 0.  0.
<mgrwt>
<rscale>  0 0.12499803E+03</rscale>
<asrwt>0</asrwt>
<pdfrwt beam="2">  1        4 0.44229606E-02 0.12499803E+03</pdfrwt>
<pdfrwt beam="1">  1       -4 0.20902901E-01 0.12499803E+03</pdfrwt>
<totfact> 0.96464034E+03</totfact>
</mgrwt>
</event>
<event>
 5    1  0.3235144E-002  0.1249999E+03  0.7818608E-02  0.1235070E+00
         -4   -1    0    0    0  501 -0.00000000000E+00  0.00000000000E+00  0.57886661852E+02  0.57900591710E+02  0.12700000000E+01 0. -1.
          4   -1    0    0  501    0  0.00000000000E+00 -0.00000000000E+00 -0.67452821002E+02  0.67464775706E+02  0.12700000000E+01 0. -1.
         25    2    1    2    0    0  0.00000000000E+00  0.00000000000E+00 -0.95661591493E+01  0.12536536742E+03  0.12499985579E+03 0.  0.
    9000005    1    3    3    0    0  0.25117997687E+01 -0.27118470984E+02  0.51626567707E+02  0.58378275923E+02  0.10000000000E+01 0.  0.
    9000005    1    3    3    0    0 -0.25117997687E+01  0.27118470984E+02 -0.61192726856E+02  0.66987091493E+02  0.10000000000E+01 0.  0.
<mgrwt>
<rscale>  0 0.12499986E+03</rscale>
<asrwt>0</asrwt>
<pdfrwt beam="2">  1        4 0.10379348E-01 0.12499986E+03</pdfrwt>
<pdfrwt beam="1">  1       -4 0.89076314E-02 0.12499986E+03</pdfrwt>
<totfact> 0.10444966E+04</totfact>
</mgrwt>
</event>
<event>
 5    1  0.3235144E-002  0.1249982E+03  0.7818608E-02  0.1235072E+00
          4   -1    0    0  501    0  0.00000000000E+00  0.00000000000E+00  0.29343486246E+02  0.29370956489E+02  0.12700000000E+01 0.  1.
         -4   -1    0    0    0  501 -0.00000000000E+00 -0.00000000000E+00 -0.13302489181E+03  0.13303095408E+03  0.12700000000E+01 0.  1.
         25    2    1    2    0    0  0.00000000000E+00  0.00000000000E+00 -0.10368140557E+03  0.16240191056E+03  0.12499818676E+03 0.  0.
    9000005    1    3    3    0    0 -0.48901787886E+02 -0.22066876374E+02 -0.10208310952E+02  0.54621804290E+02  0.10000000000E+01 0.  0.
    9000005    1    3    3    0    0  0.48901787886E+02  0.22066876374E+02 -0.93473094616E+02  0.10778010627E+03  0.10000000000E+01 0.  0.
<mgrwt>
<rscale>  0 0.12499819E+03</rscale>
<asrwt>0</asrwt>
<pdfrwt beam="1">  1        4 0.45169620E-02 0.12499819E+03</pdfrwt>
<pdfrwt beam="2">  1       -4 0.20467947E-01 0.12499819E+03</pdfrwt>
<totfact> 0.96885652E+03</totfact>
</mgrwt>
</event>
<event>
 5    1  0.3235144E-002  0.1249905E+03  0.7818608E-02  0.1235084E+00
          4   -1    0    0  501    0  0.00000000000E+00  0.00000000000E+00  0.31108926216E+03  0.31109185449E+03  0.12700000000E+01 0. -1.
         -4   -1    0    0    0  501 -0.00000000000E+00 -0.00000000000E+00 -0.12520002213E+02  0.12584250293E+02  0.12700000000E+01 0. -1.
         25    2    1    2    0    0  0.00000000000E+00  0.00000000000E+00  0.29856925994E+03  0.32367610478E+03  0.12499047093E+03 0.  0.
    9000005    1    3    3    0    0  0.37218707105E+02 -0.26149163969E+02  0.26023478351E+03  0.26418204610E+03  0.10000000000E+01 0.  0.
    9000005    1    3    3    0    0 -0.37218707105E+02  0.26149163969E+02  0.38334476439E+02  0.59494058684E+02  0.10000000000E+01 0.  0.
<mgrwt>
<rscale>  0 0.12499047E+03</rscale>
<asrwt>0</asrwt>
<pdfrwt beam="1">  1        4 0.47865027E-01 0.12499047E+03</pdfrwt>
<pdfrwt beam="2">  1       -4 0.19312958E-02 0.12499047E+03</pdfrwt>
<totfact> 0.72736383E+03</totfact>
</mgrwt>
</event>
<event>
 5    1  0.3235144E-002  0.1249985E+03  0.7818608E-02  0.1235072E+00
          4   -1    0    0  501    0  0.00000000000E+00  0.00000000000E+00  0.11144156806E+03  0.11144880436E+03  0.12700000000E+01 0.  1.
         -4   -1    0    0    0  501 -0.00000000000E+00 -0.00000000000E+00 -0.35031263354E+02  0.35054276660E+02  0.12700000000E+01 0.  1.
         25    2    1    2    0    0  0.00000000000E+00  0.00000000000E+00  0.76410304709E+02  0.14650308102E+03  0.12499847232E+03 0.  0.
    9000005    1    3    3    0    0 -0.52495356586E+02  0.12973075330E+02  0.14941044474E+01  0.54104486826E+02  0.10000000000E+01 0.  0.
    9000005    1    3    3    0    0  0.52495356586E+02 -0.12973075330E+02  0.74916200261E+02  0.92398594190E+02  0.10000000000E+01 0.  0.
<mgrwt>
<rscale>  0 0.12499847E+03</rscale>
<asrwt>0</asrwt>
<pdfrwt beam="1">  1        4 0.17147184E-01 0.12499847E+03</pdfrwt>
<pdfrwt beam="2">  1       -4 0.53917520E-02 0.12499847E+03</pdfrwt>
<totfact> 0.10000882E+04</totfact>
</mgrwt>
</event>
<event>
 5    1  0.3235144E-002  0.1250017E+03  0.7818608E-02  0.1235067E+00
         -4   -1    0    0    0  501 -0.00000000000E+00  0.00000000000E+00  0.48893819909E+02  0.48910311033E+02  0.12700000000E+01 0. -1.
          4   -1    0    0  501    0  0.00000000000E+00 -0.00000000000E+00 -0.79859733678E+02  0.79869831370E+02  0.12700000000E+01 0. -1.
         25    2    1    2    0    0  0.00000000000E+00  0.00000000000E+00 -0.30965913769E+02  0.12878014240E+03  0.12500174903E+03 0.  0.
    9000005    1    3    3    0    0  0.60423757840E+02 -0.14440566445E+02 -0.22455000137E+02  0.66066538443E+02  0.10000000000E+01 0.  0.
    9000005    1    3    3    0    0 -0.60423757840E+02  0.14440566445E+02 -0.85109136318E+01  0.62713603959E+02  0.10000000000E+01 0.  0.
<mgrwt>
<rscale>  0 0.12500175E+03</rscale>
<asrwt>0</asrwt>
<pdfrwt beam="2">  1        4 0.12288158E-01 0.12500175E+03</pdfrwt>
<pdfrwt beam="1">  1       -4 0.75241714E-02 0.12500175E+03</pdfrwt>
<totfact> 0.10370264E+04</totfact>
</mgrwt>
</event>
<event>
 5    1  0.3235144E-002  0.1249989E+03  0.7818608E-02  0.1235071E+00
          4   -1    0    0  501    0  0.00000000000E+00  0.00000000000E+00  0.22721498245E+02  0.22756963385E+02  0.12700000000E+01 0. -1.
         -4   -1    0    0    0  501 -0.00000000000E+00 -0.00000000000E+00 -0.17174380776E+03  0.17174850335E+03  0.12700000000E+01 0. -1.
         25    2    1    2    0    0  0.00000000000E+00  0.00000000000E+00 -0.14902230951E+03  0.19450546674E+03  0.12499891143E+03 0.  0.
    9000005    1    3    3    0    0 -0.86068634996E+01 -0.49424609944E+02 -0.16532372681E+02  0.52831709360E+02  0.10000000000E+01 0.  0.
    9000005    1    3    3    0    0  0.86068634996E+01  0.49424609944E+02 -0.13248993683E+03  0.14167375738E+03  0.10000000000E+01 0.  0.
<mgrwt>
<rscale>  0 0.12499891E+03</rscale>
<asrwt>0</asrwt>
<pdfrwt beam="1">  1        4 0.34987045E-02 0.12499891E+03</pdfrwt>
<pdfrwt beam="2">  1       -4 0.26425213E-01 0.12499891E+03</pdfrwt>
<totfact> 0.91071454E+03</totfact>
</mgrwt>
</event>
<event>
 5    1  0.3235144E-002  0.1250045E+03  0.7818608E-02  0.1235062E+00
          4   -1    0    0  501    0  0.00000000000E+00  0.00000000000E+00  0.14841102343E+02  0.14895342183E+02  0.12700000000E+01 0. -1.
         -4   -1    0    0    0  501 -0.00000000000E+00 -0.00000000000E+00 -0.26268776935E+03  0.26269083933E+03  0.12700000000E+01 0. -1.
         25    2    1    2    0    0  0.00000000000E+00  0.00000000000E+00 -0.24784666701E+03  0.27758618151E+03  0.12500447120E+03 0.  0.
    9000005    1    3    3    0    0  0.42537881863E+02  0.43145604021E+02 -0.89917178508E+02  0.10843022425E+03  0.10000000000E+01 0.  0.
    9000005    1    3    3    0    0 -0.42537881863E+02 -0.43145604021E+02 -0.15792948850E+03  0.16915595726E+03  0.10000000000E+01 0.  0.
<mgrwt>
<rscale>  0 0.12500447E+03</rscale>
<asrwt>0</asrwt>
<pdfrwt beam="1">  1        4 0.22876551E-02 0.12500447E+03</pdfrwt>
<pdfrwt beam="2">  1       -4 0.40417908E-01 0.12500447E+03</pdfrwt>
<totfact> 0.78491451E+03</totfact>
</mgrwt>
</event>
<event>
 5    1  0.3235144E-002  0.1249990E+03  0.7818608E-02  0.1235071E+00
          4   -1    0    0  501    0  0.00000000000E+00  0.00000000000E+00  0.33788501654E+01  0.36096438107E+01  0.12700000000E+01 0.  1.
         -4   -1    0    0    0  501 -0.00000000000E+00 -0.00000000000E+00 -0.11176595565E+04  0.11176602781E+04  0.12700000000E+01 0.  1.
         25    2    1    2    0    0  0.00000000000E+00  0.00000000000E+00 -0.11142807064E+04  0.11212699219E+04  0.12499898066E+03 0.  0.
    9000005    1    3    3    0    0  0.20378228316E+02  0.59053899483E+02 -0.54281306944E+03  0.54639698351E+03  0.10000000000E+01 0.  0.
    9000005    1    3    3    0    0 -0.20378228316E+02 -0.59053899483E+02 -0.57146763694E+03  0.57487293840E+03  0.10000000000E+01 0.  0.
<mgrwt>
<rscale>  0 0.12499898E+03</rscale>
<asrwt>0</asrwt>
<pdfrwt beam="1">  1        4 0.53763285E-03 0.12499898E+03</pdfrwt>
<pdfrwt beam="2">  1       -4 0.17196515E+00 0.12499898E+03</pdfrwt>
<totfact> 0.26869726E+03</totfact>
</mgrwt>
</event>
<event>
 5    1  0.3235144E-002  0.1249983E+03  0.7818608E-02  0.1235072E+00
         -4   -1    0    0    0  501 -0.00000000000E+00  0.00000000000E+00  0.32679527795E+02  0.32704196014E+02  0.12700000000E+01 0. -1.
          4   -1    0    0  501    0  0.00000000000E+00 -0.00000000000E+00 -0.11945557803E+03  0.11946232889E+03  0.12700000000E+01 0. -1.
         25    2    1    2    0    0  0.00000000000E+00  0.00000000000E+00 -0.86776050239E+02  0.15216652490E+03  0.12499827361E+03 0.  0.
    9000005    1    3    3    0    0  0.57656401685E+02 -0.20556896792E+02 -0.28071885716E+02  0.67348922996E+02  0.10000000000E+01 0.  0.
    9000005    1    3    3    0    0 -0.57656401685E+02  0.20556896792E+02 -0.58704164522E+02  0.84817601907E+02  0.10000000000E+01 0.  0.
<mgrwt>
<rscale>  0 0.12499827E+03</rscale>
<asrwt>0</asrwt>
<pdfrwt beam="2">  1        4 0.18380198E-01 0.12499827E+03</pdfrwt>
<pdfrwt beam="1">  1       -4 0.50300366E-02 0.12499827E+03</pdfrwt>
<totfact> 0.98877415E+03</totfact>
</mgrwt>
</event>
<event>
 5    1  0.3235144E-002  0.1250048E+03  0.7818608E-02  0.1235062E+00
          4   -1    0    0  501    0  0.00000000000E+00  0.00000000000E+00  0.17685086422E+02  0.17730628351E+02  0.12700000000E+01 0. -1.
         -4   -1    0    0    0  501 -0.00000000000E+00 -0.00000000000E+00 -0.22056358004E+03  0.22056723633E+03  0.12700000000E+01 0. -1.
         25    2    1    2    0    0  0.00000000000E+00  0.00000000000E+00 -0.20287849362E+03  0.23829786468E+03  0.12500475646E+03 0.  0.
    9000005    1    3    3    0    0  0.63022323172E+01 -0.42302967279E+02 -0.18830276614E+03  0.19310150416E+03  0.10000000000E+01 0.  0.
    9000005    1    3    3    0    0 -0.63022323172E+01  0.42302967279E+02 -0.14575727484E+02  0.45196360522E+02  0.10000000000E+01 0.  0.
<mgrwt>
<rscale>  0 0.12500476E+03</rscale>
<asrwt>0</asrwt>
<pdfrwt beam="1">  1        4 0.27245672E-02 0.12500476E+03</pdfrwt>
<pdfrwt beam="2">  1       -4 0.33936641E-01 0.12500476E+03</pdfrwt>
<totfact> 0.84042613E+03</totfact>
</mgrwt>
</event>
<event>
 5    1  0.3235144E-002  0.1249945E+03  0.7818608E-02  0.1235078E+00
         -4   -1    0    0    0  501 -0.00000000000E+00  0.00000000000E+00  0.10685549853E+03  0.10686304537E+03  0.12700000000E+01 0.  1.
          4   -1    0    0  501    0  0.00000000000E+00 -0.00000000000E+00 -0.36533310004E+02  0.36555377715E+02  0.12700000000E+01 0.  1.
         25    2    1    2    0    0  0.00000000000E+00  0.00000000000E+00  0.70322188529E+02  0.14341842309E+03  0.12499453541E+03 0.  0.
    9000005    1    3    3    0    0 -0.35681165460E+02  0.42389069241E+02  0.68315318785E+02  0.87965683880E+02  0.10000000000E+01 0.  0.
    9000005    1    3    3    0    0  0.35681165460E+02 -0.42389069241E+02  0.20068697432E+01  0.55452739209E+02  0.10000000000E+01 0.  0.
<mgrwt>
<rscale>  0 0.12499454E+03</rscale>
<asrwt>0</asrwt>
<pdfrwt beam="2">  1        4 0.56227874E-02 0.12499454E+03</pdfrwt>
<pdfrwt beam="1">  1       -4 0.16441585E-01 0.12499454E+03</pdfrwt>
<totfact> 0.10064461E+04</totfact>
</mgrwt>
</event>
<event>
 5    1  0.3235144E-002  0.1250010E+03  0.7818608E-02  0.1235068E+00
         -4   -1    0    0    0  501 -0.00000000000E+00  0.00000000000E+00  0.20985794450E+02  0.21024187706E+02  0.12700000000E+01 0.  1.
          4   -1    0    0  501    0  0.00000000000E+00 -0.00000000000E+00 -0.18593017102E+03  0.18593450835E+03  0.12700000000E+01 0.  1.
         25    2    1    2    0    0  0.00000000000E+00  0.00000000000E+00 -0.16494437657E+03  0.20695869605E+03  0.12500101804E+03 0.  0.
    9000005    1    3    3    0    0  0.59783421793E+02 -0.18106552492E+02 -0.85529043876E+02  0.10591563676E+03  0.10000000000E+01 0.  0.
    9000005    1    3    3    0    0 -0.59783421793E+02  0.18106552492E+02 -0.79415332690E+02  0.10104305929E+03  0.10000000000E+01 0.  0.
<mgrwt>
<rscale>  0 0.12500102E+03</rscale>
<asrwt>0</asrwt>
<pdfrwt beam="2">  1        4 0.28607928E-01 0.12500102E+03</pdfrwt>
<pdfrwt beam="1">  1       -4 0.32318708E-02 0.12500102E+03</pdfrwt>
<totfact> 0.88972962E+03</totfact>
</mgrwt>
</event>
<event>
 5    1  0.3235144E-002  0.1249988E+03  0.7818608E-02  0.1235071E+00
          4   -1    0    0  501    0  0.00000000000E+00  0.00000000000E+00  0.78128244828E+01  0.79153727897E+01  0.12700000000E+01 0.  1.
         -4   -1    0    0    0  501 -0.00000000000E+00 -0.00000000000E+00 -0.49660634457E+03  0.49660796849E+03  0.12700000000E+01 0.  1.
         25    2    1    2    0    0  0.00000000000E+00  0.00000000000E+00 -0.48879352009E+03  0.50452334128E+03  0.12499878646E+03 0.  0.
    9000005    1    3    3    0    0 -0.27315703137E+02  0.55574753218E+02 -0.27828022655E+03  0.28508873236E+03  0.10000000000E+01 0.  0.
    9000005    1    3    3    0    0  0.27315703137E+02 -0.55574753218E+02 -0.21051329354E+03  0.21943460891E+03  0.10000000000E+01 0.  0.
<mgrwt>
<rscale>  0 0.12499879E+03</rscale>
<asrwt>0</asrwt>
<pdfrwt beam="1">  1        4 0.12099866E-02 0.12499879E+03</pdfrwt>
<pdfrwt beam="2">  1       -4 0.76408965E-01 0.12499879E+03</pdfrwt>
<totfact> 0.55516603E+03</totfact>
</mgrwt>
</event>
<event>
 5    1  0.3235144E-002  0.1250025E+03  0.7818608E-02  0.1235065E+00
         -4   -1    0    0    0  501 -0.00000000000E+00  0.00000000000E+00  0.15149886704E+02  0.15203024934E+02  0.12700000000E+01 0.  1.
          4   -1    0    0  501    0  0.00000000000E+00 -0.00000000000E+00 -0.25734449369E+03  0.25734762741E+03  0.12700000000E+01 0.  1.
         25    2    1    2    0    0  0.00000000000E+00  0.00000000000E+00 -0.24219460698E+03  0.27255065234E+03  0.12500252173E+03 0.  0.
    9000005    1    3    3    0    0 -0.34429843110E+02 -0.40143118452E+02 -0.48503272204E+02  0.71766645944E+02  0.10000000000E+01 0.  0.
    9000005    1    3    3    0    0  0.34429843110E+02  0.40143118452E+02 -0.19369133478E+03  0.20078400640E+03  0.10000000000E+01 0.  0.
<mgrwt>
<rscale>  0 0.12500252E+03</rscale>
<asrwt>0</asrwt>
<pdfrwt beam="2">  1        4 0.39595786E-01 0.12500252E+03</pdfrwt>
<pdfrwt beam="1">  1       -4 0.23350806E-02 0.12500252E+03</pdfrwt>
<totfact> 0.79171878E+03</totfact>
</mgrwt>
</event>
<event>
 5    1  0.3235144E-002  0.1250139E+03  0.7818608E-02  0.1235048E+00
         -4   -1    0    0    0  501 -0.00000000000E+00  0.00000000000E+00  0.13404454677E+04  0.13404460694E+04  0.12700000000E+01 0. -1.
          4   -1    0    0  501    0  0.00000000000E+00 -0.00000000000E+00 -0.27758210465E+01  0.30525534364E+01  0.12700000000E+01 0. -1.
         25    2    1    2    0    0  0.00000000000E+00  0.00000000000E+00  0.13376696467E+04  0.13434986228E+04  0.12501386240E+03 0.  0.
    9000005    1    3    3    0    0  0.11622791475E+02 -0.35963502111E+02  0.12037677779E+04  0.12043613767E+04  0.10000000000E+01 0.  0.
    9000005    1    3    3    0    0 -0.11622791475E+02  0.35963502111E+02  0.13390186884E+03  0.13913724607E+03  0.10000000000E+01 0.  0.
<mgrwt>
<rscale>  0 0.12501386E+03</rscale>
<asrwt>0</asrwt>
<pdfrwt beam="2">  1        4 0.44838234E-03 0.12501386E+03</pdfrwt>
<pdfrwt beam="1">  1       -4 0.20624391E+00 0.12501386E+03</pdfrwt>
<totfact> 0.21218092E+03</totfact>
</mgrwt>
</event>
<event>
 5    1  0.3235144E-002  0.1250007E+03  0.7818608E-02  0.1235068E+00
         -4   -1    0    0    0  501 -0.00000000000E+00  0.00000000000E+00  0.22249115671E+02  0.22285332578E+02  0.12700000000E+01 0. -1.
          4   -1    0    0  501    0  0.00000000000E+00 -0.00000000000E+00 -0.17538947143E+03  0.17539406943E+03  0.12700000000E+01 0. -1.
         25    2    1    2    0    0  0.00000000000E+00  0.00000000000E+00 -0.15314035576E+03  0.19767940200E+03  0.12500070965E+03 0.  0.
    9000005    1    3    3    0    0 -0.48698943627E+02 -0.30714848253E+02 -0.11499282622E+03  0.12860536184E+03  0.10000000000E+01 0.  0.
    9000005    1    3    3    0    0  0.48698943627E+02  0.30714848253E+02 -0.38147529545E+02  0.69074040160E+02  0.10000000000E+01 0.  0.
<mgrwt>
<rscale>  0 0.12500071E+03</rscale>
<asrwt>0</asrwt>
<pdfrwt beam="2">  1        4 0.26986134E-01 0.12500071E+03</pdfrwt>
<pdfrwt beam="1">  1       -4 0.34260806E-02 0.12500071E+03</pdfrwt>
<totfact> 0.90526588E+03</totfact>
</mgrwt>
</event>
<event>
 5    1  0.3235144E-002  0.1250070E+03  0.7818608E-02  0.1235058E+00
         -4   -1    0    0    0  501 -0.00000000000E+00  0.00000000000E+00  0.37427795797E+02  0.37449336419E+02  0.12700000000E+01 0.  1.
          4   -1    0    0  501    0  0.00000000000E+00 -0.00000000000E+00 -0.10432392838E+03  0.10433165834E+03  0.12700000000E+01 0.  1.
         25    2    1    2    0    0  0.00000000000E+00  0.00000000000E+00 -0.66896132578E+02  0.14178099476E+03  0.12500703148E+03 0.  0.
    9000005    1    3    3    0    0 -0.38470594501E+02 -0.15551055744E+02 -0.86450610862E+02  0.95898540627E+02  0.10000000000E+01 0.  0.
    9000005    1    3    3    0    0  0.38470594501E+02  0.15551055744E+02  0.19554478284E+02  0.45882454130E+02  0.10000000000E+01 0.  0.
<mgrwt>
<rscale>  0 0.12500703E+03</rscale>
<asrwt>0</asrwt>
<pdfrwt beam="2">  1        4 0.16052087E-01 0.12500703E+03</pdfrwt>
<pdfrwt beam="1">  1       -4 0.57603741E-02 0.12500703E+03</pdfrwt>
<totfact> 0.10095207E+04</totfact>
</mgrwt>
</event>
<event>
 5    1  0.3235144E-002  0.1250000E+03  0.7818608E-02  0.1235069E+00
          4   -1    0    0  501    0  0.00000000000E+00  0.00000000000E+00  0.75093326762E+02  0.75104065298E+02  0.12700000000E+01 0.  1.
         -4   -1    0    0    0  501 -0.00000000000E+00 -0.00000000000E+00 -0.51996370993E+02  0.52011878417E+02  0.12700000000E+01 0.  1.
         25    2    1    2    0    0  0.00000000000E+00  0.00000000000E+00  0.23096955770E+02  0.12711594371E+03  0.12499997512E+03 0.  0.
    9000005    1    3    3    0    0  0.40847131355E+02  0.43698804167E+02  0.29942641079E+02  0.66900189688E+02  0.10000000000E+01 0.  0.
    9000005    1    3    3    0    0 -0.40847131355E+02 -0.43698804167E+02 -0.68456853094E+01  0.60215754026E+02  0.10000000000E+01 0.  0.
<mgrwt>
<rscale>  0 0.12499998E+03</rscale>
<asrwt>0</asrwt>
<pdfrwt beam="1">  1        4 0.11554838E-01 0.12499998E+03</pdfrwt>
<pdfrwt beam="2">  1       -4 0.80014606E-02 0.12499998E+03</pdfrwt>
<totfact> 0.10406634E+04</totfact>
</mgrwt>
</event>
<event>
 5    1  0.3235144E-002  0.1250243E+03  0.7818608E-02  0.1235031E+00
          4   -1    0    0  501    0  0.00000000000E+00  0.00000000000E+00  0.22079555370E+03  0.22079920614E+03  0.12700000000E+01 0.  1.
         -4   -1    0    0    0  501 -0.00000000000E+00 -0.00000000000E+00 -0.17672007058E+02  0.17717582607E+02  0.12700000000E+01 0.  1.
         25    2    1    2    0    0  0.00000000000E+00  0.00000000000E+00  0.20312354664E+03  0.23851678875E+03  0.12502433089E+03 0.  0.
    9000005    1    3    3    0    0  0.26926532199E+02 -0.48848829758E+01 -0.56448408931E+01  0.27960050905E+02  0.10000000000E+01 0.  0.
    9000005    1    3    3    0    0 -0.26926532199E+02  0.48848829758E+01  0.20876838753E+03  0.21055673784E+03  0.10000000000E+01 0.  0.
<mgrwt>
<rscale>  0 0.12502433E+03</rscale>
<asrwt>0</asrwt>
<pdfrwt beam="1">  1        4 0.33972333E-01 0.12502433E+03</pdfrwt>
<pdfrwt beam="2">  1       -4 0.27225571E-02 0.12502433E+03</pdfrwt>
<totfact> 0.83973199E+03</totfact>
</mgrwt>
</event>
<event>
 5    1  0.3235144E-002  0.1249985E+03  0.7818608E-02  0.1235072E+00
          4   -1    0    0  501    0  0.00000000000E+00  0.00000000000E+00  0.41420363510E+02  0.41439828828E+02  0.12700000000E+01 0.  1.
         -4   -1    0    0    0  501 -0.00000000000E+00 -0.00000000000E+00 -0.94259312716E+02  0.94267867981E+02  0.12700000000E+01 0.  1.
         25    2    1    2    0    0  0.00000000000E+00  0.00000000000E+00 -0.52838949206E+02  0.13570769681E+03  0.12499849767E+03 0.  0.
    9000005    1    3    3    0    0 -0.58079653519E+02  0.79895923855E+01 -0.49908123867E+02  0.76999354330E+02  0.10000000000E+01 0.  0.
    9000005    1    3    3    0    0  0.58079653519E+02 -0.79895923855E+01 -0.29308253392E+01  0.58708342478E+02  0.10000000000E+01 0.  0.
<mgrwt>
<rscale>  0 0.12499850E+03</rscale>
<asrwt>0</asrwt>
<pdfrwt beam="1">  1        4 0.63745191E-02 0.12499850E+03</pdfrwt>
<pdfrwt beam="2">  1       -4 0.14503588E-01 0.12499850E+03</pdfrwt>
<totfact> 0.10223522E+04</totfact>
</mgrwt>
</event>
<event>
 5    1  0.3235144E-002  0.1250006E+03  0.7818608E-02  0.1235068E+00
          4   -1    0    0  501    0  0.00000000000E+00  0.00000000000E+00  0.97291638447E+02  0.97299927090E+02  0.12700000000E+01 0.  1.
         -4   -1    0    0    0  501 -0.00000000000E+00 -0.00000000000E+00 -0.40130257572E+02  0.40150348352E+02  0.12700000000E+01 0.  1.
         25    2    1    2    0    0  0.00000000000E+00  0.00000000000E+00  0.57161380875E+02  0.13745027544E+03  0.12500061902E+03 0.  0.
    9000005    1    3    3    0    0  0.33867888040E+02  0.52036840346E+02  0.36388763982E+02  0.71972277563E+02  0.10000000000E+01 0.  0.
    9000005    1    3    3    0    0 -0.33867888040E+02 -0.52036840346E+02  0.20772616894E+02  0.65477997878E+02  0.10000000000E+01 0.  0.
<mgrwt>
<rscale>  0 0.12500062E+03</rscale>
<asrwt>0</asrwt>
<pdfrwt beam="1">  1        4 0.14970127E-01 0.12500062E+03</pdfrwt>
<pdfrwt beam="2">  1       -4 0.61760689E-02 0.12500062E+03</pdfrwt>
<totfact> 0.10186537E+04</totfact>
</mgrwt>
</event>
<event>
 5    1  0.3235144E-002  0.1250002E+03  0.7818608E-02  0.1235069E+00
         -4   -1    0    0    0  501 -0.00000000000E+00  0.00000000000E+00  0.31164929218E+03  0.31165187986E+03  0.12700000000E+01 0.  1.
          4   -1    0    0  501    0  0.00000000000E+00 -0.00000000000E+00 -0.12499348599E+02  0.12563702297E+02  0.12700000000E+01 0.  1.
         25    2    1    2    0    0  0.00000000000E+00  0.00000000000E+00  0.29914994358E+03  0.32421558215E+03  0.12500021986E+03 0.  0.
    9000005    1    3    3    0    0 -0.13435147619E+02  0.59154392065E+02  0.11062437243E+03  0.12616852646E+03  0.10000000000E+01 0.  0.
    9000005    1    3    3    0    0  0.13435147619E+02 -0.59154392065E+02  0.18852557115E+03  0.19804705570E+03  0.10000000000E+01 0.  0.
<mgrwt>
<rscale>  0 0.12500022E+03</rscale>
<asrwt>0</asrwt>
<pdfrwt beam="2">  1        4 0.19281262E-02 0.12500022E+03</pdfrwt>
<pdfrwt beam="1">  1       -4 0.47951191E-01 0.12500022E+03</pdfrwt>
<totfact> 0.72657174E+03</totfact>
</mgrwt>
</event>
<event>
 5    1  0.3235144E-002  0.1249989E+03  0.7818608E-02  0.1235071E+00
          4   -1    0    0  501    0  0.00000000000E+00  0.00000000000E+00  0.12249402558E+03  0.12250060899E+03  0.12700000000E+01 0. -1.
         -4   -1    0    0    0  501 -0.00000000000E+00 -0.00000000000E+00 -0.31868640731E+02  0.31893936133E+02  0.12700000000E+01 0. -1.
         25    2    1    2    0    0  0.00000000000E+00  0.00000000000E+00  0.90625384850E+02  0.15439454512E+03  0.12499886073E+03 0.  0.
    9000005    1    3    3    0    0 -0.13005527754E+02  0.46957037584E+02  0.93643456068E+02  0.10556611196E+03  0.10000000000E+01 0.  0.
    9000005    1    3    3    0    0  0.13005527754E+02 -0.46957037584E+02 -0.30180712183E+01  0.48828433159E+02  0.10000000000E+01 0.  0.
<mgrwt>
<rscale>  0 0.12499886E+03</rscale>
<asrwt>0</asrwt>
<pdfrwt beam="1">  1        4 0.18847687E-01 0.12499886E+03</pdfrwt>
<pdfrwt beam="2">  1       -4 0.49053201E-02 0.12499886E+03</pdfrwt>
<totfact> 0.98437011E+03</totfact>
</mgrwt>
</event>
<event>
 5    1  0.3235144E-002  0.1250003E+03  0.7818608E-02  0.1235069E+00
          4   -1    0    0  501    0  0.00000000000E+00  0.00000000000E+00  0.78223304385E+03  0.78223407481E+03  0.12700000000E+01 0. -1.
         -4   -1    0    0    0  501 -0.00000000000E+00 -0.00000000000E+00 -0.49119414524E+01  0.50734671411E+01  0.12700000000E+01 0. -1.
         25    2    1    2    0    0  0.00000000000E+00  0.00000000000E+00  0.77732110240E+03  0.78730754195E+03  0.12500027751E+03 0.  0.
    9000005    1    3    3    0    0  0.18741587976E+02  0.38237049021E+02  0.10058333681E+03  0.10923061238E+03  0.10000000000E+01 0.  0.
    9000005    1    3    3    0    0 -0.18741587976E+02 -0.38237049021E+02  0.67673776559E+03  0.67807692957E+03  0.10000000000E+01 0.  0.
<mgrwt>
<rscale>  0 0.12500028E+03</rscale>
<asrwt>0</asrwt>
<pdfrwt beam="1">  1        4 0.12035598E+00 0.12500028E+03</pdfrwt>
<pdfrwt beam="2">  1       -4 0.76818809E-03 0.12500028E+03</pdfrwt>
<totfact> 0.38837455E+03</totfact>
</mgrwt>
</event>
<event>
 5    1  0.3235144E-002  0.1250021E+03  0.7818608E-02  0.1235066E+00
          4   -1    0    0  501    0  0.00000000000E+00  0.00000000000E+00  0.61325996575E+03  0.61326128077E+03  0.12700000000E+01 0.  1.
         -4   -1    0    0    0  501 -0.00000000000E+00 -0.00000000000E+00 -0.63052285106E+01  0.64318587182E+01  0.12700000000E+01 0.  1.
         25    2    1    2    0    0  0.00000000000E+00  0.00000000000E+00  0.60695473724E+03  0.61969313948E+03  0.12500213627E+03 0.  0.
    9000005    1    3    3    0    0  0.43233716702E+02  0.41696671754E+02  0.21795337135E+03  0.22608060240E+03  0.10000000000E+01 0.  0.
    9000005    1    3    3    0    0 -0.43233716702E+02 -0.41696671754E+02  0.38900136588E+03  0.39361253709E+03  0.10000000000E+01 0.  0.
<mgrwt>
<rscale>  0 0.12500214E+03</rscale>
<asrwt>0</asrwt>
<pdfrwt beam="1">  1        4 0.94357487E-01 0.12500214E+03</pdfrwt>
<pdfrwt beam="2">  1       -4 0.97987753E-03 0.12500214E+03</pdfrwt>
<totfact> 0.47645444E+03</totfact>
</mgrwt>
</event>
<event>
 5    1  0.3235144E-002  0.1250014E+03  0.7818608E-02  0.1235067E+00
          4   -1    0    0  501    0  0.00000000000E+00  0.00000000000E+00  0.13404863555E+03  0.13405465152E+03  0.12700000000E+01 0.  1.
         -4   -1    0    0    0  501 -0.00000000000E+00 -0.00000000000E+00 -0.29120699899E+02  0.29148380102E+02  0.12700000000E+01 0.  1.
         25    2    1    2    0    0  0.00000000000E+00  0.00000000000E+00  0.10492793565E+03  0.16320303162E+03  0.12500143139E+03 0.  0.
    9000005    1    3    3    0    0 -0.36526579089E+02 -0.59634253497E+01  0.11820740588E+03  0.12386986811E+03  0.10000000000E+01 0.  0.
    9000005    1    3    3    0    0  0.36526579089E+02  0.59634253497E+01 -0.13279470226E+02  0.39333163506E+02  0.10000000000E+01 0.  0.
<mgrwt>
<rscale>  0 0.12500143E+03</rscale>
<asrwt>0</asrwt>
<pdfrwt beam="1">  1        4 0.20625459E-01 0.12500143E+03</pdfrwt>
<pdfrwt beam="2">  1       -4 0.44826996E-02 0.12500143E+03</pdfrwt>
<totfact> 0.96725684E+03</totfact>
</mgrwt>
</event>
<event>
 5    1  0.3235144E-002  0.1250114E+03  0.7818608E-02  0.1235051E+00
         -4   -1    0    0    0  501 -0.00000000000E+00  0.00000000000E+00  0.11005757093E+04  0.11005764421E+04  0.12700000000E+01 0. -1.
          4   -1    0    0  501    0  0.00000000000E+00 -0.00000000000E+00 -0.34355846696E+01  0.36628052121E+01  0.12700000000E+01 0. -1.
         25    2    1    2    0    0  0.00000000000E+00  0.00000000000E+00  0.10971401247E+04  0.11042392473E+04  0.12501144798E+03 0.  0.
    9000005    1    3    3    0    0 -0.15542742091E+02 -0.54800100433E+02  0.32141363413E+03  0.32642357765E+03  0.10000000000E+01 0.  0.
    9000005    1    3    3    0    0  0.15542742091E+02  0.54800100433E+02  0.77572649054E+03  0.77781566966E+03  0.10000000000E+01 0.  0.
<mgrwt>
<rscale>  0 0.12501145E+03</rscale>
<asrwt>0</asrwt>
<pdfrwt beam="2">  1        4 0.54608592E-03 0.12501145E+03</pdfrwt>
<pdfrwt beam="1">  1       -4 0.16933701E+00 0.12501145E+03</pdfrwt>
<totfact> 0.27352795E+03</totfact>
</mgrwt>
</event>
<event>
 5    1  0.3235144E-002  0.1250022E+03  0.7818608E-02  0.1235066E+00
          4   -1    0    0  501    0  0.00000000000E+00  0.00000000000E+00  0.36428212981E+03  0.36428434361E+03  0.12700000000E+01 0.  1.
         -4   -1    0    0    0  501 -0.00000000000E+00 -0.00000000000E+00 -0.10683667434E+02  0.10758887017E+02  0.12700000000E+01 0.  1.
         25    2    1    2    0    0  0.00000000000E+00  0.00000000000E+00  0.35359846238E+03  0.37504323063E+03  0.12500220896E+03 0.  0.
    9000005    1    3    3    0    0 -0.40310912515E+02 -0.15855884911E+02  0.31194599883E+03  0.31494076417E+03  0.10000000000E+01 0.  0.
    9000005    1    3    3    0    0  0.40310912515E+02  0.15855884911E+02  0.41652463551E+02  0.60102466455E+02  0.10000000000E+01 0.  0.
<mgrwt>
<rscale>  0 0.12500221E+03</rscale>
<asrwt>0</asrwt>
<pdfrwt beam="1">  1        4 0.56049357E-01 0.12500221E+03</pdfrwt>
<pdfrwt beam="2">  1       -4 0.16495977E-02 0.12500221E+03</pdfrwt>
<totfact> 0.67051327E+03</totfact>
</mgrwt>
</event>
<event>
 5    1  0.3235144E-002  0.1250016E+03  0.7818608E-02  0.1235067E+00
          4   -1    0    0  501    0  0.00000000000E+00  0.00000000000E+00  0.58408242283E+02  0.58422047779E+02  0.12700000000E+01 0.  1.
         -4   -1    0    0    0  501 -0.00000000000E+00 -0.00000000000E+00 -0.66852413693E+02  0.66864475745E+02  0.12700000000E+01 0.  1.
         25    2    1    2    0    0  0.00000000000E+00  0.00000000000E+00 -0.84441714101E+01  0.12528652352E+03  0.12500163577E+03 0.  0.
    9000005    1    3    3    0    0  0.36413283388E+02  0.50480129652E+02  0.13746840445E+01  0.62266045747E+02  0.10000000000E+01 0.  0.
    9000005    1    3    3    0    0 -0.36413283388E+02 -0.50480129652E+02 -0.98188554545E+01  0.63020477777E+02  0.10000000000E+01 0.  0.
<mgrwt>
<rscale>  0 0.12500164E+03</rscale>
<asrwt>0</asrwt>
<pdfrwt beam="1">  1        4 0.89878732E-02 0.12500164E+03</pdfrwt>
<pdfrwt beam="2">  1       -4 0.10286977E-01 0.12500164E+03</pdfrwt>
<totfact> 0.10446256E+04</totfact>
</mgrwt>
</event>
<event>
 5    1  0.3235144E-002  0.1250051E+03  0.7818608E-02  0.1235061E+00
          4   -1    0    0  501    0  0.00000000000E+00  0.00000000000E+00  0.85431760924E+01  0.86370572387E+01  0.12700000000E+01 0. -1.
         -4   -1    0    0    0  501 -0.00000000000E+00 -0.00000000000E+00 -0.45467976095E+03  0.45468153462E+03  0.12700000000E+01 0. -1.
         25    2    1    2    0    0  0.00000000000E+00  0.00000000000E+00 -0.44613658486E+03  0.46331859185E+03  0.12500506072E+03 0.  0.
    9000005    1    3    3    0    0 -0.53583344529E+02 -0.11271593069E+02 -0.11142367178E+03  0.12415497676E+03  0.10000000000E+01 0.  0.
    9000005    1    3    3    0    0  0.53583344529E+02  0.11271593069E+02 -0.33471291308E+03  0.33916361509E+03  0.10000000000E+01 0.  0.
<mgrwt>
<rscale>  0 0.12500506E+03</rscale>
<asrwt>0</asrwt>
<pdfrwt beam="1">  1        4 0.13216932E-02 0.12500506E+03</pdfrwt>
<pdfrwt beam="2">  1       -4 0.69958072E-01 0.12500506E+03</pdfrwt>
<totfact> 0.58820579E+03</totfact>
</mgrwt>
</event>
<event>
 5    1  0.3235144E-002  0.1249995E+03  0.7818608E-02  0.1235070E+00
          4   -1    0    0  501    0  0.00000000000E+00  0.00000000000E+00  0.39747714945E+03  0.39747917836E+03  0.12700000000E+01 0. -1.
         -4   -1    0    0    0  501 -0.00000000000E+00 -0.00000000000E+00 -0.97844390915E+01  0.98665165248E+01  0.12700000000E+01 0. -1.
         25    2    1    2    0    0  0.00000000000E+00  0.00000000000E+00  0.38769271036E+03  0.40734569489E+03  0.12499950992E+03 0.  0.
    9000005    1    3    3    0    0  0.19766686064E+01  0.59891090774E+02  0.25162601116E+03  0.25866484002E+03  0.10000000000E+01 0.  0.
    9000005    1    3    3    0    0 -0.19766686064E+01 -0.59891090774E+02  0.13606669920E+03  0.14868085486E+03  0.10000000000E+01 0.  0.
<mgrwt>
<rscale>  0 0.12499951E+03</rscale>
<asrwt>0</asrwt>
<pdfrwt beam="1">  1        4 0.61156824E-01 0.12499951E+03</pdfrwt>
<pdfrwt beam="2">  1       -4 0.15117674E-02 0.12499951E+03</pdfrwt>
<totfact> 0.63845246E+03</totfact>
</mgrwt>
</event>
<event>
 5    1  0.3235144E-002  0.1250006E+03  0.7818608E-02  0.1235068E+00
          4   -1    0    0  501    0  0.00000000000E+00  0.00000000000E+00  0.96233452137E+03  0.96233535939E+03  0.12700000000E+01 0.  1.
         -4   -1    0    0    0  501 -0.00000000000E+00 -0.00000000000E+00 -0.39589834039E+01  0.41576976312E+01  0.12700000000E+01 0.  1.
         25    2    1    2    0    0  0.00000000000E+00  0.00000000000E+00  0.95837553797E+03  0.96649305702E+03  0.12500062994E+03 0.  0.
    9000005    1    3    3    0    0  0.25082499651E+02  0.57034575501E+02  0.51644141865E+03  0.52018728693E+03  0.10000000000E+01 0.  0.
    9000005    1    3    3    0    0 -0.25082499651E+02 -0.57034575501E+02  0.44193411932E+03  0.44630577008E+03  0.10000000000E+01 0.  0.
<mgrwt>
<rscale>  0 0.12500063E+03</rscale>
<asrwt>0</asrwt>
<pdfrwt beam="1">  1        4 0.14806676E+00 0.12500063E+03</pdfrwt>
<pdfrwt beam="2">  1       -4 0.62442479E-03 0.12500063E+03</pdfrwt>
<totfact> 0.31737122E+03</totfact>
</mgrwt>
</event>
<event>
 5    1  0.3235144E-002  0.1249993E+03  0.7818608E-02  0.1235070E+00
         -4   -1    0    0    0  501 -0.00000000000E+00  0.00000000000E+00  0.83771243724E+03  0.83771339992E+03  0.12700000000E+01 0. -1.
          4   -1    0    0  501    0  0.00000000000E+00 -0.00000000000E+00 -0.45754831648E+01  0.47484677730E+01  0.12700000000E+01 0. -1.
         25    2    1    2    0    0  0.00000000000E+00  0.00000000000E+00  0.83313695408E+03  0.84246186769E+03  0.12499925709E+03 0.  0.
    9000005    1    3    3    0    0  0.14018761493E+02 -0.37558903611E+02  0.93482237434E+02  0.10172082201E+03  0.10000000000E+01 0.  0.
    9000005    1    3    3    0    0 -0.14018761493E+02  0.37558903611E+02  0.73965471664E+03  0.74074104569E+03  0.10000000000E+01 0.  0.
<mgrwt>
<rscale>  0 0.12499926E+03</rscale>
<asrwt>0</asrwt>
<pdfrwt beam="2">  1        4 0.71730090E-03 0.12499926E+03</pdfrwt>
<pdfrwt beam="1">  1       -4 0.12889224E+00 0.12499926E+03</pdfrwt>
<totfact> 0.36438375E+03</totfact>
</mgrwt>
</event>
<event>
 5    1  0.3235144E-002  0.1250033E+03  0.7818608E-02  0.1235064E+00
          4   -1    0    0  501    0  0.00000000000E+00  0.00000000000E+00  0.82148973493E+02  0.82158789827E+02  0.12700000000E+01 0. -1.
         -4   -1    0    0    0  501 -0.00000000000E+00 -0.00000000000E+00 -0.47532181412E+02  0.47549144785E+02  0.12700000000E+01 0. -1.
         25    2    1    2    0    0  0.00000000000E+00  0.00000000000E+00  0.34616792080E+02  0.12970793461E+03  0.12500330399E+03 0.  0.
    9000005    1    3    3    0    0 -0.43164488600E+01 -0.23170957887E+02  0.77365310261E+02  0.80882113301E+02  0.10000000000E+01 0.  0.
    9000005    1    3    3    0    0  0.43164488600E+01  0.23170957887E+02 -0.42748518181E+02  0.48825821312E+02  0.10000000000E+01 0.  0.
<mgrwt>
<rscale>  0 0.12500330E+03</rscale>
<asrwt>0</asrwt>
<pdfrwt beam="1">  1        4 0.12640364E-01 0.12500330E+03</pdfrwt>
<pdfrwt beam="2">  1       -4 0.73147033E-02 0.12500330E+03</pdfrwt>
<totfact> 0.10349987E+04</totfact>
</mgrwt>
</event>
<event>
 5    1  0.3235144E-002  0.1249985E+03  0.7818608E-02  0.1235072E+00
         -4   -1    0    0    0  501 -0.00000000000E+00  0.00000000000E+00  0.87312154106E+03  0.87312246469E+03  0.12700000000E+01 0. -1.
          4   -1    0    0  501    0  0.00000000000E+00 -0.00000000000E+00 -0.43827072530E+01  0.45630059024E+01  0.12700000000E+01 0. -1.
         25    2    1    2    0    0  0.00000000000E+00  0.00000000000E+00  0.86873883380E+03  0.87768547060E+03  0.12499849576E+03 0.  0.
    9000005    1    3    3    0    0 -0.45293983298E+02  0.40873933769E+02  0.52933793833E+03  0.53284320051E+03  0.10000000000E+01 0.  0.
    9000005    1    3    3    0    0  0.45293983298E+02 -0.40873933769E+02  0.33940089548E+03  0.34484227008E+03  0.10000000000E+01 0.  0.
<mgrwt>
<rscale>  0 0.12499850E+03</rscale>
<asrwt>0</asrwt>
<pdfrwt beam="2">  1        4 0.68820217E-03 0.12499850E+03</pdfrwt>
<pdfrwt beam="1">  1       -4 0.13434046E+00 0.12499850E+03</pdfrwt>
<totfact> 0.35021525E+03</totfact>
</mgrwt>
</event>
<event>
 5    1  0.3235144E-002  0.1249966E+03  0.7818608E-02  0.1235075E+00
         -4   -1    0    0    0  501 -0.00000000000E+00  0.00000000000E+00  0.18561143602E+03  0.18561578080E+03  0.12700000000E+01 0. -1.
          4   -1    0    0  501    0  0.00000000000E+00 -0.00000000000E+00 -0.21020412013E+02  0.21058742156E+02  0.12700000000E+01 0. -1.
         25    2    1    2    0    0  0.00000000000E+00  0.00000000000E+00  0.16459102401E+03  0.20667452296E+03  0.12499661297E+03 0.  0.
    9000005    1    3    3    0    0 -0.43666781462E+02 -0.11220061982E+02  0.10749824800E+02  0.46359856852E+02  0.10000000000E+01 0.  0.
    9000005    1    3    3    0    0  0.43666781462E+02  0.11220061982E+02  0.15384119921E+03  0.16031466611E+03  0.10000000000E+01 0.  0.
<mgrwt>
<rscale>  0 0.12499661E+03</rscale>
<asrwt>0</asrwt>
<pdfrwt beam="2">  1        4 0.32371922E-02 0.12499661E+03</pdfrwt>
<pdfrwt beam="1">  1       -4 0.28558888E-01 0.12499661E+03</pdfrwt>
<totfact> 0.89028614E+03</totfact>
</mgrwt>
</event>
<event>
 5    1  0.3235144E-002  0.1249985E+03  0.7818608E-02  0.1235072E+00
         -4   -1    0    0    0  501 -0.00000000000E+00  0.00000000000E+00  0.30260138483E+03  0.30260404987E+03  0.12700000000E+01 0.  1.
          4   -1    0    0  501    0  0.00000000000E+00 -0.00000000000E+00 -0.12874626943E+02  0.12937114010E+02  0.12700000000E+01 0.  1.
         25    2    1    2    0    0  0.00000000000E+00  0.00000000000E+00  0.28972675789E+03  0.31554116389E+03  0.12499852747E+03 0.  0.
    9000005    1    3    3    0    0  0.32602735144E+02 -0.44081055759E+02  0.22055544006E+03  0.22727027953E+03  0.10000000000E+01 0.  0.
    9000005    1    3    3    0    0 -0.32602735144E+02  0.44081055759E+02  0.69171317825E+02  0.88270884358E+02  0.10000000000E+01 0.  0.
<mgrwt>
<rscale>  0 0.12499853E+03</rscale>
<asrwt>0</asrwt>
<pdfrwt beam="2">  1        4 0.19857234E-02 0.12499853E+03</pdfrwt>
<pdfrwt beam="1">  1       -4 0.46559075E-01 0.12499853E+03</pdfrwt>
<totfact> 0.73692003E+03</totfact>
</mgrwt>
</event>
<event>
 5    1  0.3235144E-002  0.1249989E+03  0.7818608E-02  0.1235071E+00
         -4   -1    0    0    0  501 -0.00000000000E+00  0.00000000000E+00  0.19004584814E+03  0.19005009154E+03  0.12700000000E+01 0.  1.
          4   -1    0    0  501    0  0.00000000000E+00 -0.00000000000E+00 -0.20529779717E+02  0.20569024168E+02  0.12700000000E+01 0.  1.
         25    2    1    2    0    0  0.00000000000E+00  0.00000000000E+00  0.16951606842E+03  0.21061911571E+03  0.12499885779E+03 0.  0.
    9000005    1    3    3    0    0 -0.60529577550E+02  0.15525005561E+02  0.85715737067E+02  0.10608036169E+03  0.10000000000E+01 0.  0.
    9000005    1    3    3    0    0  0.60529577550E+02 -0.15525005561E+02  0.83800331357E+02  0.10453875402E+03  0.10000000000E+01 0.  0.
<mgrwt>
<rscale>  0 0.12499886E+03</rscale>
<asrwt>0</asrwt>
<pdfrwt beam="2">  1        4 0.31617729E-02 0.12499886E+03</pdfrwt>
<pdfrwt beam="1">  1       -4 0.29241168E-01 0.12499886E+03</pdfrwt>
<totfact> 0.88377127E+03</totfact>
</mgrwt>
</event>
<event>
 5    1  0.3235144E-002  0.1249960E+03  0.7818608E-02  0.1235075E+00
          4   -1    0    0  501    0  0.00000000000E+00  0.00000000000E+00  0.31679436451E+02  0.31704882808E+02  0.12700000000E+01 0. -1.
         -4   -1    0    0    0  501 -0.00000000000E+00 -0.00000000000E+00 -0.12321952101E+03  0.12322606566E+03  0.12700000000E+01 0. -1.
         25    2    1    2    0    0  0.00000000000E+00  0.00000000000E+00 -0.91540084556E+02  0.15493094847E+03  0.12499604678E+03 0.  0.
    9000005    1    3    3    0    0  0.19403283895E+02  0.57237712091E+02 -0.26079757234E+02  0.65831579418E+02  0.10000000000E+01 0.  0.
    9000005    1    3    3    0    0 -0.19403283895E+02 -0.57237712091E+02 -0.65460327322E+02  0.89099369047E+02  0.10000000000E+01 0.  0.
<mgrwt>
<rscale>  0 0.12499605E+03</rscale>
<asrwt>0</asrwt>
<pdfrwt beam="1">  1        4 0.48762204E-02 0.12499605E+03</pdfrwt>
<pdfrwt beam="2">  1       -4 0.18959310E-01 0.12499605E+03</pdfrwt>
<totfact> 0.98337799E+03</totfact>
</mgrwt>
</event>
<event>
 5    1  0.3235144E-002  0.1249999E+03  0.7818608E-02  0.1235069E+00
         -4   -1    0    0    0  501 -0.00000000000E+00  0.00000000000E+00  0.10449158421E+03  0.10449930177E+03  0.12700000000E+01 0.  1.
          4   -1    0    0  501    0  0.00000000000E+00 -0.00000000000E+00 -0.37363475702E+02  0.37385053385E+02  0.12700000000E+01 0.  1.
         25    2    1    2    0    0  0.00000000000E+00  0.00000000000E+00  0.67128108505E+02  0.14188435515E+03  0.12499994914E+03 0.  0.
    9000005    1    3    3    0    0  0.54456239460E+02  0.15650276295E+02  0.36438125193E+01  0.56786358696E+02  0.10000000000E+01 0.  0.
    9000005    1    3    3    0    0 -0.54456239460E+02 -0.15650276295E+02  0.63484295986E+02  0.85097996457E+02  0.10000000000E+01 0.  0.
<mgrwt>
<rscale>  0 0.12499995E+03</rscale>
<asrwt>0</asrwt>
<pdfrwt beam="2">  1        4 0.57504806E-02 0.12499995E+03</pdfrwt>
<pdfrwt beam="1">  1       -4 0.16077882E-01 0.12499995E+03</pdfrwt>
<totfact> 0.10094691E+04</totfact>
</mgrwt>
</event>
<event>
 5    1  0.3235144E-002  0.1250039E+03  0.7818608E-02  0.1235063E+00
         -4   -1    0    0    0  501 -0.00000000000E+00  0.00000000000E+00  0.25226783905E+03  0.25227103583E+03  0.12700000000E+01 0. -1.
          4   -1    0    0  501    0  0.00000000000E+00 -0.00000000000E+00 -0.15456168049E+02  0.15508256858E+02  0.12700000000E+01 0. -1.
         25    2    1    2    0    0  0.00000000000E+00  0.00000000000E+00  0.23681167100E+03  0.26777929269E+03  0.12500392822E+03 0.  0.
    9000005    1    3    3    0    0 -0.54507902290E+02 -0.29612076355E+02  0.10216077299E+03  0.11952326140E+03  0.10000000000E+01 0.  0.
    9000005    1    3    3    0    0  0.54507902290E+02  0.29612076355E+02  0.13465089802E+03  0.14825603129E+03  0.10000000000E+01 0.  0.
<mgrwt>
<rscale>  0 0.12500393E+03</rscale>
<asrwt>0</asrwt>
<pdfrwt beam="2">  1        4 0.23821248E-02 0.12500393E+03</pdfrwt>
<pdfrwt beam="1">  1       -4 0.38814689E-01 0.12500393E+03</pdfrwt>
<totfact> 0.79819616E+03</totfact>
</mgrwt>
</event>
<event>
 5    1  0.3235144E-002  0.1249952E+03  0.7818608E-02  0.1235077E+00
          4   -1    0    0  501    0  0.00000000000E+00  0.00000000000E+00  0.18757341693E+02  0.18800286365E+02  0.12700000000E+01 0. -1.
         -4   -1    0    0    0  501 -0.00000000000E+00 -0.00000000000E+00 -0.20795265498E+03  0.20795653299E+03  0.12700000000E+01 0. -1.
         25    2    1    2    0    0  0.00000000000E+00  0.00000000000E+00 -0.18919531329E+03  0.22675681936E+03  0.12499515412E+03 0.  0.
    9000005    1    3    3    0    0 -0.60733664166E+02  0.10717616834E+02 -0.76320686965E+02  0.98128958684E+02  0.10000000000E+01 0.  0.
    9000005    1    3    3    0    0  0.60733664166E+02 -0.10717616834E+02 -0.11287462633E+03  0.12862786067E+03  0.10000000000E+01 0.  0.
<mgrwt>
<rscale>  0 0.12499515E+03</rscale>
<asrwt>0</asrwt>
<pdfrwt beam="1">  1        4 0.28893468E-02 0.12499515E+03</pdfrwt>
<pdfrwt beam="2">  1       -4 0.31996316E-01 0.12499515E+03</pdfrwt>
<totfact> 0.85819373E+03</totfact>
</mgrwt>
</event>
<event>
 5    1  0.3235144E-002  0.1249974E+03  0.7818608E-02  0.1235073E+00
          4   -1    0    0  501    0  0.00000000000E+00  0.00000000000E+00  0.16246210534E+02  0.16295774198E+02  0.12700000000E+01 0.  1.
         -4   -1    0    0    0  501 -0.00000000000E+00 -0.00000000000E+00 -0.24001338122E+03  0.24001674122E+03  0.12700000000E+01 0.  1.
         25    2    1    2    0    0  0.00000000000E+00  0.00000000000E+00 -0.22376717069E+03  0.25631251542E+03  0.12499743550E+03 0.  0.
    9000005    1    3    3    0    0 -0.17529721269E+01  0.23436308031E+02 -0.23061610982E+03  0.23181269067E+03  0.10000000000E+01 0.  0.
    9000005    1    3    3    0    0  0.17529721269E+01 -0.23436308031E+02  0.68489391349E+01  0.24499824748E+02  0.10000000000E+01 0.  0.
<mgrwt>
<rscale>  0 0.12499744E+03</rscale>
<asrwt>0</asrwt>
<pdfrwt beam="1">  1        4 0.25034882E-02 0.12499744E+03</pdfrwt>
<pdfrwt beam="2">  1       -4 0.36929204E-01 0.12499744E+03</pdfrwt>
<totfact> 0.81430999E+03</totfact>
</mgrwt>
</event>
<event>
 5    1  0.3235144E-002  0.1250047E+03  0.7818608E-02  0.1235062E+00
         -4   -1    0    0    0  501 -0.00000000000E+00  0.00000000000E+00  0.15480400665E+03  0.15480921605E+03  0.12700000000E+01 0.  1.
          4   -1    0    0  501    0  0.00000000000E+00 -0.00000000000E+00 -0.25213790605E+02  0.25245754825E+02  0.12700000000E+01 0.  1.
         25    2    1    2    0    0  0.00000000000E+00  0.00000000000E+00  0.12959021604E+03  0.18005497087E+03  0.12500467368E+03 0.  0.
    9000005    1    3    3    0    0  0.31391872865E+02  0.10569590004E+02  0.14112708428E+03  0.14496558154E+03  0.10000000000E+01 0.  0.
    9000005    1    3    3    0    0 -0.31391872865E+02 -0.10569590004E+02 -0.11536868239E+02  0.35089389331E+02  0.10000000000E+01 0.  0.
<mgrwt>
<rscale>  0 0.12500467E+03</rscale>
<asrwt>0</asrwt>
<pdfrwt beam="2">  1        4 0.38819043E-02 0.12500467E+03</pdfrwt>
<pdfrwt beam="1">  1       -4 0.23818860E-01 0.12500467E+03</pdfrwt>
<totfact> 0.93597300E+03</totfact>
</mgrwt>
</event>
<event>
 5    1  0.3235144E-002  0.1249989E+03  0.7818608E-02  0.1235071E+00
          4   -1    0    0  501    0  0.00000000000E+00  0.00000000000E+00  0.40317813036E+03  0.40318013059E+03  0.12700000000E+01 0.  1.
         -4   -1    0    0    0  501 -0.00000000000E+00 -0.00000000000E+00 -0.96448173539E+01  0.97280728713E+01  0.12700000000E+01 0.  1.
         25    2    1    2    0    0  0.00000000000E+00  0.00000000000E+00  0.39353331301E+03  0.41290820346E+03  0.12499886415E+03 0.  0.
    9000005    1    3    3    0    0  0.31779889004E+02 -0.35600612323E+02  0.63491302973E+02  0.79432427233E+02  0.10000000000E+01 0.  0.
    9000005    1    3    3    0    0 -0.31779889004E+02  0.35600612323E+02  0.33004201004E+03  0.33347577623E+03  0.10000000000E+01 0.  0.
<mgrwt>
<rscale>  0 0.12499886E+03</rscale>
<asrwt>0</asrwt>
<pdfrwt beam="1">  1        4 0.62033950E-01 0.12499886E+03</pdfrwt>
<pdfrwt beam="2">  1       -4 0.14903765E-02 0.12499886E+03</pdfrwt>
<totfact> 0.63318013E+03</totfact>
</mgrwt>
</event>
<event>
 5    1  0.3235144E-002  0.1249981E+03  0.7818608E-02  0.1235072E+00
         -4   -1    0    0    0  501 -0.00000000000E+00  0.00000000000E+00  0.18464788277E+02  0.18508411767E+02  0.12700000000E+01 0. -1.
          4   -1    0    0  501    0  0.00000000000E+00 -0.00000000000E+00 -0.21124960928E+03  0.21125342676E+03  0.12700000000E+01 0. -1.
         25    2    1    2    0    0  0.00000000000E+00  0.00000000000E+00 -0.19278482100E+03  0.22976183853E+03  0.12499806093E+03 0.  0.
    9000005    1    3    3    0    0  0.36158337766E+02 -0.19563699044E+02 -0.18290076784E+03  0.18746694266E+03  0.10000000000E+01 0.  0.
    9000005    1    3    3    0    0 -0.36158337766E+02  0.19563699044E+02 -0.98840531544E+01  0.42294895875E+02  0.10000000000E+01 0.  0.
<mgrwt>
<rscale>  0 0.12499806E+03</rscale>
<asrwt>0</asrwt>
<pdfrwt beam="2">  1        4 0.32503587E-01 0.12499806E+03</pdfrwt>
<pdfrwt beam="1">  1       -4 0.28443861E-02 0.12499806E+03</pdfrwt>
<totfact> 0.85349873E+03</totfact>
</mgrwt>
</event>
<event>
 5    1  0.3235144E-002  0.1250019E+03  0.7818608E-02  0.1235066E+00
          4   -1    0    0  501    0  0.00000000000E+00  0.00000000000E+00  0.71454097730E+03  0.71454210592E+03  0.12700000000E+01 0.  1.
         -4   -1    0    0    0  501 -0.00000000000E+00 -0.00000000000E+00 -0.53920556797E+01  0.55395996654E+01  0.12700000000E+01 0.  1.
         25    2    1    2    0    0  0.00000000000E+00  0.00000000000E+00  0.70914892162E+03  0.72008170559E+03  0.12500187875E+03 0.  0.
    9000005    1    3    3    0    0  0.60883325909E+02 -0.12078173585E+02  0.39639545248E+03  0.40122688892E+03  0.10000000000E+01 0.  0.
    9000005    1    3    3    0    0 -0.60883325909E+02  0.12078173585E+02  0.31275346914E+03  0.31885481666E+03  0.10000000000E+01 0.  0.
<mgrwt>
<rscale>  0 0.12500188E+03</rscale>
<asrwt>0</asrwt>
<pdfrwt beam="1">  1        4 0.10994079E+00 0.12500188E+03</pdfrwt>
<pdfrwt beam="2">  1       -4 0.84098359E-03 0.12500188E+03</pdfrwt>
<totfact> 0.42045858E+03</totfact>
</mgrwt>
</event>
<event>
 5    1  0.3235144E-002  0.1250022E+03  0.7818608E-02  0.1235066E+00
         -4   -1    0    0    0  501 -0.00000000000E+00  0.00000000000E+00  0.43613648308E+02  0.43632135162E+02  0.12700000000E+01 0.  1.
          4   -1    0    0  501    0  0.00000000000E+00 -0.00000000000E+00 -0.89525968798E+02  0.89534976346E+02  0.12700000000E+01 0.  1.
         25    2    1    2    0    0  0.00000000000E+00  0.00000000000E+00 -0.45912320490E+02  0.13316711151E+03  0.12500215364E+03 0.  0.
    9000005    1    3    3    0    0  0.15358673049E+02  0.56106094066E+02 -0.47286551766E+02  0.74971998820E+02  0.10000000000E+01 0.  0.
    9000005    1    3    3    0    0 -0.15358673049E+02 -0.56106094066E+02  0.13742312761E+01  0.58195112688E+02  0.10000000000E+01 0.  0.
<mgrwt>
<rscale>  0 0.12500215E+03</rscale>
<asrwt>0</asrwt>
<pdfrwt beam="2">  1        4 0.13775341E-01 0.12500215E+03</pdfrwt>
<pdfrwt beam="1">  1       -4 0.67119070E-02 0.12500215E+03</pdfrwt>
<totfact> 0.10276350E+04</totfact>
</mgrwt>
</event>
<event>
 5    1  0.3235144E-002  0.1249977E+03  0.7818608E-02  0.1235073E+00
         -4   -1    0    0    0  501 -0.00000000000E+00  0.00000000000E+00  0.15324999728E+03  0.15325525951E+03  0.12700000000E+01 0.  1.
          4   -1    0    0  501    0  0.00000000000E+00 -0.00000000000E+00 -0.25466935453E+02  0.25498582340E+02  0.12700000000E+01 0.  1.
         25    2    1    2    0    0  0.00000000000E+00  0.00000000000E+00  0.12778306183E+03  0.17875384185E+03  0.12499770032E+03 0.  0.
    9000005    1    3    3    0    0  0.12365956730E+02 -0.20900315698E+02 -0.18450033444E+02  0.30514649207E+02  0.10000000000E+01 0.  0.
    9000005    1    3    3    0    0 -0.12365956730E+02  0.20900315698E+02  0.14623309527E+03  0.14823919264E+03  0.10000000000E+01 0.  0.
<mgrwt>
<rscale>  0 0.12499770E+03</rscale>
<asrwt>0</asrwt>
<pdfrwt beam="2">  1        4 0.39208292E-02 0.12499770E+03</pdfrwt>
<pdfrwt beam="1">  1       -4 0.23579762E-01 0.12499770E+03</pdfrwt>
<totfact> 0.93846637E+03</totfact>
</mgrwt>
</event>
<event>
 5    1  0.3235144E-002  0.1250001E+03  0.7818608E-02  0.1235069E+00
         -4   -1    0    0    0  501 -0.00000000000E+00  0.00000000000E+00  0.66864868029E+02  0.66876927834E+02  0.12700000000E+01 0.  1.
          4   -1    0    0  501    0  0.00000000000E+00 -0.00000000000E+00 -0.58395923496E+02  0.58409731902E+02  0.12700000000E+01 0.  1.
         25    2    1    2    0    0  0.00000000000E+00  0.00000000000E+00  0.84689445336E+01  0.12528665974E+03  0.12500009635E+03 0.  0.
    9000005    1    3    3    0    0  0.47942565386E+02 -0.36808899031E+02  0.20141312139E+02  0.63718577184E+02  0.10000000000E+01 0.  0.
    9000005    1    3    3    0    0 -0.47942565386E+02  0.36808899031E+02 -0.11672367606E+02  0.61568082553E+02  0.10000000000E+01 0.  0.
<mgrwt>
<rscale>  0 0.12500010E+03</rscale>
<asrwt>0</asrwt>
<pdfrwt beam="2">  1        4 0.89859781E-02 0.12500010E+03</pdfrwt>
<pdfrwt beam="1">  1       -4 0.10288893E-01 0.12500010E+03</pdfrwt>
<totfact> 0.10446617E+04</totfact>
</mgrwt>
</event>
<event>
 5    1  0.3235144E-002  0.1250195E+03  0.7818608E-02  0.1235039E+00
          4   -1    0    0  501    0  0.00000000000E+00  0.00000000000E+00  0.86211467904E+02  0.86220821720E+02  0.12700000000E+01 0.  1.
         -4   -1    0    0    0  501 -0.00000000000E+00 -0.00000000000E+00 -0.45303488827E+02  0.45321286388E+02  0.12700000000E+01 0.  1.
         25    2    1    2    0    0  0.00000000000E+00  0.00000000000E+00  0.40907979077E+02  0.13154210811E+03  0.12501945230E+03 0.  0.
    9000005    1    3    3    0    0 -0.28772896908E+02  0.48648678579E+02 -0.76193685582E+01  0.57040584685E+02  0.10000000000E+01 0.  0.
    9000005    1    3    3    0    0  0.28772896908E+02 -0.48648678579E+02  0.48527347635E+02  0.74501523424E+02  0.10000000000E+01 0.  0.
<mgrwt>
<rscale>  0 0.12501945E+03</rscale>
<asrwt>0</asrwt>
<pdfrwt beam="1">  1        4 0.13265391E-01 0.12501945E+03</pdfrwt>
<pdfrwt beam="2">  1       -4 0.69718561E-02 0.12501945E+03</pdfrwt>
<totfact> 0.10306958E+04</totfact>
</mgrwt>
</event>
<event>
 5    1  0.3235144E-002  0.1249987E+03  0.7818608E-02  0.1235071E+00
          4   -1    0    0  501    0  0.00000000000E+00  0.00000000000E+00  0.11666030252E+03  0.11666721512E+03  0.12700000000E+01 0. -1.
         -4   -1    0    0    0  501 -0.00000000000E+00 -0.00000000000E+00 -0.33463327307E+02  0.33487418151E+02  0.12700000000E+01 0. -1.
         25    2    1    2    0    0  0.00000000000E+00  0.00000000000E+00  0.83196975215E+02  0.15015463327E+03  0.12499870883E+03 0.  0.
    9000005    1    3    3    0    0  0.31459343588E+02  0.21546147655E+01 -0.23211528141E+02  0.39167686968E+02  0.10000000000E+01 0.  0.
    9000005    1    3    3    0    0 -0.31459343588E+02 -0.21546147655E+01  0.10640850336E+03  0.11098694631E+03  0.10000000000E+01 0.  0.
<mgrwt>
<rscale>  0 0.12499871E+03</rscale>
<asrwt>0</asrwt>
<pdfrwt beam="1">  1        4 0.17950123E-01 0.12499871E+03</pdfrwt>
<pdfrwt beam="2">  1       -4 0.51505892E-02 0.12499871E+03</pdfrwt>
<totfact> 0.99275768E+03</totfact>
</mgrwt>
</event>
<event>
 5    1  0.3235144E-002  0.1250052E+03  0.7818608E-02  0.1235061E+00
          4   -1    0    0  501    0  0.00000000000E+00  0.00000000000E+00  0.50296520570E+03  0.50296680909E+03  0.12700000000E+01 0.  1.
         -4   -1    0    0    0  501 -0.00000000000E+00 -0.00000000000E+00 -0.77135528551E+01  0.78174035106E+01  0.12700000000E+01 0.  1.
         25    2    1    2    0    0  0.00000000000E+00  0.00000000000E+00  0.49525165284E+03  0.51078421260E+03  0.12500524867E+03 0.  0.
    9000005    1    3    3    0    0 -0.18341273316E+02 -0.55588725549E+02  0.33706101004E+03  0.34210763395E+03  0.10000000000E+01 0.  0.
    9000005    1    3    3    0    0  0.18341273316E+02  0.55588725549E+02  0.15819064281E+03  0.16867657865E+03  0.10000000000E+01 0.  0.
<mgrwt>
<rscale>  0 0.12500525E+03</rscale>
<asrwt>0</asrwt>
<pdfrwt beam="1">  1        4 0.77387363E-01 0.12500525E+03</pdfrwt>
<pdfrwt beam="2">  1       -4 0.11948125E-02 0.12500525E+03</pdfrwt>
<totfact> 0.55030901E+03</totfact>
</mgrwt>
</event>
<event>
 5    1  0.3235144E-002  0.1249990E+03  0.7818608E-02  0.1235071E+00
          4   -1    0    0  501    0  0.00000000000E+00  0.00000000000E+00  0.42621078786E+02  0.42639995977E+02  0.12700000000E+01 0. -1.
         -4   -1    0    0    0  501 -0.00000000000E+00 -0.00000000000E+00 -0.91605501511E+02  0.91614304598E+02  0.12700000000E+01 0. -1.
         25    2    1    2    0    0  0.00000000000E+00  0.00000000000E+00 -0.48984422725E+02  0.13425430057E+03  0.12499897421E+03 0.  0.
    9000005    1    3    3    0    0 -0.55674903053E+02 -0.88644505729E+01 -0.53449830254E+02  0.77692713095E+02  0.10000000000E+01 0.  0.
    9000005    1    3    3    0    0  0.55674903053E+02  0.88644505729E+01  0.44654075290E+01  0.56561587480E+02  0.10000000000E+01 0.  0.
<mgrwt>
<rscale>  0 0.12499897E+03</rscale>
<asrwt>0</asrwt>
<pdfrwt beam="1">  1        4 0.65592214E-02 0.12499897E+03</pdfrwt>
<pdfrwt beam="2">  1       -4 0.14095286E-01 0.12499897E+03</pdfrwt>
<totfact> 0.10254050E+04</totfact>
</mgrwt>
</event>
<event>
 5    1  0.3235144E-002  0.1249980E+03  0.7818608E-02  0.1235072E+00
         -4   -1    0    0    0  501 -0.00000000000E+00  0.00000000000E+00  0.54331323541E+02  0.54346164701E+02  0.12700000000E+01 0. -1.
          4   -1    0    0  501    0  0.00000000000E+00 -0.00000000000E+00 -0.71864213311E+02  0.71875434293E+02  0.12700000000E+01 0. -1.
         25    2    1    2    0    0  0.00000000000E+00  0.00000000000E+00 -0.17532889770E+02  0.12622159899E+03  0.12499795930E+03 0.  0.
    9000005    1    3    3    0    0  0.18634477536E+01 -0.61409642036E+02 -0.20302194004E+02  0.64713179908E+02  0.10000000000E+01 0.  0.
    9000005    1    3    3    0    0 -0.18634477536E+01  0.61409642036E+02  0.27693042343E+01  0.61508419086E+02  0.10000000000E+01 0.  0.
<mgrwt>
<rscale>  0 0.12499796E+03</rscale>
<asrwt>0</asrwt>
<pdfrwt beam="2">  1        4 0.11058038E-01 0.12499796E+03</pdfrwt>
<pdfrwt beam="1">  1       -4 0.83606700E-02 0.12499796E+03</pdfrwt>
<totfact> 0.10426587E+04</totfact>
</mgrwt>
</event>
<event>
 5    1  0.3235144E-002  0.1250011E+03  0.7818608E-02  0.1235068E+00
         -4   -1    0    0    0  501 -0.00000000000E+00  0.00000000000E+00  0.32076918896E+03  0.32077170306E+03  0.12700000000E+01 0. -1.
          4   -1    0    0  501    0  0.00000000000E+00 -0.00000000000E+00 -0.12142297186E+02  0.12208533121E+02  0.12700000000E+01 0. -1.
         25    2    1    2    0    0  0.00000000000E+00  0.00000000000E+00  0.30862689177E+03  0.33298023618E+03  0.12500111745E+03 0.  0.
    9000005    1    3    3    0    0 -0.44870327191E+01  0.19947681753E+02  0.31162033594E+03  0.31229197434E+03  0.10000000000E+01 0.  0.
    9000005    1    3    3    0    0  0.44870327191E+01 -0.19947681753E+02 -0.29934441646E+01  0.20688261839E+02  0.10000000000E+01 0.  0.
<mgrwt>
<rscale>  0 0.12500112E+03</rscale>
<asrwt>0</asrwt>
<pdfrwt beam="2">  1        4 0.18733341E-02 0.12500112E+03</pdfrwt>
<pdfrwt beam="1">  1       -4 0.49354396E-01 0.12500112E+03</pdfrwt>
<totfact> 0.71636661E+03</totfact>
</mgrwt>
</event>
<event>
 5    1  0.3235144E-002  0.1250084E+03  0.7818608E-02  0.1235056E+00
          4   -1    0    0  501    0  0.00000000000E+00  0.00000000000E+00  0.21171423945E+03  0.21171804856E+03  0.12700000000E+01 0.  1.
         -4   -1    0    0    0  501 -0.00000000000E+00 -0.00000000000E+00 -0.18427213109E+02  0.18470925341E+02  0.12700000000E+01 0.  1.
         25    2    1    2    0    0  0.00000000000E+00  0.00000000000E+00  0.19328702634E+03  0.23018897390E+03  0.12500835634E+03 0.  0.
    9000005    1    3    3    0    0 -0.21006291158E+01  0.62387938077E+02  0.91087268618E+02  0.11042897249E+03  0.10000000000E+01 0.  0.
    9000005    1    3    3    0    0  0.21006291158E+01 -0.62387938077E+02  0.10219975772E+03  0.11976000142E+03  0.10000000000E+01 0.  0.
<mgrwt>
<rscale>  0 0.12500836E+03</rscale>
<asrwt>0</asrwt>
<pdfrwt beam="1">  1        4 0.32575076E-01 0.12500836E+03</pdfrwt>
<pdfrwt beam="2">  1       -4 0.28386115E-02 0.12500836E+03</pdfrwt>
<totfact> 0.85264691E+03</totfact>
</mgrwt>
</event>
<event>
 5    1  0.3235144E-002  0.1249998E+03  0.7818608E-02  0.1235070E+00
         -4   -1    0    0    0  501 -0.00000000000E+00  0.00000000000E+00  0.31889711664E+03  0.31889964550E+03  0.12700000000E+01 0.  1.
          4   -1    0    0  501    0  0.00000000000E+00 -0.00000000000E+00 -0.12213703707E+02  0.12279554481E+02  0.12700000000E+01 0.  1.
         25    2    1    2    0    0  0.00000000000E+00  0.00000000000E+00  0.30668341293E+03  0.33117919998E+03  0.12499978693E+03 0.  0.
    9000005    1    3    3    0    0  0.49059134025E+02 -0.49554153790E+01  0.51626678165E+02  0.71397959854E+02  0.10000000000E+01 0.  0.
    9000005    1    3    3    0    0 -0.49059134025E+02  0.49554153790E+01  0.25505673477E+03  0.25978124013E+03  0.10000000000E+01 0.  0.
<mgrwt>
<rscale>  0 0.12499979E+03</rscale>
<asrwt>0</asrwt>
<pdfrwt beam="2">  1        4 0.18842911E-02 0.12499979E+03</pdfrwt>
<pdfrwt beam="1">  1       -4 0.49066360E-01 0.12499979E+03</pdfrwt>
<totfact> 0.71846276E+03</totfact>
</mgrwt>
</event>
<event>
 5    1  0.3235144E-002  0.1250054E+03  0.7818608E-02  0.1235061E+00
          4   -1    0    0  501    0  0.00000000000E+00  0.00000000000E+00  0.36918505621E+02  0.36940343221E+02  0.12700000000E+01 0.  1.
         -4   -1    0    0    0  501 -0.00000000000E+00 -0.00000000000E+00 -0.10575952871E+03  0.10576715375E+03  0.12700000000E+01 0.  1.
         25    2    1    2    0    0  0.00000000000E+00  0.00000000000E+00 -0.68841023085E+02  0.14270749697E+03  0.12500537281E+03 0.  0.
    9000005    1    3    3    0    0  0.37548986601E+02 -0.44411380036E+02 -0.83055853582E+01  0.58756104531E+02  0.10000000000E+01 0.  0.
    9000005    1    3    3    0    0 -0.37548986601E+02  0.44411380036E+02 -0.60535437726E+02  0.83951392438E+02  0.10000000000E+01 0.  0.
<mgrwt>
<rscale>  0 0.12500537E+03</rscale>
<asrwt>0</asrwt>
<pdfrwt beam="1">  1        4 0.56820365E-02 0.12500537E+03</pdfrwt>
<pdfrwt beam="2">  1       -4 0.16272963E-01 0.12500537E+03</pdfrwt>
<totfact> 0.10076557E+04</totfact>
</mgrwt>
</event>
<event>
 5    1  0.3235144E-002  0.1250050E+03  0.7818608E-02  0.1235062E+00
         -4   -1    0    0    0  501 -0.00000000000E+00  0.00000000000E+00  0.58629504444E+01  0.59989238963E+01  0.12700000000E+01 0.  1.
          4   -1    0    0  501    0  0.00000000000E+00 -0.00000000000E+00 -0.65853841077E+03  0.65853963537E+03  0.12700000000E+01 0.  1.
         25    2    1    2    0    0  0.00000000000E+00  0.00000000000E+00 -0.65267546032E+03  0.66453855927E+03  0.12500496089E+03 0.  0.
    9000005    1    3    3    0    0  0.28395709868E+02  0.21000566163E+01 -0.30596700518E+02  0.41807710524E+02  0.10000000000E+01 0.  0.
    9000005    1    3    3    0    0 -0.28395709868E+02 -0.21000566163E+01 -0.62207875981E+03  0.62273084874E+03  0.10000000000E+01 0.  0.
<mgrwt>
<rscale>  0 0.12500496E+03</rscale>
<asrwt>0</asrwt>
<pdfrwt beam="2">  1        4 0.10132410E+00 0.12500496E+03</pdfrwt>
<pdfrwt beam="1">  1       -4 0.91254659E-03 0.12500496E+03</pdfrwt>
<totfact> 0.45020979E+03</totfact>
</mgrwt>
</event>
<event>
 5    1  0.3235144E-002  0.1249999E+03  0.7818608E-02  0.1235069E+00
         -4   -1    0    0    0  501 -0.00000000000E+00  0.00000000000E+00  0.74555196243E+03  0.74555304412E+03  0.12700000000E+01 0.  1.
          4   -1    0    0  501    0  0.00000000000E+00 -0.00000000000E+00 -0.51613354901E+01  0.53152877666E+01  0.12700000000E+01 0.  1.
         25    2    1    2    0    0  0.00000000000E+00  0.00000000000E+00  0.74039062694E+03  0.75086833188E+03  0.12499988543E+03 0.  0.
    9000005    1    3    3    0    0  0.57142414107E+02  0.40776676095E+01  0.22021866979E+03  0.22755031397E+03  0.10000000000E+01 0.  0.
    9000005    1    3    3    0    0 -0.57142414107E+02 -0.40776676095E+01  0.52017195715E+03  0.52331801791E+03  0.10000000000E+01 0.  0.
<mgrwt>
<rscale>  0 0.12499989E+03</rscale>
<asrwt>0</asrwt>
<pdfrwt beam="2">  1        4 0.80597748E-03 0.12499989E+03</pdfrwt>
<pdfrwt beam="1">  1       -4 0.11471220E+00 0.12499989E+03</pdfrwt>
<totfact> 0.40532745E+03</totfact>
</mgrwt>
</event>
<event>
 5    1  0.3235144E-002  0.1249788E+03  0.7818608E-02  0.1235102E+00
         -4   -1    0    0    0  501 -0.00000000000E+00  0.00000000000E+00  0.68165149018E+01  0.69338139149E+01  0.12700000000E+01 0. -1.
          4   -1    0    0  501    0  0.00000000000E+00 -0.00000000000E+00 -0.56785747797E+03  0.56785889813E+03  0.12700000000E+01 0. -1.
         25    2    1    2    0    0  0.00000000000E+00  0.00000000000E+00 -0.56104096307E+03  0.57479271205E+03  0.12497879652E+03 0.  0.
    9000005    1    3    3    0    0  0.11005816759E+02 -0.11085398165E+02 -0.22865020153E+01  0.15819043792E+02  0.10000000000E+01 0.  0.
    9000005    1    3    3    0    0 -0.11005816759E+02  0.11085398165E+02 -0.55875446105E+03  0.55897366826E+03  0.10000000000E+01 0.  0.
<mgrwt>
<rscale>  0 0.12497880E+03</rscale>
<asrwt>0</asrwt>
<pdfrwt beam="2">  1        4 0.87371784E-01 0.12497880E+03</pdfrwt>
<pdfrwt beam="1">  1       -4 0.10578273E-02 0.12497880E+03</pdfrwt>
<totfact> 0.50521948E+03</totfact>
</mgrwt>
</event>
<event>
 5    1  0.3235144E-002  0.1249913E+03  0.7818608E-02  0.1235083E+00
          4   -1    0    0  501    0  0.00000000000E+00  0.00000000000E+00  0.22907408070E+03  0.22907760115E+03  0.12700000000E+01 0. -1.
         -4   -1    0    0    0  501 -0.00000000000E+00 -0.00000000000E+00 -0.17022677156E+02  0.17069986455E+02  0.12700000000E+01 0. -1.
         25    2    1    2    0    0  0.00000000000E+00  0.00000000000E+00  0.21205140354E+03  0.24614758760E+03  0.12499134825E+03 0.  0.
    9000005    1    3    3    0    0  0.37060794574E+01 -0.36868878339E+02  0.20511307760E+03  0.20843565870E+03  0.10000000000E+01 0.  0.
    9000005    1    3    3    0    0 -0.37060794574E+01  0.36868878339E+02  0.69383259447E+01  0.37711928906E+02  0.10000000000E+01 0.  0.
<mgrwt>
<rscale>  0 0.12499135E+03</rscale>
<asrwt>0</asrwt>
<pdfrwt beam="1">  1        4 0.35246075E-01 0.12499135E+03</pdfrwt>
<pdfrwt beam="2">  1       -4 0.26227835E-02 0.12499135E+03</pdfrwt>
<totfact> 0.82906211E+03</totfact>
</mgrwt>
</event>
<event>
 5    1  0.3235144E-002  0.1250001E+03  0.7818608E-02  0.1235069E+00
         -4   -1    0    0    0  501 -0.00000000000E+00  0.00000000000E+00  0.67371349745E+02  0.67383318904E+02  0.12700000000E+01 0.  1.
          4   -1    0    0  501    0  0.00000000000E+00 -0.00000000000E+00 -0.57956924822E+02  0.57970837797E+02  0.12700000000E+01 0.  1.
         25    2    1    2    0    0  0.00000000000E+00  0.00000000000E+00  0.94144249233E+01  0.12535415670E+03  0.12500013282E+03 0.  0.
    9000005    1    3    3    0    0  0.52822135389E+02 -0.31028613889E+02 -0.76689489511E+01  0.61747596269E+02  0.10000000000E+01 0.  0.
    9000005    1    3    3    0    0 -0.52822135389E+02  0.31028613889E+02  0.17083373874E+02  0.63606560431E+02  0.10000000000E+01 0.  0.
<mgrwt>
<rscale>  0 0.12500013E+03</rscale>
<asrwt>0</asrwt>
<pdfrwt beam="2">  1        4 0.89184409E-02 0.12500013E+03</pdfrwt>
<pdfrwt beam="1">  1       -4 0.10366814E-01 0.12500013E+03</pdfrwt>
<totfact> 0.10445144E+04</totfact>
</mgrwt>
</event>
<event>
 5    1  0.3235144E-002  0.1249715E+03  0.7818608E-02  0.1235114E+00
         -4   -1    0    0    0  501 -0.00000000000E+00  0.00000000000E+00  0.52270064157E+03  0.52270218442E+03  0.12700000000E+01 0. -1.
          4   -1    0    0  501    0  0.00000000000E+00 -0.00000000000E+00 -0.74142537593E+01  0.75222376197E+01  0.12700000000E+01 0. -1.
         25    2    1    2    0    0  0.00000000000E+00  0.00000000000E+00  0.51528638781E+03  0.53022442204E+03  0.12497150181E+03 0.  0.
    9000005    1    3    3    0    0 -0.17302943086E+02  0.54312042412E+01  0.51130857634E+03  0.51163106831E+03  0.10000000000E+01 0.  0.
    9000005    1    3    3    0    0  0.17302943086E+02 -0.54312042412E+01  0.39778114716E+01  0.18593353733E+02  0.10000000000E+01 0.  0.
<mgrwt>
<rscale>  0 0.12497150E+03</rscale>
<asrwt>0</asrwt>
<pdfrwt beam="2">  1        4 0.11490793E-02 0.12497150E+03</pdfrwt>
<pdfrwt beam="1">  1       -4 0.80423924E-01 0.12497150E+03</pdfrwt>
<totfact> 0.53626839E+03</totfact>
</mgrwt>
</event>
<event>
 5    1  0.3235144E-002  0.1249996E+03  0.7818608E-02  0.1235070E+00
          4   -1    0    0  501    0  0.00000000000E+00  0.00000000000E+00  0.47374079629E+03  0.47374249858E+03  0.12700000000E+01 0. -1.
         -4   -1    0    0    0  501 -0.00000000000E+00 -0.00000000000E+00 -0.81948572725E+01  0.82926826611E+01  0.12700000000E+01 0. -1.
         25    2    1    2    0    0  0.00000000000E+00  0.00000000000E+00  0.46554593901E+03  0.48203518125E+03  0.12499957851E+03 0.  0.
    9000005    1    3    3    0    0 -0.10407452989E+02 -0.24608928591E+02  0.14924441047E+02  0.30621126444E+02  0.10000000000E+01 0.  0.
    9000005    1    3    3    0    0  0.10407452989E+02  0.24608928591E+02  0.45062149797E+03  0.45141405480E+03  0.10000000000E+01 0.  0.
<mgrwt>
<rscale>  0 0.12499958E+03</rscale>
<asrwt>0</asrwt>
<pdfrwt beam="1">  1        4 0.72890889E-01 0.12499958E+03</pdfrwt>
<pdfrwt beam="2">  1       -4 0.12684027E-02 0.12499958E+03</pdfrwt>
<totfact> 0.57286175E+03</totfact>
</mgrwt>
</event>
<event>
 5    1  0.3235144E-002  0.1249968E+03  0.7818608E-02  0.1235074E+00
          4   -1    0    0  501    0  0.00000000000E+00  0.00000000000E+00  0.10969117346E+03  0.10969852522E+03  0.12700000000E+01 0.  1.
         -4   -1    0    0    0  501 -0.00000000000E+00 -0.00000000000E+00 -0.35589656465E+02  0.35612308929E+02  0.12700000000E+01 0.  1.
         25    2    1    2    0    0  0.00000000000E+00  0.00000000000E+00  0.74101516996E+02  0.14531083415E+03  0.12499681476E+03 0.  0.
    9000005    1    3    3    0    0  0.19360348575E+02 -0.33678790870E+02  0.93954320681E+02  0.10167348930E+03  0.10000000000E+01 0.  0.
    9000005    1    3    3    0    0 -0.19360348575E+02  0.33678790870E+02 -0.19852803685E+02  0.43637344850E+02  0.10000000000E+01 0.  0.
<mgrwt>
<rscale>  0 0.12499681E+03</rscale>
<asrwt>0</asrwt>
<pdfrwt beam="1">  1        4 0.16877873E-01 0.12499681E+03</pdfrwt>
<pdfrwt beam="2">  1       -4 0.54776398E-02 0.12499681E+03</pdfrwt>
<totfact> 0.10025396E+04</totfact>
</mgrwt>
</event>
<event>
 5    1  0.3235144E-002  0.1249971E+03  0.7818608E-02  0.1235074E+00
          4   -1    0    0  501    0  0.00000000000E+00  0.00000000000E+00  0.20135169124E+03  0.20135569638E+03  0.12700000000E+01 0. -1.
         -4   -1    0    0    0  501 -0.00000000000E+00 -0.00000000000E+00 -0.19374256847E+02  0.19415837051E+02  0.12700000000E+01 0. -1.
         25    2    1    2    0    0  0.00000000000E+00  0.00000000000E+00  0.18197743440E+03  0.22077153343E+03  0.12499713335E+03 0.  0.
    9000005    1    3    3    0    0  0.24621935071E+01 -0.11728401885E+02  0.19931175791E+03  0.19967422130E+03  0.10000000000E+01 0.  0.
    9000005    1    3    3    0    0 -0.24621935071E+01  0.11728401885E+02 -0.17334323518E+02  0.21097312138E+02  0.10000000000E+01 0.  0.
<mgrwt>
<rscale>  0 0.12499713E+03</rscale>
<asrwt>0</asrwt>
<pdfrwt beam="1">  1        4 0.30980690E-01 0.12499713E+03</pdfrwt>
<pdfrwt beam="2">  1       -4 0.29841615E-02 0.12499713E+03</pdfrwt>
<totfact> 0.86751965E+03</totfact>
</mgrwt>
</event>
<event>
 5    1  0.3235144E-002  0.1249998E+03  0.7818608E-02  0.1235070E+00
         -4   -1    0    0    0  501 -0.00000000000E+00  0.00000000000E+00  0.13838066864E+02  0.13896222311E+02  0.12700000000E+01 0.  1.
          4   -1    0    0  501    0  0.00000000000E+00 -0.00000000000E+00 -0.28163039392E+03  0.28163325741E+03  0.12700000000E+01 0.  1.
         25    2    1    2    0    0  0.00000000000E+00  0.00000000000E+00 -0.26779232705E+03  0.29552947972E+03  0.12499977182E+03 0.  0.
    9000005    1    3    3    0    0  0.53848476302E+02  0.13026581414E+02 -0.20225032952E+03  0.20970347164E+03  0.10000000000E+01 0.  0.
    9000005    1    3    3    0    0 -0.53848476302E+02 -0.13026581414E+02 -0.65541997530E+02  0.85826008084E+02  0.10000000000E+01 0.  0.
<mgrwt>
<rscale>  0 0.12499977E+03</rscale>
<asrwt>0</asrwt>
<pdfrwt beam="2">  1        4 0.43332442E-01 0.12499977E+03</pdfrwt>
<pdfrwt beam="1">  1       -4 0.21336273E-02 0.12499977E+03</pdfrwt>
<totfact> 0.76163444E+03</totfact>
</mgrwt>
</event>
<event>
 5    1  0.3235144E-002  0.1250005E+03  0.7818608E-02  0.1235068E+00
         -4   -1    0    0    0  501 -0.00000000000E+00  0.00000000000E+00  0.48757083553E+02  0.48773620909E+02  0.12700000000E+01 0. -1.
          4   -1    0    0  501    0  0.00000000000E+00 -0.00000000000E+00 -0.80082088207E+02  0.80092157866E+02  0.12700000000E+01 0. -1.
         25    2    1    2    0    0  0.00000000000E+00  0.00000000000E+00 -0.31325004655E+02  0.12886577877E+03  0.12500053209E+03 0.  0.
    9000005    1    3    3    0    0 -0.93621059283E+01 -0.21161450389E+02  0.44182730324E+02  0.49885565737E+02  0.10000000000E+01 0.  0.
    9000005    1    3    3    0    0  0.93621059283E+01  0.21161450389E+02 -0.75507734978E+02  0.78980213038E+02  0.10000000000E+01 0.  0.
<mgrwt>
<rscale>  0 0.12500053E+03</rscale>
<asrwt>0</asrwt>
<pdfrwt beam="2">  1        4 0.12322368E-01 0.12500053E+03</pdfrwt>
<pdfrwt beam="1">  1       -4 0.75031365E-02 0.12500053E+03</pdfrwt>
<totfact> 0.10368707E+04</totfact>
</mgrwt>
</event>
<event>
 5    1  0.3235144E-002  0.1249984E+03  0.7818608E-02  0.1235072E+00
         -4   -1    0    0    0  501 -0.00000000000E+00  0.00000000000E+00  0.20802054655E+03  0.20802442330E+03  0.12700000000E+01 0. -1.
          4   -1    0    0  501    0  0.00000000000E+00 -0.00000000000E+00 -0.18752192028E+02  0.18795148466E+02  0.12700000000E+01 0. -1.
         25    2    1    2    0    0  0.00000000000E+00  0.00000000000E+00  0.18926835453E+03  0.22681957176E+03  0.12499843243E+03 0.  0.
    9000005    1    3    3    0    0 -0.54301758605E+02  0.18543534226E+02  0.13954669746E+03  0.15088679340E+03  0.10000000000E+01 0.  0.
    9000005    1    3    3    0    0  0.54301758605E+02 -0.18543534226E+02  0.49721657063E+02  0.75932778365E+02  0.10000000000E+01 0.  0.
<mgrwt>
<rscale>  0 0.12499843E+03</rscale>
<asrwt>0</asrwt>
<pdfrwt beam="2">  1        4 0.28885553E-02 0.12499843E+03</pdfrwt>
<pdfrwt beam="1">  1       -4 0.32006762E-01 0.12499843E+03</pdfrwt>
<totfact> 0.85803362E+03</totfact>
</mgrwt>
</event>
<event>
 5    1  0.3235144E-002  0.1250029E+03  0.7818608E-02  0.1235065E+00
         -4   -1    0    0    0  501 -0.00000000000E+00  0.00000000000E+00  0.54334619763E+01  0.55799112043E+01  0.12700000000E+01 0. -1.
          4   -1    0    0  501    0  0.00000000000E+00 -0.00000000000E+00 -0.70925030330E+03  0.70925144034E+03  0.12700000000E+01 0. -1.
         25    2    1    2    0    0  0.00000000000E+00  0.00000000000E+00 -0.70381684132E+03  0.71483135155E+03  0.12500286007E+03 0.  0.
    9000005    1    3    3    0    0  0.55597331448E+02 -0.21768597149E+02 -0.45742924218E+03  0.46131057509E+03  0.10000000000E+01 0.  0.
    9000005    1    3    3    0    0 -0.55597331448E+02  0.21768597149E+02 -0.24638759914E+03  0.25352077646E+03  0.10000000000E+01 0.  0.
<mgrwt>
<rscale>  0 0.12500286E+03</rscale>
<asrwt>0</asrwt>
<pdfrwt beam="2">  1        4 0.10912671E+00 0.12500286E+03</pdfrwt>
<pdfrwt beam="1">  1       -4 0.84727058E-03 0.12500286E+03</pdfrwt>
<totfact> 0.42312623E+03</totfact>
</mgrwt>
</event>
<event>
 5    1  0.3235144E-002  0.1249983E+03  0.7818608E-02  0.1235072E+00
          4   -1    0    0  501    0  0.00000000000E+00  0.00000000000E+00  0.19542732798E+03  0.19543145453E+03  0.12700000000E+01 0. -1.
         -4   -1    0    0    0  501 -0.00000000000E+00 -0.00000000000E+00 -0.19963181903E+02  0.20003537979E+02  0.12700000000E+01 0. -1.
         25    2    1    2    0    0  0.00000000000E+00  0.00000000000E+00  0.17546414608E+03  0.21543499251E+03  0.12499827775E+03 0.  0.
    9000005    1    3    3    0    0  0.27821037441E+02  0.35579432782E+02  0.13296740260E+02  0.47092562713E+02  0.10000000000E+01 0.  0.
    9000005    1    3    3    0    0 -0.27821037441E+02 -0.35579432782E+02  0.16216740582E+03  0.16834242980E+03  0.10000000000E+01 0.  0.
<mgrwt>
<rscale>  0 0.12499828E+03</rscale>
<asrwt>0</asrwt>
<pdfrwt beam="1">  1        4 0.30069166E-01 0.12499828E+03</pdfrwt>
<pdfrwt beam="2">  1       -4 0.30746804E-02 0.12499828E+03</pdfrwt>
<totfact> 0.87599266E+03</totfact>
</mgrwt>
</event>
<event>
 5    1  0.3235144E-002  0.1249997E+03  0.7818608E-02  0.1235070E+00
         -4   -1    0    0    0  501 -0.00000000000E+00  0.00000000000E+00  0.96111093584E+02  0.96119484029E+02  0.12700000000E+01 0. -1.
          4   -1    0    0  501    0  0.00000000000E+00 -0.00000000000E+00 -0.40622787116E+02  0.40642634426E+02  0.12700000000E+01 0. -1.
         25    2    1    2    0    0  0.00000000000E+00  0.00000000000E+00  0.55488306468E+02  0.13676211845E+03  0.12499969956E+03 0.  0.
    9000005    1    3    3    0    0  0.20091971040E+02  0.47752504142E+02 -0.10490553569E+02  0.52868144154E+02  0.10000000000E+01 0.  0.
    9000005    1    3    3    0    0 -0.20091971040E+02 -0.47752504142E+02  0.65978860037E+02  0.83893974300E+02  0.10000000000E+01 0.  0.
<mgrwt>
<rscale>  0 0.12499970E+03</rscale>
<asrwt>0</asrwt>
<pdfrwt beam="2">  1        4 0.62518317E-02 0.12499970E+03</pdfrwt>
<pdfrwt beam="1">  1       -4 0.14788494E-01 0.12499970E+03</pdfrwt>
<totfact> 0.10201131E+04</totfact>
</mgrwt>
</event>
<event>
 5    1  0.3235144E-002  0.1250049E+03  0.7818608E-02  0.1235062E+00
          4   -1    0    0  501    0  0.00000000000E+00  0.00000000000E+00  0.74469557732E+02  0.74480386202E+02  0.12700000000E+01 0. -1.
         -4   -1    0    0    0  501 -0.00000000000E+00 -0.00000000000E+00 -0.52436139610E+02  0.52451517015E+02  0.12700000000E+01 0. -1.
         25    2    1    2    0    0  0.00000000000E+00  0.00000000000E+00  0.22033418122E+02  0.12693190322E+03  0.12500494606E+03 0.  0.
    9000005    1    3    3    0    0 -0.61792117978E+02  0.84455024336E+01  0.15074150491E+02  0.64170260780E+02  0.10000000000E+01 0.  0.
    9000005    1    3    3    0    0  0.61792117978E+02 -0.84455024336E+01  0.69592676308E+01  0.62761642438E+02  0.10000000000E+01 0.  0.
<mgrwt>
<rscale>  0 0.12500495E+03</rscale>
<asrwt>0</asrwt>
<pdfrwt beam="1">  1        4 0.11458871E-01 0.12500495E+03</pdfrwt>
<pdfrwt beam="2">  1       -4 0.80691143E-02 0.12500495E+03</pdfrwt>
<totfact> 0.10409463E+04</totfact>
</mgrwt>
</event>
<event>
 5    1  0.3235144E-002  0.1250023E+03  0.7818608E-02  0.1235066E+00
         -4   -1    0    0    0  501 -0.00000000000E+00  0.00000000000E+00  0.32926519812E+03  0.32926764735E+03  0.12700000000E+01 0. -1.
          4   -1    0    0  501    0  0.00000000000E+00 -0.00000000000E+00 -0.11827478044E+02  0.11895467073E+02  0.12700000000E+01 0. -1.
         25    2    1    2    0    0  0.00000000000E+00  0.00000000000E+00  0.31743772008E+03  0.34116311443E+03  0.12500225805E+03 0.  0.
    9000005    1    3    3    0    0  0.55194319389E+02 -0.13116399610E+02  0.23025130626E+03  0.23713944603E+03  0.10000000000E+01 0.  0.
    9000005    1    3    3    0    0 -0.55194319389E+02  0.13116399610E+02  0.87186413822E+02  0.10402366840E+03  0.10000000000E+01 0.  0.
<mgrwt>
<rscale>  0 0.12500226E+03</rscale>
<asrwt>0</asrwt>
<pdfrwt beam="2">  1        4 0.18250303E-02 0.12500226E+03</pdfrwt>
<pdfrwt beam="1">  1       -4 0.50661604E-01 0.12500226E+03</pdfrwt>
<totfact> 0.70704251E+03</totfact>
</mgrwt>
</event>
<event>
 5    1  0.3235144E-002  0.1250027E+03  0.7818608E-02  0.1235065E+00
         -4   -1    0    0    0  501 -0.00000000000E+00  0.00000000000E+00  0.46658173592E+02  0.46675454609E+02  0.12700000000E+01 0.  1.
          4   -1    0    0  501    0  0.00000000000E+00 -0.00000000000E+00 -0.83686598599E+02  0.83696234593E+02  0.12700000000E+01 0.  1.
         25    2    1    2    0    0  0.00000000000E+00  0.00000000000E+00 -0.37028425007E+02  0.13037168920E+03  0.12500269232E+03 0.  0.
    9000005    1    3    3    0    0 -0.13063372333E+02  0.24585781213E+02  0.39837998733E+02  0.48612534161E+02  0.10000000000E+01 0.  0.
    9000005    1    3    3    0    0  0.13063372333E+02 -0.24585781213E+02 -0.76866423739E+02  0.81759155041E+02  0.10000000000E+01 0.  0.
<mgrwt>
<rscale>  0 0.12500269E+03</rscale>
<asrwt>0</asrwt>
<pdfrwt beam="2">  1        4 0.12876932E-01 0.12500269E+03</pdfrwt>
<pdfrwt beam="1">  1       -4 0.71802511E-02 0.12500269E+03</pdfrwt>
<totfact> 0.10335935E+04</totfact>
</mgrwt>
</event>
<event>
 5    1  0.3235144E-002  0.1249996E+03  0.7818608E-02  0.1235070E+00
          4   -1    0    0  501    0  0.00000000000E+00  0.00000000000E+00  0.20116578573E+03  0.20116979457E+03  0.12700000000E+01 0. -1.
         -4   -1    0    0    0  501 -0.00000000000E+00 -0.00000000000E+00 -0.19392956795E+02  0.19434496989E+02  0.12700000000E+01 0. -1.
         25    2    1    2    0    0  0.00000000000E+00  0.00000000000E+00  0.18177282893E+03  0.22060429156E+03  0.12499956846E+03 0.  0.
    9000005    1    3    3    0    0  0.23856269683E+02  0.19113534632E+02 -0.53058760782E+01  0.31041925363E+02  0.10000000000E+01 0.  0.
    9000005    1    3    3    0    0 -0.23856269683E+02 -0.19113534632E+02  0.18707870501E+03  0.18956236619E+03  0.10000000000E+01 0.  0.
<mgrwt>
<rscale>  0 0.12499957E+03</rscale>
<asrwt>0</asrwt>
<pdfrwt beam="1">  1        4 0.30952086E-01 0.12499957E+03</pdfrwt>
<pdfrwt beam="2">  1       -4 0.29870356E-02 0.12499957E+03</pdfrwt>
<totfact> 0.86773655E+03</totfact>
</mgrwt>
</event>
<event>
 5    1  0.3235144E-002  0.1249991E+03  0.7818608E-02  0.1235071E+00
         -4   -1    0    0    0  501 -0.00000000000E+00  0.00000000000E+00  0.19369593724E+04  0.19369597887E+04  0.12700000000E+01 0.  1.
          4   -1    0    0  501    0  0.00000000000E+00 -0.00000000000E+00 -0.18162569847E+01  0.22162331634E+01  0.12700000000E+01 0.  1.
         25    2    1    2    0    0  0.00000000000E+00  0.00000000000E+00  0.19351431154E+04  0.19391760219E+04  0.12499906727E+03 0.  0.
    9000005    1    3    3    0    0 -0.59165380537E+01 -0.50929062546E+02  0.15218228672E+04  0.15226866434E+04  0.10000000000E+01 0.  0.
    9000005    1    3    3    0    0  0.59165380537E+01  0.50929062546E+02  0.41332024823E+03  0.41648937854E+03  0.10000000000E+01 0.  0.
<mgrwt>
<rscale>  0 0.12499907E+03</rscale>
<asrwt>0</asrwt>
<pdfrwt beam="2">  1        4 0.31022368E-03 0.12499907E+03</pdfrwt>
<pdfrwt beam="1">  1       -4 0.29802445E+00 0.12499907E+03</pdfrwt>
<totfact> 0.10676324E+03</totfact>
</mgrwt>
</event>
<event>
 5    1  0.3235144E-002  0.1249996E+03  0.7818608E-02  0.1235070E+00
          4   -1    0    0  501    0  0.00000000000E+00  0.00000000000E+00  0.12425996764E+03  0.12426645749E+03  0.12700000000E+01 0. -1.
         -4   -1    0    0    0  501 -0.00000000000E+00 -0.00000000000E+00 -0.31415755640E+02  0.31441415401E+02  0.12700000000E+01 0. -1.
         25    2    1    2    0    0  0.00000000000E+00  0.00000000000E+00  0.92844212001E+02  0.15570787290E+03  0.12499957592E+03 0.  0.
    9000005    1    3    3    0    0 -0.58926403234E+02  0.12578976030E+02  0.67066831640E+02  0.90163803947E+02  0.10000000000E+01 0.  0.
    9000005    1    3    3    0    0  0.58926403234E+02 -0.12578976030E+02  0.25777380361E+02  0.65544068948E+02  0.10000000000E+01 0.  0.
<mgrwt>
<rscale>  0 0.12499958E+03</rscale>
<asrwt>0</asrwt>
<pdfrwt beam="1">  1        4 0.19119391E-01 0.12499958E+03</pdfrwt>
<pdfrwt beam="2">  1       -4 0.48356661E-02 0.12499958E+03</pdfrwt>
<totfact> 0.98177649E+03</totfact>
</mgrwt>
</event>
<event>
 5    1  0.3235144E-002  0.1250003E+03  0.7818608E-02  0.1235069E+00
          4   -1    0    0  501    0  0.00000000000E+00  0.00000000000E+00  0.28924123958E+03  0.28924402773E+03  0.12700000000E+01 0.  1.
         -4   -1    0    0    0  501 -0.00000000000E+00 -0.00000000000E+00 -0.13472510883E+02  0.13532237416E+02  0.12700000000E+01 0.  1.
         25    2    1    2    0    0  0.00000000000E+00  0.00000000000E+00  0.27576872870E+03  0.30277626514E+03  0.12500030002E+03 0.  0.
    9000005    1    3    3    0    0  0.21541593757E+02  0.49304897975E+02  0.21487295851E+03  0.22150937119E+03  0.10000000000E+01 0.  0.
    9000005    1    3    3    0    0 -0.21541593757E+02 -0.49304897975E+02  0.60895770195E+02  0.81266893957E+02  0.10000000000E+01 0.  0.
<mgrwt>
<rscale>  0 0.12500030E+03</rscale>
<asrwt>0</asrwt>
<pdfrwt beam="1">  1        4 0.44503457E-01 0.12500030E+03</pdfrwt>
<pdfrwt beam="2">  1       -4 0.20775030E-02 0.12500030E+03</pdfrwt>
<totfact> 0.75251404E+03</totfact>
</mgrwt>
</event>
<event>
 5    1  0.3235144E-002  0.1250017E+03  0.7818608E-02  0.1235067E+00
          4   -1    0    0  501    0  0.00000000000E+00  0.00000000000E+00  0.66879360218E+01  0.68074509349E+01  0.12700000000E+01 0. -1.
         -4   -1    0    0    0  501 -0.00000000000E+00 -0.00000000000E+00 -0.57879730060E+03  0.57879869391E+03  0.12700000000E+01 0. -1.
         25    2    1    2    0    0  0.00000000000E+00  0.00000000000E+00 -0.57210936457E+03  0.58560614485E+03  0.12500172740E+03 0.  0.
    9000005    1    3    3    0    0  0.33964308981E+02  0.39966152571E+02 -0.12687605326E+03  0.13729311900E+03  0.10000000000E+01 0.  0.
    9000005    1    3    3    0    0 -0.33964308981E+02 -0.39966152571E+02 -0.44523331132E+03  0.44831302584E+03  0.10000000000E+01 0.  0.
<mgrwt>
<rscale>  0 0.12500173E+03</rscale>
<asrwt>0</asrwt>
<pdfrwt beam="1">  1        4 0.10382143E-02 0.12500173E+03</pdfrwt>
<pdfrwt beam="2">  1       -4 0.89055000E-01 0.12500173E+03</pdfrwt>
<totfact> 0.49787112E+03</totfact>
</mgrwt>
</event>
<event>
 5    1  0.3235144E-002  0.1249991E+03  0.7818608E-02  0.1235071E+00
          4   -1    0    0  501    0  0.00000000000E+00  0.00000000000E+00  0.12407907764E+03  0.12408557695E+03  0.12700000000E+01 0. -1.
         -4   -1    0    0    0  501 -0.00000000000E+00 -0.00000000000E+00 -0.31461325630E+02  0.31486948255E+02  0.12700000000E+01 0. -1.
         25    2    1    2    0    0  0.00000000000E+00  0.00000000000E+00  0.92617752008E+02  0.15557252521E+03  0.12499905045E+03 0.  0.
    9000005    1    3    3    0    0  0.59011219911E+02 -0.13816038092E+02  0.65265233646E+02  0.89071643674E+02  0.10000000000E+01 0.  0.
    9000005    1    3    3    0    0 -0.59011219911E+02  0.13816038092E+02  0.27352518362E+02  0.66500881533E+02  0.10000000000E+01 0.  0.
<mgrwt>
<rscale>  0 0.12499905E+03</rscale>
<asrwt>0</asrwt>
<pdfrwt beam="1">  1        4 0.19091560E-01 0.12499905E+03</pdfrwt>
<pdfrwt beam="2">  1       -4 0.48426748E-02 0.12499905E+03</pdfrwt>
<totfact> 0.98205319E+03</totfact>
</mgrwt>
</event>
<event>
 5    1  0.3235144E-002  0.1249990E+03  0.7818608E-02  0.1235071E+00
         -4   -1    0    0    0  501 -0.00000000000E+00  0.00000000000E+00  0.14156948683E+02  0.14213799492E+02  0.12700000000E+01 0.  1.
          4   -1    0    0  501    0  0.00000000000E+00 -0.00000000000E+00 -0.27530879570E+03  0.27531172494E+03  0.12700000000E+01 0.  1.
         25    2    1    2    0    0  0.00000000000E+00  0.00000000000E+00 -0.26115184702E+03  0.28952552443E+03  0.12499896839E+03 0.  0.
    9000005    1    3    3    0    0  0.33760885657E+02 -0.89455798956E+00 -0.25236143622E+03  0.25461322064E+03  0.10000000000E+01 0.  0.
    9000005    1    3    3    0    0 -0.33760885657E+02  0.89455798956E+00 -0.87904108022E+01  0.34912303797E+02  0.10000000000E+01 0.  0.
<mgrwt>
<rscale>  0 0.12499897E+03</rscale>
<asrwt>0</asrwt>
<pdfrwt beam="2">  1        4 0.42359794E-01 0.12499897E+03</pdfrwt>
<pdfrwt beam="1">  1       -4 0.21825908E-02 0.12499897E+03</pdfrwt>
<totfact> 0.76933572E+03</totfact>
</mgrwt>
</event>
<event>
 5    1  0.3235144E-002  0.1250015E+03  0.7818608E-02  0.1235067E+00
          4   -1    0    0  501    0  0.00000000000E+00  0.00000000000E+00  0.63344027550E+02  0.63356757542E+02  0.12700000000E+01 0. -1.
         -4   -1    0    0    0  501 -0.00000000000E+00 -0.00000000000E+00 -0.61643273039E+02  0.61656354182E+02  0.12700000000E+01 0. -1.
         25    2    1    2    0    0  0.00000000000E+00  0.00000000000E+00  0.17007545101E+01  0.12501311172E+03  0.12500154214E+03 0.  0.
    9000005    1    3    3    0    0 -0.16665157318E+02 -0.13029799476E+02 -0.57958494152E+02  0.61706484158E+02  0.10000000000E+01 0.  0.
    9000005    1    3    3    0    0  0.16665157318E+02  0.13029799476E+02  0.59659248662E+02  0.63306627566E+02  0.10000000000E+01 0.  0.
<mgrwt>
<rscale>  0 0.12500154E+03</rscale>
<asrwt>0</asrwt>
<pdfrwt beam="1">  1        4 0.97472205E-02 0.12500154E+03</pdfrwt>
<pdfrwt beam="2">  1       -4 0.94855660E-02 0.12500154E+03</pdfrwt>
<totfact> 0.10452213E+04</totfact>
</mgrwt>
</event>
<event>
 4    1  0.3235144E-002  0.1249380E+03  0.7818608E-02  0.1235166E+00
          4   -1    0    0  501    0  0.00000000000E+00  0.00000000000E+00  0.44208527982E+02  0.44226766176E+02  0.12700000000E+01 0.  1.
         -4   -1    0    0    0  501 -0.00000000000E+00 -0.00000000000E+00 -0.88230981494E+02  0.88240121234E+02  0.12700000000E+01 0.  1.
    9000005    1    1    2    0    0 -0.38512492471E+02  0.42382952789E+01  0.29932909600E+02  0.48970953639E+02  0.10000000000E+01 0.  0.
    9000005    1    1    2    0    0  0.38512492471E+02 -0.42382952789E+01 -0.73955363112E+02  0.83495933771E+02  0.10000000000E+01 0.  0.
<mgrwt>
<rscale>  0 0.12493798E+03</rscale>
<asrwt>0</asrwt>
<pdfrwt beam="1">  1        4 0.68034180E-02 0.12493798E+03</pdfrwt>
<pdfrwt beam="2">  1       -4 0.13576103E-01 0.12493798E+03</pdfrwt>
<totfact> 0.10306154E+04</totfact>
</mgrwt>
</event>
<event>
 5    1  0.3235144E-002  0.1249977E+03  0.7818608E-02  0.1235073E+00
          4   -1    0    0  501    0  0.00000000000E+00  0.00000000000E+00  0.14160069254E+02  0.14216907585E+02  0.12700000000E+01 0. -1.
         -4   -1    0    0    0  501 -0.00000000000E+00 -0.00000000000E+00 -0.27524267878E+03  0.27524560872E+03  0.12700000000E+01 0. -1.
         25    2    1    2    0    0  0.00000000000E+00  0.00000000000E+00 -0.26108260952E+03  0.28946251630E+03  0.12499767738E+03 0.  0.
    9000005    1    3    3    0    0 -0.40274786433E+02 -0.45855365077E+02 -0.99443718584E+02  0.11668258694E+03  0.10000000000E+01 0.  0.
    9000005    1    3    3    0    0  0.40274786433E+02  0.45855365077E+02 -0.16163889094E+03  0.17277992937E+03  0.10000000000E+01 0.  0.
<mgrwt>
<rscale>  0 0.12499768E+03</rscale>
<asrwt>0</asrwt>
<pdfrwt beam="1">  1        4 0.21830700E-02 0.12499768E+03</pdfrwt>
<pdfrwt beam="2">  1       -4 0.42349621E-01 0.12499768E+03</pdfrwt>
<totfact> 0.76943915E+03</totfact>
</mgrwt>
</event>
<event>
 5    1  0.3235144E-002  0.1250006E+03  0.7818608E-02  0.1235068E+00
          4   -1    0    0  501    0  0.00000000000E+00  0.00000000000E+00  0.89233557692E+02  0.89242594754E+02  0.12700000000E+01 0. -1.
         -4   -1    0    0    0  501 -0.00000000000E+00 -0.00000000000E+00 -0.43755532538E+02  0.43773959470E+02  0.12700000000E+01 0. -1.
         25    2    1    2    0    0  0.00000000000E+00  0.00000000000E+00  0.45478025154E+02  0.13301655422E+03  0.12500061170E+03 0.  0.
    9000005    1    3    3    0    0 -0.53400015456E+02 -0.32089871541E+02  0.17529490247E+02  0.64727154537E+02  0.10000000000E+01 0.  0.
    9000005    1    3    3    0    0  0.53400015456E+02  0.32089871541E+02  0.27948534907E+02  0.68289399687E+02  0.10000000000E+01 0.  0.
<mgrwt>
<rscale>  0 0.12500061E+03</rscale>
<asrwt>0</asrwt>
<pdfrwt beam="1">  1        4 0.13730352E-01 0.12500061E+03</pdfrwt>
<pdfrwt beam="2">  1       -4 0.67337331E-02 0.12500061E+03</pdfrwt>
<totfact> 0.10279906E+04</totfact>
</mgrwt>
</event>
<event>
 5    1  0.3235144E-002  0.1250077E+03  0.7818608E-02  0.1235057E+00
         -4   -1    0    0    0  501 -0.00000000000E+00  0.00000000000E+00  0.13531771372E+02  0.13591237488E+02  0.12700000000E+01 0. -1.
          4   -1    0    0  501    0  0.00000000000E+00 -0.00000000000E+00 -0.28801428834E+03  0.28801708836E+03  0.12700000000E+01 0. -1.
         25    2    1    2    0    0  0.00000000000E+00  0.00000000000E+00 -0.27448251696E+03  0.30160832585E+03  0.12500772016E+03 0.  0.
    9000005    1    3    3    0    0  0.56355497355E+02 -0.11103953747E+02 -0.19665942736E+03  0.20487842795E+03  0.10000000000E+01 0.  0.
    9000005    1    3    3    0    0 -0.56355497355E+02  0.11103953747E+02 -0.77823089608E+02  0.96729897896E+02  0.10000000000E+01 0.  0.
<mgrwt>
<rscale>  0 0.12500772E+03</rscale>
<asrwt>0</asrwt>
<pdfrwt beam="2">  1        4 0.44314676E-01 0.12500772E+03</pdfrwt>
<pdfrwt beam="1">  1       -4 0.20866009E-02 0.12500772E+03</pdfrwt>
<totfact> 0.75384618E+03</totfact>
</mgrwt>
</event>
<event>
 5    1  0.3235144E-002  0.1249980E+03  0.7818608E-02  0.1235072E+00
          4   -1    0    0  501    0  0.00000000000E+00  0.00000000000E+00  0.21096815904E+01  0.24624492711E+01  0.12700000000E+01 0.  1.
         -4   -1    0    0    0  501 -0.00000000000E+00 -0.00000000000E+00 -0.17083151273E+04  0.17083155994E+04  0.12700000000E+01 0.  1.
         25    2    1    2    0    0  0.00000000000E+00  0.00000000000E+00 -0.17062054457E+04  0.17107780487E+04  0.12499803500E+03 0.  0.
    9000005    1    3    3    0    0  0.29587832442E+02  0.68004926050E+01 -0.16006681107E+04  0.16009563039E+04  0.10000000000E+01 0.  0.
    9000005    1    3    3    0    0 -0.29587832442E+02 -0.68004926050E+01 -0.10553733505E+03  0.10982174474E+03  0.10000000000E+01 0.  0.
<mgrwt>
<rscale>  0 0.12499804E+03</rscale>
<asrwt>0</asrwt>
<pdfrwt beam="1">  1        4 0.35174005E-03 0.12499804E+03</pdfrwt>
<pdfrwt beam="2">  1       -4 0.26284386E+00 0.12499804E+03</pdfrwt>
<totfact> 0.14129600E+03</totfact>
</mgrwt>
</event>
<event>
 5    1  0.3235144E-002  0.1250006E+03  0.7818608E-02  0.1235068E+00
         -4   -1    0    0    0  501 -0.00000000000E+00  0.00000000000E+00  0.10971599086E+03  0.10972334095E+03  0.12700000000E+01 0. -1.
          4   -1    0    0  501    0  0.00000000000E+00 -0.00000000000E+00 -0.35583753136E+02  0.35606409356E+02  0.12700000000E+01 0. -1.
         25    2    1    2    0    0  0.00000000000E+00  0.00000000000E+00  0.74132237723E+02  0.14532975031E+03  0.12500059062E+03 0.  0.
    9000005    1    3    3    0    0  0.23023890504E+01  0.33945685280E+02 -0.23877080766E+02  0.41577945240E+02  0.10000000000E+01 0.  0.
    9000005    1    3    3    0    0 -0.23023890504E+01 -0.33945685280E+02  0.98009318489E+02  0.10375180507E+03  0.10000000000E+01 0.  0.
<mgrwt>
<rscale>  0 0.12500059E+03</rscale>
<asrwt>0</asrwt>
<pdfrwt beam="2">  1        4 0.54767318E-02 0.12500059E+03</pdfrwt>
<pdfrwt beam="1">  1       -4 0.16881691E-01 0.12500059E+03</pdfrwt>
<totfact> 0.10024160E+04</totfact>
</mgrwt>
</event>
<event>
 5    1  0.3235144E-002  0.1249987E+03  0.7818608E-02  0.1235071E+00
          4   -1    0    0  501    0  0.00000000000E+00  0.00000000000E+00  0.23635700456E+01  0.26831629396E+01  0.12700000000E+01 0. -1.
         -4   -1    0    0    0  501 -0.00000000000E+00 -0.00000000000E+00 -0.15476793922E+04  0.15476799132E+04  0.12700000000E+01 0. -1.
         25    2    1    2    0    0  0.00000000000E+00  0.00000000000E+00 -0.15453158221E+04  0.15503630762E+04  0.12499871149E+03 0.  0.
    9000005    1    3    3    0    0  0.23991901388E+02 -0.11825668043E+02 -0.14731505838E+04  0.14733937356E+04  0.10000000000E+01 0.  0.
    9000005    1    3    3    0    0 -0.23991901388E+02  0.11825668043E+02 -0.72165238380E+02  0.76969340567E+02  0.10000000000E+01 0.  0.
<mgrwt>
<rscale>  0 0.12499871E+03</rscale>
<asrwt>0</asrwt>
<pdfrwt beam="1">  1        4 0.38825155E-03 0.12499871E+03</pdfrwt>
<pdfrwt beam="2">  1       -4 0.23812839E+00 0.12499871E+03</pdfrwt>
<totfact> 0.16961965E+03</totfact>
</mgrwt>
</event>
<event>
 5    1  0.3235144E-002  0.1249983E+03  0.7818608E-02  0.1235072E+00
         -4   -1    0    0    0  501 -0.00000000000E+00  0.00000000000E+00  0.34442057235E+01  0.36708926797E+01  0.12700000000E+01 0.  1.
          4   -1    0    0  501    0  0.00000000000E+00 -0.00000000000E+00 -0.10977599729E+04  0.10977607075E+04  0.12700000000E+01 0.  1.
         25    2    1    2    0    0  0.00000000000E+00  0.00000000000E+00 -0.10943157672E+04  0.11014316002E+04  0.12499828660E+03 0.  0.
    9000005    1    3    3    0    0 -0.41834431110E+02  0.38931247367E+02 -0.32434852638E+03  0.32934590966E+03  0.10000000000E+01 0.  0.
    9000005    1    3    3    0    0  0.41834431110E+02 -0.38931247367E+02 -0.76996724080E+03  0.77208569055E+03  0.10000000000E+01 0.  0.
<mgrwt>
<rscale>  0 0.12499829E+03</rscale>
<asrwt>0</asrwt>
<pdfrwt beam="2">  1        4 0.16890337E+00 0.12499829E+03</pdfrwt>
<pdfrwt beam="1">  1       -4 0.54737265E-03 0.12499829E+03</pdfrwt>
<totfact> 0.27442604E+03</totfact>
</mgrwt>
</event>
<event>
 5    1  0.3235144E-002  0.1249995E+03  0.7818608E-02  0.1235070E+00
         -4   -1    0    0    0  501 -0.00000000000E+00  0.00000000000E+00  0.43280031624E+03  0.43280217957E+03  0.12700000000E+01 0.  1.
          4   -1    0    0  501    0  0.00000000000E+00 -0.00000000000E+00 -0.89788837469E+01  0.90682552533E+01  0.12700000000E+01 0.  1.
         25    2    1    2    0    0  0.00000000000E+00  0.00000000000E+00  0.42382143249E+03  0.44187043482E+03  0.12499949811E+03 0.  0.
    9000005    1    3    3    0    0  0.61716897350E+02  0.78718792184E+01  0.23260671420E+03  0.24078584965E+03  0.10000000000E+01 0.  0.
    9000005    1    3    3    0    0 -0.61716897350E+02 -0.78718792184E+01  0.19121471830E+03  0.20108458517E+03  0.10000000000E+01 0.  0.
<mgrwt>
<rscale>  0 0.12499950E+03</rscale>
<asrwt>0</asrwt>
<pdfrwt beam="2">  1        4 0.13883849E-02 0.12499950E+03</pdfrwt>
<pdfrwt beam="1">  1       -4 0.66591675E-01 0.12499950E+03</pdfrwt>
<totfact> 0.60675225E+03</totfact>
</mgrwt>
</event>
<event>
 5    1  0.3235144E-002  0.1250034E+03  0.7818608E-02  0.1235064E+00
          4   -1    0    0  501    0  0.00000000000E+00  0.00000000000E+00  0.49539525338E+02  0.49555801584E+02  0.12700000000E+01 0. -1.
         -4   -1    0    0    0  501 -0.00000000000E+00 -0.00000000000E+00 -0.78821148870E+02  0.78831379597E+02  0.12700000000E+01 0. -1.
         25    2    1    2    0    0  0.00000000000E+00  0.00000000000E+00 -0.29281623533E+02  0.12838718118E+03  0.12500341921E+03 0.  0.
    9000005    1    3    3    0    0 -0.17072977290E+02  0.51063034416E+02  0.17944064904E+02  0.56761866623E+02  0.10000000000E+01 0.  0.
    9000005    1    3    3    0    0  0.17072977290E+02 -0.51063034416E+02 -0.47225688437E+02  0.71625314559E+02  0.10000000000E+01 0.  0.
<mgrwt>
<rscale>  0 0.12500342E+03</rscale>
<asrwt>0</asrwt>
<pdfrwt beam="1">  1        4 0.76235044E-02 0.12500342E+03</pdfrwt>
<pdfrwt beam="2">  1       -4 0.12128370E-01 0.12500342E+03</pdfrwt>
<totfact> 0.10378333E+04</totfact>
</mgrwt>
</event>
<event>
 5    1  0.3235144E-002  0.1249973E+03  0.7818608E-02  0.1235074E+00
         -4   -1    0    0    0  501 -0.00000000000E+00  0.00000000000E+00  0.87020260707E+02  0.87029527595E+02  0.12700000000E+01 0. -1.
          4   -1    0    0  501    0  0.00000000000E+00 -0.00000000000E+00 -0.44866361595E+02  0.44884332486E+02  0.12700000000E+01 0. -1.
         25    2    1    2    0    0  0.00000000000E+00  0.00000000000E+00  0.42153899112E+02  0.13191386008E+03  0.12499726106E+03 0.  0.
    9000005    1    3    3    0    0 -0.53124392868E+02  0.28360283262E+02  0.34629212748E+01  0.60328257127E+02  0.10000000000E+01 0.  0.
    9000005    1    3    3    0    0  0.53124392868E+02 -0.28360283262E+02  0.38690977837E+02  0.71585602954E+02  0.10000000000E+01 0.  0.
<mgrwt>
<rscale>  0 0.12499726E+03</rscale>
<asrwt>0</asrwt>
<pdfrwt beam="2">  1        4 0.69046124E-02 0.12499726E+03</pdfrwt>
<pdfrwt beam="1">  1       -4 0.13389828E-01 0.12499726E+03</pdfrwt>
<totfact> 0.10304174E+04</totfact>
</mgrwt>
</event>
<event>
 5    1  0.3235144E-002  0.1249988E+03  0.7818608E-02  0.1235071E+00
         -4   -1    0    0    0  501 -0.00000000000E+00  0.00000000000E+00  0.17508182721E+03  0.17508643329E+03  0.12700000000E+01 0.  1.
          4   -1    0    0  501    0  0.00000000000E+00 -0.00000000000E+00 -0.22287577671E+02  0.22323732179E+02  0.12700000000E+01 0.  1.
         25    2    1    2    0    0  0.00000000000E+00  0.00000000000E+00  0.15279424954E+03  0.19741016547E+03  0.12499876294E+03 0.  0.
    9000005    1    3    3    0    0 -0.32693521571E+02 -0.12916132355E+02  0.15799467524E+03  0.16186108313E+03  0.10000000000E+01 0.  0.
    9000005    1    3    3    0    0  0.32693521571E+02  0.12916132355E+02 -0.52004256931E+01  0.35549082339E+02  0.10000000000E+01 0.  0.
<mgrwt>
<rscale>  0 0.12499876E+03</rscale>
<asrwt>0</asrwt>
<pdfrwt beam="2">  1        4 0.34319937E-02 0.12499876E+03</pdfrwt>
<pdfrwt beam="1">  1       -4 0.26938800E-01 0.12499876E+03</pdfrwt>
<totfact> 0.90576225E+03</totfact>
</mgrwt>
</event>
<event>
 5    1  0.3235144E-002  0.1249978E+03  0.7818608E-02  0.1235073E+00
          4   -1    0    0  501    0  0.00000000000E+00  0.00000000000E+00  0.20513397218E+02  0.20552672950E+02  0.12700000000E+01 0. -1.
         -4   -1    0    0    0  501 -0.00000000000E+00 -0.00000000000E+00 -0.19019419352E+03  0.19019843361E+03  0.12700000000E+01 0. -1.
         25    2    1    2    0    0  0.00000000000E+00  0.00000000000E+00 -0.16968079630E+03  0.21075110657E+03  0.12499782512E+03 0.  0.
    9000005    1    3    3    0    0  0.24358202804E+02  0.90992922519E+01 -0.18064824653E+03  0.18251276158E+03  0.10000000000E+01 0.  0.
    9000005    1    3    3    0    0 -0.24358202804E+02 -0.90992922519E+01  0.10967450225E+02  0.28238344990E+02  0.10000000000E+01 0.  0.
<mgrwt>
<rscale>  0 0.12499783E+03</rscale>
<asrwt>0</asrwt>
<pdfrwt beam="1">  1        4 0.31592548E-02 0.12499783E+03</pdfrwt>
<pdfrwt beam="2">  1       -4 0.29263991E-01 0.12499783E+03</pdfrwt>
<totfact> 0.88357658E+03</totfact>
</mgrwt>
</event>
<event>
 5    1  0.3235144E-002  0.1249991E+03  0.7818608E-02  0.1235071E+00
         -4   -1    0    0    0  501 -0.00000000000E+00  0.00000000000E+00  0.12757880298E+02  0.12820936381E+02  0.12700000000E+01 0.  1.
          4   -1    0    0  501    0  0.00000000000E+00 -0.00000000000E+00 -0.30535985495E+03  0.30536249592E+03  0.12700000000E+01 0.  1.
         25    2    1    2    0    0  0.00000000000E+00  0.00000000000E+00 -0.29260197465E+03  0.31818343230E+03  0.12499912408E+03 0.  0.
    9000005    1    3    3    0    0 -0.59288185038E+02 -0.11954523158E+02 -0.18632227790E+03  0.19589535663E+03  0.10000000000E+01 0.  0.
    9000005    1    3    3    0    0  0.59288185038E+02  0.11954523158E+02 -0.10627969676E+03  0.12228807567E+03  0.10000000000E+01 0.  0.
<mgrwt>
<rscale>  0 0.12499912E+03</rscale>
<asrwt>0</asrwt>
<pdfrwt beam="2">  1        4 0.46983487E-01 0.12499912E+03</pdfrwt>
<pdfrwt beam="1">  1       -4 0.19678047E-02 0.12499912E+03</pdfrwt>
<totfact> 0.73374131E+03</totfact>
</mgrwt>
</event>
<event>
 5    1  0.3235144E-002  0.1250000E+03  0.7818608E-02  0.1235069E+00
         -4   -1    0    0    0  501 -0.00000000000E+00  0.00000000000E+00  0.28645202894E+03  0.28645484424E+03  0.12700000000E+01 0. -1.
          4   -1    0    0  501    0  0.00000000000E+00 -0.00000000000E+00 -0.13604208399E+02  0.13663359257E+02  0.12700000000E+01 0. -1.
         25    2    1    2    0    0  0.00000000000E+00  0.00000000000E+00  0.27284782054E+03  0.30011820349E+03  0.12500001157E+03 0.  0.
    9000005    1    3    3    0    0  0.15834581361E+02  0.60161176588E+02  0.12218940421E+03  0.13711802083E+03  0.10000000000E+01 0.  0.
    9000005    1    3    3    0    0 -0.15834581361E+02 -0.60161176588E+02  0.15065841634E+03  0.16300018267E+03  0.10000000000E+01 0.  0.
<mgrwt>
<rscale>  0 0.12500001E+03</rscale>
<asrwt>0</asrwt>
<pdfrwt beam="2">  1        4 0.20977216E-02 0.12500001E+03</pdfrwt>
<pdfrwt beam="1">  1       -4 0.44074312E-01 0.12500001E+03</pdfrwt>
<totfact> 0.75583991E+03</totfact>
</mgrwt>
</event>
<event>
 5    1  0.3235144E-002  0.1249998E+03  0.7818608E-02  0.1235070E+00
         -4   -1    0    0    0  501 -0.00000000000E+00  0.00000000000E+00  0.30090886965E+03  0.30091154968E+03  0.12700000000E+01 0.  1.
          4   -1    0    0  501    0  0.00000000000E+00 -0.00000000000E+00 -0.12947663220E+02  0.13009799494E+02  0.12700000000E+01 0.  1.
         25    2    1    2    0    0  0.00000000000E+00  0.00000000000E+00  0.28796120643E+03  0.31392134918E+03  0.12499982825E+03 0.  0.
    9000005    1    3    3    0    0  0.49406632310E+02  0.18983777148E+02  0.22741872705E+03  0.23349877200E+03  0.10000000000E+01 0.  0.
    9000005    1    3    3    0    0 -0.49406632310E+02 -0.18983777148E+02  0.60542479374E+02  0.80422577177E+02  0.10000000000E+01 0.  0.
<mgrwt>
<rscale>  0 0.12499983E+03</rscale>
<asrwt>0</asrwt>
<pdfrwt beam="2">  1        4 0.19969342E-02 0.12499983E+03</pdfrwt>
<pdfrwt beam="1">  1       -4 0.46298655E-01 0.12499983E+03</pdfrwt>
<totfact> 0.73885263E+03</totfact>
</mgrwt>
</event>
<event>
 5    1  0.3235144E-002  0.1249970E+03  0.7818608E-02  0.1235074E+00
         -4   -1    0    0    0  501 -0.00000000000E+00  0.00000000000E+00  0.29375213316E+02  0.29402653917E+02  0.12700000000E+01 0.  1.
          4   -1    0    0  501    0  0.00000000000E+00 -0.00000000000E+00 -0.13287886078E+03  0.13288492970E+03  0.12700000000E+01 0.  1.
         25    2    1    2    0    0  0.00000000000E+00  0.00000000000E+00 -0.10350364746E+03  0.16228758362E+03  0.12499701900E+03 0.  0.
    9000005    1    3    3    0    0 -0.25634104006E+02 -0.43104760462E+02 -0.10015602343E+03  0.11201498423E+03  0.10000000000E+01 0.  0.
    9000005    1    3    3    0    0  0.25634104006E+02  0.43104760462E+02 -0.33476240326E+01  0.50272599389E+02  0.10000000000E+01 0.  0.
<mgrwt>
<rscale>  0 0.12499702E+03</rscale>
<asrwt>0</asrwt>
<pdfrwt beam="2">  1        4 0.20445479E-01 0.12499702E+03</pdfrwt>
<pdfrwt beam="1">  1       -4 0.45218413E-02 0.12499702E+03</pdfrwt>
<totfact> 0.96910053E+03</totfact>
</mgrwt>
</event>
<event>
 5    1  0.3235144E-002  0.1249975E+03  0.7818608E-02  0.1235073E+00
          4   -1    0    0  501    0  0.00000000000E+00  0.00000000000E+00  0.42952733074E+03  0.42952920827E+03  0.12700000000E+01 0.  1.
         -4   -1    0    0    0  501 -0.00000000000E+00 -0.00000000000E+00 -0.90476865534E+01  0.91363850602E+01  0.12700000000E+01 0.  1.
         25    2    1    2    0    0  0.00000000000E+00  0.00000000000E+00  0.42047964419E+03  0.43866559333E+03  0.12499748634E+03 0.  0.
    9000005    1    3    3    0    0 -0.44724201866E+01  0.39603869435E+02  0.41327996083E+02  0.57423621244E+02  0.10000000000E+01 0.  0.
    9000005    1    3    3    0    0  0.44724201866E+01 -0.39603869435E+02  0.37915164811E+03  0.38124197208E+03  0.10000000000E+01 0.  0.
<mgrwt>
<rscale>  0 0.12499749E+03</rscale>
<asrwt>0</asrwt>
<pdfrwt beam="1">  1        4 0.66088095E-01 0.12499749E+03</pdfrwt>
<pdfrwt beam="2">  1       -4 0.13989192E-02 0.12499749E+03</pdfrwt>
<totfact> 0.60961663E+03</totfact>
</mgrwt>
</event>
<event>
 5    1  0.3235144E-002  0.1249713E+03  0.7818608E-02  0.1235114E+00
         -4   -1    0    0    0  501 -0.00000000000E+00  0.00000000000E+00  0.31756702605E+02  0.31782087099E+02  0.12700000000E+01 0.  1.
          4   -1    0    0  501    0  0.00000000000E+00 -0.00000000000E+00 -0.12287119042E+03  0.12287775362E+03  0.12700000000E+01 0.  1.
         25    2    1    2    0    0  0.00000000000E+00  0.00000000000E+00 -0.91114487810E+02  0.15465984072E+03  0.12497126246E+03 0.  0.
    9000005    1    3    3    0    0  0.17929838536E+02 -0.51469484504E+02 -0.77585054730E+01  0.55061614144E+02  0.10000000000E+01 0.  0.
    9000005    1    3    3    0    0 -0.17929838536E+02  0.51469484504E+02 -0.83355982337E+02  0.99598226573E+02  0.10000000000E+01 0.  0.
<mgrwt>
<rscale>  0 0.12497126E+03</rscale>
<asrwt>0</asrwt>
<pdfrwt beam="2">  1        4 0.18905717E-01 0.12497126E+03</pdfrwt>
<pdfrwt beam="1">  1       -4 0.48881041E-02 0.12497126E+03</pdfrwt>
<totfact> 0.98445932E+03</totfact>
</mgrwt>
</event>
<event>
 5    1  0.3235144E-002  0.1249912E+03  0.7818608E-02  0.1235083E+00
         -4   -1    0    0    0  501 -0.00000000000E+00  0.00000000000E+00  0.64795992765E+03  0.64796117225E+03  0.12700000000E+01 0. -1.
          4   -1    0    0  501    0  0.00000000000E+00 -0.00000000000E+00 -0.59595287793E+01  0.60933474602E+01  0.12700000000E+01 0. -1.
         25    2    1    2    0    0  0.00000000000E+00  0.00000000000E+00  0.64200039887E+03  0.65405451971E+03  0.12499121009E+03 0.  0.
    9000005    1    3    3    0    0  0.25677282344E+02 -0.29445105637E+02  0.65804353333E+02  0.76534632632E+02  0.10000000000E+01 0.  0.
    9000005    1    3    3    0    0 -0.25677282344E+02  0.29445105637E+02  0.57619604554E+03  0.57751988708E+03  0.10000000000E+01 0.  0.
<mgrwt>
<rscale>  0 0.12499121E+03</rscale>
<asrwt>0</asrwt>
<pdfrwt beam="2">  1        4 0.92724087E-03 0.12499121E+03</pdfrwt>
<pdfrwt beam="1">  1       -4 0.99696445E-01 0.12499121E+03</pdfrwt>
<totfact> 0.45632717E+03</totfact>
</mgrwt>
</event>
<event>
 5    1  0.3235144E-002  0.1249889E+03  0.7818608E-02  0.1235087E+00
         -4   -1    0    0    0  501 -0.00000000000E+00  0.00000000000E+00  0.26225838307E+03  0.26226145808E+03  0.12700000000E+01 0.  1.
          4   -1    0    0  501    0  0.00000000000E+00 -0.00000000000E+00 -0.14861764355E+02  0.14915929061E+02  0.12700000000E+01 0.  1.
         25    2    1    2    0    0  0.00000000000E+00  0.00000000000E+00  0.24739661872E+03  0.27717738714E+03  0.12498886745E+03 0.  0.
    9000005    1    3    3    0    0  0.27322375363E+02 -0.39645288483E+02  0.35374419321E+02  0.59754586742E+02  0.10000000000E+01 0.  0.
    9000005    1    3    3    0    0 -0.27322375363E+02  0.39645288483E+02  0.21202219940E+03  0.21742280040E+03  0.10000000000E+01 0.  0.
<mgrwt>
<rscale>  0 0.12498887E+03</rscale>
<asrwt>0</asrwt>
<pdfrwt beam="2">  1        4 0.22908283E-02 0.12498887E+03</pdfrwt>
<pdfrwt beam="1">  1       -4 0.40351847E-01 0.12498887E+03</pdfrwt>
<totfact> 0.78573301E+03</totfact>
</mgrwt>
</event>
<event>
 5    1  0.3235144E-002  0.1249992E+03  0.7818608E-02  0.1235071E+00
          4   -1    0    0  501    0  0.00000000000E+00  0.00000000000E+00  0.20239576947E+03  0.20239975395E+03  0.12700000000E+01 0. -1.
         -4   -1    0    0    0  501 -0.00000000000E+00 -0.00000000000E+00 -0.19274737871E+02  0.19316532298E+02  0.12700000000E+01 0. -1.
         25    2    1    2    0    0  0.00000000000E+00  0.00000000000E+00  0.18312103160E+03  0.22171628625E+03  0.12499919749E+03 0.  0.
    9000005    1    3    3    0    0 -0.54052752599E+02  0.40839381420E+01  0.36408237221E+02  0.65306495480E+02  0.10000000000E+01 0.  0.
    9000005    1    3    3    0    0  0.54052752599E+02 -0.40839381420E+01  0.14671279438E+03  0.15640979077E+03  0.10000000000E+01 0.  0.
<mgrwt>
<rscale>  0 0.12499920E+03</rscale>
<asrwt>0</asrwt>
<pdfrwt beam="1">  1        4 0.31141332E-01 0.12499920E+03</pdfrwt>
<pdfrwt beam="2">  1       -4 0.29688658E-02 0.12499920E+03</pdfrwt>
<totfact> 0.86599048E+03</totfact>
</mgrwt>
</event>
<event>
 5    1  0.3235144E-002  0.1250092E+03  0.7818608E-02  0.1235055E+00
         -4   -1    0    0    0  501 -0.00000000000E+00  0.00000000000E+00  0.53737866199E+02  0.53752871213E+02  0.12700000000E+01 0. -1.
          4   -1    0    0  501    0  0.00000000000E+00 -0.00000000000E+00 -0.72670872422E+02  0.72681968868E+02  0.12700000000E+01 0. -1.
         25    2    1    2    0    0  0.00000000000E+00  0.00000000000E+00 -0.18933006223E+02  0.12643484008E+03  0.12500923991E+03 0.  0.
    9000005    1    3    3    0    0  0.26902752603E+02 -0.88927909682E+01  0.46873215704E+02  0.54780819446E+02  0.10000000000E+01 0.  0.
    9000005    1    3    3    0    0 -0.26902752603E+02  0.88927909682E+01 -0.65806221927E+02  0.71654020635E+02  0.10000000000E+01 0.  0.
<mgrwt>
<rscale>  0 0.12500924E+03</rscale>
<asrwt>0</asrwt>
<pdfrwt beam="2">  1        4 0.11182142E-01 0.12500924E+03</pdfrwt>
<pdfrwt beam="1">  1       -4 0.82693718E-02 0.12500924E+03</pdfrwt>
<totfact> 0.10419276E+04</totfact>
</mgrwt>
</event>
<event>
 5    1  0.3235144E-002  0.1250006E+03  0.7818608E-02  0.1235068E+00
         -4   -1    0    0    0  501 -0.00000000000E+00  0.00000000000E+00  0.50903347258E+02  0.50919187563E+02  0.12700000000E+01 0. -1.
          4   -1    0    0  501    0  0.00000000000E+00 -0.00000000000E+00 -0.76706327276E+02  0.76716840030E+02  0.12700000000E+01 0. -1.
         25    2    1    2    0    0  0.00000000000E+00  0.00000000000E+00 -0.25802980018E+02  0.12763602759E+03  0.12500064705E+03 0.  0.
    9000005    1    3    3    0    0 -0.51509694803E+02  0.23896406139E+02 -0.39547716057E+02  0.69204831698E+02  0.10000000000E+01 0.  0.
    9000005    1    3    3    0    0  0.51509694803E+02 -0.23896406139E+02  0.13744736038E+02  0.58431195895E+02  0.10000000000E+01 0.  0.
<mgrwt>
<rscale>  0 0.12500065E+03</rscale>
<asrwt>0</asrwt>
<pdfrwt beam="2">  1        4 0.11803001E-01 0.12500065E+03</pdfrwt>
<pdfrwt beam="1">  1       -4 0.78333114E-02 0.12500065E+03</pdfrwt>
<totfact> 0.10395204E+04</totfact>
</mgrwt>
</event>
<event>
 5    1  0.3235144E-002  0.1250004E+03  0.7818608E-02  0.1235069E+00
          4   -1    0    0  501    0  0.00000000000E+00  0.00000000000E+00  0.25829852713E+02  0.25861055492E+02  0.12700000000E+01 0.  1.
         -4   -1    0    0    0  501 -0.00000000000E+00 -0.00000000000E+00 -0.15110597684E+03  0.15111131373E+03  0.12700000000E+01 0.  1.
         25    2    1    2    0    0  0.00000000000E+00  0.00000000000E+00 -0.12527612413E+03  0.17697236922E+03  0.12500044877E+03 0.  0.
    9000005    1    3    3    0    0 -0.62462495541E+02 -0.17408334607E+01 -0.61466987248E+02  0.87657198060E+02  0.10000000000E+01 0.  0.
    9000005    1    3    3    0    0  0.62462495541E+02  0.17408334607E+01 -0.63809136884E+02  0.89315171165E+02  0.10000000000E+01 0.  0.
<mgrwt>
<rscale>  0 0.12500045E+03</rscale>
<asrwt>0</asrwt>
<pdfrwt beam="1">  1        4 0.39766343E-02 0.12500045E+03</pdfrwt>
<pdfrwt beam="2">  1       -4 0.23249884E-01 0.12500045E+03</pdfrwt>
<totfact> 0.94163895E+03</totfact>
</mgrwt>
</event>
<event>
 5    1  0.3235144E-002  0.1249962E+03  0.7818608E-02  0.1235075E+00
          4   -1    0    0  501    0  0.00000000000E+00  0.00000000000E+00  0.14272680630E+04  0.14272686281E+04  0.12700000000E+01 0. -1.
         -4   -1    0    0    0  501 -0.00000000000E+00 -0.00000000000E+00 -0.25887697626E+01  0.28835098203E+01  0.12700000000E+01 0. -1.
         25    2    1    2    0    0  0.00000000000E+00  0.00000000000E+00  0.14246792933E+04  0.14301521379E+04  0.12499619522E+03 0.  0.
    9000005    1    3    3    0    0 -0.45379591398E+02  0.42687375625E+02  0.65688303693E+03  0.65983167820E+03  0.10000000000E+01 0.  0.
    9000005    1    3    3    0    0  0.45379591398E+02 -0.42687375625E+02  0.76779625635E+03  0.77032045969E+03  0.10000000000E+01 0.  0.
<mgrwt>
<rscale>  0 0.12499620E+03</rscale>
<asrwt>0</asrwt>
<pdfrwt beam="1">  1        4 0.21960258E+00 0.12499620E+03</pdfrwt>
<pdfrwt beam="2">  1       -4 0.42098774E-03 0.12499620E+03</pdfrwt>
<totfact> 0.19344568E+03</totfact>
</mgrwt>
</event>
<event>
 5    1  0.3235144E-002  0.1250032E+03  0.7818608E-02  0.1235064E+00
          4   -1    0    0  501    0  0.00000000000E+00  0.00000000000E+00  0.10358437901E+04  0.10358445687E+04  0.12700000000E+01 0. -1.
         -4   -1    0    0    0  501 -0.00000000000E+00 -0.00000000000E+00 -0.36635479381E+01  0.38774325906E+01  0.12700000000E+01 0. -1.
         25    2    1    2    0    0  0.00000000000E+00  0.00000000000E+00  0.10321802422E+04  0.10397220013E+04  0.12500315013E+03 0.  0.
    9000005    1    3    3    0    0 -0.30580001708E+02  0.53975286906E+02  0.57887468275E+03  0.58219014628E+03  0.10000000000E+01 0.  0.
    9000005    1    3    3    0    0  0.30580001708E+02 -0.53975286906E+02  0.45330555944E+03  0.45753185498E+03  0.10000000000E+01 0.  0.
<mgrwt>
<rscale>  0 0.12500315E+03</rscale>
<asrwt>0</asrwt>
<pdfrwt beam="1">  1        4 0.15937729E+00 0.12500315E+03</pdfrwt>
<pdfrwt beam="2">  1       -4 0.58013459E-03 0.12500315E+03</pdfrwt>
<totfact> 0.29315813E+03</totfact>
</mgrwt>
</event>
<event>
 5    1  0.3235144E-002  0.1250282E+03  0.7818608E-02  0.1235025E+00
         -4   -1    0    0    0  501 -0.00000000000E+00  0.00000000000E+00  0.49540121289E+01  0.51142092422E+01  0.12700000000E+01 0. -1.
          4   -1    0    0  501    0  0.00000000000E+00 -0.00000000000E+00 -0.77614579058E+03  0.77614682962E+03  0.12700000000E+01 0. -1.
         25    2    1    2    0    0  0.00000000000E+00  0.00000000000E+00 -0.77119177845E+03  0.78126103887E+03  0.12502820362E+03 0.  0.
    9000005    1    3    3    0    0  0.55219471035E+02 -0.11128871418E+01 -0.56847885768E+03  0.57115640602E+03  0.10000000000E+01 0.  0.
    9000005    1    3    3    0    0 -0.55219471035E+02  0.11128871418E+01 -0.20271292077E+03  0.21010463285E+03  0.10000000000E+01 0.  0.
<mgrwt>
<rscale>  0 0.12502820E+03</rscale>
<asrwt>0</asrwt>
<pdfrwt beam="2">  1        4 0.11941935E+00 0.12502820E+03</pdfrwt>
<pdfrwt beam="1">  1       -4 0.77455911E-03 0.12502820E+03</pdfrwt>
<totfact> 0.39091025E+03</totfact>
</mgrwt>
</event>
<event>
 5    1  0.3235144E-002  0.1250048E+03  0.7818608E-02  0.1235062E+00
          4   -1    0    0  501    0  0.00000000000E+00  0.00000000000E+00  0.12069962345E+02  0.12136593056E+02  0.12700000000E+01 0.  1.
         -4   -1    0    0    0  501 -0.00000000000E+00 -0.00000000000E+00 -0.32270012954E+03  0.32270262860E+03  0.12700000000E+01 0.  1.
         25    2    1    2    0    0  0.00000000000E+00  0.00000000000E+00 -0.31063016720E+03  0.33483922166E+03  0.12500481426E+03 0.  0.
    9000005    1    3    3    0    0 -0.57675037263E+01  0.47585334588E+02 -0.47905712961E+02  0.67775995024E+02  0.10000000000E+01 0.  0.
    9000005    1    3    3    0    0  0.57675037263E+01 -0.47585334588E+02 -0.26272445424E+03  0.26706322664E+03  0.10000000000E+01 0.  0.
<mgrwt>
<rscale>  0 0.12500481E+03</rscale>
<asrwt>0</asrwt>
<pdfrwt beam="1">  1        4 0.18622352E-02 0.12500481E+03</pdfrwt>
<pdfrwt beam="2">  1       -4 0.49651485E-01 0.12500481E+03</pdfrwt>
<totfact> 0.71417662E+03</totfact>
</mgrwt>
</event>
<event>
 5    1  0.3235144E-002  0.1249991E+03  0.7818608E-02  0.1235071E+00
         -4   -1    0    0    0  501 -0.00000000000E+00  0.00000000000E+00  0.54411458052E+03  0.54411606265E+03  0.12700000000E+01 0.  1.
          4   -1    0    0  501    0  0.00000000000E+00 -0.00000000000E+00 -0.71213151657E+01  0.72336733192E+01  0.12700000000E+01 0.  1.
         25    2    1    2    0    0  0.00000000000E+00  0.00000000000E+00  0.53699326535E+03  0.55134973597E+03  0.12499905727E+03 0.  0.
    9000005    1    3    3    0    0 -0.49372117734E+02 -0.13127328726E+02  0.10975215469E+03  0.12106390143E+03  0.10000000000E+01 0.  0.
    9000005    1    3    3    0    0  0.49372117734E+02  0.13127328726E+02  0.42724111066E+03  0.43028583454E+03  0.10000000000E+01 0.  0.
<mgrwt>
<rscale>  0 0.12499906E+03</rscale>
<asrwt>0</asrwt>
<pdfrwt beam="2">  1        4 0.11043438E-02 0.12499906E+03</pdfrwt>
<pdfrwt beam="1">  1       -4 0.83718696E-01 0.12499906E+03</pdfrwt>
<totfact> 0.52091057E+03</totfact>
</mgrwt>
</event>
<event>
 5    1  0.3235144E-002  0.1249987E+03  0.7818608E-02  0.1235071E+00
          4   -1    0    0  501    0  0.00000000000E+00  0.00000000000E+00  0.94632646851E+01  0.95481033981E+01  0.12700000000E+01 0. -1.
         -4   -1    0    0    0  501 -0.00000000000E+00 -0.00000000000E+00 -0.41084396630E+03  0.41084592921E+03  0.12700000000E+01 0. -1.
         25    2    1    2    0    0  0.00000000000E+00  0.00000000000E+00 -0.40138070162E+03  0.42039403261E+03  0.12499870007E+03 0.  0.
    9000005    1    3    3    0    0  0.15689547714E+02  0.23567278953E+02 -0.38805309247E+03  0.38908582745E+03  0.10000000000E+01 0.  0.
    9000005    1    3    3    0    0 -0.15689547714E+02 -0.23567278953E+02 -0.13327609147E+02  0.31308205159E+02  0.10000000000E+01 0.  0.
<mgrwt>
<rscale>  0 0.12499870E+03</rscale>
<asrwt>0</asrwt>
<pdfrwt beam="1">  1        4 0.14625642E-02 0.12499870E+03</pdfrwt>
<pdfrwt beam="2">  1       -4 0.63213428E-01 0.12499870E+03</pdfrwt>
<totfact> 0.62618273E+03</totfact>
</mgrwt>
</event>
<event>
 5    1  0.3235144E-002  0.1250061E+03  0.7818608E-02  0.1235060E+00
          4   -1    0    0  501    0  0.00000000000E+00  0.00000000000E+00  0.78145682278E+02  0.78156001425E+02  0.12700000000E+01 0.  1.
         -4   -1    0    0    0  501 -0.00000000000E+00 -0.00000000000E+00 -0.49969982550E+02  0.49986118634E+02  0.12700000000E+01 0.  1.
         25    2    1    2    0    0  0.00000000000E+00  0.00000000000E+00  0.28175699728E+02  0.12814212006E+03  0.12500613136E+03 0.  0.
    9000005    1    3    3    0    0  0.22404585837E+02 -0.48095021662E+02 -0.19763868702E+02  0.56627794247E+02  0.10000000000E+01 0.  0.
    9000005    1    3    3    0    0 -0.22404585837E+02  0.48095021662E+02  0.47939568430E+02  0.71514325812E+02  0.10000000000E+01 0.  0.
<mgrwt>
<rscale>  0 0.12500613E+03</rscale>
<asrwt>0</asrwt>
<pdfrwt beam="1">  1        4 0.12024448E-01 0.12500613E+03</pdfrwt>
<pdfrwt beam="2">  1       -4 0.76897247E-02 0.12500613E+03</pdfrwt>
<totfact> 0.10382982E+04</totfact>
</mgrwt>
</event>
<event>
 5    1  0.3235144E-002  0.1250088E+03  0.7818608E-02  0.1235055E+00
          4   -1    0    0  501    0  0.00000000000E+00  0.00000000000E+00  0.32280423455E+02  0.32305396429E+02  0.12700000000E+01 0. -1.
         -4   -1    0    0    0  501 -0.00000000000E+00 -0.00000000000E+00 -0.12095186870E+03  0.12095853604E+03  0.12700000000E+01 0. -1.
         25    2    1    2    0    0  0.00000000000E+00  0.00000000000E+00 -0.88671445241E+02  0.15326393247E+03  0.12500883087E+03 0.  0.
    9000005    1    3    3    0    0 -0.10275346288E+02 -0.61399906831E+02 -0.37590284962E+02  0.72729366997E+02  0.10000000000E+01 0.  0.
    9000005    1    3    3    0    0  0.10275346288E+02  0.61399906831E+02 -0.51081160279E+02  0.80534565471E+02  0.10000000000E+01 0.  0.
<mgrwt>
<rscale>  0 0.12500883E+03</rscale>
<asrwt>0</asrwt>
<pdfrwt beam="1">  1        4 0.49686529E-02 0.12500883E+03</pdfrwt>
<pdfrwt beam="2">  1       -4 0.18610413E-01 0.12500883E+03</pdfrwt>
<totfact> 0.98637418E+03</totfact>
</mgrwt>
</event>
<event>
 5    1  0.3235144E-002  0.1250001E+03  0.7818608E-02  0.1235069E+00
          4   -1    0    0  501    0  0.00000000000E+00  0.00000000000E+00  0.11179936379E+04  0.11179943593E+04  0.12700000000E+01 0. -1.
         -4   -1    0    0    0  501 -0.00000000000E+00 -0.00000000000E+00 -0.33778360322E+01  0.36086945369E+01  0.12700000000E+01 0. -1.
         25    2    1    2    0    0  0.00000000000E+00  0.00000000000E+00  0.11146158019E+04  0.11216030538E+04  0.12500009784E+03 0.  0.
    9000005    1    3    3    0    0 -0.52775808185E+02  0.59895224983E+01  0.85274338913E+03  0.85439654026E+03  0.10000000000E+01 0.  0.
    9000005    1    3    3    0    0  0.52775808185E+02 -0.59895224983E+01  0.26187241276E+03  0.26720651354E+03  0.10000000000E+01 0.  0.
<mgrwt>
<rscale>  0 0.12500010E+03</rscale>
<asrwt>0</asrwt>
<pdfrwt beam="1">  1        4 0.17201672E+00 0.12500010E+03</pdfrwt>
<pdfrwt beam="2">  1       -4 0.53748129E-03 0.12500010E+03</pdfrwt>
<totfact> 0.26859547E+03</totfact>
</mgrwt>
</event>
<event>
 5    1  0.3235144E-002  0.1249998E+03  0.7818608E-02  0.1235070E+00
          4   -1    0    0  501    0  0.00000000000E+00  0.00000000000E+00  0.29158605163E+02  0.29186249417E+02  0.12700000000E+01 0.  1.
         -4   -1    0    0    0  501 -0.00000000000E+00 -0.00000000000E+00 -0.13387099609E+03  0.13387702004E+03  0.12700000000E+01 0.  1.
         25    2    1    2    0    0  0.00000000000E+00  0.00000000000E+00 -0.10471239093E+03  0.16306326946E+03  0.12499978013E+03 0.  0.
    9000005    1    3    3    0    0  0.57464582825E+02  0.16571201180E+02 -0.28714223837E+02  0.66349752361E+02  0.10000000000E+01 0.  0.
    9000005    1    3    3    0    0 -0.57464582825E+02 -0.16571201180E+02 -0.75998167091E+02  0.96713517095E+02  0.10000000000E+01 0.  0.
<mgrwt>
<rscale>  0 0.12499978E+03</rscale>
<asrwt>0</asrwt>
<pdfrwt beam="1">  1        4 0.44885292E-02 0.12499978E+03</pdfrwt>
<pdfrwt beam="2">  1       -4 0.20598127E-01 0.12499978E+03</pdfrwt>
<totfact> 0.96755919E+03</totfact>
</mgrwt>
</event>
<event>
 5    1  0.3235144E-002  0.1250224E+03  0.7818608E-02  0.1235034E+00
         -4   -1    0    0    0  501 -0.00000000000E+00  0.00000000000E+00  0.32910642459E+03  0.32910887500E+03  0.12700000000E+01 0. -1.
          4   -1    0    0  501    0  0.00000000000E+00 -0.00000000000E+00 -0.11837045090E+02  0.11904979481E+02  0.12700000000E+01 0. -1.
         25    2    1    2    0    0  0.00000000000E+00  0.00000000000E+00  0.31726937950E+03  0.34101385449E+03  0.12502235713E+03 0.  0.
    9000005    1    3    3    0    0  0.52740556339E+02  0.33232042672E+02  0.14622100739E+03  0.15895759795E+03  0.10000000000E+01 0.  0.
    9000005    1    3    3    0    0 -0.52740556339E+02 -0.33232042672E+02  0.17104837211E+03  0.18205625653E+03  0.10000000000E+01 0.  0.
<mgrwt>
<rscale>  0 0.12502236E+03</rscale>
<asrwt>0</asrwt>
<pdfrwt beam="2">  1        4 0.18264983E-02 0.12502236E+03</pdfrwt>
<pdfrwt beam="1">  1       -4 0.50637165E-01 0.12502236E+03</pdfrwt>
<totfact> 0.70689593E+03</totfact>
</mgrwt>
</event>
<event>
 5    1  0.3235144E-002  0.1249959E+03  0.7818608E-02  0.1235076E+00
         -4   -1    0    0    0  501 -0.00000000000E+00  0.00000000000E+00  0.26809444200E+02  0.26839508161E+02  0.12700000000E+01 0.  1.
          4   -1    0    0  501    0  0.00000000000E+00 -0.00000000000E+00 -0.14558027781E+03  0.14558581726E+03  0.12700000000E+01 0.  1.
         25    2    1    2    0    0  0.00000000000E+00  0.00000000000E+00 -0.11877083361E+03  0.17242532542E+03  0.12499592765E+03 0.  0.
    9000005    1    3    3    0    0 -0.19231565584E+02  0.54450801363E+02 -0.92326572133E+02  0.10890334616E+03  0.10000000000E+01 0.  0.
    9000005    1    3    3    0    0  0.19231565584E+02 -0.54450801363E+02 -0.26444261481E+02  0.63521979260E+02  0.10000000000E+01 0.  0.
<mgrwt>
<rscale>  0 0.12499593E+03</rscale>
<asrwt>0</asrwt>
<pdfrwt beam="2">  1        4 0.22399704E-01 0.12499593E+03</pdfrwt>
<pdfrwt beam="1">  1       -4 0.41272687E-02 0.12499593E+03</pdfrwt>
<totfact> 0.95007194E+03</totfact>
</mgrwt>
</event>
<event>
 5    1  0.3235144E-002  0.1249987E+03  0.7818608E-02  0.1235071E+00
         -4   -1    0    0    0  501 -0.00000000000E+00  0.00000000000E+00  0.49301630296E+02  0.49317985055E+02  0.12700000000E+01 0. -1.
          4   -1    0    0  501    0  0.00000000000E+00 -0.00000000000E+00 -0.79195389060E+02  0.79205571447E+02  0.12700000000E+01 0. -1.
         25    2    1    2    0    0  0.00000000000E+00  0.00000000000E+00 -0.29893758763E+02  0.12852355650E+03  0.12499867105E+03 0.  0.
    9000005    1    3    3    0    0 -0.57362687459E+02 -0.76022754476E+01 -0.39210956556E+02  0.69905447703E+02  0.10000000000E+01 0.  0.
    9000005    1    3    3    0    0  0.57362687459E+02  0.76022754476E+01  0.93171977933E+01  0.58618108799E+02  0.10000000000E+01 0.  0.
<mgrwt>
<rscale>  0 0.12499867E+03</rscale>
<asrwt>0</asrwt>
<pdfrwt beam="2">  1        4 0.12185947E-01 0.12499867E+03</pdfrwt>
<pdfrwt beam="1">  1       -4 0.75869075E-02 0.12499867E+03</pdfrwt>
<totfact> 0.10376508E+04</totfact>
</mgrwt>
</event>
<event>
 5    1  0.3235144E-002  0.1250012E+03  0.7818608E-02  0.1235067E+00
         -4   -1    0    0    0  501 -0.00000000000E+00  0.00000000000E+00  0.22251194136E+02  0.22287407666E+02  0.12700000000E+01 0. -1.
          4   -1    0    0  501    0  0.00000000000E+00 -0.00000000000E+00 -0.17537440350E+03  0.17537900189E+03  0.12700000000E+01 0. -1.
         25    2    1    2    0    0  0.00000000000E+00  0.00000000000E+00 -0.15312320936E+03  0.19766640955E+03  0.12500116887E+03 0.  0.
    9000005    1    3    3    0    0 -0.62325061058E+02 -0.28919458644E+01 -0.82162784872E+02  0.10317218523E+03  0.10000000000E+01 0.  0.
    9000005    1    3    3    0    0  0.62325061058E+02  0.28919458644E+01 -0.70960424493E+02  0.94494224326E+02  0.10000000000E+01 0.  0.
<mgrwt>
<rscale>  0 0.12500117E+03</rscale>
<asrwt>0</asrwt>
<pdfrwt beam="2">  1        4 0.26983816E-01 0.12500117E+03</pdfrwt>
<pdfrwt beam="1">  1       -4 0.34264001E-02 0.12500117E+03</pdfrwt>
<totfact> 0.90527862E+03</totfact>
</mgrwt>
</event>
<event>
 5    1  0.3235144E-002  0.1249993E+03  0.7818608E-02  0.1235070E+00
         -4   -1    0    0    0  501 -0.00000000000E+00  0.00000000000E+00  0.11572766199E+02  0.11642242804E+02  0.12700000000E+01 0.  1.
          4   -1    0    0  501    0  0.00000000000E+00 -0.00000000000E+00 -0.33645344758E+03  0.33645584449E+03  0.12700000000E+01 0.  1.
         25    2    1    2    0    0  0.00000000000E+00  0.00000000000E+00 -0.32488068138E+03  0.34809808729E+03  0.12499928496E+03 0.  0.
    9000005    1    3    3    0    0 -0.24855406335E+01 -0.62428466285E+02 -0.15879448977E+03  0.17064636327E+03  0.10000000000E+01 0.  0.
    9000005    1    3    3    0    0  0.24855406335E+01  0.62428466285E+02 -0.16608619161E+03  0.17745172402E+03  0.10000000000E+01 0.  0.
<mgrwt>
<rscale>  0 0.12499928E+03</rscale>
<asrwt>0</asrwt>
<pdfrwt beam="2">  1        4 0.51767590E-01 0.12499928E+03</pdfrwt>
<pdfrwt beam="1">  1       -4 0.17859546E-02 0.12499928E+03</pdfrwt>
<totfact> 0.69935408E+03</totfact>
</mgrwt>
</event>
<event>
 5    1  0.3235144E-002  0.1249995E+03  0.7818608E-02  0.1235070E+00
          4   -1    0    0  501    0  0.00000000000E+00  0.00000000000E+00  0.73714107906E+03  0.73714217308E+03  0.12700000000E+01 0. -1.
         -4   -1    0    0    0  501 -0.00000000000E+00 -0.00000000000E+00 -0.52219407827E+01  0.53741571933E+01  0.12700000000E+01 0. -1.
         25    2    1    2    0    0  0.00000000000E+00  0.00000000000E+00  0.73191913828E+03  0.74251633027E+03  0.12499950300E+03 0.  0.
    9000005    1    3    3    0    0  0.14110829870E+02 -0.52012595931E+02  0.55387823227E+03  0.55649485338E+03  0.10000000000E+01 0.  0.
    9000005    1    3    3    0    0 -0.14110829870E+02  0.52012595931E+02  0.17804090601E+03  0.18602147689E+03  0.10000000000E+01 0.  0.
<mgrwt>
<rscale>  0 0.12499950E+03</rscale>
<asrwt>0</asrwt>
<pdfrwt beam="1">  1        4 0.11341808E+00 0.12499950E+03</pdfrwt>
<pdfrwt beam="2">  1       -4 0.81516888E-03 0.12499950E+03</pdfrwt>
<totfact> 0.40935119E+03</totfact>
</mgrwt>
</event>
<event>
 5    1  0.3235144E-002  0.1249994E+03  0.7818608E-02  0.1235070E+00
         -4   -1    0    0    0  501 -0.00000000000E+00  0.00000000000E+00  0.11133202614E+02  0.11205404965E+02  0.12700000000E+01 0. -1.
          4   -1    0    0  501    0  0.00000000000E+00 -0.00000000000E+00 -0.34965428847E+03  0.34965659489E+03  0.12700000000E+01 0. -1.
         25    2    1    2    0    0  0.00000000000E+00  0.00000000000E+00 -0.33852108586E+03  0.36086199985E+03  0.12499942946E+03 0.  0.
    9000005    1    3    3    0    0 -0.48182774688E+02 -0.63327723950E+01 -0.28268082861E+03  0.28682945220E+03  0.10000000000E+01 0.  0.
    9000005    1    3    3    0    0  0.48182774688E+02  0.63327723950E+01 -0.55840257247E+02  0.74032547654E+02  0.10000000000E+01 0.  0.
<mgrwt>
<rscale>  0 0.12499943E+03</rscale>
<asrwt>0</asrwt>
<pdfrwt beam="2">  1        4 0.53798691E-01 0.12499943E+03</pdfrwt>
<pdfrwt beam="1">  1       -4 0.17185321E-02 0.12499943E+03</pdfrwt>
<totfact> 0.68546772E+03</totfact>
</mgrwt>
</event>
<event>
 5    1  0.3235144E-002  0.1249946E+03  0.7818608E-02  0.1235078E+00
          4   -1    0    0  501    0  0.00000000000E+00  0.00000000000E+00  0.21888942089E+03  0.21889310514E+03  0.12700000000E+01 0. -1.
         -4   -1    0    0    0  501 -0.00000000000E+00 -0.00000000000E+00 -0.17817801300E+02  0.17863004875E+02  0.12700000000E+01 0. -1.
         25    2    1    2    0    0  0.00000000000E+00  0.00000000000E+00  0.20107161959E+03  0.23675611001E+03  0.12499463758E+03 0.  0.
    9000005    1    3    3    0    0  0.47682263888E+01 -0.10613264677E+02 -0.15757263366E+02  0.19612973226E+02  0.10000000000E+01 0.  0.
    9000005    1    3    3    0    0 -0.47682263888E+01  0.10613264677E+02  0.21682888295E+03  0.21714313678E+03  0.10000000000E+01 0.  0.
<mgrwt>
<rscale>  0 0.12499464E+03</rscale>
<asrwt>0</asrwt>
<pdfrwt beam="1">  1        4 0.33679056E-01 0.12499464E+03</pdfrwt>
<pdfrwt beam="2">  1       -4 0.27449608E-02 0.12499464E+03</pdfrwt>
<totfact> 0.84292949E+03</totfact>
</mgrwt>
</event>
<event>
 5    1  0.3235144E-002  0.1249972E+03  0.7818608E-02  0.1235074E+00
          4   -1    0    0  501    0  0.00000000000E+00  0.00000000000E+00  0.11699602024E+03  0.11700291301E+03  0.12700000000E+01 0. -1.
         -4   -1    0    0    0  501 -0.00000000000E+00 -0.00000000000E+00 -0.33366422792E+02  0.33390583552E+02  0.12700000000E+01 0. -1.
         25    2    1    2    0    0  0.00000000000E+00  0.00000000000E+00  0.83629597450E+02  0.15039349656E+03  0.12499717692E+03 0.  0.
    9000005    1    3    3    0    0 -0.47863128506E+02 -0.35754957668E+02  0.19767537796E+02  0.62936885995E+02  0.10000000000E+01 0.  0.
    9000005    1    3    3    0    0  0.47863128506E+02  0.35754957668E+02  0.63862059654E+02  0.87456610565E+02  0.10000000000E+01 0.  0.
<mgrwt>
<rscale>  0 0.12499718E+03</rscale>
<asrwt>0</asrwt>
<pdfrwt beam="1">  1        4 0.18001777E-01 0.12499718E+03</pdfrwt>
<pdfrwt beam="2">  1       -4 0.51356845E-02 0.12499718E+03</pdfrwt>
<totfact> 0.99231622E+03</totfact>
</mgrwt>
</event>
<event>
 5    1  0.3235144E-002  0.1250188E+03  0.7818608E-02  0.1235040E+00
          4   -1    0    0  501    0  0.00000000000E+00  0.00000000000E+00  0.82650330414E+01  0.83620375014E+01  0.12700000000E+01 0. -1.
         -4   -1    0    0    0  501 -0.00000000000E+00 -0.00000000000E+00 -0.46990969308E+03  0.46991140926E+03  0.12700000000E+01 0. -1.
         25    2    1    2    0    0  0.00000000000E+00  0.00000000000E+00 -0.46164466004E+03  0.47827344676E+03  0.12501878952E+03 0.  0.
    9000005    1    3    3    0    0 -0.58953867061E+02  0.18003918916E+01 -0.30993249881E+03  0.31549636078E+03  0.10000000000E+01 0.  0.
    9000005    1    3    3    0    0  0.58953867061E+02 -0.18003918916E+01 -0.15171216123E+03  0.16277708597E+03  0.10000000000E+01 0.  0.
<mgrwt>
<rscale>  0 0.12501879E+03</rscale>
<asrwt>0</asrwt>
<pdfrwt beam="1">  1        4 0.12791378E-02 0.12501879E+03</pdfrwt>
<pdfrwt beam="2">  1       -4 0.72301372E-01 0.12501879E+03</pdfrwt>
<totfact> 0.57566589E+03</totfact>
</mgrwt>
</event>
<event>
 5    1  0.3235144E-002  0.1249992E+03  0.7818608E-02  0.1235071E+00
         -4   -1    0    0    0  501 -0.00000000000E+00  0.00000000000E+00  0.21642473980E+02  0.21679704333E+02  0.12700000000E+01 0.  1.
          4   -1    0    0  501    0  0.00000000000E+00 -0.00000000000E+00 -0.18029313596E+03  0.18029760890E+03  0.12700000000E+01 0.  1.
         25    2    1    2    0    0  0.00000000000E+00  0.00000000000E+00 -0.15865066198E+03  0.20197731323E+03  0.12499921005E+03 0.  0.
    9000005    1    3    3    0    0  0.55509023171E+02  0.15005211518E+02 -0.39785615912E+02  0.69930703268E+02  0.10000000000E+01 0.  0.
    9000005    1    3    3    0    0 -0.55509023171E+02 -0.15005211518E+02 -0.11886504607E+03  0.13204660996E+03  0.10000000000E+01 0.  0.
<mgrwt>
<rscale>  0 0.12499921E+03</rscale>
<asrwt>0</asrwt>
<pdfrwt beam="2">  1        4 0.27740613E-01 0.12499921E+03</pdfrwt>
<pdfrwt beam="1">  1       -4 0.33328194E-02 0.12499921E+03</pdfrwt>
<totfact> 0.89804672E+03</totfact>
</mgrwt>
</event>
<event>
 5    1  0.3235144E-002  0.1249980E+03  0.7818608E-02  0.1235072E+00
         -4   -1    0    0    0  501 -0.00000000000E+00  0.00000000000E+00  0.39541539864E+03  0.39541743813E+03  0.12700000000E+01 0.  1.
          4   -1    0    0  501    0  0.00000000000E+00 -0.00000000000E+00 -0.98356406028E+01  0.99172942916E+01  0.12700000000E+01 0.  1.
         25    2    1    2    0    0  0.00000000000E+00  0.00000000000E+00  0.38557975803E+03  0.40533473242E+03  0.12499798200E+03 0.  0.
    9000005    1    3    3    0    0 -0.27568555611E+02 -0.50588405967E+02  0.27128215814E+03  0.27733413314E+03  0.10000000000E+01 0.  0.
    9000005    1    3    3    0    0  0.27568555611E+02  0.50588405967E+02  0.11429759989E+03  0.12800059929E+03  0.10000000000E+01 0.  0.
<mgrwt>
<rscale>  0 0.12499798E+03</rscale>
<asrwt>0</asrwt>
<pdfrwt beam="2">  1        4 0.15196132E-02 0.12499798E+03</pdfrwt>
<pdfrwt beam="1">  1       -4 0.60839584E-01 0.12499798E+03</pdfrwt>
<totfact> 0.64040072E+03</totfact>
</mgrwt>
</event>
<event>
 5    1  0.3235144E-002  0.1249922E+03  0.7818608E-02  0.1235082E+00
         -4   -1    0    0    0  501 -0.00000000000E+00  0.00000000000E+00  0.13443674208E+03  0.13444274068E+03  0.12700000000E+01 0. -1.
          4   -1    0    0  501    0  0.00000000000E+00 -0.00000000000E+00 -0.29032239067E+02  0.29060003531E+02  0.12700000000E+01 0. -1.
         25    2    1    2    0    0  0.00000000000E+00  0.00000000000E+00  0.10540450301E+03  0.16350274421E+03  0.12499215219E+03 0.  0.
    9000005    1    3    3    0    0  0.55722482577E+02 -0.26963156080E+02  0.41544754254E+02  0.74558523700E+02  0.10000000000E+01 0.  0.
    9000005    1    3    3    0    0 -0.55722482577E+02  0.26963156080E+02  0.63859748760E+02  0.88944220510E+02  0.10000000000E+01 0.  0.
<mgrwt>
<rscale>  0 0.12499215E+03</rscale>
<asrwt>0</asrwt>
<pdfrwt beam="2">  1        4 0.44690956E-02 0.12499215E+03</pdfrwt>
<pdfrwt beam="1">  1       -4 0.20685172E-01 0.12499215E+03</pdfrwt>
<totfact> 0.96688751E+03</totfact>
</mgrwt>
</event>
<event>
 4    1  0.3235144E-002  0.1248583E+03  0.7818608E-02  0.1235291E+00
         -4   -1    0    0    0  501 -0.00000000000E+00  0.00000000000E+00  0.12265580355E+03  0.12266237828E+03  0.12700000000E+01 0. -1.
          4   -1    0    0  501    0  0.00000000000E+00 -0.00000000000E+00 -0.31754976828E+02  0.31780362701E+02  0.12700000000E+01 0. -1.
    9000005    1    1    2    0    0  0.32559477836E+02  0.12753211668E+01  0.11130712463E+03  0.11598285233E+03  0.10000000000E+01 0.  0.
    9000005    1    1    2    0    0 -0.32559477836E+02 -0.12753211668E+01 -0.20406297904E+02  0.38459888652E+02  0.10000000000E+01 0.  0.
<mgrwt>
<rscale>  0 0.12485832E+03</rscale>
<asrwt>0</asrwt>
<pdfrwt beam="2">  1        4 0.48878395E-02 0.12485832E+03</pdfrwt>
<pdfrwt beam="1">  1       -4 0.18872582E-01 0.12485832E+03</pdfrwt>
<totfact> 0.98739302E+03</totfact>
</mgrwt>
</event>
<event>
 5    1  0.3235144E-002  0.1250059E+03  0.7818608E-02  0.1235060E+00
         -4   -1    0    0    0  501 -0.00000000000E+00  0.00000000000E+00  0.51337067023E+02  0.51352773542E+02  0.12700000000E+01 0.  1.
          4   -1    0    0  501    0  0.00000000000E+00 -0.00000000000E+00 -0.76064814625E+02  0.76075416028E+02  0.12700000000E+01 0.  1.
         25    2    1    2    0    0  0.00000000000E+00  0.00000000000E+00 -0.24727747602E+02  0.12742818957E+03  0.12500592784E+03 0.  0.
    9000005    1    3    3    0    0  0.53337668406E+02  0.21439939011E+02  0.12627351389E+02  0.58864487247E+02  0.10000000000E+01 0.  0.
    9000005    1    3    3    0    0 -0.53337668406E+02 -0.21439939011E+02 -0.37355098991E+02  0.68563702324E+02  0.10000000000E+01 0.  0.
<mgrwt>
<rscale>  0 0.12500593E+03</rscale>
<asrwt>0</asrwt>
<pdfrwt beam="2">  1        4 0.11704303E-01 0.12500593E+03</pdfrwt>
<pdfrwt beam="1">  1       -4 0.79000340E-02 0.12500593E+03</pdfrwt>
<totfact> 0.10398464E+04</totfact>
</mgrwt>
</event>
<event>
 5    1  0.3235144E-002  0.1249989E+03  0.7818608E-02  0.1235071E+00
         -4   -1    0    0    0  501 -0.00000000000E+00  0.00000000000E+00  0.99622462484E+03  0.99622543435E+03  0.12700000000E+01 0. -1.
          4   -1    0    0  501    0  0.00000000000E+00 -0.00000000000E+00 -0.38173161538E+01  0.40230340066E+01  0.12700000000E+01 0. -1.
         25    2    1    2    0    0  0.00000000000E+00  0.00000000000E+00  0.99240730869E+03  0.10002484684E+04  0.12499892843E+03 0.  0.
    9000005    1    3    3    0    0 -0.12111916802E+02 -0.96946093285E+01  0.98060898275E+03  0.98073220658E+03  0.10000000000E+01 0.  0.
    9000005    1    3    3    0    0  0.12111916802E+02  0.96946093285E+01  0.11798325941E+02  0.19516261774E+02  0.10000000000E+01 0.  0.
<mgrwt>
<rscale>  0 0.12499893E+03</rscale>
<asrwt>0</asrwt>
<pdfrwt beam="2">  1        4 0.60316592E-03 0.12499893E+03</pdfrwt>
<pdfrwt beam="1">  1       -4 0.15328127E+00 0.12499893E+03</pdfrwt>
<totfact> 0.30596983E+03</totfact>
</mgrwt>
</event>
<event>
 5    1  0.3235144E-002  0.1249996E+03  0.7818608E-02  0.1235070E+00
         -4   -1    0    0    0  501 -0.00000000000E+00  0.00000000000E+00  0.46040070591E+02  0.46057583524E+02  0.12700000000E+01 0.  1.
          4   -1    0    0  501    0  0.00000000000E+00 -0.00000000000E+00 -0.84805632213E+02  0.84815141072E+02  0.12700000000E+01 0.  1.
         25    2    1    2    0    0  0.00000000000E+00  0.00000000000E+00 -0.38765561621E+02  0.13087272460E+03  0.12499960510E+03 0.  0.
    9000005    1    3    3    0    0 -0.32212386252E+02 -0.12495610291E+01  0.36667858768E+02  0.48833708619E+02  0.10000000000E+01 0.  0.
    9000005    1    3    3    0    0  0.32212386252E+02  0.12495610291E+01 -0.75433420389E+02  0.82039015977E+02  0.10000000000E+01 0.  0.
<mgrwt>
<rscale>  0 0.12499961E+03</rscale>
<asrwt>0</asrwt>
<pdfrwt beam="2">  1        4 0.13049099E-01 0.12499961E+03</pdfrwt>
<pdfrwt beam="1">  1       -4 0.70851664E-02 0.12499961E+03</pdfrwt>
<totfact> 0.10325911E+04</totfact>
</mgrwt>
</event>
<event>
 5    1  0.3235144E-002  0.1249978E+03  0.7818608E-02  0.1235073E+00
         -4   -1    0    0    0  501 -0.00000000000E+00  0.00000000000E+00  0.86700212147E+01  0.87625434586E+01  0.12700000000E+01 0. -1.
          4   -1    0    0  501    0  0.00000000000E+00 -0.00000000000E+00 -0.44804618443E+03  0.44804798435E+03  0.12700000000E+01 0. -1.
         25    2    1    2    0    0  0.00000000000E+00  0.00000000000E+00 -0.43937616322E+03  0.45681052781E+03  0.12499778205E+03 0.  0.
    9000005    1    3    3    0    0  0.55605760105E+02 -0.19732920220E+02 -0.29491523936E+03  0.30076134576E+03  0.10000000000E+01 0.  0.
    9000005    1    3    3    0    0 -0.55605760105E+02  0.19732920220E+02 -0.14446092386E+03  0.15604918205E+03  0.10000000000E+01 0.  0.
<mgrwt>
<rscale>  0 0.12499778E+03</rscale>
<asrwt>0</asrwt>
<pdfrwt beam="2">  1        4 0.68937420E-01 0.12499778E+03</pdfrwt>
<pdfrwt beam="1">  1       -4 0.13411053E-02 0.12499778E+03</pdfrwt>
<totfact> 0.59381215E+03</totfact>
</mgrwt>
</event>
<event>
 5    1  0.3235144E-002  0.1250008E+03  0.7818608E-02  0.1235068E+00
         -4   -1    0    0    0  501 -0.00000000000E+00  0.00000000000E+00  0.54336120464E+02  0.54350960314E+02  0.12700000000E+01 0.  1.
          4   -1    0    0  501    0  0.00000000000E+00 -0.00000000000E+00 -0.71861164008E+02  0.71872385466E+02  0.12700000000E+01 0.  1.
         25    2    1    2    0    0  0.00000000000E+00  0.00000000000E+00 -0.17525043544E+02  0.12622334578E+03  0.12500082347E+03 0.  0.
    9000005    1    3    3    0    0  0.65473587887E+01 -0.13547835653E+02 -0.70009574918E+02  0.71615307988E+02  0.10000000000E+01 0.  0.
    9000005    1    3    3    0    0 -0.65473587887E+01  0.13547835653E+02  0.52484531374E+02  0.54608037792E+02  0.10000000000E+01 0.  0.
<mgrwt>
<rscale>  0 0.12500082E+03</rscale>
<asrwt>0</asrwt>
<pdfrwt beam="2">  1        4 0.11057568E-01 0.12500082E+03</pdfrwt>
<pdfrwt beam="1">  1       -4 0.83614079E-02 0.12500082E+03</pdfrwt>
<totfact> 0.10425875E+04</totfact>
</mgrwt>
</event>
<event>
 5    1  0.3235144E-002  0.1249998E+03  0.7818608E-02  0.1235070E+00
          4   -1    0    0  501    0  0.00000000000E+00  0.00000000000E+00  0.48361606211E+02  0.48378278755E+02  0.12700000000E+01 0.  1.
         -4   -1    0    0    0  501 -0.00000000000E+00 -0.00000000000E+00 -0.80735878864E+02  0.80745866990E+02  0.12700000000E+01 0.  1.
         25    2    1    2    0    0  0.00000000000E+00  0.00000000000E+00 -0.32374272653E+02  0.12912414575E+03  0.12499980594E+03 0.  0.
    9000005    1    3    3    0    0  0.10883115896E+02  0.90950761262E+01 -0.79056349211E+02  0.80324771845E+02  0.10000000000E+01 0.  0.
    9000005    1    3    3    0    0 -0.10883115896E+02 -0.90950761262E+01  0.46682076558E+02  0.48799373900E+02  0.10000000000E+01 0.  0.
<mgrwt>
<rscale>  0 0.12499981E+03</rscale>
<asrwt>0</asrwt>
<pdfrwt beam="1">  1        4 0.74422979E-02 0.12499981E+03</pdfrwt>
<pdfrwt beam="2">  1       -4 0.12422955E-01 0.12499981E+03</pdfrwt>
<totfact> 0.10363325E+04</totfact>
</mgrwt>
</event>
<event>
 5    1  0.3235144E-002  0.1249988E+03  0.7818608E-02  0.1235071E+00
         -4   -1    0    0    0  501 -0.00000000000E+00  0.00000000000E+00  0.71851492548E+03  0.71851604787E+03  0.12700000000E+01 0.  1.
          4   -1    0    0  501    0  0.00000000000E+00 -0.00000000000E+00 -0.53611435985E+01  0.55095154672E+01  0.12700000000E+01 0.  1.
         25    2    1    2    0    0  0.00000000000E+00  0.00000000000E+00  0.71315378188E+03  0.72402556333E+03  0.12499879897E+03 0.  0.
    9000005    1    3    3    0    0 -0.54354321419E+02  0.96958870449E+01  0.18703352246E+03  0.19501523275E+03  0.10000000000E+01 0.  0.
    9000005    1    3    3    0    0  0.54354321419E+02 -0.96958870449E+01  0.52612025943E+03  0.52901033058E+03  0.10000000000E+01 0.  0.
<mgrwt>
<rscale>  0 0.12499880E+03</rscale>
<asrwt>0</asrwt>
<pdfrwt beam="2">  1        4 0.83629103E-03 0.12499880E+03</pdfrwt>
<pdfrwt beam="1">  1       -4 0.11055224E+00 0.12499880E+03</pdfrwt>
<totfact> 0.41849452E+03</totfact>
</mgrwt>
</event>
<event>
 5    1  0.3235144E-002  0.1249960E+03  0.7818608E-02  0.1235076E+00
          4   -1    0    0  501    0  0.00000000000E+00  0.00000000000E+00  0.77270999805E+01  0.78307709780E+01  0.12700000000E+01 0. -1.
         -4   -1    0    0    0  501 -0.00000000000E+00 -0.00000000000E+00 -0.50202065657E+03  0.50202226297E+03  0.12700000000E+01 0. -1.
         25    2    1    2    0    0  0.00000000000E+00  0.00000000000E+00 -0.49429355659E+03  0.50985303395E+03  0.12499598452E+03 0.  0.
    9000005    1    3    3    0    0  0.34332889551E+02  0.27539773416E+01 -0.34466616807E+02  0.48736837918E+02  0.10000000000E+01 0.  0.
    9000005    1    3    3    0    0 -0.34332889551E+02 -0.27539773416E+01 -0.45982693978E+03  0.46111619603E+03  0.10000000000E+01 0.  0.
<mgrwt>
<rscale>  0 0.12499598E+03</rscale>
<asrwt>0</asrwt>
<pdfrwt beam="1">  1        4 0.11968833E-02 0.12499598E+03</pdfrwt>
<pdfrwt beam="2">  1       -4 0.77242020E-01 0.12499598E+03</pdfrwt>
<totfact> 0.55112790E+03</totfact>
</mgrwt>
</event>
<event>
 5    1  0.3235144E-002  0.1250013E+03  0.7818608E-02  0.1235067E+00
          4   -1    0    0  501    0  0.00000000000E+00  0.00000000000E+00  0.12939319660E+02  0.13001495808E+02  0.12700000000E+01 0.  1.
         -4   -1    0    0    0  501 -0.00000000000E+00 -0.00000000000E+00 -0.30110929982E+03  0.30111197807E+03  0.12700000000E+01 0.  1.
         25    2    1    2    0    0  0.00000000000E+00  0.00000000000E+00 -0.28816998016E+03  0.31411347388E+03  0.12500134802E+03 0.  0.
    9000005    1    3    3    0    0  0.45321467980E+02  0.29606941420E+02 -0.22253871137E+03  0.22903075012E+03  0.10000000000E+01 0.  0.
    9000005    1    3    3    0    0 -0.45321467980E+02 -0.29606941420E+02 -0.65631268789E+02  0.85082723763E+02  0.10000000000E+01 0.  0.
<mgrwt>
<rscale>  0 0.12500135E+03</rscale>
<asrwt>0</asrwt>
<pdfrwt beam="1">  1        4 0.19956536E-02 0.12500135E+03</pdfrwt>
<pdfrwt beam="2">  1       -4 0.46329491E-01 0.12500135E+03</pdfrwt>
<totfact> 0.73859557E+03</totfact>
</mgrwt>
</event>
<event>
 5    1  0.3235144E-002  0.1249961E+03  0.7818608E-02  0.1235075E+00
          4   -1    0    0  501    0  0.00000000000E+00  0.00000000000E+00  0.33425477538E+03  0.33425718805E+03  0.12700000000E+01 0. -1.
         -4   -1    0    0    0  501 -0.00000000000E+00 -0.00000000000E+00 -0.11648745140E+02  0.11717771261E+02  0.12700000000E+01 0. -1.
         25    2    1    2    0    0  0.00000000000E+00  0.00000000000E+00  0.32260603024E+03  0.34597495931E+03  0.12499608684E+03 0.  0.
    9000005    1    3    3    0    0 -0.56572995667E+02 -0.73059267389E+01  0.23193159011E+03  0.23884543725E+03  0.10000000000E+01 0.  0.
    9000005    1    3    3    0    0  0.56572995667E+02  0.73059267389E+01  0.90674440122E+02  0.10712952206E+03  0.10000000000E+01 0.  0.
<mgrwt>
<rscale>  0 0.12499609E+03</rscale>
<asrwt>0</asrwt>
<pdfrwt beam="1">  1        4 0.51429312E-01 0.12499609E+03</pdfrwt>
<pdfrwt beam="2">  1       -4 0.17976098E-02 0.12499609E+03</pdfrwt>
<totfact> 0.70175714E+03</totfact>
</mgrwt>
</event>
<event>
 5    1  0.3235144E-002  0.1250010E+03  0.7818608E-02  0.1235068E+00
         -4   -1    0    0    0  501 -0.00000000000E+00  0.00000000000E+00  0.11453636695E+03  0.11454340773E+03  0.12700000000E+01 0. -1.
          4   -1    0    0  501    0  0.00000000000E+00 -0.00000000000E+00 -0.34085520104E+02  0.34109171506E+02  0.12700000000E+01 0. -1.
         25    2    1    2    0    0  0.00000000000E+00  0.00000000000E+00  0.80450846847E+02  0.14865257924E+03  0.12500100222E+03 0.  0.
    9000005    1    3    3    0    0 -0.25697404490E+02  0.46185810309E+02  0.79878560901E+02  0.95786586551E+02  0.10000000000E+01 0.  0.
    9000005    1    3    3    0    0  0.25697404490E+02 -0.46185810309E+02  0.57228594596E+00  0.52865992685E+02  0.10000000000E+01 0.  0.
<mgrwt>
<rscale>  0 0.12500100E+03</rscale>
<asrwt>0</asrwt>
<pdfrwt beam="2">  1        4 0.52462870E-02 0.12500100E+03</pdfrwt>
<pdfrwt beam="1">  1       -4 0.17623341E-01 0.12500100E+03</pdfrwt>
<totfact> 0.99570720E+03</totfact>
</mgrwt>
</event>
<event>
 5    1  0.3235144E-002  0.1249961E+03  0.7818608E-02  0.1235075E+00
          4   -1    0    0  501    0  0.00000000000E+00  0.00000000000E+00  0.31305996444E+03  0.31306254045E+03  0.12700000000E+01 0. -1.
         -4   -1    0    0    0  501 -0.00000000000E+00 -0.00000000000E+00 -0.12441911213E+02  0.12506560464E+02  0.12700000000E+01 0. -1.
         25    2    1    2    0    0  0.00000000000E+00  0.00000000000E+00  0.30061805322E+03  0.32556910091E+03  0.12499610212E+03 0.  0.
    9000005    1    3    3    0    0  0.16897333480E+02 -0.59110683097E+02  0.12114018942E+03  0.13585116204E+03  0.10000000000E+01 0.  0.
    9000005    1    3    3    0    0 -0.16897333480E+02  0.59110683097E+02  0.17947786381E+03  0.18971793888E+03  0.10000000000E+01 0.  0.
<mgrwt>
<rscale>  0 0.12499610E+03</rscale>
<asrwt>0</asrwt>
<pdfrwt beam="1">  1        4 0.48168248E-01 0.12499610E+03</pdfrwt>
<pdfrwt beam="2">  1       -4 0.19193111E-02 0.12499610E+03</pdfrwt>
<totfact> 0.72504871E+03</totfact>
</mgrwt>
</event>
<event>
 5    1  0.3235144E-002  0.1250124E+03  0.7818608E-02  0.1235050E+00
         -4   -1    0    0    0  501 -0.00000000000E+00  0.00000000000E+00  0.96324512095E+02  0.96332883951E+02  0.12700000000E+01 0. -1.
          4   -1    0    0  501    0  0.00000000000E+00 -0.00000000000E+00 -0.40540965273E+02  0.40560852620E+02  0.12700000000E+01 0. -1.
         25    2    1    2    0    0  0.00000000000E+00  0.00000000000E+00  0.55783546822E+02  0.13689373657E+03  0.12501236345E+03 0.  0.
    9000005    1    3    3    0    0 -0.97509287315E+01 -0.56911624289E+02  0.17019780405E+01  0.57774651185E+02  0.10000000000E+01 0.  0.
    9000005    1    3    3    0    0  0.97509287315E+01  0.56911624289E+02  0.54081568782E+02  0.79119085386E+02  0.10000000000E+01 0.  0.
<mgrwt>
<rscale>  0 0.12501236E+03</rscale>
<asrwt>0</asrwt>
<pdfrwt beam="2">  1        4 0.62392454E-02 0.12501236E+03</pdfrwt>
<pdfrwt beam="1">  1       -4 0.14821329E-01 0.12501236E+03</pdfrwt>
<totfact> 0.10195466E+04</totfact>
</mgrwt>
</event>
<event>
 5    1  0.3235144E-002  0.1249945E+03  0.7818608E-02  0.1235078E+00
         -4   -1    0    0    0  501 -0.00000000000E+00  0.00000000000E+00  0.68747271303E+01  0.69910495003E+01  0.12700000000E+01 0. -1.
          4   -1    0    0  501    0  0.00000000000E+00 -0.00000000000E+00 -0.56327062878E+03  0.56327206050E+03  0.12700000000E+01 0. -1.
         25    2    1    2    0    0  0.00000000000E+00  0.00000000000E+00 -0.55639590165E+03  0.57026311000E+03  0.12499446092E+03 0.  0.
    9000005    1    3    3    0    0  0.58532265088E+02 -0.21394611159E+02 -0.29917879620E+03  0.30560220474E+03  0.10000000000E+01 0.  0.
    9000005    1    3    3    0    0 -0.58532265088E+02  0.21394611159E+02 -0.25721710544E+03  0.26466090527E+03  0.10000000000E+01 0.  0.
<mgrwt>
<rscale>  0 0.12499446E+03</rscale>
<asrwt>0</asrwt>
<pdfrwt beam="2">  1        4 0.86666042E-01 0.12499446E+03</pdfrwt>
<pdfrwt beam="1">  1       -4 0.10667088E-02 0.12499446E+03</pdfrwt>
<totfact> 0.50806339E+03</totfact>
</mgrwt>
</event>
<event>
 5    1  0.3235144E-002  0.1249792E+03  0.7818608E-02  0.1235102E+00
          4   -1    0    0  501    0  0.00000000000E+00  0.00000000000E+00  0.35583631387E+02  0.35606287685E+02  0.12700000000E+01 0. -1.
         -4   -1    0    0    0  501 -0.00000000000E+00 -0.00000000000E+00 -0.10967873586E+03  0.10968608845E+03  0.12700000000E+01 0. -1.
         25    2    1    2    0    0  0.00000000000E+00  0.00000000000E+00 -0.74095104468E+02  0.14529237613E+03  0.12497915849E+03 0.  0.
    9000005    1    3    3    0    0  0.30741809319E+02  0.53983608798E+02 -0.44816425725E+02  0.76608099271E+02  0.10000000000E+01 0.  0.
    9000005    1    3    3    0    0 -0.30741809319E+02 -0.53983608798E+02 -0.29278678744E+02  0.68684276862E+02  0.10000000000E+01 0.  0.
<mgrwt>
<rscale>  0 0.12497916E+03</rscale>
<asrwt>0</asrwt>
<pdfrwt beam="1">  1        4 0.54767133E-02 0.12497916E+03</pdfrwt>
<pdfrwt beam="2">  1       -4 0.16875960E-01 0.12497916E+03</pdfrwt>
<totfact> 0.10029758E+04</totfact>
</mgrwt>
</event>
<event>
 5    1  0.3235144E-002  0.1250007E+03  0.7818608E-02  0.1235068E+00
         -4   -1    0    0    0  501 -0.00000000000E+00  0.00000000000E+00  0.13466329999E+03  0.13466928849E+03  0.12700000000E+01 0.  1.
          4   -1    0    0  501    0  0.00000000000E+00 -0.00000000000E+00 -0.28987330657E+02  0.29015138094E+02  0.12700000000E+01 0.  1.
         25    2    1    2    0    0  0.00000000000E+00  0.00000000000E+00  0.10567596933E+03  0.16368442659E+03  0.12500072405E+03 0.  0.
    9000005    1    3    3    0    0  0.57819536963E+02  0.77171787060E+01  0.82195819736E+02  0.10079586541E+03  0.10000000000E+01 0.  0.
    9000005    1    3    3    0    0 -0.57819536963E+02 -0.77171787060E+01  0.23480149593E+02  0.62888561176E+02  0.10000000000E+01 0.  0.
<mgrwt>
<rscale>  0 0.12500072E+03</rscale>
<asrwt>0</asrwt>
<pdfrwt beam="2">  1        4 0.44621890E-02 0.12500072E+03</pdfrwt>
<pdfrwt beam="1">  1       -4 0.20720030E-01 0.12500072E+03</pdfrwt>
<totfact> 0.96635550E+03</totfact>
</mgrwt>
</event>
<event>
 5    1  0.3235144E-002  0.1249964E+03  0.7818608E-02  0.1235075E+00
         -4   -1    0    0    0  501 -0.00000000000E+00  0.00000000000E+00  0.93952822680E+02  0.93961405851E+02  0.12700000000E+01 0.  1.
          4   -1    0    0  501    0  0.00000000000E+00 -0.00000000000E+00 -0.41554144967E+02  0.41573547647E+02  0.12700000000E+01 0.  1.
         25    2    1    2    0    0  0.00000000000E+00  0.00000000000E+00  0.52398677713E+02  0.13553495350E+03  0.12499640872E+03 0.  0.
    9000005    1    3    3    0    0  0.44042131324E+02 -0.32656956237E+02  0.58707681792E+02  0.80335409526E+02  0.10000000000E+01 0.  0.
    9000005    1    3    3    0    0 -0.44042131324E+02  0.32656956237E+02 -0.63090040796E+01  0.55199543972E+02  0.10000000000E+01 0.  0.
<mgrwt>
<rscale>  0 0.12499641E+03</rscale>
<asrwt>0</asrwt>
<pdfrwt beam="2">  1        4 0.63950982E-02 0.12499641E+03</pdfrwt>
<pdfrwt beam="1">  1       -4 0.14456433E-01 0.12499641E+03</pdfrwt>
<totfact> 0.10227636E+04</totfact>
</mgrwt>
</event>
<event>
 5    1  0.3235144E-002  0.1249922E+03  0.7818608E-02  0.1235081E+00
          4   -1    0    0  501    0  0.00000000000E+00  0.00000000000E+00  0.23629670844E+02  0.23663774936E+02  0.12700000000E+01 0. -1.
         -4   -1    0    0    0  501 -0.00000000000E+00 -0.00000000000E+00 -0.16513495191E+03  0.16513983542E+03  0.12700000000E+01 0. -1.
         25    2    1    2    0    0  0.00000000000E+00  0.00000000000E+00 -0.14150528107E+03  0.18880361036E+03  0.12499223461E+03 0.  0.
    9000005    1    3    3    0    0 -0.55606452328E+02 -0.21000598165E+02 -0.41631971354E+02  0.72576330182E+02  0.10000000000E+01 0.  0.
    9000005    1    3    3    0    0  0.55606452328E+02  0.21000598165E+02 -0.99873309712E+02  0.11622728017E+03  0.10000000000E+01 0.  0.
<mgrwt>
<rscale>  0 0.12499223E+03</rscale>
<asrwt>0</asrwt>
<pdfrwt beam="1">  1        4 0.36383331E-02 0.12499223E+03</pdfrwt>
<pdfrwt beam="2">  1       -4 0.25408376E-01 0.12499223E+03</pdfrwt>
<totfact> 0.92071916E+03</totfact>
</mgrwt>
</event>
<event>
 5    1  0.3235144E-002  0.1249976E+03  0.7818608E-02  0.1235073E+00
         -4   -1    0    0    0  501 -0.00000000000E+00  0.00000000000E+00  0.24343229372E+04  0.24343232685E+04  0.12700000000E+01 0.  1.
          4   -1    0    0  501    0  0.00000000000E+00 -0.00000000000E+00 -0.13529164654E+01  0.18556085153E+01  0.12700000000E+01 0.  1.
         25    2    1    2    0    0  0.00000000000E+00  0.00000000000E+00  0.24329700207E+04  0.24361788770E+04  0.12499759574E+03 0.  0.
    9000005    1    3    3    0    0 -0.85244658306E+01 -0.51801049785E+02  0.55581668007E+03  0.55829131922E+03  0.10000000000E+01 0.  0.
    9000005    1    3    3    0    0  0.85244658306E+01  0.51801049785E+02  0.18771533407E+04  0.18778875578E+04  0.10000000000E+01 0.  0.
<mgrwt>
<rscale>  0 0.12499760E+03</rscale>
<asrwt>0</asrwt>
<pdfrwt beam="2">  1        4 0.24683461E-03 0.12499760E+03</pdfrwt>
<pdfrwt beam="1">  1       -4 0.37455065E+00 0.12499760E+03</pdfrwt>
<totfact> 0.51905896E+02</totfact>
</mgrwt>
</event>
<event>
 5    1  0.3235144E-002  0.1250214E+03  0.7818608E-02  0.1235036E+00
         -4   -1    0    0    0  501 -0.00000000000E+00  0.00000000000E+00  0.97712847629E+03  0.97712930162E+03  0.12700000000E+01 0.  1.
          4   -1    0    0  501    0  0.00000000000E+00 -0.00000000000E+00 -0.38973753045E+01  0.40990772454E+01  0.12700000000E+01 0.  1.
         25    2    1    2    0    0  0.00000000000E+00  0.00000000000E+00  0.97323110098E+03  0.98122837886E+03  0.12502142040E+03 0.  0.
    9000005    1    3    3    0    0  0.58040513916E+02 -0.20583036950E+02  0.40273358825E+03  0.40741588797E+03  0.10000000000E+01 0.  0.
    9000005    1    3    3    0    0 -0.58040513916E+02  0.20583036950E+02  0.57049751273E+03  0.57381249089E+03  0.10000000000E+01 0.  0.
<mgrwt>
<rscale>  0 0.12502142E+03</rscale>
<asrwt>0</asrwt>
<pdfrwt beam="2">  1        4 0.61517526E-03 0.12502142E+03</pdfrwt>
<pdfrwt beam="1">  1       -4 0.15034303E+00 0.12502142E+03</pdfrwt>
<totfact> 0.31217944E+03</totfact>
</mgrwt>
</event>
<event>
 5    1  0.3235144E-002  0.1250022E+03  0.7818608E-02  0.1235066E+00
         -4   -1    0    0    0  501 -0.00000000000E+00  0.00000000000E+00  0.96192776158E+03  0.96192859995E+03  0.12700000000E+01 0. -1.
          4   -1    0    0  501    0  0.00000000000E+00 -0.00000000000E+00 -0.39608469553E+01  0.41594721544E+01  0.12700000000E+01 0. -1.
         25    2    1    2    0    0  0.00000000000E+00  0.00000000000E+00  0.95796691462E+03  0.96608807210E+03  0.12500221415E+03 0.  0.
    9000005    1    3    3    0    0 -0.10461436145E+00 -0.56279297625E+02  0.68894150272E+03  0.69123712607E+03  0.10000000000E+01 0.  0.
    9000005    1    3    3    0    0  0.10461436145E+00  0.56279297625E+02  0.26902541191E+03  0.27485094604E+03  0.10000000000E+01 0.  0.
<mgrwt>
<rscale>  0 0.12500221E+03</rscale>
<asrwt>0</asrwt>
<pdfrwt beam="2">  1        4 0.62470436E-03 0.12500221E+03</pdfrwt>
<pdfrwt beam="1">  1       -4 0.14800425E+00 0.12500221E+03</pdfrwt>
<totfact> 0.31750042E+03</totfact>
</mgrwt>
</event>
<event>
 4    1  0.3235144E-002  0.1249200E+03  0.7818608E-02  0.1235194E+00
         -4   -1    0    0    0  501 -0.00000000000E+00  0.00000000000E+00  0.61359065961E+02  0.61372207681E+02  0.12700000000E+01 0.  1.
          4   -1    0    0  501    0  0.00000000000E+00 -0.00000000000E+00 -0.63554425048E+02  0.63567112906E+02  0.12700000000E+01 0.  1.
    9000005    1    1    2    0    0 -0.29364688232E+02 -0.39085911466E+02  0.37770387167E+02  0.61786693850E+02  0.10000000000E+01 0.  0.
    9000005    1    1    2    0    0  0.29364688232E+02  0.39085911466E+02 -0.39965746254E+02  0.63152626737E+02  0.10000000000E+01 0.  0.
<mgrwt>
<rscale>  0 0.12492003E+03</rscale>
<asrwt>0</asrwt>
<pdfrwt beam="2">  1        4 0.97795907E-02 0.12492003E+03</pdfrwt>
<pdfrwt beam="1">  1       -4 0.94418432E-02 0.12492003E+03</pdfrwt>
<totfact> 0.10473098E+04</totfact>
</mgrwt>
</event>
<event>
 5    1  0.3235144E-002  0.1249984E+03  0.7818608E-02  0.1235072E+00
         -4   -1    0    0    0  501 -0.00000000000E+00  0.00000000000E+00  0.10716962342E+02  0.10791949863E+02  0.12700000000E+01 0. -1.
          4   -1    0    0  501    0  0.00000000000E+00 -0.00000000000E+00 -0.36313593332E+03  0.36313815410E+03  0.12700000000E+01 0. -1.
         25    2    1    2    0    0  0.00000000000E+00  0.00000000000E+00 -0.35241897097E+03  0.37393010397E+03  0.12499836619E+03 0.  0.
    9000005    1    3    3    0    0  0.61644701042E+02  0.10797133806E+01 -0.20670394286E+03  0.21570525014E+03  0.10000000000E+01 0.  0.
    9000005    1    3    3    0    0 -0.61644701042E+02 -0.10797133806E+01 -0.14571502812E+03  0.15822485382E+03  0.10000000000E+01 0.  0.
<mgrwt>
<rscale>  0 0.12499837E+03</rscale>
<asrwt>0</asrwt>
<pdfrwt beam="2">  1        4 0.55872996E-01 0.12499837E+03</pdfrwt>
<pdfrwt beam="1">  1       -4 0.16547028E-02 0.12499837E+03</pdfrwt>
<totfact> 0.67172199E+03</totfact>
</mgrwt>
</event>
<event>
 5    1  0.3235144E-002  0.1250025E+03  0.7818608E-02  0.1235065E+00
          4   -1    0    0  501    0  0.00000000000E+00  0.00000000000E+00  0.28668191546E+02  0.28696308239E+02  0.12700000000E+01 0.  1.
         -4   -1    0    0    0  501 -0.00000000000E+00 -0.00000000000E+00 -0.13616485515E+03  0.13617077762E+03  0.12700000000E+01 0.  1.
         25    2    1    2    0    0  0.00000000000E+00  0.00000000000E+00 -0.10749666360E+03  0.16486708586E+03  0.12500249323E+03 0.  0.
    9000005    1    3    3    0    0 -0.36066358477E+02  0.17969844733E+02 -0.11674902773E+03  0.12351126674E+03  0.10000000000E+01 0.  0.
    9000005    1    3    3    0    0  0.36066358477E+02 -0.17969844733E+02  0.92523641308E+01  0.41355819125E+02  0.10000000000E+01 0.  0.
<mgrwt>
<rscale>  0 0.12500249E+03</rscale>
<asrwt>0</asrwt>
<pdfrwt beam="1">  1        4 0.44131095E-02 0.12500249E+03</pdfrwt>
<pdfrwt beam="2">  1       -4 0.20951057E-01 0.12500249E+03</pdfrwt>
<totfact> 0.96407170E+03</totfact>
</mgrwt>
</event>
<event>
 5    1  0.3235144E-002  0.1249998E+03  0.7818608E-02  0.1235070E+00
          4   -1    0    0  501    0  0.00000000000E+00  0.00000000000E+00  0.19732007281E+03  0.19732415978E+03  0.12700000000E+01 0.  1.
         -4   -1    0    0    0  501 -0.00000000000E+00 -0.00000000000E+00 -0.19771787370E+02  0.19812533301E+02  0.12700000000E+01 0.  1.
         25    2    1    2    0    0  0.00000000000E+00  0.00000000000E+00  0.17754828544E+03  0.21713669308E+03  0.12499979928E+03 0.  0.
    9000005    1    3    3    0    0  0.25576822204E+02  0.35913874101E+02  0.11844947928E+02  0.45664898756E+02  0.10000000000E+01 0.  0.
    9000005    1    3    3    0    0 -0.25576822204E+02 -0.35913874101E+02  0.16570333751E+03  0.17147179433E+03  0.10000000000E+01 0.  0.
<mgrwt>
<rscale>  0 0.12499980E+03</rscale>
<asrwt>0</asrwt>
<pdfrwt beam="1">  1        4 0.30360384E-01 0.12499980E+03</pdfrwt>
<pdfrwt beam="2">  1       -4 0.30452620E-02 0.12499980E+03</pdfrwt>
<totfact> 0.87323858E+03</totfact>
</mgrwt>
</event>
<event>
 5    1  0.3235144E-002  0.1249970E+03  0.7818608E-02  0.1235074E+00
         -4   -1    0    0    0  501 -0.00000000000E+00  0.00000000000E+00  0.22461299169E+02  0.22497174497E+02  0.12700000000E+01 0. -1.
          4   -1    0    0  501    0  0.00000000000E+00 -0.00000000000E+00 -0.17372498036E+03  0.17372962240E+03  0.12700000000E+01 0. -1.
         25    2    1    2    0    0  0.00000000000E+00  0.00000000000E+00 -0.15126368119E+03  0.19622679690E+03  0.12499701826E+03 0.  0.
    9000005    1    3    3    0    0  0.42209055081E+02  0.59752647996E-01 -0.32915467816E+01  0.42349051718E+02  0.10000000000E+01 0.  0.
    9000005    1    3    3    0    0 -0.42209055081E+02 -0.59752647996E-01 -0.14797213441E+03  0.15387774518E+03  0.10000000000E+01 0.  0.
<mgrwt>
<rscale>  0 0.12499702E+03</rscale>
<asrwt>0</asrwt>
<pdfrwt beam="2">  1        4 0.26730036E-01 0.12499702E+03</pdfrwt>
<pdfrwt beam="1">  1       -4 0.34587013E-02 0.12499702E+03</pdfrwt>
<totfact> 0.90781078E+03</totfact>
</mgrwt>
</event>
<event>
 5    1  0.3235144E-002  0.1250007E+03  0.7818608E-02  0.1235068E+00
         -4   -1    0    0    0  501 -0.00000000000E+00  0.00000000000E+00  0.17175289091E+02  0.17222179170E+02  0.12700000000E+01 0. -1.
          4   -1    0    0  501    0  0.00000000000E+00 -0.00000000000E+00 -0.22707809259E+03  0.22708164399E+03  0.12700000000E+01 0. -1.
         25    2    1    2    0    0  0.00000000000E+00  0.00000000000E+00 -0.20990280350E+03  0.24430382316E+03  0.12500068436E+03 0.  0.
    9000005    1    3    3    0    0 -0.12738390792E+02  0.35595056916E+02 -0.77002440752E+01  0.38594927589E+02  0.10000000000E+01 0.  0.
    9000005    1    3    3    0    0  0.12738390792E+02 -0.35595056916E+02 -0.20220255943E+03  0.20570889557E+03  0.10000000000E+01 0.  0.
<mgrwt>
<rscale>  0 0.12500068E+03</rscale>
<asrwt>0</asrwt>
<pdfrwt beam="2">  1        4 0.34938969E-01 0.12500068E+03</pdfrwt>
<pdfrwt beam="1">  1       -4 0.26462324E-02 0.12500068E+03</pdfrwt>
<totfact> 0.83159269E+03</totfact>
</mgrwt>
</event>
<event>
 5    1  0.3235144E-002  0.1249974E+03  0.7818608E-02  0.1235073E+00
         -4   -1    0    0    0  501 -0.00000000000E+00  0.00000000000E+00  0.18375141561E+03  0.18375580437E+03  0.12700000000E+01 0. -1.
          4   -1    0    0  501    0  0.00000000000E+00 -0.00000000000E+00 -0.21233850970E+02  0.21271796516E+02  0.12700000000E+01 0. -1.
         25    2    1    2    0    0  0.00000000000E+00  0.00000000000E+00  0.16251756464E+03  0.20502760088E+03  0.12499743320E+03 0.  0.
    9000005    1    3    3    0    0 -0.58120178323E+02 -0.44519709314E+01  0.44314279084E+02  0.73229300858E+02  0.10000000000E+01 0.  0.
    9000005    1    3    3    0    0  0.58120178323E+02  0.44519709314E+01  0.11820328556E+03  0.13179830003E+03  0.10000000000E+01 0.  0.
<mgrwt>
<rscale>  0 0.12499743E+03</rscale>
<asrwt>0</asrwt>
<pdfrwt beam="2">  1        4 0.32700028E-02 0.12499743E+03</pdfrwt>
<pdfrwt beam="1">  1       -4 0.28272705E-01 0.12499743E+03</pdfrwt>
<totfact> 0.89299558E+03</totfact>
</mgrwt>
</event>
<event>
 5    1  0.3235144E-002  0.1250056E+03  0.7818608E-02  0.1235060E+00
          4   -1    0    0  501    0  0.00000000000E+00  0.00000000000E+00  0.78436018506E+03  0.78436121322E+03  0.12700000000E+01 0. -1.
         -4   -1    0    0    0  501 -0.00000000000E+00 -0.00000000000E+00 -0.48986154654E+01  0.50605665175E+01  0.12700000000E+01 0. -1.
         25    2    1    2    0    0  0.00000000000E+00  0.00000000000E+00  0.77946156959E+03  0.78942177974E+03  0.12500563128E+03 0.  0.
    9000005    1    3    3    0    0  0.71656906620E+00 -0.32503615334E+02  0.52679857002E+02  0.61912565888E+02  0.10000000000E+01 0.  0.
    9000005    1    3    3    0    0 -0.71656906620E+00  0.32503615334E+02  0.72678171259E+03  0.72750921385E+03  0.10000000000E+01 0.  0.
<mgrwt>
<rscale>  0 0.12500563E+03</rscale>
<asrwt>0</asrwt>
<pdfrwt beam="1">  1        4 0.12068335E+00 0.12500563E+03</pdfrwt>
<pdfrwt beam="2">  1       -4 0.76616991E-03 0.12500563E+03</pdfrwt>
<totfact> 0.38736580E+03</totfact>
</mgrwt>
</event>
<event>
 5    1  0.3235144E-002  0.1250014E+03  0.7818608E-02  0.1235067E+00
          4   -1    0    0  501    0  0.00000000000E+00  0.00000000000E+00  0.13721520190E+02  0.13780167500E+02  0.12700000000E+01 0.  1.
         -4   -1    0    0    0  501 -0.00000000000E+00 -0.00000000000E+00 -0.28401968784E+03  0.28402252725E+03  0.12700000000E+01 0.  1.
         25    2    1    2    0    0  0.00000000000E+00  0.00000000000E+00 -0.27029816765E+03  0.29780269475E+03  0.12500138223E+03 0.  0.
    9000005    1    3    3    0    0 -0.69319082694E+01 -0.50356286633E+02 -0.48542236787E+02  0.70293354651E+02  0.10000000000E+01 0.  0.
    9000005    1    3    3    0    0  0.69319082694E+01  0.50356286633E+02 -0.22175593087E+03  0.22750934009E+03  0.10000000000E+01 0.  0.
<mgrwt>
<rscale>  0 0.12500138E+03</rscale>
<asrwt>0</asrwt>
<pdfrwt beam="1">  1        4 0.21157331E-02 0.12500138E+03</pdfrwt>
<pdfrwt beam="2">  1       -4 0.43700062E-01 0.12500138E+03</pdfrwt>
<totfact> 0.75872967E+03</totfact>
</mgrwt>
</event>
<event>
 5    1  0.3235144E-002  0.1250005E+03  0.7818608E-02  0.1235069E+00
         -4   -1    0    0    0  501 -0.00000000000E+00  0.00000000000E+00  0.14000008683E+03  0.14000584706E+03  0.12700000000E+01 0.  1.
          4   -1    0    0  501    0  0.00000000000E+00 -0.00000000000E+00 -0.27881201290E+02  0.27910110809E+02  0.12700000000E+01 0.  1.
         25    2    1    2    0    0  0.00000000000E+00  0.00000000000E+00  0.11211888554E+03  0.16791595787E+03  0.12500049765E+03 0.  0.
    9000005    1    3    3    0    0  0.14738224438E+02 -0.66827965713E+01 -0.25024343123E+02  0.29817658834E+02  0.10000000000E+01 0.  0.
    9000005    1    3    3    0    0 -0.14738224438E+02  0.66827965713E+01  0.13714322866E+03  0.13809829904E+03  0.10000000000E+01 0.  0.
<mgrwt>
<rscale>  0 0.12500050E+03</rscale>
<asrwt>0</asrwt>
<pdfrwt beam="2">  1        4 0.42920825E-02 0.12500050E+03</pdfrwt>
<pdfrwt beam="1">  1       -4 0.21541142E-01 0.12500050E+03</pdfrwt>
<totfact> 0.95836917E+03</totfact>
</mgrwt>
</event>
<event>
 5    1  0.3235144E-002  0.1250038E+03  0.7818608E-02  0.1235063E+00
          4   -1    0    0  501    0  0.00000000000E+00  0.00000000000E+00  0.18628752931E+03  0.18629185832E+03  0.12700000000E+01 0.  1.
         -4   -1    0    0    0  501 -0.00000000000E+00 -0.00000000000E+00 -0.20946403216E+02  0.20984868541E+02  0.12700000000E+01 0.  1.
         25    2    1    2    0    0  0.00000000000E+00  0.00000000000E+00  0.16534112609E+03  0.20727672686E+03  0.12500381402E+03 0.  0.
    9000005    1    3    3    0    0  0.47646139258E+02  0.28151196790E+02  0.34531142837E+02  0.65238365189E+02  0.10000000000E+01 0.  0.
    9000005    1    3    3    0    0 -0.47646139258E+02 -0.28151196790E+02  0.13080998325E+03  0.14203836167E+03  0.10000000000E+01 0.  0.
<mgrwt>
<rscale>  0 0.12500381E+03</rscale>
<asrwt>0</asrwt>
<pdfrwt beam="1">  1        4 0.28662913E-01 0.12500381E+03</pdfrwt>
<pdfrwt beam="2">  1       -4 0.32258153E-02 0.12500381E+03</pdfrwt>
<totfact> 0.88914982E+03</totfact>
</mgrwt>
</event>
<event>
 5    1  0.3235144E-002  0.1250006E+03  0.7818608E-02  0.1235068E+00
          4   -1    0    0  501    0  0.00000000000E+00  0.00000000000E+00  0.98853111520E+02  0.98861269247E+02  0.12700000000E+01 0.  1.
         -4   -1    0    0    0  501 -0.00000000000E+00 -0.00000000000E+00 -0.39496067491E+02  0.39516480705E+02  0.12700000000E+01 0.  1.
         25    2    1    2    0    0  0.00000000000E+00  0.00000000000E+00  0.59357044029E+02  0.13837774995E+03  0.12500057202E+03 0.  0.
    9000005    1    3    3    0    0  0.56385165828E+02 -0.26931238450E+02  0.28747559907E+02  0.68789539398E+02  0.10000000000E+01 0.  0.
    9000005    1    3    3    0    0 -0.56385165828E+02  0.26931238450E+02  0.30609484122E+02  0.69588210554E+02  0.10000000000E+01 0.  0.
<mgrwt>
<rscale>  0 0.12500057E+03</rscale>
<asrwt>0</asrwt>
<pdfrwt beam="1">  1        4 0.15210369E-01 0.12500057E+03</pdfrwt>
<pdfrwt beam="2">  1       -4 0.60785159E-02 0.12500057E+03</pdfrwt>
<totfact> 0.10167188E+04</totfact>
</mgrwt>
</event>
<event>
 5    1  0.3235144E-002  0.1250003E+03  0.7818608E-02  0.1235069E+00
         -4   -1    0    0    0  501 -0.00000000000E+00  0.00000000000E+00  0.23451445010E+03  0.23451788888E+03  0.12700000000E+01 0.  1.
          4   -1    0    0  501    0  0.00000000000E+00 -0.00000000000E+00 -0.16629050264E+02  0.16677476209E+02  0.12700000000E+01 0.  1.
         25    2    1    2    0    0  0.00000000000E+00  0.00000000000E+00  0.21788539984E+03  0.25119536509E+03  0.12500025593E+03 0.  0.
    9000005    1    3    3    0    0  0.59988813246E+02  0.33186961043E+01  0.74392630742E+02  0.95629153333E+02  0.10000000000E+01 0.  0.
    9000005    1    3    3    0    0 -0.59988813246E+02 -0.33186961043E+01  0.14349276909E+03  0.15556621176E+03  0.10000000000E+01 0.  0.
<mgrwt>
<rscale>  0 0.12500026E+03</rscale>
<asrwt>0</asrwt>
<pdfrwt beam="2">  1        4 0.25623052E-02 0.12500026E+03</pdfrwt>
<pdfrwt beam="1">  1       -4 0.36083133E-01 0.12500026E+03</pdfrwt>
<totfact> 0.82157300E+03</totfact>
</mgrwt>
</event>
<event>
 5    1  0.3235144E-002  0.1249983E+03  0.7818608E-02  0.1235072E+00
         -4   -1    0    0    0  501 -0.00000000000E+00  0.00000000000E+00  0.21228712618E+03  0.21229092501E+03  0.12700000000E+01 0. -1.
          4   -1    0    0  501    0  0.00000000000E+00 -0.00000000000E+00 -0.18374408706E+02  0.18418246260E+02  0.12700000000E+01 0. -1.
         25    2    1    2    0    0  0.00000000000E+00  0.00000000000E+00  0.19391271747E+03  0.23070917127E+03  0.12499831883E+03 0.  0.
    9000005    1    3    3    0    0 -0.31849545856E+02 -0.28925391610E+02  0.18060687628E+03  0.18566344716E+03  0.10000000000E+01 0.  0.
    9000005    1    3    3    0    0  0.31849545856E+02  0.28925391610E+02  0.13305841195E+02  0.45045724114E+02  0.10000000000E+01 0.  0.
<mgrwt>
<rscale>  0 0.12499832E+03</rscale>
<asrwt>0</asrwt>
<pdfrwt beam="2">  1        4 0.28304965E-02 0.12499832E+03</pdfrwt>
<pdfrwt beam="1">  1       -4 0.32663221E-01 0.12499832E+03</pdfrwt>
<totfact> 0.85204018E+03</totfact>
</mgrwt>
</event>
<event>
 5    1  0.3235144E-002  0.1249999E+03  0.7818608E-02  0.1235069E+00
          4   -1    0    0  501    0  0.00000000000E+00  0.00000000000E+00  0.53787522196E+02  0.53802513361E+02  0.12700000000E+01 0.  1.
         -4   -1    0    0    0  501 -0.00000000000E+00 -0.00000000000E+00 -0.72592990783E+02  0.72604099132E+02  0.12700000000E+01 0.  1.
         25    2    1    2    0    0  0.00000000000E+00  0.00000000000E+00 -0.18805468588E+02  0.12640661249E+03  0.12499994413E+03 0.  0.
    9000005    1    3    3    0    0  0.75868933769E+01 -0.58680821114E+02  0.10929413806E+02  0.60178499515E+02  0.10000000000E+01 0.  0.
    9000005    1    3    3    0    0 -0.75868933769E+01  0.58680821114E+02 -0.29734882394E+02  0.66228112978E+02  0.10000000000E+01 0.  0.
<mgrwt>
<rscale>  0 0.12499994E+03</rscale>
<asrwt>0</asrwt>
<pdfrwt beam="1">  1        4 0.82770111E-02 0.12499994E+03</pdfrwt>
<pdfrwt beam="2">  1       -4 0.11170160E-01 0.12499994E+03</pdfrwt>
<totfact> 0.10422079E+04</totfact>
</mgrwt>
</event>
<event>
 5    1  0.3235144E-002  0.1249984E+03  0.7818608E-02  0.1235072E+00
         -4   -1    0    0    0  501 -0.00000000000E+00  0.00000000000E+00  0.52594360922E+02  0.52609692080E+02  0.12700000000E+01 0.  1.
          4   -1    0    0  501    0  0.00000000000E+00 -0.00000000000E+00 -0.74237803832E+02  0.74248666101E+02  0.12700000000E+01 0.  1.
         25    2    1    2    0    0  0.00000000000E+00  0.00000000000E+00 -0.21643442910E+02  0.12685835818E+03  0.12499841767E+03 0.  0.
    9000005    1    3    3    0    0 -0.47102343552E+02 -0.10772593231E+02 -0.51040567962E+02  0.70290960378E+02  0.10000000000E+01 0.  0.
    9000005    1    3    3    0    0  0.47102343552E+02  0.10772593231E+02  0.29397125052E+02  0.56567397804E+02  0.10000000000E+01 0.  0.
<mgrwt>
<rscale>  0 0.12499842E+03</rscale>
<asrwt>0</asrwt>
<pdfrwt beam="2">  1        4 0.11423215E-01 0.12499842E+03</pdfrwt>
<pdfrwt beam="1">  1       -4 0.80934550E-02 0.12499842E+03</pdfrwt>
<totfact> 0.10412596E+04</totfact>
</mgrwt>
</event>
<event>
 5    1  0.3235144E-002  0.1249993E+03  0.7818608E-02  0.1235070E+00
          4   -1    0    0  501    0  0.00000000000E+00  0.00000000000E+00  0.17318152121E+03  0.17318617782E+03  0.12700000000E+01 0.  1.
         -4   -1    0    0    0  501 -0.00000000000E+00 -0.00000000000E+00 -0.22532727008E+02  0.22568488793E+02  0.12700000000E+01 0.  1.
         25    2    1    2    0    0  0.00000000000E+00  0.00000000000E+00  0.15064879420E+03  0.19575466661E+03  0.12499932122E+03 0.  0.
    9000005    1    3    3    0    0  0.24663032913E+02 -0.35917470339E+02  0.14548041397E+03  0.15186797134E+03  0.10000000000E+01 0.  0.
    9000005    1    3    3    0    0 -0.24663032913E+02  0.35917470339E+02  0.51683802249E+01  0.43886695275E+02  0.10000000000E+01 0.  0.
<mgrwt>
<rscale>  0 0.12499932E+03</rscale>
<asrwt>0</asrwt>
<pdfrwt beam="1">  1        4 0.26646421E-01 0.12499932E+03</pdfrwt>
<pdfrwt beam="2">  1       -4 0.34696824E-02 0.12499932E+03</pdfrwt>
<totfact> 0.90856930E+03</totfact>
</mgrwt>
</event>
<event>
 5    1  0.3235144E-002  0.1250076E+03  0.7818608E-02  0.1235057E+00
          4   -1    0    0  501    0  0.00000000000E+00  0.00000000000E+00  0.81995109161E+01  0.82972814381E+01  0.12700000000E+01 0. -1.
         -4   -1    0    0    0  501 -0.00000000000E+00 -0.00000000000E+00 -0.47353557406E+03  0.47353727710E+03  0.12700000000E+01 0. -1.
         25    2    1    2    0    0  0.00000000000E+00  0.00000000000E+00 -0.46533606314E+03  0.48183455854E+03  0.12500756032E+03 0.  0.
    9000005    1    3    3    0    0 -0.37024815807E+02  0.62128645373E+01 -0.42524698614E+03  0.42690213854E+03  0.10000000000E+01 0.  0.
    9000005    1    3    3    0    0  0.37024815807E+02 -0.62128645373E+01 -0.40089077009E+02  0.54932419997E+02  0.10000000000E+01 0.  0.
<mgrwt>
<rscale>  0 0.12500756E+03</rscale>
<asrwt>0</asrwt>
<pdfrwt beam="1">  1        4 0.12691154E-02 0.12500756E+03</pdfrwt>
<pdfrwt beam="2">  1       -4 0.72859257E-01 0.12500756E+03</pdfrwt>
<totfact> 0.57292329E+03</totfact>
</mgrwt>
</event>
<event>
 5    1  0.3235144E-002  0.1249996E+03  0.7818608E-02  0.1235070E+00
         -4   -1    0    0    0  501 -0.00000000000E+00  0.00000000000E+00  0.39362472153E+01  0.41360539334E+01  0.12700000000E+01 0. -1.
          4   -1    0    0  501    0  0.00000000000E+00 -0.00000000000E+00 -0.96761004564E+03  0.96761087908E+03  0.12700000000E+01 0. -1.
         25    2    1    2    0    0  0.00000000000E+00  0.00000000000E+00 -0.96367379842E+03  0.97174693302E+03  0.12499964824E+03 0.  0.
    9000005    1    3    3    0    0  0.22755394244E+02 -0.46922589561E+02 -0.21414817192E+03  0.22040865890E+03  0.10000000000E+01 0.  0.
    9000005    1    3    3    0    0 -0.22755394244E+02  0.46922589561E+02 -0.74952562650E+03  0.75133827412E+03  0.10000000000E+01 0.  0.
<mgrwt>
<rscale>  0 0.12499965E+03</rscale>
<asrwt>0</asrwt>
<pdfrwt beam="2">  1        4 0.14887833E+00 0.12499965E+03</pdfrwt>
<pdfrwt beam="1">  1       -4 0.62101112E-03 0.12499965E+03</pdfrwt>
<totfact> 0.31556518E+03</totfact>
</mgrwt>
</event>
<event>
 5    1  0.3235144E-002  0.1250043E+03  0.7818608E-02  0.1235063E+00
         -4   -1    0    0    0  501 -0.00000000000E+00  0.00000000000E+00  0.23763946762E+03  0.23764286119E+03  0.12700000000E+01 0.  1.
          4   -1    0    0  501    0  0.00000000000E+00 -0.00000000000E+00 -0.16410805747E+02  0.16459873792E+02  0.12700000000E+01 0.  1.
         25    2    1    2    0    0  0.00000000000E+00  0.00000000000E+00  0.22122866188E+03  0.25410273498E+03  0.12500431627E+03 0.  0.
    9000005    1    3    3    0    0 -0.51658551302E+02 -0.25059322446E+02  0.16077612749E+03  0.17072357404E+03  0.10000000000E+01 0.  0.
    9000005    1    3    3    0    0  0.51658551302E+02  0.25059322446E+02  0.60452534389E+02  0.83379160934E+02  0.10000000000E+01 0.  0.
<mgrwt>
<rscale>  0 0.12500432E+03</rscale>
<asrwt>0</asrwt>
<pdfrwt beam="2">  1        4 0.25287749E-02 0.12500432E+03</pdfrwt>
<pdfrwt beam="1">  1       -4 0.36563953E-01 0.12500432E+03</pdfrwt>
<totfact> 0.81732990E+03</totfact>
</mgrwt>
</event>
<event>
 5    1  0.3235144E-002  0.1250003E+03  0.7818608E-02  0.1235069E+00
          4   -1    0    0  501    0  0.00000000000E+00  0.00000000000E+00  0.30782005618E+03  0.30782267604E+03  0.12700000000E+01 0.  1.
         -4   -1    0    0    0  501 -0.00000000000E+00 -0.00000000000E+00 -0.12655643277E+02  0.12719206216E+02  0.12700000000E+01 0.  1.
         25    2    1    2    0    0  0.00000000000E+00  0.00000000000E+00  0.29516441290E+03  0.32054188226E+03  0.12500027055E+03 0.  0.
    9000005    1    3    3    0    0 -0.62021389706E+02  0.74182119208E+01  0.14272738113E+03  0.15580047489E+03  0.10000000000E+01 0.  0.
    9000005    1    3    3    0    0  0.62021389706E+02 -0.74182119208E+01  0.15243703177E+03  0.16474140737E+03  0.10000000000E+01 0.  0.
<mgrwt>
<rscale>  0 0.12500027E+03</rscale>
<asrwt>0</asrwt>
<pdfrwt beam="1">  1        4 0.47362019E-01 0.12500027E+03</pdfrwt>
<pdfrwt beam="2">  1       -4 0.19521132E-02 0.12500027E+03</pdfrwt>
<totfact> 0.73091284E+03</totfact>
</mgrwt>
</event>
<event>
 5    1  0.3235144E-002  0.1250012E+03  0.7818608E-02  0.1235067E+00
          4   -1    0    0  501    0  0.00000000000E+00  0.00000000000E+00  0.77713122234E+02  0.77723498810E+02  0.12700000000E+01 0. -1.
         -4   -1    0    0    0  501 -0.00000000000E+00 -0.00000000000E+00 -0.50244224694E+02  0.50260272733E+02  0.12700000000E+01 0. -1.
         25    2    1    2    0    0  0.00000000000E+00  0.00000000000E+00  0.27468897539E+02  0.12798377154E+03  0.12500122178E+03 0.  0.
    9000005    1    3    3    0    0  0.25879658773E+02 -0.56428368965E+02  0.63933785729E+01  0.62416286751E+02  0.10000000000E+01 0.  0.
    9000005    1    3    3    0    0 -0.25879658773E+02  0.56428368965E+02  0.21075518966E+02  0.65567484792E+02  0.10000000000E+01 0.  0.
<mgrwt>
<rscale>  0 0.12500122E+03</rscale>
<asrwt>0</asrwt>
<pdfrwt beam="1">  1        4 0.11957898E-01 0.12500122E+03</pdfrwt>
<pdfrwt beam="2">  1       -4 0.77319134E-02 0.12500122E+03</pdfrwt>
<totfact> 0.10387552E+04</totfact>
</mgrwt>
</event>
<event>
 5    1  0.3235144E-002  0.1249870E+03  0.7818608E-02  0.1235090E+00
          4   -1    0    0  501    0  0.00000000000E+00  0.00000000000E+00  0.10701262375E+03  0.10702015951E+03  0.12700000000E+01 0. -1.
         -4   -1    0    0    0  501 -0.00000000000E+00 -0.00000000000E+00 -0.36475242369E+02  0.36497345189E+02  0.12700000000E+01 0. -1.
         25    2    1    2    0    0  0.00000000000E+00  0.00000000000E+00  0.70537381384E+02  0.14351750470E+03  0.12498700726E+03 0.  0.
    9000005    1    3    3    0    0 -0.51552354407E+02  0.10683445330E+02 -0.33759402137E+01  0.52765312671E+02  0.10000000000E+01 0.  0.
    9000005    1    3    3    0    0  0.51552354407E+02 -0.10683445330E+02  0.73913321598E+02  0.90752192032E+02  0.10000000000E+01 0.  0.
<mgrwt>
<rscale>  0 0.12498701E+03</rscale>
<asrwt>0</asrwt>
<pdfrwt beam="1">  1        4 0.16465760E-01 0.12498701E+03</pdfrwt>
<pdfrwt beam="2">  1       -4 0.56138557E-02 0.12498701E+03</pdfrwt>
<totfact> 0.10064141E+04</totfact>
</mgrwt>
</event>
<event>
 5    1  0.3235144E-002  0.1250205E+03  0.7818608E-02  0.1235037E+00
          4   -1    0    0  501    0  0.00000000000E+00  0.00000000000E+00  0.91547660806E+01  0.92424370158E+01  0.12700000000E+01 0. -1.
         -4   -1    0    0    0  501 -0.00000000000E+00 -0.00000000000E+00 -0.42470772151E+03  0.42470962034E+03  0.12700000000E+01 0. -1.
         25    2    1    2    0    0  0.00000000000E+00  0.00000000000E+00 -0.41555295543E+03  0.43395205736E+03  0.12502051559E+03 0.  0.
    9000005    1    3    3    0    0 -0.27174526217E+02 -0.29277756019E+02 -0.37463567333E+03  0.37676057332E+03  0.10000000000E+01 0.  0.
    9000005    1    3    3    0    0  0.27174526217E+02  0.29277756019E+02 -0.40917282100E+02  0.57191484043E+02  0.10000000000E+01 0.  0.
<mgrwt>
<rscale>  0 0.12502052E+03</rscale>
<asrwt>0</asrwt>
<pdfrwt beam="1">  1        4 0.14153159E-02 0.12502052E+03</pdfrwt>
<pdfrwt beam="2">  1       -4 0.65346524E-01 0.12502052E+03</pdfrwt>
<totfact> 0.61351644E+03</totfact>
</mgrwt>
</event>
<event>
 5    1  0.3235144E-002  0.1250068E+03  0.7818608E-02  0.1235059E+00
          4   -1    0    0  501    0  0.00000000000E+00  0.00000000000E+00  0.82397676953E+03  0.82397774826E+03  0.12700000000E+01 0. -1.
         -4   -1    0    0    0  501 -0.00000000000E+00 -0.00000000000E+00 -0.46551965146E+01  0.48253242989E+01  0.12700000000E+01 0. -1.
         25    2    1    2    0    0  0.00000000000E+00  0.00000000000E+00  0.81932157302E+03  0.82880307256E+03  0.12500677210E+03 0.  0.
    9000005    1    3    3    0    0 -0.30939415071E+02  0.34532095660E+02  0.68748823433E+03  0.68905064065E+03  0.10000000000E+01 0.  0.
    9000005    1    3    3    0    0  0.30939415071E+02 -0.34532095660E+02  0.13183333869E+03  0.13975243191E+03  0.10000000000E+01 0.  0.
<mgrwt>
<rscale>  0 0.12500677E+03</rscale>
<asrwt>0</asrwt>
<pdfrwt beam="1">  1        4 0.12677883E+00 0.12500677E+03</pdfrwt>
<pdfrwt beam="2">  1       -4 0.72934605E-03 0.12500677E+03</pdfrwt>
<totfact> 0.37005280E+03</totfact>
</mgrwt>
</event>
<event>
 5    1  0.3235144E-002  0.1250013E+03  0.7818608E-02  0.1235067E+00
          4   -1    0    0  501    0  0.00000000000E+00  0.00000000000E+00  0.22545602560E+02  0.22581343954E+02  0.12700000000E+01 0.  1.
         -4   -1    0    0    0  501 -0.00000000000E+00 -0.00000000000E+00 -0.17308822768E+03  0.17309288680E+03  0.12700000000E+01 0.  1.
         25    2    1    2    0    0  0.00000000000E+00  0.00000000000E+00 -0.15054262512E+03  0.19567423075E+03  0.12500129041E+03 0.  0.
    9000005    1    3    3    0    0  0.41276507081E+02  0.18286778531E+02 -0.14291255476E+03  0.14987713172E+03  0.10000000000E+01 0.  0.
    9000005    1    3    3    0    0 -0.41276507081E+02 -0.18286778531E+02 -0.76300703585E+01  0.45797099030E+02  0.10000000000E+01 0.  0.
<mgrwt>
<rscale>  0 0.12500129E+03</rscale>
<asrwt>0</asrwt>
<pdfrwt beam="1">  1        4 0.34716621E-02 0.12500129E+03</pdfrwt>
<pdfrwt beam="2">  1       -4 0.26632065E-01 0.12500129E+03</pdfrwt>
<totfact> 0.90866658E+03</totfact>
</mgrwt>
</event>
<event>
 5    1  0.3235144E-002  0.1250004E+03  0.7818608E-02  0.1235069E+00
         -4   -1    0    0    0  501 -0.00000000000E+00  0.00000000000E+00  0.11387193877E+03  0.11387902063E+03  0.12700000000E+01 0.  1.
          4   -1    0    0  501    0  0.00000000000E+00 -0.00000000000E+00 -0.34284219255E+02  0.34307733676E+02  0.12700000000E+01 0.  1.
         25    2    1    2    0    0  0.00000000000E+00  0.00000000000E+00  0.79587719519E+02  0.14818675431E+03  0.12500043622E+03 0.  0.
    9000005    1    3    3    0    0  0.50963977877E+02 -0.13682674423E+02  0.10676979399E+00  0.52778348025E+02  0.10000000000E+01 0.  0.
    9000005    1    3    3    0    0 -0.50963977877E+02  0.13682674423E+02  0.79480949725E+02  0.95408406284E+02  0.10000000000E+01 0.  0.
<mgrwt>
<rscale>  0 0.12500044E+03</rscale>
<asrwt>0</asrwt>
<pdfrwt beam="2">  1        4 0.52768490E-02 0.12500044E+03</pdfrwt>
<pdfrwt beam="1">  1       -4 0.17521113E-01 0.12500044E+03</pdfrwt>
<totfact> 0.99665398E+03</totfact>
</mgrwt>
</event>
<event>
 5    1  0.3235144E-002  0.1249969E+03  0.7818608E-02  0.1235074E+00
          4   -1    0    0  501    0  0.00000000000E+00  0.00000000000E+00  0.10787591329E+03  0.10788338875E+03  0.12700000000E+01 0.  1.
         -4   -1    0    0    0  501 -0.00000000000E+00 -0.00000000000E+00 -0.36188915143E+02  0.36211192734E+02  0.12700000000E+01 0.  1.
         25    2    1    2    0    0  0.00000000000E+00  0.00000000000E+00  0.71686998146E+02  0.14409458148E+03  0.12499689080E+03 0.  0.
    9000005    1    3    3    0    0  0.60935711106E+02 -0.53545965069E+01  0.21115653174E+02  0.64720193145E+02  0.10000000000E+01 0.  0.
    9000005    1    3    3    0    0 -0.60935711106E+02  0.53545965069E+01  0.50571344973E+02  0.79374388339E+02  0.10000000000E+01 0.  0.
<mgrwt>
<rscale>  0 0.12499689E+03</rscale>
<asrwt>0</asrwt>
<pdfrwt beam="1">  1        4 0.16598583E-01 0.12499689E+03</pdfrwt>
<pdfrwt beam="2">  1       -4 0.55698141E-02 0.12499689E+03</pdfrwt>
<totfact> 0.10050121E+04</totfact>
</mgrwt>
</event>
<event>
 5    1  0.3235144E-002  0.1249948E+03  0.7818608E-02  0.1235077E+00
          4   -1    0    0  501    0  0.00000000000E+00  0.00000000000E+00  0.22631720715E+02  0.22667326320E+02  0.12700000000E+01 0. -1.
         -4   -1    0    0    0  501 -0.00000000000E+00 -0.00000000000E+00 -0.17241279160E+03  0.17241746897E+03  0.12700000000E+01 0. -1.
         25    2    1    2    0    0  0.00000000000E+00  0.00000000000E+00 -0.14978107088E+03  0.19508479529E+03  0.12499483253E+03 0.  0.
    9000005    1    3    3    0    0  0.39746405359E+02 -0.14575454015E+02 -0.31522584775E+01  0.42463600085E+02  0.10000000000E+01 0.  0.
    9000005    1    3    3    0    0 -0.39746405359E+02  0.14575454015E+02 -0.14662881241E+03  0.15262119521E+03  0.10000000000E+01 0.  0.
<mgrwt>
<rscale>  0 0.12499483E+03</rscale>
<asrwt>0</asrwt>
<pdfrwt beam="1">  1        4 0.34849020E-02 0.12499483E+03</pdfrwt>
<pdfrwt beam="2">  1       -4 0.26528143E-01 0.12499483E+03</pdfrwt>
<totfact> 0.90980553E+03</totfact>
</mgrwt>
</event>
<event>
 5    1  0.3235144E-002  0.1249987E+03  0.7818608E-02  0.1235071E+00
         -4   -1    0    0    0  501 -0.00000000000E+00  0.00000000000E+00  0.26149338447E+02  0.26180160451E+02  0.12700000000E+01 0. -1.
          4   -1    0    0  501    0  0.00000000000E+00 -0.00000000000E+00 -0.14925777095E+03  0.14926317392E+03  0.12700000000E+01 0. -1.
         25    2    1    2    0    0  0.00000000000E+00  0.00000000000E+00 -0.12310843250E+03  0.17544333437E+03  0.12499870968E+03 0.  0.
    9000005    1    3    3    0    0 -0.84634114775E+01 -0.56838982895E+02 -0.27092000619E+02  0.63539560967E+02  0.10000000000E+01 0.  0.
    9000005    1    3    3    0    0  0.84634114775E+01  0.56838982895E+02 -0.96016431886E+02  0.11190377341E+03  0.10000000000E+01 0.  0.
<mgrwt>
<rscale>  0 0.12499871E+03</rscale>
<asrwt>0</asrwt>
<pdfrwt beam="2">  1        4 0.22965520E-01 0.12499871E+03</pdfrwt>
<pdfrwt beam="1">  1       -4 0.40257618E-02 0.12499871E+03</pdfrwt>
<totfact> 0.94446441E+03</totfact>
</mgrwt>
</event>
<event>
 5    1  0.3235144E-002  0.1250018E+03  0.7818608E-02  0.1235066E+00
          4   -1    0    0  501    0  0.00000000000E+00  0.00000000000E+00  0.73947235393E+02  0.73958140338E+02  0.12700000000E+01 0.  1.
         -4   -1    0    0    0  501 -0.00000000000E+00 -0.00000000000E+00 -0.52803942376E+02  0.52819212702E+02  0.12700000000E+01 0.  1.
         25    2    1    2    0    0  0.00000000000E+00  0.00000000000E+00  0.21143293016E+02  0.12677735304E+03  0.12500183360E+03 0.  0.
    9000005    1    3    3    0    0 -0.41232457290E+02 -0.18436442850E+02  0.54374769111E+02  0.70693942279E+02  0.10000000000E+01 0.  0.
    9000005    1    3    3    0    0  0.41232457290E+02  0.18436442850E+02 -0.33231476095E+02  0.56083410761E+02  0.10000000000E+01 0.  0.
<mgrwt>
<rscale>  0 0.12500183E+03</rscale>
<asrwt>0</asrwt>
<pdfrwt beam="1">  1        4 0.11378511E-01 0.12500183E+03</pdfrwt>
<pdfrwt beam="2">  1       -4 0.81256970E-02 0.12500183E+03</pdfrwt>
<totfact> 0.10413555E+04</totfact>
</mgrwt>
</event>
<event>
 5    1  0.3235144E-002  0.1250039E+03  0.7818608E-02  0.1235063E+00
         -4   -1    0    0    0  501 -0.00000000000E+00  0.00000000000E+00  0.31132576489E+02  0.31158469456E+02  0.12700000000E+01 0.  1.
          4   -1    0    0  501    0  0.00000000000E+00 -0.00000000000E+00 -0.12539794413E+03  0.12540437509E+03  0.12700000000E+01 0.  1.
         25    2    1    2    0    0  0.00000000000E+00  0.00000000000E+00 -0.94265367641E+02  0.15656284455E+03  0.12500385896E+03 0.  0.
    9000005    1    3    3    0    0  0.19083662685E+02  0.84477749790E+01 -0.12091058092E+03  0.12270256584E+03  0.10000000000E+01 0.  0.
    9000005    1    3    3    0    0 -0.19083662685E+02 -0.84477749790E+01  0.26645213282E+02  0.33860278711E+02  0.10000000000E+01 0.  0.
<mgrwt>
<rscale>  0 0.12500386E+03</rscale>
<asrwt>0</asrwt>
<pdfrwt beam="2">  1        4 0.19294478E-01 0.12500386E+03</pdfrwt>
<pdfrwt beam="1">  1       -4 0.47921137E-02 0.12500386E+03</pdfrwt>
<totfact> 0.98001060E+03</totfact>
</mgrwt>
</event>
<event>
 5    1  0.3235144E-002  0.1250255E+03  0.7818608E-02  0.1235029E+00
         -4   -1    0    0    0  501 -0.00000000000E+00  0.00000000000E+00  0.29081671319E+02  0.29109388635E+02  0.12700000000E+01 0.  1.
          4   -1    0    0  501    0  0.00000000000E+00 -0.00000000000E+00 -0.13428012313E+03  0.13428612872E+03  0.12700000000E+01 0.  1.
         25    2    1    2    0    0  0.00000000000E+00  0.00000000000E+00 -0.10519845181E+03  0.16339551736E+03  0.12502552071E+03 0.  0.
    9000005    1    3    3    0    0 -0.24271812321E+02 -0.57065739929E+02 -0.62825282811E+02  0.88281570598E+02  0.10000000000E+01 0.  0.
    9000005    1    3    3    0    0  0.24271812321E+02  0.57065739929E+02 -0.42373169000E+02  0.75113946761E+02  0.10000000000E+01 0.  0.
<mgrwt>
<rscale>  0 0.12502552E+03</rscale>
<asrwt>0</asrwt>
<pdfrwt beam="2">  1        4 0.20661074E-01 0.12502552E+03</pdfrwt>
<pdfrwt beam="1">  1       -4 0.44766974E-02 0.12502552E+03</pdfrwt>
<totfact> 0.96636697E+03</totfact>
</mgrwt>
</event>
<event>
 4    1  0.3235144E-002  0.1251221E+03  0.7818608E-02  0.1234879E+00
          4   -1    0    0  501    0  0.00000000000E+00  0.00000000000E+00  0.56050929447E+02  0.56065315409E+02  0.12700000000E+01 0.  1.
         -4   -1    0    0    0  501 -0.00000000000E+00 -0.00000000000E+00 -0.69798227765E+02  0.69809780827E+02  0.12700000000E+01 0.  1.
    9000005    1    1    2    0    0  0.67869963702E+01  0.19414598795E+02  0.52557207658E+02  0.56446878062E+02  0.10000000000E+01 0.  0.
    9000005    1    1    2    0    0 -0.67869963702E+01 -0.19414598795E+02 -0.66304505976E+02  0.69428218174E+02  0.10000000000E+01 0.  0.
<mgrwt>
<rscale>  0 0.12512215E+03</rscale>
<asrwt>0</asrwt>
<pdfrwt beam="1">  1        4 0.86252153E-02 0.12512215E+03</pdfrwt>
<pdfrwt beam="2">  1       -4 0.10740184E-01 0.12512215E+03</pdfrwt>
<totfact> 0.10404992E+04</totfact>
</mgrwt>
</event>
<event>
 5    1  0.3235144E-002  0.1250014E+03  0.7818608E-02  0.1235067E+00
         -4   -1    0    0    0  501 -0.00000000000E+00  0.00000000000E+00  0.24070961931E+02  0.24104441671E+02  0.12700000000E+01 0. -1.
          4   -1    0    0  501    0  0.00000000000E+00 -0.00000000000E+00 -0.16213554940E+03  0.16214052325E+03  0.12700000000E+01 0. -1.
         25    2    1    2    0    0  0.00000000000E+00  0.00000000000E+00 -0.13806458747E+03  0.18624496492E+03  0.12500142657E+03 0.  0.
    9000005    1    3    3    0    0  0.47143960878E+02 -0.30523956986E+02 -0.10986526496E+03  0.12339222602E+03  0.10000000000E+01 0.  0.
    9000005    1    3    3    0    0 -0.47143960878E+02  0.30523956986E+02 -0.28199322513E+02  0.62852738902E+02  0.10000000000E+01 0.  0.
<mgrwt>
<rscale>  0 0.12500143E+03</rscale>
<asrwt>0</asrwt>
<pdfrwt beam="2">  1        4 0.24946888E-01 0.12500143E+03</pdfrwt>
<pdfrwt beam="1">  1       -4 0.37061830E-02 0.12500143E+03</pdfrwt>
<totfact> 0.92501858E+03</totfact>
</mgrwt>
</event>
<event>
 5    1  0.3235144E-002  0.1250014E+03  0.7818608E-02  0.1235067E+00
         -4   -1    0    0    0  501 -0.00000000000E+00  0.00000000000E+00  0.28187487517E+02  0.28216083224E+02  0.12700000000E+01 0. -1.
          4   -1    0    0  501    0  0.00000000000E+00 -0.00000000000E+00 -0.13848238630E+03  0.13848820966E+03  0.12700000000E+01 0. -1.
         25    2    1    2    0    0  0.00000000000E+00  0.00000000000E+00 -0.11029489878E+03  0.16670429288E+03  0.12500142627E+03 0.  0.
    9000005    1    3    3    0    0 -0.10595602520E+02 -0.60555889587E+02 -0.40174250776E+02  0.73445578368E+02  0.10000000000E+01 0.  0.
    9000005    1    3    3    0    0  0.10595602520E+02  0.60555889587E+02 -0.70120648005E+02  0.93258714515E+02  0.10000000000E+01 0.  0.
<mgrwt>
<rscale>  0 0.12500143E+03</rscale>
<asrwt>0</asrwt>
<pdfrwt beam="2">  1        4 0.21307630E-01 0.12500143E+03</pdfrwt>
<pdfrwt beam="1">  1       -4 0.43391842E-02 0.12500143E+03</pdfrwt>
<totfact> 0.96062519E+03</totfact>
</mgrwt>
</event>
<event>
 5    1  0.3235144E-002  0.1250022E+03  0.7818608E-02  0.1235066E+00
         -4   -1    0    0    0  501 -0.00000000000E+00  0.00000000000E+00  0.15019095472E+03  0.15019632412E+03  0.12700000000E+01 0. -1.
          4   -1    0    0  501    0  0.00000000000E+00 -0.00000000000E+00 -0.25988147577E+02  0.26019160526E+02  0.12700000000E+01 0. -1.
         25    2    1    2    0    0  0.00000000000E+00  0.00000000000E+00  0.12420280714E+03  0.17621548465E+03  0.12500223889E+03 0.  0.
    9000005    1    3    3    0    0  0.52375693608E+02 -0.11758469699E+02  0.10720988828E+03  0.11990177245E+03  0.10000000000E+01 0.  0.
    9000005    1    3    3    0    0 -0.52375693608E+02  0.11758469699E+02  0.16992918863E+02  0.56313712202E+02  0.10000000000E+01 0.  0.
<mgrwt>
<rscale>  0 0.12500224E+03</rscale>
<asrwt>0</asrwt>
<pdfrwt beam="2">  1        4 0.40009752E-02 0.12500224E+03</pdfrwt>
<pdfrwt beam="1">  1       -4 0.23109099E-01 0.12500224E+03</pdfrwt>
<totfact> 0.94297962E+03</totfact>
</mgrwt>
</event>
<event>
 4    1  0.3235144E-002  0.1251772E+03  0.7818608E-02  0.1234793E+00
          4   -1    0    0  501    0  0.00000000000E+00  0.00000000000E+00  0.84308512671E+02  0.84318077591E+02  0.12700000000E+01 0. -1.
         -4   -1    0    0    0  501 -0.00000000000E+00 -0.00000000000E+00 -0.46443351646E+02  0.46460712565E+02  0.12700000000E+01 0. -1.
    9000005    1    1    2    0    0 -0.59847006178E+02  0.18056754723E+02  0.15865240434E+02  0.64501289860E+02  0.10000000000E+01 0.  0.
    9000005    1    1    2    0    0  0.59847006178E+02 -0.18056754723E+02  0.21999920590E+02  0.66277500297E+02  0.10000000000E+01 0.  0.
<mgrwt>
<rscale>  0 0.12517716E+03</rscale>
<asrwt>0</asrwt>
<pdfrwt beam="1">  1        4 0.12972612E-01 0.12517716E+03</pdfrwt>
<pdfrwt beam="2">  1       -4 0.71472023E-02 0.12517716E+03</pdfrwt>
<totfact> 0.10286663E+04</totfact>
</mgrwt>
</event>
<event>
 5    1  0.3235144E-002  0.1249949E+03  0.7818608E-02  0.1235077E+00
         -4   -1    0    0    0  501 -0.00000000000E+00  0.00000000000E+00  0.73547251644E+03  0.73547361294E+03  0.12700000000E+01 0.  1.
          4   -1    0    0  501    0  0.00000000000E+00 -0.00000000000E+00 -0.52337324825E+01  0.53856156285E+01  0.12700000000E+01 0.  1.
         25    2    1    2    0    0  0.00000000000E+00  0.00000000000E+00  0.73023878396E+03  0.74085922857E+03  0.12499485976E+03 0.  0.
    9000005    1    3    3    0    0  0.22080372691E+02  0.54611797714E+02  0.24150844447E+03  0.24859066768E+03  0.10000000000E+01 0.  0.
    9000005    1    3    3    0    0 -0.22080372691E+02 -0.54611797714E+02  0.48873033949E+03  0.49226856090E+03  0.10000000000E+01 0.  0.
<mgrwt>
<rscale>  0 0.12499486E+03</rscale>
<asrwt>0</asrwt>
<pdfrwt beam="2">  1        4 0.81695788E-03 0.12499486E+03</pdfrwt>
<pdfrwt beam="1">  1       -4 0.11316130E+00 0.12499486E+03</pdfrwt>
<totfact> 0.41019838E+03</totfact>
</mgrwt>
</event>
<event>
 5    1  0.3235144E-002  0.1250003E+03  0.7818608E-02  0.1235069E+00
          4   -1    0    0  501    0  0.00000000000E+00  0.00000000000E+00  0.24158513904E+03  0.24158847718E+03  0.12700000000E+01 0. -1.
         -4   -1    0    0    0  501 -0.00000000000E+00 -0.00000000000E+00 -0.16140937212E+02  0.16190823144E+02  0.12700000000E+01 0. -1.
         25    2    1    2    0    0  0.00000000000E+00  0.00000000000E+00  0.22544420183E+03  0.25777930032E+03  0.12500031814E+03 0.  0.
    9000005    1    3    3    0    0 -0.59037723177E+02  0.16347998947E+02  0.87250435421E+02  0.10661307757E+03  0.10000000000E+01 0.  0.
    9000005    1    3    3    0    0  0.59037723177E+02 -0.16347998947E+02  0.13819376641E+03  0.15116622275E+03  0.10000000000E+01 0.  0.
<mgrwt>
<rscale>  0 0.12500032E+03</rscale>
<asrwt>0</asrwt>
<pdfrwt beam="1">  1        4 0.37171038E-01 0.12500032E+03</pdfrwt>
<pdfrwt beam="2">  1       -4 0.24873153E-02 0.12500032E+03</pdfrwt>
<totfact> 0.81218142E+03</totfact>
</mgrwt>
</event>
<event>
 5    1  0.3235144E-002  0.1250049E+03  0.7818608E-02  0.1235062E+00
         -4   -1    0    0    0  501 -0.00000000000E+00  0.00000000000E+00  0.13090276912E+03  0.13090892966E+03  0.12700000000E+01 0. -1.
          4   -1    0    0  501    0  0.00000000000E+00 -0.00000000000E+00 -0.29822795110E+02  0.29849824257E+02  0.12700000000E+01 0. -1.
         25    2    1    2    0    0  0.00000000000E+00  0.00000000000E+00  0.10107997401E+03  0.16075875392E+03  0.12500486316E+03 0.  0.
    9000005    1    3    3    0    0  0.28573105325E+02  0.55166684384E+02  0.59240227344E+02  0.85849810422E+02  0.10000000000E+01 0.  0.
    9000005    1    3    3    0    0 -0.28573105325E+02 -0.55166684384E+02  0.41839746671E+02  0.74908943493E+02  0.10000000000E+01 0.  0.
<mgrwt>
<rscale>  0 0.12500486E+03</rscale>
<asrwt>0</asrwt>
<pdfrwt beam="2">  1        4 0.45906754E-02 0.12500486E+03</pdfrwt>
<pdfrwt beam="1">  1       -4 0.20141441E-01 0.12500486E+03</pdfrwt>
<totfact> 0.97186079E+03</totfact>
</mgrwt>
</event>
<event>
 5    1  0.3235144E-002  0.1249942E+03  0.7818608E-02  0.1235078E+00
         -4   -1    0    0    0  501 -0.00000000000E+00  0.00000000000E+00  0.14066626585E+03  0.14067199881E+03  0.12700000000E+01 0. -1.
          4   -1    0    0  501    0  0.00000000000E+00 -0.00000000000E+00 -0.27746229573E+02  0.27775279576E+02  0.12700000000E+01 0. -1.
         25    2    1    2    0    0  0.00000000000E+00  0.00000000000E+00  0.11292003628E+03  0.16844727839E+03  0.12499420387E+03 0.  0.
    9000005    1    3    3    0    0  0.26056835397E+02  0.24614506549E+02 -0.12520958670E+02  0.37981666756E+02  0.10000000000E+01 0.  0.
    9000005    1    3    3    0    0 -0.26056835397E+02 -0.24614506549E+02  0.12544099495E+03  0.13046561163E+03  0.10000000000E+01 0.  0.
<mgrwt>
<rscale>  0 0.12499420E+03</rscale>
<asrwt>0</asrwt>
<pdfrwt beam="2">  1        4 0.42713263E-02 0.12499420E+03</pdfrwt>
<pdfrwt beam="1">  1       -4 0.21643640E-01 0.12499420E+03</pdfrwt>
<totfact> 0.95750948E+03</totfact>
</mgrwt>
</event>
<event>
 5    1  0.3235144E-002  0.1250018E+03  0.7818608E-02  0.1235066E+00
         -4   -1    0    0    0  501 -0.00000000000E+00  0.00000000000E+00  0.13196337075E+03  0.13196948177E+03  0.12700000000E+01 0.  1.
          4   -1    0    0  501    0  0.00000000000E+00 -0.00000000000E+00 -0.29581449797E+02  0.29608699264E+02  0.12700000000E+01 0.  1.
         25    2    1    2    0    0  0.00000000000E+00  0.00000000000E+00  0.10238192095E+03  0.16157818104E+03  0.12500180338E+03 0.  0.
    9000005    1    3    3    0    0  0.55010706301E+02 -0.70042930658E+01  0.88433400420E+02  0.10438728006E+03  0.10000000000E+01 0.  0.
    9000005    1    3    3    0    0 -0.55010706301E+02  0.70042930658E+01  0.13948520531E+02  0.57190900973E+02  0.10000000000E+01 0.  0.
<mgrwt>
<rscale>  0 0.12500180E+03</rscale>
<asrwt>0</asrwt>
<pdfrwt beam="2">  1        4 0.45535585E-02 0.12500180E+03</pdfrwt>
<pdfrwt beam="1">  1       -4 0.20304623E-01 0.12500180E+03</pdfrwt>
<totfact> 0.97035452E+03</totfact>
</mgrwt>
</event>
<event>
 5    1  0.3235144E-002  0.1249963E+03  0.7818608E-02  0.1235075E+00
          4   -1    0    0  501    0  0.00000000000E+00  0.00000000000E+00  0.70159791841E+03  0.70159906786E+03  0.12700000000E+01 0. -1.
         -4   -1    0    0    0  501 -0.00000000000E+00 -0.00000000000E+00 -0.54937239523E+01  0.56386082382E+01  0.12700000000E+01 0. -1.
         25    2    1    2    0    0  0.00000000000E+00  0.00000000000E+00  0.69610419446E+03  0.70723767609E+03  0.12499632373E+03 0.  0.
    9000005    1    3    3    0    0 -0.36202928961E+02  0.49030077427E+02  0.26997492743E+03  0.27677077519E+03  0.10000000000E+01 0.  0.
    9000005    1    3    3    0    0  0.36202928961E+02 -0.49030077427E+02  0.42612926703E+03  0.43046690091E+03  0.10000000000E+01 0.  0.
<mgrwt>
<rscale>  0 0.12499632E+03</rscale>
<asrwt>0</asrwt>
<pdfrwt beam="1">  1        4 0.10794938E+00 0.12499632E+03</pdfrwt>
<pdfrwt beam="2">  1       -4 0.85642160E-03 0.12499632E+03</pdfrwt>
<totfact> 0.42710805E+03</totfact>
</mgrwt>
</event>
<event>
 5    1  0.3235144E-002  0.1250033E+03  0.7818608E-02  0.1235064E+00
         -4   -1    0    0    0  501 -0.00000000000E+00  0.00000000000E+00  0.86046818028E+02  0.86056189742E+02  0.12700000000E+01 0. -1.
          4   -1    0    0  501    0  0.00000000000E+00 -0.00000000000E+00 -0.45378462500E+02  0.45396230668E+02  0.12700000000E+01 0. -1.
         25    2    1    2    0    0  0.00000000000E+00  0.00000000000E+00  0.40668355528E+02  0.13145242041E+03  0.12500329472E+03 0.  0.
    9000005    1    3    3    0    0 -0.35694666169E+02  0.10866199761E+02 -0.32384791555E+02  0.49416173610E+02  0.10000000000E+01 0.  0.
    9000005    1    3    3    0    0  0.35694666169E+02 -0.10866199761E+02  0.73053147083E+02  0.82036246800E+02  0.10000000000E+01 0.  0.
<mgrwt>
<rscale>  0 0.12500329E+03</rscale>
<asrwt>0</asrwt>
<pdfrwt beam="2">  1        4 0.69833896E-02 0.12500329E+03</pdfrwt>
<pdfrwt beam="1">  1       -4 0.13240060E-01 0.12500329E+03</pdfrwt>
<totfact> 0.10312633E+04</totfact>
</mgrwt>
</event>
<event>
 5    1  0.3235144E-002  0.1249890E+03  0.7818608E-02  0.1235086E+00
          4   -1    0    0  501    0  0.00000000000E+00  0.00000000000E+00  0.70500825727E+03  0.70500940116E+03  0.12700000000E+01 0. -1.
         -4   -1    0    0    0  501 -0.00000000000E+00 -0.00000000000E+00 -0.54657923798E+01  0.56113978953E+01  0.12700000000E+01 0. -1.
         25    2    1    2    0    0  0.00000000000E+00  0.00000000000E+00  0.69954246489E+03  0.71062079905E+03  0.12498903896E+03 0.  0.
    9000005    1    3    3    0    0 -0.56181122033E+02 -0.66302018589E+01  0.19888806384E+03  0.20677944769E+03  0.10000000000E+01 0.  0.
    9000005    1    3    3    0    0  0.56181122033E+02  0.66302018589E+01  0.50065440105E+03  0.50384135136E+03  0.10000000000E+01 0.  0.
<mgrwt>
<rscale>  0 0.12498904E+03</rscale>
<asrwt>0</asrwt>
<pdfrwt beam="1">  1        4 0.10847405E+00 0.12498904E+03</pdfrwt>
<pdfrwt beam="2">  1       -4 0.85217992E-03 0.12498904E+03</pdfrwt>
<totfact> 0.42542154E+03</totfact>
</mgrwt>
</event>
<event>
 5    1  0.3235144E-002  0.1250005E+03  0.7818608E-02  0.1235068E+00
          4   -1    0    0  501    0  0.00000000000E+00  0.00000000000E+00  0.14901150241E+03  0.14901691431E+03  0.12700000000E+01 0. -1.
         -4   -1    0    0    0  501 -0.00000000000E+00 -0.00000000000E+00 -0.26193358986E+02  0.26224129251E+02  0.12700000000E+01 0. -1.
         25    2    1    2    0    0  0.00000000000E+00  0.00000000000E+00  0.12281814342E+03  0.17524104356E+03  0.12500050798E+03 0.  0.
    9000005    1    3    3    0    0  0.52476453595E+02 -0.17747580137E+02  0.10195656639E+03  0.11603833941E+03  0.10000000000E+01 0.  0.
    9000005    1    3    3    0    0 -0.52476453595E+02  0.17747580137E+02  0.20861577033E+02  0.59202704152E+02  0.10000000000E+01 0.  0.
<mgrwt>
<rscale>  0 0.12500051E+03</rscale>
<asrwt>0</asrwt>
<pdfrwt beam="1">  1        4 0.22927629E-01 0.12500051E+03</pdfrwt>
<pdfrwt beam="2">  1       -4 0.40325309E-02 0.12500051E+03</pdfrwt>
<totfact> 0.94479636E+03</totfact>
</mgrwt>
</event>
<event>
 5    1  0.3235144E-002  0.1250000E+03  0.7818608E-02  0.1235069E+00
         -4   -1    0    0    0  501 -0.00000000000E+00  0.00000000000E+00  0.25935182408E+02  0.25966258616E+02  0.12700000000E+01 0.  1.
          4   -1    0    0  501    0  0.00000000000E+00 -0.00000000000E+00 -0.15049184262E+03  0.15049720129E+03  0.12700000000E+01 0.  1.
         25    2    1    2    0    0  0.00000000000E+00  0.00000000000E+00 -0.12455666021E+03  0.17646345990E+03  0.12499996431E+03 0.  0.
    9000005    1    3    3    0    0  0.35390650415E+02  0.35972448107E+02 -0.10241372104E+02  0.51501464660E+02  0.10000000000E+01 0.  0.
    9000005    1    3    3    0    0 -0.35390650415E+02 -0.35972448107E+02 -0.11431528811E+03  0.12496199524E+03  0.10000000000E+01 0.  0.
<mgrwt>
<rscale>  0 0.12499996E+03</rscale>
<asrwt>0</asrwt>
<pdfrwt beam="2">  1        4 0.23155393E-01 0.12499996E+03</pdfrwt>
<pdfrwt beam="1">  1       -4 0.39928308E-02 0.12499996E+03</pdfrwt>
<totfact> 0.94257569E+03</totfact>
</mgrwt>
</event>
<event>
 5    1  0.3235144E-002  0.1250013E+03  0.7818608E-02  0.1235067E+00
         -4   -1    0    0    0  501 -0.00000000000E+00  0.00000000000E+00  0.23940123697E+02  0.23973786155E+02  0.12700000000E+01 0. -1.
          4   -1    0    0  501    0  0.00000000000E+00 -0.00000000000E+00 -0.16302009088E+03  0.16302503774E+03  0.12700000000E+01 0. -1.
         25    2    1    2    0    0  0.00000000000E+00  0.00000000000E+00 -0.13907996719E+03  0.18699882390E+03  0.12500129146E+03 0.  0.
    9000005    1    3    3    0    0 -0.41444436264E+01  0.33808643730E+02 -0.14792008594E+03  0.15179444202E+03  0.10000000000E+01 0.  0.
    9000005    1    3    3    0    0  0.41444436264E+01 -0.33808643730E+02  0.88401187544E+01  0.35204381878E+02  0.10000000000E+01 0.  0.
<mgrwt>
<rscale>  0 0.12500129E+03</rscale>
<asrwt>0</asrwt>
<pdfrwt beam="2">  1        4 0.25082983E-01 0.12500129E+03</pdfrwt>
<pdfrwt beam="1">  1       -4 0.36860660E-02 0.12500129E+03</pdfrwt>
<totfact> 0.92369474E+03</totfact>
</mgrwt>
</event>
<event>
 5    1  0.3235144E-002  0.1250013E+03  0.7818608E-02  0.1235067E+00
          4   -1    0    0  501    0  0.00000000000E+00  0.00000000000E+00  0.16119476551E+02  0.16169428693E+02  0.12700000000E+01 0.  1.
         -4   -1    0    0    0  501 -0.00000000000E+00 -0.00000000000E+00 -0.24190950239E+03  0.24191283605E+03  0.12700000000E+01 0.  1.
         25    2    1    2    0    0  0.00000000000E+00  0.00000000000E+00 -0.22579002584E+03  0.25808226474E+03  0.12500127842E+03 0.  0.
    9000005    1    3    3    0    0 -0.39695069479E+02 -0.94700604086E+01 -0.21061036525E+03  0.21452996652E+03  0.10000000000E+01 0.  0.
    9000005    1    3    3    0    0  0.39695069479E+02  0.94700604086E+01 -0.15179660592E+02  0.43552298226E+02  0.10000000000E+01 0.  0.
<mgrwt>
<rscale>  0 0.12500128E+03</rscale>
<asrwt>0</asrwt>
<pdfrwt beam="1">  1        4 0.24840185E-02 0.12500128E+03</pdfrwt>
<pdfrwt beam="2">  1       -4 0.37220943E-01 0.12500128E+03</pdfrwt>
<totfact> 0.81173634E+03</totfact>
</mgrwt>
</event>
<event>
 5    1  0.3235144E-002  0.1250557E+03  0.7818608E-02  0.1234982E+00
         -4   -1    0    0    0  501 -0.00000000000E+00  0.00000000000E+00  0.50881642916E+01  0.52442650446E+01  0.12700000000E+01 0. -1.
          4   -1    0    0  501    0  0.00000000000E+00 -0.00000000000E+00 -0.75663156652E+03  0.75663263236E+03  0.12700000000E+01 0. -1.
         25    2    1    2    0    0  0.00000000000E+00  0.00000000000E+00 -0.75154340223E+03  0.76187689740E+03  0.12505567307E+03 0.  0.
    9000005    1    3    3    0    0 -0.10891069903E+02  0.61434462954E+02 -0.40008120658E+03  0.40491823928E+03  0.10000000000E+01 0.  0.
    9000005    1    3    3    0    0  0.10891069903E+02 -0.61434462954E+02 -0.35146219565E+03  0.35695865813E+03  0.10000000000E+01 0.  0.
<mgrwt>
<rscale>  0 0.12505567E+03</rscale>
<asrwt>0</asrwt>
<pdfrwt beam="2">  1        4 0.11641686E+00 0.12505567E+03</pdfrwt>
<pdfrwt beam="1">  1       -4 0.79488485E-03 0.12505567E+03</pdfrwt>
<totfact> 0.39963779E+03</totfact>
</mgrwt>
</event>
<event>
 5    1  0.3235144E-002  0.1249897E+03  0.7818608E-02  0.1235085E+00
          4   -1    0    0  501    0  0.00000000000E+00  0.00000000000E+00  0.13950635934E+04  0.13950641714E+04  0.12700000000E+01 0. -1.
         -4   -1    0    0    0  501 -0.00000000000E+00 -0.00000000000E+00 -0.26549498148E+01  0.29430695743E+01  0.12700000000E+01 0. -1.
         25    2    1    2    0    0  0.00000000000E+00  0.00000000000E+00  0.13924086435E+04  0.13980072410E+04  0.12498966074E+03 0.  0.
    9000005    1    3    3    0    0 -0.52932765951E+01  0.43370455973E+02  0.19654863095E+03  0.20134890006E+03  0.10000000000E+01 0.  0.
    9000005    1    3    3    0    0  0.52932765951E+01 -0.43370455973E+02  0.11958600126E+04  0.11966583409E+04  0.10000000000E+01 0.  0.
<mgrwt>
<rscale>  0 0.12498966E+03</rscale>
<asrwt>0</asrwt>
<pdfrwt beam="1">  1        4 0.21464777E+00 0.12498966E+03</pdfrwt>
<pdfrwt beam="2">  1       -4 0.43066055E-03 0.12498966E+03</pdfrwt>
<totfact> 0.20028195E+03</totfact>
</mgrwt>
</event>
<event>
 5    1  0.3235144E-002  0.1249975E+03  0.7818608E-02  0.1235073E+00
         -4   -1    0    0    0  501 -0.00000000000E+00  0.00000000000E+00  0.10026925570E+03  0.10027729823E+03  0.12700000000E+01 0.  1.
          4   -1    0    0  501    0  0.00000000000E+00 -0.00000000000E+00 -0.38936077800E+02  0.38956784447E+02  0.12700000000E+01 0.  1.
         25    2    1    2    0    0  0.00000000000E+00  0.00000000000E+00  0.61333177903E+02  0.13923408267E+03  0.12499748424E+03 0.  0.
    9000005    1    3    3    0    0 -0.23054548133E+02  0.25110630080E+02  0.89005740043E+02  0.95315673912E+02  0.10000000000E+01 0.  0.
    9000005    1    3    3    0    0  0.23054548133E+02 -0.25110630080E+02 -0.27672562140E+02  0.43918408760E+02  0.10000000000E+01 0.  0.
<mgrwt>
<rscale>  0 0.12499748E+03</rscale>
<asrwt>0</asrwt>
<pdfrwt beam="2">  1        4 0.59923772E-02 0.12499748E+03</pdfrwt>
<pdfrwt beam="1">  1       -4 0.15428251E-01 0.12499748E+03</pdfrwt>
<totfact> 0.10150060E+04</totfact>
</mgrwt>
</event>
<event>
 5    1  0.3235144E-002  0.1249999E+03  0.7818608E-02  0.1235069E+00
         -4   -1    0    0    0  501 -0.00000000000E+00  0.00000000000E+00  0.11510947406E+03  0.11511647978E+03  0.12700000000E+01 0. -1.
          4   -1    0    0  501    0  0.00000000000E+00 -0.00000000000E+00 -0.33915107422E+02  0.33938877581E+02  0.12700000000E+01 0. -1.
         25    2    1    2    0    0  0.00000000000E+00  0.00000000000E+00  0.81194366634E+02  0.14905535736E+03  0.12499989754E+03 0.  0.
    9000005    1    3    3    0    0 -0.53645135963E+02 -0.22363684805E+02  0.13214856196E+02  0.59611806170E+02  0.10000000000E+01 0.  0.
    9000005    1    3    3    0    0  0.53645135963E+02  0.22363684805E+02  0.67979510438E+02  0.89443551193E+02  0.10000000000E+01 0.  0.
<mgrwt>
<rscale>  0 0.12499990E+03</rscale>
<asrwt>0</asrwt>
<pdfrwt beam="2">  1        4 0.52200762E-02 0.12499990E+03</pdfrwt>
<pdfrwt beam="1">  1       -4 0.17711517E-01 0.12499990E+03</pdfrwt>
<totfact> 0.99492561E+03</totfact>
</mgrwt>
</event>
<event>
 5    1  0.3235144E-002  0.1249982E+03  0.7818608E-02  0.1235072E+00
          4   -1    0    0  501    0  0.00000000000E+00  0.00000000000E+00  0.62563999183E+02  0.62576887856E+02  0.12700000000E+01 0.  1.
         -4   -1    0    0    0  501 -0.00000000000E+00 -0.00000000000E+00 -0.62408457834E+02  0.62421378623E+02  0.12700000000E+01 0.  1.
         25    2    1    2    0    0  0.00000000000E+00  0.00000000000E+00  0.15554134840E+00  0.12499826648E+03  0.12499816971E+03 0.  0.
    9000005    1    3    3    0    0  0.41741345687E+02 -0.14780290946E+02  0.44172460580E+02  0.62554002381E+02  0.10000000000E+01 0.  0.
    9000005    1    3    3    0    0 -0.41741345687E+02  0.14780290946E+02 -0.44016919231E+02  0.62444264099E+02  0.10000000000E+01 0.  0.
<mgrwt>
<rscale>  0 0.12499817E+03</rscale>
<asrwt>0</asrwt>
<pdfrwt beam="1">  1        4 0.96272160E-02 0.12499817E+03</pdfrwt>
<pdfrwt beam="2">  1       -4 0.96032866E-02 0.12499817E+03</pdfrwt>
<totfact> 0.10453333E+04</totfact>
</mgrwt>
</event>
<event>
 5    1  0.3235144E-002  0.1249982E+03  0.7818608E-02  0.1235072E+00
          4   -1    0    0  501    0  0.00000000000E+00  0.00000000000E+00  0.58195102696E+02  0.58208958742E+02  0.12700000000E+01 0. -1.
         -4   -1    0    0    0  501 -0.00000000000E+00 -0.00000000000E+00 -0.67093595529E+02  0.67105614229E+02  0.12700000000E+01 0. -1.
         25    2    1    2    0    0  0.00000000000E+00  0.00000000000E+00 -0.88984928330E+01  0.12531457297E+03  0.12499823608E+03 0.  0.
    9000005    1    3    3    0    0  0.20741434843E+02 -0.35915253298E+02 -0.51311818292E+02  0.65984962190E+02  0.10000000000E+01 0.  0.
    9000005    1    3    3    0    0 -0.20741434843E+02  0.35915253298E+02  0.42413325459E+02  0.59329610780E+02  0.10000000000E+01 0.  0.
<mgrwt>
<rscale>  0 0.12499824E+03</rscale>
<asrwt>0</asrwt>
<pdfrwt beam="1">  1        4 0.89550831E-02 0.12499824E+03</pdfrwt>
<pdfrwt beam="2">  1       -4 0.10324082E-01 0.12499824E+03</pdfrwt>
<totfact> 0.10446450E+04</totfact>
</mgrwt>
</event>
<event>
 5    1  0.3235144E-002  0.1250079E+03  0.7818608E-02  0.1235057E+00
         -4   -1    0    0    0  501 -0.00000000000E+00  0.00000000000E+00  0.74137378509E+01  0.75217291178E+01  0.12700000000E+01 0. -1.
          4   -1    0    0  501    0  0.00000000000E+00 -0.00000000000E+00 -0.52304136883E+03  0.52304291068E+03  0.12700000000E+01 0. -1.
         25    2    1    2    0    0  0.00000000000E+00  0.00000000000E+00 -0.51562763098E+03  0.53056463979E+03  0.12500793243E+03 0.  0.
    9000005    1    3    3    0    0  0.17091632666E+02 -0.31138624333E+02 -0.47605268806E+03  0.47737710423E+03  0.10000000000E+01 0.  0.
    9000005    1    3    3    0    0 -0.17091632666E+02  0.31138624333E+02 -0.39574942924E+02  0.53187535569E+02  0.10000000000E+01 0.  0.
<mgrwt>
<rscale>  0 0.12500793E+03</rscale>
<asrwt>0</asrwt>
<pdfrwt beam="2">  1        4 0.80476300E-01 0.12500793E+03</pdfrwt>
<pdfrwt beam="1">  1       -4 0.11490011E-02 0.12500793E+03</pdfrwt>
<totfact> 0.53559213E+03</totfact>
</mgrwt>
</event>
<event>
 5    1  0.3235144E-002  0.1250093E+03  0.7818608E-02  0.1235055E+00
         -4   -1    0    0    0  501 -0.00000000000E+00  0.00000000000E+00  0.50253004695E+01  0.51832947831E+01  0.12700000000E+01 0.  1.
          4   -1    0    0  501    0  0.00000000000E+00 -0.00000000000E+00 -0.76524129656E+03  0.76524235041E+03  0.12700000000E+01 0.  1.
         25    2    1    2    0    0  0.00000000000E+00  0.00000000000E+00 -0.76021599609E+03  0.77042564520E+03  0.12500925589E+03 0.  0.
    9000005    1    3    3    0    0  0.40393647062E+02  0.46745615082E+02 -0.32195729788E+03  0.32783273313E+03  0.10000000000E+01 0.  0.
    9000005    1    3    3    0    0 -0.40393647062E+02 -0.46745615082E+02 -0.43825869821E+03  0.44259291206E+03  0.10000000000E+01 0.  0.
<mgrwt>
<rscale>  0 0.12500926E+03</rscale>
<asrwt>0</asrwt>
<pdfrwt beam="2">  1        4 0.11774157E+00 0.12500926E+03</pdfrwt>
<pdfrwt beam="1">  1       -4 0.78535823E-03 0.12500926E+03</pdfrwt>
<totfact> 0.39607714E+03</totfact>
</mgrwt>
</event>
<event>
 5    1  0.3235144E-002  0.1250013E+03  0.7818608E-02  0.1235067E+00
         -4   -1    0    0    0  501 -0.00000000000E+00  0.00000000000E+00  0.10783303223E+03  0.10784051066E+03  0.12700000000E+01 0.  1.
          4   -1    0    0  501    0  0.00000000000E+00 -0.00000000000E+00 -0.36205862243E+02  0.36228129413E+02  0.12700000000E+01 0.  1.
         25    2    1    2    0    0  0.00000000000E+00  0.00000000000E+00  0.71627169986E+02  0.14406864008E+03  0.12500128628E+03 0.  0.
    9000005    1    3    3    0    0  0.60267960398E+02  0.90878561994E+01  0.19905472095E+02  0.64125221249E+02  0.10000000000E+01 0.  0.
    9000005    1    3    3    0    0 -0.60267960398E+02 -0.90878561994E+01  0.51721697891E+02  0.79943418826E+02  0.10000000000E+01 0.  0.
<mgrwt>
<rscale>  0 0.12500129E+03</rscale>
<asrwt>0</asrwt>
<pdfrwt beam="2">  1        4 0.55724208E-02 0.12500129E+03</pdfrwt>
<pdfrwt beam="1">  1       -4 0.16591985E-01 0.12500129E+03</pdfrwt>
<totfact> 0.10049655E+04</totfact>
</mgrwt>
</event>
<event>
 5    1  0.3235144E-002  0.1249989E+03  0.7818608E-02  0.1235071E+00
          4   -1    0    0  501    0  0.00000000000E+00  0.00000000000E+00  0.11437829933E+02  0.11508121201E+02  0.12700000000E+01 0.  1.
         -4   -1    0    0    0  501 -0.00000000000E+00 -0.00000000000E+00 -0.34039655552E+03  0.34039892466E+03  0.12700000000E+01 0.  1.
         25    2    1    2    0    0  0.00000000000E+00  0.00000000000E+00 -0.32895872558E+03  0.35190704586E+03  0.12499890314E+03 0.  0.
    9000005    1    3    3    0    0  0.12823640494E+02  0.61549091113E+00 -0.33665760908E+03  0.33690379982E+03  0.10000000000E+01 0.  0.
    9000005    1    3    3    0    0 -0.12823640494E+02 -0.61549091113E+00  0.76988834931E+01  0.15003246036E+02  0.10000000000E+01 0.  0.
<mgrwt>
<rscale>  0 0.12499890E+03</rscale>
<asrwt>0</asrwt>
<pdfrwt beam="1">  1        4 0.17652557E-02 0.12499890E+03</pdfrwt>
<pdfrwt beam="2">  1       -4 0.52374283E-01 0.12499890E+03</pdfrwt>
<totfact> 0.69516956E+03</totfact>
</mgrwt>
</event>
<event>
 5    1  0.3235144E-002  0.1250014E+03  0.7818608E-02  0.1235067E+00
         -4   -1    0    0    0  501 -0.00000000000E+00  0.00000000000E+00  0.10187380317E+02  0.10266236785E+02  0.12700000000E+01 0.  1.
          4   -1    0    0  501    0  0.00000000000E+00 -0.00000000000E+00 -0.38189022495E+03  0.38189233668E+03  0.12700000000E+01 0.  1.
         25    2    1    2    0    0  0.00000000000E+00  0.00000000000E+00 -0.37170284463E+03  0.39215857346E+03  0.12500136812E+03 0.  0.
    9000005    1    3    3    0    0 -0.31181173542E+02 -0.19548789246E+02 -0.27400445296E+02  0.45893410713E+02  0.10000000000E+01 0.  0.
    9000005    1    3    3    0    0  0.31181173542E+02  0.19548789246E+02 -0.34430239934E+03  0.34626516275E+03  0.10000000000E+01 0.  0.
<mgrwt>
<rscale>  0 0.12500137E+03</rscale>
<asrwt>0</asrwt>
<pdfrwt beam="2">  1        4 0.58758560E-01 0.12500137E+03</pdfrwt>
<pdfrwt beam="1">  1       -4 0.15735179E-02 0.12500137E+03</pdfrwt>
<totfact> 0.65320680E+03</totfact>
</mgrwt>
</event>
<event>
 5    1  0.3235144E-002  0.1249995E+03  0.7818608E-02  0.1235070E+00
         -4   -1    0    0    0  501 -0.00000000000E+00  0.00000000000E+00  0.36068787735E+02  0.36091139476E+02  0.12700000000E+01 0.  1.
          4   -1    0    0  501    0  0.00000000000E+00 -0.00000000000E+00 -0.10823951070E+03  0.10824696105E+03  0.12700000000E+01 0.  1.
         25    2    1    2    0    0  0.00000000000E+00  0.00000000000E+00 -0.72170722964E+02  0.14433810053E+03  0.12499949604E+03 0.  0.
    9000005    1    3    3    0    0 -0.28139337144E+02 -0.46774308041E+01 -0.10028884653E+03  0.10427153683E+03  0.10000000000E+01 0.  0.
    9000005    1    3    3    0    0  0.28139337144E+02  0.46774308041E+01  0.28118123565E+02  0.40066563699E+02  0.10000000000E+01 0.  0.
<mgrwt>
<rscale>  0 0.12499950E+03</rscale>
<asrwt>0</asrwt>
<pdfrwt beam="2">  1        4 0.16654525E-01 0.12499950E+03</pdfrwt>
<pdfrwt beam="1">  1       -4 0.55513368E-02 0.12499950E+03</pdfrwt>
<totfact> 0.10044568E+04</totfact>
</mgrwt>
</event>
<event>
 5    1  0.3235144E-002  0.1249958E+03  0.7818608E-02  0.1235076E+00
          4   -1    0    0  501    0  0.00000000000E+00  0.00000000000E+00  0.10805604719E+04  0.10805612182E+04  0.12700000000E+01 0.  1.
         -4   -1    0    0    0  501 -0.00000000000E+00 -0.00000000000E+00 -0.35024620108E+01  0.37256060094E+01  0.12700000000E+01 0.  1.
         25    2    1    2    0    0  0.00000000000E+00  0.00000000000E+00  0.10770580099E+04  0.10842868242E+04  0.12499584210E+03 0.  0.
    9000005    1    3    3    0    0  0.58700158839E+02  0.18850505389E+02  0.45009081749E+03  0.45429483179E+03  0.10000000000E+01 0.  0.
    9000005    1    3    3    0    0 -0.58700158839E+02 -0.18850505389E+02  0.62696719240E+03  0.62999199245E+03  0.10000000000E+01 0.  0.
<mgrwt>
<rscale>  0 0.12499584E+03</rscale>
<asrwt>0</asrwt>
<pdfrwt beam="1">  1        4 0.16625732E+00 0.12499584E+03</pdfrwt>
<pdfrwt beam="2">  1       -4 0.55606256E-03 0.12499584E+03</pdfrwt>
<totfact> 0.27950406E+03</totfact>
</mgrwt>
</event>
<event>
 5    1  0.3235144E-002  0.1249982E+03  0.7818608E-02  0.1235072E+00
         -4   -1    0    0    0  501 -0.00000000000E+00  0.00000000000E+00  0.10926006034E+04  0.10926013415E+04  0.12700000000E+01 0. -1.
          4   -1    0    0  501    0  0.00000000000E+00 -0.00000000000E+00 -0.34615308506E+01  0.36871528080E+01  0.12700000000E+01 0. -1.
         25    2    1    2    0    0  0.00000000000E+00  0.00000000000E+00  0.10891390725E+04  0.10962884943E+04  0.12499817359E+03 0.  0.
    9000005    1    3    3    0    0  0.41593441116E+02  0.22996127923E+02  0.18871244380E+03  0.19460786903E+03  0.10000000000E+01 0.  0.
    9000005    1    3    3    0    0 -0.41593441116E+02 -0.22996127923E+02  0.90042662873E+03  0.90168062526E+03  0.10000000000E+01 0.  0.
<mgrwt>
<rscale>  0 0.12499817E+03</rscale>
<asrwt>0</asrwt>
<pdfrwt beam="2">  1        4 0.54995572E-03 0.12499817E+03</pdfrwt>
<pdfrwt beam="1">  1       -4 0.16810975E+00 0.12499817E+03</pdfrwt>
<totfact> 0.27593376E+03</totfact>
</mgrwt>
</event>
<event>
 5    1  0.3235144E-002  0.1249986E+03  0.7818608E-02  0.1235071E+00
          4   -1    0    0  501    0  0.00000000000E+00  0.00000000000E+00  0.26339870806E+03  0.26340176975E+03  0.12700000000E+01 0.  1.
         -4   -1    0    0    0  501 -0.00000000000E+00 -0.00000000000E+00 -0.14799506544E+02  0.14853898275E+02  0.12700000000E+01 0.  1.
         25    2    1    2    0    0  0.00000000000E+00  0.00000000000E+00  0.24859920151E+03  0.27825566802E+03  0.12499861517E+03 0.  0.
    9000005    1    3    3    0    0 -0.58944196500E+02 -0.20729469596E+02  0.12203574375E+03  0.13710525870E+03  0.10000000000E+01 0.  0.
    9000005    1    3    3    0    0  0.58944196500E+02  0.20729469596E+02  0.12656345776E+03  0.14115040932E+03  0.10000000000E+01 0.  0.
<mgrwt>
<rscale>  0 0.12499862E+03</rscale>
<asrwt>0</asrwt>
<pdfrwt beam="1">  1        4 0.40527296E-01 0.12499862E+03</pdfrwt>
<pdfrwt beam="2">  1       -4 0.22812667E-02 0.12499862E+03</pdfrwt>
<totfact> 0.78412375E+03</totfact>
</mgrwt>
</event>
<event>
 5    1  0.3235144E-002  0.1249978E+03  0.7818608E-02  0.1235073E+00
          4   -1    0    0  501    0  0.00000000000E+00  0.00000000000E+00  0.41885547439E+03  0.41885739975E+03  0.12700000000E+01 0. -1.
         -4   -1    0    0    0  501 -0.00000000000E+00 -0.00000000000E+00 -0.92804923944E+01  0.93669866597E+01  0.12700000000E+01 0. -1.
         25    2    1    2    0    0  0.00000000000E+00  0.00000000000E+00  0.40957498199E+03  0.42822438641E+03  0.12499783694E+03 0.  0.
    9000005    1    3    3    0    0 -0.45341916895E+02  0.41380856321E+02  0.16471083494E+03  0.17578089726E+03  0.10000000000E+01 0.  0.
    9000005    1    3    3    0    0  0.45341916895E+02 -0.41380856321E+02  0.24486414706E+03  0.25244348914E+03  0.10000000000E+01 0.  0.
<mgrwt>
<rscale>  0 0.12499784E+03</rscale>
<asrwt>0</asrwt>
<pdfrwt beam="1">  1        4 0.64446115E-01 0.12499784E+03</pdfrwt>
<pdfrwt beam="2">  1       -4 0.14345693E-02 0.12499784E+03</pdfrwt>
<totfact> 0.61900215E+03</totfact>
</mgrwt>
</event>
<event>
 5    1  0.3235144E-002  0.1250011E+03  0.7818608E-02  0.1235068E+00
         -4   -1    0    0    0  501 -0.00000000000E+00  0.00000000000E+00  0.31247995202E+02  0.31273792609E+02  0.12700000000E+01 0.  1.
          4   -1    0    0  501    0  0.00000000000E+00 -0.00000000000E+00 -0.12492964248E+03  0.12493609755E+03  0.12700000000E+01 0.  1.
         25    2    1    2    0    0  0.00000000000E+00  0.00000000000E+00 -0.93681647282E+02  0.15620989016E+03  0.12500111498E+03 0.  0.
    9000005    1    3    3    0    0 -0.47993560753E+02 -0.16086686498E+02 -0.10416204990E+01  0.50638407652E+02  0.10000000000E+01 0.  0.
    9000005    1    3    3    0    0  0.47993560753E+02  0.16086686498E+02 -0.92640026783E+02  0.10557148251E+03  0.10000000000E+01 0.  0.
<mgrwt>
<rscale>  0 0.12500111E+03</rscale>
<asrwt>0</asrwt>
<pdfrwt beam="2">  1        4 0.19222426E-01 0.12500111E+03</pdfrwt>
<pdfrwt beam="1">  1       -4 0.48098649E-02 0.12500111E+03</pdfrwt>
<totfact> 0.98076046E+03</totfact>
</mgrwt>
</event>
<event>
 5    1  0.3235144E-002  0.1249939E+03  0.7818608E-02  0.1235079E+00
         -4   -1    0    0    0  501 -0.00000000000E+00  0.00000000000E+00  0.14991674982E+03  0.14992212904E+03  0.12700000000E+01 0.  1.
          4   -1    0    0  501    0  0.00000000000E+00 -0.00000000000E+00 -0.26032260697E+02  0.26063221156E+02  0.12700000000E+01 0.  1.
         25    2    1    2    0    0  0.00000000000E+00  0.00000000000E+00  0.12388448912E+03  0.17598535020E+03  0.12499390721E+03 0.  0.
    9000005    1    3    3    0    0 -0.54337351553E+02 -0.30384800561E+02  0.69535441732E+02  0.93337889068E+02  0.10000000000E+01 0.  0.
    9000005    1    3    3    0    0  0.54337351553E+02  0.30384800561E+02  0.54349047391E+02  0.82647461130E+02  0.10000000000E+01 0.  0.
<mgrwt>
<rscale>  0 0.12499391E+03</rscale>
<asrwt>0</asrwt>
<pdfrwt beam="2">  1        4 0.40077587E-02 0.12499391E+03</pdfrwt>
<pdfrwt beam="1">  1       -4 0.23066910E-01 0.12499391E+03</pdfrwt>
<totfact> 0.94357581E+03</totfact>
</mgrwt>
</event>
<event>
 5    1  0.3235144E-002  0.1249783E+03  0.7818608E-02  0.1235103E+00
          4   -1    0    0  501    0  0.00000000000E+00  0.00000000000E+00  0.30231613135E+02  0.30258277095E+02  0.12700000000E+01 0. -1.
         -4   -1    0    0    0  501 -0.00000000000E+00 -0.00000000000E+00 -0.12907916793E+03  0.12908541550E+03  0.12700000000E+01 0. -1.
         25    2    1    2    0    0  0.00000000000E+00  0.00000000000E+00 -0.98847554798E+02  0.15934369259E+03  0.12497829123E+03 0.  0.
    9000005    1    3    3    0    0  0.29937266698E+02 -0.15069201720E+02 -0.11665444280E+03  0.12137783901E+03  0.10000000000E+01 0.  0.
    9000005    1    3    3    0    0 -0.29937266698E+02  0.15069201720E+02  0.17806888003E+02  0.37965853582E+02  0.10000000000E+01 0.  0.
<mgrwt>
<rscale>  0 0.12497829E+03</rscale>
<asrwt>0</asrwt>
<pdfrwt beam="1">  1        4 0.46535491E-02 0.12497829E+03</pdfrwt>
<pdfrwt beam="2">  1       -4 0.19860865E-01 0.12497829E+03</pdfrwt>
<totfact> 0.97517045E+03</totfact>
</mgrwt>
</event>
<event>
 5    1  0.3235144E-002  0.1250266E+03  0.7818608E-02  0.1235028E+00
          4   -1    0    0  501    0  0.00000000000E+00  0.00000000000E+00  0.59813057006E+01  0.61146478136E+01  0.12700000000E+01 0. -1.
         -4   -1    0    0    0  501 -0.00000000000E+00 -0.00000000000E+00 -0.64601797480E+03  0.64601922314E+03  0.12700000000E+01 0. -1.
         25    2    1    2    0    0  0.00000000000E+00  0.00000000000E+00 -0.64003666910E+03  0.65213387095E+03  0.12502658858E+03 0.  0.
    9000005    1    3    3    0    0  0.38727820960E+02  0.38898359132E+02 -0.47597344634E+03  0.47912905159E+03  0.10000000000E+01 0.  0.
    9000005    1    3    3    0    0 -0.38727820960E+02 -0.38898359132E+02 -0.16406322277E+03  0.17300481937E+03  0.10000000000E+01 0.  0.
<mgrwt>
<rscale>  0 0.12502659E+03</rscale>
<asrwt>0</asrwt>
<pdfrwt beam="1">  1        4 0.93055450E-03 0.12502659E+03</pdfrwt>
<pdfrwt beam="2">  1       -4 0.99397679E-01 0.12502659E+03</pdfrwt>
<totfact> 0.45707083E+03</totfact>
</mgrwt>
</event>
<event>
 5    1  0.3235144E-002  0.1249921E+03  0.7818608E-02  0.1235082E+00
          4   -1    0    0  501    0  0.00000000000E+00  0.00000000000E+00  0.33144421732E+01  0.35494262803E+01  0.12700000000E+01 0.  1.
         -4   -1    0    0    0  501 -0.00000000000E+00 -0.00000000000E+00 -0.11378281209E+04  0.11378288297E+04  0.12700000000E+01 0.  1.
         25    2    1    2    0    0  0.00000000000E+00  0.00000000000E+00 -0.11345136787E+04  0.11413782559E+04  0.12499214344E+03 0.  0.
    9000005    1    3    3    0    0 -0.60569394375E+02 -0.13739259034E+02 -0.50442757821E+03  0.50823774007E+03  0.10000000000E+01 0.  0.
    9000005    1    3    3    0    0  0.60569394375E+02  0.13739259034E+02 -0.63008610052E+03  0.63314051588E+03  0.10000000000E+01 0.  0.
<mgrwt>
<rscale>  0 0.12499214E+03</rscale>
<asrwt>0</asrwt>
<pdfrwt beam="1">  1        4 0.52804531E-03 0.12499214E+03</pdfrwt>
<pdfrwt beam="2">  1       -4 0.17506831E+00 0.12499214E+03</pdfrwt>
<totfact> 0.26305231E+03</totfact>
</mgrwt>
</event>
<event>
 5    1  0.3235144E-002  0.1249961E+03  0.7818608E-02  0.1235075E+00
         -4   -1    0    0    0  501 -0.00000000000E+00  0.00000000000E+00  0.47349710881E+03  0.47349881198E+03  0.12700000000E+01 0. -1.
          4   -1    0    0  501    0  0.00000000000E+00 -0.00000000000E+00 -0.81986695616E+01  0.82964499986E+01  0.12700000000E+01 0. -1.
         25    2    1    2    0    0  0.00000000000E+00  0.00000000000E+00  0.46529843925E+03  0.48179526198E+03  0.12499614755E+03 0.  0.
    9000005    1    3    3    0    0  0.24221248576E+02  0.57517145843E+02  0.24491003022E+03  0.25273862754E+03  0.10000000000E+01 0.  0.
    9000005    1    3    3    0    0 -0.24221248576E+02 -0.57517145843E+02  0.22038840902E+03  0.22905663444E+03  0.10000000000E+01 0.  0.
<mgrwt>
<rscale>  0 0.12499615E+03</rscale>
<asrwt>0</asrwt>
<pdfrwt beam="2">  1        4 0.12689862E-02 0.12499615E+03</pdfrwt>
<pdfrwt beam="1">  1       -4 0.72853370E-01 0.12499615E+03</pdfrwt>
<totfact> 0.57309874E+03</totfact>
</mgrwt>
</event>
<event>
 5    1  0.3235144E-002  0.1249979E+03  0.7818608E-02  0.1235073E+00
          4   -1    0    0  501    0  0.00000000000E+00  0.00000000000E+00  0.10883499677E+03  0.10884240636E+03  0.12700000000E+01 0. -1.
         -4   -1    0    0    0  501 -0.00000000000E+00 -0.00000000000E+00 -0.35870386635E+02  0.35892861928E+02  0.12700000000E+01 0. -1.
         25    2    1    2    0    0  0.00000000000E+00  0.00000000000E+00  0.72964610135E+02  0.14473526829E+03  0.12499785420E+03 0.  0.
    9000005    1    3    3    0    0  0.47348821627E+01 -0.15600912640E+02 -0.33370079615E+02  0.37153328220E+02  0.10000000000E+01 0.  0.
    9000005    1    3    3    0    0 -0.47348821627E+01  0.15600912640E+02  0.10633468975E+03  0.10758194007E+03  0.10000000000E+01 0.  0.
<mgrwt>
<rscale>  0 0.12499785E+03</rscale>
<asrwt>0</asrwt>
<pdfrwt beam="1">  1        4 0.16746144E-01 0.12499785E+03</pdfrwt>
<pdfrwt beam="2">  1       -4 0.55208199E-02 0.12499785E+03</pdfrwt>
<totfact> 0.10036855E+04</totfact>
</mgrwt>
</event>
<event>
 5    1  0.3235144E-002  0.1250015E+03  0.7818608E-02  0.1235067E+00
         -4   -1    0    0    0  501 -0.00000000000E+00  0.00000000000E+00  0.17741193956E+01  0.21818340060E+01  0.12700000000E+01 0. -1.
          4   -1    0    0  501    0  0.00000000000E+00 -0.00000000000E+00 -0.19745105881E+04  0.19745109966E+04  0.12700000000E+01 0. -1.
         25    2    1    2    0    0  0.00000000000E+00  0.00000000000E+00 -0.19727364687E+04  0.19766928306E+04  0.12500148534E+03 0.  0.
    9000005    1    3    3    0    0  0.53405698953E+02 -0.22028473103E+02 -0.13632176068E+04  0.13644415216E+04  0.10000000000E+01 0.  0.
    9000005    1    3    3    0    0 -0.53405698953E+02  0.22028473103E+02 -0.60951886192E+03  0.61225130898E+03  0.10000000000E+01 0.  0.
<mgrwt>
<rscale>  0 0.12500149E+03</rscale>
<asrwt>0</asrwt>
<pdfrwt beam="2">  1        4 0.30380068E+00 0.12500149E+03</pdfrwt>
<pdfrwt beam="1">  1       -4 0.30433710E-03 0.12500149E+03</pdfrwt>
<totfact> 0.10168369E+03</totfact>
</mgrwt>
</event>
<event>
 5    1  0.3235144E-002  0.1249970E+03  0.7818608E-02  0.1235074E+00
         -4   -1    0    0    0  501 -0.00000000000E+00  0.00000000000E+00  0.81307927012E+02  0.81317844874E+02  0.12700000000E+01 0. -1.
          4   -1    0    0  501    0  0.00000000000E+00 -0.00000000000E+00 -0.48019113234E+02  0.48035904652E+02  0.12700000000E+01 0. -1.
         25    2    1    2    0    0  0.00000000000E+00  0.00000000000E+00  0.33288813778E+02  0.12935374953E+03  0.12499698954E+03 0.  0.
    9000005    1    3    3    0    0 -0.16464819737E+02 -0.58343297971E+02  0.32339821251E+02  0.68716044310E+02  0.10000000000E+01 0.  0.
    9000005    1    3    3    0    0  0.16464819737E+02  0.58343297971E+02  0.94899252727E+00  0.60637705216E+02  0.10000000000E+01 0.  0.
<mgrwt>
<rscale>  0 0.12499699E+03</rscale>
<asrwt>0</asrwt>
<pdfrwt beam="2">  1        4 0.73896105E-02 0.12499699E+03</pdfrwt>
<pdfrwt beam="1">  1       -4 0.12510966E-01 0.12499699E+03</pdfrwt>
<totfact> 0.10359056E+04</totfact>
</mgrwt>
</event>
<event>
 5    1  0.3235144E-002  0.1249895E+03  0.7818608E-02  0.1235086E+00
         -4   -1    0    0    0  501 -0.00000000000E+00  0.00000000000E+00  0.19846599284E+03  0.19847005622E+03  0.12700000000E+01 0. -1.
          4   -1    0    0  501    0  0.00000000000E+00 -0.00000000000E+00 -0.19654132362E+02  0.19695121704E+02  0.12700000000E+01 0. -1.
         25    2    1    2    0    0  0.00000000000E+00  0.00000000000E+00  0.17881186048E+03  0.21816517792E+03  0.12498945319E+03 0.  0.
    9000005    1    3    3    0    0 -0.15265753103E+02  0.58279941927E+02  0.60460816825E+02  0.85358685673E+02  0.10000000000E+01 0.  0.
    9000005    1    3    3    0    0  0.15265753103E+02 -0.58279941927E+02  0.11835104366E+03  0.13280649225E+03  0.10000000000E+01 0.  0.
<mgrwt>
<rscale>  0 0.12498945E+03</rscale>
<asrwt>0</asrwt>
<pdfrwt beam="2">  1        4 0.30271783E-02 0.12498945E+03</pdfrwt>
<pdfrwt beam="1">  1       -4 0.30536695E-01 0.12498945E+03</pdfrwt>
<totfact> 0.87180060E+03</totfact>
</mgrwt>
</event>
<event>
 5    1  0.3235144E-002  0.1250000E+03  0.7818608E-02  0.1235069E+00
          4   -1    0    0  501    0  0.00000000000E+00  0.00000000000E+00  0.29395018454E+02  0.29422440584E+02  0.12700000000E+01 0.  1.
         -4   -1    0    0    0  501 -0.00000000000E+00 -0.00000000000E+00 -0.13279579792E+03  0.13280187064E+03  0.12700000000E+01 0.  1.
         25    2    1    2    0    0  0.00000000000E+00  0.00000000000E+00 -0.10340077947E+03  0.16222431123E+03  0.12500002383E+03 0.  0.
    9000005    1    3    3    0    0  0.57810650118E+02  0.16786555339E+02 -0.29930233383E+02  0.67235991683E+02  0.10000000000E+01 0.  0.
    9000005    1    3    3    0    0 -0.57810650118E+02 -0.16786555339E+02 -0.73470546086E+02  0.94988319542E+02  0.10000000000E+01 0.  0.
<mgrwt>
<rscale>  0 0.12500002E+03</rscale>
<asrwt>0</asrwt>
<pdfrwt beam="1">  1        4 0.45248871E-02 0.12500002E+03</pdfrwt>
<pdfrwt beam="2">  1       -4 0.20432699E-01 0.12500002E+03</pdfrwt>
<totfact> 0.96915610E+03</totfact>
</mgrwt>
</event>
<event>
 5    1  0.3235144E-002  0.1249979E+03  0.7818608E-02  0.1235073E+00
         -4   -1    0    0    0  501 -0.00000000000E+00  0.00000000000E+00  0.45611824139E+01  0.47346895371E+01  0.12700000000E+01 0. -1.
          4   -1    0    0  501    0  0.00000000000E+00 -0.00000000000E+00 -0.84022427321E+03  0.84022523301E+03  0.12700000000E+01 0. -1.
         25    2    1    2    0    0  0.00000000000E+00  0.00000000000E+00 -0.83566309079E+03  0.84495992255E+03  0.12499787757E+03 0.  0.
    9000005    1    3    3    0    0  0.44367843253E+02 -0.39750894952E+02 -0.29020237383E+03  0.29625505387E+03  0.10000000000E+01 0.  0.
    9000005    1    3    3    0    0 -0.44367843253E+02  0.39750894952E+02 -0.54546071696E+03  0.54870486868E+03  0.10000000000E+01 0.  0.
<mgrwt>
<rscale>  0 0.12499788E+03</rscale>
<asrwt>0</asrwt>
<pdfrwt beam="2">  1        4 0.12927857E+00 0.12499788E+03</pdfrwt>
<pdfrwt beam="1">  1       -4 0.71514157E-03 0.12499788E+03</pdfrwt>
<totfact> 0.36336176E+03</totfact>
</mgrwt>
</event>
<event>
 5    1  0.3235144E-002  0.1249786E+03  0.7818608E-02  0.1235103E+00
          4   -1    0    0  501    0  0.00000000000E+00  0.00000000000E+00  0.16582923679E+03  0.16583409985E+03  0.12700000000E+01 0. -1.
         -4   -1    0    0    0  501 -0.00000000000E+00 -0.00000000000E+00 -0.23525467618E+02  0.23559722550E+02  0.12700000000E+01 0. -1.
         25    2    1    2    0    0  0.00000000000E+00  0.00000000000E+00  0.14230376917E+03  0.18939382240E+03  0.12497862715E+03 0.  0.
    9000005    1    3    3    0    0  0.25061940391E+02 -0.41008364738E+02  0.13165692887E+03  0.14015824540E+03  0.10000000000E+01 0.  0.
    9000005    1    3    3    0    0 -0.25061940391E+02  0.41008364738E+02  0.10646840306E+02  0.49235577006E+02  0.10000000000E+01 0.  0.
<mgrwt>
<rscale>  0 0.12497863E+03</rscale>
<asrwt>0</asrwt>
<pdfrwt beam="1">  1        4 0.25515199E-01 0.12497863E+03</pdfrwt>
<pdfrwt beam="2">  1       -4 0.36223119E-02 0.12497863E+03</pdfrwt>
<totfact> 0.91996933E+03</totfact>
</mgrwt>
</event>
<event>
 5    1  0.3235144E-002  0.1249998E+03  0.7818608E-02  0.1235070E+00
         -4   -1    0    0    0  501 -0.00000000000E+00  0.00000000000E+00  0.24390176956E+02  0.24423219115E+02  0.12700000000E+01 0. -1.
          4   -1    0    0  501    0  0.00000000000E+00 -0.00000000000E+00 -0.16001211237E+03  0.16001715222E+03  0.12700000000E+01 0. -1.
         25    2    1    2    0    0  0.00000000000E+00  0.00000000000E+00 -0.13562193541E+03  0.18444037133E+03  0.12499976485E+03 0.  0.
    9000005    1    3    3    0    0  0.23863228820E+02  0.34371810204E+02  0.67568779785E+00  0.41860859766E+02  0.10000000000E+01 0.  0.
    9000005    1    3    3    0    0 -0.23863228820E+02 -0.34371810204E+02 -0.13629762321E+03  0.14257951157E+03  0.10000000000E+01 0.  0.
<mgrwt>
<rscale>  0 0.12499976E+03</rscale>
<asrwt>0</asrwt>
<pdfrwt beam="2">  1        4 0.24620177E-01 0.12499976E+03</pdfrwt>
<pdfrwt beam="1">  1       -4 0.37552644E-02 0.12499976E+03</pdfrwt>
<totfact> 0.92824263E+03</totfact>
</mgrwt>
</event>
<event>
 5    1  0.3235144E-002  0.1249938E+03  0.7818608E-02  0.1235079E+00
         -4   -1    0    0    0  501 -0.00000000000E+00  0.00000000000E+00  0.11549597654E+04  0.11549604637E+04  0.12700000000E+01 0. -1.
          4   -1    0    0  501    0  0.00000000000E+00 -0.00000000000E+00 -0.32618578629E+01  0.35003737968E+01  0.12700000000E+01 0. -1.
         25    2    1    2    0    0  0.00000000000E+00  0.00000000000E+00  0.11516979076E+04  0.11584608375E+04  0.12499376653E+03 0.  0.
    9000005    1    3    3    0    0 -0.84104998973E+01 -0.23733694133E+02  0.11059056977E+04  0.11061927666E+04  0.10000000000E+01 0.  0.
    9000005    1    3    3    0    0  0.84104998973E+01  0.23733694133E+02  0.45792209913E+02  0.52268070889E+02  0.10000000000E+01 0.  0.
<mgrwt>
<rscale>  0 0.12499377E+03</rscale>
<asrwt>0</asrwt>
<pdfrwt beam="2">  1        4 0.52022584E-03 0.12499377E+03</pdfrwt>
<pdfrwt beam="1">  1       -4 0.17770436E+00 0.12499377E+03</pdfrwt>
<totfact> 0.25830179E+03</totfact>
</mgrwt>
</event>
<event>
 5    1  0.3235144E-002  0.1249988E+03  0.7818608E-02  0.1235071E+00
          4   -1    0    0  501    0  0.00000000000E+00  0.00000000000E+00  0.40426547323E+01  0.42374470244E+01  0.12700000000E+01 0. -1.
         -4   -1    0    0    0  501 -0.00000000000E+00 -0.00000000000E+00 -0.94331413666E+03  0.94331499157E+03  0.12700000000E+01 0. -1.
         25    2    1    2    0    0  0.00000000000E+00  0.00000000000E+00 -0.93927148193E+03  0.94755243859E+03  0.12499882850E+03 0.  0.
    9000005    1    3    3    0    0 -0.41948405997E+02  0.31815042445E+02 -0.21444090603E+03  0.22081161172E+03  0.10000000000E+01 0.  0.
    9000005    1    3    3    0    0  0.41948405997E+02 -0.31815042445E+02 -0.72483057589E+03  0.72674082687E+03  0.10000000000E+01 0.  0.
<mgrwt>
<rscale>  0 0.12499883E+03</rscale>
<asrwt>0</asrwt>
<pdfrwt beam="1">  1        4 0.63699742E-03 0.12499883E+03</pdfrwt>
<pdfrwt beam="2">  1       -4 0.14514013E+00 0.12499883E+03</pdfrwt>
<totfact> 0.32403895E+03</totfact>
</mgrwt>
</event>
<event>
 5    1  0.3235144E-002  0.1249950E+03  0.7818608E-02  0.1235077E+00
         -4   -1    0    0    0  501 -0.00000000000E+00  0.00000000000E+00  0.54216986782E+03  0.54217135526E+03  0.12700000000E+01 0.  1.
          4   -1    0    0  501    0  0.00000000000E+00 -0.00000000000E+00 -0.71467862401E+01  0.72587501377E+01  0.12700000000E+01 0.  1.
         25    2    1    2    0    0  0.00000000000E+00  0.00000000000E+00  0.53502308158E+03  0.54943010540E+03  0.12499497151E+03 0.  0.
    9000005    1    3    3    0    0  0.52681865826E+02  0.10585424455E+02  0.12729853512E+03  0.13817867868E+03  0.10000000000E+01 0.  0.
    9000005    1    3    3    0    0 -0.52681865826E+02 -0.10585424455E+02  0.40772454645E+03  0.41125142672E+03  0.10000000000E+01 0.  0.
<mgrwt>
<rscale>  0 0.12499497E+03</rscale>
<asrwt>0</asrwt>
<pdfrwt beam="2">  1        4 0.11082322E-02 0.12499497E+03</pdfrwt>
<pdfrwt beam="1">  1       -4 0.83419503E-01 0.12499497E+03</pdfrwt>
<totfact> 0.52229428E+03</totfact>
</mgrwt>
</event>
<event>
 5    1  0.3235144E-002  0.1250024E+03  0.7818608E-02  0.1235066E+00
         -4   -1    0    0    0  501 -0.00000000000E+00  0.00000000000E+00  0.10792120028E+03  0.10792867260E+03  0.12700000000E+01 0.  1.
          4   -1    0    0  501    0  0.00000000000E+00 -0.00000000000E+00 -0.36176919543E+02  0.36199204516E+02  0.12700000000E+01 0.  1.
         25    2    1    2    0    0  0.00000000000E+00  0.00000000000E+00  0.71744280736E+02  0.14412787712E+03  0.12500241255E+03 0.  0.
    9000005    1    3    3    0    0 -0.11963410055E+02  0.61266696525E+02  0.39267038068E+02  0.73753857946E+02  0.10000000000E+01 0.  0.
    9000005    1    3    3    0    0  0.11963410055E+02 -0.61266696525E+02  0.32477242668E+02  0.70374019173E+02  0.10000000000E+01 0.  0.
<mgrwt>
<rscale>  0 0.12500241E+03</rscale>
<asrwt>0</asrwt>
<pdfrwt beam="2">  1        4 0.55679690E-02 0.12500241E+03</pdfrwt>
<pdfrwt beam="1">  1       -4 0.16605550E-01 0.12500241E+03</pdfrwt>
<totfact> 0.10048192E+04</totfact>
</mgrwt>
</event>
<event>
 5    1  0.3235144E-002  0.1249997E+03  0.7818608E-02  0.1235070E+00
          4   -1    0    0  501    0  0.00000000000E+00  0.00000000000E+00  0.15044432489E+03  0.15044968525E+03  0.12700000000E+01 0. -1.
         -4   -1    0    0    0  501 -0.00000000000E+00 -0.00000000000E+00 -0.25943271576E+02  0.25974338106E+02  0.12700000000E+01 0. -1.
         25    2    1    2    0    0  0.00000000000E+00  0.00000000000E+00  0.12450105331E+03  0.17642402336E+03  0.12499969496E+03 0.  0.
    9000005    1    3    3    0    0  0.32014217065E+02  0.52405063031E+02  0.78590453853E+02  0.99742970491E+02  0.10000000000E+01 0.  0.
    9000005    1    3    3    0    0 -0.32014217065E+02 -0.52405063031E+02  0.45910599461E+02  0.76681052865E+02  0.10000000000E+01 0.  0.
<mgrwt>
<rscale>  0 0.12499969E+03</rscale>
<asrwt>0</asrwt>
<pdfrwt beam="1">  1        4 0.23148083E-01 0.12499969E+03</pdfrwt>
<pdfrwt beam="2">  1       -4 0.39940746E-02 0.12499969E+03</pdfrwt>
<totfact> 0.94265324E+03</totfact>
</mgrwt>
</event>
<event>
 5    1  0.3235144E-002  0.1249994E+03  0.7818608E-02  0.1235070E+00
          4   -1    0    0  501    0  0.00000000000E+00  0.00000000000E+00  0.16181574703E+03  0.16182073071E+03  0.12700000000E+01 0. -1.
         -4   -1    0    0    0  501 -0.00000000000E+00 -0.00000000000E+00 -0.24117813990E+02  0.24151228782E+02  0.12700000000E+01 0. -1.
         25    2    1    2    0    0  0.00000000000E+00  0.00000000000E+00  0.13769793304E+03  0.18597195949E+03  0.12499939581E+03 0.  0.
    9000005    1    3    3    0    0  0.54806500897E+02 -0.19553027758E+01  0.24274125558E+02  0.59981738230E+02  0.10000000000E+01 0.  0.
    9000005    1    3    3    0    0 -0.54806500897E+02  0.19553027758E+01  0.11342380749E+03  0.12599022126E+03  0.10000000000E+01 0.  0.
<mgrwt>
<rscale>  0 0.12499940E+03</rscale>
<asrwt>0</asrwt>
<pdfrwt beam="1">  1        4 0.24897684E-01 0.12499940E+03</pdfrwt>
<pdfrwt beam="2">  1       -4 0.37133866E-02 0.12499940E+03</pdfrwt>
<totfact> 0.92554195E+03</totfact>
</mgrwt>
</event>
<event>
 5    1  0.3235144E-002  0.1250015E+03  0.7818608E-02  0.1235067E+00
         -4   -1    0    0    0  501 -0.00000000000E+00  0.00000000000E+00  0.34665717945E+02  0.34688973762E+02  0.12700000000E+01 0. -1.
          4   -1    0    0  501    0  0.00000000000E+00 -0.00000000000E+00 -0.11262147868E+03  0.11262863917E+03  0.12700000000E+01 0. -1.
         25    2    1    2    0    0  0.00000000000E+00  0.00000000000E+00 -0.77955760737E+02  0.14731761293E+03  0.12500151378E+03 0.  0.
    9000005    1    3    3    0    0 -0.34526712135E+02 -0.41804567755E+01  0.22212222678E+02  0.41278964449E+02  0.10000000000E+01 0.  0.
    9000005    1    3    3    0    0  0.34526712135E+02  0.41804567755E+01 -0.10016798342E+03  0.10603864848E+03  0.10000000000E+01 0.  0.
<mgrwt>
<rscale>  0 0.12500151E+03</rscale>
<asrwt>0</asrwt>
<pdfrwt beam="2">  1        4 0.17328721E-01 0.12500151E+03</pdfrwt>
<pdfrwt beam="1">  1       -4 0.53355272E-02 0.12500151E+03</pdfrwt>
<totfact> 0.99837702E+03</totfact>
</mgrwt>
</event>
<event>
 5    1  0.3235144E-002  0.1249710E+03  0.7818608E-02  0.1235115E+00
          4   -1    0    0  501    0  0.00000000000E+00  0.00000000000E+00  0.86579802771E+03  0.86579895917E+03  0.12700000000E+01 0. -1.
         -4   -1    0    0    0  501 -0.00000000000E+00 -0.00000000000E+00 -0.44192718767E+01  0.45981370054E+01  0.12700000000E+01 0. -1.
         25    2    1    2    0    0  0.00000000000E+00  0.00000000000E+00  0.86137875584E+03  0.87039709617E+03  0.12497097269E+03 0.  0.
    9000005    1    3    3    0    0 -0.14103227561E+02  0.35092553365E+02  0.77704682322E+03  0.77796732182E+03  0.10000000000E+01 0.  0.
    9000005    1    3    3    0    0  0.14103227561E+02 -0.35092553365E+02  0.84331932612E+02  0.92429774356E+02  0.10000000000E+01 0.  0.
<mgrwt>
<rscale>  0 0.12497097E+03</rscale>
<asrwt>0</asrwt>
<pdfrwt beam="1">  1        4 0.13321363E+00 0.12497097E+03</pdfrwt>
<pdfrwt beam="2">  1       -4 0.69371794E-03 0.12497097E+03</pdfrwt>
<totfact> 0.35329244E+03</totfact>
</mgrwt>
</event>
<event>
 5    1  0.3235144E-002  0.1249997E+03  0.7818608E-02  0.1235070E+00
         -4   -1    0    0    0  501 -0.00000000000E+00  0.00000000000E+00  0.33106957490E+03  0.33107201079E+03  0.12700000000E+01 0.  1.
          4   -1    0    0  501    0  0.00000000000E+00 -0.00000000000E+00 -0.11762161559E+02  0.11830525962E+02  0.12700000000E+01 0.  1.
         25    2    1    2    0    0  0.00000000000E+00  0.00000000000E+00  0.31930741334E+03  0.34290253675E+03  0.12499970197E+03 0.  0.
    9000005    1    3    3    0    0  0.25733263567E+02 -0.36104929346E+02  0.28046364108E+03  0.28394827125E+03  0.10000000000E+01 0.  0.
    9000005    1    3    3    0    0 -0.25733263567E+02  0.36104929346E+02  0.38843772261E+02  0.58954265498E+02  0.10000000000E+01 0.  0.
<mgrwt>
<rscale>  0 0.12499970E+03</rscale>
<asrwt>0</asrwt>
<pdfrwt beam="2">  1        4 0.18150098E-02 0.12499970E+03</pdfrwt>
<pdfrwt beam="1">  1       -4 0.50939219E-01 0.12499970E+03</pdfrwt>
<totfact> 0.70512955E+03</totfact>
</mgrwt>
</event>
<event>
 5    1  0.3235144E-002  0.1250019E+03  0.7818608E-02  0.1235066E+00
         -4   -1    0    0    0  501 -0.00000000000E+00  0.00000000000E+00  0.33024324576E+01  0.35382142582E+01  0.12700000000E+01 0. -1.
          4   -1    0    0  501    0  0.00000000000E+00 -0.00000000000E+00 -0.11418694928E+04  0.11418701990E+04  0.12700000000E+01 0. -1.
         25    2    1    2    0    0  0.00000000000E+00  0.00000000000E+00 -0.11385670603E+04  0.11454084133E+04  0.12500192954E+03 0.  0.
    9000005    1    3    3    0    0  0.23722765685E+02 -0.34654106898E+02 -0.99333868585E+03  0.99422654438E+03  0.10000000000E+01 0.  0.
    9000005    1    3    3    0    0 -0.23722765685E+02  0.34654106898E+02 -0.14522837445E+03  0.15118186889E+03  0.10000000000E+01 0.  0.
<mgrwt>
<rscale>  0 0.12500193E+03</rscale>
<asrwt>0</asrwt>
<pdfrwt beam="2">  1        4 0.17569012E+00 0.12500193E+03</pdfrwt>
<pdfrwt beam="1">  1       -4 0.52625883E-03 0.12500193E+03</pdfrwt>
<totfact> 0.26186928E+03</totfact>
</mgrwt>
</event>
<event>
 4    1  0.3235144E-002  0.1251191E+03  0.7818608E-02  0.1234883E+00
          4   -1    0    0  501    0  0.00000000000E+00  0.00000000000E+00  0.75535149014E+03  0.75535255778E+03  0.12700000000E+01 0.  1.
         -4   -1    0    0    0  501 -0.00000000000E+00 -0.00000000000E+00 -0.51023786076E+01  0.52580573842E+01  0.12700000000E+01 0.  1.
    9000005    1    1    2    0    0 -0.59503767152E+02 -0.37245401630E+01  0.49016636754E+03  0.49377994935E+03  0.10000000000E+01 0.  0.
    9000005    1    1    2    0    0  0.59503767152E+02  0.37245401630E+01  0.26008274398E+03  0.26683066582E+03  0.10000000000E+01 0.  0.
<mgrwt>
<rscale>  0 0.12511906E+03</rscale>
<asrwt>0</asrwt>
<pdfrwt beam="1">  1        4 0.11621983E+00 0.12511906E+03</pdfrwt>
<pdfrwt beam="2">  1       -4 0.79703974E-03 0.12511906E+03</pdfrwt>
<totfact> 0.39967637E+03</totfact>
</mgrwt>
</event>
<event>
 5    1  0.3235144E-002  0.1250002E+03  0.7818608E-02  0.1235069E+00
          4   -1    0    0  501    0  0.00000000000E+00  0.00000000000E+00  0.12583496904E+04  0.12583503313E+04  0.12700000000E+01 0. -1.
         -4   -1    0    0    0  501 -0.00000000000E+00 -0.00000000000E+00 -0.29737105027E+01  0.32335513223E+01  0.12700000000E+01 0. -1.
         25    2    1    2    0    0  0.00000000000E+00  0.00000000000E+00  0.12553759799E+04  0.12615838826E+04  0.12500016774E+03 0.  0.
    9000005    1    3    3    0    0 -0.58450436697E+02  0.22096555242E+02  0.63516732584E+03  0.63823447347E+03  0.10000000000E+01 0.  0.
    9000005    1    3    3    0    0  0.58450436697E+02 -0.22096555242E+02  0.62020865403E+03  0.62334940911E+03  0.10000000000E+01 0.  0.
<mgrwt>
<rscale>  0 0.12500017E+03</rscale>
<asrwt>0</asrwt>
<pdfrwt beam="1">  1        4 0.19361273E+00 0.12500017E+03</pdfrwt>
<pdfrwt beam="2">  1       -4 0.47752992E-03 0.12500017E+03</pdfrwt>
<totfact> 0.23153595E+03</totfact>
</mgrwt>
</event>
<event>
 5    1  0.3235144E-002  0.1249984E+03  0.7818608E-02  0.1235072E+00
          4   -1    0    0  501    0  0.00000000000E+00  0.00000000000E+00  0.13908600258E+02  0.13966462013E+02  0.12700000000E+01 0. -1.
         -4   -1    0    0    0  501 -0.00000000000E+00 -0.00000000000E+00 -0.28020192212E+03  0.28020480021E+03  0.12700000000E+01 0. -1.
         25    2    1    2    0    0  0.00000000000E+00  0.00000000000E+00 -0.26629332186E+03  0.29417126222E+03  0.12499839298E+03 0.  0.
    9000005    1    3    3    0    0  0.96444859862E+00 -0.40007127513E+02 -0.20192045258E+02  0.44835467039E+02  0.10000000000E+01 0.  0.
    9000005    1    3    3    0    0 -0.96444859862E+00  0.40007127513E+02 -0.24610127660E+03  0.24933579518E+03  0.10000000000E+01 0.  0.
<mgrwt>
<rscale>  0 0.12499839E+03</rscale>
<asrwt>0</asrwt>
<pdfrwt beam="1">  1        4 0.21444572E-02 0.12499839E+03</pdfrwt>
<pdfrwt beam="2">  1       -4 0.43112656E-01 0.12499839E+03</pdfrwt>
<totfact> 0.76338576E+03</totfact>
</mgrwt>
</event>
<event>
 5    1  0.3235144E-002  0.1250074E+03  0.7818608E-02  0.1235058E+00
         -4   -1    0    0    0  501 -0.00000000000E+00  0.00000000000E+00  0.16902422157E+03  0.16902899271E+03  0.12700000000E+01 0. -1.
          4   -1    0    0  501    0  0.00000000000E+00 -0.00000000000E+00 -0.23090784149E+02  0.23125682965E+02  0.12700000000E+01 0. -1.
         25    2    1    2    0    0  0.00000000000E+00  0.00000000000E+00  0.14593343742E+03  0.19215467568E+03  0.12500740469E+03 0.  0.
    9000005    1    3    3    0    0 -0.22938411202E+02  0.43265120562E+01  0.16207910293E+03  0.16375446565E+03  0.10000000000E+01 0.  0.
    9000005    1    3    3    0    0  0.22938411202E+02 -0.43265120562E+01 -0.16145665504E+02  0.28400210028E+02  0.10000000000E+01 0.  0.
<mgrwt>
<rscale>  0 0.12500740E+03</rscale>
<asrwt>0</asrwt>
<pdfrwt beam="2">  1        4 0.35554800E-02 0.12500740E+03</pdfrwt>
<pdfrwt beam="1">  1       -4 0.26006777E-01 0.12500740E+03</pdfrwt>
<totfact> 0.91458587E+03</totfact>
</mgrwt>
</event>
<event>
 5    1  0.3235144E-002  0.1250005E+03  0.7818608E-02  0.1235068E+00
         -4   -1    0    0    0  501 -0.00000000000E+00  0.00000000000E+00  0.19826877031E+03  0.19827283773E+03  0.12700000000E+01 0.  1.
          4   -1    0    0  501    0  0.00000000000E+00 -0.00000000000E+00 -0.19677216356E+02  0.19718157711E+02  0.12700000000E+01 0.  1.
         25    2    1    2    0    0  0.00000000000E+00  0.00000000000E+00  0.17859155395E+03  0.21799099544E+03  0.12500052379E+03 0.  0.
    9000005    1    3    3    0    0 -0.43786930347E+02 -0.32931319888E+02  0.14171548029E+03  0.15194092422E+03  0.10000000000E+01 0.  0.
    9000005    1    3    3    0    0  0.43786930347E+02  0.32931319888E+02  0.36876073659E+02  0.66050071213E+02  0.10000000000E+01 0.  0.
<mgrwt>
<rscale>  0 0.12500052E+03</rscale>
<asrwt>0</asrwt>
<pdfrwt beam="2">  1        4 0.30307262E-02 0.12500052E+03</pdfrwt>
<pdfrwt beam="1">  1       -4 0.30506350E-01 0.12500052E+03</pdfrwt>
<totfact> 0.87186229E+03</totfact>
</mgrwt>
</event>
<event>
 5    1  0.3235144E-002  0.1249946E+03  0.7818608E-02  0.1235078E+00
         -4   -1    0    0    0  501 -0.00000000000E+00  0.00000000000E+00  0.85719239726E+01  0.86654936727E+01  0.12700000000E+01 0.  1.
          4   -1    0    0  501    0  0.00000000000E+00 -0.00000000000E+00 -0.45309532129E+03  0.45309710116E+03  0.12700000000E+01 0.  1.
         25    2    1    2    0    0  0.00000000000E+00  0.00000000000E+00 -0.44452339732E+03  0.46176259483E+03  0.12499457276E+03 0.  0.
    9000005    1    3    3    0    0 -0.50325785868E+02  0.15818079735E+02 -0.34600645806E+03  0.35000623622E+03  0.10000000000E+01 0.  0.
    9000005    1    3    3    0    0  0.50325785868E+02 -0.15818079735E+02 -0.98516939255E+02  0.11175635861E+03  0.10000000000E+01 0.  0.
<mgrwt>
<rscale>  0 0.12499457E+03</rscale>
<asrwt>0</asrwt>
<pdfrwt beam="2">  1        4 0.69714289E-01 0.12499457E+03</pdfrwt>
<pdfrwt beam="1">  1       -4 0.13260925E-02 0.12499457E+03</pdfrwt>
<totfact> 0.58965230E+03</totfact>
</mgrwt>
</event>
<event>
 5    1  0.3235144E-002  0.1250003E+03  0.7818608E-02  0.1235069E+00
          4   -1    0    0  501    0  0.00000000000E+00  0.00000000000E+00  0.40427704347E+03  0.40427903826E+03  0.12700000000E+01 0.  1.
         -4   -1    0    0    0  501 -0.00000000000E+00 -0.00000000000E+00 -0.96186045081E+01  0.97020849658E+01  0.12700000000E+01 0.  1.
         25    2    1    2    0    0  0.00000000000E+00  0.00000000000E+00  0.39465843896E+03  0.41398112322E+03  0.12500034777E+03 0.  0.
    9000005    1    3    3    0    0 -0.57949990625E+02 -0.10200866202E+01  0.11994053426E+03  0.13321401484E+03  0.10000000000E+01 0.  0.
    9000005    1    3    3    0    0  0.57949990625E+02  0.10200866202E+01  0.27471790470E+03  0.28076710839E+03  0.10000000000E+01 0.  0.
<mgrwt>
<rscale>  0 0.12500035E+03</rscale>
<asrwt>0</asrwt>
<pdfrwt beam="1">  1        4 0.62203037E-01 0.12500035E+03</pdfrwt>
<pdfrwt beam="2">  1       -4 0.14863605E-02 0.12500035E+03</pdfrwt>
<totfact> 0.63214860E+03</totfact>
</mgrwt>
</event>
<event>
 5    1  0.3235144E-002  0.1250010E+03  0.7818608E-02  0.1235068E+00
          4   -1    0    0  501    0  0.00000000000E+00  0.00000000000E+00  0.42181820073E+02  0.42200934169E+02  0.12700000000E+01 0. -1.
         -4   -1    0    0    0  501 -0.00000000000E+00 -0.00000000000E+00 -0.92562049291E+02  0.92570761415E+02  0.12700000000E+01 0. -1.
         25    2    1    2    0    0  0.00000000000E+00  0.00000000000E+00 -0.50380229218E+02  0.13477169558E+03  0.12500096973E+03 0.  0.
    9000005    1    3    3    0    0  0.23440524246E+02  0.57928371458E+02 -0.25616244930E+02  0.67545143430E+02  0.10000000000E+01 0.  0.
    9000005    1    3    3    0    0 -0.23440524246E+02 -0.57928371458E+02 -0.24763984288E+02  0.67226552154E+02  0.10000000000E+01 0.  0.
<mgrwt>
<rscale>  0 0.12500097E+03</rscale>
<asrwt>0</asrwt>
<pdfrwt beam="1">  1        4 0.64916513E-02 0.12500097E+03</pdfrwt>
<pdfrwt beam="2">  1       -4 0.14242456E-01 0.12500097E+03</pdfrwt>
<totfact> 0.10242661E+04</totfact>
</mgrwt>
</event>
<event>
 5    1  0.3235144E-002  0.1249996E+03  0.7818608E-02  0.1235070E+00
          4   -1    0    0  501    0  0.00000000000E+00  0.00000000000E+00  0.19974286830E+02  0.20014620515E+02  0.12700000000E+01 0.  1.
         -4   -1    0    0    0  501 -0.00000000000E+00 -0.00000000000E+00 -0.19532315116E+03  0.19532727992E+03  0.12700000000E+01 0.  1.
         25    2    1    2    0    0  0.00000000000E+00  0.00000000000E+00 -0.17534886433E+03  0.21534190043E+03  0.12499963944E+03 0.  0.
    9000005    1    3    3    0    0 -0.49209726152E+02  0.79751739153E+01 -0.15259287135E+03  0.16053281575E+03  0.10000000000E+01 0.  0.
    9000005    1    3    3    0    0  0.49209726152E+02 -0.79751739153E+01 -0.22755992985E+02  0.54809084682E+02  0.10000000000E+01 0.  0.
<mgrwt>
<rscale>  0 0.12499964E+03</rscale>
<asrwt>0</asrwt>
<pdfrwt beam="1">  1        4 0.30763875E-02 0.12499964E+03</pdfrwt>
<pdfrwt beam="2">  1       -4 0.30053134E-01 0.12499964E+03</pdfrwt>
<totfact> 0.87611549E+03</totfact>
</mgrwt>
</event>
<event>
 5    1  0.3235144E-002  0.1249968E+03  0.7818608E-02  0.1235074E+00
          4   -1    0    0  501    0  0.00000000000E+00  0.00000000000E+00  0.57252837874E+02  0.57266921906E+02  0.12700000000E+01 0. -1.
         -4   -1    0    0    0  501 -0.00000000000E+00 -0.00000000000E+00 -0.68196166478E+02  0.68207990897E+02  0.12700000000E+01 0. -1.
         25    2    1    2    0    0  0.00000000000E+00  0.00000000000E+00 -0.10943328604E+02  0.12547491280E+03  0.12499678917E+03 0.  0.
    9000005    1    3    3    0    0  0.75021677615E+01 -0.55657364631E+02  0.22037988992E+02  0.60338194517E+02  0.10000000000E+01 0.  0.
    9000005    1    3    3    0    0 -0.75021677615E+01  0.55657364631E+02 -0.32981317596E+02  0.65136718286E+02  0.10000000000E+01 0.  0.
<mgrwt>
<rscale>  0 0.12499679E+03</rscale>
<asrwt>0</asrwt>
<pdfrwt beam="1">  1        4 0.88101218E-02 0.12499679E+03</pdfrwt>
<pdfrwt beam="2">  1       -4 0.10493711E-01 0.12499679E+03</pdfrwt>
<totfact> 0.10443265E+04</totfact>
</mgrwt>
</event>
<event>
 5    1  0.3235144E-002  0.1250012E+03  0.7818608E-02  0.1235067E+00
          4   -1    0    0  501    0  0.00000000000E+00  0.00000000000E+00  0.21659288776E+03  0.21659661107E+03  0.12700000000E+01 0.  1.
         -4   -1    0    0    0  501 -0.00000000000E+00 -0.00000000000E+00 -0.18009105225E+02  0.18053829815E+02  0.12700000000E+01 0.  1.
         25    2    1    2    0    0  0.00000000000E+00  0.00000000000E+00  0.19858378254E+03  0.23465044089E+03  0.12500124289E+03 0.  0.
    9000005    1    3    3    0    0 -0.19004418930E+02 -0.51985332738E+02  0.44831367099E+02  0.71235484379E+02  0.10000000000E+01 0.  0.
    9000005    1    3    3    0    0  0.19004418930E+02  0.51985332738E+02  0.15375241544E+03  0.16341495651E+03  0.10000000000E+01 0.  0.
<mgrwt>
<rscale>  0 0.12500124E+03</rscale>
<asrwt>0</asrwt>
<pdfrwt beam="1">  1        4 0.33325707E-01 0.12500124E+03</pdfrwt>
<pdfrwt beam="2">  1       -4 0.27743585E-02 0.12500124E+03</pdfrwt>
<totfact> 0.84598252E+03</totfact>
</mgrwt>
</event>
<event>
 5    1  0.3235144E-002  0.1250180E+03  0.7818608E-02  0.1235041E+00
         -4   -1    0    0    0  501 -0.00000000000E+00  0.00000000000E+00  0.66289137629E+02  0.66301302156E+02  0.12700000000E+01 0.  1.
          4   -1    0    0  501    0  0.00000000000E+00 -0.00000000000E+00 -0.58920001882E+02  0.58933687495E+02  0.12700000000E+01 0.  1.
         25    2    1    2    0    0  0.00000000000E+00  0.00000000000E+00  0.73691357471E+01  0.12523498965E+03  0.12501799259E+03 0.  0.
    9000005    1    3    3    0    0  0.50736777315E+02  0.22210617788E+02 -0.25328481480E+02  0.60910295426E+02  0.10000000000E+01 0.  0.
    9000005    1    3    3    0    0 -0.50736777315E+02 -0.22210617788E+02  0.32697617227E+02  0.64324694225E+02  0.10000000000E+01 0.  0.
<mgrwt>
<rscale>  0 0.12501799E+03</rscale>
<asrwt>0</asrwt>
<pdfrwt beam="2">  1        4 0.90666042E-02 0.12501799E+03</pdfrwt>
<pdfrwt beam="1">  1       -4 0.10200317E-01 0.12501799E+03</pdfrwt>
<totfact> 0.10443514E+04</totfact>
</mgrwt>
</event>
<event>
 5    1  0.3235144E-002  0.1250024E+03  0.7818608E-02  0.1235065E+00
         -4   -1    0    0    0  501 -0.00000000000E+00  0.00000000000E+00  0.15474300617E+02  0.15526328593E+02  0.12700000000E+01 0.  1.
          4   -1    0    0  501    0  0.00000000000E+00 -0.00000000000E+00 -0.25196720208E+03  0.25197040268E+03  0.12700000000E+01 0.  1.
         25    2    1    2    0    0  0.00000000000E+00  0.00000000000E+00 -0.23649290147E+03  0.26749673127E+03  0.12500243516E+03 0.  0.
    9000005    1    3    3    0    0  0.34647877915E+02  0.63461126132E+01 -0.22871035436E+03  0.23140910696E+03  0.10000000000E+01 0.  0.
    9000005    1    3    3    0    0 -0.34647877915E+02 -0.63461126132E+01 -0.77825471033E+01  0.36087624315E+02  0.10000000000E+01 0.  0.
<mgrwt>
<rscale>  0 0.12500244E+03</rscale>
<asrwt>0</asrwt>
<pdfrwt beam="2">  1        4 0.38768430E-01 0.12500244E+03</pdfrwt>
<pdfrwt beam="1">  1       -4 0.23849102E-02 0.12500244E+03</pdfrwt>
<totfact> 0.79861052E+03</totfact>
</mgrwt>
</event>
<event>
 5    1  0.3235144E-002  0.1249909E+03  0.7818608E-02  0.1235084E+00
         -4   -1    0    0    0  501 -0.00000000000E+00  0.00000000000E+00  0.23564074455E+01  0.26768556272E+01  0.12700000000E+01 0.  1.
          4   -1    0    0  501    0  0.00000000000E+00 -0.00000000000E+00 -0.15516273022E+04  0.15516278220E+04  0.12700000000E+01 0.  1.
         25    2    1    2    0    0  0.00000000000E+00  0.00000000000E+00 -0.15492708948E+04  0.15543046776E+04  0.12499090122E+03 0.  0.
    9000005    1    3    3    0    0 -0.60218225369E+02 -0.14237954556E+02 -0.88284960393E+03  0.88501603215E+03  0.10000000000E+01 0.  0.
    9000005    1    3    3    0    0  0.60218225369E+02  0.14237954556E+02 -0.66642129087E+03  0.66928864545E+03  0.10000000000E+01 0.  0.
<mgrwt>
<rscale>  0 0.12499090E+03</rscale>
<asrwt>0</asrwt>
<pdfrwt beam="2">  1        4 0.23873582E+00 0.12499090E+03</pdfrwt>
<pdfrwt beam="1">  1       -4 0.38721530E-03 0.12499090E+03</pdfrwt>
<totfact> 0.16890759E+03</totfact>
</mgrwt>
</event>
<event>
 5    1  0.3235144E-002  0.1249996E+03  0.7818608E-02  0.1235070E+00
         -4   -1    0    0    0  501 -0.00000000000E+00  0.00000000000E+00  0.62261392897E+01  0.63543457928E+01  0.12700000000E+01 0.  1.
          4   -1    0    0  501    0  0.00000000000E+00 -0.00000000000E+00 -0.62086886032E+03  0.62087015922E+03  0.12700000000E+01 0.  1.
         25    2    1    2    0    0  0.00000000000E+00  0.00000000000E+00 -0.61464272103E+03  0.62722450501E+03  0.12499962071E+03 0.  0.
    9000005    1    3    3    0    0 -0.51151554943E+02 -0.10721362669E+01 -0.48737587065E+03  0.49005496665E+03  0.10000000000E+01 0.  0.
    9000005    1    3    3    0    0  0.51151554943E+02  0.10721362669E+01 -0.12726685038E+03  0.13716953836E+03  0.10000000000E+01 0.  0.
<mgrwt>
<rscale>  0 0.12499962E+03</rscale>
<asrwt>0</asrwt>
<pdfrwt beam="2">  1        4 0.95528200E-01 0.12499962E+03</pdfrwt>
<pdfrwt beam="1">  1       -4 0.96783003E-03 0.12499962E+03</pdfrwt>
<totfact> 0.47193422E+03</totfact>
</mgrwt>
</event>
<event>
 5    1  0.3235144E-002  0.1250016E+03  0.7818608E-02  0.1235067E+00
         -4   -1    0    0    0  501 -0.00000000000E+00  0.00000000000E+00  0.72488198163E+02  0.72499322569E+02  0.12700000000E+01 0. -1.
          4   -1    0    0  501    0  0.00000000000E+00 -0.00000000000E+00 -0.53866724687E+02  0.53881693816E+02  0.12700000000E+01 0. -1.
         25    2    1    2    0    0  0.00000000000E+00  0.00000000000E+00  0.18621473477E+02  0.12638101638E+03  0.12500160810E+03 0.  0.
    9000005    1    3    3    0    0  0.16008555237E+02 -0.49204128865E+02  0.44740707759E+02  0.68410898758E+02  0.10000000000E+01 0.  0.
    9000005    1    3    3    0    0 -0.16008555237E+02  0.49204128865E+02 -0.26119234283E+02  0.57970117626E+02  0.10000000000E+01 0.  0.
<mgrwt>
<rscale>  0 0.12500161E+03</rscale>
<asrwt>0</asrwt>
<pdfrwt beam="2">  1        4 0.82891956E-02 0.12500161E+03</pdfrwt>
<pdfrwt beam="1">  1       -4 0.11154038E-01 0.12500161E+03</pdfrwt>
<totfact> 0.10422246E+04</totfact>
</mgrwt>
</event>
<event>
 5    1  0.3235144E-002  0.1250002E+03  0.7818608E-02  0.1235069E+00
         -4   -1    0    0    0  501 -0.00000000000E+00  0.00000000000E+00  0.29172705680E+02  0.29200336586E+02  0.12700000000E+01 0. -1.
          4   -1    0    0  501    0  0.00000000000E+00 -0.00000000000E+00 -0.13380725248E+03  0.13381327929E+03  0.12700000000E+01 0. -1.
         25    2    1    2    0    0  0.00000000000E+00  0.00000000000E+00 -0.10463454680E+03  0.16301361588E+03  0.12500020231E+03 0.  0.
    9000005    1    3    3    0    0 -0.34314414683E+02 -0.52207738960E+02 -0.54223047101E+02  0.82730078564E+02  0.10000000000E+01 0.  0.
    9000005    1    3    3    0    0  0.34314414683E+02  0.52207738960E+02 -0.50411499696E+02  0.80283537316E+02  0.10000000000E+01 0.  0.
<mgrwt>
<rscale>  0 0.12500020E+03</rscale>
<asrwt>0</asrwt>
<pdfrwt beam="2">  1        4 0.20588320E-01 0.12500020E+03</pdfrwt>
<pdfrwt beam="1">  1       -4 0.44906977E-02 0.12500020E+03</pdfrwt>
<totfact> 0.96764470E+03</totfact>
</mgrwt>
</event>
<event>
 5    1  0.3235144E-002  0.1250052E+03  0.7818608E-02  0.1235061E+00
         -4   -1    0    0    0  501 -0.00000000000E+00  0.00000000000E+00  0.50530817162E+02  0.50546774210E+02  0.12700000000E+01 0. -1.
          4   -1    0    0  501    0  0.00000000000E+00 -0.00000000000E+00 -0.77277399814E+02  0.77287834890E+02  0.12700000000E+01 0. -1.
         25    2    1    2    0    0  0.00000000000E+00  0.00000000000E+00 -0.26746582652E+02  0.12783460910E+03  0.12500523029E+03 0.  0.
    9000005    1    3    3    0    0 -0.51759471237E+02  0.51720367223E+01 -0.48795187810E+02  0.71328557955E+02  0.10000000000E+01 0.  0.
    9000005    1    3    3    0    0  0.51759471237E+02 -0.51720367223E+01  0.22048605158E+02  0.56506051145E+02  0.10000000000E+01 0.  0.
<mgrwt>
<rscale>  0 0.12500523E+03</rscale>
<asrwt>0</asrwt>
<pdfrwt beam="2">  1        4 0.11890861E-01 0.12500523E+03</pdfrwt>
<pdfrwt beam="1">  1       -4 0.77760021E-02 0.12500523E+03</pdfrwt>
<totfact> 0.10389834E+04</totfact>
</mgrwt>
</event>
<event>
 5    1  0.3235144E-002  0.1249983E+03  0.7818608E-02  0.1235072E+00
          4   -1    0    0  501    0  0.00000000000E+00  0.00000000000E+00  0.79858470897E+02  0.79868568749E+02  0.12700000000E+01 0. -1.
         -4   -1    0    0    0  501 -0.00000000000E+00 -0.00000000000E+00 -0.48891861391E+02  0.48908353174E+02  0.12700000000E+01 0. -1.
         25    2    1    2    0    0  0.00000000000E+00  0.00000000000E+00  0.30966609506E+02  0.12877692192E+03  0.12499825885E+03 0.  0.
    9000005    1    3    3    0    0  0.24823558769E+02  0.20544286815E+02  0.70645005967E+02  0.77653033803E+02  0.10000000000E+01 0.  0.
    9000005    1    3    3    0    0 -0.24823558769E+02 -0.20544286815E+02 -0.39678396461E+02  0.51123888120E+02  0.10000000000E+01 0.  0.
<mgrwt>
<rscale>  0 0.12499826E+03</rscale>
<asrwt>0</asrwt>
<pdfrwt beam="1">  1        4 0.12287964E-01 0.12499826E+03</pdfrwt>
<pdfrwt beam="2">  1       -4 0.75238702E-02 0.12499826E+03</pdfrwt>
<totfact> 0.10371150E+04</totfact>
</mgrwt>
</event>
<event>
 5    1  0.3235144E-002  0.1249928E+03  0.7818608E-02  0.1235081E+00
          4   -1    0    0  501    0  0.00000000000E+00  0.00000000000E+00  0.14494290878E+02  0.14549823644E+02  0.12700000000E+01 0. -1.
         -4   -1    0    0    0  501 -0.00000000000E+00 -0.00000000000E+00 -0.26889935290E+03  0.26890235196E+03  0.12700000000E+01 0. -1.
         25    2    1    2    0    0  0.00000000000E+00  0.00000000000E+00 -0.25440506202E+03  0.28345217560E+03  0.12499280088E+03 0.  0.
    9000005    1    3    3    0    0  0.28660295491E+02  0.33139844220E+02 -0.22824179503E+03  0.23241122780E+03  0.10000000000E+01 0.  0.
    9000005    1    3    3    0    0 -0.28660295491E+02 -0.33139844220E+02 -0.26163266997E+02  0.51040947801E+02  0.10000000000E+01 0.  0.
<mgrwt>
<rscale>  0 0.12499280E+03</rscale>
<asrwt>0</asrwt>
<pdfrwt beam="1">  1        4 0.22343935E-02 0.12499280E+03</pdfrwt>
<pdfrwt beam="2">  1       -4 0.41373630E-01 0.12499280E+03</pdfrwt>
<totfact> 0.77735025E+03</totfact>
</mgrwt>
</event>
<event>
 5    1  0.3235144E-002  0.1249988E+03  0.7818608E-02  0.1235071E+00
          4   -1    0    0  501    0  0.00000000000E+00  0.00000000000E+00  0.11137266453E+03  0.11137990530E+03  0.12700000000E+01 0. -1.
         -4   -1    0    0    0  501 -0.00000000000E+00 -0.00000000000E+00 -0.35053119656E+02  0.35076118623E+02  0.12700000000E+01 0. -1.
         25    2    1    2    0    0  0.00000000000E+00  0.00000000000E+00  0.76319544873E+02  0.14645602392E+03  0.12499877605E+03 0.  0.
    9000005    1    3    3    0    0  0.40721388657E+02  0.46804305832E+02  0.46951043751E+02  0.77809222126E+02  0.10000000000E+01 0.  0.
    9000005    1    3    3    0    0 -0.40721388657E+02 -0.46804305832E+02  0.29368501122E+02  0.68646801795E+02  0.10000000000E+01 0.  0.
<mgrwt>
<rscale>  0 0.12499878E+03</rscale>
<asrwt>0</asrwt>
<pdfrwt beam="1">  1        4 0.17136582E-01 0.12499878E+03</pdfrwt>
<pdfrwt beam="2">  1       -4 0.53951138E-02 0.12499878E+03</pdfrwt>
<totfact> 0.10001764E+04</totfact>
</mgrwt>
</event>
<event>
 5    1  0.3235144E-002  0.1250017E+03  0.7818608E-02  0.1235067E+00
         -4   -1    0    0    0  501 -0.00000000000E+00  0.00000000000E+00  0.22771345547E+02  0.22806733173E+02  0.12700000000E+01 0. -1.
          4   -1    0    0  501    0  0.00000000000E+00 -0.00000000000E+00 -0.17137604936E+03  0.17138075503E+03  0.12700000000E+01 0. -1.
         25    2    1    2    0    0  0.00000000000E+00  0.00000000000E+00 -0.14860470381E+03  0.19418748820E+03  0.12500169030E+03 0.  0.
    9000005    1    3    3    0    0  0.44168823908E+02  0.40685644611E+02 -0.47433500070E+02  0.76531977707E+02  0.10000000000E+01 0.  0.
    9000005    1    3    3    0    0 -0.44168823908E+02 -0.40685644611E+02 -0.10117120374E+03  0.11765551049E+03  0.10000000000E+01 0.  0.
<mgrwt>
<rscale>  0 0.12500169E+03</rscale>
<asrwt>0</asrwt>
<pdfrwt beam="2">  1        4 0.26368629E-01 0.12500169E+03</pdfrwt>
<pdfrwt beam="1">  1       -4 0.35063681E-02 0.12500169E+03</pdfrwt>
<totfact> 0.91120319E+03</totfact>
</mgrwt>
</event>
<event>
 5    1  0.3235144E-002  0.1250030E+03  0.7818608E-02  0.1235065E+00
          4   -1    0    0  501    0  0.00000000000E+00  0.00000000000E+00  0.12348602821E+03  0.12349255873E+03  0.12700000000E+01 0. -1.
         -4   -1    0    0    0  501 -0.00000000000E+00 -0.00000000000E+00 -0.31614519255E+02  0.31640017821E+02  0.12700000000E+01 0. -1.
         25    2    1    2    0    0  0.00000000000E+00  0.00000000000E+00  0.91871508952E+02  0.15513257655E+03  0.12500296857E+03 0.  0.
    9000005    1    3    3    0    0 -0.28376471602E+02 -0.34964562657E+02 -0.78410154404E+01  0.45718992831E+02  0.10000000000E+01 0.  0.
    9000005    1    3    3    0    0  0.28376471602E+02  0.34964562657E+02  0.99712524392E+02  0.10941358372E+03  0.10000000000E+01 0.  0.
<mgrwt>
<rscale>  0 0.12500297E+03</rscale>
<asrwt>0</asrwt>
<pdfrwt beam="1">  1        4 0.19000314E-01 0.12500297E+03</pdfrwt>
<pdfrwt beam="2">  1       -4 0.48662360E-02 0.12500297E+03</pdfrwt>
<totfact> 0.98282917E+03</totfact>
</mgrwt>
</event>
<event>
 5    1  0.3235144E-002  0.1250021E+03  0.7818608E-02  0.1235066E+00
         -4   -1    0    0    0  501 -0.00000000000E+00  0.00000000000E+00  0.15802854357E+03  0.15803364668E+03  0.12700000000E+01 0. -1.
          4   -1    0    0  501    0  0.00000000000E+00 -0.00000000000E+00 -0.24697628411E+02  0.24730259787E+02  0.12700000000E+01 0. -1.
         25    2    1    2    0    0  0.00000000000E+00  0.00000000000E+00  0.13333091516E+03  0.18276390647E+03  0.12500205026E+03 0.  0.
    9000005    1    3    3    0    0 -0.28981454665E+02 -0.26875343291E+02  0.13743968464E+03  0.14301355077E+03  0.10000000000E+01 0.  0.
    9000005    1    3    3    0    0  0.28981454665E+02  0.26875343291E+02 -0.41087694739E+01  0.39750355698E+02  0.10000000000E+01 0.  0.
<mgrwt>
<rscale>  0 0.12500205E+03</rscale>
<asrwt>0</asrwt>
<pdfrwt beam="2">  1        4 0.38025378E-02 0.12500205E+03</pdfrwt>
<pdfrwt beam="1">  1       -4 0.24314986E-01 0.12500205E+03</pdfrwt>
<totfact> 0.93117564E+03</totfact>
</mgrwt>
</event>
<event>
 5    1  0.3235144E-002  0.1250037E+03  0.7818608E-02  0.1235064E+00
          4   -1    0    0  501    0  0.00000000000E+00  0.00000000000E+00  0.10390284922E+03  0.10391061051E+03  0.12700000000E+01 0.  1.
         -4   -1    0    0    0  501 -0.00000000000E+00 -0.00000000000E+00 -0.37577528962E+02  0.37598983801E+02  0.12700000000E+01 0.  1.
         25    2    1    2    0    0  0.00000000000E+00  0.00000000000E+00  0.66325320261E+02  0.14150959431E+03  0.12500366864E+03 0.  0.
    9000005    1    3    3    0    0  0.39736787695E+02 -0.30401030324E+02 -0.92284682293E+01  0.50886143172E+02  0.10000000000E+01 0.  0.
    9000005    1    3    3    0    0 -0.39736787695E+02  0.30401030324E+02  0.75553788490E+02  0.90623451139E+02  0.10000000000E+01 0.  0.
<mgrwt>
<rscale>  0 0.12500367E+03</rscale>
<asrwt>0</asrwt>
<pdfrwt beam="1">  1        4 0.15987301E-01 0.12500367E+03</pdfrwt>
<pdfrwt beam="2">  1       -4 0.57834058E-02 0.12500367E+03</pdfrwt>
<totfact> 0.10101559E+04</totfact>
</mgrwt>
</event>
<event>
 5    1  0.3235144E-002  0.1250045E+03  0.7818608E-02  0.1235062E+00
         -4   -1    0    0    0  501 -0.00000000000E+00  0.00000000000E+00  0.19656925700E+02  0.19697909229E+02  0.12700000000E+01 0. -1.
          4   -1    0    0  501    0  0.00000000000E+00 -0.00000000000E+00 -0.19848571490E+03  0.19848977787E+03  0.12700000000E+01 0. -1.
         25    2    1    2    0    0  0.00000000000E+00  0.00000000000E+00 -0.17882878920E+03  0.21818768710E+03  0.12500452374E+03 0.  0.
    9000005    1    3    3    0    0  0.51262104426E+02  0.24589642171E+02 -0.13469763457E+03  0.14620843549E+03  0.10000000000E+01 0.  0.
    9000005    1    3    3    0    0 -0.51262104426E+02 -0.24589642171E+02 -0.44131154634E+02  0.71979251605E+02  0.10000000000E+01 0.  0.
<mgrwt>
<rscale>  0 0.12500452E+03</rscale>
<asrwt>0</asrwt>
<pdfrwt beam="2">  1        4 0.30539728E-01 0.12500452E+03</pdfrwt>
<pdfrwt beam="1">  1       -4 0.30276077E-02 0.12500452E+03</pdfrwt>
<totfact> 0.87147132E+03</totfact>
</mgrwt>
</event>
<event>
 5    1  0.3235144E-002  0.1249825E+03  0.7818608E-02  0.1235097E+00
         -4   -1    0    0    0  501 -0.00000000000E+00  0.00000000000E+00  0.18712148150E+03  0.18712579122E+03  0.12700000000E+01 0. -1.
          4   -1    0    0  501    0  0.00000000000E+00 -0.00000000000E+00 -0.20845759907E+02  0.20884410600E+02  0.12700000000E+01 0. -1.
         25    2    1    2    0    0  0.00000000000E+00  0.00000000000E+00  0.16627572159E+03  0.20801020182E+03  0.12498251265E+03 0.  0.
    9000005    1    3    3    0    0 -0.20082284337E+02 -0.44935743337E+02  0.19074985107E+02  0.52795589117E+02  0.10000000000E+01 0.  0.
    9000005    1    3    3    0    0  0.20082284337E+02  0.44935743337E+02  0.14720073649E+03  0.15521461270E+03  0.10000000000E+01 0.  0.
<mgrwt>
<rscale>  0 0.12498251E+03</rscale>
<asrwt>0</asrwt>
<pdfrwt beam="2">  1        4 0.32103445E-02 0.12498251E+03</pdfrwt>
<pdfrwt beam="1">  1       -4 0.28791226E-01 0.12498251E+03</pdfrwt>
<totfact> 0.88836607E+03</totfact>
</mgrwt>
</event>
<event>
 5    1  0.3235144E-002  0.1250016E+03  0.7818608E-02  0.1235067E+00
          4   -1    0    0  501    0  0.00000000000E+00  0.00000000000E+00  0.26206506053E+02  0.26237260899E+02  0.12700000000E+01 0.  1.
         -4   -1    0    0    0  501 -0.00000000000E+00 -0.00000000000E+00 -0.14893934644E+03  0.14894476096E+03  0.12700000000E+01 0.  1.
         25    2    1    2    0    0  0.00000000000E+00  0.00000000000E+00 -0.12273284039E+03  0.17518202186E+03  0.12500156269E+03 0.  0.
    9000005    1    3    3    0    0 -0.35093467869E+02 -0.11982728560E+02 -0.13186046175E+03  0.13697926355E+03  0.10000000000E+01 0.  0.
    9000005    1    3    3    0    0  0.35093467869E+02  0.11982728560E+02  0.91276213605E+01  0.38202758310E+02  0.10000000000E+01 0.  0.
<mgrwt>
<rscale>  0 0.12500156E+03</rscale>
<asrwt>0</asrwt>
<pdfrwt beam="1">  1        4 0.40345525E-02 0.12500156E+03</pdfrwt>
<pdfrwt beam="2">  1       -4 0.22916527E-01 0.12500156E+03</pdfrwt>
<totfact> 0.94488202E+03</totfact>
</mgrwt>
</event>
<event>
 5    1  0.3235144E-002  0.1249996E+03  0.7818608E-02  0.1235070E+00
          4   -1    0    0  501    0  0.00000000000E+00  0.00000000000E+00  0.11027051381E+02  0.11099944242E+02  0.12700000000E+01 0. -1.
         -4   -1    0    0    0  501 -0.00000000000E+00 -0.00000000000E+00 -0.35299938903E+03  0.35300167358E+03  0.12700000000E+01 0. -1.
         25    2    1    2    0    0  0.00000000000E+00  0.00000000000E+00 -0.34197233764E+03  0.36410161783E+03  0.12499963355E+03 0.  0.
    9000005    1    3    3    0    0  0.12166419036E+02  0.15638417462E+01  0.75001552407E+01  0.14412483540E+02  0.10000000000E+01 0.  0.
    9000005    1    3    3    0    0 -0.12166419036E+02 -0.15638417462E+01 -0.34947249289E+03  0.34968913428E+03  0.10000000000E+01 0.  0.
<mgrwt>
<rscale>  0 0.12499963E+03</rscale>
<asrwt>0</asrwt>
<pdfrwt beam="1">  1        4 0.17022526E-02 0.12499963E+03</pdfrwt>
<pdfrwt beam="2">  1       -4 0.54313373E-01 0.12499963E+03</pdfrwt>
<totfact> 0.68201122E+03</totfact>
</mgrwt>
</event>
<event>
 5    1  0.3235144E-002  0.1250010E+03  0.7818608E-02  0.1235068E+00
          4   -1    0    0  501    0  0.00000000000E+00  0.00000000000E+00  0.14820750210E+03  0.14821294336E+03  0.12700000000E+01 0. -1.
         -4   -1    0    0    0  501 -0.00000000000E+00 -0.00000000000E+00 -0.26335828060E+02  0.26366432061E+02  0.12700000000E+01 0. -1.
         25    2    1    2    0    0  0.00000000000E+00  0.00000000000E+00  0.12187167404E+03  0.17457937542E+03  0.12500101355E+03 0.  0.
    9000005    1    3    3    0    0  0.58865043029E+02  0.11120860726E+02  0.85784222048E+02  0.10463603388E+03  0.10000000000E+01 0.  0.
    9000005    1    3    3    0    0 -0.58865043029E+02 -0.11120860726E+02  0.36087451991E+02  0.69943341537E+02  0.10000000000E+01 0.  0.
<mgrwt>
<rscale>  0 0.12500101E+03</rscale>
<asrwt>0</asrwt>
<pdfrwt beam="1">  1        4 0.22803927E-01 0.12500101E+03</pdfrwt>
<pdfrwt beam="2">  1       -4 0.40544386E-02 0.12500101E+03</pdfrwt>
<totfact> 0.94599782E+03</totfact>
</mgrwt>
</event>
<event>
 5    1  0.3235144E-002  0.1250008E+03  0.7818608E-02  0.1235068E+00
         -4   -1    0    0    0  501 -0.00000000000E+00  0.00000000000E+00  0.43262395926E+02  0.43281032812E+02  0.12700000000E+01 0.  1.
          4   -1    0    0  501    0  0.00000000000E+00 -0.00000000000E+00 -0.90250665768E+02  0.90259600994E+02  0.12700000000E+01 0.  1.
         25    2    1    2    0    0  0.00000000000E+00  0.00000000000E+00 -0.46988269842E+02  0.13354063381E+03  0.12500081350E+03 0.  0.
    9000005    1    3    3    0    0 -0.29498667307E+02 -0.59429850975E+01 -0.82006479007E+02  0.87358760545E+02  0.10000000000E+01 0.  0.
    9000005    1    3    3    0    0  0.29498667307E+02  0.59429850975E+01  0.35018209165E+02  0.46181873261E+02  0.10000000000E+01 0.  0.
<mgrwt>
<rscale>  0 0.12500081E+03</rscale>
<asrwt>0</asrwt>
<pdfrwt beam="2">  1        4 0.13886839E-01 0.12500081E+03</pdfrwt>
<pdfrwt beam="1">  1       -4 0.66578742E-02 0.12500081E+03</pdfrwt>
<totfact> 0.10268735E+04</totfact>
</mgrwt>
</event>
<event>
 5    1  0.3235144E-002  0.1250022E+03  0.7818608E-02  0.1235066E+00
         -4   -1    0    0    0  501 -0.00000000000E+00  0.00000000000E+00  0.10400948858E+02  0.10478198182E+02  0.12700000000E+01 0.  1.
          4   -1    0    0  501    0  0.00000000000E+00 -0.00000000000E+00 -0.37411170696E+03  0.37411386260E+03  0.12700000000E+01 0.  1.
         25    2    1    2    0    0  0.00000000000E+00  0.00000000000E+00 -0.36371075811E+03  0.38459206078E+03  0.12500215059E+03 0.  0.
    9000005    1    3    3    0    0  0.33313920993E+01 -0.51980163409E+02 -0.28809450740E+03  0.29276693931E+03  0.10000000000E+01 0.  0.
    9000005    1    3    3    0    0 -0.33313920993E+01  0.51980163409E+02 -0.75616250710E+02  0.91825121469E+02  0.10000000000E+01 0.  0.
<mgrwt>
<rscale>  0 0.12500215E+03</rscale>
<asrwt>0</asrwt>
<pdfrwt beam="2">  1        4 0.57561745E-01 0.12500215E+03</pdfrwt>
<pdfrwt beam="1">  1       -4 0.16062543E-02 0.12500215E+03</pdfrwt>
<totfact> 0.66076316E+03</totfact>
</mgrwt>
</event>
<event>
 5    1  0.3235144E-002  0.1249997E+03  0.7818608E-02  0.1235070E+00
          4   -1    0    0  501    0  0.00000000000E+00  0.00000000000E+00  0.49741481472E+02  0.49757691657E+02  0.12700000000E+01 0.  1.
         -4   -1    0    0    0  501 -0.00000000000E+00 -0.00000000000E+00 -0.78496512405E+02  0.78506785438E+02  0.12700000000E+01 0.  1.
         25    2    1    2    0    0  0.00000000000E+00  0.00000000000E+00 -0.28755030933E+02  0.12826447709E+03  0.12499969712E+03 0.  0.
    9000005    1    3    3    0    0 -0.40582403307E+02 -0.24249501658E+02 -0.56313770152E+02  0.73533737138E+02  0.10000000000E+01 0.  0.
    9000005    1    3    3    0    0  0.40582403307E+02  0.24249501658E+02  0.27558739219E+02  0.54730739956E+02  0.10000000000E+01 0.  0.
<mgrwt>
<rscale>  0 0.12499970E+03</rscale>
<asrwt>0</asrwt>
<pdfrwt beam="1">  1        4 0.76545728E-02 0.12499970E+03</pdfrwt>
<pdfrwt beam="2">  1       -4 0.12078424E-01 0.12499970E+03</pdfrwt>
<totfact> 0.10381851E+04</totfact>
</mgrwt>
</event>
<event>
 5    1  0.3235144E-002  0.1250004E+03  0.7818608E-02  0.1235069E+00
         -4   -1    0    0    0  501 -0.00000000000E+00  0.00000000000E+00  0.12198801318E+03  0.12199462390E+03  0.12700000000E+01 0. -1.
          4   -1    0    0  501    0  0.00000000000E+00 -0.00000000000E+00 -0.32001726129E+02  0.32026916418E+02  0.12700000000E+01 0. -1.
         25    2    1    2    0    0  0.00000000000E+00  0.00000000000E+00  0.89986287051E+02  0.15402154031E+03  0.12500041209E+03 0.  0.
    9000005    1    3    3    0    0  0.18663742366E+02 -0.28863382577E+02 -0.19314302581E+02  0.39439477901E+02  0.10000000000E+01 0.  0.
    9000005    1    3    3    0    0 -0.18663742366E+02  0.28863382577E+02  0.10930058963E+03  0.11458206241E+03  0.10000000000E+01 0.  0.
<mgrwt>
<rscale>  0 0.12500041E+03</rscale>
<asrwt>0</asrwt>
<pdfrwt beam="2">  1        4 0.49257887E-02 0.12500041E+03</pdfrwt>
<pdfrwt beam="1">  1       -4 0.18769833E-01 0.12500041E+03</pdfrwt>
<totfact> 0.98507012E+03</totfact>
</mgrwt>
</event>
<event>
 5    1  0.3235144E-002  0.1250000E+03  0.7818608E-02  0.1235069E+00
         -4   -1    0    0    0  501 -0.00000000000E+00  0.00000000000E+00  0.95298761333E+02  0.95307223292E+02  0.12700000000E+01 0.  1.
          4   -1    0    0  501    0  0.00000000000E+00 -0.00000000000E+00 -0.40969418323E+02  0.40989097791E+02  0.12700000000E+01 0.  1.
         25    2    1    2    0    0  0.00000000000E+00  0.00000000000E+00  0.54329343010E+02  0.13629632108E+03  0.12500003851E+03 0.  0.
    9000005    1    3    3    0    0  0.41802106096E+02  0.31750197097E+02  0.64137087704E+02  0.82885807644E+02  0.10000000000E+01 0.  0.
    9000005    1    3    3    0    0 -0.41802106096E+02 -0.31750197097E+02 -0.98077446938E+01  0.53410513438E+02  0.10000000000E+01 0.  0.
<mgrwt>
<rscale>  0 0.12500004E+03</rscale>
<asrwt>0</asrwt>
<pdfrwt beam="2">  1        4 0.63051522E-02 0.12500004E+03</pdfrwt>
<pdfrwt beam="1">  1       -4 0.14663512E-01 0.12500004E+03</pdfrwt>
<totfact> 0.10210811E+04</totfact>
</mgrwt>
</event>
<event>
 5    1  0.3235144E-002  0.1250009E+03  0.7818608E-02  0.1235068E+00
         -4   -1    0    0    0  501 -0.00000000000E+00  0.00000000000E+00  0.70759439776E+03  0.70759553747E+03  0.12700000000E+01 0.  1.
          4   -1    0    0  501    0  0.00000000000E+00 -0.00000000000E+00 -0.54463425356E+01  0.55924544714E+01  0.12700000000E+01 0.  1.
         25    2    1    2    0    0  0.00000000000E+00  0.00000000000E+00  0.70214805522E+03  0.71318799194E+03  0.12500088155E+03 0.  0.
    9000005    1    3    3    0    0 -0.25040545917E+02 -0.53839672003E+02  0.23991761379E+03  0.24715825017E+03  0.10000000000E+01 0.  0.
    9000005    1    3    3    0    0  0.25040545917E+02  0.53839672003E+02  0.46223044144E+03  0.46602974177E+03  0.10000000000E+01 0.  0.
<mgrwt>
<rscale>  0 0.12500088E+03</rscale>
<asrwt>0</asrwt>
<pdfrwt beam="2">  1        4 0.84922672E-03 0.12500088E+03</pdfrwt>
<pdfrwt beam="1">  1       -4 0.10887190E+00 0.12500088E+03</pdfrwt>
<totfact> 0.42398821E+03</totfact>
</mgrwt>
</event>
<event>
 5    1  0.3235144E-002  0.1249922E+03  0.7818608E-02  0.1235082E+00
          4   -1    0    0  501    0  0.00000000000E+00  0.00000000000E+00  0.19317445380E+02  0.19359147605E+02  0.12700000000E+01 0. -1.
         -4   -1    0    0    0  501 -0.00000000000E+00 -0.00000000000E+00 -0.20192652270E+03  0.20193051644E+03  0.12700000000E+01 0. -1.
         25    2    1    2    0    0  0.00000000000E+00  0.00000000000E+00 -0.18260907732E+03  0.22128966404E+03  0.12499216093E+03 0.  0.
    9000005    1    3    3    0    0  0.19944127030E+02 -0.27953341598E+02  0.11247514625E+01  0.34371828222E+02  0.10000000000E+01 0.  0.
    9000005    1    3    3    0    0 -0.19944127030E+02  0.27953341598E+02 -0.18373382878E+03  0.18691783582E+03  0.10000000000E+01 0.  0.
<mgrwt>
<rscale>  0 0.12499216E+03</rscale>
<asrwt>0</asrwt>
<pdfrwt beam="1">  1        4 0.29754299E-02 0.12499216E+03</pdfrwt>
<pdfrwt beam="2">  1       -4 0.31069133E-01 0.12499216E+03</pdfrwt>
<totfact> 0.86679863E+03</totfact>
</mgrwt>
</event>
<event>
 5    1  0.3235144E-002  0.1250008E+03  0.7818608E-02  0.1235068E+00
         -4   -1    0    0    0  501 -0.00000000000E+00  0.00000000000E+00  0.66443345560E+01  0.67646198483E+01  0.12700000000E+01 0. -1.
          4   -1    0    0  501    0  0.00000000000E+00 -0.00000000000E+00 -0.58251944247E+03  0.58252082689E+03  0.12700000000E+01 0. -1.
         25    2    1    2    0    0  0.00000000000E+00  0.00000000000E+00 -0.57587510792E+03  0.58928544674E+03  0.12500079127E+03 0.  0.
    9000005    1    3    3    0    0  0.25936455457E+02  0.16386423788E+02 -0.54459760082E+03  0.54546197065E+03  0.10000000000E+01 0.  0.
    9000005    1    3    3    0    0 -0.25936455457E+02 -0.16386423788E+02 -0.31277507099E+02  0.43823476090E+02  0.10000000000E+01 0.  0.
<mgrwt>
<rscale>  0 0.12500079E+03</rscale>
<asrwt>0</asrwt>
<pdfrwt beam="2">  1        4 0.89627695E-01 0.12500079E+03</pdfrwt>
<pdfrwt beam="1">  1       -4 0.10315650E-02 0.12500079E+03</pdfrwt>
<totfact> 0.49550161E+03</totfact>
</mgrwt>
</event>
<event>
 5    1  0.3235144E-002  0.1250013E+03  0.7818608E-02  0.1235067E+00
         -4   -1    0    0    0  501 -0.00000000000E+00  0.00000000000E+00  0.43140809392E+03  0.43140996326E+03  0.12700000000E+01 0. -1.
          4   -1    0    0  501    0  0.00000000000E+00 -0.00000000000E+00 -0.90084150894E+01  0.90974964920E+01  0.12700000000E+01 0. -1.
         25    2    1    2    0    0  0.00000000000E+00  0.00000000000E+00  0.42239967883E+03  0.44050745976E+03  0.12500133368E+03 0.  0.
    9000005    1    3    3    0    0 -0.14140398806E+02  0.55444710411E+02  0.29974096001E+03  0.30515522263E+03  0.10000000000E+01 0.  0.
    9000005    1    3    3    0    0  0.14140398806E+02 -0.55444710411E+02  0.12265871882E+03  0.13535223712E+03  0.10000000000E+01 0.  0.
<mgrwt>
<rscale>  0 0.12500133E+03</rscale>
<asrwt>0</asrwt>
<pdfrwt beam="2">  1        4 0.13929063E-02 0.12500133E+03</pdfrwt>
<pdfrwt beam="1">  1       -4 0.66377471E-01 0.12500133E+03</pdfrwt>
<totfact> 0.60793179E+03</totfact>
</mgrwt>
</event>
<event>
 5    1  0.3235144E-002  0.1250139E+03  0.7818608E-02  0.1235048E+00
          4   -1    0    0  501    0  0.00000000000E+00  0.00000000000E+00  0.82748986254E+02  0.82758731419E+02  0.12700000000E+01 0. -1.
         -4   -1    0    0    0  501 -0.00000000000E+00 -0.00000000000E+00 -0.47195467424E+02  0.47212551778E+02  0.12700000000E+01 0. -1.
         25    2    1    2    0    0  0.00000000000E+00  0.00000000000E+00  0.35553518830E+02  0.12997128320E+03  0.12501392624E+03 0.  0.
    9000005    1    3    3    0    0 -0.34741729889E+02 -0.51753252962E+02  0.13042796982E+02  0.63690670753E+02  0.10000000000E+01 0.  0.
    9000005    1    3    3    0    0  0.34741729889E+02  0.51753252962E+02  0.22510721848E+02  0.66280612444E+02  0.10000000000E+01 0.  0.
<mgrwt>
<rscale>  0 0.12501393E+03</rscale>
<asrwt>0</asrwt>
<pdfrwt beam="1">  1        4 0.12732677E-01 0.12501393E+03</pdfrwt>
<pdfrwt beam="2">  1       -4 0.72629050E-02 0.12501393E+03</pdfrwt>
<totfact> 0.10341871E+04</totfact>
</mgrwt>
</event>
<event>
 5    1  0.3235144E-002  0.1249981E+03  0.7818608E-02  0.1235072E+00
          4   -1    0    0  501    0  0.00000000000E+00  0.00000000000E+00  0.30570347162E+03  0.30570610962E+03  0.12700000000E+01 0. -1.
         -4   -1    0    0    0  501 -0.00000000000E+00 -0.00000000000E+00 -0.12743262704E+02  0.12806390762E+02  0.12700000000E+01 0. -1.
         25    2    1    2    0    0  0.00000000000E+00  0.00000000000E+00  0.29296020891E+03  0.31851250038E+03  0.12499811556E+03 0.  0.
    9000005    1    3    3    0    0 -0.20974809247E+02  0.44585211542E+01  0.29604760735E+03  0.29682487573E+03  0.10000000000E+01 0.  0.
    9000005    1    3    3    0    0  0.20974809247E+02 -0.44585211542E+01 -0.30873984397E+01  0.21687624650E+02  0.10000000000E+01 0.  0.
<mgrwt>
<rscale>  0 0.12499812E+03</rscale>
<asrwt>0</asrwt>
<pdfrwt beam="1">  1        4 0.47036361E-01 0.12499812E+03</pdfrwt>
<pdfrwt beam="2">  1       -4 0.19655609E-02 0.12499812E+03</pdfrwt>
<totfact> 0.73336456E+03</totfact>
</mgrwt>
</event>
<event>
 5    1  0.3235144E-002  0.1250008E+03  0.7818608E-02  0.1235068E+00
          4   -1    0    0  501    0  0.00000000000E+00  0.00000000000E+00  0.13902656392E+02  0.13960542782E+02  0.12700000000E+01 0. -1.
         -4   -1    0    0    0  501 -0.00000000000E+00 -0.00000000000E+00 -0.28033184031E+03  0.28033471706E+03  0.12700000000E+01 0. -1.
         25    2    1    2    0    0  0.00000000000E+00  0.00000000000E+00 -0.26642918392E+03  0.29429525985E+03  0.12500075970E+03 0.  0.
    9000005    1    3    3    0    0  0.41988059223E+02 -0.46274342061E+02 -0.13555196335E+03  0.14926368151E+03  0.10000000000E+01 0.  0.
    9000005    1    3    3    0    0 -0.41988059223E+02  0.46274342061E+02 -0.13087722057E+03  0.14503157834E+03  0.10000000000E+01 0.  0.
<mgrwt>
<rscale>  0 0.12500076E+03</rscale>
<asrwt>0</asrwt>
<pdfrwt beam="1">  1        4 0.21435445E-02 0.12500076E+03</pdfrwt>
<pdfrwt beam="2">  1       -4 0.43132645E-01 0.12500076E+03</pdfrwt>
<totfact> 0.76318763E+03</totfact>
</mgrwt>
</event>
<event>
 5    1  0.3235144E-002  0.1250046E+03  0.7818608E-02  0.1235062E+00
          4   -1    0    0  501    0  0.00000000000E+00  0.00000000000E+00  0.88970231740E+02  0.88979295546E+02  0.12700000000E+01 0. -1.
         -4   -1    0    0    0  501 -0.00000000000E+00 -0.00000000000E+00 -0.43887891702E+02  0.43906263085E+02  0.12700000000E+01 0. -1.
         25    2    1    2    0    0  0.00000000000E+00  0.00000000000E+00  0.45082340038E+02  0.13288555863E+03  0.12500461715E+03 0.  0.
    9000005    1    3    3    0    0 -0.13239934214E+00 -0.21983736879E+01  0.88934178814E+02  0.88967064343E+02  0.10000000000E+01 0.  0.
    9000005    1    3    3    0    0  0.13239934214E+00  0.21983736879E+01 -0.43851838777E+02  0.43918494288E+02  0.10000000000E+01 0.  0.
<mgrwt>
<rscale>  0 0.12500462E+03</rscale>
<asrwt>0</asrwt>
<pdfrwt beam="1">  1        4 0.13689838E-01 0.12500462E+03</pdfrwt>
<pdfrwt beam="2">  1       -4 0.67540938E-02 0.12500462E+03</pdfrwt>
<totfact> 0.10281762E+04</totfact>
</mgrwt>
</event>
<event>
 5    1  0.3235144E-002  0.1250003E+03  0.7818608E-02  0.1235069E+00
          4   -1    0    0  501    0  0.00000000000E+00  0.00000000000E+00  0.10275091221E+04  0.10275099070E+04  0.12700000000E+01 0.  1.
         -4   -1    0    0    0  501 -0.00000000000E+00 -0.00000000000E+00 -0.36948129812E+01  0.39069864302E+01  0.12700000000E+01 0.  1.
         25    2    1    2    0    0  0.00000000000E+00  0.00000000000E+00  0.10238143091E+04  0.10314168934E+04  0.12500027365E+03 0.  0.
    9000005    1    3    3    0    0  0.30421624362E+02  0.50330434388E+02  0.33752512871E+03  0.34261179250E+03  0.10000000000E+01 0.  0.
    9000005    1    3    3    0    0 -0.30421624362E+02 -0.50330434388E+02  0.68628918044E+03  0.68880510091E+03  0.10000000000E+01 0.  0.
<mgrwt>
<rscale>  0 0.12500027E+03</rscale>
<asrwt>0</asrwt>
<pdfrwt beam="1">  1        4 0.15809466E+00 0.12500027E+03</pdfrwt>
<pdfrwt beam="2">  1       -4 0.58481435E-03 0.12500027E+03</pdfrwt>
<totfact> 0.29582003E+03</totfact>
</mgrwt>
</event>
<event>
 5    1  0.3235144E-002  0.1250148E+03  0.7818608E-02  0.1235046E+00
          4   -1    0    0  501    0  0.00000000000E+00  0.00000000000E+00  0.33639344480E+02  0.33663309360E+02  0.12700000000E+01 0.  1.
         -4   -1    0    0    0  501 -0.00000000000E+00 -0.00000000000E+00 -0.11608025291E+03  0.11608720005E+03  0.12700000000E+01 0.  1.
         25    2    1    2    0    0  0.00000000000E+00  0.00000000000E+00 -0.82440908433E+02  0.14975050941E+03  0.12501484586E+03 0.  0.
    9000005    1    3    3    0    0  0.46055039755E+01  0.59528698484E+02 -0.19090745516E+02  0.62692369348E+02  0.10000000000E+01 0.  0.
    9000005    1    3    3    0    0 -0.46055039755E+01 -0.59528698484E+02 -0.63350162917E+02  0.87058140065E+02  0.10000000000E+01 0.  0.
<mgrwt>
<rscale>  0 0.12501485E+03</rscale>
<asrwt>0</asrwt>
<pdfrwt beam="1">  1        4 0.51776617E-02 0.12501485E+03</pdfrwt>
<pdfrwt beam="2">  1       -4 0.17860878E-01 0.12501485E+03</pdfrwt>
<totfact> 0.99320264E+03</totfact>
</mgrwt>
</event>
<event>
 5    1  0.3235144E-002  0.1250111E+03  0.7818608E-02  0.1235052E+00
         -4   -1    0    0    0  501 -0.00000000000E+00  0.00000000000E+00  0.55749647906E+03  0.55749792561E+03  0.12700000000E+01 0. -1.
          4   -1    0    0  501    0  0.00000000000E+00 -0.00000000000E+00 -0.69490111050E+01  0.70641103713E+01  0.12700000000E+01 0. -1.
         25    2    1    2    0    0  0.00000000000E+00  0.00000000000E+00  0.55054746795E+03  0.56456203598E+03  0.12501111152E+03 0.  0.
    9000005    1    3    3    0    0 -0.19419487040E+02 -0.59282421545E+02  0.29242450420E+03  0.29900604114E+03  0.10000000000E+01 0.  0.
    9000005    1    3    3    0    0  0.19419487040E+02  0.59282421545E+02  0.25812296375E+03  0.26555599484E+03  0.10000000000E+01 0.  0.
<mgrwt>
<rscale>  0 0.12501111E+03</rscale>
<asrwt>0</asrwt>
<pdfrwt beam="2">  1        4 0.10780440E-02 0.12501111E+03</pdfrwt>
<pdfrwt beam="1">  1       -4 0.85777626E-01 0.12501111E+03</pdfrwt>
<totfact> 0.51171323E+03</totfact>
</mgrwt>
</event>
<event>
 5    1  0.3235144E-002  0.1250030E+03  0.7818608E-02  0.1235065E+00
          4   -1    0    0  501    0  0.00000000000E+00  0.00000000000E+00  0.56799044578E+03  0.56799186561E+03  0.12700000000E+01 0. -1.
         -4   -1    0    0    0  501 -0.00000000000E+00 -0.00000000000E+00 -0.68175766244E+01  0.69348576791E+01  0.12700000000E+01 0. -1.
         25    2    1    2    0    0  0.00000000000E+00  0.00000000000E+00  0.56117286916E+03  0.57492672329E+03  0.12500299226E+03 0.  0.
    9000005    1    3    3    0    0  0.57347900366E+02 -0.16757754359E+02  0.36487211132E+03  0.36973268942E+03  0.10000000000E+01 0.  0.
    9000005    1    3    3    0    0 -0.57347900366E+02  0.16757754359E+02  0.19630075784E+03  0.20519403387E+03  0.10000000000E+01 0.  0.
<mgrwt>
<rscale>  0 0.12500299E+03</rscale>
<asrwt>0</asrwt>
<pdfrwt beam="1">  1        4 0.87392283E-01 0.12500299E+03</pdfrwt>
<pdfrwt beam="2">  1       -4 0.10579887E-02 0.12500299E+03</pdfrwt>
<totfact> 0.50486229E+03</totfact>
</mgrwt>
</event>
<event>
 5    1  0.3235144E-002  0.1250224E+03  0.7818608E-02  0.1235034E+00
         -4   -1    0    0    0  501 -0.00000000000E+00  0.00000000000E+00  0.10810569868E+02  0.10884912534E+02  0.12700000000E+01 0.  1.
          4   -1    0    0  501    0  0.00000000000E+00 -0.00000000000E+00 -0.36015175255E+03  0.36015399174E+03  0.12700000000E+01 0.  1.
         25    2    1    2    0    0  0.00000000000E+00  0.00000000000E+00 -0.34934118268E+03  0.37103890427E+03  0.12502242425E+03 0.  0.
    9000005    1    3    3    0    0 -0.10182125684E+02 -0.61324609045E+02 -0.15537585540E+03  0.16735303941E+03  0.10000000000E+01 0.  0.
    9000005    1    3    3    0    0  0.10182125684E+02  0.61324609045E+02 -0.19396532729E+03  0.20368586487E+03  0.10000000000E+01 0.  0.
<mgrwt>
<rscale>  0 0.12502242E+03</rscale>
<asrwt>0</asrwt>
<pdfrwt beam="2">  1        4 0.55413844E-01 0.12502242E+03</pdfrwt>
<pdfrwt beam="1">  1       -4 0.16690558E-02 0.12502242E+03</pdfrwt>
<totfact> 0.67436956E+03</totfact>
</mgrwt>
</event>
<event>
 5    1  0.3235144E-002  0.1249987E+03  0.7818608E-02  0.1235071E+00
         -4   -1    0    0    0  501 -0.00000000000E+00  0.00000000000E+00  0.27307275695E+03  0.27307571018E+03  0.12700000000E+01 0. -1.
          4   -1    0    0  501    0  0.00000000000E+00 -0.00000000000E+00 -0.14273276211E+02  0.14329665516E+02  0.12700000000E+01 0. -1.
         25    2    1    2    0    0  0.00000000000E+00  0.00000000000E+00  0.25879948074E+03  0.28740537569E+03  0.12499871498E+03 0.  0.
    9000005    1    3    3    0    0 -0.35579020324E+02 -0.19944692168E+02  0.23825762667E+03  0.24172578286E+03  0.10000000000E+01 0.  0.
    9000005    1    3    3    0    0  0.35579020324E+02  0.19944692168E+02  0.20541854071E+02  0.45679592835E+02  0.10000000000E+01 0.  0.
<mgrwt>
<rscale>  0 0.12499871E+03</rscale>
<asrwt>0</asrwt>
<pdfrwt beam="2">  1        4 0.22004534E-02 0.12499871E+03</pdfrwt>
<pdfrwt beam="1">  1       -4 0.42015760E-01 0.12499871E+03</pdfrwt>
<totfact> 0.77208543E+03</totfact>
</mgrwt>
</event>
<event>
 5    1  0.3235144E-002  0.1249963E+03  0.7818608E-02  0.1235075E+00
         -4   -1    0    0    0  501 -0.00000000000E+00  0.00000000000E+00  0.22413765696E+03  0.22414125494E+03  0.12700000000E+01 0. -1.
          4   -1    0    0  501    0  0.00000000000E+00 -0.00000000000E+00 -0.17400000820E+02  0.17446286956E+02  0.12700000000E+01 0. -1.
         25    2    1    2    0    0  0.00000000000E+00  0.00000000000E+00  0.20673765614E+03  0.24158754190E+03  0.12499632769E+03 0.  0.
    9000005    1    3    3    0    0  0.41355915099E+02 -0.42160854913E+02  0.63892715430E+02  0.87012231816E+02  0.10000000000E+01 0.  0.
    9000005    1    3    3    0    0 -0.41355915099E+02  0.42160854913E+02  0.14284494071E+03  0.15457531008E+03  0.10000000000E+01 0.  0.
<mgrwt>
<rscale>  0 0.12499633E+03</rscale>
<asrwt>0</asrwt>
<pdfrwt beam="2">  1        4 0.26807605E-02 0.12499633E+03</pdfrwt>
<pdfrwt beam="1">  1       -4 0.34486553E-01 0.12499633E+03</pdfrwt>
<totfact> 0.83568338E+03</totfact>
</mgrwt>
</event>
<event>
 5    1  0.3235144E-002  0.1249912E+03  0.7818608E-02  0.1235083E+00
          4   -1    0    0  501    0  0.00000000000E+00  0.00000000000E+00  0.12578550963E+03  0.12579192077E+03  0.12700000000E+01 0.  1.
         -4   -1    0    0    0  501 -0.00000000000E+00 -0.00000000000E+00 -0.31030305764E+02  0.31056283999E+02  0.12700000000E+01 0.  1.
         25    2    1    2    0    0  0.00000000000E+00  0.00000000000E+00  0.94755203863E+02  0.15684820477E+03  0.12499124242E+03 0.  0.
    9000005    1    3    3    0    0  0.22213722526E+02  0.44680016114E+02  0.17451336033E+00  0.49907752537E+02  0.10000000000E+01 0.  0.
    9000005    1    3    3    0    0 -0.22213722526E+02 -0.44680016114E+02  0.94580690502E+02  0.10694045224E+03  0.10000000000E+01 0.  0.
<mgrwt>
<rscale>  0 0.12499124E+03</rscale>
<asrwt>0</asrwt>
<pdfrwt beam="1">  1        4 0.19354108E-01 0.12499124E+03</pdfrwt>
<pdfrwt beam="2">  1       -4 0.47763847E-02 0.12499124E+03</pdfrwt>
<totfact> 0.97973181E+03</totfact>
</mgrwt>
</event>
<event>
 5    1  0.3235144E-002  0.1250003E+03  0.7818608E-02  0.1235069E+00
         -4   -1    0    0    0  501 -0.00000000000E+00  0.00000000000E+00  0.32263084511E+02  0.32288070895E+02  0.12700000000E+01 0.  1.
          4   -1    0    0  501    0  0.00000000000E+00 -0.00000000000E+00 -0.12100020801E+03  0.12100687270E+03  0.12700000000E+01 0.  1.
         25    2    1    2    0    0  0.00000000000E+00  0.00000000000E+00 -0.88737123504E+02  0.15329494359E+03  0.12500025057E+03 0.  0.
    9000005    1    3    3    0    0  0.34680896131E+02  0.48318994975E+02 -0.67887003195E+02  0.90261481456E+02  0.10000000000E+01 0.  0.
    9000005    1    3    3    0    0 -0.34680896131E+02 -0.48318994975E+02 -0.20850120309E+02  0.63033462135E+02  0.10000000000E+01 0.  0.
<mgrwt>
<rscale>  0 0.12500025E+03</rscale>
<asrwt>0</asrwt>
<pdfrwt beam="2">  1        4 0.18617851E-01 0.12500025E+03</pdfrwt>
<pdfrwt beam="1">  1       -4 0.49659862E-02 0.12500025E+03</pdfrwt>
<totfact> 0.98650353E+03</totfact>
</mgrwt>
</event>
<event>
 5    1  0.3235144E-002  0.1250006E+03  0.7818608E-02  0.1235068E+00
         -4   -1    0    0    0  501 -0.00000000000E+00  0.00000000000E+00  0.26481833712E+03  0.26482138240E+03  0.12700000000E+01 0. -1.
          4   -1    0    0  501    0  0.00000000000E+00 -0.00000000000E+00 -0.14720343514E+02  0.14775026672E+02  0.12700000000E+01 0. -1.
         25    2    1    2    0    0  0.00000000000E+00  0.00000000000E+00  0.25009799361E+03  0.27959640907E+03  0.12500058223E+03 0.  0.
    9000005    1    3    3    0    0  0.11465835116E+02 -0.11286630382E+01 -0.12335235340E+02  0.16908497451E+02  0.10000000000E+01 0.  0.
    9000005    1    3    3    0    0 -0.11465835116E+02  0.11286630382E+01  0.26243322895E+03  0.26268791162E+03  0.10000000000E+01 0.  0.
<mgrwt>
<rscale>  0 0.12500058E+03</rscale>
<asrwt>0</asrwt>
<pdfrwt beam="2">  1        4 0.22691091E-02 0.12500058E+03</pdfrwt>
<pdfrwt beam="1">  1       -4 0.40745720E-01 0.12500058E+03</pdfrwt>
<totfact> 0.78230638E+03</totfact>
</mgrwt>
</event>
<event>
 5    1  0.3235144E-002  0.1250007E+03  0.7818608E-02  0.1235068E+00
         -4   -1    0    0    0  501 -0.00000000000E+00  0.00000000000E+00  0.86996596819E+01  0.87918700275E+01  0.12700000000E+01 0. -1.
          4   -1    0    0  501    0  0.00000000000E+00 -0.00000000000E+00 -0.44655681153E+03  0.44655861745E+03  0.12700000000E+01 0. -1.
         25    2    1    2    0    0  0.00000000000E+00  0.00000000000E+00 -0.43785715184E+03  0.45535048748E+03  0.12500072410E+03 0.  0.
    9000005    1    3    3    0    0  0.17015415688E+02 -0.40406319165E+02 -0.56708121934E+02  0.71686861368E+02  0.10000000000E+01 0.  0.
    9000005    1    3    3    0    0 -0.17015415688E+02  0.40406319165E+02 -0.38114902991E+03  0.38366362611E+03  0.10000000000E+01 0.  0.
<mgrwt>
<rscale>  0 0.12500072E+03</rscale>
<asrwt>0</asrwt>
<pdfrwt beam="2">  1        4 0.68708262E-01 0.12500072E+03</pdfrwt>
<pdfrwt beam="1">  1       -4 0.13456415E-02 0.12500072E+03</pdfrwt>
<totfact> 0.59502128E+03</totfact>
</mgrwt>
</event>
<event>
 5    1  0.3235144E-002  0.1250036E+03  0.7818608E-02  0.1235064E+00
          4   -1    0    0  501    0  0.00000000000E+00  0.00000000000E+00  0.37382775164E+03  0.37382990891E+03  0.12700000000E+01 0.  1.
         -4   -1    0    0    0  501 -0.00000000000E+00 -0.00000000000E+00 -0.10409158350E+02  0.10486347198E+02  0.12700000000E+01 0.  1.
         25    2    1    2    0    0  0.00000000000E+00  0.00000000000E+00  0.36341859329E+03  0.38431625611E+03  0.12500364299E+03 0.  0.
    9000005    1    3    3    0    0 -0.51319689134E+02  0.42414191556E+00  0.29134176092E+03  0.29582919404E+03  0.10000000000E+01 0.  0.
    9000005    1    3    3    0    0  0.51319689134E+02 -0.42414191556E+00  0.72076832366E+02  0.88487062066E+02  0.10000000000E+01 0.  0.
<mgrwt>
<rscale>  0 0.12500364E+03</rscale>
<asrwt>0</asrwt>
<pdfrwt beam="1">  1        4 0.57518067E-01 0.12500364E+03</pdfrwt>
<pdfrwt beam="2">  1       -4 0.16075125E-02 0.12500364E+03</pdfrwt>
<totfact> 0.66101977E+03</totfact>
</mgrwt>
</event>
<event>
 5    1  0.3235144E-002  0.1249994E+03  0.7818608E-02  0.1235070E+00
          4   -1    0    0  501    0  0.00000000000E+00  0.00000000000E+00  0.64310742070E+02  0.64323280743E+02  0.12700000000E+01 0. -1.
         -4   -1    0    0    0  501 -0.00000000000E+00 -0.00000000000E+00 -0.60714545021E+02  0.60727826217E+02  0.12700000000E+01 0. -1.
         25    2    1    2    0    0  0.00000000000E+00  0.00000000000E+00  0.35961970490E+01  0.12505110696E+03  0.12499938687E+03 0.  0.
    9000005    1    3    3    0    0 -0.38589450541E+02  0.73643501094E+01 -0.46820696347E+02  0.61127382997E+02  0.10000000000E+01 0.  0.
    9000005    1    3    3    0    0  0.38589450541E+02 -0.73643501094E+01  0.50416893396E+02  0.63923723963E+02  0.10000000000E+01 0.  0.
<mgrwt>
<rscale>  0 0.12499939E+03</rscale>
<asrwt>0</asrwt>
<pdfrwt beam="1">  1        4 0.98959465E-02 0.12499939E+03</pdfrwt>
<pdfrwt beam="2">  1       -4 0.93426854E-02 0.12499939E+03</pdfrwt>
<totfact> 0.10451897E+04</totfact>
</mgrwt>
</event>
<event>
 5    1  0.3235144E-002  0.1250045E+03  0.7818608E-02  0.1235062E+00
          4   -1    0    0  501    0  0.00000000000E+00  0.00000000000E+00  0.70493807722E+01  0.71628673918E+01  0.12700000000E+01 0.  1.
         -4   -1    0    0    0  501 -0.00000000000E+00 -0.00000000000E+00 -0.54962707046E+03  0.54962853772E+03  0.12700000000E+01 0.  1.
         25    2    1    2    0    0  0.00000000000E+00  0.00000000000E+00 -0.54257768968E+03  0.55679140511E+03  0.12500447778E+03 0.  0.
    9000005    1    3    3    0    0 -0.28723274422E+02  0.23669242000E+02 -0.49489848264E+03  0.49629705584E+03  0.10000000000E+01 0.  0.
    9000005    1    3    3    0    0  0.28723274422E+02 -0.23669242000E+02 -0.47679207043E+02  0.60494349279E+02  0.10000000000E+01 0.  0.
<mgrwt>
<rscale>  0 0.12500448E+03</rscale>
<asrwt>0</asrwt>
<pdfrwt beam="1">  1        4 0.10933632E-02 0.12500448E+03</pdfrwt>
<pdfrwt beam="2">  1       -4 0.84566820E-01 0.12500448E+03</pdfrwt>
<totfact> 0.51708752E+03</totfact>
</mgrwt>
</event>
<event>
 5    1  0.3235144E-002  0.1249992E+03  0.7818608E-02  0.1235071E+00
          4   -1    0    0  501    0  0.00000000000E+00  0.00000000000E+00  0.14534074696E+03  0.14534629554E+03  0.12700000000E+01 0.  1.
         -4   -1    0    0    0  501 -0.00000000000E+00 -0.00000000000E+00 -0.26855064725E+02  0.26885077671E+02  0.12700000000E+01 0.  1.
         25    2    1    2    0    0  0.00000000000E+00  0.00000000000E+00  0.11848568224E+03  0.17223137321E+03  0.12499915609E+03 0.  0.
    9000005    1    3    3    0    0 -0.59153872403E+02  0.66559665962E+01  0.33037592207E+02  0.68087921179E+02  0.10000000000E+01 0.  0.
    9000005    1    3    3    0    0  0.59153872403E+02 -0.66559665962E+01  0.85448090032E+02  0.10414345203E+03  0.10000000000E+01 0.  0.
<mgrwt>
<rscale>  0 0.12499916E+03</rscale>
<asrwt>0</asrwt>
<pdfrwt beam="1">  1        4 0.22362851E-01 0.12499916E+03</pdfrwt>
<pdfrwt beam="2">  1       -4 0.41342839E-02 0.12499916E+03</pdfrwt>
<totfact> 0.95036167E+03</totfact>
</mgrwt>
</event>
<event>
 5    1  0.3235144E-002  0.1249861E+03  0.7818608E-02  0.1235091E+00
          4   -1    0    0  501    0  0.00000000000E+00  0.00000000000E+00  0.18376295037E+03  0.18376733886E+03  0.12700000000E+01 0. -1.
         -4   -1    0    0    0  501 -0.00000000000E+00 -0.00000000000E+00 -0.21228659241E+02  0.21266614050E+02  0.12700000000E+01 0. -1.
         25    2    1    2    0    0  0.00000000000E+00  0.00000000000E+00  0.16253429113E+03  0.20503395291E+03  0.12498610343E+03 0.  0.
    9000005    1    3    3    0    0 -0.15646182301E+02 -0.47755691304E+02  0.20349676809E+02  0.54226547177E+02  0.10000000000E+01 0.  0.
    9000005    1    3    3    0    0  0.15646182301E+02  0.47755691304E+02  0.14218461432E+03  0.15080740573E+03  0.10000000000E+01 0.  0.
<mgrwt>
<rscale>  0 0.12498610E+03</rscale>
<asrwt>0</asrwt>
<pdfrwt beam="1">  1        4 0.28274480E-01 0.12498610E+03</pdfrwt>
<pdfrwt beam="2">  1       -4 0.32692048E-02 0.12498610E+03</pdfrwt>
<totfact> 0.89321138E+03</totfact>
</mgrwt>
</event>
<event>
 5    1  0.3235144E-002  0.1250015E+03  0.7818608E-02  0.1235067E+00
          4   -1    0    0  501    0  0.00000000000E+00  0.00000000000E+00  0.12206516675E+02  0.12272406012E+02  0.12700000000E+01 0.  1.
         -4   -1    0    0    0  501 -0.00000000000E+00 -0.00000000000E+00 -0.31909243591E+03  0.31909496323E+03  0.12700000000E+01 0.  1.
         25    2    1    2    0    0  0.00000000000E+00  0.00000000000E+00 -0.30688591924E+03  0.33136736924E+03  0.12500146387E+03 0.  0.
    9000005    1    3    3    0    0 -0.26188069493E+02 -0.11443637266E+02 -0.30076690551E+03  0.30212332460E+03  0.10000000000E+01 0.  0.
    9000005    1    3    3    0    0  0.26188069493E+02  0.11443637266E+02 -0.61190137250E+01  0.29244044635E+02  0.10000000000E+01 0.  0.
<mgrwt>
<rscale>  0 0.12500146E+03</rscale>
<asrwt>0</asrwt>
<pdfrwt beam="1">  1        4 0.18831887E-02 0.12500146E+03</pdfrwt>
<pdfrwt beam="2">  1       -4 0.49096400E-01 0.12500146E+03</pdfrwt>
<totfact> 0.71821891E+03</totfact>
</mgrwt>
</event>
<event>
 5    1  0.3235144E-002  0.1249999E+03  0.7818608E-02  0.1235069E+00
         -4   -1    0    0    0  501 -0.00000000000E+00  0.00000000000E+00  0.34796067919E+02  0.34819236674E+02  0.12700000000E+01 0.  1.
          4   -1    0    0  501    0  0.00000000000E+00 -0.00000000000E+00 -0.11219698521E+03  0.11220417278E+03  0.12700000000E+01 0.  1.
         25    2    1    2    0    0  0.00000000000E+00  0.00000000000E+00 -0.77400917291E+02  0.14702340946E+03  0.12499992373E+03 0.  0.
    9000005    1    3    3    0    0 -0.42613861038E+02 -0.38340814889E+02 -0.94304823497E+01  0.58102437438E+02  0.10000000000E+01 0.  0.
    9000005    1    3    3    0    0  0.42613861038E+02  0.38340814889E+02 -0.67970434941E+02  0.88920972020E+02  0.10000000000E+01 0.  0.
<mgrwt>
<rscale>  0 0.12499992E+03</rscale>
<asrwt>0</asrwt>
<pdfrwt beam="2">  1        4 0.17263409E-01 0.12499992E+03</pdfrwt>
<pdfrwt beam="1">  1       -4 0.53555764E-02 0.12499992E+03</pdfrwt>
<totfact> 0.99900552E+03</totfact>
</mgrwt>
</event>
<event>
 5    1  0.3235144E-002  0.1250002E+03  0.7818608E-02  0.1235069E+00
         -4   -1    0    0    0  501 -0.00000000000E+00  0.00000000000E+00  0.11098780822E+02  0.11171205652E+02  0.12700000000E+01 0. -1.
          4   -1    0    0  501    0  0.00000000000E+00 -0.00000000000E+00 -0.35073590782E+03  0.35073820712E+03  0.12700000000E+01 0. -1.
         25    2    1    2    0    0  0.00000000000E+00  0.00000000000E+00 -0.33963712700E+03  0.36190941277E+03  0.12500018007E+03 0.  0.
    9000005    1    3    3    0    0 -0.16433119026E+02  0.60046946348E+02 -0.18556470999E+03  0.19573181847E+03  0.10000000000E+01 0.  0.
    9000005    1    3    3    0    0  0.16433119026E+02 -0.60046946348E+02 -0.15407241701E+03  0.16617759431E+03  0.10000000000E+01 0.  0.
<mgrwt>
<rscale>  0 0.12500018E+03</rscale>
<asrwt>0</asrwt>
<pdfrwt beam="2">  1        4 0.53965110E-01 0.12500018E+03</pdfrwt>
<pdfrwt beam="1">  1       -4 0.17132530E-02 0.12500018E+03</pdfrwt>
<totfact> 0.68433676E+03</totfact>
</mgrwt>
</event>
<event>
 5    1  0.3235144E-002  0.1249986E+03  0.7818608E-02  0.1235071E+00
         -4   -1    0    0    0  501 -0.00000000000E+00  0.00000000000E+00  0.26542221165E+03  0.26542525000E+03  0.12700000000E+01 0. -1.
          4   -1    0    0  501    0  0.00000000000E+00 -0.00000000000E+00 -0.14686268900E+02  0.14741078462E+02  0.12700000000E+01 0. -1.
         25    2    1    2    0    0  0.00000000000E+00  0.00000000000E+00  0.25073594275E+03  0.28016632846E+03  0.12499863446E+03 0.  0.
    9000005    1    3    3    0    0  0.33605584069E+01  0.62371070967E+02  0.12969140990E+03  0.14395244231E+03  0.10000000000E+01 0.  0.
    9000005    1    3    3    0    0 -0.33605584069E+01 -0.62371070967E+02  0.12104453286E+03  0.13621388615E+03  0.10000000000E+01 0.  0.
<mgrwt>
<rscale>  0 0.12499863E+03</rscale>
<asrwt>0</asrwt>
<pdfrwt beam="2">  1        4 0.22638757E-02 0.12499863E+03</pdfrwt>
<pdfrwt beam="1">  1       -4 0.40838639E-01 0.12499863E+03</pdfrwt>
<totfact> 0.78158425E+03</totfact>
</mgrwt>
</event>
<event>
 5    1  0.3235144E-002  0.1250021E+03  0.7818608E-02  0.1235066E+00
          4   -1    0    0  501    0  0.00000000000E+00  0.00000000000E+00  0.85627556250E+02  0.85636973846E+02  0.12700000000E+01 0. -1.
         -4   -1    0    0    0  501 -0.00000000000E+00 -0.00000000000E+00 -0.45599861574E+02  0.45617543506E+02  0.12700000000E+01 0. -1.
         25    2    1    2    0    0  0.00000000000E+00  0.00000000000E+00  0.40027694677E+02  0.13125451735E+03  0.12500212792E+03 0.  0.
    9000005    1    3    3    0    0 -0.38933522281E+02 -0.19895884724E+02 -0.26870586469E+02  0.51329268486E+02  0.10000000000E+01 0.  0.
    9000005    1    3    3    0    0  0.38933522281E+02  0.19895884724E+02  0.66898281145E+02  0.79925248866E+02  0.10000000000E+01 0.  0.
<mgrwt>
<rscale>  0 0.12500213E+03</rscale>
<asrwt>0</asrwt>
<pdfrwt beam="1">  1        4 0.13175555E-01 0.12500213E+03</pdfrwt>
<pdfrwt beam="2">  1       -4 0.70174480E-02 0.12500213E+03</pdfrwt>
<totfact> 0.10317141E+04</totfact>
</mgrwt>
</event>
<event>
 5    1  0.3235144E-002  0.1249833E+03  0.7818608E-02  0.1235095E+00
         -4   -1    0    0    0  501 -0.00000000000E+00  0.00000000000E+00  0.11709709480E+02  0.11778378331E+02  0.12700000000E+01 0.  1.
          4   -1    0    0  501    0  0.00000000000E+00 -0.00000000000E+00 -0.33245687623E+03  0.33245930195E+03  0.12700000000E+01 0.  1.
         25    2    1    2    0    0  0.00000000000E+00  0.00000000000E+00 -0.32074716675E+03  0.34423768028E+03  0.12498334108E+03 0.  0.
    9000005    1    3    3    0    0  0.60262268377E+02  0.10272682335E+02 -0.19598148145E+03  0.20529688275E+03  0.10000000000E+01 0.  0.
    9000005    1    3    3    0    0 -0.60262268377E+02 -0.10272682335E+02 -0.12476568530E+03  0.13894079754E+03  0.10000000000E+01 0.  0.
<mgrwt>
<rscale>  0 0.12498334E+03</rscale>
<asrwt>0</asrwt>
<pdfrwt beam="2">  1        4 0.51152673E-01 0.12498334E+03</pdfrwt>
<pdfrwt beam="1">  1       -4 0.18069628E-02 0.12498334E+03</pdfrwt>
<totfact> 0.70389126E+03</totfact>
</mgrwt>
</event>
<event>
 5    1  0.3235144E-002  0.1250019E+03  0.7818608E-02  0.1235066E+00
          4   -1    0    0  501    0  0.00000000000E+00  0.00000000000E+00  0.65043716092E+02  0.65056113495E+02  0.12700000000E+01 0. -1.
         -4   -1    0    0    0  501 -0.00000000000E+00 -0.00000000000E+00 -0.60032703835E+02  0.60046135843E+02  0.12700000000E+01 0. -1.
         25    2    1    2    0    0  0.00000000000E+00  0.00000000000E+00  0.50110122575E+01  0.12510224934E+03  0.12500185017E+03 0.  0.
    9000005    1    3    3    0    0  0.40142591948E+02  0.47167200299E+02 -0.58194177759E+01  0.62217667070E+02  0.10000000000E+01 0.  0.
    9000005    1    3    3    0    0 -0.40142591948E+02 -0.47167200299E+02  0.10830430033E+02  0.62884582268E+02  0.10000000000E+01 0.  0.
<mgrwt>
<rscale>  0 0.12500185E+03</rscale>
<asrwt>0</asrwt>
<pdfrwt beam="1">  1        4 0.10008712E-01 0.12500185E+03</pdfrwt>
<pdfrwt beam="2">  1       -4 0.92377875E-02 0.12500185E+03</pdfrwt>
<totfact> 0.10450205E+04</totfact>
</mgrwt>
</event>
<event>
 5    1  0.3235144E-002  0.1250551E+03  0.7818608E-02  0.1234983E+00
          4   -1    0    0  501    0  0.00000000000E+00  0.00000000000E+00  0.41862028866E+01  0.43746079376E+01  0.12700000000E+01 0. -1.
         -4   -1    0    0    0  501 -0.00000000000E+00 -0.00000000000E+00 -0.91320469740E+03  0.91320558050E+03  0.12700000000E+01 0. -1.
         25    2    1    2    0    0  0.00000000000E+00  0.00000000000E+00 -0.90901849451E+03  0.91758018843E+03  0.12505510323E+03 0.  0.
    9000005    1    3    3    0    0  0.17208300446E+02 -0.29734211800E+02 -0.83777522682E+03  0.83847992201E+03  0.10000000000E+01 0.  0.
    9000005    1    3    3    0    0 -0.17208300446E+02  0.29734211800E+02 -0.71243267694E+02  0.79100266418E+02  0.10000000000E+01 0.  0.
<mgrwt>
<rscale>  0 0.12505510E+03</rscale>
<asrwt>0</asrwt>
<pdfrwt beam="1">  1        4 0.65859257E-03 0.12505510E+03</pdfrwt>
<pdfrwt beam="2">  1       -4 0.14050744E+00 0.12505510E+03</pdfrwt>
<totfact> 0.33455431E+03</totfact>
</mgrwt>
</event>
<event>
 5    1  0.3235144E-002  0.1249445E+03  0.7818608E-02  0.1235156E+00
         -4   -1    0    0    0  501 -0.00000000000E+00  0.00000000000E+00  0.27577418136E+03  0.27577710565E+03  0.12700000000E+01 0.  1.
          4   -1    0    0  501    0  0.00000000000E+00 -0.00000000000E+00 -0.14120599269E+02  0.14177595837E+02  0.12700000000E+01 0.  1.
         25    2    1    2    0    0  0.00000000000E+00  0.00000000000E+00  0.26165358209E+03  0.28995470149E+03  0.12494451528E+03 0.  0.
    9000005    1    3    3    0    0 -0.56795968370E+02 -0.24261836014E+02  0.15251780587E+03  0.16455120728E+03  0.10000000000E+01 0.  0.
    9000005    1    3    3    0    0  0.56795968370E+02  0.24261836014E+02  0.10913577622E+03  0.12540349421E+03  0.10000000000E+01 0.  0.
<mgrwt>
<rscale>  0 0.12494452E+03</rscale>
<asrwt>0</asrwt>
<pdfrwt beam="2">  1        4 0.21770092E-02 0.12494452E+03</pdfrwt>
<pdfrwt beam="1">  1       -4 0.42431405E-01 0.12494452E+03</pdfrwt>
<totfact> 0.76971259E+03</totfact>
</mgrwt>
</event>
<event>
 5    1  0.3235144E-002  0.1249963E+03  0.7818608E-02  0.1235075E+00
          4   -1    0    0  501    0  0.00000000000E+00  0.00000000000E+00  0.30918951045E+01  0.33425611942E+01  0.12700000000E+01 0. -1.
         -4   -1    0    0    0  501 -0.00000000000E+00 -0.00000000000E+00 -0.12138430001E+04  0.12138436645E+04  0.12700000000E+01 0. -1.
         25    2    1    2    0    0  0.00000000000E+00  0.00000000000E+00 -0.12107511050E+04  0.12171862257E+04  0.12499627881E+03 0.  0.
    9000005    1    3    3    0    0  0.13769012077E+02 -0.44512218186E+02 -0.10108806180E+04  0.10119543207E+04  0.10000000000E+01 0.  0.
    9000005    1    3    3    0    0 -0.13769012077E+02  0.44512218186E+02 -0.19987048700E+03  0.20523190501E+03  0.10000000000E+01 0.  0.
<mgrwt>
<rscale>  0 0.12499628E+03</rscale>
<asrwt>0</asrwt>
<pdfrwt beam="1">  1        4 0.49501025E-03 0.12499628E+03</pdfrwt>
<pdfrwt beam="2">  1       -4 0.18676404E+00 0.12499628E+03</pdfrwt>
<totfact> 0.24269317E+03</totfact>
</mgrwt>
</event>
<event>
 5    1  0.3235144E-002  0.1250102E+03  0.7818608E-02  0.1235053E+00
         -4   -1    0    0    0  501 -0.00000000000E+00  0.00000000000E+00  0.84818224195E+01  0.85763751991E+01  0.12700000000E+01 0.  1.
          4   -1    0    0  501    0  0.00000000000E+00 -0.00000000000E+00 -0.45797050246E+03  0.45797226338E+03  0.12700000000E+01 0.  1.
         25    2    1    2    0    0  0.00000000000E+00  0.00000000000E+00 -0.44948868004E+03  0.46654863858E+03  0.12501023428E+03 0.  0.
    9000005    1    3    3    0    0 -0.14187735576E+02  0.55792850954E+02 -0.31553110672E+03  0.32074134964E+03  0.10000000000E+01 0.  0.
    9000005    1    3    3    0    0  0.14187735576E+02 -0.55792850954E+02 -0.13395757332E+03  0.14580728894E+03  0.10000000000E+01 0.  0.
<mgrwt>
<rscale>  0 0.12501023E+03</rscale>
<asrwt>0</asrwt>
<pdfrwt beam="2">  1        4 0.70464390E-01 0.12501023E+03</pdfrwt>
<pdfrwt beam="1">  1       -4 0.13123049E-02 0.12501023E+03</pdfrwt>
<totfact> 0.58543342E+03</totfact>
</mgrwt>
</event>
<event>
 5    1  0.3235144E-002  0.1250036E+03  0.7818608E-02  0.1235064E+00
         -4   -1    0    0    0  501 -0.00000000000E+00  0.00000000000E+00  0.60501617961E+01  0.61820189064E+01  0.12700000000E+01 0. -1.
          4   -1    0    0  501    0  0.00000000000E+00 -0.00000000000E+00 -0.63858847957E+03  0.63858974243E+03  0.12700000000E+01 0. -1.
         25    2    1    2    0    0  0.00000000000E+00  0.00000000000E+00 -0.63253831777E+03  0.64477176133E+03  0.12500360302E+03 0.  0.
    9000005    1    3    3    0    0 -0.16681892850E+02  0.34519158734E+02 -0.57082789429E+03  0.57211479859E+03  0.10000000000E+01 0.  0.
    9000005    1    3    3    0    0  0.16681892850E+02 -0.34519158734E+02 -0.61710423477E+02  0.72656962740E+02  0.10000000000E+01 0.  0.
<mgrwt>
<rscale>  0 0.12500360E+03</rscale>
<asrwt>0</asrwt>
<pdfrwt beam="2">  1        4 0.98254569E-01 0.12500360E+03</pdfrwt>
<pdfrwt beam="1">  1       -4 0.94103463E-03 0.12500360E+03</pdfrwt>
<totfact> 0.46154445E+03</totfact>
</mgrwt>
</event>
<event>
 5    1  0.3235144E-002  0.1249997E+03  0.7818608E-02  0.1235070E+00
          4   -1    0    0  501    0  0.00000000000E+00  0.00000000000E+00  0.22266182188E+02  0.22302371382E+02  0.12700000000E+01 0.  1.
         -4   -1    0    0    0  501 -0.00000000000E+00 -0.00000000000E+00 -0.17525252904E+03  0.17525713063E+03  0.12700000000E+01 0.  1.
         25    2    1    2    0    0  0.00000000000E+00  0.00000000000E+00 -0.15298634685E+03  0.19755950201E+03  0.12499973804E+03 0.  0.
    9000005    1    3    3    0    0 -0.56427479764E+02 -0.59511994256E+01 -0.35105239373E+02  0.66729716608E+02  0.10000000000E+01 0.  0.
    9000005    1    3    3    0    0  0.56427479764E+02  0.59511994256E+01 -0.11788110748E+03  0.13082978540E+03  0.10000000000E+01 0.  0.
<mgrwt>
<rscale>  0 0.12499974E+03</rscale>
<asrwt>0</asrwt>
<pdfrwt beam="1">  1        4 0.34287044E-02 0.12499974E+03</pdfrwt>
<pdfrwt beam="2">  1       -4 0.26965064E-01 0.12499974E+03</pdfrwt>
<totfact> 0.90548900E+03</totfact>
</mgrwt>
</event>
<event>
 5    1  0.3235144E-002  0.1249985E+03  0.7818608E-02  0.1235072E+00
          4   -1    0    0  501    0  0.00000000000E+00  0.00000000000E+00  0.49147708613E+02  0.49164114574E+02  0.12700000000E+01 0.  1.
         -4   -1    0    0    0  501 -0.00000000000E+00 -0.00000000000E+00 -0.79443134544E+02  0.79453285182E+02  0.12700000000E+01 0.  1.
         25    2    1    2    0    0  0.00000000000E+00  0.00000000000E+00 -0.30295425931E+02  0.12861739976E+03  0.12499849074E+03 0.  0.
    9000005    1    3    3    0    0  0.26093072611E+02  0.52300591024E+02 -0.37900237156E+02  0.69667985734E+02  0.10000000000E+01 0.  0.
    9000005    1    3    3    0    0 -0.26093072611E+02 -0.52300591024E+02  0.76048112244E+01  0.58949414022E+02  0.10000000000E+01 0.  0.
<mgrwt>
<rscale>  0 0.12499849E+03</rscale>
<asrwt>0</asrwt>
<pdfrwt beam="1">  1        4 0.75632287E-02 0.12499849E+03</pdfrwt>
<pdfrwt beam="2">  1       -4 0.12224064E-01 0.12499849E+03</pdfrwt>
<totfact> 0.10374529E+04</totfact>
</mgrwt>
</event>
<event>
 5    1  0.3235144E-002  0.1250021E+03  0.7818608E-02  0.1235066E+00
          4   -1    0    0  501    0  0.00000000000E+00  0.00000000000E+00  0.55029030658E+03  0.55029177208E+03  0.12700000000E+01 0. -1.
         -4   -1    0    0    0  501 -0.00000000000E+00 -0.00000000000E+00 -0.70404752808E+01  0.71541031709E+01  0.12700000000E+01 0. -1.
         25    2    1    2    0    0  0.00000000000E+00  0.00000000000E+00  0.54324983130E+03  0.55744587525E+03  0.12500209848E+03 0.  0.
    9000005    1    3    3    0    0  0.32836299620E+02 -0.11928092249E+01  0.34568791957E+02  0.47703739308E+02  0.10000000000E+01 0.  0.
    9000005    1    3    3    0    0 -0.32836299620E+02  0.11928092249E+01  0.50868103934E+03  0.50974213594E+03  0.10000000000E+01 0.  0.
<mgrwt>
<rscale>  0 0.12500210E+03</rscale>
<asrwt>0</asrwt>
<pdfrwt beam="1">  1        4 0.84668895E-01 0.12500210E+03</pdfrwt>
<pdfrwt beam="2">  1       -4 0.10920035E-02 0.12500210E+03</pdfrwt>
<totfact> 0.51666480E+03</totfact>
</mgrwt>
</event>
<event>
 5    1  0.3235144E-002  0.1249974E+03  0.7818608E-02  0.1235073E+00
          4   -1    0    0  501    0  0.00000000000E+00  0.00000000000E+00  0.68402009229E+03  0.68402127128E+03  0.12700000000E+01 0. -1.
         -4   -1    0    0    0  501 -0.00000000000E+00 -0.00000000000E+00 -0.56386782701E+01  0.57799301582E+01  0.12700000000E+01 0. -1.
         25    2    1    2    0    0  0.00000000000E+00  0.00000000000E+00  0.67838141402E+03  0.68980120143E+03  0.12499741842E+03 0.  0.
    9000005    1    3    3    0    0 -0.24389479358E+02  0.38391668908E+02  0.10270914411E+03  0.11233403415E+03  0.10000000000E+01 0.  0.
    9000005    1    3    3    0    0  0.24389479358E+02 -0.38391668908E+02  0.57567226991E+03  0.57746716729E+03  0.10000000000E+01 0.  0.
<mgrwt>
<rscale>  0 0.12499742E+03</rscale>
<asrwt>0</asrwt>
<pdfrwt beam="1">  1        4 0.10524473E+00 0.12499742E+03</pdfrwt>
<pdfrwt beam="2">  1       -4 0.87844592E-03 0.12499742E+03</pdfrwt>
<totfact> 0.43633061E+03</totfact>
</mgrwt>
</event>
<event>
 5    1  0.3235144E-002  0.1250003E+03  0.7818608E-02  0.1235069E+00
         -4   -1    0    0    0  501 -0.00000000000E+00  0.00000000000E+00  0.50992119695E+03  0.50992277846E+03  0.12700000000E+01 0. -1.
          4   -1    0    0  501    0  0.00000000000E+00 -0.00000000000E+00 -0.76062963069E+01  0.77115915030E+01  0.12700000000E+01 0. -1.
         25    2    1    2    0    0  0.00000000000E+00  0.00000000000E+00  0.50231490064E+03  0.51763436997E+03  0.12500032626E+03 0.  0.
    9000005    1    3    3    0    0 -0.14797964570E+02 -0.43271044393E+02  0.74789564434E+02  0.87668933987E+02  0.10000000000E+01 0.  0.
    9000005    1    3    3    0    0  0.14797964570E+02  0.43271044393E+02  0.42752533621E+03  0.42996543598E+03  0.10000000000E+01 0.  0.
<mgrwt>
<rscale>  0 0.12500033E+03</rscale>
<asrwt>0</asrwt>
<pdfrwt beam="2">  1        4 0.11784205E-02 0.12500033E+03</pdfrwt>
<pdfrwt beam="1">  1       -4 0.78457654E-01 0.12500033E+03</pdfrwt>
<totfact> 0.54521252E+03</totfact>
</mgrwt>
</event>
<event>
 5    1  0.3235144E-002  0.1249948E+03  0.7818608E-02  0.1235077E+00
         -4   -1    0    0    0  501 -0.00000000000E+00  0.00000000000E+00  0.73738936020E+02  0.73749871765E+02  0.12700000000E+01 0.  1.
          4   -1    0    0  501    0  0.00000000000E+00 -0.00000000000E+00 -0.52947189759E+02  0.52962418783E+02  0.12700000000E+01 0.  1.
         25    2    1    2    0    0  0.00000000000E+00  0.00000000000E+00  0.20791746261E+02  0.12671229055E+03  0.12499483135E+03 0.  0.
    9000005    1    3    3    0    0 -0.56873905699E+02 -0.25743273807E+02  0.76067662302E+01  0.62898491145E+02  0.10000000000E+01 0.  0.
    9000005    1    3    3    0    0  0.56873905699E+02  0.25743273807E+02  0.13184980031E+02  0.63813799403E+02  0.10000000000E+01 0.  0.
<mgrwt>
<rscale>  0 0.12499483E+03</rscale>
<asrwt>0</asrwt>
<pdfrwt beam="2">  1        4 0.81477342E-02 0.12499483E+03</pdfrwt>
<pdfrwt beam="1">  1       -4 0.11346464E-01 0.12499483E+03</pdfrwt>
<totfact> 0.10416618E+04</totfact>
</mgrwt>
</event>
<event>
 5    1  0.3235144E-002  0.1249792E+03  0.7818608E-02  0.1235102E+00
          4   -1    0    0  501    0  0.00000000000E+00  0.00000000000E+00  0.79605985428E+02  0.79616115303E+02  0.12700000000E+01 0. -1.
         -4   -1    0    0    0  501 -0.00000000000E+00 -0.00000000000E+00 -0.49032000410E+02  0.49048445074E+02  0.12700000000E+01 0. -1.
         25    2    1    2    0    0  0.00000000000E+00  0.00000000000E+00  0.30573985018E+02  0.12866456038E+03  0.12497920042E+03 0.  0.
    9000005    1    3    3    0    0  0.42502436462E+02  0.34561069174E+02 -0.15649509904E+02  0.56980977246E+02  0.10000000000E+01 0.  0.
    9000005    1    3    3    0    0 -0.42502436462E+02 -0.34561069174E+02  0.46223494922E+02  0.71683583131E+02  0.10000000000E+01 0.  0.
<mgrwt>
<rscale>  0 0.12497920E+03</rscale>
<asrwt>0</asrwt>
<pdfrwt beam="1">  1        4 0.12249119E-01 0.12497920E+03</pdfrwt>
<pdfrwt beam="2">  1       -4 0.75454290E-02 0.12497920E+03</pdfrwt>
<totfact> 0.10378033E+04</totfact>
</mgrwt>
</event>
<event>
 5    1  0.3235144E-002  0.1250104E+03  0.7818608E-02  0.1235053E+00
          4   -1    0    0  501    0  0.00000000000E+00  0.00000000000E+00  0.53653313926E+02  0.53668342580E+02  0.12700000000E+01 0. -1.
         -4   -1    0    0    0  501 -0.00000000000E+00 -0.00000000000E+00 -0.72786721801E+02  0.72797800589E+02  0.12700000000E+01 0. -1.
         25    2    1    2    0    0  0.00000000000E+00  0.00000000000E+00 -0.19133407875E+02  0.12646614317E+03  0.12501039185E+03 0.  0.
    9000005    1    3    3    0    0  0.12875638507E+02 -0.75016297340E+01  0.51834758367E+02  0.53943476812E+02  0.10000000000E+01 0.  0.
    9000005    1    3    3    0    0 -0.12875638507E+02  0.75016297340E+01 -0.70968166242E+02  0.72522666356E+02  0.10000000000E+01 0.  0.
<mgrwt>
<rscale>  0 0.12501039E+03</rscale>
<asrwt>0</asrwt>
<pdfrwt beam="1">  1        4 0.82563642E-02 0.12501039E+03</pdfrwt>
<pdfrwt beam="2">  1       -4 0.11199965E-01 0.12501039E+03</pdfrwt>
<totfact> 0.10418323E+04</totfact>
</mgrwt>
</event>
<event>
 5    1  0.3235144E-002  0.1250098E+03  0.7818608E-02  0.1235054E+00
          4   -1    0    0  501    0  0.00000000000E+00  0.00000000000E+00  0.36232389227E+02  0.36254640104E+02  0.12700000000E+01 0. -1.
         -4   -1    0    0    0  501 -0.00000000000E+00 -0.00000000000E+00 -0.10776889354E+03  0.10777637643E+03  0.12700000000E+01 0. -1.
         25    2    1    2    0    0  0.00000000000E+00  0.00000000000E+00 -0.71536504316E+02  0.14403101653E+03  0.12500984870E+03 0.  0.
    9000005    1    3    3    0    0  0.40948633852E+02  0.22800353659E+02  0.11865043460E+02  0.48357274506E+02  0.10000000000E+01 0.  0.
    9000005    1    3    3    0    0 -0.40948633852E+02 -0.22800353659E+02 -0.83401547776E+02  0.95673742024E+02  0.10000000000E+01 0.  0.
<mgrwt>
<rscale>  0 0.12500985E+03</rscale>
<asrwt>0</asrwt>
<pdfrwt beam="1">  1        4 0.55765010E-02 0.12500985E+03</pdfrwt>
<pdfrwt beam="2">  1       -4 0.16582117E-01 0.12500985E+03</pdfrwt>
<totfact> 0.10048484E+04</totfact>
</mgrwt>
</event>
<event>
 5    1  0.3235144E-002  0.1249942E+03  0.7818608E-02  0.1235078E+00
          4   -1    0    0  501    0  0.00000000000E+00  0.00000000000E+00  0.50323745552E+02  0.50339768239E+02  0.12700000000E+01 0.  1.
         -4   -1    0    0    0  501 -0.00000000000E+00 -0.00000000000E+00 -0.77581591532E+02  0.77591985698E+02  0.12700000000E+01 0.  1.
         25    2    1    2    0    0  0.00000000000E+00  0.00000000000E+00 -0.27257845980E+02  0.12793175394E+03  0.12499417386E+03 0.  0.
    9000005    1    3    3    0    0  0.59666159229E+02 -0.79899929700E+01  0.35279499323E+01  0.60310338878E+02  0.10000000000E+01 0.  0.
    9000005    1    3    3    0    0 -0.59666159229E+02  0.79899929700E+01 -0.30785795912E+02  0.67621415060E+02  0.10000000000E+01 0.  0.
<mgrwt>
<rscale>  0 0.12499417E+03</rscale>
<asrwt>0</asrwt>
<pdfrwt beam="1">  1        4 0.77441467E-02 0.12499417E+03</pdfrwt>
<pdfrwt beam="2">  1       -4 0.11937662E-01 0.12499417E+03</pdfrwt>
<totfact> 0.10390328E+04</totfact>
</mgrwt>
</event>
<event>
 5    1  0.3235144E-002  0.1249958E+03  0.7818608E-02  0.1235076E+00
          4   -1    0    0  501    0  0.00000000000E+00  0.00000000000E+00  0.58711916796E+02  0.58725650902E+02  0.12700000000E+01 0.  1.
         -4   -1    0    0    0  501 -0.00000000000E+00 -0.00000000000E+00 -0.66500456644E+02  0.66512582523E+02  0.12700000000E+01 0.  1.
         25    2    1    2    0    0  0.00000000000E+00  0.00000000000E+00 -0.77885398476E+01  0.12523823342E+03  0.12499581496E+03 0.  0.
    9000005    1    3    3    0    0  0.51315110500E+02  0.23758201627E+02  0.22752340861E+02  0.60961969496E+02  0.10000000000E+01 0.  0.
    9000005    1    3    3    0    0 -0.51315110500E+02 -0.23758201627E+02 -0.30540880708E+02  0.64276263929E+02  0.10000000000E+01 0.  0.
<mgrwt>
<rscale>  0 0.12499581E+03</rscale>
<asrwt>0</asrwt>
<pdfrwt beam="1">  1        4 0.90345918E-02 0.12499581E+03</pdfrwt>
<pdfrwt beam="2">  1       -4 0.10232829E-01 0.12499581E+03</pdfrwt>
<totfact> 0.10448679E+04</totfact>
</mgrwt>
</event>
<event>
 5    1  0.3235144E-002  0.1249982E+03  0.7818608E-02  0.1235072E+00
         -4   -1    0    0    0  501 -0.00000000000E+00  0.00000000000E+00  0.16402605277E+03  0.16403096930E+03  0.12700000000E+01 0. -1.
          4   -1    0    0  501    0  0.00000000000E+00 -0.00000000000E+00 -0.23791921796E+02  0.23825793643E+02  0.12700000000E+01 0. -1.
         25    2    1    2    0    0  0.00000000000E+00  0.00000000000E+00  0.14023413098E+03  0.18785676294E+03  0.12499820755E+03 0.  0.
    9000005    1    3    3    0    0  0.26200061464E+02  0.10842285164E+02  0.15380901952E+03  0.15640400524E+03  0.10000000000E+01 0.  0.
    9000005    1    3    3    0    0 -0.26200061464E+02 -0.10842285164E+02 -0.13574888541E+02  0.31452757704E+02  0.10000000000E+01 0.  0.
<mgrwt>
<rscale>  0 0.12499821E+03</rscale>
<asrwt>0</asrwt>
<pdfrwt beam="2">  1        4 0.36632795E-02 0.12499821E+03</pdfrwt>
<pdfrwt beam="1">  1       -4 0.25237761E-01 0.12499821E+03</pdfrwt>
<totfact> 0.92225277E+03</totfact>
</mgrwt>
</event>
<event>
 5    1  0.3235144E-002  0.1250023E+03  0.7818608E-02  0.1235066E+00
          4   -1    0    0  501    0  0.00000000000E+00  0.00000000000E+00  0.12729268654E+02  0.12792465769E+02  0.12700000000E+01 0. -1.
         -4   -1    0    0    0  501 -0.00000000000E+00 -0.00000000000E+00 -0.30605825951E+03  0.30606089445E+03  0.12700000000E+01 0. -1.
         25    2    1    2    0    0  0.00000000000E+00  0.00000000000E+00 -0.29332899086E+03  0.31885336022E+03  0.12500227378E+03 0.  0.
    9000005    1    3    3    0    0  0.65255990683E+01  0.42340286847E+02 -0.30607942046E+02  0.52660511294E+02  0.10000000000E+01 0.  0.
    9000005    1    3    3    0    0 -0.65255990683E+01 -0.42340286847E+02 -0.26272104881E+03  0.26619284893E+03  0.10000000000E+01 0.  0.
<mgrwt>
<rscale>  0 0.12500227E+03</rscale>
<asrwt>0</asrwt>
<pdfrwt beam="1">  1        4 0.19634133E-02 0.12500227E+03</pdfrwt>
<pdfrwt beam="2">  1       -4 0.47090945E-01 0.12500227E+03</pdfrwt>
<totfact> 0.73289018E+03</totfact>
</mgrwt>
</event>
<event>
 5    1  0.3235144E-002  0.1249986E+03  0.7818608E-02  0.1235071E+00
          4   -1    0    0  501    0  0.00000000000E+00  0.00000000000E+00  0.64717409924E+03  0.64717534535E+03  0.12700000000E+01 0. -1.
         -4   -1    0    0    0  501 -0.00000000000E+00 -0.00000000000E+00 -0.59676475376E+01  0.61012881536E+01  0.12700000000E+01 0. -1.
         25    2    1    2    0    0  0.00000000000E+00  0.00000000000E+00  0.64120645171E+03  0.65327663351E+03  0.12499858469E+03 0.  0.
    9000005    1    3    3    0    0  0.30399177363E+02  0.37905470529E+02  0.11522822396E+03  0.12505789970E+03  0.10000000000E+01 0.  0.
    9000005    1    3    3    0    0 -0.30399177363E+02 -0.37905470529E+02  0.52597822775E+03  0.52821873381E+03  0.10000000000E+01 0.  0.
<mgrwt>
<rscale>  0 0.12499858E+03</rscale>
<asrwt>0</asrwt>
<pdfrwt beam="1">  1        4 0.99575557E-01 0.12499858E+03</pdfrwt>
<pdfrwt beam="2">  1       -4 0.92847612E-03 0.12499858E+03</pdfrwt>
<totfact> 0.45669757E+03</totfact>
</mgrwt>
</event>
<event>
 5    1  0.3235144E-002  0.1250038E+03  0.7818608E-02  0.1235063E+00
          4   -1    0    0  501    0  0.00000000000E+00  0.00000000000E+00  0.11141173751E+02  0.11213324776E+02  0.12700000000E+01 0.  1.
         -4   -1    0    0    0  501 -0.00000000000E+00 -0.00000000000E+00 -0.34942998933E+03  0.34943229722E+03  0.12700000000E+01 0.  1.
         25    2    1    2    0    0  0.00000000000E+00  0.00000000000E+00 -0.33828881558E+03  0.36064562200E+03  0.12500376763E+03 0.  0.
    9000005    1    3    3    0    0  0.52847158661E+02 -0.32561804165E+02 -0.19002731344E+03  0.19991116307E+03  0.10000000000E+01 0.  0.
    9000005    1    3    3    0    0 -0.52847158661E+02  0.32561804165E+02 -0.14826150214E+03  0.16073445893E+03  0.10000000000E+01 0.  0.
<mgrwt>
<rscale>  0 0.12500377E+03</rscale>
<asrwt>0</asrwt>
<pdfrwt beam="1">  1        4 0.17197546E-02 0.12500377E+03</pdfrwt>
<pdfrwt beam="2">  1       -4 0.53764179E-01 0.12500377E+03</pdfrwt>
<totfact> 0.68563359E+03</totfact>
</mgrwt>
</event>
<event>
 5    1  0.3235144E-002  0.1250015E+03  0.7818608E-02  0.1235067E+00
          4   -1    0    0  501    0  0.00000000000E+00  0.00000000000E+00  0.31886837149E+02  0.31912118128E+02  0.12700000000E+01 0.  1.
         -4   -1    0    0    0  501 -0.00000000000E+00 -0.00000000000E+00 -0.12242935385E+03  0.12243594073E+03  0.12700000000E+01 0.  1.
         25    2    1    2    0    0  0.00000000000E+00  0.00000000000E+00 -0.90542516697E+02  0.15434805886E+03  0.12500150377E+03 0.  0.
    9000005    1    3    3    0    0  0.14945988737E+02  0.52733925109E+02 -0.82336865268E+02  0.98917181617E+02  0.10000000000E+01 0.  0.
    9000005    1    3    3    0    0 -0.14945988737E+02 -0.52733925109E+02 -0.82056514290E+01  0.55430877245E+02  0.10000000000E+01 0.  0.
<mgrwt>
<rscale>  0 0.12500150E+03</rscale>
<asrwt>0</asrwt>
<pdfrwt beam="1">  1        4 0.49081187E-02 0.12500150E+03</pdfrwt>
<pdfrwt beam="2">  1       -4 0.18837736E-01 0.12500150E+03</pdfrwt>
<totfact> 0.98440306E+03</totfact>
</mgrwt>
</event>
<event>
 4    1  0.3235144E-002  0.1250713E+03  0.7818608E-02  0.1234958E+00
          4   -1    0    0  501    0  0.00000000000E+00  0.00000000000E+00  0.56209826156E+02  0.56224171461E+02  0.12700000000E+01 0.  1.
         -4   -1    0    0    0  501 -0.00000000000E+00 -0.00000000000E+00 -0.69544411674E+02  0.69556006894E+02  0.12700000000E+01 0.  1.
    9000005    1    1    2    0    0 -0.39827750196E+02 -0.40935245660E+01 -0.54967645226E+02  0.68010651010E+02  0.10000000000E+01 0.  0.
    9000005    1    1    2    0    0  0.39827750196E+02  0.40935245660E+01  0.41633059708E+02  0.57769527345E+02  0.10000000000E+01 0.  0.
<mgrwt>
<rscale>  0 0.12507135E+03</rscale>
<asrwt>0</asrwt>
<pdfrwt beam="1">  1        4 0.86496610E-02 0.12507135E+03</pdfrwt>
<pdfrwt beam="2">  1       -4 0.10701136E-01 0.12507135E+03</pdfrwt>
<totfact> 0.10419000E+04</totfact>
</mgrwt>
</event>
<event>
 5    1  0.3235144E-002  0.1249953E+03  0.7818608E-02  0.1235077E+00
         -4   -1    0    0    0  501 -0.00000000000E+00  0.00000000000E+00  0.17482601660E+03  0.17483062941E+03  0.12700000000E+01 0. -1.
          4   -1    0    0  501    0  0.00000000000E+00 -0.00000000000E+00 -0.22318992630E+02  0.22355096332E+02  0.12700000000E+01 0. -1.
         25    2    1    2    0    0  0.00000000000E+00  0.00000000000E+00  0.15250702397E+03  0.19718572574E+03  0.12499527222E+03 0.  0.
    9000005    1    3    3    0    0  0.30982971347E+02  0.54051753138E+02  0.68619432486E+02  0.92688527043E+02  0.10000000000E+01 0.  0.
    9000005    1    3    3    0    0 -0.30982971347E+02 -0.54051753138E+02  0.83887591480E+02  0.10449719870E+03  0.10000000000E+01 0.  0.
<mgrwt>
<rscale>  0 0.12499527E+03</rscale>
<asrwt>0</asrwt>
<pdfrwt beam="2">  1        4 0.34368233E-02 0.12499527E+03</pdfrwt>
<pdfrwt beam="1">  1       -4 0.26899442E-01 0.12499527E+03</pdfrwt>
<totfact> 0.90621426E+03</totfact>
</mgrwt>
</event>
<event>
 5    1  0.3235144E-002  0.1249994E+03  0.7818608E-02  0.1235070E+00
         -4   -1    0    0    0  501 -0.00000000000E+00  0.00000000000E+00  0.28324214513E+01  0.31041119950E+01  0.12700000000E+01 0. -1.
          4   -1    0    0  501    0  0.00000000000E+00 -0.00000000000E+00 -0.13157198325E+04  0.13157204454E+04  0.12700000000E+01 0. -1.
         25    2    1    2    0    0  0.00000000000E+00  0.00000000000E+00 -0.13128874111E+04  0.13188245574E+04  0.12499943675E+03 0.  0.
    9000005    1    3    3    0    0 -0.17185913072E+02  0.45946920131E+02 -0.10648966939E+04  0.10660264743E+04  0.10000000000E+01 0.  0.
    9000005    1    3    3    0    0  0.17185913072E+02 -0.45946920131E+02 -0.24799071712E+03  0.25279808318E+03  0.10000000000E+01 0.  0.
<mgrwt>
<rscale>  0 0.12499944E+03</rscale>
<asrwt>0</asrwt>
<pdfrwt beam="2">  1        4 0.20243892E+00 0.12499944E+03</pdfrwt>
<pdfrwt beam="1">  1       -4 0.45670462E-03 0.12499944E+03</pdfrwt>
<totfact> 0.21788879E+03</totfact>
</mgrwt>
</event>
<event>
 5    1  0.3235144E-002  0.1250018E+03  0.7818608E-02  0.1235066E+00
          4   -1    0    0  501    0  0.00000000000E+00  0.00000000000E+00  0.92307274831E+01  0.93176837180E+01  0.12700000000E+01 0. -1.
         -4   -1    0    0    0  501 -0.00000000000E+00 -0.00000000000E+00 -0.42111927120E+03  0.42112118621E+03  0.12700000000E+01 0. -1.
         25    2    1    2    0    0  0.00000000000E+00  0.00000000000E+00 -0.41188854372E+03  0.43043886993E+03  0.12500179319E+03 0.  0.
    9000005    1    3    3    0    0  0.34137971939E+02 -0.48121516700E+02 -0.13501560207E+03  0.14734752899E+03  0.10000000000E+01 0.  0.
    9000005    1    3    3    0    0 -0.34137971939E+02  0.48121516700E+02 -0.27687294165E+03  0.28309134094E+03  0.10000000000E+01 0.  0.
<mgrwt>
<rscale>  0 0.12500179E+03</rscale>
<asrwt>0</asrwt>
<pdfrwt beam="1">  1        4 0.14269485E-02 0.12500179E+03</pdfrwt>
<pdfrwt beam="2">  1       -4 0.64794401E-01 0.12500179E+03</pdfrwt>
<totfact> 0.61693798E+03</totfact>
</mgrwt>
</event>
<event>
 5    1  0.3235144E-002  0.1249985E+03  0.7818608E-02  0.1235072E+00
         -4   -1    0    0    0  501 -0.00000000000E+00  0.00000000000E+00  0.13676408400E+03  0.13676998052E+03  0.12700000000E+01 0. -1.
          4   -1    0    0  501    0  0.00000000000E+00 -0.00000000000E+00 -0.28540645065E+02  0.28568887286E+02  0.12700000000E+01 0. -1.
         25    2    1    2    0    0  0.00000000000E+00  0.00000000000E+00  0.10822343893E+03  0.16533886780E+03  0.12499851388E+03 0.  0.
    9000005    1    3    3    0    0 -0.26184461202E+02  0.49518674480E+02  0.17468800826E+02  0.58684615812E+02  0.10000000000E+01 0.  0.
    9000005    1    3    3    0    0  0.26184461202E+02 -0.49518674480E+02  0.90754638104E+02  0.10665425199E+03  0.10000000000E+01 0.  0.
<mgrwt>
<rscale>  0 0.12499851E+03</rscale>
<asrwt>0</asrwt>
<pdfrwt beam="2">  1        4 0.43934946E-02 0.12499851E+03</pdfrwt>
<pdfrwt beam="1">  1       -4 0.21043254E-01 0.12499851E+03</pdfrwt>
<totfact> 0.96326470E+03</totfact>
</mgrwt>
</event>
<event>
 5    1  0.3235144E-002  0.1250004E+03  0.7818608E-02  0.1235069E+00
          4   -1    0    0  501    0  0.00000000000E+00  0.00000000000E+00  0.75805251576E+02  0.75815889274E+02  0.12700000000E+01 0. -1.
         -4   -1    0    0    0  501 -0.00000000000E+00 -0.00000000000E+00 -0.51508306770E+02  0.51523961089E+02  0.12700000000E+01 0. -1.
         25    2    1    2    0    0  0.00000000000E+00  0.00000000000E+00  0.24296944806E+02  0.12733985036E+03  0.12500038385E+03 0.  0.
    9000005    1    3    3    0    0  0.44639427577E+02 -0.41701066869E+02 -0.12744942117E+01  0.61108770303E+02  0.10000000000E+01 0.  0.
    9000005    1    3    3    0    0 -0.44639427577E+02  0.41701066869E+02  0.25571439018E+02  0.66231080060E+02  0.10000000000E+01 0.  0.
<mgrwt>
<rscale>  0 0.12500038E+03</rscale>
<asrwt>0</asrwt>
<pdfrwt beam="1">  1        4 0.11664369E-01 0.12500038E+03</pdfrwt>
<pdfrwt beam="2">  1       -4 0.79263774E-02 0.12500038E+03</pdfrwt>
<totfact> 0.10401680E+04</totfact>
</mgrwt>
</event>
<event>
 5    1  0.3235144E-002  0.1249974E+03  0.7818608E-02  0.1235073E+00
          4   -1    0    0  501    0  0.00000000000E+00  0.00000000000E+00  0.47187080504E+02  0.47204167894E+02  0.12700000000E+01 0.  1.
         -4   -1    0    0    0  501 -0.00000000000E+00 -0.00000000000E+00 -0.82741854981E+02  0.82751600986E+02  0.12700000000E+01 0.  1.
         25    2    1    2    0    0  0.00000000000E+00  0.00000000000E+00 -0.35554774476E+02  0.12995576888E+03  0.12499743948E+03 0.  0.
    9000005    1    3    3    0    0  0.59154451212E+02  0.86137022116E+01 -0.36710899132E+02  0.70157929552E+02  0.10000000000E+01 0.  0.
    9000005    1    3    3    0    0 -0.59154451212E+02 -0.86137022116E+01  0.11561246556E+01  0.59797839327E+02  0.10000000000E+01 0.  0.
<mgrwt>
<rscale>  0 0.12499744E+03</rscale>
<asrwt>0</asrwt>
<pdfrwt beam="1">  1        4 0.72616150E-02 0.12499744E+03</pdfrwt>
<pdfrwt beam="2">  1       -4 0.12731580E-01 0.12499744E+03</pdfrwt>
<totfact> 0.10346052E+04</totfact>
</mgrwt>
</event>
<event>
 5    1  0.3235144E-002  0.1249959E+03  0.7818608E-02  0.1235076E+00
          4   -1    0    0  501    0  0.00000000000E+00  0.00000000000E+00  0.13664011467E+02  0.13722904553E+02  0.12700000000E+01 0. -1.
         -4   -1    0    0    0  501 -0.00000000000E+00 -0.00000000000E+00 -0.28518489987E+03  0.28518772767E+03  0.12700000000E+01 0. -1.
         25    2    1    2    0    0  0.00000000000E+00  0.00000000000E+00 -0.27152088840E+03  0.29891063222E+03  0.12499589280E+03 0.  0.
    9000005    1    3    3    0    0 -0.26365156900E+01  0.53799708296E+02 -0.21151926213E+03  0.21827221096E+03  0.10000000000E+01 0.  0.
    9000005    1    3    3    0    0  0.26365156900E+01 -0.53799708296E+02 -0.60001626278E+02  0.80638421262E+02  0.10000000000E+01 0.  0.
<mgrwt>
<rscale>  0 0.12499589E+03</rscale>
<asrwt>0</asrwt>
<pdfrwt beam="1">  1        4 0.21069036E-02 0.12499589E+03</pdfrwt>
<pdfrwt beam="2">  1       -4 0.43879343E-01 0.12499589E+03</pdfrwt>
<totfact> 0.75742599E+03</totfact>
</mgrwt>
</event>
<event>
 5    1  0.3235144E-002  0.1249990E+03  0.7818608E-02  0.1235071E+00
         -4   -1    0    0    0  501 -0.00000000000E+00  0.00000000000E+00  0.28298871699E+01  0.31017997025E+01  0.12700000000E+01 0.  1.
          4   -1    0    0  501    0  0.00000000000E+00 -0.00000000000E+00 -0.13167866186E+04  0.13167872311E+04  0.12700000000E+01 0.  1.
         25    2    1    2    0    0  0.00000000000E+00  0.00000000000E+00 -0.13139567315E+04  0.13198890308E+04  0.12499904559E+03 0.  0.
    9000005    1    3    3    0    0  0.52529543712E+02  0.14048690141E+02 -0.98217265429E+03  0.98367720391E+03  0.10000000000E+01 0.  0.
    9000005    1    3    3    0    0 -0.52529543712E+02 -0.14048690141E+02 -0.33178407719E+03  0.33621182688E+03  0.10000000000E+01 0.  0.
<mgrwt>
<rscale>  0 0.12499905E+03</rscale>
<asrwt>0</asrwt>
<pdfrwt beam="2">  1        4 0.20260305E+00 0.12499905E+03</pdfrwt>
<pdfrwt beam="1">  1       -4 0.45633177E-03 0.12499905E+03</pdfrwt>
<totfact> 0.21764440E+03</totfact>
</mgrwt>
</event>
<event>
 5    1  0.3235144E-002  0.1249905E+03  0.7818608E-02  0.1235084E+00
         -4   -1    0    0    0  501 -0.00000000000E+00  0.00000000000E+00  0.11908604479E+02  0.11976132958E+02  0.12700000000E+01 0. -1.
          4   -1    0    0  501    0  0.00000000000E+00 -0.00000000000E+00 -0.32697307890E+03  0.32697554530E+03  0.12700000000E+01 0. -1.
         25    2    1    2    0    0  0.00000000000E+00  0.00000000000E+00 -0.31506447442E+03  0.33895167826E+03  0.12499046825E+03 0.  0.
    9000005    1    3    3    0    0  0.30342587197E+02  0.41481664644E+02 -0.25391649228E+03  0.25906753202E+03  0.10000000000E+01 0.  0.
    9000005    1    3    3    0    0 -0.30342587197E+02 -0.41481664644E+02 -0.61147982148E+02  0.79884146238E+02  0.10000000000E+01 0.  0.
<mgrwt>
<rscale>  0 0.12499047E+03</rscale>
<asrwt>0</asrwt>
<pdfrwt beam="2">  1        4 0.50308928E-01 0.12499047E+03</pdfrwt>
<pdfrwt beam="1">  1       -4 0.18374775E-02 0.12499047E+03</pdfrwt>
<totfact> 0.70972338E+03</totfact>
</mgrwt>
</event>
<event>
 5    1  0.3235144E-002  0.1249996E+03  0.7818608E-02  0.1235070E+00
          4   -1    0    0  501    0  0.00000000000E+00  0.00000000000E+00  0.83968543389E+02  0.83978147032E+02  0.12700000000E+01 0. -1.
         -4   -1    0    0    0  501 -0.00000000000E+00 -0.00000000000E+00 -0.46499153885E+02  0.46516493978E+02  0.12700000000E+01 0. -1.
         25    2    1    2    0    0  0.00000000000E+00  0.00000000000E+00  0.37469389504E+02  0.13049464101E+03  0.12499958473E+03 0.  0.
    9000005    1    3    3    0    0 -0.49212141363E+02  0.38508625164E+02  0.18015212704E+02  0.65040733071E+02  0.10000000000E+01 0.  0.
    9000005    1    3    3    0    0  0.49212141363E+02 -0.38508625164E+02  0.19454176800E+02  0.65453907939E+02  0.10000000000E+01 0.  0.
<mgrwt>
<rscale>  0 0.12499958E+03</rscale>
<asrwt>0</asrwt>
<pdfrwt beam="1">  1        4 0.12920310E-01 0.12499958E+03</pdfrwt>
<pdfrwt beam="2">  1       -4 0.71557886E-02 0.12499958E+03</pdfrwt>
<totfact> 0.10334032E+04</totfact>
</mgrwt>
</event>
<event>
 5    1  0.3235144E-002  0.1249998E+03  0.7818608E-02  0.1235070E+00
          4   -1    0    0  501    0  0.00000000000E+00  0.00000000000E+00  0.14277789482E+03  0.14278354299E+03  0.12700000000E+01 0.  1.
         -4   -1    0    0    0  501 -0.00000000000E+00 -0.00000000000E+00 -0.27337894015E+02  0.27367377462E+02  0.12700000000E+01 0.  1.
         25    2    1    2    0    0  0.00000000000E+00  0.00000000000E+00  0.11544000081E+03  0.17015092045E+03  0.12499976778E+03 0.  0.
    9000005    1    3    3    0    0 -0.25655342450E+02 -0.53674032332E+02  0.83766357534E+02  0.10274678096E+03  0.10000000000E+01 0.  0.
    9000005    1    3    3    0    0  0.25655342450E+02  0.53674032332E+02  0.31673643272E+02  0.67404139495E+02  0.10000000000E+01 0.  0.
<mgrwt>
<rscale>  0 0.12499977E+03</rscale>
<asrwt>0</asrwt>
<pdfrwt beam="1">  1        4 0.21968532E-01 0.12499977E+03</pdfrwt>
<pdfrwt beam="2">  1       -4 0.42085323E-02 0.12499977E+03</pdfrwt>
<totfact> 0.95421012E+03</totfact>
</mgrwt>
</event>
<event>
 5    1  0.3235144E-002  0.1250001E+03  0.7818608E-02  0.1235069E+00
         -4   -1    0    0    0  501 -0.00000000000E+00  0.00000000000E+00  0.43861867789E+03  0.43862051650E+03  0.12700000000E+01 0. -1.
          4   -1    0    0  501    0  0.00000000000E+00 -0.00000000000E+00 -0.88586752930E+01  0.89492473396E+01  0.12700000000E+01 0. -1.
         25    2    1    2    0    0  0.00000000000E+00  0.00000000000E+00  0.42976000260E+03  0.44756976384E+03  0.12500013468E+03 0.  0.
    9000005    1    3    3    0    0  0.21377740798E+02  0.27316027175E+02  0.40100288986E+03  0.40250154138E+03  0.10000000000E+01 0.  0.
    9000005    1    3    3    0    0 -0.21377740798E+02 -0.27316027175E+02  0.28757112743E+02  0.45068222459E+02  0.10000000000E+01 0.  0.
<mgrwt>
<rscale>  0 0.12500013E+03</rscale>
<asrwt>0</asrwt>
<pdfrwt beam="2">  1        4 0.13699818E-02 0.12500013E+03</pdfrwt>
<pdfrwt beam="1">  1       -4 0.67486897E-01 0.12500013E+03</pdfrwt>
<totfact> 0.60174730E+03</totfact>
</mgrwt>
</event>
<event>
 5    1  0.3235144E-002  0.1249968E+03  0.7818608E-02  0.1235074E+00
         -4   -1    0    0    0  501 -0.00000000000E+00  0.00000000000E+00  0.20841380140E+03  0.20841767083E+03  0.12700000000E+01 0. -1.
          4   -1    0    0  501    0  0.00000000000E+00 -0.00000000000E+00 -0.18716230587E+02  0.18759269373E+02  0.12700000000E+01 0. -1.
         25    2    1    2    0    0  0.00000000000E+00  0.00000000000E+00  0.18969757081E+03  0.22717694020E+03  0.12499677511E+03 0.  0.
    9000005    1    3    3    0    0  0.28857394784E+02  0.23676004183E+02  0.37624352002E+01  0.37529432802E+02  0.10000000000E+01 0.  0.
    9000005    1    3    3    0    0 -0.28857394784E+02 -0.23676004183E+02  0.18593513561E+03  0.18964750740E+03  0.10000000000E+01 0.  0.
<mgrwt>
<rscale>  0 0.12499678E+03</rscale>
<asrwt>0</asrwt>
<pdfrwt beam="2">  1        4 0.28830286E-02 0.12499678E+03</pdfrwt>
<pdfrwt beam="1">  1       -4 0.32067268E-01 0.12499678E+03</pdfrwt>
<totfact> 0.85751147E+03</totfact>
</mgrwt>
</event>
<event>
 5    1  0.3235144E-002  0.1250008E+03  0.7818608E-02  0.1235068E+00
          4   -1    0    0  501    0  0.00000000000E+00  0.00000000000E+00  0.13015800269E+03  0.13016419848E+03  0.12700000000E+01 0. -1.
         -4   -1    0    0    0  501 -0.00000000000E+00 -0.00000000000E+00 -0.29991616848E+02  0.30018493985E+02  0.12700000000E+01 0. -1.
         25    2    1    2    0    0  0.00000000000E+00  0.00000000000E+00  0.10016638585E+03  0.16018269246E+03  0.12500076044E+03 0.  0.
    9000005    1    3    3    0    0 -0.47787491191E+02  0.10245944322E+02  0.99988764275E+02  0.11129859240E+03  0.10000000000E+01 0.  0.
    9000005    1    3    3    0    0  0.47787491191E+02 -0.10245944322E+02  0.17762157139E+00  0.48884100061E+02  0.10000000000E+01 0.  0.
<mgrwt>
<rscale>  0 0.12500076E+03</rscale>
<asrwt>0</asrwt>
<pdfrwt beam="1">  1        4 0.20026853E-01 0.12500076E+03</pdfrwt>
<pdfrwt beam="2">  1       -4 0.46166389E-02 0.12500076E+03</pdfrwt>
<totfact> 0.97305911E+03</totfact>
</mgrwt>
</event>
<event>
 5    1  0.3235144E-002  0.1249973E+03  0.7818608E-02  0.1235074E+00
         -4   -1    0    0    0  501 -0.00000000000E+00  0.00000000000E+00  0.40740927101E+02  0.40760716886E+02  0.12700000000E+01 0. -1.
          4   -1    0    0  501    0  0.00000000000E+00 -0.00000000000E+00 -0.95828819610E+02  0.95837234767E+02  0.12700000000E+01 0. -1.
         25    2    1    2    0    0  0.00000000000E+00  0.00000000000E+00 -0.55087892509E+02  0.13659795165E+03  0.12499729795E+03 0.  0.
    9000005    1    3    3    0    0  0.47174774708E+02  0.99517136842E+01  0.15902325118E+02  0.50777750228E+02  0.10000000000E+01 0.  0.
    9000005    1    3    3    0    0 -0.47174774708E+02 -0.99517136842E+01 -0.70990217627E+02  0.85820201426E+02  0.10000000000E+01 0.  0.
<mgrwt>
<rscale>  0 0.12499730E+03</rscale>
<asrwt>0</asrwt>
<pdfrwt beam="2">  1        4 0.14745065E-01 0.12499730E+03</pdfrwt>
<pdfrwt beam="1">  1       -4 0.62700046E-02 0.12499730E+03</pdfrwt>
<totfact> 0.10205121E+04</totfact>
</mgrwt>
</event>
<event>
 5    1  0.3235144E-002  0.1250016E+03  0.7818608E-02  0.1235067E+00
         -4   -1    0    0    0  501 -0.00000000000E+00  0.00000000000E+00  0.15580891075E+03  0.15581408655E+03  0.12700000000E+01 0.  1.
          4   -1    0    0  501    0  0.00000000000E+00 -0.00000000000E+00 -0.25049719864E+02  0.25081893176E+02  0.12700000000E+01 0.  1.
         25    2    1    2    0    0  0.00000000000E+00  0.00000000000E+00  0.13075919088E+03  0.18089597973E+03  0.12500155792E+03 0.  0.
    9000005    1    3    3    0    0  0.47873574541E+02 -0.38092860427E+02  0.83821656872E+02  0.10377868430E+03  0.10000000000E+01 0.  0.
    9000005    1    3    3    0    0 -0.47873574541E+02  0.38092860427E+02  0.46937534012E+02  0.77117295427E+02  0.10000000000E+01 0.  0.
<mgrwt>
<rscale>  0 0.12500156E+03</rscale>
<asrwt>0</asrwt>
<pdfrwt beam="2">  1        4 0.38566760E-02 0.12500156E+03</pdfrwt>
<pdfrwt beam="1">  1       -4 0.23973475E-01 0.12500156E+03</pdfrwt>
<totfact> 0.93452707E+03</totfact>
</mgrwt>
</event>
<event>
 5    1  0.3235144E-002  0.1249999E+03  0.7818608E-02  0.1235070E+00
          4   -1    0    0  501    0  0.00000000000E+00  0.00000000000E+00  0.94436254601E+02  0.94444793838E+02  0.12700000000E+01 0. -1.
         -4   -1    0    0    0  501 -0.00000000000E+00 -0.00000000000E+00 -0.41343626212E+02  0.41363127642E+02  0.12700000000E+01 0. -1.
         25    2    1    2    0    0  0.00000000000E+00  0.00000000000E+00  0.53092628389E+02  0.13580792148E+03  0.12499985739E+03 0.  0.
    9000005    1    3    3    0    0  0.62208587231E+02  0.58373021408E+01  0.27765221603E+02  0.68380479321E+02  0.10000000000E+01 0.  0.
    9000005    1    3    3    0    0 -0.62208587231E+02 -0.58373021408E+01  0.25327406786E+02  0.67427442158E+02  0.10000000000E+01 0.  0.
<mgrwt>
<rscale>  0 0.12499986E+03</rscale>
<asrwt>0</asrwt>
<pdfrwt beam="1">  1        4 0.14530811E-01 0.12499986E+03</pdfrwt>
<pdfrwt beam="2">  1       -4 0.63627149E-02 0.12499986E+03</pdfrwt>
<totfact> 0.10221103E+04</totfact>
</mgrwt>
</event>
<event>
 5    1  0.3235144E-002  0.1249998E+03  0.7818608E-02  0.1235070E+00
         -4   -1    0    0    0  501 -0.00000000000E+00  0.00000000000E+00  0.24213230365E+03  0.24213563424E+03  0.12700000000E+01 0. -1.
          4   -1    0    0  501    0  0.00000000000E+00 -0.00000000000E+00 -0.16104226610E+02  0.16154225909E+02  0.12700000000E+01 0. -1.
         25    2    1    2    0    0  0.00000000000E+00  0.00000000000E+00  0.22602807704E+03  0.25828986015E+03  0.12499984099E+03 0.  0.
    9000005    1    3    3    0    0 -0.32718988660E+02 -0.33070833440E+02  0.19923259588E+03  0.20459432911E+03  0.10000000000E+01 0.  0.
    9000005    1    3    3    0    0  0.32718988660E+02  0.33070833440E+02  0.26795481162E+02  0.53695531044E+02  0.10000000000E+01 0.  0.
<mgrwt>
<rscale>  0 0.12499984E+03</rscale>
<asrwt>0</asrwt>
<pdfrwt beam="2">  1        4 0.24816758E-02 0.12499984E+03</pdfrwt>
<pdfrwt beam="1">  1       -4 0.37255223E-01 0.12499984E+03</pdfrwt>
<totfact> 0.81146943E+03</totfact>
</mgrwt>
</event>
<event>
 5    1  0.3235144E-002  0.1250000E+03  0.7818608E-02  0.1235069E+00
          4   -1    0    0  501    0  0.00000000000E+00  0.00000000000E+00  0.52242294229E+02  0.52257728676E+02  0.12700000000E+01 0.  1.
         -4   -1    0    0    0  501 -0.00000000000E+00 -0.00000000000E+00 -0.74739924514E+02  0.74750713819E+02  0.12700000000E+01 0.  1.
         25    2    1    2    0    0  0.00000000000E+00  0.00000000000E+00 -0.22497630285E+02  0.12700844249E+03  0.12500000439E+03 0.  0.
    9000005    1    3    3    0    0  0.27807107579E+02 -0.48417495852E+02 -0.39766865930E+02  0.68555763889E+02  0.10000000000E+01 0.  0.
    9000005    1    3    3    0    0 -0.27807107579E+02  0.48417495852E+02  0.17269235645E+02  0.58452678606E+02  0.10000000000E+01 0.  0.
<mgrwt>
<rscale>  0 0.12500000E+03</rscale>
<asrwt>0</asrwt>
<pdfrwt beam="1">  1        4 0.80392933E-02 0.12500000E+03</pdfrwt>
<pdfrwt beam="2">  1       -4 0.11500467E-01 0.12500000E+03</pdfrwt>
<totfact> 0.10408961E+04</totfact>
</mgrwt>
</event>
<event>
 5    1  0.3235144E-002  0.1250022E+03  0.7818608E-02  0.1235066E+00
          4   -1    0    0  501    0  0.00000000000E+00  0.00000000000E+00  0.11778293930E+04  0.11778300777E+04  0.12700000000E+01 0. -1.
         -4   -1    0    0    0  501 -0.00000000000E+00 -0.00000000000E+00 -0.31943094916E+01  0.34375155459E+01  0.12700000000E+01 0. -1.
         25    2    1    2    0    0  0.00000000000E+00  0.00000000000E+00  0.11746350835E+04  0.11812675932E+04  0.12500218968E+03 0.  0.
    9000005    1    3    3    0    0 -0.58807835009E+02 -0.61691417516E+01  0.39621131029E+03  0.40060057685E+03  0.10000000000E+01 0.  0.
    9000005    1    3    3    0    0  0.58807835009E+02  0.61691417516E+01  0.77842377320E+03  0.78066701637E+03  0.10000000000E+01 0.  0.
<mgrwt>
<rscale>  0 0.12500219E+03</rscale>
<asrwt>0</asrwt>
<pdfrwt beam="1">  1        4 0.18122334E+00 0.12500219E+03</pdfrwt>
<pdfrwt beam="2">  1       -4 0.51019290E-03 0.12500219E+03</pdfrwt>
<totfact> 0.25207187E+03</totfact>
</mgrwt>
</event>
<event>
 5    1  0.3235144E-002  0.1249990E+03  0.7818608E-02  0.1235071E+00
          4   -1    0    0  501    0  0.00000000000E+00  0.00000000000E+00  0.13200830441E+02  0.13261780587E+02  0.12700000000E+01 0. -1.
         -4   -1    0    0    0  501 -0.00000000000E+00 -0.00000000000E+00 -0.29516087396E+03  0.29516360619E+03  0.12700000000E+01 0. -1.
         25    2    1    2    0    0  0.00000000000E+00  0.00000000000E+00 -0.28196004352E+03  0.30842538678E+03  0.12499901226E+03 0.  0.
    9000005    1    3    3    0    0 -0.60109334044E+02  0.15894687772E+02 -0.15647086311E+03  0.16837429774E+03  0.10000000000E+01 0.  0.
    9000005    1    3    3    0    0  0.60109334044E+02 -0.15894687772E+02 -0.12548918042E+03  0.14005108904E+03  0.10000000000E+01 0.  0.
<mgrwt>
<rscale>  0 0.12499901E+03</rscale>
<asrwt>0</asrwt>
<pdfrwt beam="1">  1        4 0.20357959E-02 0.12499901E+03</pdfrwt>
<pdfrwt beam="2">  1       -4 0.45414259E-01 0.12499901E+03</pdfrwt>
<totfact> 0.74555619E+03</totfact>
</mgrwt>
</event>
<event>
 5    1  0.3235144E-002  0.1250196E+03  0.7818608E-02  0.1235039E+00
         -4   -1    0    0    0  501 -0.00000000000E+00  0.00000000000E+00  0.21126008084E+03  0.21126389814E+03  0.12700000000E+01 0.  1.
          4   -1    0    0  501    0  0.00000000000E+00 -0.00000000000E+00 -0.18470241250E+02  0.18513851891E+02  0.12700000000E+01 0.  1.
         25    2    1    2    0    0  0.00000000000E+00  0.00000000000E+00  0.19278983959E+03  0.22977775003E+03  0.12501956711E+03 0.  0.
    9000005    1    3    3    0    0  0.15016382275E+02 -0.53120512918E+02  0.42521418982E+02  0.69687529024E+02  0.10000000000E+01 0.  0.
    9000005    1    3    3    0    0 -0.15016382275E+02  0.53120512918E+02  0.15026842061E+03  0.16009022101E+03  0.10000000000E+01 0.  0.
<mgrwt>
<rscale>  0 0.12501957E+03</rscale>
<asrwt>0</asrwt>
<pdfrwt beam="2">  1        4 0.28452240E-02 0.12501957E+03</pdfrwt>
<pdfrwt beam="1">  1       -4 0.32505198E-01 0.12501957E+03</pdfrwt>
<totfact> 0.85306487E+03</totfact>
</mgrwt>
</event>
<event>
 5    1  0.3235144E-002  0.1250008E+03  0.7818608E-02  0.1235068E+00
         -4   -1    0    0    0  501 -0.00000000000E+00  0.00000000000E+00  0.82132532198E+00  0.15124401755E+01  0.12700000000E+01 0.  1.
          4   -1    0    0  501    0  0.00000000000E+00 -0.00000000000E+00 -0.33469445143E+04  0.33469447553E+04  0.12700000000E+01 0.  1.
         25    2    1    2    0    0  0.00000000000E+00  0.00000000000E+00 -0.33461231890E+04  0.33484571954E+04  0.12500077515E+03 0.  0.
    9000005    1    3    3    0    0  0.57310711585E+02 -0.11124567889E+02 -0.22702633334E+04  0.22710140635E+04  0.10000000000E+01 0.  0.
    9000005    1    3    3    0    0 -0.57310711585E+02  0.11124567889E+02 -0.10758598556E+04  0.10774431319E+04  0.10000000000E+01 0.  0.
<mgrwt>
<rscale>  0 0.12500078E+03</rscale>
<asrwt>0</asrwt>
<pdfrwt beam="2">  1        4 0.51496004E+00 0.12500078E+03</pdfrwt>
<pdfrwt beam="1">  1       -4 0.17954164E-03 0.12500078E+03</pdfrwt>
<totfact> 0.83452998E+01</totfact>
</mgrwt>
</event>
<event>
 5    1  0.3235144E-002  0.1249998E+03  0.7818608E-02  0.1235070E+00
         -4   -1    0    0    0  501 -0.00000000000E+00  0.00000000000E+00  0.29771784036E+01  0.32367408371E+01  0.12700000000E+01 0.  1.
          4   -1    0    0  501    0  0.00000000000E+00 -0.00000000000E+00 -0.12569942099E+04  0.12569948514E+04  0.12700000000E+01 0.  1.
         25    2    1    2    0    0  0.00000000000E+00  0.00000000000E+00 -0.12540170315E+04  0.12602315923E+04  0.12499980386E+03 0.  0.
    9000005    1    3    3    0    0  0.28059546638E+02  0.21338080760E+02 -0.11472354629E+04  0.11477773561E+04  0.10000000000E+01 0.  0.
    9000005    1    3    3    0    0 -0.28059546638E+02 -0.21338080760E+02 -0.10678156858E+03  0.11245423618E+03  0.10000000000E+01 0.  0.
<mgrwt>
<rscale>  0 0.12499980E+03</rscale>
<asrwt>0</asrwt>
<pdfrwt beam="2">  1        4 0.19340333E+00 0.12499980E+03</pdfrwt>
<pdfrwt beam="1">  1       -4 0.47804414E-03 0.12499980E+03</pdfrwt>
<totfact> 0.23187171E+03</totfact>
</mgrwt>
</event>
<event>
 5    1  0.3235144E-002  0.1250005E+03  0.7818608E-02  0.1235069E+00
          4   -1    0    0  501    0  0.00000000000E+00  0.00000000000E+00  0.19433152035E+03  0.19433567017E+03  0.12700000000E+01 0.  1.
         -4   -1    0    0    0  501 -0.00000000000E+00 -0.00000000000E+00 -0.20076680388E+02  0.20116808778E+02  0.12700000000E+01 0.  1.
         25    2    1    2    0    0  0.00000000000E+00  0.00000000000E+00  0.17425483996E+03  0.21445247895E+03  0.12500046591E+03 0.  0.
    9000005    1    3    3    0    0  0.29078194922E+02 -0.84445677820E+01  0.18091401374E+03  0.18343318269E+03  0.10000000000E+01 0.  0.
    9000005    1    3    3    0    0 -0.29078194922E+02  0.84445677820E+01 -0.66591737786E+01  0.31019296258E+02  0.10000000000E+01 0.  0.
<mgrwt>
<rscale>  0 0.12500047E+03</rscale>
<asrwt>0</asrwt>
<pdfrwt beam="1">  1        4 0.29900562E-01 0.12500047E+03</pdfrwt>
<pdfrwt beam="2">  1       -4 0.30921262E-02 0.12500047E+03</pdfrwt>
<totfact> 0.87752943E+03</totfact>
</mgrwt>
</event>
<event>
 5    1  0.3235144E-002  0.1250021E+03  0.7818608E-02  0.1235066E+00
         -4   -1    0    0    0  501 -0.00000000000E+00  0.00000000000E+00  0.83743499592E+02  0.83753129039E+02  0.12700000000E+01 0. -1.
          4   -1    0    0  501    0  0.00000000000E+00 -0.00000000000E+00 -0.46626007068E+02  0.46643300003E+02  0.12700000000E+01 0. -1.
         25    2    1    2    0    0  0.00000000000E+00  0.00000000000E+00  0.37117492523E+02  0.13039642904E+03  0.12500208180E+03 0.  0.
    9000005    1    3    3    0    0 -0.26540130244E+02  0.43838243871E+02  0.55868241283E+02  0.75818404910E+02  0.10000000000E+01 0.  0.
    9000005    1    3    3    0    0  0.26540130244E+02 -0.43838243871E+02 -0.18750748760E+02  0.54578024131E+02  0.10000000000E+01 0.  0.
<mgrwt>
<rscale>  0 0.12500208E+03</rscale>
<asrwt>0</asrwt>
<pdfrwt beam="2">  1        4 0.71753029E-02 0.12500208E+03</pdfrwt>
<pdfrwt beam="1">  1       -4 0.12885686E-01 0.12500208E+03</pdfrwt>
<totfact> 0.10335549E+04</totfact>
</mgrwt>
</event>
<event>
 5    1  0.3235144E-002  0.1250010E+03  0.7818608E-02  0.1235068E+00
         -4   -1    0    0    0  501 -0.00000000000E+00  0.00000000000E+00  0.24851628143E+02  0.24884057574E+02  0.12700000000E+01 0. -1.
          4   -1    0    0  501    0  0.00000000000E+00 -0.00000000000E+00 -0.15704781353E+03  0.15705294851E+03  0.12700000000E+01 0. -1.
         25    2    1    2    0    0  0.00000000000E+00  0.00000000000E+00 -0.13219618539E+03  0.18193700608E+03  0.12500097100E+03 0.  0.
    9000005    1    3    3    0    0  0.12246524752E+01 -0.41528566136E+02 -0.13404271942E+03  0.14033735144E+03  0.10000000000E+01 0.  0.
    9000005    1    3    3    0    0 -0.12246524752E+01  0.41528566136E+02  0.18465340279E+01  0.41599654648E+02  0.10000000000E+01 0.  0.
<mgrwt>
<rscale>  0 0.12500097E+03</rscale>
<asrwt>0</asrwt>
<pdfrwt beam="2">  1        4 0.24164091E-01 0.12500097E+03</pdfrwt>
<pdfrwt beam="1">  1       -4 0.38262171E-02 0.12500097E+03</pdfrwt>
<totfact> 0.93267463E+03</totfact>
</mgrwt>
</event>
<event>
 5    1  0.3235144E-002  0.1249991E+03  0.7818608E-02  0.1235071E+00
          4   -1    0    0  501    0  0.00000000000E+00  0.00000000000E+00  0.82975798586E+02  0.82985517115E+02  0.12700000000E+01 0.  1.
         -4   -1    0    0    0  501 -0.00000000000E+00 -0.00000000000E+00 -0.47055271251E+02  0.47072406487E+02  0.12700000000E+01 0.  1.
         25    2    1    2    0    0  0.00000000000E+00  0.00000000000E+00  0.35920527335E+02  0.13005792360E+03  0.12499911683E+03 0.  0.
    9000005    1    3    3    0    0  0.17679195546E+02 -0.40564147655E+02 -0.27952572682E+02  0.52348355750E+02  0.10000000000E+01 0.  0.
    9000005    1    3    3    0    0 -0.17679195546E+02  0.40564147655E+02  0.63873100017E+02  0.77709567853E+02  0.10000000000E+01 0.  0.
<mgrwt>
<rscale>  0 0.12499912E+03</rscale>
<asrwt>0</asrwt>
<pdfrwt beam="1">  1        4 0.12767573E-01 0.12499912E+03</pdfrwt>
<pdfrwt beam="2">  1       -4 0.72413382E-02 0.12499912E+03</pdfrwt>
<totfact> 0.10343475E+04</totfact>
</mgrwt>
</event>
<event>
 5    1  0.3235144E-002  0.1250023E+03  0.7818608E-02  0.1235066E+00
          4   -1    0    0  501    0  0.00000000000E+00  0.00000000000E+00  0.18500339727E+02  0.18543879584E+02  0.12700000000E+01 0. -1.
         -4   -1    0    0    0  501 -0.00000000000E+00 -0.00000000000E+00 -0.21085895739E+03  0.21086278195E+03  0.12700000000E+01 0. -1.
         25    2    1    2    0    0  0.00000000000E+00  0.00000000000E+00 -0.19235861767E+03  0.22940666154E+03  0.12500231425E+03 0.  0.
    9000005    1    3    3    0    0 -0.25705936792E+02  0.56697169716E+02 -0.10623631097E+03  0.12313617668E+03  0.10000000000E+01 0.  0.
    9000005    1    3    3    0    0  0.25705936792E+02 -0.56697169716E+02 -0.86122306700E+02  0.10627048486E+03  0.10000000000E+01 0.  0.
<mgrwt>
<rscale>  0 0.12500231E+03</rscale>
<asrwt>0</asrwt>
<pdfrwt beam="1">  1        4 0.28498497E-02 0.12500231E+03</pdfrwt>
<pdfrwt beam="2">  1       -4 0.32443481E-01 0.12500231E+03</pdfrwt>
<totfact> 0.85396379E+03</totfact>
</mgrwt>
</event>
<event>
 5    1  0.3235144E-002  0.1249986E+03  0.7818608E-02  0.1235072E+00
          4   -1    0    0  501    0  0.00000000000E+00  0.00000000000E+00  0.57491767063E+02  0.57505792578E+02  0.12700000000E+01 0.  1.
         -4   -1    0    0    0  501 -0.00000000000E+00 -0.00000000000E+00 -0.67914714154E+02  0.67926587568E+02  0.12700000000E+01 0.  1.
         25    2    1    2    0    0  0.00000000000E+00  0.00000000000E+00 -0.10422947091E+02  0.12543238015E+03  0.12499857664E+03 0.  0.
    9000005    1    3    3    0    0 -0.37792674881E+02  0.49079411160E+02  0.30685969806E+01  0.62028148142E+02  0.10000000000E+01 0.  0.
    9000005    1    3    3    0    0  0.37792674881E+02 -0.49079411160E+02 -0.13491544071E+02  0.63404232004E+02  0.10000000000E+01 0.  0.
<mgrwt>
<rscale>  0 0.12499858E+03</rscale>
<asrwt>0</asrwt>
<pdfrwt beam="1">  1        4 0.88468795E-02 0.12499858E+03</pdfrwt>
<pdfrwt beam="2">  1       -4 0.10450410E-01 0.12499858E+03</pdfrwt>
<totfact> 0.10443785E+04</totfact>
</mgrwt>
</event>
<event>
 5    1  0.3235144E-002  0.1249877E+03  0.7818608E-02  0.1235089E+00
          4   -1    0    0  501    0  0.00000000000E+00  0.00000000000E+00  0.25748176819E+03  0.25748490023E+03  0.12700000000E+01 0. -1.
         -4   -1    0    0    0  501 -0.00000000000E+00 -0.00000000000E+00 -0.15138170650E+02  0.15191349862E+02  0.12700000000E+01 0. -1.
         25    2    1    2    0    0  0.00000000000E+00  0.00000000000E+00  0.24234359754E+03  0.27267625010E+03  0.12498767179E+03 0.  0.
    9000005    1    3    3    0    0  0.35909101995E+02 -0.37950501024E+02  0.19594699385E+03  0.20279528725E+03  0.10000000000E+01 0.  0.
    9000005    1    3    3    0    0 -0.35909101995E+02  0.37950501024E+02  0.46396603687E+02  0.69880962842E+02  0.10000000000E+01 0.  0.
<mgrwt>
<rscale>  0 0.12498767E+03</rscale>
<asrwt>0</asrwt>
<pdfrwt beam="1">  1        4 0.39616907E-01 0.12498767E+03</pdfrwt>
<pdfrwt beam="2">  1       -4 0.23332812E-02 0.12498767E+03</pdfrwt>
<totfact> 0.79181021E+03</totfact>
</mgrwt>
</event>
<event>
 5    1  0.3235144E-002  0.1250355E+03  0.7818608E-02  0.1235014E+00
          4   -1    0    0  501    0  0.00000000000E+00  0.00000000000E+00  0.18519208789E+03  0.18519644251E+03  0.12700000000E+01 0.  1.
         -4   -1    0    0    0  501 -0.00000000000E+00 -0.00000000000E+00 -0.21081226071E+02  0.21119445842E+02  0.12700000000E+01 0.  1.
         25    2    1    2    0    0  0.00000000000E+00  0.00000000000E+00  0.16411086182E+03  0.20631588835E+03  0.12503547824E+03 0.  0.
    9000005    1    3    3    0    0 -0.20366321530E+02  0.32497865678E+02  0.60585908307E+00  0.38370110652E+02  0.10000000000E+01 0.  0.
    9000005    1    3    3    0    0  0.20366321530E+02 -0.32497865678E+02  0.16350500273E+03  0.16794577770E+03  0.10000000000E+01 0.  0.
<mgrwt>
<rscale>  0 0.12503548E+03</rscale>
<asrwt>0</asrwt>
<pdfrwt beam="1">  1        4 0.28494366E-01 0.12503548E+03</pdfrwt>
<pdfrwt beam="2">  1       -4 0.32465404E-02 0.12503548E+03</pdfrwt>
<totfact> 0.89010457E+03</totfact>
</mgrwt>
</event>
<event>
 5    1  0.3235144E-002  0.1249980E+03  0.7818608E-02  0.1235072E+00
          4   -1    0    0  501    0  0.00000000000E+00  0.00000000000E+00  0.63647293557E+02  0.63659962905E+02  0.12700000000E+01 0.  1.
         -4   -1    0    0    0  501 -0.00000000000E+00 -0.00000000000E+00 -0.61346081412E+02  0.61359225913E+02  0.12700000000E+01 0.  1.
         25    2    1    2    0    0  0.00000000000E+00  0.00000000000E+00  0.23012121446E+01  0.12501918882E+03  0.12499800797E+03 0.  0.
    9000005    1    3    3    0    0 -0.62247473918E+02 -0.55041222529E+01  0.86397780596E+00  0.62504318479E+02  0.10000000000E+01 0.  0.
    9000005    1    3    3    0    0  0.62247473918E+02  0.55041222529E+01  0.14372343386E+01  0.62514870339E+02  0.10000000000E+01 0.  0.
<mgrwt>
<rscale>  0 0.12499801E+03</rscale>
<asrwt>0</asrwt>
<pdfrwt beam="1">  1        4 0.97938770E-02 0.12499801E+03</pdfrwt>
<pdfrwt beam="2">  1       -4 0.94398443E-02 0.12499801E+03</pdfrwt>
<totfact> 0.10452916E+04</totfact>
</mgrwt>
</event>
<event>
 5    1  0.3235144E-002  0.1250368E+03  0.7818608E-02  0.1235012E+00
          4   -1    0    0  501    0  0.00000000000E+00  0.00000000000E+00  0.42859741088E+03  0.42859929247E+03  0.12700000000E+01 0.  1.
         -4   -1    0    0    0  501 -0.00000000000E+00 -0.00000000000E+00 -0.90732680292E+01  0.91617188742E+01  0.12700000000E+01 0.  1.
         25    2    1    2    0    0  0.00000000000E+00  0.00000000000E+00  0.41952414285E+03  0.43776101135E+03  0.12503678109E+03 0.  0.
    9000005    1    3    3    0    0  0.10814961692E+01 -0.15640759502E+02 -0.20952182160E+01  0.15849067201E+02  0.10000000000E+01 0.  0.
    9000005    1    3    3    0    0 -0.10814961692E+01  0.15640759502E+02  0.42161936106E+03  0.42191194415E+03  0.10000000000E+01 0.  0.
<mgrwt>
<rscale>  0 0.12503678E+03</rscale>
<asrwt>0</asrwt>
<pdfrwt beam="1">  1        4 0.65944999E-01 0.12503678E+03</pdfrwt>
<pdfrwt beam="2">  1       -4 0.14028363E-02 0.12503678E+03</pdfrwt>
<totfact> 0.60989296E+03</totfact>
</mgrwt>
</event>
<event>
 5    1  0.3235144E-002  0.1250054E+03  0.7818608E-02  0.1235061E+00
          4   -1    0    0  501    0  0.00000000000E+00  0.00000000000E+00  0.26189763787E+03  0.26190071711E+03  0.12700000000E+01 0. -1.
         -4   -1    0    0    0  501 -0.00000000000E+00 -0.00000000000E+00 -0.14886266543E+02  0.14940342419E+02  0.12700000000E+01 0. -1.
         25    2    1    2    0    0  0.00000000000E+00  0.00000000000E+00  0.24701137132E+03  0.27684105953E+03  0.12500541859E+03 0.  0.
    9000005    1    3    3    0    0 -0.58226992191E+02  0.11000899630E+02  0.16747527437E+03  0.17765238512E+03  0.10000000000E+01 0.  0.
    9000005    1    3    3    0    0  0.58226992191E+02 -0.11000899630E+02  0.79536096953E+02  0.99188674408E+02  0.10000000000E+01 0.  0.
<mgrwt>
<rscale>  0 0.12500542E+03</rscale>
<asrwt>0</asrwt>
<pdfrwt beam="1">  1        4 0.40296340E-01 0.12500542E+03</pdfrwt>
<pdfrwt beam="2">  1       -4 0.22945914E-02 0.12500542E+03</pdfrwt>
<totfact> 0.78589361E+03</totfact>
</mgrwt>
</event>
<event>
 5    1  0.3235144E-002  0.1250002E+03  0.7818608E-02  0.1235069E+00
          4   -1    0    0  501    0  0.00000000000E+00  0.00000000000E+00  0.36047316959E+02  0.36069682005E+02  0.12700000000E+01 0.  1.
         -4   -1    0    0    0  501 -0.00000000000E+00 -0.00000000000E+00 -0.10830517907E+03  0.10831262490E+03  0.12700000000E+01 0.  1.
         25    2    1    2    0    0  0.00000000000E+00  0.00000000000E+00 -0.72257862108E+02  0.14438230691E+03  0.12500020764E+03 0.  0.
    9000005    1    3    3    0    0  0.51123817576E+02 -0.11590088922E+02 -0.75422726914E+02  0.91856206213E+02  0.10000000000E+01 0.  0.
    9000005    1    3    3    0    0 -0.51123817576E+02  0.11590088922E+02  0.31648648058E+01  0.52526100693E+02  0.10000000000E+01 0.  0.
<mgrwt>
<rscale>  0 0.12500021E+03</rscale>
<asrwt>0</asrwt>
<pdfrwt beam="1">  1        4 0.55480342E-02 0.12500021E+03</pdfrwt>
<pdfrwt beam="2">  1       -4 0.16664628E-01 0.12500021E+03</pdfrwt>
<totfact> 0.10043507E+04</totfact>
</mgrwt>
</event>
<event>
 5    1  0.3235144E-002  0.1250001E+03  0.7818608E-02  0.1235069E+00
         -4   -1    0    0    0  501 -0.00000000000E+00  0.00000000000E+00  0.44290082033E+01  0.46074953787E+01  0.12700000000E+01 0. -1.
          4   -1    0    0  501    0  0.00000000000E+00 -0.00000000000E+00 -0.86437081229E+03  0.86437174528E+03  0.12700000000E+01 0. -1.
         25    2    1    2    0    0  0.00000000000E+00  0.00000000000E+00 -0.85994180409E+03  0.86897924066E+03  0.12500005712E+03 0.  0.
    9000005    1    3    3    0    0 -0.55878816126E+01 -0.20511831754E+02 -0.83849338355E+03  0.83876344336E+03  0.10000000000E+01 0.  0.
    9000005    1    3    3    0    0  0.55878816126E+01  0.20511831754E+02 -0.21448420538E+02  0.30215797299E+02  0.10000000000E+01 0.  0.
<mgrwt>
<rscale>  0 0.12500006E+03</rscale>
<asrwt>0</asrwt>
<pdfrwt beam="2">  1        4 0.13299380E+00 0.12500006E+03</pdfrwt>
<pdfrwt beam="1">  1       -4 0.69518811E-03 0.12500006E+03</pdfrwt>
<totfact> 0.35363005E+03</totfact>
</mgrwt>
</event>
<event>
 5    1  0.3235144E-002  0.1250028E+03  0.7818608E-02  0.1235065E+00
          4   -1    0    0  501    0  0.00000000000E+00  0.00000000000E+00  0.42691105577E+02  0.42709991751E+02  0.12700000000E+01 0. -1.
         -4   -1    0    0    0  501 -0.00000000000E+00 -0.00000000000E+00 -0.91460851435E+02  0.91469668444E+02  0.12700000000E+01 0. -1.
         25    2    1    2    0    0  0.00000000000E+00  0.00000000000E+00 -0.48769745858E+02  0.13417966019E+03  0.12500277236E+03 0.  0.
    9000005    1    3    3    0    0  0.26972968886E+02  0.33460164816E+02  0.24314272117E+02  0.49389346105E+02  0.10000000000E+01 0.  0.
    9000005    1    3    3    0    0 -0.26972968886E+02 -0.33460164816E+02 -0.73084017976E+02  0.84790314090E+02  0.10000000000E+01 0.  0.
<mgrwt>
<rscale>  0 0.12500277E+03</rscale>
<asrwt>0</asrwt>
<pdfrwt beam="1">  1        4 0.65699934E-02 0.12500277E+03</pdfrwt>
<pdfrwt beam="2">  1       -4 0.14073031E-01 0.12500277E+03</pdfrwt>
<totfact> 0.10254749E+04</totfact>
</mgrwt>
</event>
<event>
 4    1  0.3235144E-002  0.1256541E+03  0.7818608E-02  0.1234051E+00
          4   -1    0    0  501    0  0.00000000000E+00  0.00000000000E+00  0.72766237604E+01  0.73866198867E+01  0.12700000000E+01 0. -1.
         -4   -1    0    0    0  501 -0.00000000000E+00 -0.00000000000E+00 -0.53827464964E+03  0.53827614786E+03  0.12700000000E+01 0. -1.
    9000005    1    1    2    0    0 -0.23756519611E+02 -0.43919145518E+02 -0.43102899570E+03  0.43391273167E+03  0.10000000000E+01 0.  0.
    9000005    1    1    2    0    0  0.23756519611E+02  0.43919145518E+02 -0.99969030180E+02  0.11175003607E+03  0.10000000000E+01 0.  0.
<mgrwt>
<rscale>  0 0.12565410E+03</rscale>
<asrwt>0</asrwt>
<pdfrwt beam="1">  1        4 0.11280575E-02 0.12565410E+03</pdfrwt>
<pdfrwt beam="2">  1       -4 0.82820030E-01 0.12565410E+03</pdfrwt>
<totfact> 0.51741013E+03</totfact>
</mgrwt>
</event>
<event>
 5    1  0.3235144E-002  0.1249994E+03  0.7818608E-02  0.1235070E+00
         -4   -1    0    0    0  501 -0.00000000000E+00  0.00000000000E+00  0.10094718687E+02  0.10174293360E+02  0.12700000000E+01 0.  1.
          4   -1    0    0  501    0  0.00000000000E+00 -0.00000000000E+00 -0.38535624757E+03  0.38535834030E+03  0.12700000000E+01 0.  1.
         25    2    1    2    0    0  0.00000000000E+00  0.00000000000E+00 -0.37526152888E+03  0.39553263366E+03  0.12499939693E+03 0.  0.
    9000005    1    3    3    0    0  0.11466099054E+02  0.10061425878E+02 -0.37938978970E+03  0.37969766427E+03  0.10000000000E+01 0.  0.
    9000005    1    3    3    0    0 -0.11466099054E+02 -0.10061425878E+02  0.41282608246E+01  0.15834969392E+02  0.10000000000E+01 0.  0.
<mgrwt>
<rscale>  0 0.12499940E+03</rscale>
<asrwt>0</asrwt>
<pdfrwt beam="2">  1        4 0.59291847E-01 0.12499940E+03</pdfrwt>
<pdfrwt beam="1">  1       -4 0.15593161E-02 0.12499940E+03</pdfrwt>
<totfact> 0.64990482E+03</totfact>
</mgrwt>
</event>
<event>
 5    1  0.3235144E-002  0.1250174E+03  0.7818608E-02  0.1235042E+00
         -4   -1    0    0    0  501 -0.00000000000E+00  0.00000000000E+00  0.77345799495E+02  0.77356225345E+02  0.12700000000E+01 0.  1.
          4   -1    0    0  501    0  0.00000000000E+00 -0.00000000000E+00 -0.50495977766E+02  0.50511945820E+02  0.12700000000E+01 0.  1.
         25    2    1    2    0    0  0.00000000000E+00  0.00000000000E+00  0.26849821729E+02  0.12786817117E+03  0.12501742387E+03 0.  0.
    9000005    1    3    3    0    0  0.55284527674E+02 -0.23426156243E+02  0.31175041888E+02  0.67661266861E+02  0.10000000000E+01 0.  0.
    9000005    1    3    3    0    0 -0.55284527674E+02  0.23426156243E+02 -0.43252201589E+01  0.60206904304E+02  0.10000000000E+01 0.  0.
<mgrwt>
<rscale>  0 0.12501742E+03</rscale>
<asrwt>0</asrwt>
<pdfrwt beam="2">  1        4 0.77706422E-02 0.12501742E+03</pdfrwt>
<pdfrwt beam="1">  1       -4 0.11901384E-01 0.12501742E+03</pdfrwt>
<totfact> 0.10386250E+04</totfact>
</mgrwt>
</event>
<event>
 5    1  0.3235144E-002  0.1250032E+03  0.7818608E-02  0.1235064E+00
         -4   -1    0    0    0  501 -0.00000000000E+00  0.00000000000E+00  0.33396631237E+02  0.33420770159E+02  0.12700000000E+01 0. -1.
          4   -1    0    0  501    0  0.00000000000E+00 -0.00000000000E+00 -0.11690151504E+03  0.11690841338E+03  0.12700000000E+01 0. -1.
         25    2    1    2    0    0  0.00000000000E+00  0.00000000000E+00 -0.83504883803E+02  0.15032918354E+03  0.12500319118E+03 0.  0.
    9000005    1    3    3    0    0  0.12088440269E+02 -0.50903095678E+02 -0.82856023686E+02  0.97996817289E+02  0.10000000000E+01 0.  0.
    9000005    1    3    3    0    0 -0.12088440269E+02  0.50903095678E+02 -0.64886011715E+00  0.52332366248E+02  0.10000000000E+01 0.  0.
<mgrwt>
<rscale>  0 0.12500319E+03</rscale>
<asrwt>0</asrwt>
<pdfrwt beam="2">  1        4 0.17987236E-01 0.12500319E+03</pdfrwt>
<pdfrwt beam="1">  1       -4 0.51403308E-02 0.12500319E+03</pdfrwt>
<totfact> 0.99230994E+03</totfact>
</mgrwt>
</event>
<event>
 5    1  0.3235144E-002  0.1250005E+03  0.7818608E-02  0.1235068E+00
          4   -1    0    0  501    0  0.00000000000E+00  0.00000000000E+00  0.59024216285E+01  0.60375061972E+01  0.12700000000E+01 0.  1.
         -4   -1    0    0    0  501 -0.00000000000E+00 -0.00000000000E+00 -0.65418712306E+03  0.65418835581E+03  0.12700000000E+01 0.  1.
         25    2    1    2    0    0  0.00000000000E+00  0.00000000000E+00 -0.64828470143E+03  0.66022586200E+03  0.12500053901E+03 0.  0.
    9000005    1    3    3    0    0 -0.92053719786E+01 -0.26056701556E+02 -0.62018590867E+03  0.62080210364E+03  0.10000000000E+01 0.  0.
    9000005    1    3    3    0    0  0.92053719786E+01  0.26056701556E+02 -0.28098792760E+02  0.39423758367E+02  0.10000000000E+01 0.  0.
<mgrwt>
<rscale>  0 0.12500054E+03</rscale>
<asrwt>0</asrwt>
<pdfrwt beam="1">  1        4 0.91855133E-03 0.12500054E+03</pdfrwt>
<pdfrwt beam="2">  1       -4 0.10065460E+00 0.12500054E+03</pdfrwt>
<totfact> 0.45270447E+03</totfact>
</mgrwt>
</event>
<event>
 5    1  0.3235144E-002  0.1250009E+03  0.7818608E-02  0.1235068E+00
          4   -1    0    0  501    0  0.00000000000E+00  0.00000000000E+00  0.10427106298E+04  0.10427114032E+04  0.12700000000E+01 0.  1.
         -4   -1    0    0    0  501 -0.00000000000E+00 -0.00000000000E+00 -0.36378712501E+01  0.38531814429E+01  0.12700000000E+01 0.  1.
         25    2    1    2    0    0  0.00000000000E+00  0.00000000000E+00  0.10390727586E+04  0.10465645847E+04  0.12500092921E+03 0.  0.
    9000005    1    3    3    0    0 -0.16584382631E+02  0.44984241741E+02  0.18393937839E+03  0.19008766050E+03  0.10000000000E+01 0.  0.
    9000005    1    3    3    0    0  0.16584382631E+02 -0.44984241741E+02  0.85513338019E+03  0.85647692419E+03  0.10000000000E+01 0.  0.
<mgrwt>
<rscale>  0 0.12500093E+03</rscale>
<asrwt>0</asrwt>
<pdfrwt beam="1">  1        4 0.16043362E+00 0.12500093E+03</pdfrwt>
<pdfrwt beam="2">  1       -4 0.57629441E-03 0.12500093E+03</pdfrwt>
<totfact> 0.29101691E+03</totfact>
</mgrwt>
</event>
<event>
 5    1  0.3235144E-002  0.1249978E+03  0.7818608E-02  0.1235073E+00
          4   -1    0    0  501    0  0.00000000000E+00  0.00000000000E+00  0.13222464696E+02  0.13283315573E+02  0.12700000000E+01 0. -1.
         -4   -1    0    0    0  501 -0.00000000000E+00 -0.00000000000E+00 -0.29467448749E+03  0.29467722423E+03  0.12700000000E+01 0. -1.
         25    2    1    2    0    0  0.00000000000E+00  0.00000000000E+00 -0.28145202280E+03  0.30796053980E+03  0.12499781174E+03 0.  0.
    9000005    1    3    3    0    0  0.64408764588E+01 -0.45185387736E+02 -0.24588732739E+03  0.25008954781E+03  0.10000000000E+01 0.  0.
    9000005    1    3    3    0    0 -0.64408764588E+01  0.45185387736E+02 -0.35564695408E+02  0.57870991990E+02  0.10000000000E+01 0.  0.
<mgrwt>
<rscale>  0 0.12499781E+03</rscale>
<asrwt>0</asrwt>
<pdfrwt beam="1">  1        4 0.20391169E-02 0.12499781E+03</pdfrwt>
<pdfrwt beam="2">  1       -4 0.45339423E-01 0.12499781E+03</pdfrwt>
<totfact> 0.74614636E+03</totfact>
</mgrwt>
</event>
<event>
 5    1  0.3235144E-002  0.1250086E+03  0.7818608E-02  0.1235056E+00
          4   -1    0    0  501    0  0.00000000000E+00  0.00000000000E+00  0.24223133365E+03  0.24223466288E+03  0.12700000000E+01 0. -1.
         -4   -1    0    0    0  501 -0.00000000000E+00 -0.00000000000E+00 -0.16099891010E+02  0.16149903731E+02  0.12700000000E+01 0. -1.
         25    2    1    2    0    0  0.00000000000E+00  0.00000000000E+00  0.22613144264E+03  0.25838456661E+03  0.12500861936E+03 0.  0.
    9000005    1    3    3    0    0  0.19511177746E+02 -0.58554754420E+02  0.92767271099E+02  0.11142760838E+03  0.10000000000E+01 0.  0.
    9000005    1    3    3    0    0 -0.19511177746E+02  0.58554754420E+02  0.13336417154E+03  0.14695695823E+03  0.10000000000E+01 0.  0.
<mgrwt>
<rscale>  0 0.12500862E+03</rscale>
<asrwt>0</asrwt>
<pdfrwt beam="1">  1        4 0.37270460E-01 0.12500862E+03</pdfrwt>
<pdfrwt beam="2">  1       -4 0.24810097E-02 0.12500862E+03</pdfrwt>
<totfact> 0.81117733E+03</totfact>
</mgrwt>
</event>
<event>
 5    1  0.3235144E-002  0.1249948E+03  0.7818608E-02  0.1235077E+00
          4   -1    0    0  501    0  0.00000000000E+00  0.00000000000E+00  0.10529268327E+03  0.10530034212E+03  0.12700000000E+01 0. -1.
         -4   -1    0    0    0  501 -0.00000000000E+00 -0.00000000000E+00 -0.37075974285E+02  0.37097719191E+02  0.12700000000E+01 0. -1.
         25    2    1    2    0    0  0.00000000000E+00  0.00000000000E+00  0.68216708982E+02  0.14239806131E+03  0.12499475381E+03 0.  0.
    9000005    1    3    3    0    0 -0.57483549692E+02 -0.13924887797E+02  0.57081931739E+02  0.82204670892E+02  0.10000000000E+01 0.  0.
    9000005    1    3    3    0    0  0.57483549692E+02  0.13924887797E+02  0.11134777243E+02  0.60193390415E+02  0.10000000000E+01 0.  0.
<mgrwt>
<rscale>  0 0.12499475E+03</rscale>
<asrwt>0</asrwt>
<pdfrwt beam="1">  1        4 0.16201136E-01 0.12499475E+03</pdfrwt>
<pdfrwt beam="2">  1       -4 0.57062579E-02 0.12499475E+03</pdfrwt>
<totfact> 0.10085316E+04</totfact>
</mgrwt>
</event>
<event>
 5    1  0.3235144E-002  0.1250015E+03  0.7818608E-02  0.1235067E+00
         -4   -1    0    0    0  501 -0.00000000000E+00  0.00000000000E+00  0.62166679922E+02  0.62179650952E+02  0.12700000000E+01 0.  1.
          4   -1    0    0  501    0  0.00000000000E+00 -0.00000000000E+00 -0.62810655721E+02  0.62823493791E+02  0.12700000000E+01 0.  1.
         25    2    1    2    0    0  0.00000000000E+00  0.00000000000E+00 -0.64397579906E+00  0.12500314474E+03  0.12500148595E+03 0.  0.
    9000005    1    3    3    0    0 -0.33486728668E+02 -0.40787111253E+02  0.33150734834E+02  0.62329131723E+02  0.10000000000E+01 0.  0.
    9000005    1    3    3    0    0  0.33486728668E+02  0.40787111253E+02 -0.33794710633E+02  0.62674013020E+02  0.10000000000E+01 0.  0.
<mgrwt>
<rscale>  0 0.12500149E+03</rscale>
<asrwt>0</asrwt>
<pdfrwt beam="2">  1        4 0.96651632E-02 0.12500149E+03</pdfrwt>
<pdfrwt beam="1">  1       -4 0.95660899E-02 0.12500149E+03</pdfrwt>
<totfact> 0.10452443E+04</totfact>
</mgrwt>
</event>
<event>
 5    1  0.3235144E-002  0.1249992E+03  0.7818608E-02  0.1235071E+00
         -4   -1    0    0    0  501 -0.00000000000E+00  0.00000000000E+00  0.22283223187E+03  0.22283585093E+03  0.12700000000E+01 0. -1.
          4   -1    0    0  501    0  0.00000000000E+00 -0.00000000000E+00 -0.17503009016E+02  0.17549023466E+02  0.12700000000E+01 0. -1.
         25    2    1    2    0    0  0.00000000000E+00  0.00000000000E+00  0.20532922285E+03  0.24038487439E+03  0.12499919232E+03 0.  0.
    9000005    1    3    3    0    0  0.25209101360E+02 -0.24083731671E+02  0.29291040987E+01  0.35001493874E+02  0.10000000000E+01 0.  0.
    9000005    1    3    3    0    0 -0.25209101360E+02  0.24083731671E+02  0.20240011875E+03  0.20538338052E+03  0.10000000000E+01 0.  0.
<mgrwt>
<rscale>  0 0.12499919E+03</rscale>
<asrwt>0</asrwt>
<pdfrwt beam="2">  1        4 0.26965888E-02 0.12499919E+03</pdfrwt>
<pdfrwt beam="1">  1       -4 0.34285696E-01 0.12499919E+03</pdfrwt>
<totfact> 0.83741590E+03</totfact>
</mgrwt>
</event>
<event>
 5    1  0.3235144E-002  0.1250031E+03  0.7818608E-02  0.1235064E+00
          4   -1    0    0  501    0  0.00000000000E+00  0.00000000000E+00  0.48340370690E+02  0.48357050556E+02  0.12700000000E+01 0.  1.
         -4   -1    0    0    0  501 -0.00000000000E+00 -0.00000000000E+00 -0.80775632676E+02  0.80785615887E+02  0.12700000000E+01 0.  1.
         25    2    1    2    0    0  0.00000000000E+00  0.00000000000E+00 -0.32435261986E+02  0.12914266644E+03  0.12500312826E+03 0.  0.
    9000005    1    3    3    0    0  0.34382907640E+02  0.51156320715E+02 -0.26868847741E+02  0.67246475490E+02  0.10000000000E+01 0.  0.
    9000005    1    3    3    0    0 -0.34382907640E+02 -0.51156320715E+02 -0.55664142447E+01  0.61896190952E+02  0.10000000000E+01 0.  0.
<mgrwt>
<rscale>  0 0.12500313E+03</rscale>
<asrwt>0</asrwt>
<pdfrwt beam="1">  1        4 0.74390311E-02 0.12500313E+03</pdfrwt>
<pdfrwt beam="2">  1       -4 0.12429071E-01 0.12500313E+03</pdfrwt>
<totfact> 0.10362150E+04</totfact>
</mgrwt>
</event>
<event>
 5    1  0.3235144E-002  0.1249993E+03  0.7818608E-02  0.1235070E+00
         -4   -1    0    0    0  501 -0.00000000000E+00  0.00000000000E+00  0.74019610937E+03  0.74019719888E+03  0.12700000000E+01 0. -1.
          4   -1    0    0  501    0  0.00000000000E+00 -0.00000000000E+00 -0.51997445024E+01  0.53525921655E+01  0.12700000000E+01 0. -1.
         25    2    1    2    0    0  0.00000000000E+00  0.00000000000E+00  0.73499636487E+03  0.74554979104E+03  0.12499933822E+03 0.  0.
    9000005    1    3    3    0    0 -0.45436358420E+02  0.41780253659E+02  0.42568008082E+03  0.43013321595E+03  0.10000000000E+01 0.  0.
    9000005    1    3    3    0    0  0.45436358420E+02 -0.41780253659E+02  0.30931628405E+03  0.31541657509E+03  0.10000000000E+01 0.  0.
<mgrwt>
<rscale>  0 0.12499934E+03</rscale>
<asrwt>0</asrwt>
<pdfrwt beam="2">  1        4 0.81180182E-03 0.12499934E+03</pdfrwt>
<pdfrwt beam="1">  1       -4 0.11388819E+00 0.12499934E+03</pdfrwt>
<totfact> 0.40788479E+03</totfact>
</mgrwt>
</event>
<event>
 5    1  0.3235144E-002  0.1250009E+03  0.7818608E-02  0.1235068E+00
          4   -1    0    0  501    0  0.00000000000E+00  0.00000000000E+00  0.16074574540E+02  0.16124665784E+02  0.12700000000E+01 0.  1.
         -4   -1    0    0    0  501 -0.00000000000E+00 -0.00000000000E+00 -0.24258164444E+03  0.24258496887E+03  0.12700000000E+01 0.  1.
         25    2    1    2    0    0  0.00000000000E+00  0.00000000000E+00 -0.22650706990E+03  0.25870963465E+03  0.12500088938E+03 0.  0.
    9000005    1    3    3    0    0 -0.53408577958E+02 -0.30068978977E+02 -0.88016729592E+02  0.10725933239E+03  0.10000000000E+01 0.  0.
    9000005    1    3    3    0    0  0.53408577958E+02  0.30068978977E+02 -0.13849034031E+03  0.15145030226E+03  0.10000000000E+01 0.  0.
<mgrwt>
<rscale>  0 0.12500089E+03</rscale>
<asrwt>0</asrwt>
<pdfrwt beam="1">  1        4 0.24771205E-02 0.12500089E+03</pdfrwt>
<pdfrwt beam="2">  1       -4 0.37324359E-01 0.12500089E+03</pdfrwt>
<totfact> 0.81085883E+03</totfact>
</mgrwt>
</event>
<event>
 5    1  0.3235144E-002  0.1250025E+03  0.7818608E-02  0.1235065E+00
          4   -1    0    0  501    0  0.00000000000E+00  0.00000000000E+00  0.18141590959E+03  0.18142035484E+03  0.12700000000E+01 0.  1.
         -4   -1    0    0    0  501 -0.00000000000E+00 -0.00000000000E+00 -0.21509440650E+02  0.21546900869E+02  0.12700000000E+01 0.  1.
         25    2    1    2    0    0  0.00000000000E+00  0.00000000000E+00  0.15990646894E+03  0.20296725571E+03  0.12500251231E+03 0.  0.
    9000005    1    3    3    0    0  0.14662466789E+02  0.17602065137E+02  0.17436003023E+03  0.17586142491E+03  0.10000000000E+01 0.  0.
    9000005    1    3    3    0    0 -0.14662466789E+02 -0.17602065137E+02 -0.14453561293E+02  0.27105830802E+02  0.10000000000E+01 0.  0.
<mgrwt>
<rscale>  0 0.12500251E+03</rscale>
<asrwt>0</asrwt>
<pdfrwt beam="1">  1        4 0.27913364E-01 0.12500251E+03</pdfrwt>
<pdfrwt beam="2">  1       -4 0.33123682E-02 0.12500251E+03</pdfrwt>
<totfact> 0.89632418E+03</totfact>
</mgrwt>
</event>
<event>
 5    1  0.3235144E-002  0.1249984E+03  0.7818608E-02  0.1235072E+00
         -4   -1    0    0    0  501 -0.00000000000E+00  0.00000000000E+00  0.23481398879E+02  0.23515718006E+02  0.12700000000E+01 0. -1.
          4   -1    0    0  501    0  0.00000000000E+00 -0.00000000000E+00 -0.16619247955E+03  0.16619733198E+03  0.12700000000E+01 0. -1.
         25    2    1    2    0    0  0.00000000000E+00  0.00000000000E+00 -0.14271108067E+03  0.18971304999E+03  0.12499835515E+03 0.  0.
    9000005    1    3    3    0    0  0.50316841616E+01 -0.34670415818E+02 -0.14989380425E+03  0.15393670170E+03  0.10000000000E+01 0.  0.
    9000005    1    3    3    0    0 -0.50316841616E+01  0.34670415818E+02  0.71827235826E+01  0.35776348285E+02  0.10000000000E+01 0.  0.
<mgrwt>
<rscale>  0 0.12499836E+03</rscale>
<asrwt>0</asrwt>
<pdfrwt beam="2">  1        4 0.25571086E-01 0.12499836E+03</pdfrwt>
<pdfrwt beam="1">  1       -4 0.36155362E-02 0.12499836E+03</pdfrwt>
<totfact> 0.91900653E+03</totfact>
</mgrwt>
</event>
<event>
 5    1  0.3235144E-002  0.1249999E+03  0.7818608E-02  0.1235069E+00
         -4   -1    0    0    0  501 -0.00000000000E+00  0.00000000000E+00  0.31915122388E+02  0.31940380978E+02  0.12700000000E+01 0. -1.
          4   -1    0    0  501    0  0.00000000000E+00 -0.00000000000E+00 -0.12231771193E+03  0.12232430482E+03  0.12700000000E+01 0. -1.
         25    2    1    2    0    0  0.00000000000E+00  0.00000000000E+00 -0.90402589538E+02  0.15426468580E+03  0.12499986036E+03 0.  0.
    9000005    1    3    3    0    0 -0.61866432558E+02  0.56682433325E+01 -0.53540214368E+02  0.82019138099E+02  0.10000000000E+01 0.  0.
    9000005    1    3    3    0    0  0.61866432558E+02 -0.56682433325E+01 -0.36862375170E+02  0.72245547704E+02  0.10000000000E+01 0.  0.
<mgrwt>
<rscale>  0 0.12499986E+03</rscale>
<asrwt>0</asrwt>
<pdfrwt beam="2">  1        4 0.18820559E-01 0.12499986E+03</pdfrwt>
<pdfrwt beam="1">  1       -4 0.49124690E-02 0.12499986E+03</pdfrwt>
<totfact> 0.98460353E+03</totfact>
</mgrwt>
</event>
<event>
 5    1  0.3235144E-002  0.1249978E+03  0.7818608E-02  0.1235073E+00
         -4   -1    0    0    0  501 -0.00000000000E+00  0.00000000000E+00  0.35805551421E+03  0.35805776651E+03  0.12700000000E+01 0.  1.
          4   -1    0    0  501    0  0.00000000000E+00 -0.00000000000E+00 -0.10869987747E+02  0.10943926792E+02  0.12700000000E+01 0.  1.
         25    2    1    2    0    0  0.00000000000E+00  0.00000000000E+00  0.34718552647E+03  0.36900169330E+03  0.12499783947E+03 0.  0.
    9000005    1    3    3    0    0 -0.59028319424E+02  0.19237197113E+02  0.19461318799E+03  0.20427849908E+03  0.10000000000E+01 0.  0.
    9000005    1    3    3    0    0  0.59028319424E+02 -0.19237197113E+02  0.15257233848E+03  0.16472319422E+03  0.10000000000E+01 0.  0.
<mgrwt>
<rscale>  0 0.12499784E+03</rscale>
<asrwt>0</asrwt>
<pdfrwt beam="2">  1        4 0.16781668E-02 0.12499784E+03</pdfrwt>
<pdfrwt beam="1">  1       -4 0.55091322E-01 0.12499784E+03</pdfrwt>
<totfact> 0.67686741E+03</totfact>
</mgrwt>
</event>
<event>
 5    1  0.3235144E-002  0.1249918E+03  0.7818608E-02  0.1235082E+00
          4   -1    0    0  501    0  0.00000000000E+00  0.00000000000E+00  0.26672762659E+03  0.26673065007E+03  0.12700000000E+01 0.  1.
         -4   -1    0    0    0  501 -0.00000000000E+00 -0.00000000000E+00 -0.14612516837E+02  0.14667601996E+02  0.12700000000E+01 0.  1.
         25    2    1    2    0    0  0.00000000000E+00  0.00000000000E+00  0.25211510975E+03  0.28139825206E+03  0.12499179053E+03 0.  0.
    9000005    1    3    3    0    0 -0.40228348209E+02 -0.21479366239E+02  0.29879113265E+02  0.54529300226E+02  0.10000000000E+01 0.  0.
    9000005    1    3    3    0    0  0.40228348209E+02  0.21479366239E+02  0.22223599649E+03  0.22686895184E+03  0.10000000000E+01 0.  0.
<mgrwt>
<rscale>  0 0.12499179E+03</rscale>
<asrwt>0</asrwt>
<pdfrwt beam="1">  1        4 0.41039491E-01 0.12499179E+03</pdfrwt>
<pdfrwt beam="2">  1       -4 0.22525493E-02 0.12499179E+03</pdfrwt>
<totfact> 0.78007302E+03</totfact>
</mgrwt>
</event>
<event>
 5    1  0.3235144E-002  0.1250021E+03  0.7818608E-02  0.1235066E+00
         -4   -1    0    0    0  501 -0.00000000000E+00  0.00000000000E+00  0.20089286131E+03  0.20089687560E+03  0.12700000000E+01 0. -1.
          4   -1    0    0  501    0  0.00000000000E+00 -0.00000000000E+00 -0.19420161782E+02  0.19461643909E+02  0.12700000000E+01 0. -1.
         25    2    1    2    0    0  0.00000000000E+00  0.00000000000E+00  0.18147269953E+03  0.22035851951E+03  0.12500214577E+03 0.  0.
    9000005    1    3    3    0    0  0.34205784573E+02 -0.49817841048E+02  0.62667279935E+02  0.87063430666E+02  0.10000000000E+01 0.  0.
    9000005    1    3    3    0    0 -0.34205784573E+02  0.49817841048E+02  0.11880541960E+03  0.13329508885E+03  0.10000000000E+01 0.  0.
<mgrwt>
<rscale>  0 0.12500215E+03</rscale>
<asrwt>0</asrwt>
<pdfrwt beam="2">  1        4 0.29912172E-02 0.12500215E+03</pdfrwt>
<pdfrwt beam="1">  1       -4 0.30910091E-01 0.12500215E+03</pdfrwt>
<totfact> 0.86807492E+03</totfact>
</mgrwt>
</event>
<event>
 5    1  0.3235144E-002  0.1249928E+03  0.7818608E-02  0.1235081E+00
         -4   -1    0    0    0  501 -0.00000000000E+00  0.00000000000E+00  0.13239491557E+03  0.13240100668E+03  0.12700000000E+01 0. -1.
          4   -1    0    0  501    0  0.00000000000E+00 -0.00000000000E+00 -0.29480689553E+02  0.29508032068E+02  0.12700000000E+01 0. -1.
         25    2    1    2    0    0  0.00000000000E+00  0.00000000000E+00  0.10291422602E+03  0.16190903875E+03  0.12499279544E+03 0.  0.
    9000005    1    3    3    0    0 -0.15245732971E+01 -0.30611835332E+02 -0.19081528531E+02  0.36118049743E+02  0.10000000000E+01 0.  0.
    9000005    1    3    3    0    0  0.15245732971E+01  0.30611835332E+02  0.12199575455E+03  0.12579098900E+03  0.10000000000E+01 0.  0.
<mgrwt>
<rscale>  0 0.12499280E+03</rscale>
<asrwt>0</asrwt>
<pdfrwt beam="2">  1        4 0.45380626E-02 0.12499280E+03</pdfrwt>
<pdfrwt beam="1">  1       -4 0.20371020E-01 0.12499280E+03</pdfrwt>
<totfact> 0.96991698E+03</totfact>
</mgrwt>
</event>
<event>
 5    1  0.3235144E-002  0.1250020E+03  0.7818608E-02  0.1235066E+00
         -4   -1    0    0    0  501 -0.00000000000E+00  0.00000000000E+00  0.17371537915E+03  0.17372002145E+03  0.12700000000E+01 0. -1.
          4   -1    0    0  501    0  0.00000000000E+00 -0.00000000000E+00 -0.22464338118E+02  0.22500208601E+02  0.12700000000E+01 0. -1.
         25    2    1    2    0    0  0.00000000000E+00  0.00000000000E+00  0.15125104103E+03  0.19622023005E+03  0.12500200506E+03 0.  0.
    9000005    1    3    3    0    0 -0.48735191749E+01 -0.54752613487E+02  0.28959822470E+02  0.62139127692E+02  0.10000000000E+01 0.  0.
    9000005    1    3    3    0    0  0.48735191749E+01  0.54752613487E+02  0.12229121856E+03  0.13408110236E+03  0.10000000000E+01 0.  0.
<mgrwt>
<rscale>  0 0.12500201E+03</rscale>
<asrwt>0</asrwt>
<pdfrwt beam="2">  1        4 0.34591684E-02 0.12500201E+03</pdfrwt>
<pdfrwt beam="1">  1       -4 0.26728560E-01 0.12500201E+03</pdfrwt>
<totfact> 0.90772062E+03</totfact>
</mgrwt>
</event>
<event>
 5    1  0.3235144E-002  0.1250021E+03  0.7818608E-02  0.1235066E+00
          4   -1    0    0  501    0  0.00000000000E+00  0.00000000000E+00  0.26079328102E+03  0.26079637330E+03  0.12700000000E+01 0.  1.
         -4   -1    0    0    0  501 -0.00000000000E+00 -0.00000000000E+00 -0.14948726951E+02  0.15002577694E+02  0.12700000000E+01 0.  1.
         25    2    1    2    0    0  0.00000000000E+00  0.00000000000E+00  0.24584455407E+03  0.27579895099E+03  0.12500206639E+03 0.  0.
    9000005    1    3    3    0    0  0.38461808530E+02  0.34957010482E+02  0.19948235045E+03  0.20614439463E+03  0.10000000000E+01 0.  0.
    9000005    1    3    3    0    0 -0.38461808530E+02 -0.34957010482E+02  0.46362203619E+02  0.69654556360E+02  0.10000000000E+01 0.  0.
<mgrwt>
<rscale>  0 0.12500207E+03</rscale>
<asrwt>0</asrwt>
<pdfrwt beam="1">  1        4 0.40126422E-01 0.12500207E+03</pdfrwt>
<pdfrwt beam="2">  1       -4 0.23041845E-02 0.12500207E+03</pdfrwt>
<totfact> 0.78734834E+03</totfact>
</mgrwt>
</event>
<event>
 5    1  0.3235144E-002  0.1249839E+03  0.7818608E-02  0.1235094E+00
         -4   -1    0    0    0  501 -0.00000000000E+00  0.00000000000E+00  0.28366838609E+03  0.28367122901E+03  0.12700000000E+01 0.  1.
          4   -1    0    0  501    0  0.00000000000E+00 -0.00000000000E+00 -0.13734725710E+02  0.13793316872E+02  0.12700000000E+01 0.  1.
         25    2    1    2    0    0  0.00000000000E+00  0.00000000000E+00  0.26993366038E+03  0.29746454588E+03  0.12498389916E+03 0.  0.
    9000005    1    3    3    0    0  0.38092058716E+02  0.35914834444E+02  0.53788734981E+02  0.75067358294E+02  0.10000000000E+01 0.  0.
    9000005    1    3    3    0    0 -0.38092058716E+02 -0.35914834444E+02  0.21614492540E+03  0.22239718759E+03  0.10000000000E+01 0.  0.
<mgrwt>
<rscale>  0 0.12498390E+03</rscale>
<asrwt>0</asrwt>
<pdfrwt beam="2">  1        4 0.21177607E-02 0.12498390E+03</pdfrwt>
<pdfrwt beam="1">  1       -4 0.43646011E-01 0.12498390E+03</pdfrwt>
<totfact> 0.75945134E+03</totfact>
</mgrwt>
</event>
<event>
 5    1  0.3235144E-002  0.1249985E+03  0.7818608E-02  0.1235072E+00
          4   -1    0    0  501    0  0.00000000000E+00  0.00000000000E+00  0.27672372003E+02  0.27701499459E+02  0.12700000000E+01 0. -1.
         -4   -1    0    0    0  501 -0.00000000000E+00 -0.00000000000E+00 -0.14105110416E+03  0.14105682148E+03  0.12700000000E+01 0. -1.
         25    2    1    2    0    0  0.00000000000E+00  0.00000000000E+00 -0.11337873216E+03  0.16875832093E+03  0.12499853591E+03 0.  0.
    9000005    1    3    3    0    0 -0.17843792266E+02 -0.11236032382E+02 -0.13610943697E+03  0.13773680764E+03  0.10000000000E+01 0.  0.
    9000005    1    3    3    0    0  0.17843792266E+02  0.11236032382E+02  0.22730704810E+02  0.31021513298E+02  0.10000000000E+01 0.  0.
<mgrwt>
<rscale>  0 0.12499854E+03</rscale>
<asrwt>0</asrwt>
<pdfrwt beam="1">  1        4 0.42599685E-02 0.12499854E+03</pdfrwt>
<pdfrwt beam="2">  1       -4 0.21702850E-01 0.12499854E+03</pdfrwt>
<totfact> 0.95683468E+03</totfact>
</mgrwt>
</event>
<event>
 5    1  0.3235144E-002  0.1249768E+03  0.7818608E-02  0.1235106E+00
          4   -1    0    0  501    0  0.00000000000E+00  0.00000000000E+00  0.56095194537E+02  0.56109569150E+02  0.12700000000E+01 0. -1.
         -4   -1    0    0    0  501 -0.00000000000E+00 -0.00000000000E+00 -0.69581179296E+02  0.69592768391E+02  0.12700000000E+01 0. -1.
         25    2    1    2    0    0  0.00000000000E+00  0.00000000000E+00 -0.13485984759E+02  0.12570233754E+03  0.12497682136E+03 0.  0.
    9000005    1    3    3    0    0 -0.24300355725E+02 -0.56469672573E+02 -0.17964382949E+02  0.64055056503E+02  0.10000000000E+01 0.  0.
    9000005    1    3    3    0    0  0.24300355725E+02  0.56469672573E+02  0.44783981897E+01  0.61647281037E+02  0.10000000000E+01 0.  0.
<mgrwt>
<rscale>  0 0.12497682E+03</rscale>
<asrwt>0</asrwt>
<pdfrwt beam="1">  1        4 0.86320272E-02 0.12497682E+03</pdfrwt>
<pdfrwt beam="2">  1       -4 0.10706794E-01 0.12497682E+03</pdfrwt>
<totfact> 0.10442953E+04</totfact>
</mgrwt>
</event>
<event>
 5    1  0.3235144E-002  0.1250005E+03  0.7818608E-02  0.1235069E+00
         -4   -1    0    0    0  501 -0.00000000000E+00  0.00000000000E+00  0.40546011129E+02  0.40565896002E+02  0.12700000000E+01 0.  1.
          4   -1    0    0  501    0  0.00000000000E+00 -0.00000000000E+00 -0.96294212883E+02  0.96302587373E+02  0.12700000000E+01 0.  1.
         25    2    1    2    0    0  0.00000000000E+00  0.00000000000E+00 -0.55748201754E+02  0.13686848337E+03  0.12500047897E+03 0.  0.
    9000005    1    3    3    0    0  0.45569979502E+02 -0.22018088128E+02 -0.68013318618E+02  0.84783434385E+02  0.10000000000E+01 0.  0.
    9000005    1    3    3    0    0 -0.45569979502E+02  0.22018088128E+02  0.12265116864E+02  0.52085048990E+02  0.10000000000E+01 0.  0.
<mgrwt>
<rscale>  0 0.12500048E+03</rscale>
<asrwt>0</asrwt>
<pdfrwt beam="2">  1        4 0.14816668E-01 0.12500048E+03</pdfrwt>
<pdfrwt beam="1">  1       -4 0.62400217E-02 0.12500048E+03</pdfrwt>
<totfact> 0.10198726E+04</totfact>
</mgrwt>
</event>
<event>
 5    1  0.3235144E-002  0.1250025E+03  0.7818608E-02  0.1235065E+00
         -4   -1    0    0    0  501 -0.00000000000E+00  0.00000000000E+00  0.56239122922E+02  0.56253460756E+02  0.12700000000E+01 0. -1.
          4   -1    0    0  501    0  0.00000000000E+00 -0.00000000000E+00 -0.69431638939E+02  0.69443252990E+02  0.12700000000E+01 0. -1.
         25    2    1    2    0    0  0.00000000000E+00  0.00000000000E+00 -0.13192516018E+02  0.12569671375E+03  0.12500248545E+03 0.  0.
    9000005    1    3    3    0    0  0.36671753391E+01 -0.62385493795E+02 -0.65101621470E+01  0.62839320670E+02  0.10000000000E+01 0.  0.
    9000005    1    3    3    0    0 -0.36671753391E+01  0.62385493795E+02 -0.66823538705E+01  0.62857393076E+02  0.10000000000E+01 0.  0.
<mgrwt>
<rscale>  0 0.12500249E+03</rscale>
<asrwt>0</asrwt>
<pdfrwt beam="2">  1        4 0.10683787E-01 0.12500249E+03</pdfrwt>
<pdfrwt beam="1">  1       -4 0.86541691E-02 0.12500249E+03</pdfrwt>
<totfact> 0.10437031E+04</totfact>
</mgrwt>
</event>
<event>
 5    1  0.3235144E-002  0.1250092E+03  0.7818608E-02  0.1235055E+00
         -4   -1    0    0    0  501 -0.00000000000E+00  0.00000000000E+00  0.25604507213E+02  0.25635984273E+02  0.12700000000E+01 0.  1.
          4   -1    0    0  501    0  0.00000000000E+00 -0.00000000000E+00 -0.15245572121E+03  0.15246101085E+03  0.12700000000E+01 0.  1.
         25    2    1    2    0    0  0.00000000000E+00  0.00000000000E+00 -0.12685121400E+03  0.17809699512E+03  0.12500923638E+03 0.  0.
    9000005    1    3    3    0    0  0.27908672294E+02  0.34820822114E-01  0.16240521913E+02  0.32305568463E+02  0.10000000000E+01 0.  0.
    9000005    1    3    3    0    0 -0.27908672294E+02 -0.34820822114E-01 -0.14309173591E+03  0.14579142666E+03  0.10000000000E+01 0.  0.
<mgrwt>
<rscale>  0 0.12500924E+03</rscale>
<asrwt>0</asrwt>
<pdfrwt beam="2">  1        4 0.23457554E-01 0.12500924E+03</pdfrwt>
<pdfrwt beam="1">  1       -4 0.39419833E-02 0.12500924E+03</pdfrwt>
<totfact> 0.93941216E+03</totfact>
</mgrwt>
</event>
<event>
 5    1  0.3235144E-002  0.1249998E+03  0.7818608E-02  0.1235070E+00
         -4   -1    0    0    0  501 -0.00000000000E+00  0.00000000000E+00  0.17717292972E+03  0.17717748143E+03  0.12700000000E+01 0. -1.
          4   -1    0    0  501    0  0.00000000000E+00 -0.00000000000E+00 -0.22024463628E+02  0.22061049343E+02  0.12700000000E+01 0. -1.
         25    2    1    2    0    0  0.00000000000E+00  0.00000000000E+00  0.15514846609E+03  0.19923853077E+03  0.12499978245E+03 0.  0.
    9000005    1    3    3    0    0  0.27452479732E+01 -0.52104061345E+02  0.13239334502E+03  0.14230729918E+03  0.10000000000E+01 0.  0.
    9000005    1    3    3    0    0 -0.27452479732E+01  0.52104061345E+02  0.22755121067E+02  0.56931231585E+02  0.10000000000E+01 0.  0.
<mgrwt>
<rscale>  0 0.12499978E+03</rscale>
<asrwt>0</asrwt>
<pdfrwt beam="2">  1        4 0.33915435E-02 0.12499978E+03</pdfrwt>
<pdfrwt beam="1">  1       -4 0.27260538E-01 0.12499978E+03</pdfrwt>
<totfact> 0.90264533E+03</totfact>
</mgrwt>
</event>
<event>
 5    1  0.3235144E-002  0.1250004E+03  0.7818608E-02  0.1235069E+00
         -4   -1    0    0    0  501 -0.00000000000E+00  0.00000000000E+00  0.27241623481E+02  0.27271211009E+02  0.12700000000E+01 0.  1.
          4   -1    0    0  501    0  0.00000000000E+00 -0.00000000000E+00 -0.14328348780E+03  0.14328911604E+03  0.12700000000E+01 0.  1.
         25    2    1    2    0    0  0.00000000000E+00  0.00000000000E+00 -0.11604186432E+03  0.17056032705E+03  0.12500044355E+03 0.  0.
    9000005    1    3    3    0    0  0.46269911302E+02 -0.38622180135E+02 -0.35488440463E+02  0.69950031429E+02  0.10000000000E+01 0.  0.
    9000005    1    3    3    0    0 -0.46269911302E+02  0.38622180135E+02 -0.80553423852E+02  0.10061029562E+03  0.10000000000E+01 0.  0.
<mgrwt>
<rscale>  0 0.12500044E+03</rscale>
<asrwt>0</asrwt>
<pdfrwt beam="2">  1        4 0.22046322E-01 0.12500044E+03</pdfrwt>
<pdfrwt beam="1">  1       -4 0.41937280E-02 0.12500044E+03</pdfrwt>
<totfact> 0.95343353E+03</totfact>
</mgrwt>
</event>
<event>
 5    1  0.3235144E-002  0.1250019E+03  0.7818608E-02  0.1235066E+00
          4   -1    0    0  501    0  0.00000000000E+00  0.00000000000E+00  0.11814341294E+02  0.11882405490E+02  0.12700000000E+01 0. -1.
         -4   -1    0    0    0  501 -0.00000000000E+00 -0.00000000000E+00 -0.32962754480E+03  0.32962999134E+03  0.12700000000E+01 0. -1.
         25    2    1    2    0    0  0.00000000000E+00  0.00000000000E+00 -0.31781320351E+03  0.34151239683E+03  0.12500193945E+03 0.  0.
    9000005    1    3    3    0    0  0.99539400460E+01 -0.84654957050E+01 -0.32586691897E+03  0.32613033349E+03  0.10000000000E+01 0.  0.
    9000005    1    3    3    0    0 -0.99539400460E+01  0.84654957050E+01  0.80537154641E+01  0.15382063345E+02  0.10000000000E+01 0.  0.
<mgrwt>
<rscale>  0 0.12500194E+03</rscale>
<asrwt>0</asrwt>
<pdfrwt beam="1">  1        4 0.18230151E-02 0.12500194E+03</pdfrwt>
<pdfrwt beam="2">  1       -4 0.50717347E-01 0.12500194E+03</pdfrwt>
<totfact> 0.70665469E+03</totfact>
</mgrwt>
</event>
<event>
 5    1  0.3235144E-002  0.1250067E+03  0.7818608E-02  0.1235059E+00
          4   -1    0    0  501    0  0.00000000000E+00  0.00000000000E+00  0.55928558759E+01  0.57352364248E+01  0.12700000000E+01 0. -1.
         -4   -1    0    0    0  501 -0.00000000000E+00 -0.00000000000E+00 -0.68958789283E+03  0.68958906230E+03  0.12700000000E+01 0. -1.
         25    2    1    2    0    0  0.00000000000E+00  0.00000000000E+00 -0.68399503696E+03  0.69532429872E+03  0.12500667907E+03 0.  0.
    9000005    1    3    3    0    0  0.36138030072E+02 -0.15872909712E+02 -0.72483643571E+02  0.82539596955E+02  0.10000000000E+01 0.  0.
    9000005    1    3    3    0    0 -0.36138030072E+02  0.15872909712E+02 -0.61151139339E+03  0.61278470177E+03  0.10000000000E+01 0.  0.
<mgrwt>
<rscale>  0 0.12500668E+03</rscale>
<asrwt>0</asrwt>
<pdfrwt beam="1">  1        4 0.87148222E-03 0.12500668E+03</pdfrwt>
<pdfrwt beam="2">  1       -4 0.10610142E+00 0.12500668E+03</pdfrwt>
<totfact> 0.43328353E+03</totfact>
</mgrwt>
</event>
<event>
 5    1  0.3235144E-002  0.1250056E+03  0.7818608E-02  0.1235061E+00
          4   -1    0    0  501    0  0.00000000000E+00  0.00000000000E+00  0.33725540575E+03  0.33725779696E+03  0.12700000000E+01 0. -1.
         -4   -1    0    0    0  501 -0.00000000000E+00 -0.00000000000E+00 -0.11546253153E+02  0.11615888338E+02  0.12700000000E+01 0. -1.
         25    2    1    2    0    0  0.00000000000E+00  0.00000000000E+00  0.32570915260E+03  0.34887368529E+03  0.12500558470E+03 0.  0.
    9000005    1    3    3    0    0 -0.33105428141E+02  0.21772886112E+02  0.29773078334E+03  0.30035753243E+03  0.10000000000E+01 0.  0.
    9000005    1    3    3    0    0  0.33105428141E+02 -0.21772886112E+02  0.27978369258E+02  0.48516152861E+02  0.10000000000E+01 0.  0.
<mgrwt>
<rscale>  0 0.12500558E+03</rscale>
<asrwt>0</asrwt>
<pdfrwt beam="1">  1        4 0.51890981E-01 0.12500558E+03</pdfrwt>
<pdfrwt beam="2">  1       -4 0.17818873E-02 0.12500558E+03</pdfrwt>
<totfact> 0.69840012E+03</totfact>
</mgrwt>
</event>
<event>
 5    1  0.3235144E-002  0.1250235E+03  0.7818608E-02  0.1235033E+00
         -4   -1    0    0    0  501 -0.00000000000E+00  0.00000000000E+00  0.18284827927E+01  0.22262635341E+01  0.12700000000E+01 0.  1.
          4   -1    0    0  501    0  0.00000000000E+00 -0.00000000000E+00 -0.19270797939E+04  0.19270802124E+04  0.12700000000E+01 0.  1.
         25    2    1    2    0    0  0.00000000000E+00  0.00000000000E+00 -0.19252513111E+04  0.19293064760E+04  0.12502346618E+03 0.  0.
    9000005    1    3    3    0    0  0.40781959622E+02  0.38821041775E+02 -0.13814083894E+04  0.13825557420E+04  0.10000000000E+01 0.  0.
    9000005    1    3    3    0    0 -0.40781959622E+02 -0.38821041775E+02 -0.54384292174E+03  0.54675073392E+03  0.10000000000E+01 0.  0.
<mgrwt>
<rscale>  0 0.12502347E+03</rscale>
<asrwt>0</asrwt>
<pdfrwt beam="2">  1        4 0.29650298E+00 0.12502347E+03</pdfrwt>
<pdfrwt beam="1">  1       -4 0.31193730E-03 0.12502347E+03</pdfrwt>
<totfact> 0.10806850E+03</totfact>
</mgrwt>
</event>
<event>
 5    1  0.3235144E-002  0.1250028E+03  0.7818608E-02  0.1235065E+00
          4   -1    0    0  501    0  0.00000000000E+00  0.00000000000E+00  0.14541947477E+04  0.14541953023E+04  0.12700000000E+01 0.  1.
         -4   -1    0    0    0  501 -0.00000000000E+00 -0.00000000000E+00 -0.25356269059E+01  0.28358955915E+01  0.12700000000E+01 0.  1.
         25    2    1    2    0    0  0.00000000000E+00  0.00000000000E+00  0.14516591208E+04  0.14570311979E+04  0.12500283417E+03 0.  0.
    9000005    1    3    3    0    0 -0.53870006057E+02  0.20636130530E+02  0.44569772201E+03  0.44941660722E+03  0.10000000000E+01 0.  0.
    9000005    1    3    3    0    0  0.53870006057E+02 -0.20636130530E+02  0.10059613988E+04  0.10076145907E+04  0.10000000000E+01 0.  0.
<mgrwt>
<rscale>  0 0.12500283E+03</rscale>
<asrwt>0</asrwt>
<pdfrwt beam="1">  1        4 0.22374479E+00 0.12500283E+03</pdfrwt>
<pdfrwt beam="2">  1       -4 0.41323784E-03 0.12500283E+03</pdfrwt>
<totfact> 0.18788098E+03</totfact>
</mgrwt>
</event>
<event>
 5    1  0.3235144E-002  0.1250025E+03  0.7818608E-02  0.1235065E+00
         -4   -1    0    0    0  501 -0.00000000000E+00  0.00000000000E+00  0.40784952988E+02  0.40804721421E+02  0.12700000000E+01 0.  1.
          4   -1    0    0  501    0  0.00000000000E+00 -0.00000000000E+00 -0.95733427820E+02  0.95741851362E+02  0.12700000000E+01 0.  1.
         25    2    1    2    0    0  0.00000000000E+00  0.00000000000E+00 -0.54948474832E+02  0.13654657278E+03  0.12500252658E+03 0.  0.
    9000005    1    3    3    0    0  0.43592665654E+02 -0.44340443742E+02 -0.34297054026E+02  0.71018894422E+02  0.10000000000E+01 0.  0.
    9000005    1    3    3    0    0 -0.43592665654E+02  0.44340443742E+02 -0.20651420806E+02  0.65527678361E+02  0.10000000000E+01 0.  0.
<mgrwt>
<rscale>  0 0.12500253E+03</rscale>
<asrwt>0</asrwt>
<pdfrwt beam="2">  1        4 0.14730388E-01 0.12500253E+03</pdfrwt>
<pdfrwt beam="1">  1       -4 0.62767768E-02 0.12500253E+03</pdfrwt>
<totfact> 0.10204994E+04</totfact>
</mgrwt>
</event>
<event>
 5    1  0.3235144E-002  0.1250011E+03  0.7818608E-02  0.1235068E+00
         -4   -1    0    0    0  501 -0.00000000000E+00  0.00000000000E+00  0.64240880503E+02  0.64253432810E+02  0.12700000000E+01 0. -1.
          4   -1    0    0  501    0  0.00000000000E+00 -0.00000000000E+00 -0.60782260017E+02  0.60795526421E+02  0.12700000000E+01 0. -1.
         25    2    1    2    0    0  0.00000000000E+00  0.00000000000E+00  0.34586204866E+01  0.12504895923E+03  0.12500112059E+03 0.  0.
    9000005    1    3    3    0    0  0.35708919543E+02  0.51056202691E+02  0.65744342882E+01  0.62658486690E+02  0.10000000000E+01 0.  0.
    9000005    1    3    3    0    0 -0.35708919543E+02 -0.51056202691E+02 -0.31158138016E+01  0.62390472540E+02  0.10000000000E+01 0.  0.
<mgrwt>
<rscale>  0 0.12500112E+03</rscale>
<asrwt>0</asrwt>
<pdfrwt beam="2">  1        4 0.93531031E-02 0.12500112E+03</pdfrwt>
<pdfrwt beam="1">  1       -4 0.98851983E-02 0.12500112E+03</pdfrwt>
<totfact> 0.10451535E+04</totfact>
</mgrwt>
</event>
<event>
 5    1  0.3235144E-002  0.1250021E+03  0.7818608E-02  0.1235066E+00
          4   -1    0    0  501    0  0.00000000000E+00  0.00000000000E+00  0.54002528988E+02  0.54017460483E+02  0.12700000000E+01 0.  1.
         -4   -1    0    0    0  501 -0.00000000000E+00 -0.00000000000E+00 -0.72306503765E+02  0.72317656120E+02  0.12700000000E+01 0.  1.
         25    2    1    2    0    0  0.00000000000E+00  0.00000000000E+00 -0.18303974778E+02  0.12633511660E+03  0.12500210476E+03 0.  0.
    9000005    1    3    3    0    0 -0.49752959560E+02 -0.20358697002E+02  0.23055510856E+02  0.58501197504E+02  0.10000000000E+01 0.  0.
    9000005    1    3    3    0    0  0.49752959560E+02  0.20358697002E+02 -0.41359485633E+02  0.67833919100E+02  0.10000000000E+01 0.  0.
<mgrwt>
<rscale>  0 0.12500210E+03</rscale>
<asrwt>0</asrwt>
<pdfrwt beam="1">  1        4 0.83100878E-02 0.12500210E+03</pdfrwt>
<pdfrwt beam="2">  1       -4 0.11126084E-01 0.12500210E+03</pdfrwt>
<totfact> 0.10423131E+04</totfact>
</mgrwt>
</event>
<event>
 5    1  0.3235144E-002  0.1250000E+03  0.7818608E-02  0.1235069E+00
         -4   -1    0    0    0  501 -0.00000000000E+00  0.00000000000E+00  0.28039491909E+03  0.28039779519E+03  0.12700000000E+01 0.  1.
          4   -1    0    0  501    0  0.00000000000E+00 -0.00000000000E+00 -0.13899348103E+02  0.13957248214E+02  0.12700000000E+01 0.  1.
         25    2    1    2    0    0  0.00000000000E+00  0.00000000000E+00  0.26649557098E+03  0.29435504341E+03  0.12500000890E+03 0.  0.
    9000005    1    3    3    0    0  0.50206351029E+02 -0.33472411582E+02  0.17152176551E+03  0.18182902976E+03  0.10000000000E+01 0.  0.
    9000005    1    3    3    0    0 -0.50206351029E+02  0.33472411582E+02  0.94973805475E+02  0.11252601365E+03  0.10000000000E+01 0.  0.
<mgrwt>
<rscale>  0 0.12500001E+03</rscale>
<asrwt>0</asrwt>
<pdfrwt beam="2">  1        4 0.21430362E-02 0.12500001E+03</pdfrwt>
<pdfrwt beam="1">  1       -4 0.43142357E-01 0.12500001E+03</pdfrwt>
<totfact> 0.76312413E+03</totfact>
</mgrwt>
</event>
<event>
 5    1  0.3235144E-002  0.1249982E+03  0.7818608E-02  0.1235072E+00
         -4   -1    0    0    0  501 -0.00000000000E+00  0.00000000000E+00  0.28389670326E+02  0.28418062587E+02  0.12700000000E+01 0.  1.
          4   -1    0    0  501    0  0.00000000000E+00 -0.00000000000E+00 -0.13748990772E+03  0.13749577312E+03  0.12700000000E+01 0.  1.
         25    2    1    2    0    0  0.00000000000E+00  0.00000000000E+00 -0.10910023740E+03  0.16591383571E+03  0.12499815630E+03 0.  0.
    9000005    1    3    3    0    0 -0.18469901195E+02  0.50718667111E+02 -0.12752610399E+02  0.55472060677E+02  0.10000000000E+01 0.  0.
    9000005    1    3    3    0    0  0.18469901195E+02 -0.50718667111E+02 -0.96347626998E+02  0.11044177503E+03  0.10000000000E+01 0.  0.
<mgrwt>
<rscale>  0 0.12499816E+03</rscale>
<asrwt>0</asrwt>
<pdfrwt beam="2">  1        4 0.21154928E-01 0.12499816E+03</pdfrwt>
<pdfrwt beam="1">  1       -4 0.43702769E-02 0.12499816E+03</pdfrwt>
<totfact> 0.96218591E+03</totfact>
</mgrwt>
</event>
<event>
 5    1  0.3235144E-002  0.1250004E+03  0.7818608E-02  0.1235069E+00
          4   -1    0    0  501    0  0.00000000000E+00  0.00000000000E+00  0.65352907895E+02  0.65365246655E+02  0.12700000000E+01 0. -1.
         -4   -1    0    0    0  501 -0.00000000000E+00 -0.00000000000E+00 -0.59747289938E+02  0.59760786097E+02  0.12700000000E+01 0. -1.
         25    2    1    2    0    0  0.00000000000E+00  0.00000000000E+00  0.56056179568E+01  0.12512603275E+03  0.12500040448E+03 0.  0.
    9000005    1    3    3    0    0 -0.59713651674E+01 -0.18847602866E+02  0.62144645577E+02  0.65221517229E+02  0.10000000000E+01 0.  0.
    9000005    1    3    3    0    0  0.59713651674E+01  0.18847602866E+02 -0.56539027621E+02  0.59904515523E+02  0.10000000000E+01 0.  0.
<mgrwt>
<rscale>  0 0.12500040E+03</rscale>
<asrwt>0</asrwt>
<pdfrwt beam="1">  1        4 0.10056281E-01 0.12500040E+03</pdfrwt>
<pdfrwt beam="2">  1       -4 0.91938781E-02 0.12500040E+03</pdfrwt>
<totfact> 0.10450030E+04</totfact>
</mgrwt>
</event>
<event>
 5    1  0.3235144E-002  0.1249996E+03  0.7818608E-02  0.1235070E+00
         -4   -1    0    0    0  501 -0.00000000000E+00  0.00000000000E+00  0.41631822656E+01  0.43525838966E+01  0.12700000000E+01 0.  1.
          4   -1    0    0  501    0  0.00000000000E+00 -0.00000000000E+00 -0.91722009292E+03  0.91722097215E+03  0.12700000000E+01 0.  1.
         25    2    1    2    0    0  0.00000000000E+00  0.00000000000E+00 -0.91305691065E+03  0.92157355605E+03  0.12499958846E+03 0.  0.
    9000005    1    3    3    0    0 -0.29316896316E+02  0.53891080845E+01 -0.51591342073E+02  0.59591857434E+02  0.10000000000E+01 0.  0.
    9000005    1    3    3    0    0  0.29316896316E+02 -0.53891080845E+01 -0.86146556858E+03  0.86198169861E+03  0.10000000000E+01 0.  0.
<mgrwt>
<rscale>  0 0.12499959E+03</rscale>
<asrwt>0</asrwt>
<pdfrwt beam="2">  1        4 0.14112526E+00 0.12499959E+03</pdfrwt>
<pdfrwt beam="1">  1       -4 0.65512730E-03 0.12499959E+03</pdfrwt>
<totfact> 0.33347522E+03</totfact>
</mgrwt>
</event>
<event>
 5    1  0.3235144E-002  0.1249966E+03  0.7818608E-02  0.1235075E+00
          4   -1    0    0  501    0  0.00000000000E+00  0.00000000000E+00  0.45744152358E+02  0.45761778538E+02  0.12700000000E+01 0.  1.
         -4   -1    0    0    0  501 -0.00000000000E+00 -0.00000000000E+00 -0.85349924134E+02  0.85359372359E+02  0.12700000000E+01 0.  1.
         25    2    1    2    0    0  0.00000000000E+00  0.00000000000E+00 -0.39605771776E+02  0.13112115090E+03  0.12499655617E+03 0.  0.
    9000005    1    3    3    0    0 -0.55828127037E+02  0.28041803558E+02 -0.18352288625E+02  0.65122415596E+02  0.10000000000E+01 0.  0.
    9000005    1    3    3    0    0  0.55828127037E+02 -0.28041803558E+02 -0.21253483151E+02  0.65998735301E+02  0.10000000000E+01 0.  0.
<mgrwt>
<rscale>  0 0.12499656E+03</rscale>
<asrwt>0</asrwt>
<pdfrwt beam="1">  1        4 0.70396446E-02 0.12499656E+03</pdfrwt>
<pdfrwt beam="2">  1       -4 0.13132840E-01 0.12499656E+03</pdfrwt>
<totfact> 0.10321295E+04</totfact>
</mgrwt>
</event>
<event>
 5    1  0.3235144E-002  0.1249950E+03  0.7818608E-02  0.1235077E+00
         -4   -1    0    0    0  501 -0.00000000000E+00  0.00000000000E+00  0.25289117092E+04  0.25289120281E+04  0.12700000000E+01 0.  1.
          4   -1    0    0  501    0  0.00000000000E+00 -0.00000000000E+00 -0.12830705783E+01  0.18053171768E+01  0.12700000000E+01 0.  1.
         25    2    1    2    0    0  0.00000000000E+00  0.00000000000E+00  0.25276286386E+04  0.25307173453E+04  0.12499498736E+03 0.  0.
    9000005    1    3    3    0    0 -0.46815160015E+02 -0.31927947767E+02  0.73048633144E+03  0.73268160443E+03  0.10000000000E+01 0.  0.
    9000005    1    3    3    0    0  0.46815160015E+02  0.31927947767E+02  0.17971423072E+04  0.17980357409E+04  0.10000000000E+01 0.  0.
<mgrwt>
<rscale>  0 0.12499499E+03</rscale>
<asrwt>0</asrwt>
<pdfrwt beam="2">  1        4 0.23759415E-03 0.12499499E+03</pdfrwt>
<pdfrwt beam="1">  1       -4 0.38910136E+00 0.12499499E+03</pdfrwt>
<totfact> 0.44330818E+02</totfact>
</mgrwt>
</event>
<event>
 5    1  0.3235144E-002  0.1249941E+03  0.7818608E-02  0.1235078E+00
         -4   -1    0    0    0  501 -0.00000000000E+00  0.00000000000E+00  0.23883484057E+02  0.23917226233E+02  0.12700000000E+01 0.  1.
          4   -1    0    0  501    0  0.00000000000E+00 -0.00000000000E+00 -0.16338737986E+03  0.16339231560E+03  0.12700000000E+01 0.  1.
         25    2    1    2    0    0  0.00000000000E+00  0.00000000000E+00 -0.13950389581E+03  0.18730954184E+03  0.12499410993E+03 0.  0.
    9000005    1    3    3    0    0  0.45971477970E+02  0.55853210591E+01 -0.13262504336E+03  0.14048122552E+03  0.10000000000E+01 0.  0.
    9000005    1    3    3    0    0 -0.45971477970E+02 -0.55853210591E+01 -0.68788524492E+01  0.46828316318E+02  0.10000000000E+01 0.  0.
<mgrwt>
<rscale>  0 0.12499411E+03</rscale>
<asrwt>0</asrwt>
<pdfrwt beam="2">  1        4 0.25139494E-01 0.12499411E+03</pdfrwt>
<pdfrwt beam="1">  1       -4 0.36773575E-02 0.12499411E+03</pdfrwt>
<totfact> 0.92329749E+03</totfact>
</mgrwt>
</event>
<event>
 5    1  0.3235144E-002  0.1250105E+03  0.7818608E-02  0.1235053E+00
         -4   -1    0    0    0  501 -0.00000000000E+00  0.00000000000E+00  0.33186222253E+03  0.33186465260E+03  0.12700000000E+01 0. -1.
          4   -1    0    0  501    0  0.00000000000E+00 -0.00000000000E+00 -0.11735949550E+02  0.11804465759E+02  0.12700000000E+01 0. -1.
         25    2    1    2    0    0  0.00000000000E+00  0.00000000000E+00  0.32012627298E+03  0.34366911836E+03  0.12501052859E+03 0.  0.
    9000005    1    3    3    0    0 -0.51924245761E+02  0.40677885666E+01  0.65099638806E+02  0.83376478543E+02  0.10000000000E+01 0.  0.
    9000005    1    3    3    0    0  0.51924245761E+02 -0.40677885666E+01  0.25502663418E+03  0.26029263981E+03  0.10000000000E+01 0.  0.
<mgrwt>
<rscale>  0 0.12501053E+03</rscale>
<asrwt>0</asrwt>
<pdfrwt beam="2">  1        4 0.18109882E-02 0.12501053E+03</pdfrwt>
<pdfrwt beam="1">  1       -4 0.51061182E-01 0.12501053E+03</pdfrwt>
<totfact> 0.70410278E+03</totfact>
</mgrwt>
</event>
<event>
 5    1  0.3235144E-002  0.1250000E+03  0.7818608E-02  0.1235069E+00
          4   -1    0    0  501    0  0.00000000000E+00  0.00000000000E+00  0.94621911049E+03  0.94621996278E+03  0.12700000000E+01 0. -1.
         -4   -1    0    0    0  501 -0.00000000000E+00 -0.00000000000E+00 -0.40297258391E+01  0.42251142397E+01  0.12700000000E+01 0. -1.
         25    2    1    2    0    0  0.00000000000E+00  0.00000000000E+00  0.94218938465E+03  0.95044507702E+03  0.12500003150E+03 0.  0.
    9000005    1    3    3    0    0 -0.32034724085E+02 -0.14955871730E+02  0.86290676730E+03  0.86363128168E+03  0.10000000000E+01 0.  0.
    9000005    1    3    3    0    0  0.32034724085E+02  0.14955871730E+02  0.79282617354E+02  0.86813795337E+02  0.10000000000E+01 0.  0.
<mgrwt>
<rscale>  0 0.12500003E+03</rscale>
<asrwt>0</asrwt>
<pdfrwt beam="1">  1        4 0.14558727E+00 0.12500003E+03</pdfrwt>
<pdfrwt beam="2">  1       -4 0.63505322E-03 0.12500003E+03</pdfrwt>
<totfact> 0.32300148E+03</totfact>
</mgrwt>
</event>
<event>
 5    1  0.3235144E-002  0.1250024E+03  0.7818608E-02  0.1235066E+00
         -4   -1    0    0    0  501 -0.00000000000E+00  0.00000000000E+00  0.21081962510E+03  0.21082345038E+03  0.12700000000E+01 0. -1.
          4   -1    0    0  501    0  0.00000000000E+00 -0.00000000000E+00 -0.18503819435E+02  0.18547351123E+02  0.12700000000E+01 0. -1.
         25    2    1    2    0    0  0.00000000000E+00  0.00000000000E+00  0.19231580567E+03  0.22937080150E+03  0.12500238186E+03 0.  0.
    9000005    1    3    3    0    0  0.57576734540E+02 -0.21049682754E+02  0.11842261377E+03  0.13335323376E+03  0.10000000000E+01 0.  0.
    9000005    1    3    3    0    0 -0.57576734540E+02  0.21049682754E+02  0.73893191902E+02  0.96017567735E+02  0.10000000000E+01 0.  0.
<mgrwt>
<rscale>  0 0.12500238E+03</rscale>
<asrwt>0</asrwt>
<pdfrwt beam="2">  1        4 0.28503844E-02 0.12500238E+03</pdfrwt>
<pdfrwt beam="1">  1       -4 0.32437430E-01 0.12500238E+03</pdfrwt>
<totfact> 0.85401766E+03</totfact>
</mgrwt>
</event>
<event>
 5    1  0.3235144E-002  0.1250003E+03  0.7818608E-02  0.1235069E+00
         -4   -1    0    0    0  501 -0.00000000000E+00  0.00000000000E+00  0.40341573093E+02  0.40361558687E+02  0.12700000000E+01 0. -1.
          4   -1    0    0  501    0  0.00000000000E+00 -0.00000000000E+00 -0.96781763743E+02  0.96790096049E+02  0.12700000000E+01 0. -1.
         25    2    1    2    0    0  0.00000000000E+00  0.00000000000E+00 -0.56440190649E+02  0.13715165474E+03  0.12500032510E+03 0.  0.
    9000005    1    3    3    0    0  0.11568602905E+02  0.84587943174E+01 -0.94959774191E+02  0.96040316997E+02  0.10000000000E+01 0.  0.
    9000005    1    3    3    0    0 -0.11568602905E+02 -0.84587943174E+01  0.38519583541E+02  0.41111337739E+02  0.10000000000E+01 0.  0.
<mgrwt>
<rscale>  0 0.12500033E+03</rscale>
<asrwt>0</asrwt>
<pdfrwt beam="2">  1        4 0.14891680E-01 0.12500033E+03</pdfrwt>
<pdfrwt beam="1">  1       -4 0.62085742E-02 0.12500033E+03</pdfrwt>
<totfact> 0.10192841E+04</totfact>
</mgrwt>
</event>
<event>
 5    1  0.3235144E-002  0.1250014E+03  0.7818608E-02  0.1235067E+00
         -4   -1    0    0    0  501 -0.00000000000E+00  0.00000000000E+00  0.26415791272E+02  0.26446302738E+02  0.12700000000E+01 0. -1.
          4   -1    0    0  501    0  0.00000000000E+00 -0.00000000000E+00 -0.14776027659E+03  0.14776573432E+03  0.12700000000E+01 0. -1.
         25    2    1    2    0    0  0.00000000000E+00  0.00000000000E+00 -0.12134448532E+03  0.17421203706E+03  0.12500139894E+03 0.  0.
    9000005    1    3    3    0    0 -0.22736135829E+02  0.29905103702E+02  0.89293816928E+01  0.38626169332E+02  0.10000000000E+01 0.  0.
    9000005    1    3    3    0    0  0.22736135829E+02 -0.29905103702E+02 -0.13027386701E+03  0.13558586772E+03  0.10000000000E+01 0.  0.
<mgrwt>
<rscale>  0 0.12500140E+03</rscale>
<asrwt>0</asrwt>
<pdfrwt beam="2">  1        4 0.22735117E-01 0.12500140E+03</pdfrwt>
<pdfrwt beam="1">  1       -4 0.40667348E-02 0.12500140E+03</pdfrwt>
<totfact> 0.94666381E+03</totfact>
</mgrwt>
</event>
<event>
 5    1  0.3235144E-002  0.1250038E+03  0.7818608E-02  0.1235063E+00
         -4   -1    0    0    0  501 -0.00000000000E+00  0.00000000000E+00  0.13169190121E+03  0.13169802483E+03  0.12700000000E+01 0. -1.
          4   -1    0    0  501    0  0.00000000000E+00 -0.00000000000E+00 -0.29643450252E+02  0.29670642778E+02  0.12700000000E+01 0. -1.
         25    2    1    2    0    0  0.00000000000E+00  0.00000000000E+00  0.10204845095E+03  0.16136866760E+03  0.12500384211E+03 0.  0.
    9000005    1    3    3    0    0  0.61025946715E+02  0.80683925717E+01  0.64941225795E+02  0.89485350415E+02  0.10000000000E+01 0.  0.
    9000005    1    3    3    0    0 -0.61025946715E+02 -0.80683925717E+01  0.37107225159E+02  0.71883317190E+02  0.10000000000E+01 0.  0.
<mgrwt>
<rscale>  0 0.12500384E+03</rscale>
<asrwt>0</asrwt>
<pdfrwt beam="2">  1        4 0.45630936E-02 0.12500384E+03</pdfrwt>
<pdfrwt beam="1">  1       -4 0.20262855E-01 0.12500384E+03</pdfrwt>
<totfact> 0.97071182E+03</totfact>
</mgrwt>
</event>
<event>
 5    1  0.3235144E-002  0.1249815E+03  0.7818608E-02  0.1235098E+00
         -4   -1    0    0    0  501 -0.00000000000E+00  0.00000000000E+00  0.21556282132E+02  0.21593661092E+02  0.12700000000E+01 0. -1.
          4   -1    0    0  501    0  0.00000000000E+00 -0.00000000000E+00 -0.18096137602E+03  0.18096583244E+03  0.12700000000E+01 0. -1.
         25    2    1    2    0    0  0.00000000000E+00  0.00000000000E+00 -0.15940509389E+03  0.20255949353E+03  0.12498145648E+03 0.  0.
    9000005    1    3    3    0    0  0.15337506087E+02 -0.58672084248E+02 -0.10409088500E+03  0.12047225781E+03  0.10000000000E+01 0.  0.
    9000005    1    3    3    0    0 -0.15337506087E+02  0.58672084248E+02 -0.55314208890E+02  0.82087235719E+02  0.10000000000E+01 0.  0.
<mgrwt>
<rscale>  0 0.12498146E+03</rscale>
<asrwt>0</asrwt>
<pdfrwt beam="2">  1        4 0.27843429E-01 0.12498146E+03</pdfrwt>
<pdfrwt beam="1">  1       -4 0.33195693E-02 0.12498146E+03</pdfrwt>
<totfact> 0.89742841E+03</totfact>
</mgrwt>
</event>
<event>
 4    1  0.3235144E-002  0.1255294E+03  0.7818608E-02  0.1234244E+00
          4   -1    0    0  501    0  0.00000000000E+00  0.00000000000E+00  0.33847278965E+03  0.33847517226E+03  0.12700000000E+01 0. -1.
         -4   -1    0    0    0  501 -0.00000000000E+00 -0.00000000000E+00 -0.11601696748E+02  0.11671001132E+02  0.12700000000E+01 0. -1.
    9000005    1    1    2    0    0  0.48125291390E+02  0.37696757753E+02  0.12385827101E+03  0.13812661045E+03  0.10000000000E+01 0.  0.
    9000005    1    1    2    0    0 -0.48125291390E+02 -0.37696757753E+02  0.20301282189E+03  0.21201956294E+03  0.10000000000E+01 0.  0.
<mgrwt>
<rscale>  0 0.12552940E+03</rscale>
<asrwt>0</asrwt>
<pdfrwt beam="1">  1        4 0.52078252E-01 0.12552940E+03</pdfrwt>
<pdfrwt beam="2">  1       -4 0.17903908E-02 0.12552940E+03</pdfrwt>
<totfact> 0.68898058E+03</totfact>
</mgrwt>
</event>
<event>
 5    1  0.3235144E-002  0.1249906E+03  0.7818608E-02  0.1235084E+00
         -4   -1    0    0    0  501 -0.00000000000E+00  0.00000000000E+00  0.13086750834E+03  0.13087367054E+03  0.12700000000E+01 0.  1.
          4   -1    0    0  501    0  0.00000000000E+00 -0.00000000000E+00 -0.29824005811E+02  0.29851033862E+02  0.12700000000E+01 0.  1.
         25    2    1    2    0    0  0.00000000000E+00  0.00000000000E+00  0.10104350253E+03  0.16072470440E+03  0.12499056444E+03 0.  0.
    9000005    1    3    3    0    0 -0.36646807890E+02  0.42339180948E+02  0.86182222601E+02  0.10278117661E+03  0.10000000000E+01 0.  0.
    9000005    1    3    3    0    0  0.36646807890E+02 -0.42339180948E+02  0.14861279929E+02  0.57943527792E+02  0.10000000000E+01 0.  0.
<mgrwt>
<rscale>  0 0.12499056E+03</rscale>
<asrwt>0</asrwt>
<pdfrwt beam="2">  1        4 0.45908617E-02 0.12499056E+03</pdfrwt>
<pdfrwt beam="1">  1       -4 0.20136016E-01 0.12499056E+03</pdfrwt>
<totfact> 0.97223866E+03</totfact>
</mgrwt>
</event>
<event>
 5    1  0.3235144E-002  0.1249955E+03  0.7818608E-02  0.1235076E+00
          4   -1    0    0  501    0  0.00000000000E+00  0.00000000000E+00  0.36135728966E+03  0.36135952138E+03  0.12700000000E+01 0. -1.
         -4   -1    0    0    0  501 -0.00000000000E+00 -0.00000000000E+00 -0.10769576791E+02  0.10844200490E+02  0.12700000000E+01 0. -1.
         25    2    1    2    0    0  0.00000000000E+00  0.00000000000E+00  0.35058771287E+03  0.37220372187E+03  0.12499546455E+03 0.  0.
    9000005    1    3    3    0    0  0.61992135390E+02  0.65501890836E+01  0.16230166452E+03  0.17386420027E+03  0.10000000000E+01 0.  0.
    9000005    1    3    3    0    0 -0.61992135390E+02 -0.65501890836E+01  0.18828604834E+03  0.19833952160E+03  0.10000000000E+01 0.  0.
<mgrwt>
<rscale>  0 0.12499546E+03</rscale>
<asrwt>0</asrwt>
<pdfrwt beam="1">  1        4 0.55599352E-01 0.12499546E+03</pdfrwt>
<pdfrwt beam="2">  1       -4 0.16627696E-02 0.12499546E+03</pdfrwt>
<totfact> 0.67355758E+03</totfact>
</mgrwt>
</event>
<event>
 5    1  0.3235144E-002  0.1250017E+03  0.7818608E-02  0.1235067E+00
         -4   -1    0    0    0  501 -0.00000000000E+00  0.00000000000E+00  0.55109994232E+02  0.55124625752E+02  0.12700000000E+01 0.  1.
          4   -1    0    0  501    0  0.00000000000E+00 -0.00000000000E+00 -0.70853204432E+02  0.70864585501E+02  0.12700000000E+01 0.  1.
         25    2    1    2    0    0  0.00000000000E+00  0.00000000000E+00 -0.15743210199E+02  0.12598921125E+03  0.12500173073E+03 0.  0.
    9000005    1    3    3    0    0 -0.23906145314E+02  0.39409263103E+01 -0.65931559639E+02  0.70249592457E+02  0.10000000000E+01 0.  0.
    9000005    1    3    3    0    0  0.23906145314E+02 -0.39409263103E+01  0.50188349440E+02  0.55739618796E+02  0.10000000000E+01 0.  0.
<mgrwt>
<rscale>  0 0.12500173E+03</rscale>
<asrwt>0</asrwt>
<pdfrwt beam="2">  1        4 0.10902494E-01 0.12500173E+03</pdfrwt>
<pdfrwt beam="1">  1       -4 0.84804615E-02 0.12500173E+03</pdfrwt>
<totfact> 0.10430786E+04</totfact>
</mgrwt>
</event>
<event>
 5    1  0.3235144E-002  0.1250048E+03  0.7818608E-02  0.1235062E+00
         -4   -1    0    0    0  501 -0.00000000000E+00  0.00000000000E+00  0.27192960577E+02  0.27222600995E+02  0.12700000000E+01 0.  1.
          4   -1    0    0  501    0  0.00000000000E+00 -0.00000000000E+00 -0.14354968487E+03  0.14355530268E+03  0.12700000000E+01 0.  1.
         25    2    1    2    0    0  0.00000000000E+00  0.00000000000E+00 -0.11635672430E+03  0.17077790367E+03  0.12500482028E+03 0.  0.
    9000005    1    3    3    0    0  0.74423168876E+01 -0.25977719014E+01  0.26517763775E+02  0.27682635264E+02  0.10000000000E+01 0.  0.
    9000005    1    3    3    0    0 -0.74423168876E+01  0.25977719014E+01 -0.14287448807E+03  0.14309526841E+03  0.10000000000E+01 0.  0.
<mgrwt>
<rscale>  0 0.12500482E+03</rscale>
<asrwt>0</asrwt>
<pdfrwt beam="2">  1        4 0.22087279E-01 0.12500482E+03</pdfrwt>
<pdfrwt beam="1">  1       -4 0.41862447E-02 0.12500482E+03</pdfrwt>
<totfact> 0.95293535E+03</totfact>
</mgrwt>
</event>
<event>
 5    1  0.3235144E-002  0.1249948E+03  0.7818608E-02  0.1235077E+00
         -4   -1    0    0    0  501 -0.00000000000E+00  0.00000000000E+00  0.77544312523E+02  0.77554711686E+02  0.12700000000E+01 0. -1.
          4   -1    0    0  501    0  0.00000000000E+00 -0.00000000000E+00 -0.50348432264E+02  0.50364447097E+02  0.12700000000E+01 0. -1.
         25    2    1    2    0    0  0.00000000000E+00  0.00000000000E+00  0.27195880260E+02  0.12791915878E+03  0.12499478101E+03 0.  0.
    9000005    1    3    3    0    0  0.25704096203E+02 -0.23792357116E+02 -0.39363638351E+02  0.52699837220E+02  0.10000000000E+01 0.  0.
    9000005    1    3    3    0    0 -0.25704096203E+02  0.23792357116E+02  0.66559518611E+02  0.75219321564E+02  0.10000000000E+01 0.  0.
<mgrwt>
<rscale>  0 0.12499478E+03</rscale>
<asrwt>0</asrwt>
<pdfrwt beam="2">  1        4 0.77479445E-02 0.12499478E+03</pdfrwt>
<pdfrwt beam="1">  1       -4 0.11931926E-01 0.12499478E+03</pdfrwt>
<totfact> 0.10390458E+04</totfact>
</mgrwt>
</event>
<event>
 5    1  0.3235144E-002  0.1250019E+03  0.7818608E-02  0.1235066E+00
          4   -1    0    0  501    0  0.00000000000E+00  0.00000000000E+00  0.23991771957E+02  0.24025362050E+02  0.12700000000E+01 0. -1.
         -4   -1    0    0    0  501 -0.00000000000E+00 -0.00000000000E+00 -0.16267118825E+03  0.16267614572E+03  0.12700000000E+01 0. -1.
         25    2    1    2    0    0  0.00000000000E+00  0.00000000000E+00 -0.13867941629E+03  0.18670150777E+03  0.12500188999E+03 0.  0.
    9000005    1    3    3    0    0 -0.41414747673E+02 -0.33252302644E+02 -0.20153850200E+02  0.56816147650E+02  0.10000000000E+01 0.  0.
    9000005    1    3    3    0    0  0.41414747673E+02  0.33252302644E+02 -0.11852556609E+03  0.12988536012E+03  0.10000000000E+01 0.  0.
<mgrwt>
<rscale>  0 0.12500189E+03</rscale>
<asrwt>0</asrwt>
<pdfrwt beam="1">  1        4 0.36940071E-02 0.12500189E+03</pdfrwt>
<pdfrwt beam="2">  1       -4 0.25029301E-01 0.12500189E+03</pdfrwt>
<totfact> 0.92420516E+03</totfact>
</mgrwt>
</event>
<event>
 4    1  0.3235144E-002  0.1251884E+03  0.7818608E-02  0.1234775E+00
          4   -1    0    0  501    0  0.00000000000E+00  0.00000000000E+00  0.68354291876E+02  0.68366088947E+02  0.12700000000E+01 0.  1.
         -4   -1    0    0    0  501 -0.00000000000E+00 -0.00000000000E+00 -0.57295735691E+02  0.57309809181E+02  0.12700000000E+01 0.  1.
    9000005    1    1    2    0    0  0.11790966093E+02 -0.43368020568E+02 -0.38197454050E+02  0.58990317725E+02  0.10000000000E+01 0.  0.
    9000005    1    1    2    0    0 -0.11790966093E+02  0.43368020568E+02  0.49256010235E+02  0.66685580403E+02  0.10000000000E+01 0.  0.
<mgrwt>
<rscale>  0 0.12518842E+03</rscale>
<asrwt>0</asrwt>
<pdfrwt beam="1">  1        4 0.10518035E-01 0.12518842E+03</pdfrwt>
<pdfrwt beam="2">  1       -4 0.88167186E-02 0.12518842E+03</pdfrwt>
<totfact> 0.10393835E+04</totfact>
</mgrwt>
</event>
<event>
 5    1  0.3235144E-002  0.1250034E+03  0.7818608E-02  0.1235064E+00
         -4   -1    0    0    0  501 -0.00000000000E+00  0.00000000000E+00  0.88461622121E+01  0.89368610755E+01  0.12700000000E+01 0.  1.
          4   -1    0    0  501    0  0.00000000000E+00 -0.00000000000E+00 -0.43925552649E+03  0.43925736243E+03  0.12700000000E+01 0.  1.
         25    2    1    2    0    0  0.00000000000E+00  0.00000000000E+00 -0.43040936427E+03  0.44819422351E+03  0.12500336447E+03 0.  0.
    9000005    1    3    3    0    0 -0.25268677233E+02 -0.56322013606E+02 -0.25011183255E+03  0.25761910653E+03  0.10000000000E+01 0.  0.
    9000005    1    3    3    0    0  0.25268677233E+02  0.56322013606E+02 -0.18029753172E+03  0.19057511698E+03  0.10000000000E+01 0.  0.
<mgrwt>
<rscale>  0 0.12500336E+03</rscale>
<asrwt>0</asrwt>
<pdfrwt beam="2">  1        4 0.67584875E-01 0.12500336E+03</pdfrwt>
<pdfrwt beam="1">  1       -4 0.13680664E-02 0.12500336E+03</pdfrwt>
<totfact> 0.60116100E+03</totfact>
</mgrwt>
</event>
<event>
 5    1  0.3235144E-002  0.1250003E+03  0.7818608E-02  0.1235069E+00
          4   -1    0    0  501    0  0.00000000000E+00  0.00000000000E+00  0.22288368761E+02  0.22324521989E+02  0.12700000000E+01 0.  1.
         -4   -1    0    0    0  501 -0.00000000000E+00 -0.00000000000E+00 -0.17507993721E+03  0.17508454333E+03  0.12700000000E+01 0.  1.
         25    2    1    2    0    0  0.00000000000E+00  0.00000000000E+00 -0.15279156845E+03  0.19740906532E+03  0.12500030272E+03 0.  0.
    9000005    1    3    3    0    0  0.59540782992E+02  0.39079869239E+01 -0.47066773726E+02  0.76004331391E+02  0.10000000000E+01 0.  0.
    9000005    1    3    3    0    0 -0.59540782992E+02 -0.39079869239E+01 -0.10572479472E+03  0.12140473393E+03  0.10000000000E+01 0.  0.
<mgrwt>
<rscale>  0 0.12500030E+03</rscale>
<asrwt>0</asrwt>
<pdfrwt beam="1">  1        4 0.34321152E-02 0.12500030E+03</pdfrwt>
<pdfrwt beam="2">  1       -4 0.26938509E-01 0.12500030E+03</pdfrwt>
<totfact> 0.90573290E+03</totfact>
</mgrwt>
</event>
<event>
 5    1  0.3235144E-002  0.1250034E+03  0.7818608E-02  0.1235064E+00
         -4   -1    0    0    0  501 -0.00000000000E+00  0.00000000000E+00  0.32142735706E+03  0.32142986601E+03  0.12700000000E+01 0.  1.
          4   -1    0    0  501    0  0.00000000000E+00 -0.00000000000E+00 -0.12117740378E+02  0.12184109811E+02  0.12700000000E+01 0.  1.
         25    2    1    2    0    0  0.00000000000E+00  0.00000000000E+00  0.30930961668E+03  0.33361397582E+03  0.12500338353E+03 0.  0.
    9000005    1    3    3    0    0 -0.13569271516E+01  0.52606804714E+02  0.24461268963E+03  0.25021128088E+03  0.10000000000E+01 0.  0.
    9000005    1    3    3    0    0  0.13569271516E+01 -0.52606804714E+02  0.64696927048E+02  0.83402694939E+02  0.10000000000E+01 0.  0.
<mgrwt>
<rscale>  0 0.12500338E+03</rscale>
<asrwt>0</asrwt>
<pdfrwt beam="2">  1        4 0.18695662E-02 0.12500338E+03</pdfrwt>
<pdfrwt beam="1">  1       -4 0.49455657E-01 0.12500338E+03</pdfrwt>
<totfact> 0.71560291E+03</totfact>
</mgrwt>
</event>
<event>
 5    1  0.3235144E-002  0.1250003E+03  0.7818608E-02  0.1235069E+00
          4   -1    0    0  501    0  0.00000000000E+00  0.00000000000E+00  0.80654115703E+01  0.81647880436E+01  0.12700000000E+01 0.  1.
         -4   -1    0    0    0  501 -0.00000000000E+00 -0.00000000000E+00 -0.48125774522E+03  0.48125942093E+03  0.12700000000E+01 0.  1.
         25    2    1    2    0    0  0.00000000000E+00  0.00000000000E+00 -0.47319233365E+03  0.48942420898E+03  0.12500028682E+03 0.  0.
    9000005    1    3    3    0    0 -0.51947300240E+02 -0.19350307247E+02 -0.12363806275E+03  0.13550028396E+03  0.10000000000E+01 0.  0.
    9000005    1    3    3    0    0  0.51947300240E+02  0.19350307247E+02 -0.34955427091E+03  0.35392392502E+03  0.10000000000E+01 0.  0.
<mgrwt>
<rscale>  0 0.12500029E+03</rscale>
<asrwt>0</asrwt>
<pdfrwt beam="1">  1        4 0.12486062E-02 0.12500029E+03</pdfrwt>
<pdfrwt beam="2">  1       -4 0.74047404E-01 0.12500029E+03</pdfrwt>
<totfact> 0.56694008E+03</totfact>
</mgrwt>
</event>
<event>
 5    1  0.3235144E-002  0.1249943E+03  0.7818608E-02  0.1235078E+00
         -4   -1    0    0    0  501 -0.00000000000E+00  0.00000000000E+00  0.14551372677E+03  0.14551926875E+03  0.12700000000E+01 0.  1.
          4   -1    0    0  501    0  0.00000000000E+00 -0.00000000000E+00 -0.26821019122E+02  0.26851070123E+02  0.12700000000E+01 0.  1.
         25    2    1    2    0    0  0.00000000000E+00  0.00000000000E+00  0.11869270765E+03  0.17237033887E+03  0.12499429937E+03 0.  0.
    9000005    1    3    3    0    0 -0.45414548120E+01 -0.52437492125E+02  0.12895941814E+02  0.54199822024E+02  0.10000000000E+01 0.  0.
    9000005    1    3    3    0    0  0.45414548120E+01  0.52437492125E+02  0.10579676583E+03  0.11817051685E+03  0.10000000000E+01 0.  0.
<mgrwt>
<rscale>  0 0.12499430E+03</rscale>
<asrwt>0</asrwt>
<pdfrwt beam="2">  1        4 0.41290485E-02 0.12499430E+03</pdfrwt>
<pdfrwt beam="1">  1       -4 0.22389465E-01 0.12499430E+03</pdfrwt>
<totfact> 0.95020829E+03</totfact>
</mgrwt>
</event>
<event>
 5    1  0.3235144E-002  0.1249692E+03  0.7818608E-02  0.1235117E+00
         -4   -1    0    0    0  501 -0.00000000000E+00  0.00000000000E+00  0.36707140456E+02  0.36729103725E+02  0.12700000000E+01 0.  1.
          4   -1    0    0  501    0  0.00000000000E+00 -0.00000000000E+00 -0.10630668158E+03  0.10631426738E+03  0.12700000000E+01 0.  1.
         25    2    1    2    0    0  0.00000000000E+00  0.00000000000E+00 -0.69599541126E+02  0.14304337111E+03  0.12496923578E+03 0.  0.
    9000005    1    3    3    0    0 -0.55610325863E+02 -0.12552806687E+02 -0.55445713183E+01  0.57287202492E+02  0.10000000000E+01 0.  0.
    9000005    1    3    3    0    0  0.55610325863E+02  0.12552806687E+02 -0.64054969808E+02  0.85756168614E+02  0.10000000000E+01 0.  0.
<mgrwt>
<rscale>  0 0.12496924E+03</rscale>
<asrwt>0</asrwt>
<pdfrwt beam="2">  1        4 0.16357147E-01 0.12496924E+03</pdfrwt>
<pdfrwt beam="1">  1       -4 0.56495254E-02 0.12496924E+03</pdfrwt>
<totfact> 0.10077876E+04</totfact>
</mgrwt>
</event>
<event>
 5    1  0.3235144E-002  0.1249985E+03  0.7818608E-02  0.1235072E+00
         -4   -1    0    0    0  501 -0.00000000000E+00  0.00000000000E+00  0.42830363705E+02  0.42849188500E+02  0.12700000000E+01 0.  1.
          4   -1    0    0  501    0  0.00000000000E+00 -0.00000000000E+00 -0.91157318709E+02  0.91166165074E+02  0.12700000000E+01 0.  1.
         25    2    1    2    0    0  0.00000000000E+00  0.00000000000E+00 -0.48326955004E+02  0.13401535357E+03  0.12499848164E+03 0.  0.
    9000005    1    3    3    0    0 -0.18212318427E+02 -0.68661913954E+01 -0.87829951858E+02  0.89966291299E+02  0.10000000000E+01 0.  0.
    9000005    1    3    3    0    0  0.18212318427E+02  0.68661913954E+01  0.39502996854E+02  0.44049062274E+02  0.10000000000E+01 0.  0.
<mgrwt>
<rscale>  0 0.12499848E+03</rscale>
<asrwt>0</asrwt>
<pdfrwt beam="2">  1        4 0.14026331E-01 0.12499848E+03</pdfrwt>
<pdfrwt beam="1">  1       -4 0.65914153E-02 0.12499848E+03</pdfrwt>
<totfact> 0.10259218E+04</totfact>
</mgrwt>
</event>
<event>
 5    1  0.3235144E-002  0.1250007E+03  0.7818608E-02  0.1235068E+00
          4   -1    0    0  501    0  0.00000000000E+00  0.00000000000E+00  0.18872367076E+02  0.18915050596E+02  0.12700000000E+01 0.  1.
         -4   -1    0    0    0  501 -0.00000000000E+00 -0.00000000000E+00 -0.20670637271E+03  0.20671027410E+03  0.12700000000E+01 0.  1.
         25    2    1    2    0    0  0.00000000000E+00  0.00000000000E+00 -0.18783400563E+03  0.22562532469E+03  0.12500069389E+03 0.  0.
    9000005    1    3    3    0    0 -0.31379606799E+02 -0.83491264970E+01 -0.19029254826E+03  0.19304569811E+03  0.10000000000E+01 0.  0.
    9000005    1    3    3    0    0  0.31379606799E+02  0.83491264970E+01  0.24585426333E+01  0.32579626579E+02  0.10000000000E+01 0.  0.
<mgrwt>
<rscale>  0 0.12500069E+03</rscale>
<asrwt>0</asrwt>
<pdfrwt beam="1">  1        4 0.29070247E-02 0.12500069E+03</pdfrwt>
<pdfrwt beam="2">  1       -4 0.31804562E-01 0.12500069E+03</pdfrwt>
<totfact> 0.85984560E+03</totfact>
</mgrwt>
</event>
<event>
 5    1  0.3235144E-002  0.1249958E+03  0.7818608E-02  0.1235076E+00
          4   -1    0    0  501    0  0.00000000000E+00  0.00000000000E+00  0.41227758397E+03  0.41227954005E+03  0.12700000000E+01 0.  1.
         -4   -1    0    0    0  501 -0.00000000000E+00 -0.00000000000E+00 -0.94296189852E+01  0.95147577061E+01  0.12700000000E+01 0.  1.
         25    2    1    2    0    0  0.00000000000E+00  0.00000000000E+00  0.40284796498E+03  0.42179429775E+03  0.12499578684E+03 0.  0.
    9000005    1    3    3    0    0 -0.57912429279E+02 -0.84595931880E+01  0.27532194515E+03  0.28147573192E+03  0.10000000000E+01 0.  0.
    9000005    1    3    3    0    0  0.57912429279E+02  0.84595931880E+01  0.12752601983E+03  0.14031856583E+03  0.10000000000E+01 0.  0.
<mgrwt>
<rscale>  0 0.12499579E+03</rscale>
<asrwt>0</asrwt>
<pdfrwt beam="1">  1        4 0.63434008E-01 0.12499579E+03</pdfrwt>
<pdfrwt beam="2">  1       -4 0.14574105E-02 0.12499579E+03</pdfrwt>
<totfact> 0.62492709E+03</totfact>
</mgrwt>
</event>
<event>
 5    1  0.3235144E-002  0.1249780E+03  0.7818608E-02  0.1235104E+00
          4   -1    0    0  501    0  0.00000000000E+00  0.00000000000E+00  0.14453398461E+03  0.14453956416E+03  0.12700000000E+01 0.  1.
         -4   -1    0    0    0  501 -0.00000000000E+00 -0.00000000000E+00 -0.26995967930E+02  0.27025824400E+02  0.12700000000E+01 0.  1.
         25    2    1    2    0    0  0.00000000000E+00  0.00000000000E+00  0.11753801668E+03  0.17156538856E+03  0.12497798681E+03 0.  0.
    9000005    1    3    3    0    0  0.17342450622E+02  0.46876746053E+02  0.11023733675E+03  0.12104321677E+03  0.10000000000E+01 0.  0.
    9000005    1    3    3    0    0 -0.17342450622E+02 -0.46876746053E+02  0.73006799302E+01  0.50522171781E+02  0.10000000000E+01 0.  0.
<mgrwt>
<rscale>  0 0.12497799E+03</rscale>
<asrwt>0</asrwt>
<pdfrwt beam="1">  1        4 0.22238724E-01 0.12497799E+03</pdfrwt>
<pdfrwt beam="2">  1       -4 0.41559516E-02 0.12497799E+03</pdfrwt>
<totfact> 0.95204695E+03</totfact>
</mgrwt>
</event>
<event>
 5    1  0.3235144E-002  0.1249911E+03  0.7818608E-02  0.1235083E+00
          4   -1    0    0  501    0  0.00000000000E+00  0.00000000000E+00  0.10915047150E+03  0.10915785968E+03  0.12700000000E+01 0.  1.
         -4   -1    0    0    0  501 -0.00000000000E+00 -0.00000000000E+00 -0.35762802217E+02  0.35785345079E+02  0.12700000000E+01 0.  1.
         25    2    1    2    0    0  0.00000000000E+00  0.00000000000E+00  0.73387669286E+02  0.14494320476E+03  0.12499113009E+03 0.  0.
    9000005    1    3    3    0    0 -0.51872388864E+02  0.29401794552E+01 -0.35655722479E+01  0.52087452300E+02  0.10000000000E+01 0.  0.
    9000005    1    3    3    0    0  0.51872388864E+02 -0.29401794552E+01  0.76953241534E+02  0.92855752457E+02  0.10000000000E+01 0.  0.
<mgrwt>
<rscale>  0 0.12499113E+03</rscale>
<asrwt>0</asrwt>
<pdfrwt beam="1">  1        4 0.16794682E-01 0.12499113E+03</pdfrwt>
<pdfrwt beam="2">  1       -4 0.55042720E-02 0.12499113E+03</pdfrwt>
<totfact> 0.10034147E+04</totfact>
</mgrwt>
</event>
<event>
 5    1  0.3235144E-002  0.1250006E+03  0.7818608E-02  0.1235068E+00
         -4   -1    0    0    0  501 -0.00000000000E+00  0.00000000000E+00  0.27777202185E+02  0.27806219830E+02  0.12700000000E+01 0.  1.
          4   -1    0    0  501    0  0.00000000000E+00 -0.00000000000E+00 -0.14052384950E+03  0.14052958827E+03  0.12700000000E+01 0.  1.
         25    2    1    2    0    0  0.00000000000E+00  0.00000000000E+00 -0.11274664732E+03  0.16833580810E+03  0.12500055123E+03 0.  0.
    9000005    1    3    3    0    0 -0.32057476342E+02  0.26529328898E+02 -0.11916095644E+03  0.12622131603E+03  0.10000000000E+01 0.  0.
    9000005    1    3    3    0    0  0.32057476342E+02 -0.26529328898E+02  0.64143091160E+01  0.42114492073E+02  0.10000000000E+01 0.  0.
<mgrwt>
<rscale>  0 0.12500055E+03</rscale>
<asrwt>0</asrwt>
<pdfrwt beam="2">  1        4 0.21621727E-01 0.12500055E+03</pdfrwt>
<pdfrwt beam="1">  1       -4 0.42760893E-02 0.12500055E+03</pdfrwt>
<totfact> 0.95758161E+03</totfact>
</mgrwt>
</event>
<event>
 5    1  0.3235144E-002  0.1249980E+03  0.7818608E-02  0.1235072E+00
          4   -1    0    0  501    0  0.00000000000E+00  0.00000000000E+00  0.16438803263E+03  0.16439293833E+03  0.12700000000E+01 0. -1.
         -4   -1    0    0    0  501 -0.00000000000E+00 -0.00000000000E+00 -0.23739393661E+02  0.23773340350E+02  0.12700000000E+01 0. -1.
         25    2    1    2    0    0  0.00000000000E+00  0.00000000000E+00  0.14064863897E+03  0.18816627868E+03  0.12499803513E+03 0.  0.
    9000005    1    3    3    0    0 -0.14186210936E+02 -0.13427758120E+02  0.15968167419E+03  0.16087507682E+03  0.10000000000E+01 0.  0.
    9000005    1    3    3    0    0  0.14186210936E+02  0.13427758120E+02 -0.19033035225E+02  0.27291201856E+02  0.10000000000E+01 0.  0.
<mgrwt>
<rscale>  0 0.12499804E+03</rscale>
<asrwt>0</asrwt>
<pdfrwt beam="1">  1        4 0.25293456E-01 0.12499804E+03</pdfrwt>
<pdfrwt beam="2">  1       -4 0.36552030E-02 0.12499804E+03</pdfrwt>
<totfact> 0.92171414E+03</totfact>
</mgrwt>
</event>
<event>
 5    1  0.3235144E-002  0.1250030E+03  0.7818608E-02  0.1235065E+00
         -4   -1    0    0    0  501 -0.00000000000E+00  0.00000000000E+00  0.24190676141E+01  0.27321764441E+01  0.12700000000E+01 0.  1.
          4   -1    0    0  501    0  0.00000000000E+00 -0.00000000000E+00 -0.15163833013E+04  0.15163838331E+04  0.12700000000E+01 0.  1.
         25    2    1    2    0    0  0.00000000000E+00  0.00000000000E+00 -0.15139642337E+04  0.15191160096E+04  0.12500299856E+03 0.  0.
    9000005    1    3    3    0    0  0.71957079554E+01  0.58702845939E+01 -0.15080110205E+04  0.15080399452E+04  0.10000000000E+01 0.  0.
    9000005    1    3    3    0    0 -0.71957079554E+01 -0.58702845939E+01 -0.59532132009E+01  0.11076064356E+02  0.10000000000E+01 0.  0.
<mgrwt>
<rscale>  0 0.12500300E+03</rscale>
<asrwt>0</asrwt>
<pdfrwt beam="2">  1        4 0.23331315E+00 0.12500300E+03</pdfrwt>
<pdfrwt beam="1">  1       -4 0.39629166E-03 0.12500300E+03</pdfrwt>
<totfact> 0.17556612E+03</totfact>
</mgrwt>
</event>
<event>
 4    1  0.3235144E-002  0.1248265E+03  0.7818608E-02  0.1235341E+00
          4   -1    0    0  501    0  0.00000000000E+00  0.00000000000E+00  0.16232274304E+02  0.16281880392E+02  0.12700000000E+01 0. -1.
         -4   -1    0    0    0  501 -0.00000000000E+00 -0.00000000000E+00 -0.23956218186E+03  0.23956554818E+03  0.12700000000E+01 0. -1.
    9000005    1    1    2    0    0 -0.13628761637E+02 -0.33626923368E+01 -0.23629429726E+03  0.23671300295E+03  0.10000000000E+01 0.  0.
    9000005    1    1    2    0    0  0.13628761637E+02  0.33626923368E+01  0.12964389713E+02  0.19134425629E+02  0.10000000000E+01 0.  0.
<mgrwt>
<rscale>  0 0.12482652E+03</rscale>
<asrwt>0</asrwt>
<pdfrwt beam="1">  1        4 0.25013479E-02 0.12482652E+03</pdfrwt>
<pdfrwt beam="2">  1       -4 0.36859793E-01 0.12482652E+03</pdfrwt>
<totfact> 0.81807971E+03</totfact>
</mgrwt>
</event>
<event>
 5    1  0.3235144E-002  0.1249988E+03  0.7818608E-02  0.1235071E+00
          4   -1    0    0  501    0  0.00000000000E+00  0.00000000000E+00  0.11522964462E+02  0.11592739538E+02  0.12700000000E+01 0. -1.
         -4   -1    0    0    0  501 -0.00000000000E+00 -0.00000000000E+00 -0.33789603419E+03  0.33789842087E+03  0.12700000000E+01 0. -1.
         25    2    1    2    0    0  0.00000000000E+00  0.00000000000E+00 -0.32637306973E+03  0.34949116040E+03  0.12499876221E+03 0.  0.
    9000005    1    3    3    0    0  0.21433071059E+02  0.47029037177E+02 -0.64966601398E+02  0.83022684671E+02  0.10000000000E+01 0.  0.
    9000005    1    3    3    0    0 -0.21433071059E+02 -0.47029037177E+02 -0.26140646833E+03  0.26646847573E+03  0.10000000000E+01 0.  0.
<mgrwt>
<rscale>  0 0.12499876E+03</rscale>
<asrwt>0</asrwt>
<pdfrwt beam="1">  1        4 0.17783149E-02 0.12499876E+03</pdfrwt>
<pdfrwt beam="2">  1       -4 0.51989549E-01 0.12499876E+03</pdfrwt>
<totfact> 0.69782486E+03</totfact>
</mgrwt>
</event>
<event>
 5    1  0.3235144E-002  0.1250000E+03  0.7818608E-02  0.1235069E+00
         -4   -1    0    0    0  501 -0.00000000000E+00  0.00000000000E+00  0.69244989353E+02  0.69256634703E+02  0.12700000000E+01 0.  1.
          4   -1    0    0  501    0  0.00000000000E+00 -0.00000000000E+00 -0.56388479285E+02  0.56402779153E+02  0.12700000000E+01 0.  1.
         25    2    1    2    0    0  0.00000000000E+00  0.00000000000E+00  0.12856510067E+02  0.12565941386E+03  0.12499999376E+03 0.  0.
    9000005    1    3    3    0    0  0.60547965684E+02  0.89758965632E+00  0.21949517603E+02  0.64417723793E+02  0.10000000000E+01 0.  0.
    9000005    1    3    3    0    0 -0.60547965684E+02 -0.89758965632E+00 -0.90930075363E+01  0.61241690063E+02  0.10000000000E+01 0.  0.
<mgrwt>
<rscale>  0 0.12499999E+03</rscale>
<asrwt>0</asrwt>
<pdfrwt beam="2">  1        4 0.86771464E-02 0.12499999E+03</pdfrwt>
<pdfrwt beam="1">  1       -4 0.10655071E-01 0.12499999E+03</pdfrwt>
<totfact> 0.10438439E+04</totfact>
</mgrwt>
</event>
<event>
 5    1  0.3235144E-002  0.1249988E+03  0.7818608E-02  0.1235071E+00
         -4   -1    0    0    0  501 -0.00000000000E+00  0.00000000000E+00  0.21277103076E+03  0.21277482095E+03  0.12700000000E+01 0.  1.
          4   -1    0    0  501    0  0.00000000000E+00 -0.00000000000E+00 -0.18332670104E+02  0.18376607226E+02  0.12700000000E+01 0.  1.
         25    2    1    2    0    0  0.00000000000E+00  0.00000000000E+00  0.19443836066E+03  0.23115142818E+03  0.12499882661E+03 0.  0.
    9000005    1    3    3    0    0  0.31506095788E+02 -0.47913435615E+02  0.14314731080E+03  0.15420922143E+03  0.10000000000E+01 0.  0.
    9000005    1    3    3    0    0 -0.31506095788E+02  0.47913435615E+02  0.51291049858E+02  0.76942206752E+02  0.10000000000E+01 0.  0.
<mgrwt>
<rscale>  0 0.12499883E+03</rscale>
<asrwt>0</asrwt>
<pdfrwt beam="2">  1        4 0.28240823E-02 0.12499883E+03</pdfrwt>
<pdfrwt beam="1">  1       -4 0.32737674E-01 0.12499883E+03</pdfrwt>
<totfact> 0.85135336E+03</totfact>
</mgrwt>
</event>
<event>
 5    1  0.3235144E-002  0.1249999E+03  0.7818608E-02  0.1235069E+00
         -4   -1    0    0    0  501 -0.00000000000E+00  0.00000000000E+00  0.51161242331E+03  0.51161399959E+03  0.12700000000E+01 0.  1.
          4   -1    0    0  501    0  0.00000000000E+00 -0.00000000000E+00 -0.75807477104E+01  0.76863929023E+01  0.12700000000E+01 0.  1.
         25    2    1    2    0    0  0.00000000000E+00  0.00000000000E+00  0.50403167559E+03  0.51930039250E+03  0.12499987057E+03 0.  0.
    9000005    1    3    3    0    0  0.40555157636E+02  0.42875113558E+02  0.33738317293E+03  0.34250752043E+03  0.10000000000E+01 0.  0.
    9000005    1    3    3    0    0 -0.40555157636E+02 -0.42875113558E+02  0.16664850266E+03  0.17679287206E+03  0.10000000000E+01 0.  0.
<mgrwt>
<rscale>  0 0.12499987E+03</rscale>
<asrwt>0</asrwt>
<pdfrwt beam="2">  1        4 0.11745165E-02 0.12499987E+03</pdfrwt>
<pdfrwt beam="1">  1       -4 0.78717861E-01 0.12499987E+03</pdfrwt>
<totfact> 0.54397532E+03</totfact>
</mgrwt>
</event>
<event>
 4    1  0.3235144E-002  0.1250878E+03  0.7818608E-02  0.1234932E+00
         -4   -1    0    0    0  501 -0.00000000000E+00  0.00000000000E+00  0.31410823532E+02  0.31436487319E+02  0.12700000000E+01 0.  1.
          4   -1    0    0  501    0  0.00000000000E+00 -0.00000000000E+00 -0.12445500183E+03  0.12446148151E+03  0.12700000000E+01 0.  1.
    9000005    1    1    2    0    0  0.62375237563E+02  0.40766620338E+01 -0.48836990225E+02  0.79330580790E+02  0.10000000000E+01 0.  0.
    9000005    1    1    2    0    0 -0.62375237563E+02 -0.40766620338E+01 -0.44207188073E+02  0.76567388042E+02  0.10000000000E+01 0.  0.
<mgrwt>
<rscale>  0 0.12508780E+03</rscale>
<asrwt>0</asrwt>
<pdfrwt beam="2">  1        4 0.19149396E-01 0.12508780E+03</pdfrwt>
<pdfrwt beam="1">  1       -4 0.48349070E-02 0.12508780E+03</pdfrwt>
<totfact> 0.97945989E+03</totfact>
</mgrwt>
</event>
<event>
 5    1  0.3235144E-002  0.1249971E+03  0.7818608E-02  0.1235074E+00
         -4   -1    0    0    0  501 -0.00000000000E+00  0.00000000000E+00  0.51588229894E+03  0.51588386218E+03  0.12700000000E+01 0.  1.
          4   -1    0    0  501    0  0.00000000000E+00 -0.00000000000E+00 -0.75167903814E+01  0.76233219556E+01  0.12700000000E+01 0.  1.
         25    2    1    2    0    0  0.00000000000E+00  0.00000000000E+00  0.50836550856E+03  0.52350718414E+03  0.12499712617E+03 0.  0.
    9000005    1    3    3    0    0  0.24275521177E+02 -0.38076119999E+02  0.43509832257E+03  0.43743644355E+03  0.10000000000E+01 0.  0.
    9000005    1    3    3    0    0 -0.24275521177E+02  0.38076119999E+02  0.73267185991E+02  0.86070740590E+02  0.10000000000E+01 0.  0.
<mgrwt>
<rscale>  0 0.12499713E+03</rscale>
<asrwt>0</asrwt>
<pdfrwt beam="2">  1        4 0.11647440E-02 0.12499713E+03</pdfrwt>
<pdfrwt beam="1">  1       -4 0.79374839E-01 0.12499713E+03</pdfrwt>
<totfact> 0.54088944E+03</totfact>
</mgrwt>
</event>
<event>
 5    1  0.3235144E-002  0.1250034E+03  0.7818608E-02  0.1235064E+00
         -4   -1    0    0    0  501 -0.00000000000E+00  0.00000000000E+00  0.23686147618E+03  0.23686488089E+03  0.12700000000E+01 0.  1.
          4   -1    0    0  501    0  0.00000000000E+00 -0.00000000000E+00 -0.16464632561E+02  0.16513540667E+02  0.12700000000E+01 0.  1.
         25    2    1    2    0    0  0.00000000000E+00  0.00000000000E+00  0.22039684362E+03  0.25337842155E+03  0.12500342328E+03 0.  0.
    9000005    1    3    3    0    0  0.26776800808E+02  0.49738685264E+02  0.16438078953E+03  0.17381880749E+03  0.10000000000E+01 0.  0.
    9000005    1    3    3    0    0 -0.26776800808E+02 -0.49738685264E+02  0.56016054090E+02  0.79559614058E+02  0.10000000000E+01 0.  0.
<mgrwt>
<rscale>  0 0.12500342E+03</rscale>
<asrwt>0</asrwt>
<pdfrwt beam="2">  1        4 0.25370446E-02 0.12500342E+03</pdfrwt>
<pdfrwt beam="1">  1       -4 0.36444248E-01 0.12500342E+03</pdfrwt>
<totfact> 0.81838142E+03</totfact>
</mgrwt>
</event>
<event>
 4    1  0.3235144E-002  0.1249345E+03  0.7818608E-02  0.1235172E+00
          4   -1    0    0  501    0  0.00000000000E+00  0.00000000000E+00  0.14995564610E+03  0.14996102393E+03  0.12700000000E+01 0. -1.
         -4   -1    0    0    0  501 -0.00000000000E+00 -0.00000000000E+00 -0.26000743114E+02  0.26031741057E+02  0.12700000000E+01 0. -1.
    9000005    1    1    2    0    0 -0.32323923879E+01 -0.61431728791E+02  0.46749811305E+02  0.77271278751E+02  0.10000000000E+01 0.  0.
    9000005    1    1    2    0    0  0.32323923879E+01  0.61431728791E+02  0.77205091681E+02  0.98721486234E+02  0.10000000000E+01 0.  0.
<mgrwt>
<rscale>  0 0.12493452E+03</rscale>
<asrwt>0</asrwt>
<pdfrwt beam="1">  1        4 0.23072898E-01 0.12493452E+03</pdfrwt>
<pdfrwt beam="2">  1       -4 0.40029124E-02 0.12493452E+03</pdfrwt>
<totfact> 0.94482026E+03</totfact>
</mgrwt>
</event>
<event>
 5    1  0.3235144E-002  0.1250007E+03  0.7818608E-02  0.1235068E+00
         -4   -1    0    0    0  501 -0.00000000000E+00  0.00000000000E+00  0.23947990592E+03  0.23948327341E+03  0.12700000000E+01 0.  1.
          4   -1    0    0  501    0  0.00000000000E+00 -0.00000000000E+00 -0.16283361420E+02  0.16332812346E+02  0.12700000000E+01 0.  1.
         25    2    1    2    0    0  0.00000000000E+00  0.00000000000E+00  0.22319654451E+03  0.25581608575E+03  0.12500068900E+03 0.  0.
    9000005    1    3    3    0    0 -0.38557891486E+02 -0.52333302151E+01  0.21167264531E+03  0.21522176357E+03  0.10000000000E+01 0.  0.
    9000005    1    3    3    0    0  0.38557891486E+02  0.52333302151E+01  0.11523899196E+02  0.40594322185E+02  0.10000000000E+01 0.  0.
<mgrwt>
<rscale>  0 0.12500069E+03</rscale>
<asrwt>0</asrwt>
<pdfrwt beam="2">  1        4 0.25091955E-02 0.12500069E+03</pdfrwt>
<pdfrwt beam="1">  1       -4 0.36847125E-01 0.12500069E+03</pdfrwt>
<totfact> 0.81495572E+03</totfact>
</mgrwt>
</event>
<event>
 4    1  0.3235144E-002  0.1251094E+03  0.7818608E-02  0.1234898E+00
         -4   -1    0    0    0  501 -0.00000000000E+00  0.00000000000E+00  0.12841466761E+03  0.12842094751E+03  0.12700000000E+01 0.  1.
          4   -1    0    0  501    0  0.00000000000E+00 -0.00000000000E+00 -0.30452019088E+02  0.30478490228E+02  0.12700000000E+01 0.  1.
    9000005    1    1    2    0    0  0.54305364460E+02  0.21075287899E+02  0.77911586351E+02  0.97285433940E+02  0.10000000000E+01 0.  0.
    9000005    1    1    2    0    0 -0.54305364460E+02 -0.21075287899E+02  0.20051062173E+02  0.61614003793E+02  0.10000000000E+01 0.  0.
<mgrwt>
<rscale>  0 0.12510936E+03</rscale>
<asrwt>0</asrwt>
<pdfrwt beam="2">  1        4 0.46874453E-02 0.12510936E+03</pdfrwt>
<pdfrwt beam="1">  1       -4 0.19758622E-01 0.12510936E+03</pdfrwt>
<totfact> 0.97315949E+03</totfact>
</mgrwt>
</event>
<event>
 5    1  0.3235144E-002  0.1249943E+03  0.7818608E-02  0.1235078E+00
          4   -1    0    0  501    0  0.00000000000E+00  0.00000000000E+00  0.19491283751E+02  0.19532614834E+02  0.12700000000E+01 0.  1.
         -4   -1    0    0    0  501 -0.00000000000E+00 -0.00000000000E+00 -0.20013613005E+03  0.20014015951E+03  0.12700000000E+01 0.  1.
         25    2    1    2    0    0  0.00000000000E+00  0.00000000000E+00 -0.18064484629E+03  0.21967277435E+03  0.12499426905E+03 0.  0.
    9000005    1    3    3    0    0 -0.39354920204E+02 -0.30076256748E+02 -0.15727923745E+03  0.16489739082E+03  0.10000000000E+01 0.  0.
    9000005    1    3    3    0    0  0.39354920204E+02  0.30076256748E+02 -0.23365608841E+02  0.54775383530E+02  0.10000000000E+01 0.  0.
<mgrwt>
<rscale>  0 0.12499427E+03</rscale>
<asrwt>0</asrwt>
<pdfrwt beam="1">  1        4 0.30021484E-02 0.12499427E+03</pdfrwt>
<pdfrwt beam="2">  1       -4 0.30793662E-01 0.12499427E+03</pdfrwt>
<totfact> 0.86931284E+03</totfact>
</mgrwt>
</event>
<event>
 5    1  0.3235144E-002  0.1250028E+03  0.7818608E-02  0.1235065E+00
         -4   -1    0    0    0  501 -0.00000000000E+00  0.00000000000E+00  0.43057731063E+03  0.43057918357E+03  0.12700000000E+01 0.  1.
          4   -1    0    0  501    0  0.00000000000E+00 -0.00000000000E+00 -0.90261822279E+01  0.91150899947E+01  0.12700000000E+01 0.  1.
         25    2    1    2    0    0  0.00000000000E+00  0.00000000000E+00  0.42155112840E+03  0.43969427357E+03  0.12500280138E+03 0.  0.
    9000005    1    3    3    0    0 -0.29025268177E+01  0.45983663710E+02  0.62268808560E+02  0.77468229033E+02  0.10000000000E+01 0.  0.
    9000005    1    3    3    0    0  0.29025268177E+01 -0.45983663710E+02  0.35928231984E+03  0.36222604453E+03  0.10000000000E+01 0.  0.
<mgrwt>
<rscale>  0 0.12500280E+03</rscale>
<asrwt>0</asrwt>
<pdfrwt beam="2">  1        4 0.13956266E-02 0.12500280E+03</pdfrwt>
<pdfrwt beam="1">  1       -4 0.66249644E-01 0.12500280E+03</pdfrwt>
<totfact> 0.60863229E+03</totfact>
</mgrwt>
</event>
<event>
 5    1  0.3235144E-002  0.1249977E+03  0.7818608E-02  0.1235073E+00
         -4   -1    0    0    0  501 -0.00000000000E+00  0.00000000000E+00  0.10120734887E+03  0.10121531685E+03  0.12700000000E+01 0. -1.
          4   -1    0    0  501    0  0.00000000000E+00 -0.00000000000E+00 -0.38575141558E+02  0.38596041846E+02  0.12700000000E+01 0. -1.
         25    2    1    2    0    0  0.00000000000E+00  0.00000000000E+00  0.62632207312E+02  0.13981135870E+03  0.12499769049E+03 0.  0.
    9000005    1    3    3    0    0 -0.52244657935E+02 -0.23634632678E+02  0.35327293816E+01  0.57459379752E+02  0.10000000000E+01 0.  0.
    9000005    1    3    3    0    0  0.52244657935E+02  0.23634632678E+02  0.59099477930E+02  0.82351978945E+02  0.10000000000E+01 0.  0.
<mgrwt>
<rscale>  0 0.12499769E+03</rscale>
<asrwt>0</asrwt>
<pdfrwt beam="2">  1        4 0.59368578E-02 0.12499769E+03</pdfrwt>
<pdfrwt beam="1">  1       -4 0.15572582E-01 0.12499769E+03</pdfrwt>
<totfact> 0.10138024E+04</totfact>
</mgrwt>
</event>
<event>
 5    1  0.3235144E-002  0.1250003E+03  0.7818608E-02  0.1235069E+00
          4   -1    0    0  501    0  0.00000000000E+00  0.00000000000E+00  0.47946272415E+03  0.47946440613E+03  0.12700000000E+01 0. -1.
         -4   -1    0    0    0  501 -0.00000000000E+00 -0.00000000000E+00 -0.80959765097E+01  0.81949823457E+01  0.12700000000E+01 0. -1.
         25    2    1    2    0    0  0.00000000000E+00  0.00000000000E+00  0.47136674764E+03  0.48765938848E+03  0.12500027356E+03 0.  0.
    9000005    1    3    3    0    0  0.13056226093E+02  0.60565868119E+02  0.20385093264E+03  0.21306077105E+03  0.10000000000E+01 0.  0.
    9000005    1    3    3    0    0 -0.13056226093E+02 -0.60565868119E+02  0.26751581500E+03  0.27459861743E+03  0.10000000000E+01 0.  0.
<mgrwt>
<rscale>  0 0.12500027E+03</rscale>
<asrwt>0</asrwt>
<pdfrwt beam="1">  1        4 0.73771258E-01 0.12500027E+03</pdfrwt>
<pdfrwt beam="2">  1       -4 0.12532798E-02 0.12500027E+03</pdfrwt>
<totfact> 0.56834369E+03</totfact>
</mgrwt>
</event>
<event>
 5    1  0.3235144E-002  0.1250021E+03  0.7818608E-02  0.1235066E+00
          4   -1    0    0  501    0  0.00000000000E+00  0.00000000000E+00  0.17352382318E+02  0.17398795133E+02  0.12700000000E+01 0. -1.
         -4   -1    0    0    0  501 -0.00000000000E+00 -0.00000000000E+00 -0.22477193311E+03  0.22477552094E+03  0.12700000000E+01 0. -1.
         25    2    1    2    0    0  0.00000000000E+00  0.00000000000E+00 -0.20741955079E+03  0.24217431607E+03  0.12500211724E+03 0.  0.
    9000005    1    3    3    0    0 -0.36737399382E+01 -0.58619961016E+01  0.16617746612E+02  0.18028002271E+02  0.10000000000E+01 0.  0.
    9000005    1    3    3    0    0  0.36737399382E+01  0.58619961016E+01 -0.22403729740E+03  0.22414631380E+03  0.10000000000E+01 0.  0.
<mgrwt>
<rscale>  0 0.12500212E+03</rscale>
<asrwt>0</asrwt>
<pdfrwt beam="1">  1        4 0.26734436E-02 0.12500212E+03</pdfrwt>
<pdfrwt beam="2">  1       -4 0.34584141E-01 0.12500212E+03</pdfrwt>
<totfact> 0.83470665E+03</totfact>
</mgrwt>
</event>
<event>
 5    1  0.3235144E-002  0.1250014E+03  0.7818608E-02  0.1235067E+00
          4   -1    0    0  501    0  0.00000000000E+00  0.00000000000E+00  0.12633705891E+03  0.12634344207E+03  0.12700000000E+01 0. -1.
         -4   -1    0    0    0  501 -0.00000000000E+00 -0.00000000000E+00 -0.30899733500E+02  0.30925821418E+02  0.12700000000E+01 0. -1.
         25    2    1    2    0    0  0.00000000000E+00  0.00000000000E+00  0.95437325406E+02  0.15726926348E+03  0.12500135262E+03 0.  0.
    9000005    1    3    3    0    0 -0.37776325605E+02  0.40334922591E+02  0.11008162948E+02  0.56357221437E+02  0.10000000000E+01 0.  0.
    9000005    1    3    3    0    0  0.37776325605E+02 -0.40334922591E+02  0.84429162458E+02  0.10091204205E+03  0.10000000000E+01 0.  0.
<mgrwt>
<rscale>  0 0.12500135E+03</rscale>
<asrwt>0</asrwt>
<pdfrwt beam="1">  1        4 0.19438968E-01 0.12500135E+03</pdfrwt>
<pdfrwt beam="2">  1       -4 0.47563030E-02 0.12500135E+03</pdfrwt>
<totfact> 0.97868871E+03</totfact>
</mgrwt>
</event>
<event>
 5    1  0.3235144E-002  0.1250121E+03  0.7818608E-02  0.1235050E+00
         -4   -1    0    0    0  501 -0.00000000000E+00  0.00000000000E+00  0.16216185884E+02  0.16265841036E+02  0.12700000000E+01 0. -1.
          4   -1    0    0  501    0  0.00000000000E+00 -0.00000000000E+00 -0.24051289299E+03  0.24051624601E+03  0.12700000000E+01 0. -1.
         25    2    1    2    0    0  0.00000000000E+00  0.00000000000E+00 -0.22429670711E+03  0.25678208705E+03  0.12501210905E+03 0.  0.
    9000005    1    3    3    0    0  0.23850936492E+02  0.37478007764E+02 -0.21850644392E+02  0.49516854684E+02  0.10000000000E+01 0.  0.
    9000005    1    3    3    0    0 -0.23850936492E+02 -0.37478007764E+02 -0.20244606272E+03  0.20726523237E+03  0.10000000000E+01 0.  0.
<mgrwt>
<rscale>  0 0.12501211E+03</rscale>
<asrwt>0</asrwt>
<pdfrwt beam="2">  1        4 0.37006059E-01 0.12501211E+03</pdfrwt>
<pdfrwt beam="1">  1       -4 0.24988756E-02 0.12501211E+03</pdfrwt>
<totfact> 0.81337850E+03</totfact>
</mgrwt>
</event>
<event>
 5    1  0.3235144E-002  0.1250050E+03  0.7818608E-02  0.1235061E+00
          4   -1    0    0  501    0  0.00000000000E+00  0.00000000000E+00  0.17474861715E+03  0.17475323200E+03  0.12700000000E+01 0. -1.
         -4   -1    0    0    0  501 -0.00000000000E+00 -0.00000000000E+00 -0.22332372891E+02  0.22368454997E+02  0.12700000000E+01 0. -1.
         25    2    1    2    0    0  0.00000000000E+00  0.00000000000E+00  0.15241624426E+03  0.19712168700E+03  0.12500499179E+03 0.  0.
    9000005    1    3    3    0    0  0.23471617673E+02 -0.50249860995E+02  0.30788811305E+02  0.63442227796E+02  0.10000000000E+01 0.  0.
    9000005    1    3    3    0    0 -0.23471617673E+02  0.50249860995E+02  0.12162743295E+03  0.13367945920E+03  0.10000000000E+01 0.  0.
<mgrwt>
<rscale>  0 0.12500499E+03</rscale>
<asrwt>0</asrwt>
<pdfrwt beam="1">  1        4 0.26887534E-01 0.12500499E+03</pdfrwt>
<pdfrwt beam="2">  1       -4 0.34388801E-02 0.12500499E+03</pdfrwt>
<totfact> 0.90612591E+03</totfact>
</mgrwt>
</event>
<event>
 5    1  0.3235144E-002  0.1250007E+03  0.7818608E-02  0.1235068E+00
          4   -1    0    0  501    0  0.00000000000E+00  0.00000000000E+00  0.27621245736E+03  0.27621537702E+03  0.12700000000E+01 0.  1.
         -4   -1    0    0    0  501 -0.00000000000E+00 -0.00000000000E+00 -0.14110847019E+02  0.14167882820E+02  0.12700000000E+01 0.  1.
         25    2    1    2    0    0  0.00000000000E+00  0.00000000000E+00  0.26210161034E+03  0.29038325984E+03  0.12500073380E+03 0.  0.
    9000005    1    3    3    0    0 -0.47884229219E+02 -0.62907144212E+01  0.38921246625E+02  0.62034957360E+02  0.10000000000E+01 0.  0.
    9000005    1    3    3    0    0  0.47884229219E+02  0.62907144212E+01  0.22318036372E+03  0.22834830248E+03  0.10000000000E+01 0.  0.
<mgrwt>
<rscale>  0 0.12500073E+03</rscale>
<asrwt>0</asrwt>
<pdfrwt beam="1">  1        4 0.42498834E-01 0.12500073E+03</pdfrwt>
<pdfrwt beam="2">  1       -4 0.21755116E-02 0.12500073E+03</pdfrwt>
<totfact> 0.76819947E+03</totfact>
</mgrwt>
</event>
<event>
 5    1  0.3235144E-002  0.1250005E+03  0.7818608E-02  0.1235068E+00
         -4   -1    0    0    0  501 -0.00000000000E+00  0.00000000000E+00  0.77855560766E+02  0.77865918361E+02  0.12700000000E+01 0.  1.
          4   -1    0    0  501    0  0.00000000000E+00 -0.00000000000E+00 -0.50151718878E+02  0.50167796508E+02  0.12700000000E+01 0.  1.
         25    2    1    2    0    0  0.00000000000E+00  0.00000000000E+00  0.27703841888E+02  0.12803371487E+03  0.12500051715E+03 0.  0.
    9000005    1    3    3    0    0  0.15502021896E+02 -0.49049554348E+02  0.50196908233E+02  0.71881159289E+02  0.10000000000E+01 0.  0.
    9000005    1    3    3    0    0 -0.15502021896E+02  0.49049554348E+02 -0.22493066345E+02  0.56152555580E+02  0.10000000000E+01 0.  0.
<mgrwt>
<rscale>  0 0.12500052E+03</rscale>
<asrwt>0</asrwt>
<pdfrwt beam="2">  1        4 0.77176826E-02 0.12500052E+03</pdfrwt>
<pdfrwt beam="1">  1       -4 0.11979812E-01 0.12500052E+03</pdfrwt>
<totfact> 0.10386638E+04</totfact>
</mgrwt>
</event>
<event>
 5    1  0.3235144E-002  0.1250001E+03  0.7818608E-02  0.1235069E+00
          4   -1    0    0  501    0  0.00000000000E+00  0.00000000000E+00  0.96137085768E+02  0.96145473944E+02  0.12700000000E+01 0. -1.
         -4   -1    0    0    0  501 -0.00000000000E+00 -0.00000000000E+00 -0.40612029822E+02  0.40631882386E+02  0.12700000000E+01 0. -1.
         25    2    1    2    0    0  0.00000000000E+00  0.00000000000E+00  0.55525055946E+02  0.13677735633E+03  0.12500005347E+03 0.  0.
    9000005    1    3    3    0    0 -0.44783125923E+02  0.35836685167E+02  0.61671491653E+00  0.57368778168E+02  0.10000000000E+01 0.  0.
    9000005    1    3    3    0    0  0.44783125923E+02 -0.35836685167E+02  0.54908341030E+02  0.79408578163E+02  0.10000000000E+01 0.  0.
<mgrwt>
<rscale>  0 0.12500005E+03</rscale>
<asrwt>0</asrwt>
<pdfrwt beam="1">  1        4 0.14792493E-01 0.12500005E+03</pdfrwt>
<pdfrwt beam="2">  1       -4 0.62501771E-02 0.12500005E+03</pdfrwt>
<totfact> 0.10200731E+04</totfact>
</mgrwt>
</event>
<event>
 5    1  0.3235144E-002  0.1249868E+03  0.7818608E-02  0.1235090E+00
          4   -1    0    0  501    0  0.00000000000E+00  0.00000000000E+00  0.38994320757E+02  0.39014996493E+02  0.12700000000E+01 0. -1.
         -4   -1    0    0    0  501 -0.00000000000E+00 -0.00000000000E+00 -0.10010242340E+03  0.10011047932E+03  0.12700000000E+01 0. -1.
         25    2    1    2    0    0  0.00000000000E+00  0.00000000000E+00 -0.61108102642E+02  0.13912547582E+03  0.12498679055E+03 0.  0.
    9000005    1    3    3    0    0  0.34746737483E+01 -0.36244567709E+02 -0.87079168985E+02  0.94390273424E+02  0.10000000000E+01 0.  0.
    9000005    1    3    3    0    0 -0.34746737483E+01  0.36244567709E+02  0.25971066343E+02  0.44735202392E+02  0.10000000000E+01 0.  0.
<mgrwt>
<rscale>  0 0.12498679E+03</rscale>
<asrwt>0</asrwt>
<pdfrwt beam="1">  1        4 0.60013364E-02 0.12498679E+03</pdfrwt>
<pdfrwt beam="2">  1       -4 0.15402583E-01 0.12498679E+03</pdfrwt>
<totfact> 0.10154765E+04</totfact>
</mgrwt>
</event>
<event>
 5    1  0.3235144E-002  0.1250020E+03  0.7818608E-02  0.1235066E+00
          4   -1    0    0  501    0  0.00000000000E+00  0.00000000000E+00  0.57788360222E+02  0.57802313769E+02  0.12700000000E+01 0.  1.
         -4   -1    0    0    0  501 -0.00000000000E+00 -0.00000000000E+00 -0.67569837784E+02  0.67581771789E+02  0.12700000000E+01 0.  1.
         25    2    1    2    0    0  0.00000000000E+00  0.00000000000E+00 -0.97814775622E+01  0.12538408556E+03  0.12500196642E+03 0.  0.
    9000005    1    3    3    0    0 -0.16791052063E+02 -0.15448171122E+02 -0.63247512674E+02  0.67244578070E+02  0.10000000000E+01 0.  0.
    9000005    1    3    3    0    0  0.16791052063E+02  0.15448171122E+02  0.53466035112E+02  0.58139507488E+02  0.10000000000E+01 0.  0.
<mgrwt>
<rscale>  0 0.12500197E+03</rscale>
<asrwt>0</asrwt>
<pdfrwt beam="1">  1        4 0.88925083E-02 0.12500197E+03</pdfrwt>
<pdfrwt beam="2">  1       -4 0.10397351E-01 0.12500197E+03</pdfrwt>
<totfact> 0.10444057E+04</totfact>
</mgrwt>
</event>
<event>
 5    1  0.3235144E-002  0.1249829E+03  0.7818608E-02  0.1235096E+00
         -4   -1    0    0    0  501 -0.00000000000E+00  0.00000000000E+00  0.26497023067E+02  0.26527441102E+02  0.12700000000E+01 0.  1.
          4   -1    0    0  501    0  0.00000000000E+00 -0.00000000000E+00 -0.14726410600E+03  0.14726958212E+03  0.12700000000E+01 0.  1.
         25    2    1    2    0    0  0.00000000000E+00  0.00000000000E+00 -0.12076708294E+03  0.17379702322E+03  0.12498286666E+03 0.  0.
    9000005    1    3    3    0    0  0.27501542804E+02 -0.55829829393E+02 -0.52656877037E+02  0.81529451157E+02  0.10000000000E+01 0.  0.
    9000005    1    3    3    0    0 -0.27501542804E+02  0.55829829393E+02 -0.68110205901E+02  0.92267572064E+02  0.10000000000E+01 0.  0.
<mgrwt>
<rscale>  0 0.12498287E+03</rscale>
<asrwt>0</asrwt>
<pdfrwt beam="2">  1        4 0.22658777E-01 0.12498287E+03</pdfrwt>
<pdfrwt beam="1">  1       -4 0.40792262E-02 0.12498287E+03</pdfrwt>
<totfact> 0.94782056E+03</totfact>
</mgrwt>
</event>
<event>
 5    1  0.3235144E-002  0.1249992E+03  0.7818608E-02  0.1235071E+00
          4   -1    0    0  501    0  0.00000000000E+00  0.00000000000E+00  0.32040475132E+03  0.32040726828E+03  0.12700000000E+01 0. -1.
         -4   -1    0    0    0  501 -0.00000000000E+00 -0.00000000000E+00 -0.12155804647E+02  0.12221967379E+02  0.12700000000E+01 0. -1.
         25    2    1    2    0    0  0.00000000000E+00  0.00000000000E+00  0.30824894667E+03  0.33262923566E+03  0.12499918116E+03 0.  0.
    9000005    1    3    3    0    0 -0.25019618546E+02  0.48935619874E+02  0.74982345769E+02  0.92973267028E+02  0.10000000000E+01 0.  0.
    9000005    1    3    3    0    0  0.25019618546E+02 -0.48935619874E+02  0.23326660090E+03  0.23965596863E+03  0.10000000000E+01 0.  0.
<mgrwt>
<rscale>  0 0.12499918E+03</rscale>
<asrwt>0</asrwt>
<pdfrwt beam="1">  1        4 0.49298316E-01 0.12499918E+03</pdfrwt>
<pdfrwt beam="2">  1       -4 0.18754071E-02 0.12499918E+03</pdfrwt>
<totfact> 0.71680104E+03</totfact>
</mgrwt>
</event>
<event>
 5    1  0.3235144E-002  0.1249933E+03  0.7818608E-02  0.1235080E+00
          4   -1    0    0  501    0  0.00000000000E+00  0.00000000000E+00  0.18866456463E+02  0.18909153325E+02  0.12700000000E+01 0. -1.
         -4   -1    0    0    0  501 -0.00000000000E+00 -0.00000000000E+00 -0.20674651522E+03  0.20675041586E+03  0.12700000000E+01 0. -1.
         25    2    1    2    0    0  0.00000000000E+00  0.00000000000E+00 -0.18788005876E+03  0.22565956918E+03  0.12499329855E+03 0.  0.
    9000005    1    3    3    0    0 -0.53373751888E+02  0.29631323366E+02 -0.69849389984E+02  0.92772355776E+02  0.10000000000E+01 0.  0.
    9000005    1    3    3    0    0  0.53373751888E+02 -0.29631323366E+02 -0.11803066878E+03  0.13288721341E+03  0.10000000000E+01 0.  0.
<mgrwt>
<rscale>  0 0.12499330E+03</rscale>
<asrwt>0</asrwt>
<pdfrwt beam="1">  1        4 0.29061163E-02 0.12499330E+03</pdfrwt>
<pdfrwt beam="2">  1       -4 0.31810739E-01 0.12499330E+03</pdfrwt>
<totfact> 0.85993424E+03</totfact>
</mgrwt>
</event>
<event>
 5    1  0.3235144E-002  0.1249993E+03  0.7818608E-02  0.1235070E+00
         -4   -1    0    0    0  501 -0.00000000000E+00  0.00000000000E+00  0.22044377215E+03  0.22044743042E+03  0.12700000000E+01 0. -1.
          4   -1    0    0  501    0  0.00000000000E+00 -0.00000000000E+00 -0.17693162992E+02  0.17738684186E+02  0.12700000000E+01 0. -1.
         25    2    1    2    0    0  0.00000000000E+00  0.00000000000E+00  0.20275060916E+03  0.23818611461E+03  0.12499926271E+03 0.  0.
    9000005    1    3    3    0    0 -0.59385609353E+02 -0.19371082878E+02  0.97906211112E+02  0.11614006899E+03  0.10000000000E+01 0.  0.
    9000005    1    3    3    0    0  0.59385609353E+02  0.19371082878E+02  0.10484439805E+03  0.12204604562E+03  0.10000000000E+01 0.  0.
<mgrwt>
<rscale>  0 0.12499926E+03</rscale>
<asrwt>0</asrwt>
<pdfrwt beam="2">  1        4 0.27258081E-02 0.12499926E+03</pdfrwt>
<pdfrwt beam="1">  1       -4 0.33918209E-01 0.12499926E+03</pdfrwt>
<totfact> 0.84069638E+03</totfact>
</mgrwt>
</event>
<event>
 5    1  0.3235144E-002  0.1250010E+03  0.7818608E-02  0.1235068E+00
          4   -1    0    0  501    0  0.00000000000E+00  0.00000000000E+00  0.52714385295E+02  0.52729681556E+02  0.12700000000E+01 0. -1.
         -4   -1    0    0    0  501 -0.00000000000E+00 -0.00000000000E+00 -0.74071848573E+02  0.74082735175E+02  0.12700000000E+01 0. -1.
         25    2    1    2    0    0  0.00000000000E+00  0.00000000000E+00 -0.21357463278E+02  0.12681241673E+03  0.12500099119E+03 0.  0.
    9000005    1    3    3    0    0 -0.56538241503E+02  0.24248097059E+02  0.47001468097E+00  0.61528561474E+02  0.10000000000E+01 0.  0.
    9000005    1    3    3    0    0  0.56538241503E+02 -0.24248097059E+02 -0.21827477959E+02  0.65283855258E+02  0.10000000000E+01 0.  0.
<mgrwt>
<rscale>  0 0.12500099E+03</rscale>
<asrwt>0</asrwt>
<pdfrwt beam="1">  1        4 0.81119195E-02 0.12500099E+03</pdfrwt>
<pdfrwt beam="2">  1       -4 0.11397683E-01 0.12500099E+03</pdfrwt>
<totfact> 0.10412991E+04</totfact>
</mgrwt>
</event>
<event>
 5    1  0.3235144E-002  0.1249983E+03  0.7818608E-02  0.1235072E+00
          4   -1    0    0  501    0  0.00000000000E+00  0.00000000000E+00  0.13300412958E+02  0.13360908833E+02  0.12700000000E+01 0.  1.
         -4   -1    0    0    0  501 -0.00000000000E+00 -0.00000000000E+00 -0.29295763161E+03  0.29296038438E+03  0.12700000000E+01 0.  1.
         25    2    1    2    0    0  0.00000000000E+00  0.00000000000E+00 -0.27965721865E+03  0.30632129321E+03  0.12499829892E+03 0.  0.
    9000005    1    3    3    0    0  0.81875191316E+01  0.51564053038E+02 -0.22398309124E+03  0.22998980890E+03  0.10000000000E+01 0.  0.
    9000005    1    3    3    0    0 -0.81875191316E+01 -0.51564053038E+02 -0.55674127407E+02  0.76331484315E+02  0.10000000000E+01 0.  0.
<mgrwt>
<rscale>  0 0.12499830E+03</rscale>
<asrwt>0</asrwt>
<pdfrwt beam="1">  1        4 0.20510829E-02 0.12499830E+03</pdfrwt>
<pdfrwt beam="2">  1       -4 0.45075265E-01 0.12499830E+03</pdfrwt>
<totfact> 0.74815514E+03</totfact>
</mgrwt>
</event>
<event>
 5    1  0.3235144E-002  0.1250072E+03  0.7818608E-02  0.1235058E+00
         -4   -1    0    0    0  501 -0.00000000000E+00  0.00000000000E+00  0.74981679817E+03  0.74981787370E+03  0.12700000000E+01 0.  1.
          4   -1    0    0  501    0  0.00000000000E+00 -0.00000000000E+00 -0.51317214555E+01  0.52865362097E+01  0.12700000000E+01 0.  1.
         25    2    1    2    0    0  0.00000000000E+00  0.00000000000E+00  0.74468507671E+03  0.75510440991E+03  0.12500722532E+03 0.  0.
    9000005    1    3    3    0    0 -0.10988877422E+02 -0.43778194089E+02  0.63344361771E+03  0.63505047242E+03  0.10000000000E+01 0.  0.
    9000005    1    3    3    0    0  0.10988877422E+02  0.43778194089E+02  0.11124145900E+03  0.12005393748E+03  0.10000000000E+01 0.  0.
<mgrwt>
<rscale>  0 0.12500723E+03</rscale>
<asrwt>0</asrwt>
<pdfrwt beam="2">  1        4 0.80148773E-03 0.12500723E+03</pdfrwt>
<pdfrwt beam="1">  1       -4 0.11536834E+00 0.12500723E+03</pdfrwt>
<totfact> 0.40324829E+03</totfact>
</mgrwt>
</event>
<event>
 5    1  0.3235144E-002  0.1250015E+03  0.7818608E-02  0.1235067E+00
         -4   -1    0    0    0  501 -0.00000000000E+00  0.00000000000E+00  0.35089452194E+02  0.35112427362E+02  0.12700000000E+01 0. -1.
          4   -1    0    0  501    0  0.00000000000E+00 -0.00000000000E+00 -0.11126227990E+03  0.11126952785E+03  0.12700000000E+01 0. -1.
         25    2    1    2    0    0  0.00000000000E+00  0.00000000000E+00 -0.76172827706E+02  0.14638195522E+03  0.12500150852E+03 0.  0.
    9000005    1    3    3    0    0  0.76312594293E+01 -0.56222742596E+02 -0.68760356425E+02  0.89152787512E+02  0.10000000000E+01 0.  0.
    9000005    1    3    3    0    0 -0.76312594293E+01  0.56222742596E+02 -0.74124712807E+01  0.57229167703E+02  0.10000000000E+01 0.  0.
<mgrwt>
<rscale>  0 0.12500151E+03</rscale>
<asrwt>0</asrwt>
<pdfrwt beam="2">  1        4 0.17119599E-01 0.12500151E+03</pdfrwt>
<pdfrwt beam="1">  1       -4 0.54007022E-02 0.12500151E+03</pdfrwt>
<totfact> 0.10002646E+04</totfact>
</mgrwt>
</event>
<event>
 5    1  0.3235144E-002  0.1250009E+03  0.7818608E-02  0.1235068E+00
         -4   -1    0    0    0  501 -0.00000000000E+00  0.00000000000E+00  0.39565711281E+03  0.39565915106E+03  0.12700000000E+01 0. -1.
          4   -1    0    0  501    0  0.00000000000E+00 -0.00000000000E+00 -0.98300455424E+01  0.99117453239E+01  0.12700000000E+01 0. -1.
         25    2    1    2    0    0  0.00000000000E+00  0.00000000000E+00  0.38582706726E+03  0.40557089638E+03  0.12500090462E+03 0.  0.
    9000005    1    3    3    0    0  0.76278294856E+01  0.84983583567E+01  0.39225901251E+03  0.39242647562E+03  0.10000000000E+01 0.  0.
    9000005    1    3    3    0    0 -0.76278294856E+01 -0.84983583567E+01 -0.64319452427E+01  0.13144420757E+02  0.10000000000E+01 0.  0.
<mgrwt>
<rscale>  0 0.12500090E+03</rscale>
<asrwt>0</asrwt>
<pdfrwt beam="2">  1        4 0.15187561E-02 0.12500090E+03</pdfrwt>
<pdfrwt beam="1">  1       -4 0.60876766E-01 0.12500090E+03</pdfrwt>
<totfact> 0.64013273E+03</totfact>
</mgrwt>
</event>
<event>
 5    1  0.3235144E-002  0.1249837E+03  0.7818608E-02  0.1235095E+00
          4   -1    0    0  501    0  0.00000000000E+00  0.00000000000E+00  0.29260808017E+02  0.29288355806E+02  0.12700000000E+01 0. -1.
         -4   -1    0    0    0  501 -0.00000000000E+00 -0.00000000000E+00 -0.13336957380E+03  0.13337562040E+03  0.12700000000E+01 0. -1.
         25    2    1    2    0    0  0.00000000000E+00  0.00000000000E+00 -0.10410876579E+03  0.16266397620E+03  0.12498373511E+03 0.  0.
    9000005    1    3    3    0    0  0.15326288558E+02  0.30936671971E+02 -0.11983470084E+03  0.12471298377E+03  0.10000000000E+01 0.  0.
    9000005    1    3    3    0    0 -0.15326288558E+02 -0.30936671971E+02  0.15725935057E+02  0.37950992438E+02  0.10000000000E+01 0.  0.
<mgrwt>
<rscale>  0 0.12498374E+03</rscale>
<asrwt>0</asrwt>
<pdfrwt beam="1">  1        4 0.45042470E-02 0.12498374E+03</pdfrwt>
<pdfrwt beam="2">  1       -4 0.20520980E-01 0.12498374E+03</pdfrwt>
<totfact> 0.96867035E+03</totfact>
</mgrwt>
</event>
<event>
 5    1  0.3235144E-002  0.1250003E+03  0.7818608E-02  0.1235069E+00
          4   -1    0    0  501    0  0.00000000000E+00  0.00000000000E+00  0.55648565996E+01  0.57079356140E+01  0.12700000000E+01 0.  1.
         -4   -1    0    0    0  501 -0.00000000000E+00 -0.00000000000E+00 -0.69289960916E+03  0.69290077303E+03  0.12700000000E+01 0.  1.
         25    2    1    2    0    0  0.00000000000E+00  0.00000000000E+00 -0.68733475256E+03  0.69860870865E+03  0.12500026290E+03 0.  0.
    9000005    1    3    3    0    0  0.93744707324E+01  0.38272256919E+02 -0.72586445320E+02  0.82598053218E+02  0.10000000000E+01 0.  0.
    9000005    1    3    3    0    0 -0.93744707324E+01 -0.38272256919E+02 -0.61474830724E+03  0.61601065543E+03  0.10000000000E+01 0.  0.
<mgrwt>
<rscale>  0 0.12500026E+03</rscale>
<asrwt>0</asrwt>
<pdfrwt beam="1">  1        4 0.86722794E-03 0.12500026E+03</pdfrwt>
<pdfrwt beam="2">  1       -4 0.10661097E+00 0.12500026E+03</pdfrwt>
<totfact> 0.43160009E+03</totfact>
</mgrwt>
</event>
<event>
 5    1  0.3235144E-002  0.1249701E+03  0.7818608E-02  0.1235116E+00
         -4   -1    0    0    0  501 -0.00000000000E+00  0.00000000000E+00  0.25846273809E+01  0.28797914331E+01  0.12700000000E+01 0. -1.
          4   -1    0    0  501    0  0.00000000000E+00 -0.00000000000E+00 -0.14287244826E+04  0.14287250470E+04  0.12700000000E+01 0. -1.
         25    2    1    2    0    0  0.00000000000E+00  0.00000000000E+00 -0.14261398552E+04  0.14316048385E+04  0.12497010417E+03 0.  0.
    9000005    1    3    3    0    0  0.22931815113E+02  0.49154863952E+02 -0.35788917778E+03  0.36197753020E+03  0.10000000000E+01 0.  0.
    9000005    1    3    3    0    0 -0.22931815113E+02 -0.49154863952E+02 -0.10682506774E+04  0.10696273083E+04  0.10000000000E+01 0.  0.
<mgrwt>
<rscale>  0 0.12497010E+03</rscale>
<asrwt>0</asrwt>
<pdfrwt beam="2">  1        4 0.21982592E+00 0.12497010E+03</pdfrwt>
<pdfrwt beam="1">  1       -4 0.42038447E-03 0.12497010E+03</pdfrwt>
<totfact> 0.19325398E+03</totfact>
</mgrwt>
</event>
<event>
 5    1  0.3235144E-002  0.1250024E+03  0.7818608E-02  0.1235066E+00
         -4   -1    0    0    0  501 -0.00000000000E+00  0.00000000000E+00  0.18752473534E+03  0.18752903579E+03  0.12700000000E+01 0.  1.
          4   -1    0    0  501    0  0.00000000000E+00 -0.00000000000E+00 -0.20807478461E+02  0.20846200131E+02  0.12700000000E+01 0.  1.
         25    2    1    2    0    0  0.00000000000E+00  0.00000000000E+00  0.16671725688E+03  0.20837523592E+03  0.12500238079E+03 0.  0.
    9000005    1    3    3    0    0  0.46479521948E+02  0.41700809624E+02  0.87474160404E+02  0.10748038064E+03  0.10000000000E+01 0.  0.
    9000005    1    3    3    0    0 -0.46479521948E+02 -0.41700809624E+02  0.79243096477E+02  0.10089485529E+03  0.10000000000E+01 0.  0.
<mgrwt>
<rscale>  0 0.12500238E+03</rscale>
<asrwt>0</asrwt>
<pdfrwt beam="2">  1        4 0.32044597E-02 0.12500238E+03</pdfrwt>
<pdfrwt beam="1">  1       -4 0.28853270E-01 0.12500238E+03</pdfrwt>
<totfact> 0.88737189E+03</totfact>
</mgrwt>
</event>
<event>
 5    1  0.3235144E-002  0.1250008E+03  0.7818608E-02  0.1235068E+00
         -4   -1    0    0    0  501 -0.00000000000E+00  0.00000000000E+00  0.52736790014E+01  0.54244437696E+01  0.12700000000E+01 0. -1.
          4   -1    0    0  501    0  0.00000000000E+00 -0.00000000000E+00 -0.73012650788E+03  0.73012761241E+03  0.12700000000E+01 0. -1.
         25    2    1    2    0    0  0.00000000000E+00  0.00000000000E+00 -0.72485282888E+03  0.73555205618E+03  0.12500081529E+03 0.  0.
    9000005    1    3    3    0    0  0.43944864517E+02  0.42127277125E+02 -0.44552799248E+03  0.44966882333E+03  0.10000000000E+01 0.  0.
    9000005    1    3    3    0    0 -0.43944864517E+02 -0.42127277125E+02 -0.27932483640E+03  0.28588323285E+03  0.10000000000E+01 0.  0.
<mgrwt>
<rscale>  0 0.12500082E+03</rscale>
<asrwt>0</asrwt>
<pdfrwt beam="2">  1        4 0.11233876E+00 0.12500082E+03</pdfrwt>
<pdfrwt beam="1">  1       -4 0.82301807E-03 0.12500082E+03</pdfrwt>
<totfact> 0.41274189E+03</totfact>
</mgrwt>
</event>
<event>
 5    1  0.3235144E-002  0.1250036E+03  0.7818608E-02  0.1235064E+00
         -4   -1    0    0    0  501 -0.00000000000E+00  0.00000000000E+00  0.17272601415E+01  0.21439047545E+01  0.12700000000E+01 0.  1.
          4   -1    0    0  501    0  0.00000000000E+00 -0.00000000000E+00 -0.20178267411E+04  0.20178271408E+04  0.12700000000E+01 0.  1.
         25    2    1    2    0    0  0.00000000000E+00  0.00000000000E+00 -0.20160994809E+04  0.20199710455E+04  0.12500363037E+03 0.  0.
    9000005    1    3    3    0    0  0.46354000092E+02 -0.25018950551E+02 -0.15514530407E+04  0.15523473125E+04  0.10000000000E+01 0.  0.
    9000005    1    3    3    0    0 -0.46354000092E+02  0.25018950551E+02 -0.46464644026E+03  0.46762373300E+03  0.10000000000E+01 0.  0.
<mgrwt>
<rscale>  0 0.12500363E+03</rscale>
<asrwt>0</asrwt>
<pdfrwt beam="2">  1        4 0.31046528E+00 0.12500363E+03</pdfrwt>
<pdfrwt beam="1">  1       -4 0.29781427E-03 0.12500363E+03</pdfrwt>
<totfact> 0.96021366E+02</totfact>
</mgrwt>
</event>
<event>
 5    1  0.3235144E-002  0.1250000E+03  0.7818608E-02  0.1235069E+00
         -4   -1    0    0    0  501 -0.00000000000E+00  0.00000000000E+00  0.19718263699E+03  0.19718672681E+03  0.12700000000E+01 0. -1.
          4   -1    0    0  501    0  0.00000000000E+00 -0.00000000000E+00 -0.19785658901E+02  0.19826376324E+02  0.12700000000E+01 0. -1.
         25    2    1    2    0    0  0.00000000000E+00  0.00000000000E+00  0.17739697808E+03  0.21701310313E+03  0.12499999639E+03 0.  0.
    9000005    1    3    3    0    0 -0.50115217834E+02 -0.30671528336E+02  0.51748725239E+02  0.78302032368E+02  0.10000000000E+01 0.  0.
    9000005    1    3    3    0    0  0.50115217834E+02  0.30671528336E+02  0.12564825284E+03  0.13871107076E+03  0.10000000000E+01 0.  0.
<mgrwt>
<rscale>  0 0.12500000E+03</rscale>
<asrwt>0</asrwt>
<pdfrwt beam="2">  1        4 0.30473942E-02 0.12500000E+03</pdfrwt>
<pdfrwt beam="1">  1       -4 0.30339238E-01 0.12500000E+03</pdfrwt>
<totfact> 0.87343210E+03</totfact>
</mgrwt>
</event>
<event>
 5    1  0.3235144E-002  0.1249957E+03  0.7818608E-02  0.1235076E+00
          4   -1    0    0  501    0  0.00000000000E+00  0.00000000000E+00  0.11527881559E+03  0.11528581102E+03  0.12700000000E+01 0. -1.
         -4   -1    0    0    0  501 -0.00000000000E+00 -0.00000000000E+00 -0.33862986676E+02  0.33886793395E+02  0.12700000000E+01 0. -1.
         25    2    1    2    0    0  0.00000000000E+00  0.00000000000E+00  0.81415828909E+02  0.14917260442E+03  0.12499571477E+03 0.  0.
    9000005    1    3    3    0    0 -0.51869477553E+02  0.28995683402E+02  0.63781106595E+02  0.87179251638E+02  0.10000000000E+01 0.  0.
    9000005    1    3    3    0    0  0.51869477553E+02 -0.28995683402E+02  0.17634722314E+02  0.61993352778E+02  0.10000000000E+01 0.  0.
<mgrwt>
<rscale>  0 0.12499571E+03</rscale>
<asrwt>0</asrwt>
<pdfrwt beam="1">  1        4 0.17737572E-01 0.12499571E+03</pdfrwt>
<pdfrwt beam="2">  1       -4 0.52120596E-02 0.12499571E+03</pdfrwt>
<totfact> 0.99478477E+03</totfact>
</mgrwt>
</event>
<event>
 5    1  0.3235144E-002  0.1250015E+03  0.7818608E-02  0.1235067E+00
         -4   -1    0    0    0  501 -0.00000000000E+00  0.00000000000E+00  0.49409060603E+02  0.49425379813E+02  0.12700000000E+01 0.  1.
          4   -1    0    0  501    0  0.00000000000E+00 -0.00000000000E+00 -0.79026817086E+02  0.79037021191E+02  0.12700000000E+01 0.  1.
         25    2    1    2    0    0  0.00000000000E+00  0.00000000000E+00 -0.29617756483E+02  0.12846240100E+03  0.12500150788E+03 0.  0.
    9000005    1    3    3    0    0  0.68475165053E+01  0.13295049286E+02  0.47548066737E+02  0.49854442813E+02  0.10000000000E+01 0.  0.
    9000005    1    3    3    0    0 -0.68475165053E+01 -0.13295049286E+02 -0.77165823220E+02  0.78607958191E+02  0.10000000000E+01 0.  0.
<mgrwt>
<rscale>  0 0.12500151E+03</rscale>
<asrwt>0</asrwt>
<pdfrwt beam="2">  1        4 0.12160012E-01 0.12500151E+03</pdfrwt>
<pdfrwt beam="1">  1       -4 0.76034342E-02 0.12500151E+03</pdfrwt>
<totfact> 0.10377160E+04</totfact>
</mgrwt>
</event>
<event>
 5    1  0.3235144E-002  0.1249981E+03  0.7818608E-02  0.1235072E+00
         -4   -1    0    0    0  501 -0.00000000000E+00  0.00000000000E+00  0.24376797691E+02  0.24409857961E+02  0.12700000000E+01 0. -1.
          4   -1    0    0  501    0  0.00000000000E+00 -0.00000000000E+00 -0.16009556715E+03  0.16010060438E+03  0.12700000000E+01 0. -1.
         25    2    1    2    0    0  0.00000000000E+00  0.00000000000E+00 -0.13571876946E+03  0.18451046234E+03  0.12499810530E+03 0.  0.
    9000005    1    3    3    0    0  0.48383808842E+02 -0.23962598191E+02 -0.21416374513E+02  0.58093546693E+02  0.10000000000E+01 0.  0.
    9000005    1    3    3    0    0 -0.48383808842E+02  0.23962598191E+02 -0.11430239495E+03  0.12641691565E+03  0.10000000000E+01 0.  0.
<mgrwt>
<rscale>  0 0.12499811E+03</rscale>
<asrwt>0</asrwt>
<pdfrwt beam="2">  1        4 0.24633017E-01 0.12499811E+03</pdfrwt>
<pdfrwt beam="1">  1       -4 0.37532072E-02 0.12499811E+03</pdfrwt>
<totfact> 0.92815290E+03</totfact>
</mgrwt>
</event>
<event>
 5    1  0.3235144E-002  0.1250093E+03  0.7818608E-02  0.1235055E+00
         -4   -1    0    0    0  501 -0.00000000000E+00  0.00000000000E+00  0.12535734604E+02  0.12599902462E+02  0.12700000000E+01 0.  1.
          4   -1    0    0  501    0  0.00000000000E+00 -0.00000000000E+00 -0.31079432273E+03  0.31079691752E+03  0.12700000000E+01 0.  1.
         25    2    1    2    0    0  0.00000000000E+00  0.00000000000E+00 -0.29825858813E+03  0.32339681998E+03  0.12500927080E+03 0.  0.
    9000005    1    3    3    0    0  0.58090472529E+02 -0.18135901635E+02 -0.18593502331E+03  0.19564316195E+03  0.10000000000E+01 0.  0.
    9000005    1    3    3    0    0 -0.58090472529E+02  0.18135901635E+02 -0.11232356482E+03  0.12775365803E+03  0.10000000000E+01 0.  0.
<mgrwt>
<rscale>  0 0.12500927E+03</rscale>
<asrwt>0</asrwt>
<pdfrwt beam="2">  1        4 0.47819641E-01 0.12500927E+03</pdfrwt>
<pdfrwt beam="1">  1       -4 0.19337104E-02 0.12500927E+03</pdfrwt>
<totfact> 0.72738988E+03</totfact>
</mgrwt>
</event>
<event>
 5    1  0.3235144E-002  0.1249996E+03  0.7818608E-02  0.1235070E+00
         -4   -1    0    0    0  501 -0.00000000000E+00  0.00000000000E+00  0.22986443976E+02  0.23021500965E+02  0.12700000000E+01 0. -1.
          4   -1    0    0  501    0  0.00000000000E+00 -0.00000000000E+00 -0.16976918914E+03  0.16977393934E+03  0.12700000000E+01 0. -1.
         25    2    1    2    0    0  0.00000000000E+00  0.00000000000E+00 -0.14678274516E+03  0.19279544031E+03  0.12499963011E+03 0.  0.
    9000005    1    3    3    0    0 -0.60774112022E+02  0.13525107698E+02 -0.65113344784E+02  0.90095332284E+02  0.10000000000E+01 0.  0.
    9000005    1    3    3    0    0  0.60774112022E+02 -0.13525107698E+02 -0.81669400376E+02  0.10270010802E+03  0.10000000000E+01 0.  0.
<mgrwt>
<rscale>  0 0.12499963E+03</rscale>
<asrwt>0</asrwt>
<pdfrwt beam="2">  1        4 0.26121398E-01 0.12499963E+03</pdfrwt>
<pdfrwt beam="1">  1       -4 0.35394382E-02 0.12499963E+03</pdfrwt>
<totfact> 0.91363937E+03</totfact>
</mgrwt>
</event>
<event>
 5    1  0.3235144E-002  0.1249857E+03  0.7818608E-02  0.1235092E+00
         -4   -1    0    0    0  501 -0.00000000000E+00  0.00000000000E+00  0.40399931533E+02  0.40419888272E+02  0.12700000000E+01 0. -1.
          4   -1    0    0  501    0  0.00000000000E+00 -0.00000000000E+00 -0.96619333406E+02  0.96627679719E+02  0.12700000000E+01 0. -1.
         25    2    1    2    0    0  0.00000000000E+00  0.00000000000E+00 -0.56219401873E+02  0.13704756799E+03  0.12498565816E+03 0.  0.
    9000005    1    3    3    0    0  0.40909781030E+02  0.32381204842E+02 -0.65811044428E+02  0.83989559944E+02  0.10000000000E+01 0.  0.
    9000005    1    3    3    0    0 -0.40909781030E+02 -0.32381204842E+02  0.95916425551E+01  0.53058008046E+02  0.10000000000E+01 0.  0.
<mgrwt>
<rscale>  0 0.12498566E+03</rscale>
<asrwt>0</asrwt>
<pdfrwt beam="2">  1        4 0.14866690E-01 0.12498566E+03</pdfrwt>
<pdfrwt beam="1">  1       -4 0.62175512E-02 0.12498566E+03</pdfrwt>
<totfact> 0.10198389E+04</totfact>
</mgrwt>
</event>
<event>
 5    1  0.3235144E-002  0.1250012E+03  0.7818608E-02  0.1235067E+00
         -4   -1    0    0    0  501 -0.00000000000E+00  0.00000000000E+00  0.38951522396E+01  0.40969636280E+01  0.12700000000E+01 0.  1.
          4   -1    0    0  501    0  0.00000000000E+00 -0.00000000000E+00 -0.97734282512E+03  0.97734365027E+03  0.12700000000E+01 0.  1.
         25    2    1    2    0    0  0.00000000000E+00  0.00000000000E+00 -0.97344767288E+03  0.98144061389E+03  0.12500122704E+03 0.  0.
    9000005    1    3    3    0    0  0.29759586106E+02 -0.42965202458E+02 -0.75570727802E+03  0.75751312308E+03  0.10000000000E+01 0.  0.
    9000005    1    3    3    0    0 -0.29759586106E+02  0.42965202458E+02 -0.21774039486E+03  0.22392749081E+03  0.10000000000E+01 0.  0.
<mgrwt>
<rscale>  0 0.12500123E+03</rscale>
<asrwt>0</asrwt>
<pdfrwt beam="2">  1        4 0.15037583E+00 0.12500123E+03</pdfrwt>
<pdfrwt beam="1">  1       -4 0.61484239E-03 0.12500123E+03</pdfrwt>
<totfact> 0.31224543E+03</totfact>
</mgrwt>
</event>
<event>
 5    1  0.3235144E-002  0.1250030E+03  0.7818608E-02  0.1235065E+00
          4   -1    0    0  501    0  0.00000000000E+00  0.00000000000E+00  0.15753378956E+03  0.15753890870E+03  0.12700000000E+01 0. -1.
         -4   -1    0    0    0  501 -0.00000000000E+00 -0.00000000000E+00 -0.24775659656E+02  0.24808188394E+02  0.12700000000E+01 0. -1.
         25    2    1    2    0    0  0.00000000000E+00  0.00000000000E+00  0.13275812991E+03  0.18234709709E+03  0.12500297101E+03 0.  0.
    9000005    1    3    3    0    0  0.40726836686E+02  0.37544033523E+02  0.24171073345E+02  0.60443944827E+02  0.10000000000E+01 0.  0.
    9000005    1    3    3    0    0 -0.40726836686E+02 -0.37544033523E+02  0.10858705656E+03  0.12190315227E+03  0.10000000000E+01 0.  0.
<mgrwt>
<rscale>  0 0.12500297E+03</rscale>
<asrwt>0</asrwt>
<pdfrwt beam="1">  1        4 0.24238863E-01 0.12500297E+03</pdfrwt>
<pdfrwt beam="2">  1       -4 0.38145360E-02 0.12500297E+03</pdfrwt>
<totfact> 0.93190010E+03</totfact>
</mgrwt>
</event>
<event>
 5    1  0.3235144E-002  0.1250004E+03  0.7818608E-02  0.1235069E+00
         -4   -1    0    0    0  501 -0.00000000000E+00  0.00000000000E+00  0.26484061690E+03  0.26484366192E+03  0.12700000000E+01 0. -1.
          4   -1    0    0  501    0  0.00000000000E+00 -0.00000000000E+00 -0.14719047343E+02  0.14773735299E+02  0.12700000000E+01 0. -1.
         25    2    1    2    0    0  0.00000000000E+00  0.00000000000E+00  0.25012156956E+03  0.27961739722E+03  0.12500035708E+03 0.  0.
    9000005    1    3    3    0    0  0.77605587946E+01 -0.13297764126E+02 -0.10420827682E+02  0.18618551317E+02  0.10000000000E+01 0.  0.
    9000005    1    3    3    0    0 -0.77605587946E+01  0.13297764126E+02  0.26054239724E+03  0.26099884590E+03  0.10000000000E+01 0.  0.
<mgrwt>
<rscale>  0 0.12500036E+03</rscale>
<asrwt>0</asrwt>
<pdfrwt beam="2">  1        4 0.22689098E-02 0.12500036E+03</pdfrwt>
<pdfrwt beam="1">  1       -4 0.40749152E-01 0.12500036E+03</pdfrwt>
<totfact> 0.78228240E+03</totfact>
</mgrwt>
</event>
<event>
 5    1  0.3235144E-002  0.1249990E+03  0.7818608E-02  0.1235071E+00
         -4   -1    0    0    0  501 -0.00000000000E+00  0.00000000000E+00  0.30591398376E+02  0.30617749013E+02  0.12700000000E+01 0.  1.
          4   -1    0    0  501    0  0.00000000000E+00 -0.00000000000E+00 -0.12760465202E+03  0.12761097177E+03  0.12700000000E+01 0.  1.
         25    2    1    2    0    0  0.00000000000E+00  0.00000000000E+00 -0.97013253644E+02  0.15822872079E+03  0.12499902679E+03 0.  0.
    9000005    1    3    3    0    0 -0.14456837732E+02  0.51024957194E+02 -0.66641117091E+01  0.53459861567E+02  0.10000000000E+01 0.  0.
    9000005    1    3    3    0    0  0.14456837732E+02 -0.51024957194E+02 -0.90349141935E+02  0.10476885922E+03  0.10000000000E+01 0.  0.
<mgrwt>
<rscale>  0 0.12499903E+03</rscale>
<asrwt>0</asrwt>
<pdfrwt beam="2">  1        4 0.19633998E-01 0.12499903E+03</pdfrwt>
<pdfrwt beam="1">  1       -4 0.47088821E-02 0.12499903E+03</pdfrwt>
<totfact> 0.97687502E+03</totfact>
</mgrwt>
</event>
<event>
 5    1  0.3235144E-002  0.1250026E+03  0.7818608E-02  0.1235065E+00
         -4   -1    0    0    0  501 -0.00000000000E+00  0.00000000000E+00  0.42098875058E+02  0.42118026795E+02  0.12700000000E+01 0. -1.
          4   -1    0    0  501    0  0.00000000000E+00 -0.00000000000E+00 -0.92746827500E+02  0.92755522268E+02  0.12700000000E+01 0. -1.
         25    2    1    2    0    0  0.00000000000E+00  0.00000000000E+00 -0.50647952442E+02  0.13487354906E+03  0.12500263657E+03 0.  0.
    9000005    1    3    3    0    0 -0.36241608405E+01  0.56901153796E+02 -0.52928188442E+02  0.77802756872E+02  0.10000000000E+01 0.  0.
    9000005    1    3    3    0    0  0.36241608405E+01 -0.56901153796E+02  0.22802360002E+01  0.57070792192E+02  0.10000000000E+01 0.  0.
<mgrwt>
<rscale>  0 0.12500264E+03</rscale>
<asrwt>0</asrwt>
<pdfrwt beam="2">  1        4 0.14270885E-01 0.12500264E+03</pdfrwt>
<pdfrwt beam="1">  1       -4 0.64788921E-02 0.12500264E+03</pdfrwt>
<totfact> 0.10240128E+04</totfact>
</mgrwt>
</event>
<event>
 5    1  0.3235144E-002  0.1249745E+03  0.7818608E-02  0.1235109E+00
         -4   -1    0    0    0  501 -0.00000000000E+00  0.00000000000E+00  0.23988002121E+03  0.23988338308E+03  0.12700000000E+01 0. -1.
          4   -1    0    0  501    0  0.00000000000E+00 -0.00000000000E+00 -0.16249276958E+02  0.16298831297E+02  0.12700000000E+01 0. -1.
         25    2    1    2    0    0  0.00000000000E+00  0.00000000000E+00  0.22363074425E+03  0.25618221437E+03  0.12497446614E+03 0.  0.
    9000005    1    3    3    0    0  0.39597234703E+02  0.26189545440E+01  0.12892013826E+02  0.41737320704E+02  0.10000000000E+01 0.  0.
    9000005    1    3    3    0    0 -0.39597234703E+02 -0.26189545440E+01  0.21073873043E+03  0.21444489367E+03  0.10000000000E+01 0.  0.
<mgrwt>
<rscale>  0 0.12497447E+03</rscale>
<asrwt>0</asrwt>
<pdfrwt beam="2">  1        4 0.25039593E-02 0.12497447E+03</pdfrwt>
<pdfrwt beam="1">  1       -4 0.36908688E-01 0.12497447E+03</pdfrwt>
<totfact> 0.81491157E+03</totfact>
</mgrwt>
</event>
<event>
 5    1  0.3235144E-002  0.1249942E+03  0.7818608E-02  0.1235078E+00
         -4   -1    0    0    0  501 -0.00000000000E+00  0.00000000000E+00  0.49601391560E+02  0.49617647512E+02  0.12700000000E+01 0. -1.
          4   -1    0    0  501    0  0.00000000000E+00 -0.00000000000E+00 -0.78711199261E+02  0.78721444277E+02  0.12700000000E+01 0. -1.
         25    2    1    2    0    0  0.00000000000E+00  0.00000000000E+00 -0.29109807701E+02  0.12833909179E+03  0.12499416617E+03 0.  0.
    9000005    1    3    3    0    0  0.22078348874E+02  0.58454251362E+02 -0.15304089513E+02  0.64339475807E+02  0.10000000000E+01 0.  0.
    9000005    1    3    3    0    0 -0.22078348874E+02 -0.58454251362E+02 -0.13805718188E+02  0.63999615983E+02  0.10000000000E+01 0.  0.
<mgrwt>
<rscale>  0 0.12499417E+03</rscale>
<asrwt>0</asrwt>
<pdfrwt beam="2">  1        4 0.12111454E-01 0.12499417E+03</pdfrwt>
<pdfrwt beam="1">  1       -4 0.76330218E-02 0.12499417E+03</pdfrwt>
<totfact> 0.10381538E+04</totfact>
</mgrwt>
</event>
<event>
 5    1  0.3235144E-002  0.1250000E+03  0.7818608E-02  0.1235069E+00
         -4   -1    0    0    0  501 -0.00000000000E+00  0.00000000000E+00  0.14308788570E+04  0.14308794206E+04  0.12700000000E+01 0.  1.
          4   -1    0    0  501    0  0.00000000000E+00 -0.00000000000E+00 -0.25816688047E+01  0.28771363918E+01  0.12700000000E+01 0.  1.
         25    2    1    2    0    0  0.00000000000E+00  0.00000000000E+00  0.14282971882E+04  0.14337565570E+04  0.12500002769E+03 0.  0.
    9000005    1    3    3    0    0  0.19534211121E+02 -0.57296056219E+02  0.53614898876E+03  0.53955644896E+03  0.10000000000E+01 0.  0.
    9000005    1    3    3    0    0 -0.19534211121E+02  0.57296056219E+02  0.89214819941E+03  0.89420010801E+03  0.10000000000E+01 0.  0.
<mgrwt>
<rscale>  0 0.12500003E+03</rscale>
<asrwt>0</asrwt>
<pdfrwt beam="2">  1        4 0.41995167E-03 0.12500003E+03</pdfrwt>
<pdfrwt beam="1">  1       -4 0.22015786E+00 0.12500003E+03</pdfrwt>
<totfact> 0.19267923E+03</totfact>
</mgrwt>
</event>
<event>
 5    1  0.3235144E-002  0.1249942E+03  0.7818608E-02  0.1235078E+00
          4   -1    0    0  501    0  0.00000000000E+00  0.00000000000E+00  0.42843231913E+01  0.44685932023E+01  0.12700000000E+01 0. -1.
         -4   -1    0    0    0  501 -0.00000000000E+00 -0.00000000000E+00 -0.89229193350E+03  0.89229283729E+03  0.12700000000E+01 0. -1.
         25    2    1    2    0    0  0.00000000000E+00  0.00000000000E+00 -0.88800761030E+03  0.89676143049E+03  0.12499418891E+03 0.  0.
    9000005    1    3    3    0    0  0.47297400575E+02 -0.28630636938E+02 -0.65294214651E+03  0.65527948553E+03  0.10000000000E+01 0.  0.
    9000005    1    3    3    0    0 -0.47297400575E+02  0.28630636938E+02 -0.23506546380E+03  0.24148194496E+03  0.10000000000E+01 0.  0.
<mgrwt>
<rscale>  0 0.12499419E+03</rscale>
<asrwt>0</asrwt>
<pdfrwt beam="1">  1        4 0.67337150E-03 0.12499419E+03</pdfrwt>
<pdfrwt beam="2">  1       -4 0.13728978E+00 0.12499419E+03</pdfrwt>
<totfact> 0.34288612E+03</totfact>
</mgrwt>
</event>
<event>
 5    1  0.3235144E-002  0.1249983E+03  0.7818608E-02  0.1235072E+00
         -4   -1    0    0    0  501 -0.00000000000E+00  0.00000000000E+00  0.84179519023E+02  0.84189098599E+02  0.12700000000E+01 0.  1.
          4   -1    0    0  501    0  0.00000000000E+00 -0.00000000000E+00 -0.46381630871E+02  0.46399014885E+02  0.12700000000E+01 0.  1.
         25    2    1    2    0    0  0.00000000000E+00  0.00000000000E+00  0.37797888151E+02  0.13058811348E+03  0.12499830013E+03 0.  0.
    9000005    1    3    3    0    0 -0.50329585392E+02 -0.25883322299E+02  0.46581639452E+02  0.73306634577E+02  0.10000000000E+01 0.  0.
    9000005    1    3    3    0    0  0.50329585392E+02  0.25883322299E+02 -0.87837513005E+01  0.57281478907E+02  0.10000000000E+01 0.  0.
<mgrwt>
<rscale>  0 0.12499830E+03</rscale>
<asrwt>0</asrwt>
<pdfrwt beam="2">  1        4 0.71377096E-02 0.12499830E+03</pdfrwt>
<pdfrwt beam="1">  1       -4 0.12952769E-01 0.12499830E+03</pdfrwt>
<totfact> 0.10332324E+04</totfact>
</mgrwt>
</event>
<event>
 5    1  0.3235144E-002  0.1250047E+03  0.7818608E-02  0.1235062E+00
          4   -1    0    0  501    0  0.00000000000E+00  0.00000000000E+00  0.34470081776E+02  0.34493469492E+02  0.12700000000E+01 0.  1.
         -4   -1    0    0    0  501 -0.00000000000E+00 -0.00000000000E+00 -0.11326609716E+03  0.11327321690E+03  0.12700000000E+01 0.  1.
         25    2    1    2    0    0  0.00000000000E+00  0.00000000000E+00 -0.78796015389E+02  0.14776668639E+03  0.12500472618E+03 0.  0.
    9000005    1    3    3    0    0  0.15981664882E+02  0.50757967174E+02 -0.66298427312E+00  0.53228041409E+02  0.10000000000E+01 0.  0.
    9000005    1    3    3    0    0 -0.15981664882E+02 -0.50757967174E+02 -0.78133031115E+02  0.94538644984E+02  0.10000000000E+01 0.  0.
<mgrwt>
<rscale>  0 0.12500473E+03</rscale>
<asrwt>0</asrwt>
<pdfrwt beam="1">  1        4 0.53054363E-02 0.12500473E+03</pdfrwt>
<pdfrwt beam="2">  1       -4 0.17427900E-01 0.12500473E+03</pdfrwt>
<totfact> 0.99740141E+03</totfact>
</mgrwt>
</event>
<event>
 5    1  0.3235144E-002  0.1250002E+03  0.7818608E-02  0.1235069E+00
         -4   -1    0    0    0  501 -0.00000000000E+00  0.00000000000E+00  0.33389479108E+02  0.33413623196E+02  0.12700000000E+01 0.  1.
          4   -1    0    0  501    0  0.00000000000E+00 -0.00000000000E+00 -0.11692097239E+03  0.11692786958E+03  0.12700000000E+01 0.  1.
         25    2    1    2    0    0  0.00000000000E+00  0.00000000000E+00 -0.83531493281E+02  0.15034149277E+03  0.12500021632E+03 0.  0.
    9000005    1    3    3    0    0 -0.22692738658E+02  0.33539881903E+02 -0.99010880105E+02  0.10697681265E+03  0.10000000000E+01 0.  0.
    9000005    1    3    3    0    0  0.22692738658E+02 -0.33539881903E+02  0.15479386823E+02  0.43364680124E+02  0.10000000000E+01 0.  0.
<mgrwt>
<rscale>  0 0.12500022E+03</rscale>
<asrwt>0</asrwt>
<pdfrwt beam="2">  1        4 0.17990230E-01 0.12500022E+03</pdfrwt>
<pdfrwt beam="1">  1       -4 0.51392308E-02 0.12500022E+03</pdfrwt>
<totfact> 0.99235187E+03</totfact>
</mgrwt>
</event>
<event>
 5    1  0.3235144E-002  0.1249992E+03  0.7818608E-02  0.1235071E+00
          4   -1    0    0  501    0  0.00000000000E+00  0.00000000000E+00  0.11084654777E+02  0.11157171305E+02  0.12700000000E+01 0. -1.
         -4   -1    0    0    0  501 -0.00000000000E+00 -0.00000000000E+00 -0.35117439800E+03  0.35117669443E+03  0.12700000000E+01 0. -1.
         25    2    1    2    0    0  0.00000000000E+00  0.00000000000E+00 -0.34008974322E+03  0.36233386574E+03  0.12499918725E+03 0.  0.
    9000005    1    3    3    0    0 -0.37372448184E+02 -0.33031389849E+02 -0.60912893228E+02  0.78734701117E+02  0.10000000000E+01 0.  0.
    9000005    1    3    3    0    0  0.37372448184E+02  0.33031389849E+02 -0.27917685000E+03  0.28359916462E+03  0.10000000000E+01 0.  0.
<mgrwt>
<rscale>  0 0.12499919E+03</rscale>
<asrwt>0</asrwt>
<pdfrwt beam="1">  1        4 0.17110866E-02 0.12499919E+03</pdfrwt>
<pdfrwt beam="2">  1       -4 0.54032577E-01 0.12499919E+03</pdfrwt>
<totfact> 0.68389891E+03</totfact>
</mgrwt>
</event>
<event>
 5    1  0.3235144E-002  0.1249965E+03  0.7818608E-02  0.1235075E+00
          4   -1    0    0  501    0  0.00000000000E+00  0.00000000000E+00  0.19659434072E+03  0.19659844278E+03  0.12700000000E+01 0.  1.
         -4   -1    0    0    0  501 -0.00000000000E+00 -0.00000000000E+00 -0.19843862780E+02  0.19884461020E+02  0.12700000000E+01 0.  1.
         25    2    1    2    0    0  0.00000000000E+00  0.00000000000E+00  0.17675047794E+03  0.21648290380E+03  0.12499646469E+03 0.  0.
    9000005    1    3    3    0    0 -0.46494259894E+02  0.32240220510E+02  0.13432417966E+03  0.14575710365E+03  0.10000000000E+01 0.  0.
    9000005    1    3    3    0    0  0.46494259894E+02 -0.32240220510E+02  0.42426298280E+02  0.70725800154E+02  0.10000000000E+01 0.  0.
<mgrwt>
<rscale>  0 0.12499646E+03</rscale>
<asrwt>0</asrwt>
<pdfrwt beam="1">  1        4 0.30248720E-01 0.12499646E+03</pdfrwt>
<pdfrwt beam="2">  1       -4 0.30563406E-02 0.12499646E+03</pdfrwt>
<totfact> 0.87434869E+03</totfact>
</mgrwt>
</event>
<event>
 5    1  0.3235144E-002  0.1249985E+03  0.7818608E-02  0.1235072E+00
         -4   -1    0    0    0  501 -0.00000000000E+00  0.00000000000E+00  0.55552953642E+03  0.55553098810E+03  0.12700000000E+01 0.  1.
          4   -1    0    0  501    0  0.00000000000E+00 -0.00000000000E+00 -0.69725863485E+01  0.70873027582E+01  0.12700000000E+01 0.  1.
         25    2    1    2    0    0  0.00000000000E+00  0.00000000000E+00  0.54855695007E+03  0.56261829086E+03  0.12499845492E+03 0.  0.
    9000005    1    3    3    0    0  0.60368296505E+01 -0.40745930952E+02  0.48580062984E+03  0.48754479400E+03  0.10000000000E+01 0.  0.
    9000005    1    3    3    0    0 -0.60368296505E+01  0.40745930952E+02  0.62756320235E+02  0.75073496860E+02  0.10000000000E+01 0.  0.
<mgrwt>
<rscale>  0 0.12499845E+03</rscale>
<asrwt>0</asrwt>
<pdfrwt beam="2">  1        4 0.10816413E-02 0.12499845E+03</pdfrwt>
<pdfrwt beam="1">  1       -4 0.85475040E-01 0.12499845E+03</pdfrwt>
<totfact> 0.51317327E+03</totfact>
</mgrwt>
</event>
<event>
 5    1  0.3235144E-002  0.1250111E+03  0.7818608E-02  0.1235052E+00
          4   -1    0    0  501    0  0.00000000000E+00  0.00000000000E+00  0.74575875806E+01  0.75649529094E+01  0.12700000000E+01 0.  1.
         -4   -1    0    0    0  501 -0.00000000000E+00 -0.00000000000E+00 -0.52003566692E+03  0.52003721768E+03  0.12700000000E+01 0.  1.
         25    2    1    2    0    0  0.00000000000E+00  0.00000000000E+00 -0.51257807934E+03  0.52760217058E+03  0.12501105146E+03 0.  0.
    9000005    1    3    3    0    0  0.28059697970E+02  0.26610114203E+02 -0.46349935223E+03  0.46511084093E+03  0.10000000000E+01 0.  0.
    9000005    1    3    3    0    0 -0.28059697970E+02 -0.26610114203E+02 -0.49078727104E+02  0.62491329657E+02  0.10000000000E+01 0.  0.
<mgrwt>
<rscale>  0 0.12501105E+03</rscale>
<asrwt>0</asrwt>
<pdfrwt beam="1">  1        4 0.11556997E-02 0.12501105E+03</pdfrwt>
<pdfrwt beam="2">  1       -4 0.80013837E-01 0.12501105E+03</pdfrwt>
<totfact> 0.53771577E+03</totfact>
</mgrwt>
</event>
<event>
 5    1  0.3235144E-002  0.1250008E+03  0.7818608E-02  0.1235068E+00
          4   -1    0    0  501    0  0.00000000000E+00  0.00000000000E+00  0.90151787271E+02  0.90160732296E+02  0.12700000000E+01 0.  1.
         -4   -1    0    0    0  501 -0.00000000000E+00 -0.00000000000E+00 -0.43309880897E+02  0.43328497358E+02  0.12700000000E+01 0.  1.
         25    2    1    2    0    0  0.00000000000E+00  0.00000000000E+00  0.46841906373E+02  0.13348922965E+03  0.12500084096E+03 0.  0.
    9000005    1    3    3    0    0  0.39350734874E+02  0.48243011163E+02  0.29214688689E+02  0.68777659865E+02  0.10000000000E+01 0.  0.
    9000005    1    3    3    0    0 -0.39350734874E+02 -0.48243011163E+02  0.17627217684E+02  0.64711569789E+02  0.10000000000E+01 0.  0.
<mgrwt>
<rscale>  0 0.12500084E+03</rscale>
<asrwt>0</asrwt>
<pdfrwt beam="1">  1        4 0.13871626E-01 0.12500084E+03</pdfrwt>
<pdfrwt beam="2">  1       -4 0.66651787E-02 0.12500084E+03</pdfrwt>
<totfact> 0.10269818E+04</totfact>
</mgrwt>
</event>
<event>
 5    1  0.3235144E-002  0.1249899E+03  0.7818608E-02  0.1235085E+00
          4   -1    0    0  501    0  0.00000000000E+00  0.00000000000E+00  0.45874721567E+02  0.45892297598E+02  0.12700000000E+01 0.  1.
         -4   -1    0    0    0  501 -0.00000000000E+00 -0.00000000000E+00 -0.85097985865E+02  0.85107462060E+02  0.12700000000E+01 0.  1.
         25    2    1    2    0    0  0.00000000000E+00  0.00000000000E+00 -0.39223264299E+02  0.13099975966E+03  0.12498988986E+03 0.  0.
    9000005    1    3    3    0    0  0.41521804878E+02  0.20542575141E+02  0.24339925039E+02  0.52340133976E+02  0.10000000000E+01 0.  0.
    9000005    1    3    3    0    0 -0.41521804878E+02 -0.20542575141E+02 -0.63563189337E+02  0.78659625682E+02  0.10000000000E+01 0.  0.
<mgrwt>
<rscale>  0 0.12498989E+03</rscale>
<asrwt>0</asrwt>
<pdfrwt beam="1">  1        4 0.70597304E-02 0.12498989E+03</pdfrwt>
<pdfrwt beam="2">  1       -4 0.13094079E-01 0.12498989E+03</pdfrwt>
<totfact> 0.10325449E+04</totfact>
</mgrwt>
</event>
<event>
 5    1  0.3235144E-002  0.1249992E+03  0.7818608E-02  0.1235071E+00
          4   -1    0    0  501    0  0.00000000000E+00  0.00000000000E+00  0.75052860207E+02  0.75063604531E+02  0.12700000000E+01 0. -1.
         -4   -1    0    0    0  501 -0.00000000000E+00 -0.00000000000E+00 -0.52023759835E+02  0.52039259097E+02  0.12700000000E+01 0. -1.
         25    2    1    2    0    0  0.00000000000E+00  0.00000000000E+00  0.23029100372E+02  0.12710286363E+03  0.12499919391E+03 0.  0.
    9000005    1    3    3    0    0  0.32764131838E+02 -0.10877761529E+01 -0.42583529933E+02  0.53749684777E+02  0.10000000000E+01 0.  0.
    9000005    1    3    3    0    0 -0.32764131838E+02  0.10877761529E+01  0.65612630305E+02  0.73353178851E+02  0.10000000000E+01 0.  0.
<mgrwt>
<rscale>  0 0.12499919E+03</rscale>
<asrwt>0</asrwt>
<pdfrwt beam="1">  1        4 0.11548613E-01 0.12499919E+03</pdfrwt>
<pdfrwt beam="2">  1       -4 0.80056741E-02 0.12499919E+03</pdfrwt>
<totfact> 0.10407101E+04</totfact>
</mgrwt>
</event>
<event>
 5    1  0.3235144E-002  0.1249992E+03  0.7818608E-02  0.1235071E+00
         -4   -1    0    0    0  501 -0.00000000000E+00  0.00000000000E+00  0.15342351919E+02  0.15394825832E+02  0.12700000000E+01 0.  1.
          4   -1    0    0  501    0  0.00000000000E+00 -0.00000000000E+00 -0.25411374107E+03  0.25411691463E+03  0.12700000000E+01 0.  1.
         25    2    1    2    0    0  0.00000000000E+00  0.00000000000E+00 -0.23877138915E+03  0.26951174046E+03  0.12499920787E+03 0.  0.
    9000005    1    3    3    0    0  0.81094045082E+01 -0.34798505787E+02 -0.22992699960E+03  0.23268889873E+03  0.10000000000E+01 0.  0.
    9000005    1    3    3    0    0 -0.81094045082E+01  0.34798505787E+02 -0.88443895466E+01  0.36822841728E+02  0.10000000000E+01 0.  0.
<mgrwt>
<rscale>  0 0.12499921E+03</rscale>
<asrwt>0</asrwt>
<pdfrwt beam="2">  1        4 0.39098699E-01 0.12499921E+03</pdfrwt>
<pdfrwt beam="1">  1       -4 0.23646426E-02 0.12499921E+03</pdfrwt>
<totfact> 0.79590884E+03</totfact>
</mgrwt>
</event>
<event>
 5    1  0.3235144E-002  0.1250405E+03  0.7818608E-02  0.1235006E+00
         -4   -1    0    0    0  501 -0.00000000000E+00  0.00000000000E+00  0.13521835780E+04  0.13521841744E+04  0.12700000000E+01 0.  1.
          4   -1    0    0  501    0  0.00000000000E+00 -0.00000000000E+00 -0.27506026754E+01  0.30296394303E+01  0.12700000000E+01 0.  1.
         25    2    1    2    0    0  0.00000000000E+00  0.00000000000E+00  0.13494329754E+04  0.13552138139E+04  0.12504049871E+03 0.  0.
    9000005    1    3    3    0    0 -0.28574680282E+02  0.80589387825E+01  0.78485226812E+02  0.83918947057E+02  0.10000000000E+01 0.  0.
    9000005    1    3    3    0    0  0.28574680282E+02 -0.80589387825E+01  0.12709477486E+04  0.12712948668E+04  0.10000000000E+01 0.  0.
<mgrwt>
<rscale>  0 0.12504050E+03</rscale>
<asrwt>0</asrwt>
<pdfrwt beam="2">  1        4 0.44467985E-03 0.12504050E+03</pdfrwt>
<pdfrwt beam="1">  1       -4 0.20804977E+00 0.12504050E+03</pdfrwt>
<totfact> 0.20943087E+03</totfact>
</mgrwt>
</event>
<event>
 5    1  0.3235144E-002  0.1250006E+03  0.7818608E-02  0.1235068E+00
          4   -1    0    0  501    0  0.00000000000E+00  0.00000000000E+00  0.75442083054E+02  0.75452771954E+02  0.12700000000E+01 0.  1.
         -4   -1    0    0    0  501 -0.00000000000E+00 -0.00000000000E+00 -0.51756519939E+02  0.51772099206E+02  0.12700000000E+01 0.  1.
         25    2    1    2    0    0  0.00000000000E+00  0.00000000000E+00  0.23685563114E+02  0.12722487116E+03  0.12500064776E+03 0.  0.
    9000005    1    3    3    0    0 -0.57981528233E+02  0.25774828762E+01 -0.11738192609E+02  0.59222345444E+02  0.10000000000E+01 0.  0.
    9000005    1    3    3    0    0  0.57981528233E+02 -0.25774828762E+01  0.35423755723E+02  0.68002525716E+02  0.10000000000E+01 0.  0.
<mgrwt>
<rscale>  0 0.12500065E+03</rscale>
<asrwt>0</asrwt>
<pdfrwt beam="1">  1        4 0.11608495E-01 0.12500065E+03</pdfrwt>
<pdfrwt beam="2">  1       -4 0.79645621E-02 0.12500065E+03</pdfrwt>
<totfact> 0.10404112E+04</totfact>
</mgrwt>
</event>
<event>
 5    1  0.3235144E-002  0.1250031E+03  0.7818608E-02  0.1235064E+00
          4   -1    0    0  501    0  0.00000000000E+00  0.00000000000E+00  0.26964446592E+03  0.26964745670E+03  0.12700000000E+01 0.  1.
         -4   -1    0    0    0  501 -0.00000000000E+00 -0.00000000000E+00 -0.14456468161E+02  0.14512145662E+02  0.12700000000E+01 0.  1.
         25    2    1    2    0    0  0.00000000000E+00  0.00000000000E+00  0.25518799776E+03  0.28415960236E+03  0.12500306161E+03 0.  0.
    9000005    1    3    3    0    0 -0.39557175342E+02  0.48355078090E+02  0.12403029095E+03  0.13887943250E+03  0.10000000000E+01 0.  0.
    9000005    1    3    3    0    0  0.39557175342E+02 -0.48355078090E+02  0.13115770682E+03  0.14528016986E+03  0.10000000000E+01 0.  0.
<mgrwt>
<rscale>  0 0.12500306E+03</rscale>
<asrwt>0</asrwt>
<pdfrwt beam="1">  1        4 0.41488274E-01 0.12500306E+03</pdfrwt>
<pdfrwt beam="2">  1       -4 0.22285851E-02 0.12500306E+03</pdfrwt>
<totfact> 0.77624505E+03</totfact>
</mgrwt>
</event>
<event>
 5    1  0.3235144E-002  0.1249983E+03  0.7818608E-02  0.1235072E+00
         -4   -1    0    0    0  501 -0.00000000000E+00  0.00000000000E+00  0.10676044396E+03  0.10676799752E+03  0.12700000000E+01 0. -1.
          4   -1    0    0  501    0  0.00000000000E+00 -0.00000000000E+00 -0.36568084256E+02  0.36590130994E+02  0.12700000000E+01 0. -1.
         25    2    1    2    0    0  0.00000000000E+00  0.00000000000E+00  0.70192359704E+02  0.14335812852E+03  0.12499834259E+03 0.  0.
    9000005    1    3    3    0    0  0.61154522024E+02 -0.35907125565E+01  0.20938937118E+02  0.64747261473E+02  0.10000000000E+01 0.  0.
    9000005    1    3    3    0    0 -0.61154522024E+02  0.35907125565E+01  0.49253422587E+02  0.78610867042E+02  0.10000000000E+01 0.  0.
<mgrwt>
<rscale>  0 0.12499834E+03</rscale>
<asrwt>0</asrwt>
<pdfrwt beam="2">  1        4 0.56281362E-02 0.12499834E+03</pdfrwt>
<pdfrwt beam="1">  1       -4 0.16426960E-01 0.12499834E+03</pdfrwt>
<totfact> 0.10064830E+04</totfact>
</mgrwt>
</event>
<event>
 5    1  0.3235144E-002  0.1250013E+03  0.7818608E-02  0.1235067E+00
         -4   -1    0    0    0  501 -0.00000000000E+00  0.00000000000E+00  0.56590340329E+02  0.56604589201E+02  0.12700000000E+01 0.  1.
          4   -1    0    0  501    0  0.00000000000E+00 -0.00000000000E+00 -0.68999447521E+02  0.69011134306E+02  0.12700000000E+01 0.  1.
         25    2    1    2    0    0  0.00000000000E+00  0.00000000000E+00 -0.12409107192E+02  0.12561572351E+03  0.12500129620E+03 0.  0.
    9000005    1    3    3    0    0  0.21929254079E+00  0.61084827921E+02 -0.19457506138E+02  0.64117071334E+02  0.10000000000E+01 0.  0.
    9000005    1    3    3    0    0 -0.21929254079E+00 -0.61084827921E+02  0.70483989467E+01  0.61498652172E+02  0.10000000000E+01 0.  0.
<mgrwt>
<rscale>  0 0.12500130E+03</rscale>
<asrwt>0</asrwt>
<pdfrwt beam="2">  1        4 0.10617295E-01 0.12500130E+03</pdfrwt>
<pdfrwt beam="1">  1       -4 0.87082012E-02 0.12500130E+03</pdfrwt>
<totfact> 0.10439095E+04</totfact>
</mgrwt>
</event>
<event>
 5    1  0.3235144E-002  0.1249838E+03  0.7818608E-02  0.1235095E+00
         -4   -1    0    0    0  501 -0.00000000000E+00  0.00000000000E+00  0.18726445932E+03  0.18726876575E+03  0.12700000000E+01 0.  1.
          4   -1    0    0  501    0  0.00000000000E+00 -0.00000000000E+00 -0.20830229404E+02  0.20868908860E+02  0.12700000000E+01 0.  1.
         25    2    1    2    0    0  0.00000000000E+00  0.00000000000E+00  0.16643422992E+03  0.20813767461E+03  0.12498375376E+03 0.  0.
    9000005    1    3    3    0    0  0.29120364694E+02  0.17460726835E+02  0.17056874341E+03  0.17391828211E+03  0.10000000000E+01 0.  0.
    9000005    1    3    3    0    0 -0.29120364694E+02 -0.17460726835E+02 -0.41345134925E+01  0.34219392504E+02  0.10000000000E+01 0.  0.
<mgrwt>
<rscale>  0 0.12498375E+03</rscale>
<asrwt>0</asrwt>
<pdfrwt beam="2">  1        4 0.32079574E-02 0.12498375E+03</pdfrwt>
<pdfrwt beam="1">  1       -4 0.28813223E-01 0.12498375E+03</pdfrwt>
<totfact> 0.88813188E+03</totfact>
</mgrwt>
</event>
<event>
 5    1  0.3235144E-002  0.1249987E+03  0.7818608E-02  0.1235071E+00
          4   -1    0    0  501    0  0.00000000000E+00  0.00000000000E+00  0.21474864806E+01  0.24949144644E+01  0.12700000000E+01 0.  1.
         -4   -1    0    0    0  501 -0.00000000000E+00 -0.00000000000E+00 -0.16824751604E+04  0.16824756397E+04  0.12700000000E+01 0.  1.
         25    2    1    2    0    0  0.00000000000E+00  0.00000000000E+00 -0.16803276739E+04  0.16849705542E+04  0.12499870696E+03 0.  0.
    9000005    1    3    3    0    0 -0.56096024384E+01  0.61928177786E+02 -0.92391553511E+03  0.92600620023E+03  0.10000000000E+01 0.  0.
    9000005    1    3    3    0    0  0.56096024384E+01 -0.61928177786E+02 -0.75641213883E+03  0.75896435398E+03  0.10000000000E+01 0.  0.
<mgrwt>
<rscale>  0 0.12499871E+03</rscale>
<asrwt>0</asrwt>
<pdfrwt beam="1">  1        4 0.35714598E-03 0.12499871E+03</pdfrwt>
<pdfrwt beam="2">  1       -4 0.25886812E+00 0.12499871E+03</pdfrwt>
<totfact> 0.14560732E+03</totfact>
</mgrwt>
</event>
<event>
 5    1  0.3235144E-002  0.1249968E+03  0.7818608E-02  0.1235074E+00
         -4   -1    0    0    0  501 -0.00000000000E+00  0.00000000000E+00  0.30902637052E+02  0.30928722521E+02  0.12700000000E+01 0. -1.
          4   -1    0    0  501    0  0.00000000000E+00 -0.00000000000E+00 -0.12631607642E+03  0.12632246064E+03  0.12700000000E+01 0. -1.
         25    2    1    2    0    0  0.00000000000E+00  0.00000000000E+00 -0.95413439366E+02  0.15725118316E+03  0.12499684073E+03 0.  0.
    9000005    1    3    3    0    0 -0.42784145879E+02 -0.39841127395E+02 -0.19936930557E+02  0.61776045283E+02  0.10000000000E+01 0.  0.
    9000005    1    3    3    0    0  0.42784145879E+02  0.39841127395E+02 -0.75476508809E+02  0.95475137877E+02  0.10000000000E+01 0.  0.
<mgrwt>
<rscale>  0 0.12499684E+03</rscale>
<asrwt>0</asrwt>
<pdfrwt beam="2">  1        4 0.19435740E-01 0.12499684E+03</pdfrwt>
<pdfrwt beam="1">  1       -4 0.47567496E-02 0.12499684E+03</pdfrwt>
<totfact> 0.97882321E+03</totfact>
</mgrwt>
</event>
<event>
 5    1  0.3235144E-002  0.1249811E+03  0.7818608E-02  0.1235099E+00
         -4   -1    0    0    0  501 -0.00000000000E+00  0.00000000000E+00  0.45276115393E+02  0.45293923710E+02  0.12700000000E+01 0.  1.
          4   -1    0    0  501    0  0.00000000000E+00 -0.00000000000E+00 -0.86210610904E+02  0.86219964813E+02  0.12700000000E+01 0.  1.
         25    2    1    2    0    0  0.00000000000E+00  0.00000000000E+00 -0.40934495511E+02  0.13151388852E+03  0.12498107837E+03 0.  0.
    9000005    1    3    3    0    0 -0.82706880092E+01 -0.61761576157E+02 -0.15625555289E+02  0.64249938114E+02  0.10000000000E+01 0.  0.
    9000005    1    3    3    0    0  0.82706880092E+01  0.61761576157E+02 -0.25308940222E+02  0.67263950410E+02  0.10000000000E+01 0.  0.
<mgrwt>
<rscale>  0 0.12498108E+03</rscale>
<asrwt>0</asrwt>
<pdfrwt beam="2">  1        4 0.13265260E-01 0.12498108E+03</pdfrwt>
<pdfrwt beam="1">  1       -4 0.69676456E-02 0.12498108E+03</pdfrwt>
<totfact> 0.10316488E+04</totfact>
</mgrwt>
</event>
<event>
 5    1  0.3235144E-002  0.1250022E+03  0.7818608E-02  0.1235066E+00
          4   -1    0    0  501    0  0.00000000000E+00  0.00000000000E+00  0.47018233805E+02  0.47035382534E+02  0.12700000000E+01 0. -1.
         -4   -1    0    0    0  501 -0.00000000000E+00 -0.00000000000E+00 -0.83045184900E+02  0.83054895311E+02  0.12700000000E+01 0. -1.
         25    2    1    2    0    0  0.00000000000E+00  0.00000000000E+00 -0.36026951096E+02  0.13009027785E+03  0.12500215672E+03 0.  0.
    9000005    1    3    3    0    0  0.93821833230E+01  0.61747636278E+02 -0.20242829837E+02  0.65662532007E+02  0.10000000000E+01 0.  0.
    9000005    1    3    3    0    0 -0.93821833230E+01 -0.61747636278E+02 -0.15784121259E+02  0.64427745838E+02  0.10000000000E+01 0.  0.
<mgrwt>
<rscale>  0 0.12500216E+03</rscale>
<asrwt>0</asrwt>
<pdfrwt beam="1">  1        4 0.72356405E-02 0.12500216E+03</pdfrwt>
<pdfrwt beam="2">  1       -4 0.12778248E-01 0.12500216E+03</pdfrwt>
<totfact> 0.10342073E+04</totfact>
</mgrwt>
</event>
<event>
 5    1  0.3235144E-002  0.1249986E+03  0.7818608E-02  0.1235071E+00
         -4   -1    0    0    0  501 -0.00000000000E+00  0.00000000000E+00  0.76272726440E+02  0.76283298950E+02  0.12700000000E+01 0.  1.
          4   -1    0    0  501    0  0.00000000000E+00 -0.00000000000E+00 -0.51191137682E+02  0.51206888962E+02  0.12700000000E+01 0.  1.
         25    2    1    2    0    0  0.00000000000E+00  0.00000000000E+00  0.25081588758E+02  0.12749018791E+03  0.12499864767E+03 0.  0.
    9000005    1    3    3    0    0 -0.33651348427E+00 -0.51916340009E+02 -0.22933888542E+02  0.56766036015E+02  0.10000000000E+01 0.  0.
    9000005    1    3    3    0    0  0.33651348427E+00  0.51916340009E+02  0.48015477300E+02  0.70724151897E+02  0.10000000000E+01 0.  0.
<mgrwt>
<rscale>  0 0.12499865E+03</rscale>
<asrwt>0</asrwt>
<pdfrwt beam="2">  1        4 0.78775846E-02 0.12499865E+03</pdfrwt>
<pdfrwt beam="1">  1       -4 0.11736290E-01 0.12499865E+03</pdfrwt>
<totfact> 0.10398830E+04</totfact>
</mgrwt>
</event>
<event>
 5    1  0.3235144E-002  0.1250009E+03  0.7818608E-02  0.1235068E+00
          4   -1    0    0  501    0  0.00000000000E+00  0.00000000000E+00  0.11343212896E+02  0.11414086858E+02  0.12700000000E+01 0.  1.
         -4   -1    0    0    0  501 -0.00000000000E+00 -0.00000000000E+00 -0.34322949767E+03  0.34323184725E+03  0.12700000000E+01 0.  1.
         25    2    1    2    0    0  0.00000000000E+00  0.00000000000E+00 -0.33188628477E+03  0.35464593411E+03  0.12500093025E+03 0.  0.
    9000005    1    3    3    0    0  0.88813981081E+01 -0.60727822123E+02 -0.13254660000E+03  0.14606967099E+03  0.10000000000E+01 0.  0.
    9000005    1    3    3    0    0 -0.88813981081E+01  0.60727822123E+02 -0.19933968477E+03  0.20857626312E+03  0.10000000000E+01 0.  0.
<mgrwt>
<rscale>  0 0.12500093E+03</rscale>
<asrwt>0</asrwt>
<pdfrwt beam="1">  1        4 0.17507425E-02 0.12500093E+03</pdfrwt>
<pdfrwt beam="2">  1       -4 0.52810163E-01 0.12500093E+03</pdfrwt>
<totfact> 0.69215031E+03</totfact>
</mgrwt>
</event>
<event>
 5    1  0.3235144E-002  0.1250009E+03  0.7818608E-02  0.1235068E+00
         -4   -1    0    0    0  501 -0.00000000000E+00  0.00000000000E+00  0.30405381700E+02  0.30431893406E+02  0.12700000000E+01 0.  1.
          4   -1    0    0  501    0  0.00000000000E+00 -0.00000000000E+00 -0.12838863447E+03  0.12839491563E+03  0.12700000000E+01 0.  1.
         25    2    1    2    0    0  0.00000000000E+00  0.00000000000E+00 -0.97983252770E+02  0.15882680904E+03  0.12500094978E+03 0.  0.
    9000005    1    3    3    0    0  0.22933773074E+02  0.57701006952E+02 -0.57971235338E+02  0.84953094571E+02  0.10000000000E+01 0.  0.
    9000005    1    3    3    0    0 -0.22933773074E+02 -0.57701006952E+02 -0.40012017432E+02  0.73873714470E+02  0.10000000000E+01 0.  0.
<mgrwt>
<rscale>  0 0.12500095E+03</rscale>
<asrwt>0</asrwt>
<pdfrwt beam="2">  1        4 0.19754620E-01 0.12500095E+03</pdfrwt>
<pdfrwt beam="1">  1       -4 0.46802736E-02 0.12500095E+03</pdfrwt>
<totfact> 0.97567361E+03</totfact>
</mgrwt>
</event>
<event>
 5    1  0.3235144E-002  0.1249993E+03  0.7818608E-02  0.1235070E+00
         -4   -1    0    0    0  501 -0.00000000000E+00  0.00000000000E+00  0.29811949417E+02  0.29838988389E+02  0.12700000000E+01 0. -1.
          4   -1    0    0  501    0  0.00000000000E+00 -0.00000000000E+00 -0.13093862932E+03  0.13094478817E+03  0.12700000000E+01 0. -1.
         25    2    1    2    0    0  0.00000000000E+00  0.00000000000E+00 -0.10112667990E+03  0.16078377656E+03  0.12499926966E+03 0.  0.
    9000005    1    3    3    0    0 -0.46398720082E+02 -0.40300216350E+02 -0.65130438958E+02  0.89554021361E+02  0.10000000000E+01 0.  0.
    9000005    1    3    3    0    0  0.46398720082E+02  0.40300216350E+02 -0.35996240946E+02  0.71229755196E+02  0.10000000000E+01 0.  0.
<mgrwt>
<rscale>  0 0.12499927E+03</rscale>
<asrwt>0</asrwt>
<pdfrwt beam="2">  1        4 0.20146958E-01 0.12499927E+03</pdfrwt>
<pdfrwt beam="1">  1       -4 0.45890075E-02 0.12499927E+03</pdfrwt>
<totfact> 0.97193487E+03</totfact>
</mgrwt>
</event>
<event>
 5    1  0.3235144E-002  0.1249991E+03  0.7818608E-02  0.1235071E+00
         -4   -1    0    0    0  501 -0.00000000000E+00  0.00000000000E+00  0.28560380701E+03  0.28560663066E+03  0.12700000000E+01 0.  1.
          4   -1    0    0  501    0  0.00000000000E+00 -0.00000000000E+00 -0.13644590041E+02  0.13703566594E+02  0.12700000000E+01 0.  1.
         25    2    1    2    0    0  0.00000000000E+00  0.00000000000E+00  0.27195921697E+03  0.29931019726E+03  0.12499911395E+03 0.  0.
    9000005    1    3    3    0    0 -0.18531199682E+02  0.10714761808E+02 -0.46038289677E+01  0.21918182484E+02  0.10000000000E+01 0.  0.
    9000005    1    3    3    0    0  0.18531199682E+02 -0.10714761808E+02  0.27656304594E+03  0.27739201477E+03  0.10000000000E+01 0.  0.
<mgrwt>
<rscale>  0 0.12499911E+03</rscale>
<asrwt>0</asrwt>
<pdfrwt beam="2">  1        4 0.21039218E-02 0.12499911E+03</pdfrwt>
<pdfrwt beam="1">  1       -4 0.43943797E-01 0.12499911E+03</pdfrwt>
<totfact> 0.75686938E+03</totfact>
</mgrwt>
</event>
<event>
 5    1  0.3235144E-002  0.1250026E+03  0.7818608E-02  0.1235065E+00
          4   -1    0    0  501    0  0.00000000000E+00  0.00000000000E+00  0.22777160566E+03  0.22777514624E+03  0.12700000000E+01 0. -1.
         -4   -1    0    0    0  501 -0.00000000000E+00 -0.00000000000E+00 -0.17123388239E+02  0.17170420053E+02  0.12700000000E+01 0. -1.
         25    2    1    2    0    0  0.00000000000E+00  0.00000000000E+00  0.21064821742E+03  0.24494556629E+03  0.12500263575E+03 0.  0.
    9000005    1    3    3    0    0  0.91523471287E+01 -0.59714510272E+02  0.13666585652E+03  0.14942605039E+03  0.10000000000E+01 0.  0.
    9000005    1    3    3    0    0 -0.91523471287E+01  0.59714510272E+02  0.73982360895E+02  0.95519515905E+02  0.10000000000E+01 0.  0.
<mgrwt>
<rscale>  0 0.12500264E+03</rscale>
<asrwt>0</asrwt>
<pdfrwt beam="1">  1        4 0.35045673E-01 0.12500264E+03</pdfrwt>
<pdfrwt beam="2">  1       -4 0.26382578E-02 0.12500264E+03</pdfrwt>
<totfact> 0.83061405E+03</totfact>
</mgrwt>
</event>
<event>
 5    1  0.3235144E-002  0.1250049E+03  0.7818608E-02  0.1235062E+00
          4   -1    0    0  501    0  0.00000000000E+00  0.00000000000E+00  0.26530064147E+03  0.26530368121E+03  0.12700000000E+01 0. -1.
         -4   -1    0    0    0  501 -0.00000000000E+00 -0.00000000000E+00 -0.14694491423E+02  0.14749270429E+02  0.12700000000E+01 0. -1.
         25    2    1    2    0    0  0.00000000000E+00  0.00000000000E+00  0.25060615005E+03  0.28005295164E+03  0.12500485303E+03 0.  0.
    9000005    1    3    3    0    0 -0.25885207749E+02  0.27757554825E+02  0.23653364532E+03  0.23956145600E+03  0.10000000000E+01 0.  0.
    9000005    1    3    3    0    0  0.25885207749E+02 -0.27757554825E+02  0.14072504722E+02  0.40491495641E+02  0.10000000000E+01 0.  0.
<mgrwt>
<rscale>  0 0.12500485E+03</rscale>
<asrwt>0</asrwt>
<pdfrwt beam="1">  1        4 0.40819933E-01 0.12500485E+03</pdfrwt>
<pdfrwt beam="2">  1       -4 0.22651385E-02 0.12500485E+03</pdfrwt>
<totfact> 0.78162650E+03</totfact>
</mgrwt>
</event>
<event>
 5    1  0.3235144E-002  0.1249979E+03  0.7818608E-02  0.1235073E+00
         -4   -1    0    0    0  501 -0.00000000000E+00  0.00000000000E+00  0.17649701603E+03  0.17650158517E+03  0.12700000000E+01 0. -1.
          4   -1    0    0  501    0  0.00000000000E+00 -0.00000000000E+00 -0.22108281112E+02  0.22144728351E+02  0.12700000000E+01 0. -1.
         25    2    1    2    0    0  0.00000000000E+00  0.00000000000E+00  0.15438873492E+03  0.19864631352E+03  0.12499790561E+03 0.  0.
    9000005    1    3    3    0    0  0.65905370134E+01 -0.18457452414E+02 -0.17105521027E+02  0.26032894141E+02  0.10000000000E+01 0.  0.
    9000005    1    3    3    0    0 -0.65905370134E+01  0.18457452414E+02  0.17149425594E+03  0.17261341938E+03  0.10000000000E+01 0.  0.
<mgrwt>
<rscale>  0 0.12499791E+03</rscale>
<asrwt>0</asrwt>
<pdfrwt beam="2">  1        4 0.34044290E-02 0.12499791E+03</pdfrwt>
<pdfrwt beam="1">  1       -4 0.27156543E-01 0.12499791E+03</pdfrwt>
<totfact> 0.90368503E+03</totfact>
</mgrwt>
</event>
<event>
 5    1  0.3235144E-002  0.1250018E+03  0.7818608E-02  0.1235066E+00
          4   -1    0    0  501    0  0.00000000000E+00  0.00000000000E+00  0.16631830997E+02  0.16680248868E+02  0.12700000000E+01 0.  1.
         -4   -1    0    0    0  501 -0.00000000000E+00 -0.00000000000E+00 -0.23448118403E+03  0.23448462330E+03  0.12700000000E+01 0.  1.
         25    2    1    2    0    0  0.00000000000E+00  0.00000000000E+00 -0.21784935303E+03  0.25116487216E+03  0.12500180956E+03 0.  0.
    9000005    1    3    3    0    0 -0.70900369442E+01  0.52782378489E+02 -0.17462307902E+03  0.18256633816E+03  0.10000000000E+01 0.  0.
    9000005    1    3    3    0    0  0.70900369442E+01 -0.52782378489E+02 -0.43226274008E+02  0.68598534003E+02  0.10000000000E+01 0.  0.
<mgrwt>
<rscale>  0 0.12500181E+03</rscale>
<asrwt>0</asrwt>
<pdfrwt beam="1">  1        4 0.25627324E-02 0.12500181E+03</pdfrwt>
<pdfrwt beam="2">  1       -4 0.36078015E-01 0.12500181E+03</pdfrwt>
<totfact> 0.82158848E+03</totfact>
</mgrwt>
</event>
<event>
 5    1  0.3235144E-002  0.1250007E+03  0.7818608E-02  0.1235068E+00
          4   -1    0    0  501    0  0.00000000000E+00  0.00000000000E+00  0.43568406072E+03  0.43568591172E+03  0.12700000000E+01 0.  1.
         -4   -1    0    0    0  501 -0.00000000000E+00 -0.00000000000E+00 -0.89190354503E+01  0.90090006862E+01  0.12700000000E+01 0.  1.
         25    2    1    2    0    0  0.00000000000E+00  0.00000000000E+00  0.42676502527E+03  0.44469491240E+03  0.12500071328E+03 0.  0.
    9000005    1    3    3    0    0 -0.45540605603E+02 -0.12949690952E+02  0.68277944176E+02  0.83093434851E+02  0.10000000000E+01 0.  0.
    9000005    1    3    3    0    0  0.45540605603E+02  0.12949690952E+02  0.35848708110E+03  0.36160147755E+03  0.10000000000E+01 0.  0.
<mgrwt>
<rscale>  0 0.12500071E+03</rscale>
<asrwt>0</asrwt>
<pdfrwt beam="1">  1        4 0.67035374E-01 0.12500071E+03</pdfrwt>
<pdfrwt beam="2">  1       -4 0.13792222E-02 0.12500071E+03</pdfrwt>
<totfact> 0.60425197E+03</totfact>
</mgrwt>
</event>
<event>
 5    1  0.3235144E-002  0.1249999E+03  0.7818608E-02  0.1235070E+00
         -4   -1    0    0    0  501 -0.00000000000E+00  0.00000000000E+00  0.51125863817E+02  0.51141635201E+02  0.12700000000E+01 0. -1.
          4   -1    0    0  501    0  0.00000000000E+00 -0.00000000000E+00 -0.76371571022E+02  0.76382129850E+02  0.12700000000E+01 0. -1.
         25    2    1    2    0    0  0.00000000000E+00  0.00000000000E+00 -0.25245707205E+02  0.12752376505E+03  0.12499985968E+03 0.  0.
    9000005    1    3    3    0    0 -0.59649701099E+02 -0.73064791281E+01  0.48629315959E+01  0.60300245291E+02  0.10000000000E+01 0.  0.
    9000005    1    3    3    0    0  0.59649701099E+02  0.73064791281E+01 -0.30108638801E+02  0.67223519760E+02  0.10000000000E+01 0.  0.
<mgrwt>
<rscale>  0 0.12499986E+03</rscale>
<asrwt>0</asrwt>
<pdfrwt beam="2">  1        4 0.11751498E-01 0.12499986E+03</pdfrwt>
<pdfrwt beam="1">  1       -4 0.78675429E-02 0.12499986E+03</pdfrwt>
<totfact> 0.10397819E+04</totfact>
</mgrwt>
</event>
<event>
 5    1  0.3235144E-002  0.1249977E+03  0.7818608E-02  0.1235073E+00
         -4   -1    0    0    0  501 -0.00000000000E+00  0.00000000000E+00  0.29492317394E+02  0.29519649139E+02  0.12700000000E+01 0.  1.
          4   -1    0    0  501    0  0.00000000000E+00 -0.00000000000E+00 -0.13235307647E+03  0.13235916950E+03  0.12700000000E+01 0.  1.
         25    2    1    2    0    0  0.00000000000E+00  0.00000000000E+00 -0.10286075908E+03  0.16187881864E+03  0.12499766464E+03 0.  0.
    9000005    1    3    3    0    0  0.21469032573E+02  0.47916804306E+02 -0.75479975480E+01  0.53055742022E+02  0.10000000000E+01 0.  0.
    9000005    1    3    3    0    0 -0.21469032573E+02 -0.47916804306E+02 -0.95312761529E+02  0.10882307662E+03  0.10000000000E+01 0.  0.
<mgrwt>
<rscale>  0 0.12499766E+03</rscale>
<asrwt>0</asrwt>
<pdfrwt beam="2">  1        4 0.20364583E-01 0.12499766E+03</pdfrwt>
<pdfrwt beam="1">  1       -4 0.45398508E-02 0.12499766E+03</pdfrwt>
<totfact> 0.96986872E+03</totfact>
</mgrwt>
</event>
<event>
 5    1  0.3235144E-002  0.1250082E+03  0.7818608E-02  0.1235057E+00
         -4   -1    0    0    0  501 -0.00000000000E+00  0.00000000000E+00  0.16180170792E+03  0.16180669203E+03  0.12700000000E+01 0.  1.
          4   -1    0    0  501    0  0.00000000000E+00 -0.00000000000E+00 -0.24123299615E+02  0.24156706819E+02  0.12700000000E+01 0.  1.
         25    2    1    2    0    0  0.00000000000E+00  0.00000000000E+00  0.13767840831E+03  0.18596339885E+03  0.12500816613E+03 0.  0.
    9000005    1    3    3    0    0 -0.17979771254E+02  0.53854645018E+02  0.29985364260E+02  0.64216174241E+02  0.10000000000E+01 0.  0.
    9000005    1    3    3    0    0  0.17979771254E+02 -0.53854645018E+02  0.10769304405E+03  0.12174722461E+03  0.10000000000E+01 0.  0.
<mgrwt>
<rscale>  0 0.12500817E+03</rscale>
<asrwt>0</asrwt>
<pdfrwt beam="2">  1        4 0.37142301E-02 0.12500817E+03</pdfrwt>
<pdfrwt beam="1">  1       -4 0.24895523E-01 0.12500817E+03</pdfrwt>
<totfact> 0.92537518E+03</totfact>
</mgrwt>
</event>
<event>
 5    1  0.3235144E-002  0.1250060E+03  0.7818608E-02  0.1235060E+00
         -4   -1    0    0    0  501 -0.00000000000E+00  0.00000000000E+00  0.32382529078E+03  0.32382778115E+03  0.12700000000E+01 0.  1.
          4   -1    0    0  501    0  0.00000000000E+00 -0.00000000000E+00 -0.12028013097E+02  0.12094874909E+02  0.12700000000E+01 0.  1.
         25    2    1    2    0    0  0.00000000000E+00  0.00000000000E+00  0.31179727768E+03  0.33592265606E+03  0.12500595381E+03 0.  0.
    9000005    1    3    3    0    0 -0.80345584074E+01 -0.13377061604E+02 -0.67217571637E+01  0.17020044810E+02  0.10000000000E+01 0.  0.
    9000005    1    3    3    0    0  0.80345584074E+01  0.13377061604E+02  0.31851903484E+03  0.31890261125E+03  0.10000000000E+01 0.  0.
<mgrwt>
<rscale>  0 0.12500595E+03</rscale>
<asrwt>0</asrwt>
<pdfrwt beam="2">  1        4 0.18557985E-02 0.12500595E+03</pdfrwt>
<pdfrwt beam="1">  1       -4 0.49824606E-01 0.12500595E+03</pdfrwt>
<totfact> 0.71292116E+03</totfact>
</mgrwt>
</event>
<event>
 5    1  0.3235144E-002  0.1249989E+03  0.7818608E-02  0.1235071E+00
         -4   -1    0    0    0  501 -0.00000000000E+00  0.00000000000E+00  0.10863142031E+03  0.10863884378E+03  0.12700000000E+01 0. -1.
          4   -1    0    0  501    0  0.00000000000E+00 -0.00000000000E+00 -0.35938235082E+02  0.35960667969E+02  0.12700000000E+01 0. -1.
         25    2    1    2    0    0  0.00000000000E+00  0.00000000000E+00  0.72693185226E+02  0.14459951175E+03  0.12499887848E+03 0.  0.
    9000005    1    3    3    0    0  0.48877576134E+02  0.38879580880E+02  0.38811607675E+02  0.73538970270E+02  0.10000000000E+01 0.  0.
    9000005    1    3    3    0    0 -0.48877576134E+02 -0.38879580880E+02  0.33881577552E+02  0.71060541480E+02  0.10000000000E+01 0.  0.
<mgrwt>
<rscale>  0 0.12499888E+03</rscale>
<asrwt>0</asrwt>
<pdfrwt beam="2">  1        4 0.55312558E-02 0.12499888E+03</pdfrwt>
<pdfrwt beam="1">  1       -4 0.16714823E-01 0.12499888E+03</pdfrwt>
<totfact> 0.10039385E+04</totfact>
</mgrwt>
</event>
<event>
 5    1  0.3235144E-002  0.1250005E+03  0.7818608E-02  0.1235068E+00
          4   -1    0    0  501    0  0.00000000000E+00  0.00000000000E+00  0.82253037654E+02  0.82262841571E+02  0.12700000000E+01 0.  1.
         -4   -1    0    0    0  501 -0.00000000000E+00 -0.00000000000E+00 -0.47469901512E+02  0.47486887133E+02  0.12700000000E+01 0.  1.
         25    2    1    2    0    0  0.00000000000E+00  0.00000000000E+00  0.34783136142E+02  0.12974972870E+03  0.12500050215E+03 0.  0.
    9000005    1    3    3    0    0 -0.12395590027E+02  0.16599915981E+02 -0.43806706470E+02  0.48468911628E+02  0.10000000000E+01 0.  0.
    9000005    1    3    3    0    0  0.12395590027E+02 -0.16599915981E+02  0.78589842612E+02  0.81280817076E+02  0.10000000000E+01 0.  0.
<mgrwt>
<rscale>  0 0.12500050E+03</rscale>
<asrwt>0</asrwt>
<pdfrwt beam="1">  1        4 0.12656374E-01 0.12500050E+03</pdfrwt>
<pdfrwt beam="2">  1       -4 0.73051225E-02 0.12500050E+03</pdfrwt>
<totfact> 0.10349747E+04</totfact>
</mgrwt>
</event>
<event>
 5    1  0.3235144E-002  0.1250046E+03  0.7818608E-02  0.1235062E+00
         -4   -1    0    0    0  501 -0.00000000000E+00  0.00000000000E+00  0.12612225378E+02  0.12676006035E+02  0.12700000000E+01 0. -1.
          4   -1    0    0  501    0  0.00000000000E+00 -0.00000000000E+00 -0.30889582286E+03  0.30889843360E+03  0.12700000000E+01 0. -1.
         25    2    1    2    0    0  0.00000000000E+00  0.00000000000E+00 -0.29628359748E+03  0.32157443963E+03  0.12500460027E+03 0.  0.
    9000005    1    3    3    0    0 -0.24144975639E+02 -0.20188016259E+02 -0.28703306265E+03  0.28875511234E+03  0.10000000000E+01 0.  0.
    9000005    1    3    3    0    0  0.24144975639E+02  0.20188016259E+02 -0.92505348272E+01  0.32819327289E+02  0.10000000000E+01 0.  0.
<mgrwt>
<rscale>  0 0.12500460E+03</rscale>
<asrwt>0</asrwt>
<pdfrwt beam="2">  1        4 0.47527536E-01 0.12500460E+03</pdfrwt>
<pdfrwt beam="1">  1       -4 0.19454496E-02 0.12500460E+03</pdfrwt>
<totfact> 0.72961819E+03</totfact>
</mgrwt>
</event>
<event>
 5    1  0.3235144E-002  0.1249977E+03  0.7818608E-02  0.1235073E+00
          4   -1    0    0  501    0  0.00000000000E+00  0.00000000000E+00  0.83341269411E+01  0.84303364031E+01  0.12700000000E+01 0.  1.
         -4   -1    0    0    0  501 -0.00000000000E+00 -0.00000000000E+00 -0.46590152751E+03  0.46590325845E+03  0.12700000000E+01 0.  1.
         25    2    1    2    0    0  0.00000000000E+00  0.00000000000E+00 -0.45756740056E+03  0.47433359485E+03  0.12499773256E+03 0.  0.
    9000005    1    3    3    0    0  0.26066506321E+02 -0.51698736495E+02 -0.13955601708E+03  0.15109303098E+03  0.10000000000E+01 0.  0.
    9000005    1    3    3    0    0 -0.26066506321E+02  0.51698736495E+02 -0.31801138348E+03  0.32324056387E+03  0.10000000000E+01 0.  0.
<mgrwt>
<rscale>  0 0.12499773E+03</rscale>
<asrwt>0</asrwt>
<pdfrwt beam="1">  1        4 0.12897076E-02 0.12499773E+03</pdfrwt>
<pdfrwt beam="2">  1       -4 0.71684671E-01 0.12499773E+03</pdfrwt>
<totfact> 0.57915145E+03</totfact>
</mgrwt>
</event>
<event>
 5    1  0.3235144E-002  0.1250018E+03  0.7818608E-02  0.1235066E+00
          4   -1    0    0  501    0  0.00000000000E+00  0.00000000000E+00  0.20136047361E+02  0.20176057675E+02  0.12700000000E+01 0. -1.
         -4   -1    0    0    0  501 -0.00000000000E+00 -0.00000000000E+00 -0.19376383656E+03  0.19376799854E+03  0.12700000000E+01 0. -1.
         25    2    1    2    0    0  0.00000000000E+00  0.00000000000E+00 -0.17362778920E+03  0.21394405622E+03  0.12500180002E+03 0.  0.
    9000005    1    3    3    0    0  0.17292363373E+02 -0.37340987810E+02 -0.63177142172E+01  0.41644792166E+02  0.10000000000E+01 0.  0.
    9000005    1    3    3    0    0 -0.17292363373E+02  0.37340987810E+02 -0.16731007498E+03  0.17229926405E+03  0.10000000000E+01 0.  0.
<mgrwt>
<rscale>  0 0.12500180E+03</rscale>
<asrwt>0</asrwt>
<pdfrwt beam="1">  1        4 0.31012514E-02 0.12500180E+03</pdfrwt>
<pdfrwt beam="2">  1       -4 0.29813218E-01 0.12500180E+03</pdfrwt>
<totfact> 0.87832256E+03</totfact>
</mgrwt>
</event>
<event>
 5    1  0.3235144E-002  0.1249967E+03  0.7818608E-02  0.1235074E+00
          4   -1    0    0  501    0  0.00000000000E+00  0.00000000000E+00  0.99159039578E+03  0.99159120907E+03  0.12700000000E+01 0.  1.
         -4   -1    0    0    0  501 -0.00000000000E+00 -0.00000000000E+00 -0.38359711164E+01  0.40407393390E+01  0.12700000000E+01 0.  1.
         25    2    1    2    0    0  0.00000000000E+00  0.00000000000E+00  0.98775442466E+03  0.99563194841E+03  0.12499669295E+03 0.  0.
    9000005    1    3    3    0    0 -0.52326134289E+02  0.21219332608E+02  0.28062828757E+03  0.28625429288E+03  0.10000000000E+01 0.  0.
    9000005    1    3    3    0    0  0.52326134289E+02 -0.21219332608E+02  0.70712613710E+03  0.70937765553E+03  0.10000000000E+01 0.  0.
<mgrwt>
<rscale>  0 0.12499669E+03</rscale>
<asrwt>0</asrwt>
<pdfrwt beam="1">  1        4 0.15256808E+00 0.12499669E+03</pdfrwt>
<pdfrwt beam="2">  1       -4 0.60596377E-03 0.12499669E+03</pdfrwt>
<totfact> 0.30751385E+03</totfact>
</mgrwt>
</event>
<event>
 5    1  0.3235144E-002  0.1249997E+03  0.7818608E-02  0.1235070E+00
         -4   -1    0    0    0  501 -0.00000000000E+00  0.00000000000E+00  0.24647257605E+02  0.24679955580E+02  0.12700000000E+01 0.  1.
          4   -1    0    0  501    0  0.00000000000E+00 -0.00000000000E+00 -0.15834511036E+03  0.15835020327E+03  0.12700000000E+01 0.  1.
         25    2    1    2    0    0  0.00000000000E+00  0.00000000000E+00 -0.13369785275E+03  0.18303015885E+03  0.12499969287E+03 0.  0.
    9000005    1    3    3    0    0 -0.33605639974E+02 -0.21073338903E+02  0.38576701213E+01  0.39866104266E+02  0.10000000000E+01 0.  0.
    9000005    1    3    3    0    0  0.33605639974E+02  0.21073338903E+02 -0.13755552288E+03  0.14316405458E+03  0.10000000000E+01 0.  0.
<mgrwt>
<rscale>  0 0.12499969E+03</rscale>
<asrwt>0</asrwt>
<pdfrwt beam="2">  1        4 0.24363693E-01 0.12499969E+03</pdfrwt>
<pdfrwt beam="1">  1       -4 0.37947929E-02 0.12499969E+03</pdfrwt>
<totfact> 0.93075032E+03</totfact>
</mgrwt>
</event>
<event>
 5    1  0.3235144E-002  0.1249912E+03  0.7818608E-02  0.1235083E+00
          4   -1    0    0  501    0  0.00000000000E+00  0.00000000000E+00  0.28584950608E+01  0.31279216762E+01  0.12700000000E+01 0.  1.
         -4   -1    0    0    0  501 -0.00000000000E+00 -0.00000000000E+00 -0.13045850489E+04  0.13045856671E+04  0.12700000000E+01 0.  1.
         25    2    1    2    0    0  0.00000000000E+00  0.00000000000E+00 -0.13017265538E+04  0.13077135887E+04  0.12499123653E+03 0.  0.
    9000005    1    3    3    0    0  0.36879735225E+02 -0.31554815909E+02 -0.23910522382E+03  0.24398387106E+03  0.10000000000E+01 0.  0.
    9000005    1    3    3    0    0 -0.36879735225E+02  0.31554815909E+02 -0.10626213300E+04  0.10637297177E+04  0.10000000000E+01 0.  0.
<mgrwt>
<rscale>  0 0.12499124E+03</rscale>
<asrwt>0</asrwt>
<pdfrwt beam="1">  1        4 0.46054219E-03 0.12499124E+03</pdfrwt>
<pdfrwt beam="2">  1       -4 0.20072571E+00 0.12499124E+03</pdfrwt>
<totfact> 0.22051477E+03</totfact>
</mgrwt>
</event>
<event>
 5    1  0.3235144E-002  0.1250011E+03  0.7818608E-02  0.1235068E+00
         -4   -1    0    0    0  501 -0.00000000000E+00  0.00000000000E+00  0.37525973024E+03  0.37526187928E+03  0.12700000000E+01 0.  1.
          4   -1    0    0  501    0  0.00000000000E+00 -0.00000000000E+00 -0.10368722218E+02  0.10446209859E+02  0.12700000000E+01 0.  1.
         25    2    1    2    0    0  0.00000000000E+00  0.00000000000E+00  0.36489100803E+03  0.38570808914E+03  0.12500112916E+03 0.  0.
    9000005    1    3    3    0    0 -0.50681633891E+02 -0.18711197058E+02  0.27936513924E+03  0.28454282267E+03  0.10000000000E+01 0.  0.
    9000005    1    3    3    0    0  0.50681633891E+02  0.18711197058E+02  0.85525868788E+02  0.10116526648E+03  0.10000000000E+01 0.  0.
<mgrwt>
<rscale>  0 0.12500113E+03</rscale>
<asrwt>0</asrwt>
<pdfrwt beam="2">  1        4 0.16013137E-02 0.12500113E+03</pdfrwt>
<pdfrwt beam="1">  1       -4 0.57738399E-01 0.12500113E+03</pdfrwt>
<totfact> 0.65965299E+03</totfact>
</mgrwt>
</event>
