<event>
 5    1  0.3398872E-002  0.1249902E+03  0.7818608E-02  0.1235085E+00
         -4   -1    0    0    0  501 -0.00000000000E+00  0.00000000000E+00  0.96388803013E+01  0.97221866606E+01  0.12700000000E+01 0.  1.
          4   -1    0    0  501    0  0.00000000000E+00 -0.00000000000E+00 -0.40336843007E+03  0.40337042935E+03  0.12700000000E+01 0.  1.
         25    2    1    2    0    0  0.00000000000E+00  0.00000000000E+00 -0.39372954976E+03  0.41309261601E+03  0.12499020379E+03 0.  0.
    9000005    1    3    3    0    0 -0.59093827751E+02 -0.18802561456E+02 -0.17147407859E+03  0.18234576064E+03  0.10000000000E+01 0.  0.
    9000005    1    3    3    0    0  0.59093827751E+02  0.18802561456E+02 -0.22225547117E+03  0.23074685537E+03  0.10000000000E+01 0.  0.
<mgrwt>
<rscale>  0 0.12499020E+03</rscale>
<asrwt>0</asrwt>
<pdfrwt beam="2">  1        4 0.62063231E-01 0.12499020E+03</pdfrwt>
<pdfrwt beam="1">  1       -4 0.14894669E-02 0.12499020E+03</pdfrwt>
<totfact> 0.63312719E+03</totfact>
</mgrwt>
</event>
<event>
 5    1  0.3398872E-002  0.1250003E+03  0.7818608E-02  0.1235069E+00
          4   -1    0    0  501    0  0.00000000000E+00  0.00000000000E+00  0.51699307894E+02  0.51714904397E+02  0.12700000000E+01 0.  1.
         -4   -1    0    0    0  501 -0.00000000000E+00 -0.00000000000E+00 -0.75525105152E+02  0.75535782303E+02  0.12700000000E+01 0.  1.
         25    2    1    2    0    0  0.00000000000E+00  0.00000000000E+00 -0.23825797257E+02  0.12725068670E+03  0.12500027460E+03 0.  0.
    9000005    1    3    3    0    0 -0.47781393374E+02  0.37058351380E+02 -0.27972983410E+02  0.66632355209E+02  0.10000000000E+01 0.  0.
    9000005    1    3    3    0    0  0.47781393374E+02 -0.37058351380E+02  0.41471861528E+01  0.60618331491E+02  0.10000000000E+01 0.  0.
<mgrwt>
<rscale>  0 0.12500027E+03</rscale>
<asrwt>0</asrwt>
<pdfrwt beam="1">  1        4 0.79557608E-02 0.12500027E+03</pdfrwt>
<pdfrwt beam="2">  1       -4 0.11621268E-01 0.12500027E+03</pdfrwt>
<totfact> 0.10403639E+04</totfact>
</mgrwt>
</event>
<event>
 5    1  0.3398872E-002  0.1249986E+03  0.7818608E-02  0.1235072E+00
          4   -1    0    0  501    0  0.00000000000E+00  0.00000000000E+00  0.13159517474E+02  0.13220658083E+02  0.12700000000E+01 0.  1.
         -4   -1    0    0    0  501 -0.00000000000E+00 -0.00000000000E+00 -0.29608111434E+03  0.29608383808E+03  0.12700000000E+01 0.  1.
         25    2    1    2    0    0  0.00000000000E+00  0.00000000000E+00 -0.28292159687E+03  0.30930449616E+03  0.12499856547E+03 0.  0.
    9000005    1    3    3    0    0  0.47074874763E+02 -0.40196094155E+02 -0.16265910637E+03  0.17404239341E+03  0.10000000000E+01 0.  0.
    9000005    1    3    3    0    0 -0.47074874763E+02  0.40196094155E+02 -0.12026249050E+03  0.13526210275E+03  0.10000000000E+01 0.  0.
<mgrwt>
<rscale>  0 0.12499857E+03</rscale>
<asrwt>0</asrwt>
<pdfrwt beam="1">  1        4 0.20294540E-02 0.12499857E+03</pdfrwt>
<pdfrwt beam="2">  1       -4 0.45555848E-01 0.12499857E+03</pdfrwt>
<totfact> 0.74448700E+03</totfact>
</mgrwt>
</event>
<event>
 5    1  0.3398872E-002  0.1249983E+03  0.7818608E-02  0.1235072E+00
          4   -1    0    0  501    0  0.00000000000E+00  0.00000000000E+00  0.50048765224E+03  0.50048926357E+03  0.12700000000E+01 0. -1.
         -4   -1    0    0    0  501 -0.00000000000E+00 -0.00000000000E+00 -0.77513798273E+01  0.78547303726E+01  0.12700000000E+01 0. -1.
         25    2    1    2    0    0  0.00000000000E+00  0.00000000000E+00  0.49273627241E+03  0.50834399394E+03  0.12499832808E+03 0.  0.
    9000005    1    3    3    0    0 -0.32501399355E+02  0.56372339770E+01  0.46221658454E+03  0.46339323516E+03  0.10000000000E+01 0.  0.
    9000005    1    3    3    0    0  0.32501399355E+02 -0.56372339770E+01  0.30519687869E+02  0.44950758776E+02  0.10000000000E+01 0.  0.
<mgrwt>
<rscale>  0 0.12499833E+03</rscale>
<asrwt>0</asrwt>
<pdfrwt beam="1">  1        4 0.77006139E-01 0.12499833E+03</pdfrwt>
<pdfrwt beam="2">  1       -4 0.12005945E-02 0.12499833E+03</pdfrwt>
<totfact> 0.55224783E+03</totfact>
</mgrwt>
</event>
<event>
 5    1  0.3398872E-002  0.1250010E+03  0.7818608E-02  0.1235068E+00
          4   -1    0    0  501    0  0.00000000000E+00  0.00000000000E+00  0.11917802854E+03  0.11918479511E+03  0.12700000000E+01 0. -1.
         -4   -1    0    0    0  501 -0.00000000000E+00 -0.00000000000E+00 -0.32757118247E+02  0.32781728079E+02  0.12700000000E+01 0. -1.
         25    2    1    2    0    0  0.00000000000E+00  0.00000000000E+00  0.86420910292E+02  0.15196652319E+03  0.12500100174E+03 0.  0.
    9000005    1    3    3    0    0  0.55905416924E+01 -0.55742301057E+02  0.95445054753E+01  0.56837979101E+02  0.10000000000E+01 0.  0.
    9000005    1    3    3    0    0 -0.55905416924E+01  0.55742301057E+02  0.76876404817E+02  0.95128544092E+02  0.10000000000E+01 0.  0.
<mgrwt>
<rscale>  0 0.12500100E+03</rscale>
<asrwt>0</asrwt>
<pdfrwt beam="1">  1        4 0.18337495E-01 0.12500100E+03</pdfrwt>
<pdfrwt beam="2">  1       -4 0.50419702E-02 0.12500100E+03</pdfrwt>
<totfact> 0.98910906E+03</totfact>
</mgrwt>
</event>
<event>
 5    1  0.3398872E-002  0.1250125E+03  0.7818608E-02  0.1235050E+00
          4   -1    0    0  501    0  0.00000000000E+00  0.00000000000E+00  0.20890494141E+02  0.20929062221E+02  0.12700000000E+01 0. -1.
         -4   -1    0    0    0  501 -0.00000000000E+00 -0.00000000000E+00 -0.18681129239E+03  0.18681560926E+03  0.12700000000E+01 0. -1.
         25    2    1    2    0    0  0.00000000000E+00  0.00000000000E+00 -0.16592079825E+03  0.20774467148E+03  0.12501254832E+03 0.  0.
    9000005    1    3    3    0    0 -0.15306765687E+02 -0.87132985226E+01  0.16689071282E+02  0.24284640150E+02  0.10000000000E+01 0.  0.
    9000005    1    3    3    0    0  0.15306765687E+02  0.87132985226E+01 -0.18260986953E+03  0.18346003133E+03  0.10000000000E+01 0.  0.
<mgrwt>
<rscale>  0 0.12501255E+03</rscale>
<asrwt>0</asrwt>
<pdfrwt beam="1">  1        4 0.32172211E-02 0.12501255E+03</pdfrwt>
<pdfrwt beam="2">  1       -4 0.28743497E-01 0.12501255E+03</pdfrwt>
<totfact> 0.88820610E+03</totfact>
</mgrwt>
</event>
<event>
 5    1  0.3398872E-002  0.1250002E+03  0.7818608E-02  0.1235069E+00
         -4   -1    0    0    0  501 -0.00000000000E+00  0.00000000000E+00  0.11984929073E+03  0.11985601941E+03  0.12700000000E+01 0. -1.
          4   -1    0    0  501    0  0.00000000000E+00 -0.00000000000E+00 -0.32573099745E+02  0.32597848502E+02  0.12700000000E+01 0. -1.
         25    2    1    2    0    0  0.00000000000E+00  0.00000000000E+00  0.87276190985E+02  0.15245386791E+03  0.12500019331E+03 0.  0.
    9000005    1    3    3    0    0  0.19061915706E+02 -0.40990155746E+02 -0.89859316093E+01  0.46100937792E+02  0.10000000000E+01 0.  0.
    9000005    1    3    3    0    0 -0.19061915706E+02  0.40990155746E+02  0.96262122594E+02  0.10635293012E+03  0.10000000000E+01 0.  0.
<mgrwt>
<rscale>  0 0.12500019E+03</rscale>
<asrwt>0</asrwt>
<pdfrwt beam="2">  1        4 0.50136673E-02 0.12500019E+03</pdfrwt>
<pdfrwt beam="1">  1       -4 0.18440774E-01 0.12500019E+03</pdfrwt>
<totfact> 0.98816356E+03</totfact>
</mgrwt>
</event>
<event>
 5    1  0.3398872E-002  0.1249981E+03  0.7818608E-02  0.1235072E+00
          4   -1    0    0  501    0  0.00000000000E+00  0.00000000000E+00  0.37648335234E+02  0.37669749745E+02  0.12700000000E+01 0.  1.
         -4   -1    0    0    0  501 -0.00000000000E+00 -0.00000000000E+00 -0.10369836255E+03  0.10370613914E+03  0.12700000000E+01 0.  1.
         25    2    1    2    0    0  0.00000000000E+00  0.00000000000E+00 -0.66050027317E+02  0.14137588889E+03  0.12499814339E+03 0.  0.
    9000005    1    3    3    0    0 -0.73848131985E+01  0.29072228917E+02  0.28979487282E+02  0.41719787192E+02  0.10000000000E+01 0.  0.
    9000005    1    3    3    0    0  0.73848131985E+01 -0.29072228917E+02 -0.95029514599E+02  0.99656101695E+02  0.10000000000E+01 0.  0.
<mgrwt>
<rscale>  0 0.12499814E+03</rscale>
<asrwt>0</asrwt>
<pdfrwt beam="1">  1        4 0.57942971E-02 0.12499814E+03</pdfrwt>
<pdfrwt beam="2">  1       -4 0.15955840E-01 0.12499814E+03</pdfrwt>
<totfact> 0.10105572E+04</totfact>
</mgrwt>
</event>
<event>
 5    1  0.3398872E-002  0.1249956E+03  0.7818608E-02  0.1235076E+00
         -4   -1    0    0    0  501 -0.00000000000E+00  0.00000000000E+00  0.28134554535E+02  0.28163203989E+02  0.12700000000E+01 0.  1.
          4   -1    0    0  501    0  0.00000000000E+00 -0.00000000000E+00 -0.13872977636E+03  0.13873558934E+03  0.12700000000E+01 0.  1.
         25    2    1    2    0    0  0.00000000000E+00  0.00000000000E+00 -0.11059522183E+03  0.16689879333E+03  0.12499561642E+03 0.  0.
    9000005    1    3    3    0    0  0.66699987921E+01 -0.13662939835E+02  0.25633747942E+02  0.29820359528E+02  0.10000000000E+01 0.  0.
    9000005    1    3    3    0    0 -0.66699987921E+01  0.13662939835E+02 -0.13622896977E+03  0.13707843380E+03  0.10000000000E+01 0.  0.
<mgrwt>
<rscale>  0 0.12499562E+03</rscale>
<asrwt>0</asrwt>
<pdfrwt beam="2">  1        4 0.21345693E-01 0.12499562E+03</pdfrwt>
<pdfrwt beam="1">  1       -4 0.43310440E-02 0.12499562E+03</pdfrwt>
<totfact> 0.96038450E+03</totfact>
</mgrwt>
</event>
<event>
 5    1  0.3398872E-002  0.1249998E+03  0.7818608E-02  0.1235070E+00
         -4   -1    0    0    0  501 -0.00000000000E+00  0.00000000000E+00  0.37363828805E+02  0.37385406283E+02  0.12700000000E+01 0.  1.
          4   -1    0    0  501    0  0.00000000000E+00 -0.00000000000E+00 -0.10449028385E+03  0.10449800150E+03  0.12700000000E+01 0.  1.
         25    2    1    2    0    0  0.00000000000E+00  0.00000000000E+00 -0.67126455042E+02  0.14188340779E+03  0.12499976175E+03 0.  0.
    9000005    1    3    3    0    0  0.58188746920E+02 -0.22131199033E+02 -0.27396668822E+02  0.68024243482E+02  0.10000000000E+01 0.  0.
    9000005    1    3    3    0    0 -0.58188746920E+02  0.22131199033E+02 -0.39729786220E+02  0.73859164305E+02  0.10000000000E+01 0.  0.
<mgrwt>
<rscale>  0 0.12499976E+03</rscale>
<asrwt>0</asrwt>
<pdfrwt beam="2">  1        4 0.16077682E-01 0.12499976E+03</pdfrwt>
<pdfrwt beam="1">  1       -4 0.57505349E-02 0.12499976E+03</pdfrwt>
<totfact> 0.10094754E+04</totfact>
</mgrwt>
</event>
<event>
 5    1  0.3398872E-002  0.1249996E+03  0.7818608E-02  0.1235070E+00
         -4   -1    0    0    0  501 -0.00000000000E+00  0.00000000000E+00  0.54425480063E+01  0.55887591468E+01  0.12700000000E+01 0.  1.
          4   -1    0    0  501    0  0.00000000000E+00 -0.00000000000E+00 -0.70806008092E+03  0.70806121988E+03  0.12700000000E+01 0.  1.
         25    2    1    2    0    0  0.00000000000E+00  0.00000000000E+00 -0.70261753292E+03  0.71364997903E+03  0.12499958001E+03 0.  0.
    9000005    1    3    3    0    0  0.56015891723E+02  0.13660233266E+02 -0.21371283911E+03  0.22135618288E+03  0.10000000000E+01 0.  0.
    9000005    1    3    3    0    0 -0.56015891723E+02 -0.13660233266E+02 -0.48890469381E+03  0.49229379615E+03  0.10000000000E+01 0.  0.
<mgrwt>
<rscale>  0 0.12499958E+03</rscale>
<asrwt>0</asrwt>
<pdfrwt beam="2">  1        4 0.10894358E+00 0.12499958E+03</pdfrwt>
<pdfrwt beam="1">  1       -4 0.84865026E-03 0.12499958E+03</pdfrwt>
<totfact> 0.42376275E+03</totfact>
</mgrwt>
</event>
<event>
 5    1  0.3398872E-002  0.1250020E+03  0.7818608E-02  0.1235066E+00
          4   -1    0    0  501    0  0.00000000000E+00  0.00000000000E+00  0.31304110608E+03  0.31304368225E+03  0.12700000000E+01 0.  1.
         -4   -1    0    0    0  501 -0.00000000000E+00 -0.00000000000E+00 -0.12443842549E+02  0.12508481817E+02  0.12700000000E+01 0.  1.
         25    2    1    2    0    0  0.00000000000E+00  0.00000000000E+00  0.30059726353E+03  0.32555216407E+03  0.12500198673E+03 0.  0.
    9000005    1    3    3    0    0  0.42793369465E+02  0.44911033753E+02  0.16997860809E+03  0.18094750794E+03  0.10000000000E+01 0.  0.
    9000005    1    3    3    0    0 -0.42793369465E+02 -0.44911033753E+02  0.13061865545E+03  0.14460465613E+03  0.10000000000E+01 0.  0.
<mgrwt>
<rscale>  0 0.12500199E+03</rscale>
<asrwt>0</asrwt>
<pdfrwt beam="1">  1        4 0.48165334E-01 0.12500199E+03</pdfrwt>
<pdfrwt beam="2">  1       -4 0.19196080E-02 0.12500199E+03</pdfrwt>
<totfact> 0.72497411E+03</totfact>
</mgrwt>
</event>
<event>
 5    1  0.3398872E-002  0.1249969E+03  0.7818608E-02  0.1235074E+00
         -4   -1    0    0    0  501 -0.00000000000E+00  0.00000000000E+00  0.20404916328E+03  0.20405311547E+03  0.12700000000E+01 0.  1.
          4   -1    0    0  501    0  0.00000000000E+00 -0.00000000000E+00 -0.19117507197E+02  0.19159644606E+02  0.12700000000E+01 0.  1.
         25    2    1    2    0    0  0.00000000000E+00  0.00000000000E+00  0.18493165608E+03  0.22321276008E+03  0.12499687533E+03 0.  0.
    9000005    1    3    3    0    0  0.21071280959E+02  0.56386944494E+02  0.62501002354E+02  0.86780537484E+02  0.10000000000E+01 0.  0.
    9000005    1    3    3    0    0 -0.21071280959E+02 -0.56386944494E+02  0.12243065373E+03  0.13643222260E+03  0.10000000000E+01 0.  0.
<mgrwt>
<rscale>  0 0.12499688E+03</rscale>
<asrwt>0</asrwt>
<pdfrwt beam="2">  1        4 0.29447003E-02 0.12499688E+03</pdfrwt>
<pdfrwt beam="1">  1       -4 0.31395725E-01 0.12499688E+03</pdfrwt>
<totfact> 0.86368537E+03</totfact>
</mgrwt>
</event>
<event>
 5    1  0.3398872E-002  0.1250011E+03  0.7818608E-02  0.1235068E+00
          4   -1    0    0  501    0  0.00000000000E+00  0.00000000000E+00  0.29715913012E+01  0.32316025222E+01  0.12700000000E+01 0. -1.
         -4   -1    0    0    0  501 -0.00000000000E+00 -0.00000000000E+00 -0.12591935378E+04  0.12591941782E+04  0.12700000000E+01 0. -1.
         25    2    1    2    0    0  0.00000000000E+00  0.00000000000E+00 -0.12562219465E+04  0.12624257807E+04  0.12500109236E+03 0.  0.
    9000005    1    3    3    0    0  0.88509692593E+01  0.20039820528E+02 -0.37030391111E+02  0.43037006511E+02  0.10000000000E+01 0.  0.
    9000005    1    3    3    0    0 -0.88509692593E+01 -0.20039820528E+02 -0.12191915554E+04  0.12193887742E+04  0.10000000000E+01 0.  0.
<mgrwt>
<rscale>  0 0.12500109E+03</rscale>
<asrwt>0</asrwt>
<pdfrwt beam="1">  1        4 0.47721903E-03 0.12500109E+03</pdfrwt>
<pdfrwt beam="2">  1       -4 0.19374172E+00 0.12500109E+03</pdfrwt>
<totfact> 0.23132581E+03</totfact>
</mgrwt>
</event>
<event>
 5    1  0.3398872E-002  0.1249997E+03  0.7818608E-02  0.1235070E+00
          4   -1    0    0  501    0  0.00000000000E+00  0.00000000000E+00  0.27460897135E+02  0.27490248661E+02  0.12700000000E+01 0.  1.
         -4   -1    0    0    0  501 -0.00000000000E+00 -0.00000000000E+00 -0.14213891114E+03  0.14214458470E+03  0.12700000000E+01 0.  1.
         25    2    1    2    0    0  0.00000000000E+00  0.00000000000E+00 -0.11467801400E+03  0.16963483336E+03  0.12499971917E+03 0.  0.
    9000005    1    3    3    0    0 -0.42928927575E+01  0.83504589901E+01 -0.14118286470E+03  0.14149826988E+03  0.10000000000E+01 0.  0.
    9000005    1    3    3    0    0  0.42928927575E+01 -0.83504589901E+01  0.26504850702E+02  0.28136563477E+02  0.10000000000E+01 0.  0.
<mgrwt>
<rscale>  0 0.12499972E+03</rscale>
<asrwt>0</asrwt>
<pdfrwt beam="1">  1        4 0.42274477E-02 0.12499972E+03</pdfrwt>
<pdfrwt beam="2">  1       -4 0.21870219E-01 0.12499972E+03</pdfrwt>
<totfact> 0.95517345E+03</totfact>
</mgrwt>
</event>
<event>
 5    1  0.3398872E-002  0.1250021E+03  0.7818608E-02  0.1235066E+00
         -4   -1    0    0    0  501 -0.00000000000E+00  0.00000000000E+00  0.58072185963E+02  0.58086071330E+02  0.12700000000E+01 0.  1.
          4   -1    0    0  501    0  0.00000000000E+00 -0.00000000000E+00 -0.67239751454E+02  0.67251744034E+02  0.12700000000E+01 0.  1.
         25    2    1    2    0    0  0.00000000000E+00  0.00000000000E+00 -0.91675654907E+01  0.12533781536E+03  0.12500209479E+03 0.  0.
    9000005    1    3    3    0    0 -0.24355145953E+02  0.54944991024E+02 -0.21754486676E+02  0.63924821967E+02  0.10000000000E+01 0.  0.
    9000005    1    3    3    0    0  0.24355145953E+02 -0.54944991024E+02  0.12586921186E+02  0.61412993397E+02  0.10000000000E+01 0.  0.
<mgrwt>
<rscale>  0 0.12500209E+03</rscale>
<asrwt>0</asrwt>
<pdfrwt beam="2">  1        4 0.10346568E-01 0.12500209E+03</pdfrwt>
<pdfrwt beam="1">  1       -4 0.89361731E-02 0.12500209E+03</pdfrwt>
<totfact> 0.10445035E+04</totfact>
</mgrwt>
</event>
<event>
 5    1  0.3398872E-002  0.1250139E+03  0.7818608E-02  0.1235048E+00
          4   -1    0    0  501    0  0.00000000000E+00  0.00000000000E+00  0.17561706105E+02  0.17607567161E+02  0.12700000000E+01 0. -1.
         -4   -1    0    0    0  501 -0.00000000000E+00 -0.00000000000E+00 -0.22214171525E+03  0.22214534556E+03  0.12700000000E+01 0. -1.
         25    2    1    2    0    0  0.00000000000E+00  0.00000000000E+00 -0.20458000914E+03  0.23975291272E+03  0.12501391529E+03 0.  0.
    9000005    1    3    3    0    0  0.34029332000E+02 -0.32745019805E+02 -0.23779452702E+02  0.52883779453E+02  0.10000000000E+01 0.  0.
    9000005    1    3    3    0    0 -0.34029332000E+02  0.32745019805E+02 -0.18080055644E+03  0.18686913327E+03  0.10000000000E+01 0.  0.
<mgrwt>
<rscale>  0 0.12501392E+03</rscale>
<asrwt>0</asrwt>
<pdfrwt beam="1">  1        4 0.27056081E-02 0.12501392E+03</pdfrwt>
<pdfrwt beam="2">  1       -4 0.34179453E-01 0.12501392E+03</pdfrwt>
<totfact> 0.83808179E+03</totfact>
</mgrwt>
</event>
<event>
 5    1  0.3398872E-002  0.1250027E+03  0.7818608E-02  0.1235065E+00
          4   -1    0    0  501    0  0.00000000000E+00  0.00000000000E+00  0.55578811679E+03  0.55578956779E+03  0.12700000000E+01 0.  1.
         -4   -1    0    0    0  501 -0.00000000000E+00 -0.00000000000E+00 -0.69697758631E+01  0.70845377818E+01  0.12700000000E+01 0.  1.
         25    2    1    2    0    0  0.00000000000E+00  0.00000000000E+00  0.54881834093E+03  0.56287410558E+03  0.12500274952E+03 0.  0.
    9000005    1    3    3    0    0 -0.19088397923E+02 -0.55601827205E+02  0.36987601181E+03  0.37451995172E+03  0.10000000000E+01 0.  0.
    9000005    1    3    3    0    0  0.19088397923E+02  0.55601827205E+02  0.17894232912E+03  0.18835415385E+03  0.10000000000E+01 0.  0.
<mgrwt>
<rscale>  0 0.12500275E+03</rscale>
<asrwt>0</asrwt>
<pdfrwt beam="1">  1        4 0.85514800E-01 0.12500275E+03</pdfrwt>
<pdfrwt beam="2">  1       -4 0.10812127E-02 0.12500275E+03</pdfrwt>
<totfact> 0.51295126E+03</totfact>
</mgrwt>
</event>
<event>
 5    1  0.3398872E-002  0.1250056E+03  0.7818608E-02  0.1235061E+00
          4   -1    0    0  501    0  0.00000000000E+00  0.00000000000E+00  0.34348287672E+02  0.34371758262E+02  0.12700000000E+01 0. -1.
         -4   -1    0    0    0  501 -0.00000000000E+00 -0.00000000000E+00 -0.11366908283E+03  0.11367617733E+03  0.12700000000E+01 0. -1.
         25    2    1    2    0    0  0.00000000000E+00  0.00000000000E+00 -0.79320795162E+02  0.14804793559E+03  0.12500561063E+03 0.  0.
    9000005    1    3    3    0    0  0.28099860945E+02 -0.30563017790E+02 -0.94981434780E+02  0.10366375063E+03  0.10000000000E+01 0.  0.
    9000005    1    3    3    0    0 -0.28099860945E+02  0.30563017790E+02  0.15660639618E+02  0.44384184963E+02  0.10000000000E+01 0.  0.
<mgrwt>
<rscale>  0 0.12500561E+03</rscale>
<asrwt>0</asrwt>
<pdfrwt beam="1">  1        4 0.52867032E-02 0.12500561E+03</pdfrwt>
<pdfrwt beam="2">  1       -4 0.17489902E-01 0.12500561E+03</pdfrwt>
<totfact> 0.99681655E+03</totfact>
</mgrwt>
</event>
<event>
 5    1  0.3398872E-002  0.1250110E+03  0.7818608E-02  0.1235052E+00
          4   -1    0    0  501    0  0.00000000000E+00  0.00000000000E+00  0.11737934397E+02  0.11806439087E+02  0.12700000000E+01 0. -1.
         -4   -1    0    0    0  501 -0.00000000000E+00 -0.00000000000E+00 -0.33180901841E+03  0.33181144886E+03  0.12700000000E+01 0. -1.
         25    2    1    2    0    0  0.00000000000E+00  0.00000000000E+00 -0.32007108401E+03  0.34361788795E+03  0.12501101591E+03 0.  0.
    9000005    1    3    3    0    0 -0.24917143331E+02  0.52675419981E+02 -0.97938342346E+02  0.11396702507E+03  0.10000000000E+01 0.  0.
    9000005    1    3    3    0    0  0.24917143331E+02 -0.52675419981E+02 -0.22213274166E+03  0.22965086288E+03  0.10000000000E+01 0.  0.
<mgrwt>
<rscale>  0 0.12501102E+03</rscale>
<asrwt>0</asrwt>
<pdfrwt beam="1">  1        4 0.18112929E-02 0.12501102E+03</pdfrwt>
<pdfrwt beam="2">  1       -4 0.51052991E-01 0.12501102E+03</pdfrwt>
<totfact> 0.70415250E+03</totfact>
</mgrwt>
</event>
<event>
 5    1  0.3398872E-002  0.1249978E+03  0.7818608E-02  0.1235073E+00
          4   -1    0    0  501    0  0.00000000000E+00  0.00000000000E+00  0.10069401347E+01  0.16207493436E+01  0.12700000000E+01 0. -1.
         -4   -1    0    0    0  501 -0.00000000000E+00 -0.00000000000E+00 -0.29724273493E+04  0.29724276206E+04  0.12700000000E+01 0. -1.
         25    2    1    2    0    0  0.00000000000E+00  0.00000000000E+00 -0.29714204091E+04  0.29740483699E+04  0.12499783527E+03 0.  0.
    9000005    1    3    3    0    0  0.58639431836E+00 -0.30605332367E+02 -0.18947544100E+03  0.19193481438E+03  0.10000000000E+01 0.  0.
    9000005    1    3    3    0    0 -0.58639431836E+00  0.30605332367E+02 -0.27819449681E+04  0.27821135555E+04  0.10000000000E+01 0.  0.
<mgrwt>
<rscale>  0 0.12499784E+03</rscale>
<asrwt>0</asrwt>
<pdfrwt beam="1">  1        4 0.20215321E-03 0.12499784E+03</pdfrwt>
<pdfrwt beam="2">  1       -4 0.45733837E+00 0.12499784E+03</pdfrwt>
<totfact> 0.19189321E+02</totfact>
</mgrwt>
</event>
<event>
 5    1  0.3398872E-002  0.1250016E+03  0.7818608E-02  0.1235067E+00
         -4   -1    0    0    0  501 -0.00000000000E+00  0.00000000000E+00  0.38571972849E+02  0.38592874854E+02  0.12700000000E+01 0. -1.
          4   -1    0    0  501    0  0.00000000000E+00 -0.00000000000E+00 -0.10122195369E+03  0.10122992052E+03  0.12700000000E+01 0. -1.
         25    2    1    2    0    0  0.00000000000E+00  0.00000000000E+00 -0.62649980842E+02  0.13982279538E+03  0.12500157602E+03 0.  0.
    9000005    1    3    3    0    0  0.32236107090E+02 -0.48469231854E+02 -0.56756506705E+02  0.81306420966E+02  0.10000000000E+01 0.  0.
    9000005    1    3    3    0    0 -0.32236107090E+02  0.48469231854E+02 -0.58934741366E+01  0.58516374411E+02  0.10000000000E+01 0.  0.
<mgrwt>
<rscale>  0 0.12500158E+03</rscale>
<asrwt>0</asrwt>
<pdfrwt beam="2">  1        4 0.15574829E-01 0.12500158E+03</pdfrwt>
<pdfrwt beam="1">  1       -4 0.59363704E-02 0.12500158E+03</pdfrwt>
<totfact> 0.10136900E+04</totfact>
</mgrwt>
</event>
<event>
 5    1  0.3398872E-002  0.1249920E+03  0.7818608E-02  0.1235082E+00
         -4   -1    0    0    0  501 -0.00000000000E+00  0.00000000000E+00  0.18689300956E+03  0.18689732454E+03  0.12700000000E+01 0.  1.
          4   -1    0    0  501    0  0.00000000000E+00 -0.00000000000E+00 -0.20874479117E+02  0.20913076733E+02  0.12700000000E+01 0.  1.
         25    2    1    2    0    0  0.00000000000E+00  0.00000000000E+00  0.16601853044E+03  0.20781040128E+03  0.12499204146E+03 0.  0.
    9000005    1    3    3    0    0 -0.98432928531E+01  0.27553432646E+01  0.18550178304E+03  0.18578588170E+03  0.10000000000E+01 0.  0.
    9000005    1    3    3    0    0  0.98432928531E+01 -0.27553432646E+01 -0.19483252596E+02  0.22024519573E+02  0.10000000000E+01 0.  0.
<mgrwt>
<rscale>  0 0.12499204E+03</rscale>
<asrwt>0</asrwt>
<pdfrwt beam="2">  1        4 0.32147593E-02 0.12499204E+03</pdfrwt>
<pdfrwt beam="1">  1       -4 0.28756072E-01 0.12499204E+03</pdfrwt>
<totfact> 0.88850534E+03</totfact>
</mgrwt>
</event>
<event>
 5    1  0.3398872E-002  0.1249983E+03  0.7818608E-02  0.1235072E+00
          4   -1    0    0  501    0  0.00000000000E+00  0.00000000000E+00  0.24632830697E+02  0.24665547798E+02  0.12700000000E+01 0.  1.
         -4   -1    0    0    0  501 -0.00000000000E+00 -0.00000000000E+00 -0.15843420106E+03  0.15843929110E+03  0.12700000000E+01 0.  1.
         25    2    1    2    0    0  0.00000000000E+00  0.00000000000E+00 -0.13380137036E+03  0.18310483890E+03  0.12499830126E+03 0.  0.
    9000005    1    3    3    0    0 -0.21763137349E+02 -0.51968139150E+02 -0.10650126775E+03  0.12049000650E+03  0.10000000000E+01 0.  0.
    9000005    1    3    3    0    0  0.21763137349E+02  0.51968139150E+02 -0.27300102612E+02  0.62614832401E+02  0.10000000000E+01 0.  0.
<mgrwt>
<rscale>  0 0.12499830E+03</rscale>
<asrwt>0</asrwt>
<pdfrwt beam="1">  1        4 0.37925746E-02 0.12499830E+03</pdfrwt>
<pdfrwt beam="2">  1       -4 0.24377400E-01 0.12499830E+03</pdfrwt>
<totfact> 0.93064633E+03</totfact>
</mgrwt>
</event>
<event>
 4    1  0.3398872E-002  0.1251223E+03  0.7818608E-02  0.1234878E+00
         -4   -1    0    0    0  501 -0.00000000000E+00  0.00000000000E+00  0.49642798953E+02  0.49659041351E+02  0.12700000000E+01 0. -1.
          4   -1    0    0  501    0  0.00000000000E+00 -0.00000000000E+00 -0.78806943295E+02  0.78817175866E+02  0.12700000000E+01 0. -1.
    9000005    1    1    2    0    0 -0.50946833167E+02 -0.35854326965E+02 -0.87931133529E+01  0.62924013018E+02  0.10000000000E+01 0.  0.
    9000005    1    1    2    0    0  0.50946833167E+02  0.35854326965E+02 -0.20371030990E+02  0.65552204199E+02  0.10000000000E+01 0.  0.
<mgrwt>
<rscale>  0 0.12512230E+03</rscale>
<asrwt>0</asrwt>
<pdfrwt beam="2">  1        4 0.12126182E-01 0.12512230E+03</pdfrwt>
<pdfrwt beam="1">  1       -4 0.76393903E-02 0.12512230E+03</pdfrwt>
<totfact> 0.10348617E+04</totfact>
</mgrwt>
</event>
<event>
 5    1  0.3398872E-002  0.1249949E+03  0.7818608E-02  0.1235077E+00
          4   -1    0    0  501    0  0.00000000000E+00  0.00000000000E+00  0.76276755938E+02  0.76287327889E+02  0.12700000000E+01 0. -1.
         -4   -1    0    0    0  501 -0.00000000000E+00 -0.00000000000E+00 -0.51185325449E+02  0.51201078517E+02  0.12700000000E+01 0. -1.
         25    2    1    2    0    0  0.00000000000E+00  0.00000000000E+00  0.25091430490E+02  0.12748840641E+03  0.12499485543E+03 0.  0.
    9000005    1    3    3    0    0  0.32313491881E+02  0.25567426404E+02  0.60462420044E+02  0.73174854206E+02  0.10000000000E+01 0.  0.
    9000005    1    3    3    0    0 -0.32313491881E+02 -0.25567426404E+02 -0.35370989555E+02  0.54313552200E+02  0.10000000000E+01 0.  0.
<mgrwt>
<rscale>  0 0.12499486E+03</rscale>
<asrwt>0</asrwt>
<pdfrwt beam="1">  1        4 0.11736911E-01 0.12499486E+03</pdfrwt>
<pdfrwt beam="2">  1       -4 0.78766905E-02 0.12499486E+03</pdfrwt>
<totfact> 0.10399759E+04</totfact>
</mgrwt>
</event>
<event>
 5    1  0.3398872E-002  0.1250147E+03  0.7818608E-02  0.1235046E+00
          4   -1    0    0  501    0  0.00000000000E+00  0.00000000000E+00  0.29232009541E+02  0.29259584444E+02  0.12700000000E+01 0.  1.
         -4   -1    0    0    0  501 -0.00000000000E+00 -0.00000000000E+00 -0.13356696992E+03  0.13357300758E+03  0.12700000000E+01 0.  1.
         25    2    1    2    0    0  0.00000000000E+00  0.00000000000E+00 -0.10433496038E+03  0.16283259202E+03  0.12501467541E+03 0.  0.
    9000005    1    3    3    0    0  0.36900872753E+02  0.44975692369E+02 -0.81917167991E+02  0.10047840427E+03  0.10000000000E+01 0.  0.
    9000005    1    3    3    0    0 -0.36900872753E+02 -0.44975692369E+02 -0.22417792386E+02  0.62354187746E+02  0.10000000000E+01 0.  0.
<mgrwt>
<rscale>  0 0.12501468E+03</rscale>
<asrwt>0</asrwt>
<pdfrwt beam="1">  1        4 0.44998179E-02 0.12501468E+03</pdfrwt>
<pdfrwt beam="2">  1       -4 0.20551350E-01 0.12501468E+03</pdfrwt>
<totfact> 0.96767533E+03</totfact>
</mgrwt>
</event>
<event>
 5    1  0.3398872E-002  0.1249982E+03  0.7818608E-02  0.1235072E+00
          4   -1    0    0  501    0  0.00000000000E+00  0.00000000000E+00  0.15710971099E+04  0.15710976232E+04  0.12700000000E+01 0. -1.
         -4   -1    0    0    0  501 -0.00000000000E+00 -0.00000000000E+00 -0.23235180230E+01  0.26479493959E+01  0.12700000000E+01 0. -1.
         25    2    1    2    0    0  0.00000000000E+00  0.00000000000E+00  0.15687735919E+04  0.15737455726E+04  0.12499817881E+03 0.  0.
    9000005    1    3    3    0    0 -0.18545787580E+02 -0.24620261635E+02  0.14687899120E+04  0.14691136474E+04  0.10000000000E+01 0.  0.
    9000005    1    3    3    0    0  0.18545787580E+02  0.24620261635E+02  0.99983679918E+02  0.10463192519E+03  0.10000000000E+01 0.  0.
<mgrwt>
<rscale>  0 0.12499818E+03</rscale>
<asrwt>0</asrwt>
<pdfrwt beam="1">  1        4 0.24173181E+00 0.12499818E+03</pdfrwt>
<pdfrwt beam="2">  1       -4 0.38246075E-03 0.12499818E+03</pdfrwt>
<totfact> 0.16526190E+03</totfact>
</mgrwt>
</event>
<event>
 5    1  0.3398872E-002  0.1249991E+03  0.7818608E-02  0.1235071E+00
          4   -1    0    0  501    0  0.00000000000E+00  0.00000000000E+00  0.10869163214E+02  0.10943107829E+02  0.12700000000E+01 0. -1.
         -4   -1    0    0    0  501 -0.00000000000E+00 -0.00000000000E+00 -0.35808971312E+03  0.35809196520E+03  0.12700000000E+01 0. -1.
         25    2    1    2    0    0  0.00000000000E+00  0.00000000000E+00 -0.34722054991E+03  0.36903507303E+03  0.12499909940E+03 0.  0.
    9000005    1    3    3    0    0 -0.37844197737E+02  0.12641297416E+02 -0.31616893022E+02  0.50917714277E+02  0.10000000000E+01 0.  0.
    9000005    1    3    3    0    0  0.37844197737E+02 -0.12641297416E+02 -0.31560365688E+03  0.31811735876E+03  0.10000000000E+01 0.  0.
<mgrwt>
<rscale>  0 0.12499910E+03</rscale>
<asrwt>0</asrwt>
<pdfrwt beam="1">  1        4 0.16780405E-02 0.12499910E+03</pdfrwt>
<pdfrwt beam="2">  1       -4 0.55096577E-01 0.12499910E+03</pdfrwt>
<totfact> 0.67681359E+03</totfact>
</mgrwt>
</event>
<event>
 5    1  0.3398872E-002  0.1249965E+03  0.7818608E-02  0.1235075E+00
          4   -1    0    0  501    0  0.00000000000E+00  0.00000000000E+00  0.54053774054E+03  0.54053923248E+03  0.12700000000E+01 0. -1.
         -4   -1    0    0    0  501 -0.00000000000E+00 -0.00000000000E+00 -0.71688848027E+01  0.72805088637E+01  0.12700000000E+01 0. -1.
         25    2    1    2    0    0  0.00000000000E+00  0.00000000000E+00  0.53336885574E+03  0.54781974134E+03  0.12499653089E+03 0.  0.
    9000005    1    3    3    0    0 -0.46140004120E+02  0.35283982445E+02  0.16567590140E+03  0.17556583865E+03  0.10000000000E+01 0.  0.
    9000005    1    3    3    0    0  0.46140004120E+02 -0.35283982445E+02  0.36769295434E+03  0.37225390269E+03  0.10000000000E+01 0.  0.
<mgrwt>
<rscale>  0 0.12499653E+03</rscale>
<asrwt>0</asrwt>
<pdfrwt beam="1">  1        4 0.83168352E-01 0.12499653E+03</pdfrwt>
<pdfrwt beam="2">  1       -4 0.11116066E-02 0.12499653E+03</pdfrwt>
<totfact> 0.52340220E+03</totfact>
</mgrwt>
</event>
<event>
 5    1  0.3398872E-002  0.1249967E+03  0.7818608E-02  0.1235074E+00
          4   -1    0    0  501    0  0.00000000000E+00  0.00000000000E+00  0.65856718914E+02  0.65868963300E+02  0.12700000000E+01 0.  1.
         -4   -1    0    0    0  501 -0.00000000000E+00 -0.00000000000E+00 -0.59286695106E+02  0.59300296092E+02  0.12700000000E+01 0.  1.
         25    2    1    2    0    0  0.00000000000E+00  0.00000000000E+00  0.65700238082E+01  0.12516925939E+03  0.12499671309E+03 0.  0.
    9000005    1    3    3    0    0 -0.62186605974E+02 -0.58494415184E+01  0.13706610722E+01  0.62484147112E+02  0.10000000000E+01 0.  0.
    9000005    1    3    3    0    0  0.62186605974E+02  0.58494415184E+01  0.51993627359E+01  0.62685112279E+02  0.10000000000E+01 0.  0.
<mgrwt>
<rscale>  0 0.12499671E+03</rscale>
<asrwt>0</asrwt>
<pdfrwt beam="1">  1        4 0.10133791E-01 0.12499671E+03</pdfrwt>
<pdfrwt beam="2">  1       -4 0.91230181E-02 0.12499671E+03</pdfrwt>
<totfact> 0.10449964E+04</totfact>
</mgrwt>
</event>
<event>
 5    1  0.3398872E-002  0.1250042E+03  0.7818608E-02  0.1235063E+00
          4   -1    0    0  501    0  0.00000000000E+00  0.00000000000E+00  0.55467321031E+02  0.55481858318E+02  0.12700000000E+01 0. -1.
         -4   -1    0    0    0  501 -0.00000000000E+00 -0.00000000000E+00 -0.70399566073E+02  0.70411020467E+02  0.12700000000E+01 0. -1.
         25    2    1    2    0    0  0.00000000000E+00  0.00000000000E+00 -0.14932245042E+02  0.12589287878E+03  0.12500417988E+03 0.  0.
    9000005    1    3    3    0    0 -0.26322579793E+02 -0.48776808915E+02  0.21608759131E+02  0.59497846735E+02  0.10000000000E+01 0.  0.
    9000005    1    3    3    0    0  0.26322579793E+02  0.48776808915E+02 -0.36541004172E+02  0.66395032050E+02  0.10000000000E+01 0.  0.
<mgrwt>
<rscale>  0 0.12500418E+03</rscale>
<asrwt>0</asrwt>
<pdfrwt beam="1">  1        4 0.85354334E-02 0.12500418E+03</pdfrwt>
<pdfrwt beam="2">  1       -4 0.10832702E-01 0.12500418E+03</pdfrwt>
<totfact> 0.10432322E+04</totfact>
</mgrwt>
</event>
<event>
 5    1  0.3398872E-002  0.1249999E+03  0.7818608E-02  0.1235069E+00
          4   -1    0    0  501    0  0.00000000000E+00  0.00000000000E+00  0.17337761013E+03  0.17338226148E+03  0.12700000000E+01 0.  1.
         -4   -1    0    0    0  501 -0.00000000000E+00 -0.00000000000E+00 -0.22507400396E+02  0.22543202358E+02  0.12700000000E+01 0.  1.
         25    2    1    2    0    0  0.00000000000E+00  0.00000000000E+00  0.15087020974E+03  0.19592546384E+03  0.12499986877E+03 0.  0.
    9000005    1    3    3    0    0  0.62033977132E+02 -0.10131300630E+00  0.63599667054E+02  0.88848985546E+02  0.10000000000E+01 0.  0.
    9000005    1    3    3    0    0 -0.62033977132E+02  0.10131300630E+00  0.87270542685E+02  0.10707647829E+03  0.10000000000E+01 0.  0.
<mgrwt>
<rscale>  0 0.12499987E+03</rscale>
<asrwt>0</asrwt>
<pdfrwt beam="1">  1        4 0.26676589E-01 0.12499987E+03</pdfrwt>
<pdfrwt beam="2">  1       -4 0.34657889E-02 0.12499987E+03</pdfrwt>
<totfact> 0.90826670E+03</totfact>
</mgrwt>
</event>
<event>
 5    1  0.3398872E-002  0.1250027E+03  0.7818608E-02  0.1235065E+00
          4   -1    0    0  501    0  0.00000000000E+00  0.00000000000E+00  0.27982658145E+04  0.27982661027E+04  0.12700000000E+01 0.  1.
         -4   -1    0    0    0  501 -0.00000000000E+00 -0.00000000000E+00 -0.11068249915E+01  0.16846250508E+01  0.12700000000E+01 0.  1.
         25    2    1    2    0    0  0.00000000000E+00  0.00000000000E+00  0.27971589895E+04  0.27999507278E+04  0.12500266086E+03 0.  0.
    9000005    1    3    3    0    0 -0.50401755863E+02  0.21277458136E+02  0.72201118441E+03  0.72408163741E+03  0.10000000000E+01 0.  0.
    9000005    1    3    3    0    0  0.50401755863E+02 -0.21277458136E+02  0.20751478051E+04  0.20758690904E+04  0.10000000000E+01 0.  0.
<mgrwt>
<rscale>  0 0.12500266E+03</rscale>
<asrwt>0</asrwt>
<pdfrwt beam="1">  1        4 0.43054794E+00 0.12500266E+03</pdfrwt>
<pdfrwt beam="2">  1       -4 0.21474858E-03 0.12500266E+03</pdfrwt>
<totfact> 0.27178106E+02</totfact>
</mgrwt>
</event>
<event>
 5    1  0.3398872E-002  0.1250002E+03  0.7818608E-02  0.1235069E+00
          4   -1    0    0  501    0  0.00000000000E+00  0.00000000000E+00  0.34999269231E+03  0.34999499650E+03  0.12700000000E+01 0.  1.
         -4   -1    0    0    0  501 -0.00000000000E+00 -0.00000000000E+00 -0.11122510992E+02  0.11194782301E+02  0.12700000000E+01 0.  1.
         25    2    1    2    0    0  0.00000000000E+00  0.00000000000E+00  0.33887018132E+03  0.36118977880E+03  0.12500022608E+03 0.  0.
    9000005    1    3    3    0    0  0.42147855672E+02 -0.45025375769E+02  0.14031861512E+03  0.15327765640E+03  0.10000000000E+01 0.  0.
    9000005    1    3    3    0    0 -0.42147855672E+02  0.45025375769E+02  0.19855156620E+03  0.20791212240E+03  0.10000000000E+01 0.  0.
<mgrwt>
<rscale>  0 0.12500023E+03</rscale>
<asrwt>0</asrwt>
<pdfrwt beam="1">  1        4 0.53850760E-01 0.12500023E+03</pdfrwt>
<pdfrwt beam="2">  1       -4 0.17168923E-02 0.12500023E+03</pdfrwt>
<totfact> 0.68510495E+03</totfact>
</mgrwt>
</event>
<event>
 5    1  0.3398872E-002  0.1249997E+03  0.7818608E-02  0.1235070E+00
          4   -1    0    0  501    0  0.00000000000E+00  0.00000000000E+00  0.54737498920E+02  0.54752229983E+02  0.12700000000E+01 0.  1.
         -4   -1    0    0    0  501 -0.00000000000E+00 -0.00000000000E+00 -0.71333045281E+02  0.71344349805E+02  0.12700000000E+01 0.  1.
         25    2    1    2    0    0  0.00000000000E+00  0.00000000000E+00 -0.16595546361E+02  0.12609657979E+03  0.12499974110E+03 0.  0.
    9000005    1    3    3    0    0 -0.17357026061E+02  0.40678119334E+02 -0.52835583801E+02  0.68909902494E+02  0.10000000000E+01 0.  0.
    9000005    1    3    3    0    0  0.17357026061E+02 -0.40678119334E+02  0.36240037440E+02  0.57186677293E+02  0.10000000000E+01 0.  0.
<mgrwt>
<rscale>  0 0.12499974E+03</rscale>
<asrwt>0</asrwt>
<pdfrwt beam="1">  1        4 0.84231563E-02 0.12499974E+03</pdfrwt>
<pdfrwt beam="2">  1       -4 0.10976317E-01 0.12499974E+03</pdfrwt>
<totfact> 0.10428902E+04</totfact>
</mgrwt>
</event>
<event>
 5    1  0.3398872E-002  0.1249997E+03  0.7818608E-02  0.1235070E+00
          4   -1    0    0  501    0  0.00000000000E+00  0.00000000000E+00  0.35851943992E+03  0.35852168931E+03  0.12700000000E+01 0.  1.
         -4   -1    0    0    0  501 -0.00000000000E+00 -0.00000000000E+00 -0.10856153751E+02  0.10930186378E+02  0.12700000000E+01 0.  1.
         25    2    1    2    0    0  0.00000000000E+00  0.00000000000E+00  0.34766328617E+03  0.36945187569E+03  0.12499971158E+03 0.  0.
    9000005    1    3    3    0    0  0.62232251998E+01  0.35237496373E+02  0.22406212365E+02  0.42230889584E+02  0.10000000000E+01 0.  0.
    9000005    1    3    3    0    0 -0.62232251998E+01 -0.35237496373E+02  0.32525707381E+03  0.32722098610E+03  0.10000000000E+01 0.  0.
<mgrwt>
<rscale>  0 0.12499971E+03</rscale>
<asrwt>0</asrwt>
<pdfrwt beam="1">  1        4 0.55162707E-01 0.12499971E+03</pdfrwt>
<pdfrwt beam="2">  1       -4 0.16760453E-02 0.12499971E+03</pdfrwt>
<totfact> 0.67636748E+03</totfact>
</mgrwt>
</event>
<event>
 5    1  0.3398872E-002  0.1249959E+03  0.7818608E-02  0.1235076E+00
          4   -1    0    0  501    0  0.00000000000E+00  0.00000000000E+00  0.14252312622E+03  0.14252878449E+03  0.12700000000E+01 0.  1.
         -4   -1    0    0    0  501 -0.00000000000E+00 -0.00000000000E+00 -0.27385126851E+02  0.27414559502E+02  0.12700000000E+01 0.  1.
         25    2    1    2    0    0  0.00000000000E+00  0.00000000000E+00  0.11513799937E+03  0.16994334399E+03  0.12499592501E+03 0.  0.
    9000005    1    3    3    0    0  0.61868813409E+02  0.16993190998E+01  0.45845133119E+02  0.77028656932E+02  0.10000000000E+01 0.  0.
    9000005    1    3    3    0    0 -0.61868813409E+02 -0.16993190998E+01  0.69292866254E+02  0.92914687062E+02  0.10000000000E+01 0.  0.
<mgrwt>
<rscale>  0 0.12499593E+03</rscale>
<asrwt>0</asrwt>
<pdfrwt beam="1">  1        4 0.21929334E-01 0.12499593E+03</pdfrwt>
<pdfrwt beam="2">  1       -4 0.42157958E-02 0.12499593E+03</pdfrwt>
<totfact> 0.95467929E+03</totfact>
</mgrwt>
</event>
<event>
 5    1  0.3398872E-002  0.1250024E+03  0.7818608E-02  0.1235066E+00
         -4   -1    0    0    0  501 -0.00000000000E+00  0.00000000000E+00  0.13399485212E+03  0.13400087050E+03  0.12700000000E+01 0. -1.
          4   -1    0    0  501    0  0.00000000000E+00 -0.00000000000E+00 -0.29132828250E+02  0.29160496941E+02  0.12700000000E+01 0. -1.
         25    2    1    2    0    0  0.00000000000E+00  0.00000000000E+00  0.10486202387E+03  0.16316136744E+03  0.12500235108E+03 0.  0.
    9000005    1    3    3    0    0  0.11060856377E+02 -0.13637633945E+02 -0.25853087501E+02  0.31268350400E+02  0.10000000000E+01 0.  0.
    9000005    1    3    3    0    0 -0.11060856377E+02  0.13637633945E+02  0.13071511137E+03  0.13189301704E+03  0.10000000000E+01 0.  0.
<mgrwt>
<rscale>  0 0.12500235E+03</rscale>
<asrwt>0</asrwt>
<pdfrwt beam="2">  1        4 0.44845650E-02 0.12500235E+03</pdfrwt>
<pdfrwt beam="1">  1       -4 0.20617183E-01 0.12500235E+03</pdfrwt>
<totfact> 0.96731628E+03</totfact>
</mgrwt>
</event>
<event>
 5    1  0.3398872E-002  0.1250082E+03  0.7818608E-02  0.1235056E+00
         -4   -1    0    0    0  501 -0.00000000000E+00  0.00000000000E+00  0.13616990493E+04  0.13616996415E+04  0.12700000000E+01 0. -1.
          4   -1    0    0  501    0  0.00000000000E+00 -0.00000000000E+00 -0.27278701432E+01  0.30090157059E+01  0.12700000000E+01 0. -1.
         25    2    1    2    0    0  0.00000000000E+00  0.00000000000E+00  0.13589711791E+04  0.13647086572E+04  0.12500821324E+03 0.  0.
    9000005    1    3    3    0    0 -0.22349692287E+02  0.51757198875E+02  0.38504202513E+03  0.38914865732E+03  0.10000000000E+01 0.  0.
    9000005    1    3    3    0    0  0.22349692287E+02 -0.51757198875E+02  0.97392915399E+03  0.97555999988E+03  0.10000000000E+01 0.  0.
<mgrwt>
<rscale>  0 0.12500821E+03</rscale>
<asrwt>0</asrwt>
<pdfrwt beam="2">  1        4 0.44134582E-03 0.12500821E+03</pdfrwt>
<pdfrwt beam="1">  1       -4 0.20951319E+00 0.12500821E+03</pdfrwt>
<totfact> 0.20747098E+03</totfact>
</mgrwt>
</event>
<event>
 5    1  0.3398872E-002  0.1249946E+03  0.7818608E-02  0.1235078E+00
          4   -1    0    0  501    0  0.00000000000E+00  0.00000000000E+00  0.15225805736E+04  0.15225811032E+04  0.12700000000E+01 0. -1.
         -4   -1    0    0    0  501 -0.00000000000E+00 -0.00000000000E+00 -0.24075781730E+01  0.27220089381E+01  0.12700000000E+01 0. -1.
         25    2    1    2    0    0  0.00000000000E+00  0.00000000000E+00  0.15201729954E+04  0.15253031122E+04  0.12499459210E+03 0.  0.
    9000005    1    3    3    0    0  0.37227494911E+01 -0.60339488378E+02  0.95310901323E+03  0.95502487079E+03  0.10000000000E+01 0.  0.
    9000005    1    3    3    0    0 -0.37227494911E+01  0.60339488378E+02  0.56706398216E+03  0.57027824137E+03  0.10000000000E+01 0.  0.
<mgrwt>
<rscale>  0 0.12499459E+03</rscale>
<asrwt>0</asrwt>
<pdfrwt beam="1">  1        4 0.23426774E+00 0.12499459E+03</pdfrwt>
<pdfrwt beam="2">  1       -4 0.39462378E-03 0.12499459E+03</pdfrwt>
<totfact> 0.17440352E+03</totfact>
</mgrwt>
</event>
<event>
 5    1  0.3398872E-002  0.1249997E+03  0.7818608E-02  0.1235070E+00
         -4   -1    0    0    0  501 -0.00000000000E+00  0.00000000000E+00  0.73730616032E+01  0.74816400211E+01  0.12700000000E+01 0. -1.
          4   -1    0    0  501    0  0.00000000000E+00 -0.00000000000E+00 -0.52581583981E+03  0.52581737352E+03  0.12700000000E+01 0. -1.
         25    2    1    2    0    0  0.00000000000E+00  0.00000000000E+00 -0.51844277821E+03  0.53329901354E+03  0.12499969427E+03 0.  0.
    9000005    1    3    3    0    0  0.44912824383E+02 -0.14060701062E+01 -0.73935104211E+02  0.86524785246E+02  0.10000000000E+01 0.  0.
    9000005    1    3    3    0    0 -0.44912824383E+02  0.14060701062E+01 -0.44450767400E+03  0.44677422830E+03  0.10000000000E+01 0.  0.
<mgrwt>
<rscale>  0 0.12499969E+03</rscale>
<asrwt>0</asrwt>
<pdfrwt beam="2">  1        4 0.80903185E-01 0.12499969E+03</pdfrwt>
<pdfrwt beam="1">  1       -4 0.11427877E-02 0.12499969E+03</pdfrwt>
<totfact> 0.53370641E+03</totfact>
</mgrwt>
</event>
<event>
 5    1  0.3398872E-002  0.1250054E+03  0.7818608E-02  0.1235061E+00
          4   -1    0    0  501    0  0.00000000000E+00  0.00000000000E+00  0.11077386733E+03  0.11078114724E+03  0.12700000000E+01 0. -1.
         -4   -1    0    0    0  501 -0.00000000000E+00 -0.00000000000E+00 -0.35246463032E+02  0.35269335920E+02  0.12700000000E+01 0. -1.
         25    2    1    2    0    0  0.00000000000E+00  0.00000000000E+00  0.75527404297E+02  0.14605048316E+03  0.12500541920E+03 0.  0.
    9000005    1    3    3    0    0  0.32372934213E+02 -0.24494238046E+01  0.10015400615E+03  0.10528927531E+03  0.10000000000E+01 0.  0.
    9000005    1    3    3    0    0 -0.32372934213E+02  0.24494238046E+01 -0.24626601854E+02  0.40761207850E+02  0.10000000000E+01 0.  0.
<mgrwt>
<rscale>  0 0.12500542E+03</rscale>
<asrwt>0</asrwt>
<pdfrwt beam="1">  1        4 0.17044453E-01 0.12500542E+03</pdfrwt>
<pdfrwt beam="2">  1       -4 0.54248521E-02 0.12500542E+03</pdfrwt>
<totfact> 0.10008467E+04</totfact>
</mgrwt>
</event>
<event>
 5    1  0.3398872E-002  0.1249968E+03  0.7818608E-02  0.1235074E+00
          4   -1    0    0  501    0  0.00000000000E+00  0.00000000000E+00  0.21422163287E+03  0.21422539740E+03  0.12700000000E+01 0. -1.
         -4   -1    0    0    0  501 -0.00000000000E+00 -0.00000000000E+00 -0.18207635678E+02  0.18251873794E+02  0.12700000000E+01 0. -1.
         25    2    1    2    0    0  0.00000000000E+00  0.00000000000E+00  0.19601399720E+03  0.23247727119E+03  0.12499677806E+03 0.  0.
    9000005    1    3    3    0    0  0.11230937406E+02 -0.56173567544E+02  0.14444577292E+03  0.15539364517E+03  0.10000000000E+01 0.  0.
    9000005    1    3    3    0    0 -0.11230937406E+02  0.56173567544E+02  0.51568224275E+02  0.77083626021E+02  0.10000000000E+01 0.  0.
<mgrwt>
<rscale>  0 0.12499678E+03</rscale>
<asrwt>0</asrwt>
<pdfrwt beam="1">  1        4 0.32960865E-01 0.12499678E+03</pdfrwt>
<pdfrwt beam="2">  1       -4 0.28048674E-02 0.12499678E+03</pdfrwt>
<totfact> 0.84936761E+03</totfact>
</mgrwt>
</event>
<event>
 5    1  0.3398872E-002  0.1249997E+03  0.7818608E-02  0.1235070E+00
         -4   -1    0    0    0  501 -0.00000000000E+00  0.00000000000E+00  0.76298200380E+02  0.76308769360E+02  0.12700000000E+01 0.  1.
          4   -1    0    0  501    0  0.00000000000E+00 -0.00000000000E+00 -0.51174906712E+02  0.51190662987E+02  0.12700000000E+01 0.  1.
         25    2    1    2    0    0  0.00000000000E+00  0.00000000000E+00  0.25123293667E+02  0.12749943235E+03  0.12499970146E+03 0.  0.
    9000005    1    3    3    0    0  0.35751524745E+02  0.12316187529E+02 -0.38186414372E+02  0.53749997576E+02  0.10000000000E+01 0.  0.
    9000005    1    3    3    0    0 -0.35751524745E+02 -0.12316187529E+02  0.63309708040E+02  0.73749434770E+02  0.10000000000E+01 0.  0.
<mgrwt>
<rscale>  0 0.12499970E+03</rscale>
<asrwt>0</asrwt>
<pdfrwt beam="2">  1        4 0.78750877E-02 0.12499970E+03</pdfrwt>
<pdfrwt beam="1">  1       -4 0.11740210E-01 0.12499970E+03</pdfrwt>
<totfact> 0.10398383E+04</totfact>
</mgrwt>
</event>
<event>
 5    1  0.3398872E-002  0.1250140E+03  0.7818608E-02  0.1235047E+00
         -4   -1    0    0    0  501 -0.00000000000E+00  0.00000000000E+00  0.30108596210E+03  0.30108864056E+03  0.12700000000E+01 0.  1.
          4   -1    0    0  501    0  0.00000000000E+00 -0.00000000000E+00 -0.12942958262E+02  0.13005117015E+02  0.12700000000E+01 0.  1.
         25    2    1    2    0    0  0.00000000000E+00  0.00000000000E+00  0.28814300384E+03  0.31409375758E+03  0.12501399076E+03 0.  0.
    9000005    1    3    3    0    0 -0.41954671113E+02 -0.92358563177E+00  0.27706566596E+02  0.50296135748E+02  0.10000000000E+01 0.  0.
    9000005    1    3    3    0    0  0.41954671113E+02  0.92358563177E+00  0.26043643725E+03  0.26379762183E+03  0.10000000000E+01 0.  0.
<mgrwt>
<rscale>  0 0.12501399E+03</rscale>
<asrwt>0</asrwt>
<pdfrwt beam="2">  1        4 0.19962120E-02 0.12501399E+03</pdfrwt>
<pdfrwt beam="1">  1       -4 0.46325900E-01 0.12501399E+03</pdfrwt>
<totfact> 0.73841235E+03</totfact>
</mgrwt>
</event>
<event>
 5    1  0.3398872E-002  0.1249870E+03  0.7818608E-02  0.1235090E+00
         -4   -1    0    0    0  501 -0.00000000000E+00  0.00000000000E+00  0.25828817241E+03  0.25829129468E+03  0.12700000000E+01 0. -1.
          4   -1    0    0  501    0  0.00000000000E+00 -0.00000000000E+00 -0.15090577261E+02  0.15143923602E+02  0.12700000000E+01 0. -1.
         25    2    1    2    0    0  0.00000000000E+00  0.00000000000E+00  0.24319759515E+03  0.27343521829E+03  0.12498699256E+03 0.  0.
    9000005    1    3    3    0    0 -0.50217972446E+02 -0.30825464675E+01  0.40532717993E+02  0.64616159567E+02  0.10000000000E+01 0.  0.
    9000005    1    3    3    0    0  0.50217972446E+02  0.30825464675E+01  0.20266487716E+03  0.20881905872E+03  0.10000000000E+01 0.  0.
<mgrwt>
<rscale>  0 0.12498699E+03</rscale>
<asrwt>0</asrwt>
<pdfrwt beam="2">  1        4 0.23259708E-02 0.12498699E+03</pdfrwt>
<pdfrwt beam="1">  1       -4 0.39740990E-01 0.12498699E+03</pdfrwt>
<totfact> 0.79079545E+03</totfact>
</mgrwt>
</event>
<event>
 5    1  0.3398872E-002  0.1249985E+03  0.7818608E-02  0.1235072E+00
         -4   -1    0    0    0  501 -0.00000000000E+00  0.00000000000E+00  0.56812804640E+02  0.56826997731E+02  0.12700000000E+01 0.  1.
          4   -1    0    0  501    0  0.00000000000E+00 -0.00000000000E+00 -0.68726194313E+02  0.68737927556E+02  0.12700000000E+01 0.  1.
         25    2    1    2    0    0  0.00000000000E+00  0.00000000000E+00 -0.11913389673E+02  0.12556492529E+03  0.12499848643E+03 0.  0.
    9000005    1    3    3    0    0 -0.36539289517E+02  0.21083145613E+02  0.40355769593E+02  0.58388413635E+02  0.10000000000E+01 0.  0.
    9000005    1    3    3    0    0  0.36539289517E+02 -0.21083145613E+02 -0.52269159266E+02  0.67176511652E+02  0.10000000000E+01 0.  0.
<mgrwt>
<rscale>  0 0.12499849E+03</rscale>
<asrwt>0</asrwt>
<pdfrwt beam="2">  1        4 0.10575255E-01 0.12499849E+03</pdfrwt>
<pdfrwt beam="1">  1       -4 0.87424258E-02 0.12499849E+03</pdfrwt>
<totfact> 0.10440877E+04</totfact>
</mgrwt>
</event>
<event>
 5    1  0.3398872E-002  0.1250005E+03  0.7818608E-02  0.1235068E+00
         -4   -1    0    0    0  501 -0.00000000000E+00  0.00000000000E+00  0.92884866181E+03  0.92884953004E+03  0.12700000000E+01 0.  1.
          4   -1    0    0  501    0  0.00000000000E+00 -0.00000000000E+00 -0.41087390090E+01  0.43005390644E+01  0.12700000000E+01 0.  1.
         25    2    1    2    0    0  0.00000000000E+00  0.00000000000E+00  0.92473992280E+03  0.93315006910E+03  0.12500050655E+03 0.  0.
    9000005    1    3    3    0    0 -0.42479491950E+02  0.45093328404E+02  0.52364175662E+03  0.52729460909E+03  0.10000000000E+01 0.  0.
    9000005    1    3    3    0    0  0.42479491950E+02 -0.45093328404E+02  0.40109816618E+03  0.40585546001E+03  0.10000000000E+01 0.  0.
<mgrwt>
<rscale>  0 0.12500051E+03</rscale>
<asrwt>0</asrwt>
<pdfrwt beam="2">  1        4 0.64693415E-03 0.12500051E+03</pdfrwt>
<pdfrwt beam="1">  1       -4 0.14291465E+00 0.12500051E+03</pdfrwt>
<totfact> 0.32921493E+03</totfact>
</mgrwt>
</event>
<event>
 5    1  0.3398872E-002  0.1249987E+03  0.7818608E-02  0.1235071E+00
         -4   -1    0    0    0  501 -0.00000000000E+00  0.00000000000E+00  0.36944650808E+02  0.36966472963E+02  0.12700000000E+01 0.  1.
          4   -1    0    0  501    0  0.00000000000E+00 -0.00000000000E+00 -0.10567343429E+03  0.10568106555E+03  0.12700000000E+01 0.  1.
         25    2    1    2    0    0  0.00000000000E+00  0.00000000000E+00 -0.68728783484E+02  0.14264753851E+03  0.12499869825E+03 0.  0.
    9000005    1    3    3    0    0  0.23748752078E+02  0.57680070912E+02 -0.38660921273E+02  0.73393873310E+02  0.10000000000E+01 0.  0.
    9000005    1    3    3    0    0 -0.23748752078E+02 -0.57680070912E+02 -0.30067862211E+02  0.69253665200E+02  0.10000000000E+01 0.  0.
<mgrwt>
<rscale>  0 0.12499870E+03</rscale>
<asrwt>0</asrwt>
<pdfrwt beam="2">  1        4 0.16259717E-01 0.12499870E+03</pdfrwt>
<pdfrwt beam="1">  1       -4 0.56860581E-02 0.12499870E+03</pdfrwt>
<totfact> 0.10079301E+04</totfact>
</mgrwt>
</event>
<event>
 5    1  0.3398872E-002  0.1250001E+03  0.7818608E-02  0.1235069E+00
         -4   -1    0    0    0  501 -0.00000000000E+00  0.00000000000E+00  0.14758259886E+03  0.14758806316E+03  0.12700000000E+01 0.  1.
          4   -1    0    0  501    0  0.00000000000E+00 -0.00000000000E+00 -0.26447064633E+02  0.26477540061E+02  0.12700000000E+01 0.  1.
         25    2    1    2    0    0  0.00000000000E+00  0.00000000000E+00  0.12113553423E+03  0.17406560322E+03  0.12500006628E+03 0.  0.
    9000005    1    3    3    0    0  0.19527004489E+00 -0.52131486370E+02  0.12580729576E+02  0.53637717683E+02  0.10000000000E+01 0.  0.
    9000005    1    3    3    0    0 -0.19527004489E+00  0.52131486370E+02  0.10855480465E+03  0.12042788554E+03  0.10000000000E+01 0.  0.
<mgrwt>
<rscale>  0 0.12500007E+03</rscale>
<asrwt>0</asrwt>
<pdfrwt beam="2">  1        4 0.40715437E-02 0.12500007E+03</pdfrwt>
<pdfrwt beam="1">  1       -4 0.22707780E-01 0.12500007E+03</pdfrwt>
<totfact> 0.94696111E+03</totfact>
</mgrwt>
</event>
<event>
 5    1  0.3398872E-002  0.1249585E+03  0.7818608E-02  0.1235134E+00
         -4   -1    0    0    0  501 -0.00000000000E+00  0.00000000000E+00  0.11082953375E+04  0.11082960651E+04  0.12700000000E+01 0.  1.
          4   -1    0    0  501    0  0.00000000000E+00 -0.00000000000E+00 -0.34069858334E+01  0.36359940139E+01  0.12700000000E+01 0.  1.
         25    2    1    2    0    0  0.00000000000E+00  0.00000000000E+00  0.11048883517E+04  0.11119320591E+04  0.12495853130E+03 0.  0.
    9000005    1    3    3    0    0  0.12084657764E+02 -0.60236233380E+02  0.45168531848E+03  0.45584544497E+03  0.10000000000E+01 0.  0.
    9000005    1    3    3    0    0 -0.12084657764E+02  0.60236233380E+02  0.65320303317E+03  0.65608661418E+03  0.10000000000E+01 0.  0.
<mgrwt>
<rscale>  0 0.12495853E+03</rscale>
<asrwt>0</asrwt>
<pdfrwt beam="2">  1        4 0.54182374E-03 0.12495853E+03</pdfrwt>
<pdfrwt beam="1">  1       -4 0.17052462E+00 0.12495853E+03</pdfrwt>
<totfact> 0.27161342E+03</totfact>
</mgrwt>
</event>
<event>
 5    1  0.3398872E-002  0.1249983E+03  0.7818608E-02  0.1235072E+00
          4   -1    0    0  501    0  0.00000000000E+00  0.00000000000E+00  0.35102877727E+03  0.35103107465E+03  0.12700000000E+01 0.  1.
         -4   -1    0    0    0  501 -0.00000000000E+00 -0.00000000000E+00 -0.11089120843E+02  0.11161608355E+02  0.12700000000E+01 0.  1.
         25    2    1    2    0    0  0.00000000000E+00  0.00000000000E+00  0.33993965642E+03  0.36219268300E+03  0.12499827844E+03 0.  0.
    9000005    1    3    3    0    0  0.23543742833E+02  0.31757138879E+02  0.29734112842E+02  0.49476672916E+02  0.10000000000E+01 0.  0.
    9000005    1    3    3    0    0 -0.23543742833E+02 -0.31757138879E+02  0.31020554358E+03  0.31271601009E+03  0.10000000000E+01 0.  0.
<mgrwt>
<rscale>  0 0.12499828E+03</rscale>
<asrwt>0</asrwt>
<pdfrwt beam="1">  1        4 0.54010183E-01 0.12499828E+03</pdfrwt>
<pdfrwt beam="2">  1       -4 0.17117712E-02 0.12499828E+03</pdfrwt>
<totfact> 0.68406317E+03</totfact>
</mgrwt>
</event>
<event>
 5    1  0.3398872E-002  0.1249903E+03  0.7818608E-02  0.1235084E+00
          4   -1    0    0  501    0  0.00000000000E+00  0.00000000000E+00  0.70470875121E+01  0.71606104770E+01  0.12700000000E+01 0. -1.
         -4   -1    0    0    0  501 -0.00000000000E+00 -0.00000000000E+00 -0.54967840566E+03  0.54967987279E+03  0.12700000000E+01 0. -1.
         25    2    1    2    0    0  0.00000000000E+00  0.00000000000E+00 -0.54263131815E+03  0.55684048327E+03  0.12499030510E+03 0.  0.
    9000005    1    3    3    0    0 -0.61311509431E+02 -0.12004852216E+02 -0.27663648687E+03  0.28360529532E+03  0.10000000000E+01 0.  0.
    9000005    1    3    3    0    0  0.61311509431E+02  0.12004852216E+02 -0.26599483128E+03  0.27323518795E+03  0.10000000000E+01 0.  0.
<mgrwt>
<rscale>  0 0.12499031E+03</rscale>
<asrwt>0</asrwt>
<pdfrwt beam="1">  1        4 0.10930131E-02 0.12499031E+03</pdfrwt>
<pdfrwt beam="2">  1       -4 0.84574721E-01 0.12499031E+03</pdfrwt>
<totfact> 0.51721467E+03</totfact>
</mgrwt>
</event>
<event>
 5    1  0.3398872E-002  0.1250017E+03  0.7818608E-02  0.1235067E+00
         -4   -1    0    0    0  501 -0.00000000000E+00  0.00000000000E+00  0.11696173705E+02  0.11764921561E+02  0.12700000000E+01 0.  1.
          4   -1    0    0  501    0  0.00000000000E+00 -0.00000000000E+00 -0.33293739128E+03  0.33293981350E+03  0.12700000000E+01 0.  1.
         25    2    1    2    0    0  0.00000000000E+00  0.00000000000E+00 -0.32124121757E+03  0.34470473506E+03  0.12500173800E+03 0.  0.
    9000005    1    3    3    0    0  0.48474290559E+02  0.39308045957E+02 -0.16954744176E+03  0.18067156480E+03  0.10000000000E+01 0.  0.
    9000005    1    3    3    0    0 -0.48474290559E+02 -0.39308045957E+02 -0.15169377582E+03  0.16403317025E+03  0.10000000000E+01 0.  0.
<mgrwt>
<rscale>  0 0.12500174E+03</rscale>
<asrwt>0</asrwt>
<pdfrwt beam="2">  1        4 0.51226605E-01 0.12500174E+03</pdfrwt>
<pdfrwt beam="1">  1       -4 0.18048862E-02 0.12500174E+03</pdfrwt>
<totfact> 0.70308353E+03</totfact>
</mgrwt>
</event>
<event>
 5    1  0.3398872E-002  0.1249979E+03  0.7818608E-02  0.1235073E+00
         -4   -1    0    0    0  501 -0.00000000000E+00  0.00000000000E+00  0.16047788344E+02  0.16097962937E+02  0.12700000000E+01 0. -1.
          4   -1    0    0  501    0  0.00000000000E+00 -0.00000000000E+00 -0.24297371049E+03  0.24297702955E+03  0.12700000000E+01 0. -1.
         25    2    1    2    0    0  0.00000000000E+00  0.00000000000E+00 -0.22692592214E+03  0.25907499249E+03  0.12499791034E+03 0.  0.
    9000005    1    3    3    0    0  0.45795911465E+01 -0.54790411664E+02 -0.51903357442E+02  0.75616931828E+02  0.10000000000E+01 0.  0.
    9000005    1    3    3    0    0 -0.45795911465E+01  0.54790411664E+02 -0.17502256470E+03  0.18345806066E+03  0.10000000000E+01 0.  0.
<mgrwt>
<rscale>  0 0.12499791E+03</rscale>
<asrwt>0</asrwt>
<pdfrwt beam="2">  1        4 0.37384683E-01 0.12499791E+03</pdfrwt>
<pdfrwt beam="1">  1       -4 0.24730056E-02 0.12499791E+03</pdfrwt>
<totfact> 0.81039819E+03</totfact>
</mgrwt>
</event>
<event>
 5    1  0.3398872E-002  0.1249862E+03  0.7818608E-02  0.1235091E+00
          4   -1    0    0  501    0  0.00000000000E+00  0.00000000000E+00  0.34857353977E+02  0.34880482025E+02  0.12700000000E+01 0.  1.
         -4   -1    0    0    0  501 -0.00000000000E+00 -0.00000000000E+00 -0.11197530365E+03  0.11198250545E+03  0.12700000000E+01 0.  1.
         25    2    1    2    0    0  0.00000000000E+00  0.00000000000E+00 -0.77117949669E+02  0.14686298747E+03  0.12498623496E+03 0.  0.
    9000005    1    3    3    0    0 -0.32026154296E+02  0.32474829009E+02 -0.88744049213E+02  0.99783742909E+02  0.10000000000E+01 0.  0.
    9000005    1    3    3    0    0  0.32026154296E+02 -0.32474829009E+02  0.11626099544E+02  0.47079244565E+02  0.10000000000E+01 0.  0.
<mgrwt>
<rscale>  0 0.12498623E+03</rscale>
<asrwt>0</asrwt>
<pdfrwt beam="1">  1        4 0.53650030E-02 0.12498623E+03</pdfrwt>
<pdfrwt beam="2">  1       -4 0.17229303E-01 0.12498623E+03</pdfrwt>
<totfact> 0.99963706E+03</totfact>
</mgrwt>
</event>
<event>
 5    1  0.3398872E-002  0.1249995E+03  0.7818608E-02  0.1235070E+00
         -4   -1    0    0    0  501 -0.00000000000E+00  0.00000000000E+00  0.13184675301E+02  0.13245699785E+02  0.12700000000E+01 0.  1.
          4   -1    0    0  501    0  0.00000000000E+00 -0.00000000000E+00 -0.29552295045E+03  0.29552567933E+03  0.12700000000E+01 0.  1.
         25    2    1    2    0    0  0.00000000000E+00  0.00000000000E+00 -0.28233827515E+03  0.30877137912E+03  0.12499945178E+03 0.  0.
    9000005    1    3    3    0    0  0.53230050683E+02 -0.32303654788E+02 -0.15429864292E+03  0.16639121256E+03  0.10000000000E+01 0.  0.
    9000005    1    3    3    0    0 -0.53230050683E+02  0.32303654788E+02 -0.12803963223E+03  0.14238016656E+03  0.10000000000E+01 0.  0.
<mgrwt>
<rscale>  0 0.12499945E+03</rscale>
<asrwt>0</asrwt>
<pdfrwt beam="2">  1        4 0.45469968E-01 0.12499945E+03</pdfrwt>
<pdfrwt beam="1">  1       -4 0.20333159E-02 0.12499945E+03</pdfrwt>
<totfact> 0.74512492E+03</totfact>
</mgrwt>
</event>
<event>
 5    1  0.3398872E-002  0.1249965E+03  0.7818608E-02  0.1235075E+00
          4   -1    0    0  501    0  0.00000000000E+00  0.00000000000E+00  0.16893982254E+03  0.16894459607E+03  0.12700000000E+01 0.  1.
         -4   -1    0    0    0  501 -0.00000000000E+00 -0.00000000000E+00 -0.23098316310E+02  0.23133203764E+02  0.12700000000E+01 0.  1.
         25    2    1    2    0    0  0.00000000000E+00  0.00000000000E+00  0.14584150623E+03  0.19207779983E+03  0.12499654494E+03 0.  0.
    9000005    1    3    3    0    0  0.29404431166E+02  0.59449854572E+01 -0.11316947991E+02  0.32078602465E+02  0.10000000000E+01 0.  0.
    9000005    1    3    3    0    0 -0.29404431166E+02 -0.59449854572E+01  0.15715845422E+03  0.15999919737E+03  0.10000000000E+01 0.  0.
<mgrwt>
<rscale>  0 0.12499654E+03</rscale>
<asrwt>0</asrwt>
<pdfrwt beam="1">  1        4 0.25993793E-01 0.12499654E+03</pdfrwt>
<pdfrwt beam="2">  1       -4 0.35566380E-02 0.12499654E+03</pdfrwt>
<totfact> 0.91494115E+03</totfact>
</mgrwt>
</event>
<event>
 5    1  0.3398872E-002  0.1249754E+03  0.7818608E-02  0.1235108E+00
          4   -1    0    0  501    0  0.00000000000E+00  0.00000000000E+00  0.86851506501E+03  0.86851599355E+03  0.12700000000E+01 0. -1.
         -4   -1    0    0    0  501 -0.00000000000E+00 -0.00000000000E+00 -0.44052124553E+01  0.45846261326E+01  0.12700000000E+01 0. -1.
         25    2    1    2    0    0  0.00000000000E+00  0.00000000000E+00  0.86410985256E+03  0.87310061968E+03  0.12497541680E+03 0.  0.
    9000005    1    3    3    0    0  0.55062770753E+01  0.61973160207E+02  0.39209176745E+03  0.39699867226E+03  0.10000000000E+01 0.  0.
    9000005    1    3    3    0    0 -0.55062770753E+01 -0.61973160207E+02  0.47201808510E+03  0.47610194742E+03  0.10000000000E+01 0.  0.
<mgrwt>
<rscale>  0 0.12497542E+03</rscale>
<asrwt>0</asrwt>
<pdfrwt beam="1">  1        4 0.13363151E+00 0.12497542E+03</pdfrwt>
<pdfrwt beam="2">  1       -4 0.69159780E-03 0.12497542E+03</pdfrwt>
<totfact> 0.35219137E+03</totfact>
</mgrwt>
</event>
<event>
 5    1  0.3398872E-002  0.1249996E+03  0.7818608E-02  0.1235070E+00
         -4   -1    0    0    0  501 -0.00000000000E+00  0.00000000000E+00  0.41753974279E+01  0.43642689744E+01  0.12700000000E+01 0.  1.
          4   -1    0    0  501    0  0.00000000000E+00 -0.00000000000E+00 -0.91465362100E+03  0.91465450270E+03  0.12700000000E+01 0.  1.
         25    2    1    2    0    0  0.00000000000E+00  0.00000000000E+00 -0.91047822358E+03  0.91901877168E+03  0.12499962836E+03 0.  0.
    9000005    1    3    3    0    0  0.32216798777E+02 -0.34624702409E+02 -0.15492879057E+03  0.16198988329E+03  0.10000000000E+01 0.  0.
    9000005    1    3    3    0    0 -0.32216798777E+02  0.34624702409E+02 -0.75554943300E+03  0.75702888839E+03  0.10000000000E+01 0.  0.
<mgrwt>
<rscale>  0 0.12499963E+03</rscale>
<asrwt>0</asrwt>
<pdfrwt beam="2">  1        4 0.14073038E+00 0.12499963E+03</pdfrwt>
<pdfrwt beam="1">  1       -4 0.65696597E-03 0.12499963E+03</pdfrwt>
<totfact> 0.33442367E+03</totfact>
</mgrwt>
</event>
<event>
 5    1  0.3398872E-002  0.1250021E+03  0.7818608E-02  0.1235066E+00
         -4   -1    0    0    0  501 -0.00000000000E+00  0.00000000000E+00  0.13961785105E+03  0.13962362705E+03  0.12700000000E+01 0. -1.
          4   -1    0    0  501    0  0.00000000000E+00 -0.00000000000E+00 -0.27958337113E+02  0.27987166954E+02  0.12700000000E+01 0. -1.
         25    2    1    2    0    0  0.00000000000E+00  0.00000000000E+00  0.11165951394E+03  0.16761079401E+03  0.12500212484E+03 0.  0.
    9000005    1    3    3    0    0  0.50815163891E+02 -0.10646291311E+02  0.10246903949E+03  0.11487570872E+03  0.10000000000E+01 0.  0.
    9000005    1    3    3    0    0 -0.50815163891E+02  0.10646291311E+02  0.91904744504E+01  0.52735085291E+02  0.10000000000E+01 0.  0.
<mgrwt>
<rscale>  0 0.12500212E+03</rscale>
<asrwt>0</asrwt>
<pdfrwt beam="2">  1        4 0.43039446E-02 0.12500212E+03</pdfrwt>
<pdfrwt beam="1">  1       -4 0.21482332E-01 0.12500212E+03</pdfrwt>
<totfact> 0.95890645E+03</totfact>
</mgrwt>
</event>
<event>
 5    1  0.3398872E-002  0.1250047E+03  0.7818608E-02  0.1235062E+00
          4   -1    0    0  501    0  0.00000000000E+00  0.00000000000E+00  0.47608225308E+02  0.47625161595E+02  0.12700000000E+01 0.  1.
         -4   -1    0    0    0  501 -0.00000000000E+00 -0.00000000000E+00 -0.82019564618E+02  0.82029396439E+02  0.12700000000E+01 0.  1.
         25    2    1    2    0    0  0.00000000000E+00  0.00000000000E+00 -0.34411339310E+02  0.12965455803E+03  0.12500465650E+03 0.  0.
    9000005    1    3    3    0    0 -0.27304615589E+01  0.60031083739E+02 -0.35000629509E+02  0.69550201302E+02  0.10000000000E+01 0.  0.
    9000005    1    3    3    0    0  0.27304615589E+01 -0.60031083739E+02  0.58929019862E+00  0.60104356732E+02  0.10000000000E+01 0.  0.
<mgrwt>
<rscale>  0 0.12500466E+03</rscale>
<asrwt>0</asrwt>
<pdfrwt beam="1">  1        4 0.73264014E-02 0.12500466E+03</pdfrwt>
<pdfrwt beam="2">  1       -4 0.12620454E-01 0.12500466E+03</pdfrwt>
<totfact> 0.10350815E+04</totfact>
</mgrwt>
</event>
<event>
 5    1  0.3398872E-002  0.1249996E+03  0.7818608E-02  0.1235070E+00
          4   -1    0    0  501    0  0.00000000000E+00  0.00000000000E+00  0.50416527996E+01  0.51991502144E+01  0.12700000000E+01 0.  1.
         -4   -1    0    0    0  501 -0.00000000000E+00 -0.00000000000E+00 -0.76271725058E+03  0.76271830792E+03  0.12700000000E+01 0.  1.
         25    2    1    2    0    0  0.00000000000E+00  0.00000000000E+00 -0.75767559779E+03  0.76791745814E+03  0.12499964413E+03 0.  0.
    9000005    1    3    3    0    0  0.34248330394E+02 -0.38839650791E+02 -0.16392905026E+03  0.17191625905E+03  0.10000000000E+01 0.  0.
    9000005    1    3    3    0    0 -0.34248330394E+02  0.38839650791E+02 -0.59374654753E+03  0.59600119908E+03  0.10000000000E+01 0.  0.
<mgrwt>
<rscale>  0 0.12499964E+03</rscale>
<asrwt>0</asrwt>
<pdfrwt beam="1">  1        4 0.78783602E-03 0.12499964E+03</pdfrwt>
<pdfrwt beam="2">  1       -4 0.11735322E+00 0.12499964E+03</pdfrwt>
<totfact> 0.39731788E+03</totfact>
</mgrwt>
</event>
<event>
 5    1  0.3398872E-002  0.1250056E+03  0.7818608E-02  0.1235060E+00
          4   -1    0    0  501    0  0.00000000000E+00  0.00000000000E+00  0.12684930573E+03  0.12685566312E+03  0.12700000000E+01 0.  1.
         -4   -1    0    0    0  501 -0.00000000000E+00 -0.00000000000E+00 -0.30776971254E+02  0.30803163143E+02  0.12700000000E+01 0.  1.
         25    2    1    2    0    0  0.00000000000E+00  0.00000000000E+00  0.96072334478E+02  0.15765882626E+03  0.12500564805E+03 0.  0.
    9000005    1    3    3    0    0  0.38287122951E+01 -0.62025932490E+02  0.56376182261E+02  0.83911556209E+02  0.10000000000E+01 0.  0.
    9000005    1    3    3    0    0 -0.38287122951E+01  0.62025932490E+02  0.39696152216E+02  0.73747270050E+02  0.10000000000E+01 0.  0.
<mgrwt>
<rscale>  0 0.12500565E+03</rscale>
<asrwt>0</asrwt>
<pdfrwt beam="1">  1        4 0.19517781E-01 0.12500565E+03</pdfrwt>
<pdfrwt beam="2">  1       -4 0.47374225E-02 0.12500565E+03</pdfrwt>
<totfact> 0.97783635E+03</totfact>
</mgrwt>
</event>
<event>
 5    1  0.3398872E-002  0.1249985E+03  0.7818608E-02  0.1235072E+00
          4   -1    0    0  501    0  0.00000000000E+00  0.00000000000E+00  0.11542123897E+03  0.11542822578E+03  0.12700000000E+01 0.  1.
         -4   -1    0    0    0  501 -0.00000000000E+00 -0.00000000000E+00 -0.33822701278E+02  0.33846536333E+02  0.12700000000E+01 0.  1.
         25    2    1    2    0    0  0.00000000000E+00  0.00000000000E+00  0.81598537696E+02  0.14927476211E+03  0.12499853299E+03 0.  0.
    9000005    1    3    3    0    0  0.10844445291E+02  0.44388921888E+02 -0.10108074995E+02  0.46809737878E+02  0.10000000000E+01 0.  0.
    9000005    1    3    3    0    0 -0.10844445291E+02 -0.44388921888E+02  0.91706612690E+02  0.10246502423E+03  0.10000000000E+01 0.  0.
<mgrwt>
<rscale>  0 0.12499853E+03</rscale>
<asrwt>0</asrwt>
<pdfrwt beam="1">  1        4 0.17759484E-01 0.12499853E+03</pdfrwt>
<pdfrwt beam="2">  1       -4 0.52058634E-02 0.12499853E+03</pdfrwt>
<totfact> 0.99451743E+03</totfact>
</mgrwt>
</event>
<event>
 5    1  0.3398872E-002  0.1250014E+03  0.7818608E-02  0.1235067E+00
          4   -1    0    0  501    0  0.00000000000E+00  0.00000000000E+00  0.13015047091E+03  0.13015666705E+03  0.12700000000E+01 0. -1.
         -4   -1    0    0    0  501 -0.00000000000E+00 -0.00000000000E+00 -0.29993640967E+02  0.30020516293E+02  0.12700000000E+01 0. -1.
         25    2    1    2    0    0  0.00000000000E+00  0.00000000000E+00  0.10015682994E+03  0.16017718334E+03  0.12500135791E+03 0.  0.
    9000005    1    3    3    0    0 -0.13801186785E+02 -0.60752869060E+02  0.56349574905E+02  0.84009871132E+02  0.10000000000E+01 0.  0.
    9000005    1    3    3    0    0  0.13801186785E+02  0.60752869060E+02  0.43807255038E+02  0.76167312212E+02  0.10000000000E+01 0.  0.
<mgrwt>
<rscale>  0 0.12500136E+03</rscale>
<asrwt>0</asrwt>
<pdfrwt beam="1">  1        4 0.20025694E-01 0.12500136E+03</pdfrwt>
<pdfrwt beam="2">  1       -4 0.46169502E-02 0.12500136E+03</pdfrwt>
<totfact> 0.97305666E+03</totfact>
</mgrwt>
</event>
<event>
 5    1  0.3398872E-002  0.1250032E+03  0.7818608E-02  0.1235064E+00
         -4   -1    0    0    0  501 -0.00000000000E+00  0.00000000000E+00  0.70325619202E+02  0.70337085638E+02  0.12700000000E+01 0. -1.
          4   -1    0    0  501    0  0.00000000000E+00 -0.00000000000E+00 -0.55524795326E+02  0.55539317569E+02  0.12700000000E+01 0. -1.
         25    2    1    2    0    0  0.00000000000E+00  0.00000000000E+00  0.14800823875E+02  0.12587640321E+03  0.12500321795E+03 0.  0.
    9000005    1    3    3    0    0 -0.20626553602E+02  0.58393925671E+02 -0.10334044113E+01  0.61946534959E+02  0.10000000000E+01 0.  0.
    9000005    1    3    3    0    0  0.20626553602E+02 -0.58393925671E+02  0.15834228287E+02  0.63929868248E+02  0.10000000000E+01 0.  0.
<mgrwt>
<rscale>  0 0.12500322E+03</rscale>
<asrwt>0</asrwt>
<pdfrwt beam="2">  1        4 0.85442753E-02 0.12500322E+03</pdfrwt>
<pdfrwt beam="1">  1       -4 0.10821325E-01 0.12500322E+03</pdfrwt>
<totfact> 0.10432910E+04</totfact>
</mgrwt>
</event>
<event>
 5    1  0.3398872E-002  0.1249980E+03  0.7818608E-02  0.1235072E+00
          4   -1    0    0  501    0  0.00000000000E+00  0.00000000000E+00  0.85941246203E+03  0.85941340041E+03  0.12700000000E+01 0.  1.
         -4   -1    0    0    0  501 -0.00000000000E+00 -0.00000000000E+00 -0.44554390614E+01  0.46329080748E+01  0.12700000000E+01 0.  1.
         25    2    1    2    0    0  0.00000000000E+00  0.00000000000E+00  0.85495702297E+03  0.86404630848E+03  0.12499804827E+03 0.  0.
    9000005    1    3    3    0    0  0.39806282434E+02 -0.24158728948E+02  0.13938952246E+03  0.14696470079E+03  0.10000000000E+01 0.  0.
    9000005    1    3    3    0    0 -0.39806282434E+02  0.24158728948E+02  0.71556750051E+03  0.71708160769E+03  0.10000000000E+01 0.  0.
<mgrwt>
<rscale>  0 0.12499805E+03</rscale>
<asrwt>0</asrwt>
<pdfrwt beam="1">  1        4 0.13223096E+00 0.12499805E+03</pdfrwt>
<pdfrwt beam="2">  1       -4 0.69917615E-03 0.12499805E+03</pdfrwt>
<totfact> 0.35560863E+03</totfact>
</mgrwt>
</event>
<event>
 5    1  0.3398872E-002  0.1250015E+03  0.7818608E-02  0.1235067E+00
         -4   -1    0    0    0  501 -0.00000000000E+00  0.00000000000E+00  0.26063283486E+03  0.26063592904E+03  0.12700000000E+01 0.  1.
          4   -1    0    0  501    0  0.00000000000E+00 -0.00000000000E+00 -0.14957836346E+02  0.15011654411E+02  0.12700000000E+01 0.  1.
         25    2    1    2    0    0  0.00000000000E+00  0.00000000000E+00  0.24567499851E+03  0.27564758345E+03  0.12500154146E+03 0.  0.
    9000005    1    3    3    0    0 -0.30792063612E+02 -0.13492729313E+02  0.66708720118E+01  0.34288561638E+02  0.10000000000E+01 0.  0.
    9000005    1    3    3    0    0  0.30792063612E+02  0.13492729313E+02  0.23900412650E+03  0.24135902181E+03  0.10000000000E+01 0.  0.
<mgrwt>
<rscale>  0 0.12500154E+03</rscale>
<asrwt>0</asrwt>
<pdfrwt beam="2">  1        4 0.23055833E-02 0.12500154E+03</pdfrwt>
<pdfrwt beam="1">  1       -4 0.40101740E-01 0.12500154E+03</pdfrwt>
<totfact> 0.78756063E+03</totfact>
</mgrwt>
</event>
<event>
 5    1  0.3398872E-002  0.1249975E+03  0.7818608E-02  0.1235073E+00
         -4   -1    0    0    0  501 -0.00000000000E+00  0.00000000000E+00  0.42178454194E+03  0.42178645393E+03  0.12700000000E+01 0.  1.
          4   -1    0    0  501    0  0.00000000000E+00 -0.00000000000E+00 -0.92153846692E+01  0.93024843241E+01  0.12700000000E+01 0.  1.
         25    2    1    2    0    0  0.00000000000E+00  0.00000000000E+00  0.41256915727E+03  0.43108893826E+03  0.12499745259E+03 0.  0.
    9000005    1    3    3    0    0  0.24246807503E+02  0.54132709322E+02  0.13845370413E+03  0.15062764049E+03  0.10000000000E+01 0.  0.
    9000005    1    3    3    0    0 -0.24246807503E+02 -0.54132709322E+02  0.27411545315E+03  0.28046129777E+03  0.10000000000E+01 0.  0.
<mgrwt>
<rscale>  0 0.12499745E+03</rscale>
<asrwt>0</asrwt>
<pdfrwt beam="2">  1        4 0.14245984E-02 0.12499745E+03</pdfrwt>
<pdfrwt beam="1">  1       -4 0.64896783E-01 0.12499745E+03</pdfrwt>
<totfact> 0.61640866E+03</totfact>
</mgrwt>
</event>
<event>
 5    1  0.3398872E-002  0.1249984E+03  0.7818608E-02  0.1235072E+00
         -4   -1    0    0    0  501 -0.00000000000E+00  0.00000000000E+00  0.94950615769E+02  0.94959108752E+02  0.12700000000E+01 0.  1.
          4   -1    0    0  501    0  0.00000000000E+00 -0.00000000000E+00 -0.41118620215E+02  0.41138228309E+02  0.12700000000E+01 0.  1.
         25    2    1    2    0    0  0.00000000000E+00  0.00000000000E+00  0.53831995554E+02  0.13609733706E+03  0.12499840563E+03 0.  0.
    9000005    1    3    3    0    0  0.16211478416E+02 -0.28727695354E+02 -0.30872717037E+02  0.45190896982E+02  0.10000000000E+01 0.  0.
    9000005    1    3    3    0    0 -0.16211478416E+02  0.28727695354E+02  0.84704712590E+02  0.90906440079E+02  0.10000000000E+01 0.  0.
<mgrwt>
<rscale>  0 0.12499841E+03</rscale>
<asrwt>0</asrwt>
<pdfrwt beam="2">  1        4 0.63281032E-02 0.12499841E+03</pdfrwt>
<pdfrwt beam="1">  1       -4 0.14609949E-01 0.12499841E+03</pdfrwt>
<totfact> 0.10215361E+04</totfact>
</mgrwt>
</event>
<event>
 5    1  0.3398872E-002  0.1249849E+03  0.7818608E-02  0.1235093E+00
          4   -1    0    0  501    0  0.00000000000E+00  0.00000000000E+00  0.63648667002E+02  0.63661336077E+02  0.12700000000E+01 0. -1.
         -4   -1    0    0    0  501 -0.00000000000E+00 -0.00000000000E+00 -0.61331932841E+02  0.61345080374E+02  0.12700000000E+01 0. -1.
         25    2    1    2    0    0  0.00000000000E+00  0.00000000000E+00  0.23167341601E+01  0.12500641645E+03  0.12498494668E+03 0.  0.
    9000005    1    3    3    0    0 -0.79742335959E-01  0.24739331560E+02 -0.56229780830E+02  0.61439638159E+02  0.10000000000E+01 0.  0.
    9000005    1    3    3    0    0  0.79742335959E-01 -0.24739331560E+02  0.58546514990E+02  0.63566778292E+02  0.10000000000E+01 0.  0.
<mgrwt>
<rscale>  0 0.12498495E+03</rscale>
<asrwt>0</asrwt>
<pdfrwt beam="1">  1        4 0.97940885E-02 0.12498495E+03</pdfrwt>
<pdfrwt beam="2">  1       -4 0.94376679E-02 0.12498495E+03</pdfrwt>
<totfact> 0.10456280E+04</totfact>
</mgrwt>
</event>
<event>
 5    1  0.3398872E-002  0.1249982E+03  0.7818608E-02  0.1235072E+00
         -4   -1    0    0    0  501 -0.00000000000E+00  0.00000000000E+00  0.11992788334E+03  0.11993460761E+03  0.12700000000E+01 0. -1.
          4   -1    0    0  501    0  0.00000000000E+00 -0.00000000000E+00 -0.32550714275E+02  0.32575480039E+02  0.12700000000E+01 0. -1.
         25    2    1    2    0    0  0.00000000000E+00  0.00000000000E+00  0.87377169066E+02  0.15251008765E+03  0.12499822863E+03 0.  0.
    9000005    1    3    3    0    0  0.51128822307E+02  0.26715109877E+02  0.14373569520E+02  0.59459675974E+02  0.10000000000E+01 0.  0.
    9000005    1    3    3    0    0 -0.51128822307E+02 -0.26715109877E+02  0.73003599545E+02  0.93050411675E+02  0.10000000000E+01 0.  0.
<mgrwt>
<rscale>  0 0.12499823E+03</rscale>
<asrwt>0</asrwt>
<pdfrwt beam="2">  1        4 0.50102246E-02 0.12499823E+03</pdfrwt>
<pdfrwt beam="1">  1       -4 0.18452866E-01 0.12499823E+03</pdfrwt>
<totfact> 0.98809621E+03</totfact>
</mgrwt>
</event>
<event>
 5    1  0.3398872E-002  0.1250002E+03  0.7818608E-02  0.1235069E+00
          4   -1    0    0  501    0  0.00000000000E+00  0.00000000000E+00  0.10967254620E+04  0.10967261973E+04  0.12700000000E+01 0.  1.
         -4   -1    0    0    0  501 -0.00000000000E+00 -0.00000000000E+00 -0.34477828522E+01  0.36742491200E+01  0.12700000000E+01 0.  1.
         25    2    1    2    0    0  0.00000000000E+00  0.00000000000E+00  0.10932776791E+04  0.11004004464E+04  0.12500023525E+03 0.  0.
    9000005    1    3    3    0    0  0.11559677583E+02 -0.19245094532E+02  0.10600439127E+04  0.10602820836E+04  0.10000000000E+01 0.  0.
    9000005    1    3    3    0    0 -0.11559677583E+02  0.19245094532E+02  0.33233766373E+02  0.40118362837E+02  0.10000000000E+01 0.  0.
<mgrwt>
<rscale>  0 0.12500024E+03</rscale>
<asrwt>0</asrwt>
<pdfrwt beam="1">  1        4 0.16874472E+00 0.12500024E+03</pdfrwt>
<pdfrwt beam="2">  1       -4 0.54790436E-03 0.12500024E+03</pdfrwt>
<totfact> 0.27471482E+03</totfact>
</mgrwt>
</event>
<event>
 5    1  0.3398872E-002  0.1250015E+03  0.7818608E-02  0.1235067E+00
          4   -1    0    0  501    0  0.00000000000E+00  0.00000000000E+00  0.28337984006E+02  0.28366428001E+02  0.12700000000E+01 0. -1.
         -4   -1    0    0    0  501 -0.00000000000E+00 -0.00000000000E+00 -0.13774787027E+03  0.13775372469E+03  0.12700000000E+01 0. -1.
         25    2    1    2    0    0  0.00000000000E+00  0.00000000000E+00 -0.10940988627E+03  0.16612015269E+03  0.12500152765E+03 0.  0.
    9000005    1    3    3    0    0 -0.42613950341E+02  0.42298328729E+02 -0.31677424819E+02  0.67893715615E+02  0.10000000000E+01 0.  0.
    9000005    1    3    3    0    0  0.42613950341E+02 -0.42298328729E+02 -0.77732461449E+02  0.98226437072E+02  0.10000000000E+01 0.  0.
<mgrwt>
<rscale>  0 0.12500153E+03</rscale>
<asrwt>0</asrwt>
<pdfrwt beam="1">  1        4 0.43623283E-02 0.12500153E+03</pdfrwt>
<pdfrwt beam="2">  1       -4 0.21194618E-01 0.12500153E+03</pdfrwt>
<totfact> 0.96172373E+03</totfact>
</mgrwt>
</event>
<event>
 5    1  0.3398872E-002  0.1250042E+03  0.7818608E-02  0.1235063E+00
          4   -1    0    0  501    0  0.00000000000E+00  0.00000000000E+00  0.48740452632E+01  0.50367863989E+01  0.12700000000E+01 0.  1.
         -4   -1    0    0    0  501 -0.00000000000E+00 -0.00000000000E+00 -0.78816818139E+03  0.78816920458E+03  0.12700000000E+01 0.  1.
         25    2    1    2    0    0  0.00000000000E+00  0.00000000000E+00 -0.78329413612E+03  0.79320599098E+03  0.12500416170E+03 0.  0.
    9000005    1    3    3    0    0 -0.30327953197E+02 -0.51356806474E+02 -0.27323982668E+03  0.27967536395E+03  0.10000000000E+01 0.  0.
    9000005    1    3    3    0    0  0.30327953197E+02  0.51356806474E+02 -0.51005430945E+03  0.51353062703E+03  0.10000000000E+01 0.  0.
<mgrwt>
<rscale>  0 0.12500416E+03</rscale>
<asrwt>0</asrwt>
<pdfrwt beam="1">  1        4 0.76245100E-03 0.12500416E+03</pdfrwt>
<pdfrwt beam="2">  1       -4 0.12126914E+00 0.12500416E+03</pdfrwt>
<totfact> 0.38566355E+03</totfact>
</mgrwt>
</event>
<event>
 4    1  0.3398872E-002  0.1251677E+03  0.7818608E-02  0.1234807E+00
         -4   -1    0    0    0  501 -0.00000000000E+00  0.00000000000E+00  0.14941392368E+02  0.14995269450E+02  0.12700000000E+01 0. -1.
          4   -1    0    0  501    0  0.00000000000E+00 -0.00000000000E+00 -0.26161300655E+03  0.26161608914E+03  0.12700000000E+01 0. -1.
    9000005    1    1    2    0    0 -0.34172347311E+00  0.26773568167E+02  0.16530025336E+01  0.26845356110E+02  0.10000000000E+01 0.  0.
    9000005    1    1    2    0    0  0.34172347311E+00 -0.26773568167E+02 -0.24832461672E+03  0.24976600248E+03  0.10000000000E+01 0.  0.
<mgrwt>
<rscale>  0 0.12516772E+03</rscale>
<asrwt>0</asrwt>
<pdfrwt beam="2">  1        4 0.40252533E-01 0.12516772E+03</pdfrwt>
<pdfrwt beam="1">  1       -4 0.23030575E-02 0.12516772E+03</pdfrwt>
<totfact> 0.78337079E+03</totfact>
</mgrwt>
</event>
<event>
 5    1  0.3398872E-002  0.1249998E+03  0.7818608E-02  0.1235070E+00
          4   -1    0    0  501    0  0.00000000000E+00  0.00000000000E+00  0.26723670339E+02  0.26753830686E+02  0.12700000000E+01 0.  1.
         -4   -1    0    0    0  501 -0.00000000000E+00 -0.00000000000E+00 -0.14605607057E+03  0.14606159197E+03  0.12700000000E+01 0.  1.
         25    2    1    2    0    0  0.00000000000E+00  0.00000000000E+00 -0.11933240023E+03  0.17281542266E+03  0.12499979426E+03 0.  0.
    9000005    1    3    3    0    0 -0.56366937872E+02  0.26773939074E+01 -0.96784813170E+02  0.11203883337E+03  0.10000000000E+01 0.  0.
    9000005    1    3    3    0    0  0.56366937872E+02 -0.26773939074E+01 -0.22547587060E+02  0.60776589287E+02  0.10000000000E+01 0.  0.
<mgrwt>
<rscale>  0 0.12499979E+03</rscale>
<asrwt>0</asrwt>
<pdfrwt beam="1">  1        4 0.41140787E-02 0.12499979E+03</pdfrwt>
<pdfrwt beam="2">  1       -4 0.22472909E-01 0.12499979E+03</pdfrwt>
<totfact> 0.94926909E+03</totfact>
</mgrwt>
</event>
<event>
 5    1  0.3398872E-002  0.1249983E+03  0.7818608E-02  0.1235072E+00
         -4   -1    0    0    0  501 -0.00000000000E+00  0.00000000000E+00  0.12085311073E+02  0.12151857624E+02  0.12700000000E+01 0.  1.
          4   -1    0    0  501    0  0.00000000000E+00 -0.00000000000E+00 -0.32225889902E+03  0.32226140150E+03  0.12700000000E+01 0.  1.
         25    2    1    2    0    0  0.00000000000E+00  0.00000000000E+00 -0.31017358795E+03  0.33441325913E+03  0.12499829286E+03 0.  0.
    9000005    1    3    3    0    0  0.82264262680E+01 -0.44791480250E+02 -0.40602368611E+02  0.61020514001E+02  0.10000000000E+01 0.  0.
    9000005    1    3    3    0    0 -0.82264262680E+01  0.44791480250E+02 -0.26957121934E+03  0.27339274513E+03  0.10000000000E+01 0.  0.
<mgrwt>
<rscale>  0 0.12499829E+03</rscale>
<asrwt>0</asrwt>
<pdfrwt beam="2">  1        4 0.49583597E-01 0.12499829E+03</pdfrwt>
<pdfrwt beam="1">  1       -4 0.18645903E-02 0.12499829E+03</pdfrwt>
<totfact> 0.71476732E+03</totfact>
</mgrwt>
</event>
<event>
 5    1  0.3398872E-002  0.1250012E+03  0.7818608E-02  0.1235067E+00
          4   -1    0    0  501    0  0.00000000000E+00  0.00000000000E+00  0.84978609928E+03  0.84978704828E+03  0.12700000000E+01 0.  1.
         -4   -1    0    0    0  501 -0.00000000000E+00 -0.00000000000E+00 -0.45081451795E+01  0.46836175078E+01  0.12700000000E+01 0.  1.
         25    2    1    2    0    0  0.00000000000E+00  0.00000000000E+00  0.84527795410E+03  0.85447066579E+03  0.12500119603E+03 0.  0.
    9000005    1    3    3    0    0 -0.74698684800E+01 -0.26261637425E+02  0.80689118814E+03  0.80735361648E+03  0.10000000000E+01 0.  0.
    9000005    1    3    3    0    0  0.74698684800E+01  0.26261637425E+02  0.38386765955E+02  0.47117049312E+02  0.10000000000E+01 0.  0.
<mgrwt>
<rscale>  0 0.12500120E+03</rscale>
<asrwt>0</asrwt>
<pdfrwt beam="1">  1        4 0.13075001E+00 0.12500120E+03</pdfrwt>
<pdfrwt beam="2">  1       -4 0.70713104E-03 0.12500120E+03</pdfrwt>
<totfact> 0.35944104E+03</totfact>
</mgrwt>
</event>
<event>
 5    1  0.3398872E-002  0.1250029E+03  0.7818608E-02  0.1235065E+00
         -4   -1    0    0    0  501 -0.00000000000E+00  0.00000000000E+00  0.22319717056E+02  0.22355819588E+02  0.12700000000E+01 0. -1.
          4   -1    0    0  501    0  0.00000000000E+00 -0.00000000000E+00 -0.17484167214E+03  0.17484628454E+03  0.12700000000E+01 0. -1.
         25    2    1    2    0    0  0.00000000000E+00  0.00000000000E+00 -0.15252195508E+03  0.19720210413E+03  0.12500289232E+03 0.  0.
    9000005    1    3    3    0    0 -0.31595502171E+02  0.22056661969E+00 -0.16132030483E+03  0.16438845810E+03  0.10000000000E+01 0.  0.
    9000005    1    3    3    0    0  0.31595502171E+02 -0.22056661969E+00  0.87983497453E+01  0.32813646023E+02  0.10000000000E+01 0.  0.
<mgrwt>
<rscale>  0 0.12500289E+03</rscale>
<asrwt>0</asrwt>
<pdfrwt beam="2">  1        4 0.26901850E-01 0.12500289E+03</pdfrwt>
<pdfrwt beam="1">  1       -4 0.34369347E-02 0.12500289E+03</pdfrwt>
<totfact> 0.90603187E+03</totfact>
</mgrwt>
</event>
<event>
 5    1  0.3398872E-002  0.1249973E+03  0.7818608E-02  0.1235074E+00
         -4   -1    0    0    0  501 -0.00000000000E+00  0.00000000000E+00  0.15166234115E+04  0.15166239432E+04  0.12700000000E+01 0.  1.
          4   -1    0    0  501    0  0.00000000000E+00 -0.00000000000E+00 -0.24183856935E+01  0.27315726903E+01  0.12700000000E+01 0.  1.
         25    2    1    2    0    0  0.00000000000E+00  0.00000000000E+00  0.15142050258E+04  0.15193555159E+04  0.12499729442E+03 0.  0.
    9000005    1    3    3    0    0  0.22747553298E+02 -0.35561880837E+02  0.19704582692E+03  0.20151961805E+03  0.10000000000E+01 0.  0.
    9000005    1    3    3    0    0 -0.22747553298E+02  0.35561880837E+02  0.13171591989E+04  0.13178358979E+04  0.10000000000E+01 0.  0.
<mgrwt>
<rscale>  0 0.12499729E+03</rscale>
<asrwt>0</asrwt>
<pdfrwt beam="2">  1        4 0.39619022E-03 0.12499729E+03</pdfrwt>
<pdfrwt beam="1">  1       -4 0.23335159E+00 0.12499729E+03</pdfrwt>
<totfact> 0.17553982E+03</totfact>
</mgrwt>
</event>
<event>
 5    1  0.3398872E-002  0.1250014E+03  0.7818608E-02  0.1235067E+00
          4   -1    0    0  501    0  0.00000000000E+00  0.00000000000E+00  0.41730655492E+03  0.41730848743E+03  0.12700000000E+01 0.  1.
         -4   -1    0    0    0  501 -0.00000000000E+00 -0.00000000000E+00 -0.93157908317E+01  0.94019603711E+01  0.12700000000E+01 0.  1.
         25    2    1    2    0    0  0.00000000000E+00  0.00000000000E+00  0.40799076409E+03  0.42671044780E+03  0.12500137071E+03 0.  0.
    9000005    1    3    3    0    0  0.21945528259E+02  0.19869379754E+02  0.16122699619E+02  0.33724470424E+02  0.10000000000E+01 0.  0.
    9000005    1    3    3    0    0 -0.21945528259E+02 -0.19869379754E+02  0.39186806447E+03  0.39298597737E+03  0.10000000000E+01 0.  0.
<mgrwt>
<rscale>  0 0.12500137E+03</rscale>
<asrwt>0</asrwt>
<pdfrwt beam="1">  1        4 0.64207767E-01 0.12500137E+03</pdfrwt>
<pdfrwt beam="2">  1       -4 0.14399761E-02 0.12500137E+03</pdfrwt>
<totfact> 0.62033439E+03</totfact>
</mgrwt>
</event>
<event>
 5    1  0.3398872E-002  0.1249992E+03  0.7818608E-02  0.1235070E+00
          4   -1    0    0  501    0  0.00000000000E+00  0.00000000000E+00  0.45512940365E+02  0.45530656054E+02  0.12700000000E+01 0.  1.
         -4   -1    0    0    0  501 -0.00000000000E+00 -0.00000000000E+00 -0.85787089976E+02  0.85796490060E+02  0.12700000000E+01 0.  1.
         25    2    1    2    0    0  0.00000000000E+00  0.00000000000E+00 -0.40274149611E+02  0.13132714611E+03  0.12499924872E+03 0.  0.
    9000005    1    3    3    0    0 -0.86188480107E+00  0.60879987637E+02 -0.53502330436E+01  0.61128886246E+02  0.10000000000E+01 0.  0.
    9000005    1    3    3    0    0  0.86188480107E+00 -0.60879987637E+02 -0.34923916568E+02  0.70198259868E+02  0.10000000000E+01 0.  0.
<mgrwt>
<rscale>  0 0.12499925E+03</rscale>
<asrwt>0</asrwt>
<pdfrwt beam="1">  1        4 0.70040767E-02 0.12499925E+03</pdfrwt>
<pdfrwt beam="2">  1       -4 0.13200100E-01 0.12499925E+03</pdfrwt>
<totfact> 0.10316256E+04</totfact>
</mgrwt>
</event>
<event>
 5    1  0.3398872E-002  0.1250070E+03  0.7818608E-02  0.1235058E+00
         -4   -1    0    0    0  501 -0.00000000000E+00  0.00000000000E+00  0.23749581646E+02  0.23783513793E+02  0.12700000000E+01 0.  1.
          4   -1    0    0  501    0  0.00000000000E+00 -0.00000000000E+00 -0.16434110821E+03  0.16434601531E+03  0.12700000000E+01 0.  1.
         25    2    1    2    0    0  0.00000000000E+00  0.00000000000E+00 -0.14059152656E+03  0.18812952910E+03  0.12500696932E+03 0.  0.
    9000005    1    3    3    0    0  0.56997743025E+02  0.32982186515E+01 -0.10854834290E+03  0.12265139095E+03  0.10000000000E+01 0.  0.
    9000005    1    3    3    0    0 -0.56997743025E+02 -0.32982186515E+01 -0.32043183665E+02  0.65478138150E+02  0.10000000000E+01 0.  0.
<mgrwt>
<rscale>  0 0.12500697E+03</rscale>
<asrwt>0</asrwt>
<pdfrwt beam="2">  1        4 0.25286234E-01 0.12500697E+03</pdfrwt>
<pdfrwt beam="1">  1       -4 0.36567695E-02 0.12500697E+03</pdfrwt>
<totfact> 0.92159402E+03</totfact>
</mgrwt>
</event>
<event>
 5    1  0.3398872E-002  0.1250250E+03  0.7818608E-02  0.1235030E+00
         -4   -1    0    0    0  501 -0.00000000000E+00  0.00000000000E+00  0.16254325402E+04  0.16254330363E+04  0.12700000000E+01 0. -1.
          4   -1    0    0  501    0  0.00000000000E+00 -0.00000000000E+00 -0.22359175579E+01  0.25714251546E+01  0.12700000000E+01 0. -1.
         25    2    1    2    0    0  0.00000000000E+00  0.00000000000E+00  0.16231966226E+04  0.16280044615E+04  0.12502500112E+03 0.  0.
    9000005    1    3    3    0    0  0.21115541151E+01 -0.75666242608E+01  0.41540393739E+01  0.89425112024E+01  0.10000000000E+01 0.  0.
    9000005    1    3    3    0    0 -0.21115541151E+01  0.75666242608E+01  0.16190425833E+04  0.16190619503E+04  0.10000000000E+01 0.  0.
<mgrwt>
<rscale>  0 0.12502500E+03</rscale>
<asrwt>0</asrwt>
<pdfrwt beam="2">  1        4 0.36983333E-03 0.12502500E+03</pdfrwt>
<pdfrwt beam="1">  1       -4 0.25009268E+00 0.12502500E+03</pdfrwt>
<totfact> 0.15536638E+03</totfact>
</mgrwt>
</event>
<event>
 5    1  0.3398872E-002  0.1250051E+03  0.7818608E-02  0.1235061E+00
          4   -1    0    0  501    0  0.00000000000E+00  0.00000000000E+00  0.43301129127E+02  0.43319749350E+02  0.12700000000E+01 0. -1.
         -4   -1    0    0    0  501 -0.00000000000E+00 -0.00000000000E+00 -0.90176106449E+02  0.90185049062E+02  0.12700000000E+01 0. -1.
         25    2    1    2    0    0  0.00000000000E+00  0.00000000000E+00 -0.46874977322E+02  0.13350479841E+03  0.12500507070E+03 0.  0.
    9000005    1    3    3    0    0 -0.17090931483E+02  0.33660760629E+02  0.29752741952E+02  0.48076734485E+02  0.10000000000E+01 0.  0.
    9000005    1    3    3    0    0  0.17090931483E+02 -0.33660760629E+02 -0.76627719274E+02  0.85428063927E+02  0.10000000000E+01 0.  0.
<mgrwt>
<rscale>  0 0.12500507E+03</rscale>
<asrwt>0</asrwt>
<pdfrwt beam="1">  1        4 0.66638324E-02 0.12500507E+03</pdfrwt>
<pdfrwt beam="2">  1       -4 0.13875367E-01 0.12500507E+03</pdfrwt>
<totfact> 0.10268508E+04</totfact>
</mgrwt>
</event>
<event>
 4    1  0.3398872E-002  0.1250644E+03  0.7818608E-02  0.1234969E+00
          4   -1    0    0  501    0  0.00000000000E+00  0.00000000000E+00  0.31219502268E+02  0.31245323200E+02  0.12700000000E+01 0. -1.
         -4   -1    0    0    0  501 -0.00000000000E+00 -0.00000000000E+00 -0.12517031527E+03  0.12517675792E+03  0.12700000000E+01 0. -1.
    9000005    1    1    2    0    0  0.41525986984E+02  0.38043204713E+02 -0.80943431059E+02  0.98613041995E+02  0.10000000000E+01 0.  0.
    9000005    1    1    2    0    0 -0.41525986984E+02 -0.38043204713E+02 -0.13007381938E+02  0.57809039126E+02  0.10000000000E+01 0.  0.
<mgrwt>
<rscale>  0 0.12506443E+03</rscale>
<asrwt>0</asrwt>
<pdfrwt beam="1">  1        4 0.48054822E-02 0.12506443E+03</pdfrwt>
<pdfrwt beam="2">  1       -4 0.19259453E-01 0.12506443E+03</pdfrwt>
<totfact> 0.97895143E+03</totfact>
</mgrwt>
</event>
<event>
 5    1  0.3398872E-002  0.1249991E+03  0.7818608E-02  0.1235071E+00
         -4   -1    0    0    0  501 -0.00000000000E+00  0.00000000000E+00  0.14205688284E+02  0.14262344815E+02  0.12700000000E+01 0.  1.
          4   -1    0    0  501    0  0.00000000000E+00 -0.00000000000E+00 -0.27436854152E+03  0.27437148079E+03  0.12700000000E+01 0.  1.
         25    2    1    2    0    0  0.00000000000E+00  0.00000000000E+00 -0.26016285323E+03  0.28863382561E+03  0.12499910033E+03 0.  0.
    9000005    1    3    3    0    0  0.25259417273E+02 -0.21495517027E+02 -0.25237802721E+03  0.25455012086E+03  0.10000000000E+01 0.  0.
    9000005    1    3    3    0    0 -0.25259417273E+02  0.21495517027E+02 -0.77848260263E+01  0.34083704750E+02  0.10000000000E+01 0.  0.
<mgrwt>
<rscale>  0 0.12499910E+03</rscale>
<asrwt>0</asrwt>
<pdfrwt beam="2">  1        4 0.42215125E-01 0.12499910E+03</pdfrwt>
<pdfrwt beam="1">  1       -4 0.21900750E-02 0.12499910E+03</pdfrwt>
<totfact> 0.77048616E+03</totfact>
</mgrwt>
</event>
<event>
 5    1  0.3398872E-002  0.1250196E+03  0.7818608E-02  0.1235039E+00
         -4   -1    0    0    0  501 -0.00000000000E+00  0.00000000000E+00  0.14124524329E+03  0.14125095275E+03  0.12700000000E+01 0. -1.
          4   -1    0    0  501    0  0.00000000000E+00 -0.00000000000E+00 -0.27643608111E+02  0.27672765843E+02  0.12700000000E+01 0. -1.
         25    2    1    2    0    0  0.00000000000E+00  0.00000000000E+00  0.11360163518E+03  0.16892371859E+03  0.12501956322E+03 0.  0.
    9000005    1    3    3    0    0  0.45668924373E+02  0.42460248564E+02  0.51076311148E+02  0.80612113991E+02  0.10000000000E+01 0.  0.
    9000005    1    3    3    0    0 -0.45668924373E+02 -0.42460248564E+02  0.62525324030E+02  0.88311604598E+02  0.10000000000E+01 0.  0.
<mgrwt>
<rscale>  0 0.12501956E+03</rscale>
<asrwt>0</asrwt>
<pdfrwt beam="2">  1        4 0.42555449E-02 0.12501956E+03</pdfrwt>
<pdfrwt beam="1">  1       -4 0.21732719E-01 0.12501956E+03</pdfrwt>
<totfact> 0.95607413E+03</totfact>
</mgrwt>
</event>
<event>
 5    1  0.3398872E-002  0.1250006E+03  0.7818608E-02  0.1235068E+00
         -4   -1    0    0    0  501 -0.00000000000E+00  0.00000000000E+00  0.12545094687E+03  0.12545737511E+03  0.12700000000E+01 0.  1.
          4   -1    0    0  501    0  0.00000000000E+00 -0.00000000000E+00 -0.31117802865E+02  0.31143708115E+02  0.12700000000E+01 0.  1.
         25    2    1    2    0    0  0.00000000000E+00  0.00000000000E+00  0.94333144000E+02  0.15660108322E+03  0.12500062884E+03 0.  0.
    9000005    1    3    3    0    0 -0.26283106820E+02 -0.26380768124E+02  0.11003856403E+03  0.11617328525E+03  0.10000000000E+01 0.  0.
    9000005    1    3    3    0    0  0.26283106820E+02  0.26380768124E+02 -0.15705420031E+02  0.40427797977E+02  0.10000000000E+01 0.  0.
<mgrwt>
<rscale>  0 0.12500063E+03</rscale>
<asrwt>0</asrwt>
<pdfrwt beam="2">  1        4 0.47898415E-02 0.12500063E+03</pdfrwt>
<pdfrwt beam="1">  1       -4 0.19302633E-01 0.12500063E+03</pdfrwt>
<totfact> 0.98000714E+03</totfact>
</mgrwt>
</event>
<event>
 5    1  0.3398872E-002  0.1249977E+03  0.7818608E-02  0.1235073E+00
          4   -1    0    0  501    0  0.00000000000E+00  0.00000000000E+00  0.20442528036E+02  0.20481939666E+02  0.12700000000E+01 0. -1.
         -4   -1    0    0    0  501 -0.00000000000E+00 -0.00000000000E+00 -0.19085182494E+03  0.19085605042E+03  0.12700000000E+01 0. -1.
         25    2    1    2    0    0  0.00000000000E+00  0.00000000000E+00 -0.17040929691E+03  0.21133799009E+03  0.12499767031E+03 0.  0.
    9000005    1    3    3    0    0  0.29134478075E+02 -0.42397999446E+02 -0.25220552324E+02  0.57301696566E+02  0.10000000000E+01 0.  0.
    9000005    1    3    3    0    0 -0.29134478075E+02  0.42397999446E+02 -0.14518874458E+03  0.15403629352E+03  0.10000000000E+01 0.  0.
<mgrwt>
<rscale>  0 0.12499767E+03</rscale>
<asrwt>0</asrwt>
<pdfrwt beam="1">  1        4 0.31483611E-02 0.12499767E+03</pdfrwt>
<pdfrwt beam="2">  1       -4 0.29365175E-01 0.12499767E+03</pdfrwt>
<totfact> 0.88262432E+03</totfact>
</mgrwt>
</event>
<event>
 5    1  0.3398872E-002  0.1250015E+03  0.7818608E-02  0.1235067E+00
          4   -1    0    0  501    0  0.00000000000E+00  0.00000000000E+00  0.14999625222E+02  0.15053293886E+02  0.12700000000E+01 0.  1.
         -4   -1    0    0    0  501 -0.00000000000E+00 -0.00000000000E+00 -0.25990923620E+03  0.25991233900E+03  0.12700000000E+01 0.  1.
         25    2    1    2    0    0  0.00000000000E+00  0.00000000000E+00 -0.24490961098E+03  0.27496563288E+03  0.12500152686E+03 0.  0.
    9000005    1    3    3    0    0  0.60267936861E+02  0.14956974146E+01 -0.86250946954E+02  0.10523633961E+03  0.10000000000E+01 0.  0.
    9000005    1    3    3    0    0 -0.60267936861E+02 -0.14956974146E+01 -0.15865866403E+03  0.16972929327E+03  0.10000000000E+01 0.  0.
<mgrwt>
<rscale>  0 0.12500153E+03</rscale>
<asrwt>0</asrwt>
<pdfrwt beam="1">  1        4 0.23120019E-02 0.12500153E+03</pdfrwt>
<pdfrwt beam="2">  1       -4 0.39990400E-01 0.12500153E+03</pdfrwt>
<totfact> 0.78847720E+03</totfact>
</mgrwt>
</event>
<event>
 5    1  0.3398872E-002  0.1250014E+03  0.7818608E-02  0.1235067E+00
          4   -1    0    0  501    0  0.00000000000E+00  0.00000000000E+00  0.10317581806E+03  0.10318363404E+03  0.12700000000E+01 0.  1.
         -4   -1    0    0    0  501 -0.00000000000E+00 -0.00000000000E+00 -0.37841097503E+02  0.37862402990E+02  0.12700000000E+01 0.  1.
         25    2    1    2    0    0  0.00000000000E+00  0.00000000000E+00  0.65334720560E+02  0.14104603703E+03  0.12500143539E+03 0.  0.
    9000005    1    3    3    0    0 -0.93699109746E+01  0.14203405171E+02 -0.35182437031E+02  0.39093935918E+02  0.10000000000E+01 0.  0.
    9000005    1    3    3    0    0  0.93699109746E+01 -0.14203405171E+02  0.10051715759E+03  0.10195210111E+03  0.10000000000E+01 0.  0.
<mgrwt>
<rscale>  0 0.12500144E+03</rscale>
<asrwt>0</asrwt>
<pdfrwt beam="1">  1        4 0.15875443E-01 0.12500144E+03</pdfrwt>
<pdfrwt beam="2">  1       -4 0.58239475E-02 0.12500144E+03</pdfrwt>
<totfact> 0.10111625E+04</totfact>
</mgrwt>
</event>
<event>
 5    1  0.3398872E-002  0.1249911E+03  0.7818608E-02  0.1235083E+00
         -4   -1    0    0    0  501 -0.00000000000E+00  0.00000000000E+00  0.20388677081E+03  0.20389072615E+03  0.12700000000E+01 0. -1.
          4   -1    0    0  501    0  0.00000000000E+00 -0.00000000000E+00 -0.19130990342E+02  0.19173098119E+02  0.12700000000E+01 0. -1.
         25    2    1    2    0    0  0.00000000000E+00  0.00000000000E+00  0.18475578046E+03  0.22306382427E+03  0.12499108481E+03 0.  0.
    9000005    1    3    3    0    0 -0.47504905023E+01 -0.34845439833E+02  0.19791488563E+00  0.35182538389E+02  0.10000000000E+01 0.  0.
    9000005    1    3    3    0    0  0.47504905023E+01  0.34845439833E+02  0.18455786558E+03  0.18788128588E+03  0.10000000000E+01 0.  0.
<mgrwt>
<rscale>  0 0.12499108E+03</rscale>
<asrwt>0</asrwt>
<pdfrwt beam="2">  1        4 0.29467726E-02 0.12499108E+03</pdfrwt>
<pdfrwt beam="1">  1       -4 0.31370739E-01 0.12499108E+03</pdfrwt>
<totfact> 0.86403048E+03</totfact>
</mgrwt>
</event>
<event>
 5    1  0.3398872E-002  0.1250002E+03  0.7818608E-02  0.1235069E+00
          4   -1    0    0  501    0  0.00000000000E+00  0.00000000000E+00  0.45094604923E+01  0.46848835559E+01  0.12700000000E+01 0.  1.
         -4   -1    0    0    0  501 -0.00000000000E+00 -0.00000000000E+00 -0.84953449916E+03  0.84953544844E+03  0.12700000000E+01 0.  1.
         25    2    1    2    0    0  0.00000000000E+00  0.00000000000E+00 -0.84502503867E+03  0.85422033200E+03  0.12500023851E+03 0.  0.
    9000005    1    3    3    0    0  0.28454493888E+02  0.53195796245E+02 -0.53392861716E+03  0.53732692021E+03  0.10000000000E+01 0.  0.
    9000005    1    3    3    0    0 -0.28454493888E+02 -0.53195796245E+02 -0.31109642151E+03  0.31689341179E+03  0.10000000000E+01 0.  0.
<mgrwt>
<rscale>  0 0.12500024E+03</rscale>
<asrwt>0</asrwt>
<pdfrwt beam="1">  1        4 0.70733093E-03 0.12500024E+03</pdfrwt>
<pdfrwt beam="2">  1       -4 0.13071106E+00 0.12500024E+03</pdfrwt>
<totfact> 0.35955087E+03</totfact>
</mgrwt>
</event>
<event>
 5    1  0.3398872E-002  0.1249978E+03  0.7818608E-02  0.1235073E+00
          4   -1    0    0  501    0  0.00000000000E+00  0.00000000000E+00  0.70948270521E+02  0.70959636343E+02  0.12700000000E+01 0. -1.
         -4   -1    0    0    0  501 -0.00000000000E+00 -0.00000000000E+00 -0.55032663100E+02  0.55047315174E+02  0.12700000000E+01 0. -1.
         25    2    1    2    0    0  0.00000000000E+00  0.00000000000E+00  0.15915607421E+02  0.12600695152E+03  0.12499778107E+03 0.  0.
    9000005    1    3    3    0    0  0.43329315123E+02 -0.44642578771E+02  0.13897908774E+02  0.63753754843E+02  0.10000000000E+01 0.  0.
    9000005    1    3    3    0    0 -0.43329315123E+02  0.44642578771E+02  0.20176986476E+01  0.62253196674E+02  0.10000000000E+01 0.  0.
<mgrwt>
<rscale>  0 0.12499778E+03</rscale>
<asrwt>0</asrwt>
<pdfrwt beam="1">  1        4 0.10917120E-01 0.12499778E+03</pdfrwt>
<pdfrwt beam="2">  1       -4 0.84685650E-02 0.12499778E+03</pdfrwt>
<totfact> 0.10431327E+04</totfact>
</mgrwt>
</event>
<event>
 5    1  0.3398872E-002  0.1249995E+03  0.7818608E-02  0.1235070E+00
          4   -1    0    0  501    0  0.00000000000E+00  0.00000000000E+00  0.81871266859E+02  0.81881116486E+02  0.12700000000E+01 0.  1.
         -4   -1    0    0    0  501 -0.00000000000E+00 -0.00000000000E+00 -0.47690561779E+02  0.47707468836E+02  0.12700000000E+01 0.  1.
         25    2    1    2    0    0  0.00000000000E+00  0.00000000000E+00  0.34180705080E+02  0.12958858532E+03  0.12499952338E+03 0.  0.
    9000005    1    3    3    0    0 -0.61287226168E+02 -0.12154641507E+02  0.18299716822E+02  0.65113278502E+02  0.10000000000E+01 0.  0.
    9000005    1    3    3    0    0  0.61287226168E+02  0.12154641507E+02  0.15880988258E+02  0.64475306820E+02  0.10000000000E+01 0.  0.
<mgrwt>
<rscale>  0 0.12499952E+03</rscale>
<asrwt>0</asrwt>
<pdfrwt beam="1">  1        4 0.12597638E-01 0.12499952E+03</pdfrwt>
<pdfrwt beam="2">  1       -4 0.73390678E-02 0.12499952E+03</pdfrwt>
<totfact> 0.10353428E+04</totfact>
</mgrwt>
</event>
<event>
 5    1  0.3398872E-002  0.1250002E+03  0.7818608E-02  0.1235069E+00
          4   -1    0    0  501    0  0.00000000000E+00  0.00000000000E+00  0.39746132614E+02  0.39766417462E+02  0.12700000000E+01 0. -1.
         -4   -1    0    0    0  501 -0.00000000000E+00 -0.00000000000E+00 -0.98230924826E+02  0.98239134220E+02  0.12700000000E+01 0. -1.
         25    2    1    2    0    0  0.00000000000E+00  0.00000000000E+00 -0.58484792212E+02  0.13800555168E+03  0.12500024550E+03 0.  0.
    9000005    1    3    3    0    0 -0.61049532957E+00  0.49484501724E+02 -0.71372519842E+02  0.86856923754E+02  0.10000000000E+01 0.  0.
    9000005    1    3    3    0    0  0.61049532957E+00 -0.49484501724E+02  0.12887727630E+02  0.51148627928E+02  0.10000000000E+01 0.  0.
<mgrwt>
<rscale>  0 0.12500025E+03</rscale>
<asrwt>0</asrwt>
<pdfrwt beam="1">  1        4 0.61169815E-02 0.12500025E+03</pdfrwt>
<pdfrwt beam="2">  1       -4 0.15114642E-01 0.12500025E+03</pdfrwt>
<totfact> 0.10175034E+04</totfact>
</mgrwt>
</event>
<event>
 5    1  0.3398872E-002  0.1250027E+03  0.7818608E-02  0.1235065E+00
          4   -1    0    0  501    0  0.00000000000E+00  0.00000000000E+00  0.12489469040E+03  0.12490114728E+03  0.12700000000E+01 0. -1.
         -4   -1    0    0    0  501 -0.00000000000E+00 -0.00000000000E+00 -0.31257529456E+02  0.31283319000E+02  0.12700000000E+01 0. -1.
         25    2    1    2    0    0  0.00000000000E+00  0.00000000000E+00  0.93637160948E+02  0.15618446628E+03  0.12500267835E+03 0.  0.
    9000005    1    3    3    0    0 -0.34610417705E+02 -0.50943742166E+02  0.60057523687E+02  0.86029367259E+02  0.10000000000E+01 0.  0.
    9000005    1    3    3    0    0  0.34610417705E+02  0.50943742166E+02  0.33579637260E+02  0.70155099018E+02  0.10000000000E+01 0.  0.
<mgrwt>
<rscale>  0 0.12500268E+03</rscale>
<asrwt>0</asrwt>
<pdfrwt beam="1">  1        4 0.19217048E-01 0.12500268E+03</pdfrwt>
<pdfrwt beam="2">  1       -4 0.48113312E-02 0.12500268E+03</pdfrwt>
<totfact> 0.98077567E+03</totfact>
</mgrwt>
</event>
<event>
 5    1  0.3398872E-002  0.1249991E+03  0.7818608E-02  0.1235071E+00
          4   -1    0    0  501    0  0.00000000000E+00  0.00000000000E+00  0.47881104884E+02  0.47897944684E+02  0.12700000000E+01 0.  1.
         -4   -1    0    0    0  501 -0.00000000000E+00 -0.00000000000E+00 -0.81545030539E+02  0.81554919567E+02  0.12700000000E+01 0.  1.
         25    2    1    2    0    0  0.00000000000E+00  0.00000000000E+00 -0.33663925655E+02  0.12945286425E+03  0.12499913669E+03 0.  0.
    9000005    1    3    3    0    0 -0.47448628767E+02 -0.48203560702E+00 -0.58945211182E+02  0.75677887467E+02  0.10000000000E+01 0.  0.
    9000005    1    3    3    0    0  0.47448628767E+02  0.48203560702E+00  0.25281285527E+02  0.53774976784E+02  0.10000000000E+01 0.  0.
<mgrwt>
<rscale>  0 0.12499914E+03</rscale>
<asrwt>0</asrwt>
<pdfrwt beam="1">  1        4 0.73683799E-02 0.12499914E+03</pdfrwt>
<pdfrwt beam="2">  1       -4 0.12547445E-01 0.12499914E+03</pdfrwt>
<totfact> 0.10356428E+04</totfact>
</mgrwt>
</event>
<event>
 5    1  0.3398872E-002  0.1250041E+03  0.7818608E-02  0.1235063E+00
          4   -1    0    0  501    0  0.00000000000E+00  0.00000000000E+00  0.41858715818E+02  0.41877977386E+02  0.12700000000E+01 0. -1.
         -4   -1    0    0    0  501 -0.00000000000E+00 -0.00000000000E+00 -0.93281003564E+02  0.93289648547E+02  0.12700000000E+01 0. -1.
         25    2    1    2    0    0  0.00000000000E+00  0.00000000000E+00 -0.51422287747E+02  0.13516762593E+03  0.12500414162E+03 0.  0.
    9000005    1    3    3    0    0 -0.16270921531E+02  0.21585201764E+02 -0.86638109550E+02  0.90762469386E+02  0.10000000000E+01 0.  0.
    9000005    1    3    3    0    0  0.16270921531E+02 -0.21585201764E+02  0.35215821803E+02  0.44405156547E+02  0.10000000000E+01 0.  0.
<mgrwt>
<rscale>  0 0.12500414E+03</rscale>
<asrwt>0</asrwt>
<pdfrwt beam="1">  1        4 0.64419491E-02 0.12500414E+03</pdfrwt>
<pdfrwt beam="2">  1       -4 0.14353070E-01 0.12500414E+03</pdfrwt>
<totfact> 0.10233583E+04</totfact>
</mgrwt>
</event>
<event>
 5    1  0.3398872E-002  0.1250043E+03  0.7818608E-02  0.1235062E+00
          4   -1    0    0  501    0  0.00000000000E+00  0.00000000000E+00  0.11656048725E+02  0.11725031850E+02  0.12700000000E+01 0. -1.
         -4   -1    0    0    0  501 -0.00000000000E+00 -0.00000000000E+00 -0.33409071055E+03  0.33409312441E+03  0.12700000000E+01 0. -1.
         25    2    1    2    0    0  0.00000000000E+00  0.00000000000E+00 -0.32243466182E+03  0.34581815626E+03  0.12500434413E+03 0.  0.
    9000005    1    3    3    0    0  0.11777944350E+02  0.43198686631E+02 -0.28182547035E+03  0.28536194953E+03  0.10000000000E+01 0.  0.
    9000005    1    3    3    0    0 -0.11777944350E+02 -0.43198686631E+02 -0.40609191472E+02  0.60456206726E+02  0.10000000000E+01 0.  0.
<mgrwt>
<rscale>  0 0.12500434E+03</rscale>
<asrwt>0</asrwt>
<pdfrwt beam="1">  1        4 0.17987306E-02 0.12500434E+03</pdfrwt>
<pdfrwt beam="2">  1       -4 0.51404056E-01 0.12500434E+03</pdfrwt>
<totfact> 0.70180327E+03</totfact>
</mgrwt>
</event>
<event>
 5    1  0.3398872E-002  0.1249966E+03  0.7818608E-02  0.1235075E+00
         -4   -1    0    0    0  501 -0.00000000000E+00  0.00000000000E+00  0.98645398325E+03  0.98645480077E+03  0.12700000000E+01 0.  1.
          4   -1    0    0  501    0  0.00000000000E+00 -0.00000000000E+00 -0.38570049194E+01  0.40607126158E+01  0.12700000000E+01 0.  1.
         25    2    1    2    0    0  0.00000000000E+00  0.00000000000E+00  0.98259697833E+03  0.99051551339E+03  0.12499664172E+03 0.  0.
    9000005    1    3    3    0    0 -0.48421967828E+02  0.23958502161E+02  0.74017103465E+03  0.74214072610E+03  0.10000000000E+01 0.  0.
    9000005    1    3    3    0    0  0.48421967828E+02 -0.23958502161E+02  0.24242594368E+03  0.24837478729E+03  0.10000000000E+01 0.  0.
<mgrwt>
<rscale>  0 0.12499664E+03</rscale>
<asrwt>0</asrwt>
<pdfrwt beam="2">  1        4 0.60911820E-03 0.12499664E+03</pdfrwt>
<pdfrwt beam="1">  1       -4 0.15177785E+00 0.12499664E+03</pdfrwt>
<totfact> 0.30921994E+03</totfact>
</mgrwt>
</event>
<event>
 5    1  0.3398872E-002  0.1249995E+03  0.7818608E-02  0.1235070E+00
          4   -1    0    0  501    0  0.00000000000E+00  0.00000000000E+00  0.22139746108E+03  0.22140110360E+03  0.12700000000E+01 0.  1.
         -4   -1    0    0    0  501 -0.00000000000E+00 -0.00000000000E+00 -0.17616812838E+02  0.17662530809E+02  0.12700000000E+01 0.  1.
         25    2    1    2    0    0  0.00000000000E+00  0.00000000000E+00  0.20378064824E+03  0.23906363440E+03  0.12499947478E+03 0.  0.
    9000005    1    3    3    0    0 -0.33768296844E+02 -0.25674748935E+02  0.14128363298E+02  0.44722491591E+02  0.10000000000E+01 0.  0.
    9000005    1    3    3    0    0  0.33768296844E+02  0.25674748935E+02  0.18965228495E+03  0.19434114281E+03  0.10000000000E+01 0.  0.
<mgrwt>
<rscale>  0 0.12499947E+03</rscale>
<asrwt>0</asrwt>
<pdfrwt beam="1">  1        4 0.34064947E-01 0.12499947E+03</pdfrwt>
<pdfrwt beam="2">  1       -4 0.27140757E-02 0.12499947E+03</pdfrwt>
<totfact> 0.83938001E+03</totfact>
</mgrwt>
</event>
<event>
 5    1  0.3398872E-002  0.1250185E+03  0.7818608E-02  0.1235040E+00
          4   -1    0    0  501    0  0.00000000000E+00  0.00000000000E+00  0.97422595880E+02  0.97430873382E+02  0.12700000000E+01 0.  1.
         -4   -1    0    0    0  501 -0.00000000000E+00 -0.00000000000E+00 -0.40087769728E+02  0.40107881791E+02  0.12700000000E+01 0.  1.
         25    2    1    2    0    0  0.00000000000E+00  0.00000000000E+00  0.57334826152E+02  0.13753875517E+03  0.12501850617E+03 0.  0.
    9000005    1    3    3    0    0 -0.26415714452E+02 -0.56629369802E+02  0.30114943801E+02  0.69372799672E+02  0.10000000000E+01 0.  0.
    9000005    1    3    3    0    0  0.26415714452E+02  0.56629369802E+02  0.27219882351E+02  0.68165955501E+02  0.10000000000E+01 0.  0.
<mgrwt>
<rscale>  0 0.12501851E+03</rscale>
<asrwt>0</asrwt>
<pdfrwt beam="1">  1        4 0.14990275E-01 0.12501851E+03</pdfrwt>
<pdfrwt beam="2">  1       -4 0.61695330E-02 0.12501851E+03</pdfrwt>
<totfact> 0.10180585E+04</totfact>
</mgrwt>
</event>
<event>
 5    1  0.3398872E-002  0.1250013E+03  0.7818608E-02  0.1235067E+00
         -4   -1    0    0    0  501 -0.00000000000E+00  0.00000000000E+00  0.14506581605E+03  0.14507137515E+03  0.12700000000E+01 0.  1.
          4   -1    0    0  501    0  0.00000000000E+00 -0.00000000000E+00 -0.26906924645E+02  0.26936879809E+02  0.12700000000E+01 0.  1.
         25    2    1    2    0    0  0.00000000000E+00  0.00000000000E+00  0.11815889141E+03  0.17200825496E+03  0.12500126461E+03 0.  0.
    9000005    1    3    3    0    0 -0.43422441829E+01 -0.42658407871E+02  0.12163663038E+03  0.12897699289E+03  0.10000000000E+01 0.  0.
    9000005    1    3    3    0    0  0.43422441829E+01  0.42658407871E+02 -0.34777389651E+01  0.43031262065E+02  0.10000000000E+01 0.  0.
<mgrwt>
<rscale>  0 0.12500126E+03</rscale>
<asrwt>0</asrwt>
<pdfrwt beam="2">  1        4 0.41422587E-02 0.12500126E+03</pdfrwt>
<pdfrwt beam="1">  1       -4 0.22320550E-01 0.12500126E+03</pdfrwt>
<totfact> 0.95072947E+03</totfact>
</mgrwt>
</event>
<event>
 5    1  0.3398872E-002  0.1249992E+03  0.7818608E-02  0.1235071E+00
          4   -1    0    0  501    0  0.00000000000E+00  0.00000000000E+00  0.13803845872E+03  0.13804430081E+03  0.12700000000E+01 0.  1.
         -4   -1    0    0    0  501 -0.00000000000E+00 -0.00000000000E+00 -0.28277201304E+02  0.28305706378E+02  0.12700000000E+01 0.  1.
         25    2    1    2    0    0  0.00000000000E+00  0.00000000000E+00  0.10976125742E+03  0.16635000719E+03  0.12499916505E+03 0.  0.
    9000005    1    3    3    0    0 -0.67645184141E+01 -0.59880195736E+02  0.76901446170E+02  0.97704805275E+02  0.10000000000E+01 0.  0.
    9000005    1    3    3    0    0  0.67645184141E+01  0.59880195736E+02  0.32859811250E+02  0.68645201917E+02  0.10000000000E+01 0.  0.
<mgrwt>
<rscale>  0 0.12499917E+03</rscale>
<asrwt>0</asrwt>
<pdfrwt beam="1">  1        4 0.21239328E-01 0.12499917E+03</pdfrwt>
<pdfrwt beam="2">  1       -4 0.43529807E-02 0.12499917E+03</pdfrwt>
<totfact> 0.96134134E+03</totfact>
</mgrwt>
</event>
<event>
 5    1  0.3398872E-002  0.1250000E+03  0.7818608E-02  0.1235069E+00
         -4   -1    0    0    0  501 -0.00000000000E+00  0.00000000000E+00  0.15501177358E+03  0.15501697600E+03  0.12700000000E+01 0.  1.
          4   -1    0    0  501    0  0.00000000000E+00 -0.00000000000E+00 -0.25178054508E+02  0.25210064038E+02  0.12700000000E+01 0.  1.
         25    2    1    2    0    0  0.00000000000E+00  0.00000000000E+00  0.12983371907E+03  0.18022704004E+03  0.12499996541E+03 0.  0.
    9000005    1    3    3    0    0  0.37936831688E+02  0.17716905257E+02 -0.19709420370E+01  0.41928230859E+02  0.10000000000E+01 0.  0.
    9000005    1    3    3    0    0 -0.37936831688E+02 -0.17716905257E+02  0.13180466111E+03  0.13829880918E+03  0.10000000000E+01 0.  0.
<mgrwt>
<rscale>  0 0.12499997E+03</rscale>
<asrwt>0</asrwt>
<pdfrwt beam="2">  1        4 0.38764094E-02 0.12499997E+03</pdfrwt>
<pdfrwt beam="1">  1       -4 0.23850827E-01 0.12499997E+03</pdfrwt>
<totfact> 0.93576224E+03</totfact>
</mgrwt>
</event>
<event>
 5    1  0.3398872E-002  0.1250054E+03  0.7818608E-02  0.1235061E+00
          4   -1    0    0  501    0  0.00000000000E+00  0.00000000000E+00  0.40760313378E+03  0.40760511229E+03  0.12700000000E+01 0.  1.
         -4   -1    0    0    0  501 -0.00000000000E+00 -0.00000000000E+00 -0.95402075235E+01  0.96243680100E+01  0.12700000000E+01 0.  1.
         25    2    1    2    0    0  0.00000000000E+00  0.00000000000E+00  0.39806292626E+03  0.41722948030E+03  0.12500538378E+03 0.  0.
    9000005    1    3    3    0    0  0.43114544725E+02 -0.41800484189E+02  0.25678820172E+03  0.26371826821E+03  0.10000000000E+01 0.  0.
    9000005    1    3    3    0    0 -0.43114544725E+02  0.41800484189E+02  0.14127472454E+03  0.15351121209E+03  0.10000000000E+01 0.  0.
<mgrwt>
<rscale>  0 0.12500538E+03</rscale>
<asrwt>0</asrwt>
<pdfrwt beam="1">  1        4 0.62714783E-01 0.12500538E+03</pdfrwt>
<pdfrwt beam="2">  1       -4 0.14743507E-02 0.12500538E+03</pdfrwt>
<totfact> 0.62903407E+03</totfact>
</mgrwt>
</event>
<event>
 5    1  0.3398872E-002  0.1250004E+03  0.7818608E-02  0.1235069E+00
          4   -1    0    0  501    0  0.00000000000E+00  0.00000000000E+00  0.46555747405E+02  0.46573066427E+02  0.12700000000E+01 0. -1.
         -4   -1    0    0    0  501 -0.00000000000E+00 -0.00000000000E+00 -0.83867588099E+02  0.83877203301E+02  0.12700000000E+01 0. -1.
         25    2    1    2    0    0  0.00000000000E+00  0.00000000000E+00 -0.37311840694E+02  0.13045026973E+03  0.12500039766E+03 0.  0.
    9000005    1    3    3    0    0  0.59843188403E+02 -0.16740243714E+02 -0.25565135485E+02  0.67201332652E+02  0.10000000000E+01 0.  0.
    9000005    1    3    3    0    0 -0.59843188403E+02  0.16740243714E+02 -0.11746705209E+02  0.63248937075E+02  0.10000000000E+01 0.  0.
<mgrwt>
<rscale>  0 0.12500040E+03</rscale>
<asrwt>0</asrwt>
<pdfrwt beam="1">  1        4 0.71644945E-02 0.12500040E+03</pdfrwt>
<pdfrwt beam="2">  1       -4 0.12904778E-01 0.12500040E+03</pdfrwt>
<totfact> 0.10334792E+04</totfact>
</mgrwt>
</event>
<event>
 5    1  0.3398872E-002  0.1249878E+03  0.7818608E-02  0.1235088E+00
          4   -1    0    0  501    0  0.00000000000E+00  0.00000000000E+00  0.95564310816E+03  0.95564395204E+03  0.12700000000E+01 0. -1.
         -4   -1    0    0    0  501 -0.00000000000E+00 -0.00000000000E+00 -0.39872301500E+01  0.41846032391E+01  0.12700000000E+01 0. -1.
         25    2    1    2    0    0  0.00000000000E+00  0.00000000000E+00  0.95165587801E+03  0.95982855528E+03  0.12498778093E+03 0.  0.
    9000005    1    3    3    0    0 -0.16055508642E+02 -0.59735191187E+02  0.54383009703E+03  0.54733741591E+03  0.10000000000E+01 0.  0.
    9000005    1    3    3    0    0  0.16055508642E+02  0.59735191187E+02  0.40782578098E+03  0.41249113936E+03  0.10000000000E+01 0.  0.
<mgrwt>
<rscale>  0 0.12498778E+03</rscale>
<asrwt>0</asrwt>
<pdfrwt beam="1">  1        4 0.14703738E+00 0.12498778E+03</pdfrwt>
<pdfrwt beam="2">  1       -4 0.62866698E-03 0.12498778E+03</pdfrwt>
<totfact> 0.31978064E+03</totfact>
</mgrwt>
</event>
<event>
 5    1  0.3398872E-002  0.1249996E+03  0.7818608E-02  0.1235070E+00
         -4   -1    0    0    0  501 -0.00000000000E+00  0.00000000000E+00  0.30134255338E+03  0.30134522956E+03  0.12700000000E+01 0. -1.
          4   -1    0    0  501    0  0.00000000000E+00 -0.00000000000E+00 -0.12928883733E+02  0.12991109829E+02  0.12700000000E+01 0. -1.
         25    2    1    2    0    0  0.00000000000E+00  0.00000000000E+00  0.28841366965E+03  0.31433633939E+03  0.12499955768E+03 0.  0.
    9000005    1    3    3    0    0  0.53350899804E+02  0.59009633956E+01  0.63733206591E+02  0.83331035642E+02  0.10000000000E+01 0.  0.
    9000005    1    3    3    0    0 -0.53350899804E+02 -0.59009633956E+01  0.22468046306E+03  0.23100530375E+03  0.10000000000E+01 0.  0.
<mgrwt>
<rscale>  0 0.12499956E+03</rscale>
<asrwt>0</asrwt>
<pdfrwt beam="2">  1        4 0.19940516E-02 0.12499956E+03</pdfrwt>
<pdfrwt beam="1">  1       -4 0.46365384E-01 0.12499956E+03</pdfrwt>
<totfact> 0.73835568E+03</totfact>
</mgrwt>
</event>
<event>
 5    1  0.3398872E-002  0.1250034E+03  0.7818608E-02  0.1235064E+00
          4   -1    0    0  501    0  0.00000000000E+00  0.00000000000E+00  0.13055470751E+03  0.13056088447E+03  0.12700000000E+01 0.  1.
         -4   -1    0    0    0  501 -0.00000000000E+00 -0.00000000000E+00 -0.29901691713E+02  0.29928649607E+02  0.12700000000E+01 0.  1.
         25    2    1    2    0    0  0.00000000000E+00  0.00000000000E+00  0.10065301580E+03  0.16048953407E+03  0.12500344379E+03 0.  0.
    9000005    1    3    3    0    0  0.51805443715E+01  0.37751738396E+02 -0.13266867837E+02  0.40361387168E+02  0.10000000000E+01 0.  0.
    9000005    1    3    3    0    0 -0.51805443715E+01 -0.37751738396E+02  0.11391988363E+03  0.12012814691E+03  0.10000000000E+01 0.  0.
<mgrwt>
<rscale>  0 0.12500344E+03</rscale>
<asrwt>0</asrwt>
<pdfrwt beam="1">  1        4 0.20087889E-01 0.12500344E+03</pdfrwt>
<pdfrwt beam="2">  1       -4 0.46028091E-02 0.12500344E+03</pdfrwt>
<totfact> 0.97240962E+03</totfact>
</mgrwt>
</event>
<event>
 5    1  0.3398872E-002  0.1250024E+03  0.7818608E-02  0.1235066E+00
         -4   -1    0    0    0  501 -0.00000000000E+00  0.00000000000E+00  0.74976188636E+02  0.74986943947E+02  0.12700000000E+01 0.  1.
          4   -1    0    0  501    0  0.00000000000E+00 -0.00000000000E+00 -0.52079655444E+02  0.52095138076E+02  0.12700000000E+01 0.  1.
         25    2    1    2    0    0  0.00000000000E+00  0.00000000000E+00  0.22896533192E+02  0.12708208202E+03  0.12500241733E+03 0.  0.
    9000005    1    3    3    0    0  0.16318360127E+02 -0.35864173738E+02 -0.37865159418E+02  0.54656181104E+02  0.10000000000E+01 0.  0.
    9000005    1    3    3    0    0 -0.16318360127E+02  0.35864173738E+02  0.60761692610E+02  0.72425900919E+02  0.10000000000E+01 0.  0.
<mgrwt>
<rscale>  0 0.12500242E+03</rscale>
<asrwt>0</asrwt>
<pdfrwt beam="2">  1        4 0.80142730E-02 0.12500242E+03</pdfrwt>
<pdfrwt beam="1">  1       -4 0.11536817E-01 0.12500242E+03</pdfrwt>
<totfact> 0.10406795E+04</totfact>
</mgrwt>
</event>
<event>
 5    1  0.3398872E-002  0.1250018E+03  0.7818608E-02  0.1235067E+00
         -4   -1    0    0    0  501 -0.00000000000E+00  0.00000000000E+00  0.22509805623E+02  0.22545603766E+02  0.12700000000E+01 0. -1.
          4   -1    0    0  501    0  0.00000000000E+00 -0.00000000000E+00 -0.17336440657E+03  0.17336905827E+03  0.12700000000E+01 0. -1.
         25    2    1    2    0    0  0.00000000000E+00  0.00000000000E+00 -0.15085460095E+03  0.19591466204E+03  0.12500177668E+03 0.  0.
    9000005    1    3    3    0    0 -0.26639876957E+01  0.46513397883E+02 -0.14070599469E+03  0.14822202925E+03  0.10000000000E+01 0.  0.
    9000005    1    3    3    0    0  0.26639876957E+01 -0.46513397883E+02 -0.10148606256E+02  0.47692632785E+02  0.10000000000E+01 0.  0.
<mgrwt>
<rscale>  0 0.12500178E+03</rscale>
<asrwt>0</asrwt>
<pdfrwt beam="2">  1        4 0.26674558E-01 0.12500178E+03</pdfrwt>
<pdfrwt beam="1">  1       -4 0.34661587E-02 0.12500178E+03</pdfrwt>
<totfact> 0.90824634E+03</totfact>
</mgrwt>
</event>
<event>
 5    1  0.3398872E-002  0.1249976E+03  0.7818608E-02  0.1235073E+00
          4   -1    0    0  501    0  0.00000000000E+00  0.00000000000E+00  0.41316118270E+02  0.41335632678E+02  0.12700000000E+01 0. -1.
         -4   -1    0    0    0  501 -0.00000000000E+00 -0.00000000000E+00 -0.94495766863E+02  0.94504300722E+02  0.12700000000E+01 0. -1.
         25    2    1    2    0    0  0.00000000000E+00  0.00000000000E+00 -0.53179648593E+02  0.13583993340E+03  0.12499764990E+03 0.  0.
    9000005    1    3    3    0    0 -0.59630747257E+02  0.76765379637E+01 -0.45107434244E+02  0.75169381251E+02  0.10000000000E+01 0.  0.
    9000005    1    3    3    0    0  0.59630747257E+02 -0.76765379637E+01 -0.80722143490E+01  0.60670552149E+02  0.10000000000E+01 0.  0.
<mgrwt>
<rscale>  0 0.12499765E+03</rscale>
<asrwt>0</asrwt>
<pdfrwt beam="1">  1        4 0.63584835E-02 0.12499765E+03</pdfrwt>
<pdfrwt beam="2">  1       -4 0.14539968E-01 0.12499765E+03</pdfrwt>
<totfact> 0.10220939E+04</totfact>
</mgrwt>
</event>
<event>
 5    1  0.3398872E-002  0.1249777E+03  0.7818608E-02  0.1235104E+00
         -4   -1    0    0    0  501 -0.00000000000E+00  0.00000000000E+00  0.40623893209E+02  0.40643739978E+02  0.12700000000E+01 0.  1.
          4   -1    0    0  501    0  0.00000000000E+00 -0.00000000000E+00 -0.96074636207E+02  0.96083029835E+02  0.12700000000E+01 0.  1.
         25    2    1    2    0    0  0.00000000000E+00  0.00000000000E+00 -0.55450742998E+02  0.13672676981E+03  0.12497769675E+03 0.  0.
    9000005    1    3    3    0    0 -0.20473677965E+02  0.56266366906E+02 -0.81924590265E+01  0.60441640606E+02  0.10000000000E+01 0.  0.
    9000005    1    3    3    0    0  0.20473677965E+02 -0.56266366906E+02 -0.47258283972E+02  0.76285129208E+02  0.10000000000E+01 0.  0.
<mgrwt>
<rscale>  0 0.12497770E+03</rscale>
<asrwt>0</asrwt>
<pdfrwt beam="2">  1        4 0.14782886E-01 0.12497770E+03</pdfrwt>
<pdfrwt beam="1">  1       -4 0.62520021E-02 0.12497770E+03</pdfrwt>
<totfact> 0.10206934E+04</totfact>
</mgrwt>
</event>
<event>
 5    1  0.3398872E-002  0.1250062E+03  0.7818608E-02  0.1235060E+00
          4   -1    0    0  501    0  0.00000000000E+00  0.00000000000E+00  0.55442104470E+02  0.55456648366E+02  0.12700000000E+01 0.  1.
         -4   -1    0    0    0  501 -0.00000000000E+00 -0.00000000000E+00 -0.70433890469E+02  0.70445339283E+02  0.12700000000E+01 0.  1.
         25    2    1    2    0    0  0.00000000000E+00  0.00000000000E+00 -0.14991786000E+02  0.12590198765E+03  0.12500622723E+03 0.  0.
    9000005    1    3    3    0    0  0.17379123474E+02 -0.20410206121E+02 -0.64354200778E+02  0.69721399903E+02  0.10000000000E+01 0.  0.
    9000005    1    3    3    0    0 -0.17379123474E+02  0.20410206121E+02  0.49362414779E+02  0.56180587746E+02  0.10000000000E+01 0.  0.
<mgrwt>
<rscale>  0 0.12500623E+03</rscale>
<asrwt>0</asrwt>
<pdfrwt beam="1">  1        4 0.85315539E-02 0.12500623E+03</pdfrwt>
<pdfrwt beam="2">  1       -4 0.10837983E-01 0.12500623E+03</pdfrwt>
<totfact> 0.10431640E+04</totfact>
</mgrwt>
</event>
<event>
 5    1  0.3398872E-002  0.1249994E+03  0.7818608E-02  0.1235070E+00
          4   -1    0    0  501    0  0.00000000000E+00  0.00000000000E+00  0.18006867959E+03  0.18007315810E+03  0.12700000000E+01 0.  1.
         -4   -1    0    0    0  501 -0.00000000000E+00 -0.00000000000E+00 -0.21669557483E+02  0.21706741384E+02  0.12700000000E+01 0.  1.
         25    2    1    2    0    0  0.00000000000E+00  0.00000000000E+00  0.15839912211E+03  0.20177989949E+03  0.12499938381E+03 0.  0.
    9000005    1    3    3    0    0  0.20198683967E+02  0.11261091060E+02 -0.14515966972E+02  0.27322377331E+02  0.10000000000E+01 0.  0.
    9000005    1    3    3    0    0 -0.20198683967E+02 -0.11261091060E+02  0.17291508908E+03  0.17445752216E+03  0.10000000000E+01 0.  0.
<mgrwt>
<rscale>  0 0.12499938E+03</rscale>
<asrwt>0</asrwt>
<pdfrwt beam="1">  1        4 0.27706078E-01 0.12499938E+03</pdfrwt>
<pdfrwt beam="2">  1       -4 0.33369829E-02 0.12499938E+03</pdfrwt>
<totfact> 0.89837416E+03</totfact>
</mgrwt>
</event>
<event>
 5    1  0.3398872E-002  0.1250044E+03  0.7818608E-02  0.1235062E+00
         -4   -1    0    0    0  501 -0.00000000000E+00  0.00000000000E+00  0.12079119977E+03  0.12079787599E+03  0.12700000000E+01 0. -1.
          4   -1    0    0  501    0  0.00000000000E+00 -0.00000000000E+00 -0.32321074785E+02  0.32346016373E+02  0.12700000000E+01 0. -1.
         25    2    1    2    0    0  0.00000000000E+00  0.00000000000E+00  0.88470124988E+02  0.15314389236E+03  0.12500435493E+03 0.  0.
    9000005    1    3    3    0    0  0.56010405650E+02 -0.80256314671E+01  0.76739613804E+02  0.95349591652E+02  0.10000000000E+01 0.  0.
    9000005    1    3    3    0    0 -0.56010405650E+02  0.80256314671E+01  0.11730511185E+02  0.57794300707E+02  0.10000000000E+01 0.  0.
<mgrwt>
<rscale>  0 0.12500435E+03</rscale>
<asrwt>0</asrwt>
<pdfrwt beam="2">  1        4 0.49749052E-02 0.12500435E+03</pdfrwt>
<pdfrwt beam="1">  1       -4 0.18585694E-01 0.12500435E+03</pdfrwt>
<totfact> 0.98670994E+03</totfact>
</mgrwt>
</event>
<event>
 5    1  0.3398872E-002  0.1249994E+03  0.7818608E-02  0.1235070E+00
         -4   -1    0    0    0  501 -0.00000000000E+00  0.00000000000E+00  0.21323104746E+01  0.24818638077E+01  0.12700000000E+01 0. -1.
          4   -1    0    0  501    0  0.00000000000E+00 -0.00000000000E+00 -0.16927862126E+04  0.16927866890E+04  0.12700000000E+01 0. -1.
         25    2    1    2    0    0  0.00000000000E+00  0.00000000000E+00 -0.16906539022E+04  0.16952685528E+04  0.12499939752E+03 0.  0.
    9000005    1    3    3    0    0  0.97371314833E+00 -0.43746849629E+02 -0.14504019503E+04  0.14510622153E+04  0.10000000000E+01 0.  0.
    9000005    1    3    3    0    0 -0.97371314833E+00  0.43746849629E+02 -0.24025195181E+03  0.24420633759E+03  0.10000000000E+01 0.  0.
<mgrwt>
<rscale>  0 0.12499940E+03</rscale>
<asrwt>0</asrwt>
<pdfrwt beam="2">  1        4 0.26045458E+00 0.12499940E+03</pdfrwt>
<pdfrwt beam="1">  1       -4 0.35497448E-03 0.12499940E+03</pdfrwt>
<totfact> 0.14387306E+03</totfact>
</mgrwt>
</event>
<event>
 5    1  0.3398872E-002  0.1250043E+03  0.7818608E-02  0.1235063E+00
         -4   -1    0    0    0  501 -0.00000000000E+00  0.00000000000E+00  0.41369729523E+03  0.41369924460E+03  0.12700000000E+01 0.  1.
          4   -1    0    0  501    0  0.00000000000E+00 -0.00000000000E+00 -0.93982532463E+01  0.94836735542E+01  0.12700000000E+01 0.  1.
         25    2    1    2    0    0  0.00000000000E+00  0.00000000000E+00  0.40429904199E+03  0.42318291816E+03  0.12500426739E+03 0.  0.
    9000005    1    3    3    0    0  0.71412434166E+01 -0.18573735564E+02  0.40270204058E+03  0.40319463599E+03  0.10000000000E+01 0.  0.
    9000005    1    3    3    0    0 -0.71412434166E+01  0.18573735564E+02  0.15970014134E+01  0.19988282163E+02  0.10000000000E+01 0.  0.
<mgrwt>
<rscale>  0 0.12500427E+03</rscale>
<asrwt>0</asrwt>
<pdfrwt beam="2">  1        4 0.14526061E-02 0.12500427E+03</pdfrwt>
<pdfrwt beam="1">  1       -4 0.63652449E-01 0.12500427E+03</pdfrwt>
<totfact> 0.62352951E+03</totfact>
</mgrwt>
</event>
<event>
 5    1  0.3398872E-002  0.1250002E+03  0.7818608E-02  0.1235069E+00
         -4   -1    0    0    0  501 -0.00000000000E+00  0.00000000000E+00  0.92602603590E+01  0.93469418483E+01  0.12700000000E+01 0.  1.
          4   -1    0    0  501    0  0.00000000000E+00 -0.00000000000E+00 -0.41977786462E+03  0.41977978575E+03  0.12700000000E+01 0.  1.
         25    2    1    2    0    0  0.00000000000E+00  0.00000000000E+00 -0.41051760426E+03  0.42912672759E+03  0.12500017973E+03 0.  0.
    9000005    1    3    3    0    0 -0.24483556868E+02 -0.26936895734E+02 -0.30876131978E+02  0.47742815529E+02  0.10000000000E+01 0.  0.
    9000005    1    3    3    0    0  0.24483556868E+02  0.26936895734E+02 -0.37964147228E+03  0.38138391207E+03  0.10000000000E+01 0.  0.
<mgrwt>
<rscale>  0 0.12500018E+03</rscale>
<asrwt>0</asrwt>
<pdfrwt beam="2">  1        4 0.64588011E-01 0.12500018E+03</pdfrwt>
<pdfrwt beam="1">  1       -4 0.14314714E-02 0.12500018E+03</pdfrwt>
<totfact> 0.61814990E+03</totfact>
</mgrwt>
</event>
<event>
 5    1  0.3398872E-002  0.1250028E+03  0.7818608E-02  0.1235065E+00
          4   -1    0    0  501    0  0.00000000000E+00  0.00000000000E+00  0.83148762770E+02  0.83158461086E+02  0.12700000000E+01 0.  1.
         -4   -1    0    0    0  501 -0.00000000000E+00 -0.00000000000E+00 -0.46960157128E+02  0.46977327058E+02  0.12700000000E+01 0.  1.
         25    2    1    2    0    0  0.00000000000E+00  0.00000000000E+00  0.36188605642E+02  0.13013578814E+03  0.12500283268E+03 0.  0.
    9000005    1    3    3    0    0  0.54373833448E+02 -0.28232296133E+02  0.30923082365E+02  0.68635365022E+02  0.10000000000E+01 0.  0.
    9000005    1    3    3    0    0 -0.54373833448E+02  0.28232296133E+02  0.52655232769E+01  0.61500423122E+02  0.10000000000E+01 0.  0.
<mgrwt>
<rscale>  0 0.12500283E+03</rscale>
<asrwt>0</asrwt>
<pdfrwt beam="1">  1        4 0.12794184E-01 0.12500283E+03</pdfrwt>
<pdfrwt beam="2">  1       -4 0.72267063E-02 0.12500283E+03</pdfrwt>
<totfact> 0.10340942E+04</totfact>
</mgrwt>
</event>
<event>
 5    1  0.3398872E-002  0.1250018E+03  0.7818608E-02  0.1235066E+00
         -4   -1    0    0    0  501 -0.00000000000E+00  0.00000000000E+00  0.54819806446E+02  0.54834515397E+02  0.12700000000E+01 0.  1.
          4   -1    0    0  501    0  0.00000000000E+00 -0.00000000000E+00 -0.71228317793E+02  0.71239638935E+02  0.12700000000E+01 0.  1.
         25    2    1    2    0    0  0.00000000000E+00  0.00000000000E+00 -0.16408511346E+02  0.12607415433E+03  0.12500181257E+03 0.  0.
    9000005    1    3    3    0    0 -0.53242517734E+02  0.28283714643E+02  0.83876772033E+01  0.60877642345E+02  0.10000000000E+01 0.  0.
    9000005    1    3    3    0    0  0.53242517734E+02 -0.28283714643E+02 -0.24796188550E+02  0.65196511987E+02  0.10000000000E+01 0.  0.
<mgrwt>
<rscale>  0 0.12500181E+03</rscale>
<asrwt>0</asrwt>
<pdfrwt beam="2">  1        4 0.10960205E-01 0.12500181E+03</pdfrwt>
<pdfrwt beam="1">  1       -4 0.84358187E-02 0.12500181E+03</pdfrwt>
<totfact> 0.10428906E+04</totfact>
</mgrwt>
</event>
<event>
 5    1  0.3398872E-002  0.1249964E+03  0.7818608E-02  0.1235075E+00
         -4   -1    0    0    0  501 -0.00000000000E+00  0.00000000000E+00  0.14789361788E+04  0.14789367241E+04  0.12700000000E+01 0. -1.
          4   -1    0    0  501    0  0.00000000000E+00 -0.00000000000E+00 -0.24878555229E+01  0.27932642379E+01  0.12700000000E+01 0. -1.
         25    2    1    2    0    0  0.00000000000E+00  0.00000000000E+00  0.14764483232E+04  0.14817299883E+04  0.12499642796E+03 0.  0.
    9000005    1    3    3    0    0  0.16178551041E+02  0.98039813396E+01  0.32212210766E+02  0.37369641239E+02  0.10000000000E+01 0.  0.
    9000005    1    3    3    0    0 -0.16178551041E+02 -0.98039813396E+01  0.14442361125E+04  0.14443603471E+04  0.10000000000E+01 0.  0.
<mgrwt>
<rscale>  0 0.12499643E+03</rscale>
<asrwt>0</asrwt>
<pdfrwt beam="2">  1        4 0.40628268E-03 0.12499643E+03</pdfrwt>
<pdfrwt beam="1">  1       -4 0.22755176E+00 0.12499643E+03</pdfrwt>
<totfact> 0.18293544E+03</totfact>
</mgrwt>
</event>
<event>
 5    1  0.3398872E-002  0.1250170E+03  0.7818608E-02  0.1235043E+00
          4   -1    0    0  501    0  0.00000000000E+00  0.00000000000E+00  0.40860465106E+03  0.40860662472E+03  0.12700000000E+01 0. -1.
         -4   -1    0    0    0  501 -0.00000000000E+00 -0.00000000000E+00 -0.95183963483E+01  0.96027479944E+01  0.12700000000E+01 0. -1.
         25    2    1    2    0    0  0.00000000000E+00  0.00000000000E+00  0.39908625471E+03  0.41820937272E+03  0.12501696177E+03 0.  0.
    9000005    1    3    3    0    0  0.21177857816E+02 -0.35602822720E+01  0.39589172881E+03  0.39647501588E+03  0.10000000000E+01 0.  0.
    9000005    1    3    3    0    0 -0.21177857816E+02  0.35602822720E+01  0.31945258969E+01  0.21734356840E+02  0.10000000000E+01 0.  0.
<mgrwt>
<rscale>  0 0.12501696E+03</rscale>
<asrwt>0</asrwt>
<pdfrwt beam="1">  1        4 0.62868914E-01 0.12501696E+03</pdfrwt>
<pdfrwt beam="2">  1       -4 0.14710086E-02 0.12501696E+03</pdfrwt>
<totfact> 0.62795965E+03</totfact>
</mgrwt>
</event>
<event>
 5    1  0.3398872E-002  0.1250129E+03  0.7818608E-02  0.1235049E+00
          4   -1    0    0  501    0  0.00000000000E+00  0.00000000000E+00  0.11057358064E+02  0.11130052442E+02  0.12700000000E+01 0.  1.
         -4   -1    0    0    0  501 -0.00000000000E+00 -0.00000000000E+00 -0.35211310531E+03  0.35211539562E+03  0.12700000000E+01 0.  1.
         25    2    1    2    0    0  0.00000000000E+00  0.00000000000E+00 -0.34105574725E+03  0.36324544806E+03  0.12501293056E+03 0.  0.
    9000005    1    3    3    0    0  0.35106181604E+02  0.16592003083E+02 -0.28229879747E+02  0.48017337116E+02  0.10000000000E+01 0.  0.
    9000005    1    3    3    0    0 -0.35106181604E+02 -0.16592003083E+02 -0.31282586750E+03  0.31522811094E+03  0.10000000000E+01 0.  0.
<mgrwt>
<rscale>  0 0.12501293E+03</rscale>
<asrwt>0</asrwt>
<pdfrwt beam="1">  1        4 0.17069003E-02 0.12501293E+03</pdfrwt>
<pdfrwt beam="2">  1       -4 0.54177006E-01 0.12501293E+03</pdfrwt>
<totfact> 0.68272039E+03</totfact>
</mgrwt>
</event>
<event>
 5    1  0.3398872E-002  0.1250056E+03  0.7818608E-02  0.1235061E+00
         -4   -1    0    0    0  501 -0.00000000000E+00  0.00000000000E+00  0.15696784578E+03  0.15697298337E+03  0.12700000000E+01 0. -1.
          4   -1    0    0  501    0  0.00000000000E+00 -0.00000000000E+00 -0.24866145615E+02  0.24898556138E+02  0.12700000000E+01 0. -1.
         25    2    1    2    0    0  0.00000000000E+00  0.00000000000E+00  0.13210170016E+03  0.18187153951E+03  0.12500559066E+03 0.  0.
    9000005    1    3    3    0    0 -0.14774456000E+02 -0.51011633711E+02  0.18124339350E+02  0.56124531186E+02  0.10000000000E+01 0.  0.
    9000005    1    3    3    0    0  0.14774456000E+02  0.51011633711E+02  0.11397736081E+03  0.12574700832E+03  0.10000000000E+01 0.  0.
<mgrwt>
<rscale>  0 0.12500559E+03</rscale>
<asrwt>0</asrwt>
<pdfrwt beam="2">  1        4 0.38284492E-02 0.12500559E+03</pdfrwt>
<pdfrwt beam="1">  1       -4 0.24151787E-01 0.12500559E+03</pdfrwt>
<totfact> 0.93269511E+03</totfact>
</mgrwt>
</event>
<event>
 5    1  0.3398872E-002  0.1250151E+03  0.7818608E-02  0.1235046E+00
         -4   -1    0    0    0  501 -0.00000000000E+00  0.00000000000E+00  0.24046892031E+02  0.24080405236E+02  0.12700000000E+01 0.  1.
          4   -1    0    0  501    0  0.00000000000E+00 -0.00000000000E+00 -0.16233319272E+03  0.16233816051E+03  0.12700000000E+01 0.  1.
         25    2    1    2    0    0  0.00000000000E+00  0.00000000000E+00 -0.13828630069E+03  0.18641856574E+03  0.12501512187E+03 0.  0.
    9000005    1    3    3    0    0 -0.52030352245E+02 -0.45453348438E+01 -0.17955069901E+02  0.55237687848E+02  0.10000000000E+01 0.  0.
    9000005    1    3    3    0    0  0.52030352245E+02  0.45453348438E+01 -0.12033123078E+03  0.13118087790E+03  0.10000000000E+01 0.  0.
<mgrwt>
<rscale>  0 0.12501512E+03</rscale>
<asrwt>0</asrwt>
<pdfrwt beam="2">  1        4 0.24977297E-01 0.12501512E+03</pdfrwt>
<pdfrwt beam="1">  1       -4 0.37024820E-02 0.12501512E+03</pdfrwt>
<totfact> 0.92442906E+03</totfact>
</mgrwt>
</event>
<event>
 5    1  0.3398872E-002  0.1250077E+03  0.7818608E-02  0.1235057E+00
         -4   -1    0    0    0  501 -0.00000000000E+00  0.00000000000E+00  0.13241562548E+02  0.13302326064E+02  0.12700000000E+01 0. -1.
          4   -1    0    0  501    0  0.00000000000E+00 -0.00000000000E+00 -0.29429780449E+03  0.29430054473E+03  0.12700000000E+01 0. -1.
         25    2    1    2    0    0  0.00000000000E+00  0.00000000000E+00 -0.28105624194E+03  0.30760287079E+03  0.12500765971E+03 0.  0.
    9000005    1    3    3    0    0 -0.40208286081E+01 -0.59578337910E+02 -0.95156679749E+02  0.11234562346E+03  0.10000000000E+01 0.  0.
    9000005    1    3    3    0    0  0.40208286081E+01  0.59578337910E+02 -0.18589956219E+03  0.19525724733E+03  0.10000000000E+01 0.  0.
<mgrwt>
<rscale>  0 0.12500766E+03</rscale>
<asrwt>0</asrwt>
<pdfrwt beam="2">  1        4 0.45281465E-01 0.12500766E+03</pdfrwt>
<pdfrwt beam="1">  1       -4 0.20420486E-02 0.12500766E+03</pdfrwt>
<totfact> 0.74642255E+03</totfact>
</mgrwt>
</event>
<event>
 5    1  0.3398872E-002  0.1250006E+03  0.7818608E-02  0.1235068E+00
         -4   -1    0    0    0  501 -0.00000000000E+00  0.00000000000E+00  0.16252283936E+02  0.16301829135E+02  0.12700000000E+01 0.  1.
          4   -1    0    0  501    0  0.00000000000E+00 -0.00000000000E+00 -0.23993596280E+03  0.23993932388E+03  0.12700000000E+01 0.  1.
         25    2    1    2    0    0  0.00000000000E+00  0.00000000000E+00 -0.22368367886E+03  0.25624115302E+03  0.12500056124E+03 0.  0.
    9000005    1    3    3    0    0  0.12985211814E+02  0.54893964083E+02 -0.56709963289E+02  0.79993643215E+02  0.10000000000E+01 0.  0.
    9000005    1    3    3    0    0 -0.12985211814E+02 -0.54893964083E+02 -0.16697371558E+03  0.17624750980E+03  0.10000000000E+01 0.  0.
<mgrwt>
<rscale>  0 0.12500056E+03</rscale>
<asrwt>0</asrwt>
<pdfrwt beam="2">  1        4 0.36917292E-01 0.12500056E+03</pdfrwt>
<pdfrwt beam="1">  1       -4 0.25044213E-02 0.12500056E+03</pdfrwt>
<totfact> 0.81435456E+03</totfact>
</mgrwt>
</event>
<event>
 5    1  0.3398872E-002  0.1250070E+03  0.7818608E-02  0.1235058E+00
         -4   -1    0    0    0  501 -0.00000000000E+00  0.00000000000E+00  0.14629341536E+04  0.14629347048E+04  0.12700000000E+01 0.  1.
          4   -1    0    0  501    0  0.00000000000E+00 -0.00000000000E+00 -0.25188686939E+01  0.28209217460E+01  0.12700000000E+01 0.  1.
         25    2    1    2    0    0  0.00000000000E+00  0.00000000000E+00  0.14604152849E+04  0.14657556266E+04  0.12500700990E+03 0.  0.
    9000005    1    3    3    0    0  0.20316400120E+02  0.47854226008E+02  0.32353694501E+03  0.32768878200E+03  0.10000000000E+01 0.  0.
    9000005    1    3    3    0    0 -0.20316400120E+02 -0.47854226008E+02  0.11368783399E+04  0.11380668446E+04  0.10000000000E+01 0.  0.
<mgrwt>
<rscale>  0 0.12500701E+03</rscale>
<asrwt>0</asrwt>
<pdfrwt beam="2">  1        4 0.41079625E-03 0.12500701E+03</pdfrwt>
<pdfrwt beam="1">  1       -4 0.22508967E+00 0.12500701E+03</pdfrwt>
<totfact> 0.18609528E+03</totfact>
</mgrwt>
</event>
<event>
 5    1  0.3398872E-002  0.1250019E+03  0.7818608E-02  0.1235066E+00
          4   -1    0    0  501    0  0.00000000000E+00  0.00000000000E+00  0.34788319908E+02  0.34811493821E+02  0.12700000000E+01 0. -1.
         -4   -1    0    0    0  501 -0.00000000000E+00 -0.00000000000E+00 -0.11222551856E+03  0.11223270431E+03  0.12700000000E+01 0. -1.
         25    2    1    2    0    0  0.00000000000E+00  0.00000000000E+00 -0.77437198655E+02  0.14704419813E+03  0.12500190586E+03 0.  0.
    9000005    1    3    3    0    0  0.47401764083E+02 -0.25271913623E+02 -0.11536457951E+01  0.53739443196E+02  0.10000000000E+01 0.  0.
    9000005    1    3    3    0    0 -0.47401764083E+02  0.25271913623E+02 -0.76283552859E+02  0.93304754934E+02  0.10000000000E+01 0.  0.
<mgrwt>
<rscale>  0 0.12500191E+03</rscale>
<asrwt>0</asrwt>
<pdfrwt beam="1">  1        4 0.53543846E-02 0.12500191E+03</pdfrwt>
<pdfrwt beam="2">  1       -4 0.17267800E-01 0.12500191E+03</pdfrwt>
<totfact> 0.99891904E+03</totfact>
</mgrwt>
</event>
<event>
 5    1  0.3398872E-002  0.1250004E+03  0.7818608E-02  0.1235069E+00
         -4   -1    0    0    0  501 -0.00000000000E+00  0.00000000000E+00  0.12254603833E+02  0.12320236000E+02  0.12700000000E+01 0. -1.
          4   -1    0    0  501    0  0.00000000000E+00 -0.00000000000E+00 -0.31784136956E+03  0.31784390683E+03  0.12700000000E+01 0. -1.
         25    2    1    2    0    0  0.00000000000E+00  0.00000000000E+00 -0.30558676573E+03  0.33016414283E+03  0.12500035927E+03 0.  0.
    9000005    1    3    3    0    0  0.97779655576E+01 -0.39656307988E+02 -0.27866580512E+02  0.49454804449E+02  0.10000000000E+01 0.  0.
    9000005    1    3    3    0    0 -0.97779655576E+01  0.39656307988E+02 -0.27772018522E+03  0.28070933838E+03  0.10000000000E+01 0.  0.
<mgrwt>
<rscale>  0 0.12500036E+03</rscale>
<asrwt>0</asrwt>
<pdfrwt beam="2">  1        4 0.48903910E-01 0.12500036E+03</pdfrwt>
<pdfrwt beam="1">  1       -4 0.18905677E-02 0.12500036E+03</pdfrwt>
<totfact> 0.71962753E+03</totfact>
</mgrwt>
</event>
<event>
 5    1  0.3398872E-002  0.1250110E+03  0.7818608E-02  0.1235052E+00
          4   -1    0    0  501    0  0.00000000000E+00  0.00000000000E+00  0.81945567364E+02  0.81955408062E+02  0.12700000000E+01 0. -1.
         -4   -1    0    0    0  501 -0.00000000000E+00 -0.00000000000E+00 -0.47656085629E+02  0.47673004913E+02  0.12700000000E+01 0. -1.
         25    2    1    2    0    0  0.00000000000E+00  0.00000000000E+00  0.34289481736E+02  0.12962841298E+03  0.12501102709E+03 0.  0.
    9000005    1    3    3    0    0  0.89499974385E+00 -0.62011519685E+02  0.25157351749E+02  0.66933713069E+02  0.10000000000E+01 0.  0.
    9000005    1    3    3    0    0 -0.89499974385E+00  0.62011519685E+02  0.91321299871E+01  0.62694699906E+02  0.10000000000E+01 0.  0.
<mgrwt>
<rscale>  0 0.12501103E+03</rscale>
<asrwt>0</asrwt>
<pdfrwt beam="1">  1        4 0.12609069E-01 0.12501103E+03</pdfrwt>
<pdfrwt beam="2">  1       -4 0.73337639E-02 0.12501103E+03</pdfrwt>
<totfact> 0.10349886E+04</totfact>
</mgrwt>
</event>
<event>
 5    1  0.3398872E-002  0.1249977E+03  0.7818608E-02  0.1235073E+00
         -4   -1    0    0    0  501 -0.00000000000E+00  0.00000000000E+00  0.10891334306E+02  0.10965129410E+02  0.12700000000E+01 0.  1.
          4   -1    0    0  501    0  0.00000000000E+00 -0.00000000000E+00 -0.35735777129E+03  0.35736002799E+03  0.12700000000E+01 0.  1.
         25    2    1    2    0    0  0.00000000000E+00  0.00000000000E+00 -0.34646643699E+03  0.36832515740E+03  0.12499771843E+03 0.  0.
    9000005    1    3    3    0    0 -0.39337605381E+02  0.32421009837E+02 -0.27974321595E+03  0.28435160620E+03  0.10000000000E+01 0.  0.
    9000005    1    3    3    0    0  0.39337605381E+02 -0.32421009837E+02 -0.66723221035E+02  0.83973551200E+02  0.10000000000E+01 0.  0.
<mgrwt>
<rscale>  0 0.12499772E+03</rscale>
<asrwt>0</asrwt>
<pdfrwt beam="2">  1        4 0.54983960E-01 0.12499772E+03</pdfrwt>
<pdfrwt beam="1">  1       -4 0.16814403E-02 0.12499772E+03</pdfrwt>
<totfact> 0.67757943E+03</totfact>
</mgrwt>
</event>
<event>
 5    1  0.3398872E-002  0.1250139E+03  0.7818608E-02  0.1235048E+00
          4   -1    0    0  501    0  0.00000000000E+00  0.00000000000E+00  0.11634850962E+03  0.11635544074E+03  0.12700000000E+01 0. -1.
         -4   -1    0    0    0  501 -0.00000000000E+00 -0.00000000000E+00 -0.33561199769E+02  0.33585220409E+02  0.12700000000E+01 0. -1.
         25    2    1    2    0    0  0.00000000000E+00  0.00000000000E+00  0.82787309848E+02  0.14994066115E+03  0.12501385201E+03 0.  0.
    9000005    1    3    3    0    0 -0.28827784965E+01 -0.59607155514E+02  0.63664675824E+02  0.87266914395E+02  0.10000000000E+01 0.  0.
    9000005    1    3    3    0    0  0.28827784965E+01  0.59607155514E+02  0.19122634024E+02  0.62673746756E+02  0.10000000000E+01 0.  0.
<mgrwt>
<rscale>  0 0.12501385E+03</rscale>
<asrwt>0</asrwt>
<pdfrwt beam="1">  1        4 0.17902152E-01 0.12501385E+03</pdfrwt>
<pdfrwt beam="2">  1       -4 0.51656424E-02 0.12501385E+03</pdfrwt>
<totfact> 0.99284572E+03</totfact>
</mgrwt>
</event>
<event>
 5    1  0.3398872E-002  0.1250007E+03  0.7818608E-02  0.1235068E+00
         -4   -1    0    0    0  501 -0.00000000000E+00  0.00000000000E+00  0.51815780520E+03  0.51815936158E+03  0.12700000000E+01 0.  1.
          4   -1    0    0  501    0  0.00000000000E+00 -0.00000000000E+00 -0.74837465473E+01  0.75907418863E+01  0.12700000000E+01 0.  1.
         25    2    1    2    0    0  0.00000000000E+00  0.00000000000E+00  0.51067405866E+03  0.52575010347E+03  0.12500070844E+03 0.  0.
    9000005    1    3    3    0    0 -0.27247967483E+02 -0.41172341717E+02  0.41646936498E+03  0.41938686844E+03  0.10000000000E+01 0.  0.
    9000005    1    3    3    0    0  0.27247967483E+02  0.41172341717E+02  0.94204693678E+02  0.10636323503E+03  0.10000000000E+01 0.  0.
<mgrwt>
<rscale>  0 0.12500071E+03</rscale>
<asrwt>0</asrwt>
<pdfrwt beam="2">  1        4 0.11596951E-02 0.12500071E+03</pdfrwt>
<pdfrwt beam="1">  1       -4 0.79724978E-01 0.12500071E+03</pdfrwt>
<totfact> 0.53919538E+03</totfact>
</mgrwt>
</event>
<event>
 5    1  0.3398872E-002  0.1249980E+03  0.7818608E-02  0.1235072E+00
          4   -1    0    0  501    0  0.00000000000E+00  0.00000000000E+00  0.10567589968E+02  0.10643629914E+02  0.12700000000E+01 0. -1.
         -4   -1    0    0    0  501 -0.00000000000E+00 -0.00000000000E+00 -0.36823006024E+03  0.36823225031E+03  0.12700000000E+01 0. -1.
         25    2    1    2    0    0  0.00000000000E+00  0.00000000000E+00 -0.35766247027E+03  0.37887588022E+03  0.12499795987E+03 0.  0.
    9000005    1    3    3    0    0 -0.26300520501E+02  0.50118080696E+02 -0.25911608388E+03  0.26522760851E+03  0.10000000000E+01 0.  0.
    9000005    1    3    3    0    0  0.26300520501E+02 -0.50118080696E+02 -0.98546386395E+02  0.11364827171E+03  0.10000000000E+01 0.  0.
<mgrwt>
<rscale>  0 0.12499796E+03</rscale>
<asrwt>0</asrwt>
<pdfrwt beam="1">  1        4 0.16318010E-02 0.12499796E+03</pdfrwt>
<pdfrwt beam="2">  1       -4 0.56656786E-01 0.12499796E+03</pdfrwt>
<totfact> 0.66663474E+03</totfact>
</mgrwt>
</event>
<event>
 5    1  0.3398872E-002  0.1249983E+03  0.7818608E-02  0.1235072E+00
          4   -1    0    0  501    0  0.00000000000E+00  0.00000000000E+00  0.18017173090E+02  0.18061877703E+02  0.12700000000E+01 0.  1.
         -4   -1    0    0    0  501 -0.00000000000E+00 -0.00000000000E+00 -0.21648609866E+03  0.21648982381E+03  0.12700000000E+01 0.  1.
         25    2    1    2    0    0  0.00000000000E+00  0.00000000000E+00 -0.19846892557E+03  0.23455170152E+03  0.12499834505E+03 0.  0.
    9000005    1    3    3    0    0  0.20061688584E+01 -0.27630320947E+02  0.58743544097E+01  0.28336679213E+02  0.10000000000E+01 0.  0.
    9000005    1    3    3    0    0 -0.20061688584E+01  0.27630320947E+02 -0.20434327998E+03  0.20621502230E+03  0.10000000000E+01 0.  0.
<mgrwt>
<rscale>  0 0.12499835E+03</rscale>
<asrwt>0</asrwt>
<pdfrwt beam="1">  1        4 0.27755983E-02 0.12499835E+03</pdfrwt>
<pdfrwt beam="2">  1       -4 0.33309277E-01 0.12499835E+03</pdfrwt>
<totfact> 0.84618669E+03</totfact>
</mgrwt>
</event>
<event>
 5    1  0.3398872E-002  0.1250014E+03  0.7818608E-02  0.1235067E+00
         -4   -1    0    0    0  501 -0.00000000000E+00  0.00000000000E+00  0.10086101863E+02  0.10165743986E+02  0.12700000000E+01 0.  1.
          4   -1    0    0  501    0  0.00000000000E+00 -0.00000000000E+00 -0.38569536169E+03  0.38569745258E+03  0.12700000000E+01 0.  1.
         25    2    1    2    0    0  0.00000000000E+00  0.00000000000E+00 -0.37560925982E+03  0.39586319657E+03  0.12500141731E+03 0.  0.
    9000005    1    3    3    0    0  0.18561370948E+02 -0.34441407369E+01 -0.37646481313E+03  0.37693917563E+03  0.10000000000E+01 0.  0.
    9000005    1    3    3    0    0 -0.18561370948E+02  0.34441407369E+01  0.85555331038E+00  0.18924020935E+02  0.10000000000E+01 0.  0.
<mgrwt>
<rscale>  0 0.12500142E+03</rscale>
<asrwt>0</asrwt>
<pdfrwt beam="2">  1        4 0.59344024E-01 0.12500142E+03</pdfrwt>
<pdfrwt beam="1">  1       -4 0.15579954E-02 0.12500142E+03</pdfrwt>
<totfact> 0.64955100E+03</totfact>
</mgrwt>
</event>
<event>
 5    1  0.3398872E-002  0.1250018E+03  0.7818608E-02  0.1235066E+00
          4   -1    0    0  501    0  0.00000000000E+00  0.00000000000E+00  0.74330559231E+02  0.74341407947E+02  0.12700000000E+01 0.  1.
         -4   -1    0    0    0  501 -0.00000000000E+00 -0.00000000000E+00 -0.52531560424E+02  0.52546909905E+02  0.12700000000E+01 0.  1.
         25    2    1    2    0    0  0.00000000000E+00  0.00000000000E+00  0.21798998807E+02  0.12688831785E+03  0.12500179542E+03 0.  0.
    9000005    1    3    3    0    0  0.30538351559E+02 -0.54522609784E+02  0.11140401505E+02  0.63485545121E+02  0.10000000000E+01 0.  0.
    9000005    1    3    3    0    0 -0.30538351559E+02  0.54522609784E+02  0.10658597302E+02  0.63402772732E+02  0.10000000000E+01 0.  0.
<mgrwt>
<rscale>  0 0.12500180E+03</rscale>
<asrwt>0</asrwt>
<pdfrwt beam="1">  1        4 0.11437486E-01 0.12500180E+03</pdfrwt>
<pdfrwt beam="2">  1       -4 0.80837938E-02 0.12500180E+03</pdfrwt>
<totfact> 0.10411151E+04</totfact>
</mgrwt>
</event>
<event>
 5    1  0.3398872E-002  0.1250000E+03  0.7818608E-02  0.1235069E+00
          4   -1    0    0  501    0  0.00000000000E+00  0.00000000000E+00  0.16675333387E+02  0.16723625311E+02  0.12700000000E+01 0. -1.
         -4   -1    0    0    0  501 -0.00000000000E+00 -0.00000000000E+00 -0.23386432187E+03  0.23386777021E+03  0.12700000000E+01 0. -1.
         25    2    1    2    0    0  0.00000000000E+00  0.00000000000E+00 -0.21718898848E+03  0.25059139552E+03  0.12499996317E+03 0.  0.
    9000005    1    3    3    0    0 -0.66776862443E+01  0.18291821909E+02  0.10447845619E+02  0.22121024397E+02  0.10000000000E+01 0.  0.
    9000005    1    3    3    0    0  0.66776862443E+01 -0.18291821909E+02 -0.22763683410E+03  0.22847037113E+03  0.10000000000E+01 0.  0.
<mgrwt>
<rscale>  0 0.12499996E+03</rscale>
<asrwt>0</asrwt>
<pdfrwt beam="1">  1        4 0.25694161E-02 0.12499996E+03</pdfrwt>
<pdfrwt beam="2">  1       -4 0.35983104E-01 0.12499996E+03</pdfrwt>
<totfact> 0.82244896E+03</totfact>
</mgrwt>
</event>
<event>
 5    1  0.3398872E-002  0.1250044E+03  0.7818608E-02  0.1235062E+00
          4   -1    0    0  501    0  0.00000000000E+00  0.00000000000E+00  0.71076343017E+03  0.71076456479E+03  0.12700000000E+01 0. -1.
         -4   -1    0    0    0  501 -0.00000000000E+00 -0.00000000000E+00 -0.54217167831E+01  0.55684749147E+01  0.12700000000E+01 0. -1.
         25    2    1    2    0    0  0.00000000000E+00  0.00000000000E+00  0.70534171339E+03  0.71633303971E+03  0.12500436446E+03 0.  0.
    9000005    1    3    3    0    0 -0.34618714881E+02  0.48835936534E+02  0.45551930709E+03  0.45943687624E+03  0.10000000000E+01 0.  0.
    9000005    1    3    3    0    0  0.34618714881E+02 -0.48835936534E+02  0.24982240629E+03  0.25689616347E+03  0.10000000000E+01 0.  0.
<mgrwt>
<rscale>  0 0.12500436E+03</rscale>
<asrwt>0</asrwt>
<pdfrwt beam="1">  1        4 0.10935962E+00 0.12500436E+03</pdfrwt>
<pdfrwt beam="2">  1       -4 0.84548645E-03 0.12500436E+03</pdfrwt>
<totfact> 0.42234362E+03</totfact>
</mgrwt>
</event>
<event>
 5    1  0.3398872E-002  0.1250026E+03  0.7818608E-02  0.1235065E+00
         -4   -1    0    0    0  501 -0.00000000000E+00  0.00000000000E+00  0.32017824230E+02  0.32043001864E+02  0.12700000000E+01 0. -1.
          4   -1    0    0  501    0  0.00000000000E+00 -0.00000000000E+00 -0.12193107912E+03  0.12193769292E+03  0.12700000000E+01 0. -1.
         25    2    1    2    0    0  0.00000000000E+00  0.00000000000E+00 -0.89913254889E+02  0.15398069479E+03  0.12500264382E+03 0.  0.
    9000005    1    3    3    0    0  0.57742193708E+02  0.18949136636E+02 -0.62899994114E+02  0.87467936828E+02  0.10000000000E+01 0.  0.
    9000005    1    3    3    0    0 -0.57742193708E+02 -0.18949136636E+02 -0.27013260775E+02  0.66512757957E+02  0.10000000000E+01 0.  0.
<mgrwt>
<rscale>  0 0.12500264E+03</rscale>
<asrwt>0</asrwt>
<pdfrwt beam="2">  1        4 0.18761073E-01 0.12500264E+03</pdfrwt>
<pdfrwt beam="1">  1       -4 0.49282647E-02 0.12500264E+03</pdfrwt>
<totfact> 0.98510115E+03</totfact>
</mgrwt>
</event>
<event>
 5    1  0.3398872E-002  0.1250027E+03  0.7818608E-02  0.1235065E+00
          4   -1    0    0  501    0  0.00000000000E+00  0.00000000000E+00  0.86509797645E+03  0.86509890865E+03  0.12700000000E+01 0.  1.
         -4   -1    0    0    0  501 -0.00000000000E+00 -0.00000000000E+00 -0.44253325581E+01  0.46039622337E+01  0.12700000000E+01 0.  1.
         25    2    1    2    0    0  0.00000000000E+00  0.00000000000E+00  0.86067264389E+03  0.86970287089E+03  0.12500273473E+03 0.  0.
    9000005    1    3    3    0    0  0.36624738018E+02 -0.49503409775E+02  0.35622638716E+03  0.36151099281E+03  0.10000000000E+01 0.  0.
    9000005    1    3    3    0    0 -0.36624738018E+02  0.49503409775E+02  0.50444625672E+03  0.50819187807E+03  0.10000000000E+01 0.  0.
<mgrwt>
<rscale>  0 0.12500273E+03</rscale>
<asrwt>0</asrwt>
<pdfrwt beam="1">  1        4 0.13310579E+00 0.12500273E+03</pdfrwt>
<pdfrwt beam="2">  1       -4 0.69463296E-03 0.12500273E+03</pdfrwt>
<totfact> 0.35332248E+03</totfact>
</mgrwt>
</event>
<event>
 5    1  0.3398872E-002  0.1249997E+03  0.7818608E-02  0.1235070E+00
         -4   -1    0    0    0  501 -0.00000000000E+00  0.00000000000E+00  0.33582338118E+02  0.33606343649E+02  0.12700000000E+01 0.  1.
          4   -1    0    0  501    0  0.00000000000E+00 -0.00000000000E+00 -0.11624897233E+03  0.11625590939E+03  0.12700000000E+01 0.  1.
         25    2    1    2    0    0  0.00000000000E+00  0.00000000000E+00 -0.82666634217E+02  0.14986225304E+03  0.12499968990E+03 0.  0.
    9000005    1    3    3    0    0 -0.29549979697E+01 -0.14113529257E+01  0.33485277982E+02  0.33659883714E+02  0.10000000000E+01 0.  0.
    9000005    1    3    3    0    0  0.29549979697E+01  0.14113529257E+01 -0.11615191220E+03  0.11620236933E+03  0.10000000000E+01 0.  0.
<mgrwt>
<rscale>  0 0.12499969E+03</rscale>
<asrwt>0</asrwt>
<pdfrwt beam="2">  1        4 0.17886837E-01 0.12499969E+03</pdfrwt>
<pdfrwt beam="1">  1       -4 0.51688938E-02 0.12499969E+03</pdfrwt>
<totfact> 0.99331856E+03</totfact>
</mgrwt>
</event>
<event>
 5    1  0.3398872E-002  0.1249977E+03  0.7818608E-02  0.1235073E+00
          4   -1    0    0  501    0  0.00000000000E+00  0.00000000000E+00  0.97467642252E+01  0.98291562640E+01  0.12700000000E+01 0.  1.
         -4   -1    0    0    0  501 -0.00000000000E+00 -0.00000000000E+00 -0.39898890102E+03  0.39899092225E+03  0.12700000000E+01 0.  1.
         25    2    1    2    0    0  0.00000000000E+00  0.00000000000E+00 -0.38924213680E+03  0.40882007852E+03  0.12499766213E+03 0.  0.
    9000005    1    3    3    0    0 -0.49205374747E+02  0.32158784301E+02 -0.12526016498E+03  0.13837075284E+03  0.10000000000E+01 0.  0.
    9000005    1    3    3    0    0  0.49205374747E+02 -0.32158784301E+02 -0.26398197182E+03  0.27044932567E+03  0.10000000000E+01 0.  0.
<mgrwt>
<rscale>  0 0.12499766E+03</rscale>
<asrwt>0</asrwt>
<pdfrwt beam="1">  1        4 0.15059958E-02 0.12499766E+03</pdfrwt>
<pdfrwt beam="2">  1       -4 0.61389389E-01 0.12499766E+03</pdfrwt>
<totfact> 0.63707197E+03</totfact>
</mgrwt>
</event>
<event>
 5    1  0.3398872E-002  0.1249985E+03  0.7818608E-02  0.1235072E+00
          4   -1    0    0  501    0  0.00000000000E+00  0.00000000000E+00  0.94463198541E+02  0.94471735342E+02  0.12700000000E+01 0. -1.
         -4   -1    0    0    0  501 -0.00000000000E+00 -0.00000000000E+00 -0.41330936105E+02  0.41350443521E+02  0.12700000000E+01 0. -1.
         25    2    1    2    0    0  0.00000000000E+00  0.00000000000E+00  0.53132262436E+02  0.13582217886E+03  0.12499850783E+03 0.  0.
    9000005    1    3    3    0    0  0.23625404270E+02  0.35394286756E+02 -0.23159378423E+02  0.48458973068E+02  0.10000000000E+01 0.  0.
    9000005    1    3    3    0    0 -0.23625404270E+02 -0.35394286756E+02  0.76291640859E+02  0.87363205795E+02  0.10000000000E+01 0.  0.
<mgrwt>
<rscale>  0 0.12499851E+03</rscale>
<asrwt>0</asrwt>
<pdfrwt beam="1">  1        4 0.14534957E-01 0.12499851E+03</pdfrwt>
<pdfrwt beam="2">  1       -4 0.63607628E-02 0.12499851E+03</pdfrwt>
<totfact> 0.10221114E+04</totfact>
</mgrwt>
</event>
<event>
 5    1  0.3398872E-002  0.1249997E+03  0.7818608E-02  0.1235070E+00
         -4   -1    0    0    0  501 -0.00000000000E+00  0.00000000000E+00  0.34116096224E+02  0.34139726442E+02  0.12700000000E+01 0. -1.
          4   -1    0    0  501    0  0.00000000000E+00 -0.00000000000E+00 -0.11443143147E+03  0.11443847871E+03  0.12700000000E+01 0. -1.
         25    2    1    2    0    0  0.00000000000E+00  0.00000000000E+00 -0.80315335250E+02  0.14857820515E+03  0.12499971988E+03 0.  0.
    9000005    1    3    3    0    0 -0.26028158198E+02  0.54556203588E+02 -0.21311699779E+02  0.64101738795E+02  0.10000000000E+01 0.  0.
    9000005    1    3    3    0    0  0.26028158198E+02 -0.54556203588E+02 -0.59003635471E+02  0.84476466356E+02  0.10000000000E+01 0.  0.
<mgrwt>
<rscale>  0 0.12499972E+03</rscale>
<asrwt>0</asrwt>
<pdfrwt beam="2">  1        4 0.17607195E-01 0.12499972E+03</pdfrwt>
<pdfrwt beam="1">  1       -4 0.52509901E-02 0.12499972E+03</pdfrwt>
<totfact> 0.99588498E+03</totfact>
</mgrwt>
</event>
<event>
 5    1  0.3398872E-002  0.1250033E+03  0.7818608E-02  0.1235064E+00
         -4   -1    0    0    0  501 -0.00000000000E+00  0.00000000000E+00  0.48301386688E+02  0.48318080011E+02  0.12700000000E+01 0. -1.
          4   -1    0    0  501    0  0.00000000000E+00 -0.00000000000E+00 -0.80840982697E+02  0.80850957839E+02  0.12700000000E+01 0. -1.
         25    2    1    2    0    0  0.00000000000E+00  0.00000000000E+00 -0.32539596009E+02  0.12916903785E+03  0.12500326008E+03 0.  0.
    9000005    1    3    3    0    0  0.24462300685E+02  0.57358665653E+02 -0.20534450461E+02  0.65658848117E+02  0.10000000000E+01 0.  0.
    9000005    1    3    3    0    0 -0.24462300685E+02 -0.57358665653E+02 -0.12005145548E+02  0.63510189733E+02  0.10000000000E+01 0.  0.
<mgrwt>
<rscale>  0 0.12500326E+03</rscale>
<asrwt>0</asrwt>
<pdfrwt beam="2">  1        4 0.12439126E-01 0.12500326E+03</pdfrwt>
<pdfrwt beam="1">  1       -4 0.74330340E-02 0.12500326E+03</pdfrwt>
<totfact> 0.10361553E+04</totfact>
</mgrwt>
</event>
<event>
 5    1  0.3398872E-002  0.1250004E+03  0.7818608E-02  0.1235069E+00
          4   -1    0    0  501    0  0.00000000000E+00  0.00000000000E+00  0.81899750419E+02  0.81909596622E+02  0.12700000000E+01 0. -1.
         -4   -1    0    0    0  501 -0.00000000000E+00 -0.00000000000E+00 -0.47674636485E+02  0.47691549188E+02  0.12700000000E+01 0. -1.
         25    2    1    2    0    0  0.00000000000E+00  0.00000000000E+00  0.34225113934E+02  0.12960114581E+03  0.12500039429E+03 0.  0.
    9000005    1    3    3    0    0  0.70679080606E+01 -0.46452336588E+01 -0.47083573345E+02  0.47847637340E+02  0.10000000000E+01 0.  0.
    9000005    1    3    3    0    0 -0.70679080606E+01  0.46452336588E+01  0.81308687279E+02  0.81753508470E+02  0.10000000000E+01 0.  0.
<mgrwt>
<rscale>  0 0.12500039E+03</rscale>
<asrwt>0</asrwt>
<pdfrwt beam="1">  1        4 0.12602020E-01 0.12500039E+03</pdfrwt>
<pdfrwt beam="2">  1       -4 0.73366179E-02 0.12500039E+03</pdfrwt>
<totfact> 0.10352955E+04</totfact>
</mgrwt>
</event>
<event>
 5    1  0.3398872E-002  0.1250042E+03  0.7818608E-02  0.1235063E+00
         -4   -1    0    0    0  501 -0.00000000000E+00  0.00000000000E+00  0.15989914338E+04  0.15989919381E+04  0.12700000000E+01 0. -1.
          4   -1    0    0  501    0  0.00000000000E+00 -0.00000000000E+00 -0.22775257536E+01  0.26076854792E+01  0.12700000000E+01 0. -1.
         25    2    1    2    0    0  0.00000000000E+00  0.00000000000E+00  0.15967139080E+04  0.16015996236E+04  0.12500420096E+03 0.  0.
    9000005    1    3    3    0    0  0.31533402771E+01  0.62192465381E+02  0.73096553970E+03  0.73361397651E+03  0.10000000000E+01 0.  0.
    9000005    1    3    3    0    0 -0.31533402771E+01 -0.62192465381E+02  0.86574836833E+03  0.86798564710E+03  0.10000000000E+01 0.  0.
<mgrwt>
<rscale>  0 0.12500420E+03</rscale>
<asrwt>0</asrwt>
<pdfrwt beam="2">  1        4 0.37582298E-03 0.12500420E+03</pdfrwt>
<pdfrwt beam="1">  1       -4 0.24602497E+00 0.12500420E+03</pdfrwt>
<totfact> 0.16015683E+03</totfact>
</mgrwt>
</event>
<event>
 5    1  0.3398872E-002  0.1249993E+03  0.7818608E-02  0.1235070E+00
         -4   -1    0    0    0  501 -0.00000000000E+00  0.00000000000E+00  0.40423452191E+03  0.40423651691E+03  0.12700000000E+01 0. -1.
          4   -1    0    0  501    0  0.00000000000E+00 -0.00000000000E+00 -0.96194570267E+01  0.97029301496E+01  0.12700000000E+01 0. -1.
         25    2    1    2    0    0  0.00000000000E+00  0.00000000000E+00  0.39461506489E+03  0.41393944706E+03  0.12499926560E+03 0.  0.
    9000005    1    3    3    0    0 -0.11029908678E+01 -0.58821162483E+02  0.12752457410E+03  0.14044451839E+03  0.10000000000E+01 0.  0.
    9000005    1    3    3    0    0  0.11029908678E+01  0.58821162483E+02  0.26709049078E+03  0.27349492867E+03  0.10000000000E+01 0.  0.
<mgrwt>
<rscale>  0 0.12499927E+03</rscale>
<asrwt>0</asrwt>
<pdfrwt beam="2">  1        4 0.14864913E-02 0.12499927E+03</pdfrwt>
<pdfrwt beam="1">  1       -4 0.62196487E-01 0.12499927E+03</pdfrwt>
<totfact> 0.63220295E+03</totfact>
</mgrwt>
</event>
<event>
 5    1  0.3398872E-002  0.1249512E+03  0.7818608E-02  0.1235146E+00
          4   -1    0    0  501    0  0.00000000000E+00  0.00000000000E+00  0.13309765797E+02  0.13370219354E+02  0.12700000000E+01 0.  1.
         -4   -1    0    0    0  501 -0.00000000000E+00 -0.00000000000E+00 -0.29253221265E+03  0.29253496943E+03  0.12700000000E+01 0.  1.
         25    2    1    2    0    0  0.00000000000E+00  0.00000000000E+00 -0.27922244685E+03  0.30590518878E+03  0.12495122927E+03 0.  0.
    9000005    1    3    3    0    0  0.17425290084E+02  0.12444967596E+02 -0.28327854216E+03  0.28408845524E+03  0.10000000000E+01 0.  0.
    9000005    1    3    3    0    0 -0.17425290084E+02 -0.12444967596E+02  0.40560953112E+01  0.21816733535E+02  0.10000000000E+01 0.  0.
<mgrwt>
<rscale>  0 0.12495123E+03</rscale>
<asrwt>0</asrwt>
<pdfrwt beam="1">  1        4 0.20525188E-02 0.12495123E+03</pdfrwt>
<pdfrwt beam="2">  1       -4 0.45009813E-01 0.12495123E+03</pdfrwt>
<totfact> 0.74945106E+03</totfact>
</mgrwt>
</event>
<event>
 5    1  0.3398872E-002  0.1250011E+03  0.7818608E-02  0.1235068E+00
          4   -1    0    0  501    0  0.00000000000E+00  0.00000000000E+00  0.30976028238E+02  0.31002051955E+02  0.12700000000E+01 0. -1.
         -4   -1    0    0    0  501 -0.00000000000E+00 -0.00000000000E+00 -0.12602563927E+03  0.12603203821E+03  0.12700000000E+01 0. -1.
         25    2    1    2    0    0  0.00000000000E+00  0.00000000000E+00 -0.95049611035E+02  0.15703409016E+03  0.12500110765E+03 0.  0.
    9000005    1    3    3    0    0 -0.49426560377E+02  0.34468658712E+01  0.31969030885E+00  0.49557723484E+02  0.10000000000E+01 0.  0.
    9000005    1    3    3    0    0  0.49426560377E+02 -0.34468658712E+01 -0.95369301344E+02  0.10747636668E+03  0.10000000000E+01 0.  0.
<mgrwt>
<rscale>  0 0.12500111E+03</rscale>
<asrwt>0</asrwt>
<pdfrwt beam="1">  1        4 0.47680369E-02 0.12500111E+03</pdfrwt>
<pdfrwt beam="2">  1       -4 0.19391054E-01 0.12500111E+03</pdfrwt>
<totfact> 0.97915217E+03</totfact>
</mgrwt>
</event>
<event>
 5    1  0.3398872E-002  0.1249933E+03  0.7818608E-02  0.1235080E+00
          4   -1    0    0  501    0  0.00000000000E+00  0.00000000000E+00  0.11769499289E+03  0.11770184472E+03  0.12700000000E+01 0.  1.
         -4   -1    0    0    0  501 -0.00000000000E+00 -0.00000000000E+00 -0.33166068075E+02  0.33190374683E+02  0.12700000000E+01 0.  1.
         25    2    1    2    0    0  0.00000000000E+00  0.00000000000E+00  0.84528924811E+02  0.15089221940E+03  0.12499329081E+03 0.  0.
    9000005    1    3    3    0    0 -0.29584150570E+02  0.12472959327E+02 -0.22453687778E+02  0.39191386479E+02  0.10000000000E+01 0.  0.
    9000005    1    3    3    0    0  0.29584150570E+02 -0.12472959327E+02  0.10698261259E+03  0.11170083292E+03  0.10000000000E+01 0.  0.
<mgrwt>
<rscale>  0 0.12499329E+03</rscale>
<asrwt>0</asrwt>
<pdfrwt beam="1">  1        4 0.18109319E-01 0.12499329E+03</pdfrwt>
<pdfrwt beam="2">  1       -4 0.51048688E-02 0.12499329E+03</pdfrwt>
<totfact> 0.99141112E+03</totfact>
</mgrwt>
</event>
<event>
 5    1  0.3398872E-002  0.1250008E+03  0.7818608E-02  0.1235068E+00
         -4   -1    0    0    0  501 -0.00000000000E+00  0.00000000000E+00  0.10579064621E+03  0.10579826901E+03  0.12700000000E+01 0.  1.
          4   -1    0    0  501    0  0.00000000000E+00 -0.00000000000E+00 -0.36904954100E+02  0.36926799714E+02  0.12700000000E+01 0.  1.
         25    2    1    2    0    0  0.00000000000E+00  0.00000000000E+00  0.68885692112E+02  0.14272506873E+03  0.12500082666E+03 0.  0.
    9000005    1    3    3    0    0 -0.12301888741E+02 -0.39848384038E+02  0.87583117528E+02  0.97010477027E+02  0.10000000000E+01 0.  0.
    9000005    1    3    3    0    0  0.12301888741E+02  0.39848384038E+02 -0.18697425416E+02  0.45714591699E+02  0.10000000000E+01 0.  0.
<mgrwt>
<rscale>  0 0.12500083E+03</rscale>
<asrwt>0</asrwt>
<pdfrwt beam="2">  1        4 0.56799523E-02 0.12500083E+03</pdfrwt>
<pdfrwt beam="1">  1       -4 0.16277750E-01 0.12500083E+03</pdfrwt>
<totfact> 0.10077229E+04</totfact>
</mgrwt>
</event>
<event>
 5    1  0.3398872E-002  0.1250010E+03  0.7818608E-02  0.1235068E+00
         -4   -1    0    0    0  501 -0.00000000000E+00  0.00000000000E+00  0.28940083763E+02  0.28967936554E+02  0.12700000000E+01 0.  1.
          4   -1    0    0  501    0  0.00000000000E+00 -0.00000000000E+00 -0.13488355859E+03  0.13488953732E+03  0.12700000000E+01 0.  1.
         25    2    1    2    0    0  0.00000000000E+00  0.00000000000E+00 -0.10594347483E+03  0.16385747388E+03  0.12500100754E+03 0.  0.
    9000005    1    3    3    0    0 -0.41779348496E+02 -0.28365163650E+02 -0.10122837770E+03  0.11312948741E+03  0.10000000000E+01 0.  0.
    9000005    1    3    3    0    0  0.41779348496E+02  0.28365163650E+02 -0.47150971252E+01  0.50727986462E+02  0.10000000000E+01 0.  0.
<mgrwt>
<rscale>  0 0.12500101E+03</rscale>
<asrwt>0</asrwt>
<pdfrwt beam="2">  1        4 0.20753919E-01 0.12500101E+03</pdfrwt>
<pdfrwt beam="1">  1       -4 0.44549231E-02 0.12500101E+03</pdfrwt>
<totfact> 0.96602020E+03</totfact>
</mgrwt>
</event>
<event>
 5    1  0.3398872E-002  0.1249978E+03  0.7818608E-02  0.1235073E+00
          4   -1    0    0  501    0  0.00000000000E+00  0.00000000000E+00  0.25771942742E+02  0.25803215550E+02  0.12700000000E+01 0.  1.
         -4   -1    0    0    0  501 -0.00000000000E+00 -0.00000000000E+00 -0.15143877371E+03  0.15144409887E+03  0.12700000000E+01 0.  1.
         25    2    1    2    0    0  0.00000000000E+00  0.00000000000E+00 -0.12566683096E+03  0.17724731442E+03  0.12499783223E+03 0.  0.
    9000005    1    3    3    0    0 -0.41139222066E+02 -0.17995268253E+02 -0.12446109716E+03  0.13231715678E+03  0.10000000000E+01 0.  0.
    9000005    1    3    3    0    0  0.41139222066E+02  0.17995268253E+02 -0.12057338079E+01  0.44930157642E+02  0.10000000000E+01 0.  0.
<mgrwt>
<rscale>  0 0.12499783E+03</rscale>
<asrwt>0</asrwt>
<pdfrwt beam="1">  1        4 0.39677296E-02 0.12499783E+03</pdfrwt>
<pdfrwt beam="2">  1       -4 0.23301088E-01 0.12499783E+03</pdfrwt>
<totfact> 0.94119431E+03</totfact>
</mgrwt>
</event>
<event>
 5    1  0.3398872E-002  0.1250014E+03  0.7818608E-02  0.1235067E+00
         -4   -1    0    0    0  501 -0.00000000000E+00  0.00000000000E+00  0.28444056273E+03  0.28444339793E+03  0.12700000000E+01 0. -1.
          4   -1    0    0  501    0  0.00000000000E+00 -0.00000000000E+00 -0.13701140572E+02  0.13759874744E+02  0.12700000000E+01 0. -1.
         25    2    1    2    0    0  0.00000000000E+00  0.00000000000E+00  0.27073942216E+03  0.29820327268E+03  0.12500142849E+03 0.  0.
    9000005    1    3    3    0    0 -0.17985970913E-01 -0.53105633484E+02  0.21395449159E+03  0.22044893536E+03  0.10000000000E+01 0.  0.
    9000005    1    3    3    0    0  0.17985970913E-01  0.53105633484E+02  0.56784930570E+02  0.77754337314E+02  0.10000000000E+01 0.  0.
<mgrwt>
<rscale>  0 0.12500143E+03</rscale>
<asrwt>0</asrwt>
<pdfrwt beam="2">  1        4 0.21126041E-02 0.12500143E+03</pdfrwt>
<pdfrwt beam="1">  1       -4 0.43764819E-01 0.12500143E+03</pdfrwt>
<totfact> 0.75822368E+03</totfact>
</mgrwt>
</event>
<event>
 5    1  0.3398872E-002  0.1249897E+03  0.7818608E-02  0.1235085E+00
         -4   -1    0    0    0  501 -0.00000000000E+00  0.00000000000E+00  0.22868386527E+02  0.22903624219E+02  0.12700000000E+01 0. -1.
          4   -1    0    0  501    0  0.00000000000E+00 -0.00000000000E+00 -0.17061704393E+03  0.17062177053E+03  0.12700000000E+01 0. -1.
         25    2    1    2    0    0  0.00000000000E+00  0.00000000000E+00 -0.14774865740E+03  0.19352539475E+03  0.12498965017E+03 0.  0.
    9000005    1    3    3    0    0  0.53103275992E+02 -0.32494555906E+02 -0.65572459864E+02  0.90424562909E+02  0.10000000000E+01 0.  0.
    9000005    1    3    3    0    0 -0.53103275992E+02  0.32494555906E+02 -0.82176197540E+02  0.10310083184E+03  0.10000000000E+01 0.  0.
<mgrwt>
<rscale>  0 0.12498965E+03</rscale>
<asrwt>0</asrwt>
<pdfrwt beam="2">  1        4 0.26251849E-01 0.12498965E+03</pdfrwt>
<pdfrwt beam="1">  1       -4 0.35212876E-02 0.12498965E+03</pdfrwt>
<totfact> 0.91258649E+03</totfact>
</mgrwt>
</event>
<event>
 5    1  0.3398872E-002  0.1249999E+03  0.7818608E-02  0.1235069E+00
         -4   -1    0    0    0  501 -0.00000000000E+00  0.00000000000E+00  0.56947573110E+03  0.56947714722E+03  0.12700000000E+01 0.  1.
          4   -1    0    0  501    0  0.00000000000E+00 -0.00000000000E+00 -0.67991515227E+01  0.69167450025E+01  0.12700000000E+01 0.  1.
         25    2    1    2    0    0  0.00000000000E+00  0.00000000000E+00  0.56267657957E+03  0.57639389222E+03  0.12499994317E+03 0.  0.
    9000005    1    3    3    0    0  0.56353213183E+02 -0.18216485880E+02  0.18937826832E+03  0.19842543563E+03  0.10000000000E+01 0.  0.
    9000005    1    3    3    0    0 -0.56353213183E+02  0.18216485880E+02  0.37329831125E+03  0.37796845659E+03  0.10000000000E+01 0.  0.
<mgrwt>
<rscale>  0 0.12499994E+03</rscale>
<asrwt>0</asrwt>
<pdfrwt beam="2">  1        4 0.10551774E-02 0.12499994E+03</pdfrwt>
<pdfrwt beam="1">  1       -4 0.87620844E-01 0.12499994E+03</pdfrwt>
<totfact> 0.50392470E+03</totfact>
</mgrwt>
</event>
<event>
 5    1  0.3398872E-002  0.1250034E+03  0.7818608E-02  0.1235064E+00
         -4   -1    0    0    0  501 -0.00000000000E+00  0.00000000000E+00  0.12584285796E+04  0.12584292205E+04  0.12700000000E+01 0.  1.
          4   -1    0    0  501    0  0.00000000000E+00 -0.00000000000E+00 -0.29736747008E+01  0.32335183973E+01  0.12700000000E+01 0.  1.
         25    2    1    2    0    0  0.00000000000E+00  0.00000000000E+00  0.12554549049E+04  0.12616627389E+04  0.12500339328E+03 0.  0.
    9000005    1    3    3    0    0  0.54232431799E+02  0.47205627317E+01  0.93750642219E+03  0.93908611534E+03  0.10000000000E+01 0.  0.
    9000005    1    3    3    0    0 -0.54232431799E+02 -0.47205627317E+01  0.31794848275E+03  0.32257662354E+03  0.10000000000E+01 0.  0.
<mgrwt>
<rscale>  0 0.12500339E+03</rscale>
<asrwt>0</asrwt>
<pdfrwt beam="2">  1        4 0.47752525E-03 0.12500339E+03</pdfrwt>
<pdfrwt beam="1">  1       -4 0.19362461E+00 0.12500339E+03</pdfrwt>
<totfact> 0.23150068E+03</totfact>
</mgrwt>
</event>
<event>
 5    1  0.3398872E-002  0.1249988E+03  0.7818608E-02  0.1235071E+00
         -4   -1    0    0    0  501 -0.00000000000E+00  0.00000000000E+00  0.22973490006E+03  0.22973841039E+03  0.12700000000E+01 0. -1.
          4   -1    0    0  501    0  0.00000000000E+00 -0.00000000000E+00 -0.16975610527E+02  0.17023050631E+02  0.12700000000E+01 0. -1.
         25    2    1    2    0    0  0.00000000000E+00  0.00000000000E+00  0.21275928953E+03  0.24676146102E+03  0.12499881343E+03 0.  0.
    9000005    1    3    3    0    0 -0.10381887929E+02  0.19681389262E+02  0.22165882273E+03  0.22277516553E+03  0.10000000000E+01 0.  0.
    9000005    1    3    3    0    0  0.10381887929E+02 -0.19681389262E+02 -0.88995331965E+01  0.23986295491E+02  0.10000000000E+01 0.  0.
<mgrwt>
<rscale>  0 0.12499881E+03</rscale>
<asrwt>0</asrwt>
<pdfrwt beam="2">  1        4 0.26155517E-02 0.12499881E+03</pdfrwt>
<pdfrwt beam="1">  1       -4 0.35347749E-01 0.12499881E+03</pdfrwt>
<totfact> 0.82802751E+03</totfact>
</mgrwt>
</event>
<event>
 5    1  0.3398872E-002  0.1249994E+03  0.7818608E-02  0.1235070E+00
         -4   -1    0    0    0  501 -0.00000000000E+00  0.00000000000E+00  0.26851860196E+03  0.26852160528E+03  0.12700000000E+01 0.  1.
          4   -1    0    0  501    0  0.00000000000E+00 -0.00000000000E+00 -0.14516451459E+02  0.14571899772E+02  0.12700000000E+01 0.  1.
         25    2    1    2    0    0  0.00000000000E+00  0.00000000000E+00  0.25400215050E+03  0.28309350505E+03  0.12499936056E+03 0.  0.
    9000005    1    3    3    0    0 -0.29297798747E+02  0.25553703329E+02  0.16193043545E+02  0.42125614827E+02  0.10000000000E+01 0.  0.
    9000005    1    3    3    0    0  0.29297798747E+02 -0.25553703329E+02  0.23780910696E+03  0.24096789022E+03  0.10000000000E+01 0.  0.
<mgrwt>
<rscale>  0 0.12499936E+03</rscale>
<asrwt>0</asrwt>
<pdfrwt beam="2">  1        4 0.22377965E-02 0.12499936E+03</pdfrwt>
<pdfrwt beam="1">  1       -4 0.41315051E-01 0.12499936E+03</pdfrwt>
<totfact> 0.77770813E+03</totfact>
</mgrwt>
</event>
<event>
 5    1  0.3398872E-002  0.1249775E+03  0.7818608E-02  0.1235104E+00
          4   -1    0    0  501    0  0.00000000000E+00  0.00000000000E+00  0.16744330768E+03  0.16744812387E+03  0.12700000000E+01 0.  1.
         -4   -1    0    0    0  501 -0.00000000000E+00 -0.00000000000E+00 -0.23297960066E+02  0.23332549009E+02  0.12700000000E+01 0.  1.
         25    2    1    2    0    0  0.00000000000E+00  0.00000000000E+00  0.14414534762E+03  0.19078067288E+03  0.12497753360E+03 0.  0.
    9000005    1    3    3    0    0 -0.34454364673E+01 -0.56934645749E+02  0.33141300573E+02  0.65975531242E+02  0.10000000000E+01 0.  0.
    9000005    1    3    3    0    0  0.34454364673E+01  0.56934645749E+02  0.11100404704E+03  0.12480514164E+03  0.10000000000E+01 0.  0.
<mgrwt>
<rscale>  0 0.12497753E+03</rscale>
<asrwt>0</asrwt>
<pdfrwt beam="1">  1        4 0.25763541E-01 0.12497753E+03</pdfrwt>
<pdfrwt beam="2">  1       -4 0.35873326E-02 0.12497753E+03</pdfrwt>
<totfact> 0.91757821E+03</totfact>
</mgrwt>
</event>
<event>
 5    1  0.3398872E-002  0.1249944E+03  0.7818608E-02  0.1235078E+00
          4   -1    0    0  501    0  0.00000000000E+00  0.00000000000E+00  0.17477378944E+03  0.17477840363E+03  0.12700000000E+01 0.  1.
         -4   -1    0    0    0  501 -0.00000000000E+00 -0.00000000000E+00 -0.22325360773E+02  0.22361454193E+02  0.12700000000E+01 0.  1.
         25    2    1    2    0    0  0.00000000000E+00  0.00000000000E+00  0.15244842867E+03  0.19713985782E+03  0.12499440043E+03 0.  0.
    9000005    1    3    3    0    0  0.45029127286E+02 -0.22359533041E+02  0.13475747656E+03  0.14383375303E+03  0.10000000000E+01 0.  0.
    9000005    1    3    3    0    0 -0.45029127286E+02  0.22359533041E+02  0.17690952112E+02  0.53306104797E+02  0.10000000000E+01 0.  0.
<mgrwt>
<rscale>  0 0.12499440E+03</rscale>
<asrwt>0</asrwt>
<pdfrwt beam="1">  1        4 0.26891407E-01 0.12499440E+03</pdfrwt>
<pdfrwt beam="2">  1       -4 0.34378022E-02 0.12499440E+03</pdfrwt>
<totfact> 0.90630988E+03</totfact>
</mgrwt>
</event>
<event>
 5    1  0.3398872E-002  0.1250012E+03  0.7818608E-02  0.1235067E+00
         -4   -1    0    0    0  501 -0.00000000000E+00  0.00000000000E+00  0.10272082579E+02  0.10350293740E+02  0.12700000000E+01 0.  1.
          4   -1    0    0  501    0  0.00000000000E+00 -0.00000000000E+00 -0.37876409612E+03  0.37876622527E+03  0.12700000000E+01 0.  1.
         25    2    1    2    0    0  0.00000000000E+00  0.00000000000E+00 -0.36849201354E+03  0.38911651901E+03  0.12500120530E+03 0.  0.
    9000005    1    3    3    0    0  0.81796375970E+01 -0.31510027578E+02 -0.35029933618E+03  0.35181019490E+03  0.10000000000E+01 0.  0.
    9000005    1    3    3    0    0 -0.81796375970E+01  0.31510027578E+02 -0.18192677357E+02  0.37306324110E+02  0.10000000000E+01 0.  0.
<mgrwt>
<rscale>  0 0.12500121E+03</rscale>
<asrwt>0</asrwt>
<pdfrwt beam="2">  1        4 0.58277569E-01 0.12500121E+03</pdfrwt>
<pdfrwt beam="1">  1       -4 0.15865007E-02 0.12500121E+03</pdfrwt>
<totfact> 0.65623506E+03</totfact>
</mgrwt>
</event>
<event>
 5    1  0.3398872E-002  0.1250002E+03  0.7818608E-02  0.1235069E+00
          4   -1    0    0  501    0  0.00000000000E+00  0.00000000000E+00  0.55785192960E+01  0.57212566395E+01  0.12700000000E+01 0.  1.
         -4   -1    0    0    0  501 -0.00000000000E+00 -0.00000000000E+00 -0.69124470089E+03  0.69124586756E+03  0.12700000000E+01 0.  1.
         25    2    1    2    0    0  0.00000000000E+00  0.00000000000E+00 -0.68566618160E+03  0.69696712420E+03  0.12500023849E+03 0.  0.
    9000005    1    3    3    0    0  0.56878373208E+02 -0.10183364082E+02 -0.47553241011E+03  0.47903123417E+03  0.10000000000E+01 0.  0.
    9000005    1    3    3    0    0 -0.56878373208E+02  0.10183364082E+02 -0.21013377149E+03  0.21793589003E+03  0.10000000000E+01 0.  0.
<mgrwt>
<rscale>  0 0.12500024E+03</rscale>
<asrwt>0</asrwt>
<pdfrwt beam="1">  1        4 0.86930382E-03 0.12500024E+03</pdfrwt>
<pdfrwt beam="2">  1       -4 0.10635634E+00 0.12500024E+03</pdfrwt>
<totfact> 0.43247070E+03</totfact>
</mgrwt>
</event>
<event>
 5    1  0.3398872E-002  0.1249996E+03  0.7818608E-02  0.1235070E+00
         -4   -1    0    0    0  501 -0.00000000000E+00  0.00000000000E+00  0.22728397841E+03  0.22728752659E+03  0.12700000000E+01 0.  1.
          4   -1    0    0  501    0  0.00000000000E+00 -0.00000000000E+00 -0.17159397810E+02  0.17206331195E+02  0.12700000000E+01 0.  1.
         25    2    1    2    0    0  0.00000000000E+00  0.00000000000E+00  0.21012458060E+03  0.24449385778E+03  0.12499962848E+03 0.  0.
    9000005    1    3    3    0    0  0.22858828745E+02  0.58130108045E+02  0.10876895317E+03  0.12543253441E+03  0.10000000000E+01 0.  0.
    9000005    1    3    3    0    0 -0.22858828745E+02 -0.58130108045E+02  0.10135562743E+03  0.11906132338E+03  0.10000000000E+01 0.  0.
<mgrwt>
<rscale>  0 0.12499963E+03</rscale>
<asrwt>0</asrwt>
<pdfrwt beam="2">  1        4 0.26437908E-02 0.12499963E+03</pdfrwt>
<pdfrwt beam="1">  1       -4 0.34970646E-01 0.12499963E+03</pdfrwt>
<totfact> 0.83133296E+03</totfact>
</mgrwt>
</event>
<event>
 5    1  0.3398872E-002  0.1249737E+03  0.7818608E-02  0.1235110E+00
          4   -1    0    0  501    0  0.00000000000E+00  0.00000000000E+00  0.23959858897E+02  0.23993493668E+02  0.12700000000E+01 0. -1.
         -4   -1    0    0    0  501 -0.00000000000E+00 -0.00000000000E+00 -0.16281404532E+03  0.16281899844E+03  0.12700000000E+01 0. -1.
         25    2    1    2    0    0  0.00000000000E+00  0.00000000000E+00 -0.13885418642E+03  0.18681249211E+03  0.12497368571E+03 0.  0.
    9000005    1    3    3    0    0 -0.61043747289E+02  0.51032915122E+01 -0.87809232962E+02  0.10706934230E+03  0.10000000000E+01 0.  0.
    9000005    1    3    3    0    0  0.61043747289E+02 -0.51032915122E+01 -0.51044953457E+02  0.79743149805E+02  0.10000000000E+01 0.  0.
<mgrwt>
<rscale>  0 0.12497369E+03</rscale>
<asrwt>0</asrwt>
<pdfrwt beam="1">  1        4 0.36891005E-02 0.12497369E+03</pdfrwt>
<pdfrwt beam="2">  1       -4 0.25051282E-01 0.12497369E+03</pdfrwt>
<totfact> 0.92459412E+03</totfact>
</mgrwt>
</event>
<event>
 5    1  0.3398872E-002  0.1249995E+03  0.7818608E-02  0.1235070E+00
          4   -1    0    0  501    0  0.00000000000E+00  0.00000000000E+00  0.21634520955E+02  0.21671764971E+02  0.12700000000E+01 0.  1.
         -4   -1    0    0    0  501 -0.00000000000E+00 -0.00000000000E+00 -0.18036010603E+03  0.18036457731E+03  0.12700000000E+01 0.  1.
         25    2    1    2    0    0  0.00000000000E+00  0.00000000000E+00 -0.15872558508E+03  0.20203634228E+03  0.12499948897E+03 0.  0.
    9000005    1    3    3    0    0 -0.23374119778E+02  0.22455043917E+02  0.69940792502E+01  0.33173718774E+02  0.10000000000E+01 0.  0.
    9000005    1    3    3    0    0  0.23374119778E+02 -0.22455043917E+02 -0.16571966433E+03  0.16886262351E+03  0.10000000000E+01 0.  0.
<mgrwt>
<rscale>  0 0.12499949E+03</rscale>
<asrwt>0</asrwt>
<pdfrwt beam="1">  1        4 0.33315968E-02 0.12499949E+03</pdfrwt>
<pdfrwt beam="2">  1       -4 0.27750917E-01 0.12499949E+03</pdfrwt>
<totfact> 0.89794221E+03</totfact>
</mgrwt>
</event>
<event>
 4    1  0.3398872E-002  0.1244300E+03  0.7818608E-02  0.1235963E+00
          4   -1    0    0  501    0  0.00000000000E+00  0.00000000000E+00  0.95664743144E+01  0.96504057329E+01  0.12700000000E+01 0.  1.
         -4   -1    0    0    0  501 -0.00000000000E+00 -0.00000000000E+00 -0.40275940577E+03  0.40276140808E+03  0.12700000000E+01 0.  1.
    9000005    1    1    2    0    0 -0.39354861871E+02  0.46811356795E+02 -0.23432797841E+03  0.24217908610E+03  0.10000000000E+01 0.  0.
    9000005    1    1    2    0    0  0.39354861871E+02 -0.46811356795E+02 -0.15886495304E+03  0.17023272771E+03  0.10000000000E+01 0.  0.
<mgrwt>
<rscale>  0 0.12442999E+03</rscale>
<asrwt>0</asrwt>
<pdfrwt beam="1">  1        4 0.14783759E-02 0.12442999E+03</pdfrwt>
<pdfrwt beam="2">  1       -4 0.61969583E-01 0.12442999E+03</pdfrwt>
<totfact> 0.64166871E+03</totfact>
</mgrwt>
</event>
<event>
 5    1  0.3398872E-002  0.1249990E+03  0.7818608E-02  0.1235071E+00
          4   -1    0    0  501    0  0.00000000000E+00  0.00000000000E+00  0.19126896969E+03  0.19127318596E+03  0.12700000000E+01 0. -1.
         -4   -1    0    0    0  501 -0.00000000000E+00 -0.00000000000E+00 -0.20398306669E+02  0.20437803575E+02  0.12700000000E+01 0. -1.
         25    2    1    2    0    0  0.00000000000E+00  0.00000000000E+00  0.17087066302E+03  0.21171098953E+03  0.12499903843E+03 0.  0.
    9000005    1    3    3    0    0  0.12447155876E+02  0.56647857186E+02  0.12483994880E+03  0.13765872376E+03  0.10000000000E+01 0.  0.
    9000005    1    3    3    0    0 -0.12447155876E+02 -0.56647857186E+02  0.46030714224E+02  0.74052265767E+02  0.10000000000E+01 0.  0.
<mgrwt>
<rscale>  0 0.12499904E+03</rscale>
<asrwt>0</asrwt>
<pdfrwt beam="1">  1        4 0.29429357E-01 0.12499904E+03</pdfrwt>
<pdfrwt beam="2">  1       -4 0.31415637E-02 0.12499904E+03</pdfrwt>
<totfact> 0.88199110E+03</totfact>
</mgrwt>
</event>
<event>
 5    1  0.3398872E-002  0.1250020E+03  0.7818608E-02  0.1235066E+00
         -4   -1    0    0    0  501 -0.00000000000E+00  0.00000000000E+00  0.47226410555E+02  0.47243483719E+02  0.12700000000E+01 0.  1.
          4   -1    0    0  501    0  0.00000000000E+00 -0.00000000000E+00 -0.82678994199E+02  0.82688747613E+02  0.12700000000E+01 0.  1.
         25    2    1    2    0    0  0.00000000000E+00  0.00000000000E+00 -0.35452583645E+02  0.12993223133E+03  0.12500199619E+03 0.  0.
    9000005    1    3    3    0    0  0.25057248625E+02  0.42983873104E+02 -0.57031683595E+02  0.75690765549E+02  0.10000000000E+01 0.  0.
    9000005    1    3    3    0    0 -0.25057248625E+02 -0.42983873104E+02  0.21579099950E+02  0.54241465783E+02  0.10000000000E+01 0.  0.
<mgrwt>
<rscale>  0 0.12500200E+03</rscale>
<asrwt>0</asrwt>
<pdfrwt beam="2">  1        4 0.12721909E-01 0.12500200E+03</pdfrwt>
<pdfrwt beam="1">  1       -4 0.72676652E-02 0.12500200E+03</pdfrwt>
<totfact> 0.10345491E+04</totfact>
</mgrwt>
</event>
<event>
 5    1  0.3398872E-002  0.1250119E+03  0.7818608E-02  0.1235051E+00
         -4   -1    0    0    0  501 -0.00000000000E+00  0.00000000000E+00  0.12211975031E+03  0.12212635389E+03  0.12700000000E+01 0.  1.
          4   -1    0    0  501    0  0.00000000000E+00 -0.00000000000E+00 -0.31973075857E+02  0.31998288701E+02  0.12700000000E+01 0.  1.
         25    2    1    2    0    0  0.00000000000E+00  0.00000000000E+00  0.90146674452E+02  0.15412464260E+03  0.12501192959E+03 0.  0.
    9000005    1    3    3    0    0  0.50972653482E+02  0.97600705102E+01  0.21428299245E+01  0.51952498491E+02  0.10000000000E+01 0.  0.
    9000005    1    3    3    0    0 -0.50972653482E+02 -0.97600705102E+01  0.88003844527E+02  0.10217214410E+03  0.10000000000E+01 0.  0.
<mgrwt>
<rscale>  0 0.12501193E+03</rscale>
<asrwt>0</asrwt>
<pdfrwt beam="2">  1        4 0.49213822E-02 0.12501193E+03</pdfrwt>
<pdfrwt beam="1">  1       -4 0.18790101E-01 0.12501193E+03</pdfrwt>
<totfact> 0.98461195E+03</totfact>
</mgrwt>
</event>
<event>
 5    1  0.3398872E-002  0.1249964E+03  0.7818608E-02  0.1235075E+00
          4   -1    0    0  501    0  0.00000000000E+00  0.00000000000E+00  0.60993115255E+02  0.61006335806E+02  0.12700000000E+01 0.  1.
         -4   -1    0    0    0  501 -0.00000000000E+00 -0.00000000000E+00 -0.64013994903E+02  0.64026591690E+02  0.12700000000E+01 0.  1.
         25    2    1    2    0    0  0.00000000000E+00  0.00000000000E+00 -0.30208796484E+01  0.12503292750E+03  0.12499642893E+03 0.  0.
    9000005    1    3    3    0    0  0.20559281153E+02 -0.42831287212E+02  0.39094806938E+02  0.61535413668E+02  0.10000000000E+01 0.  0.
    9000005    1    3    3    0    0 -0.20559281153E+02  0.42831287212E+02 -0.42115686586E+02  0.63497513828E+02  0.10000000000E+01 0.  0.
<mgrwt>
<rscale>  0 0.12499643E+03</rscale>
<asrwt>0</asrwt>
<pdfrwt beam="1">  1        4 0.93855421E-02 0.12499643E+03</pdfrwt>
<pdfrwt beam="2">  1       -4 0.98502929E-02 0.12499643E+03</pdfrwt>
<totfact> 0.10452991E+04</totfact>
</mgrwt>
</event>
<event>
 5    1  0.3398872E-002  0.1250023E+03  0.7818608E-02  0.1235066E+00
         -4   -1    0    0    0  501 -0.00000000000E+00  0.00000000000E+00  0.44542481769E+03  0.44542662821E+03  0.12700000000E+01 0.  1.
          4   -1    0    0  501    0  0.00000000000E+00 -0.00000000000E+00 -0.87222290398E+01  0.88142032779E+01  0.12700000000E+01 0.  1.
         25    2    1    2    0    0  0.00000000000E+00  0.00000000000E+00  0.43670258865E+03  0.45424083149E+03  0.12500232819E+03 0.  0.
    9000005    1    3    3    0    0  0.51062612260E+02 -0.16864472043E+02  0.33404247125E+03  0.33834475522E+03  0.10000000000E+01 0.  0.
    9000005    1    3    3    0    0 -0.51062612260E+02  0.16864472043E+02  0.10266011741E+03  0.11589607627E+03  0.10000000000E+01 0.  0.
<mgrwt>
<rscale>  0 0.12500233E+03</rscale>
<asrwt>0</asrwt>
<pdfrwt beam="2">  1        4 0.13490957E-02 0.12500233E+03</pdfrwt>
<pdfrwt beam="1">  1       -4 0.68534103E-01 0.12500233E+03</pdfrwt>
<totfact> 0.59595110E+03</totfact>
</mgrwt>
</event>
<event>
 5    1  0.3398872E-002  0.1250001E+03  0.7818608E-02  0.1235069E+00
          4   -1    0    0  501    0  0.00000000000E+00  0.00000000000E+00  0.14153831528E+04  0.14153837226E+04  0.12700000000E+01 0. -1.
         -4   -1    0    0    0  501 -0.00000000000E+00 -0.00000000000E+00 -0.26131553012E+01  0.29054226247E+01  0.12700000000E+01 0. -1.
         25    2    1    2    0    0  0.00000000000E+00  0.00000000000E+00  0.14127699975E+04  0.14182891452E+04  0.12500013423E+03 0.  0.
    9000005    1    3    3    0    0  0.11272206376E+02  0.57199940702E+02  0.96170514416E+03  0.96347116207E+03  0.10000000000E+01 0.  0.
    9000005    1    3    3    0    0 -0.11272206376E+02 -0.57199940702E+02  0.45106485333E+03  0.45481798312E+03  0.10000000000E+01 0.  0.
<mgrwt>
<rscale>  0 0.12500013E+03</rscale>
<asrwt>0</asrwt>
<pdfrwt beam="1">  1        4 0.21777408E+00 0.12500013E+03</pdfrwt>
<pdfrwt beam="2">  1       -4 0.42454924E-03 0.12500013E+03</pdfrwt>
<totfact> 0.19591722E+03</totfact>
</mgrwt>
</event>
<event>
 5    1  0.3398872E-002  0.1250040E+03  0.7818608E-02  0.1235063E+00
         -4   -1    0    0    0  501 -0.00000000000E+00  0.00000000000E+00  0.19888311122E+02  0.19928818813E+02  0.12700000000E+01 0. -1.
          4   -1    0    0  501    0  0.00000000000E+00 -0.00000000000E+00 -0.19617950622E+03  0.19618361695E+03  0.12700000000E+01 0. -1.
         25    2    1    2    0    0  0.00000000000E+00  0.00000000000E+00 -0.17629119509E+03  0.21611243576E+03  0.12500399763E+03 0.  0.
    9000005    1    3    3    0    0  0.56837576896E+02 -0.21240255146E+02 -0.62279796267E+02  0.86956492622E+02  0.10000000000E+01 0.  0.
    9000005    1    3    3    0    0 -0.56837576896E+02  0.21240255146E+02 -0.11401139883E+03  0.12915594314E+03  0.10000000000E+01 0.  0.
<mgrwt>
<rscale>  0 0.12500400E+03</rscale>
<asrwt>0</asrwt>
<pdfrwt beam="2">  1        4 0.30184893E-01 0.12500400E+03</pdfrwt>
<pdfrwt beam="1">  1       -4 0.30631725E-02 0.12500400E+03</pdfrwt>
<totfact> 0.87479455E+03</totfact>
</mgrwt>
</event>
<event>
 5    1  0.3398872E-002  0.1249984E+03  0.7818608E-02  0.1235072E+00
         -4   -1    0    0    0  501 -0.00000000000E+00  0.00000000000E+00  0.12894070790E+03  0.12894696217E+03  0.12700000000E+01 0.  1.
          4   -1    0    0  501    0  0.00000000000E+00 -0.00000000000E+00 -0.30273859587E+02  0.30300486371E+02  0.12700000000E+01 0.  1.
         25    2    1    2    0    0  0.00000000000E+00  0.00000000000E+00  0.98666848312E+02  0.15924744854E+03  0.12499841164E+03 0.  0.
    9000005    1    3    3    0    0  0.41977208969E+02 -0.31569497913E+02  0.61972091307E+01  0.52897303072E+02  0.10000000000E+01 0.  0.
    9000005    1    3    3    0    0 -0.41977208969E+02  0.31569497913E+02  0.92469639182E+02  0.10635014547E+03  0.10000000000E+01 0.  0.
<mgrwt>
<rscale>  0 0.12499841E+03</rscale>
<asrwt>0</asrwt>
<pdfrwt beam="2">  1        4 0.46600461E-02 0.12499841E+03</pdfrwt>
<pdfrwt beam="1">  1       -4 0.19839562E-01 0.12499841E+03</pdfrwt>
<totfact> 0.97491548E+03</totfact>
</mgrwt>
</event>
<event>
 5    1  0.3398872E-002  0.1250061E+03  0.7818608E-02  0.1235060E+00
          4   -1    0    0  501    0  0.00000000000E+00  0.00000000000E+00  0.37812638991E+01  0.39888415204E+01  0.12700000000E+01 0.  1.
         -4   -1    0    0    0  501 -0.00000000000E+00 -0.00000000000E+00 -0.10053460995E+04  0.10053469016E+04  0.12700000000E+01 0.  1.
         25    2    1    2    0    0  0.00000000000E+00  0.00000000000E+00 -0.10015648356E+04  0.10093357431E+04  0.12500609006E+03 0.  0.
    9000005    1    3    3    0    0  0.12412018092E+02  0.61030811362E+02 -0.54259174805E+03  0.54615531049E+03  0.10000000000E+01 0.  0.
    9000005    1    3    3    0    0 -0.12412018092E+02 -0.61030811362E+02 -0.45897308752E+03  0.46318043265E+03  0.10000000000E+01 0.  0.
<mgrwt>
<rscale>  0 0.12500609E+03</rscale>
<asrwt>0</asrwt>
<pdfrwt beam="1">  1        4 0.59776292E-03 0.12500609E+03</pdfrwt>
<pdfrwt beam="2">  1       -4 0.15468445E+00 0.12500609E+03</pdfrwt>
<totfact> 0.30294221E+03</totfact>
</mgrwt>
</event>
<event>
 5    1  0.3398872E-002  0.1249992E+03  0.7818608E-02  0.1235070E+00
          4   -1    0    0  501    0  0.00000000000E+00  0.00000000000E+00  0.20448108995E+03  0.20448503380E+03  0.12700000000E+01 0. -1.
         -4   -1    0    0    0  501 -0.00000000000E+00 -0.00000000000E+00 -0.19077755518E+02  0.19119980533E+02  0.12700000000E+01 0. -1.
         25    2    1    2    0    0  0.00000000000E+00  0.00000000000E+00  0.18540333443E+03  0.22360501433E+03  0.12499922406E+03 0.  0.
    9000005    1    3    3    0    0  0.11539218090E+02 -0.18446048534E+02  0.19749524118E+03  0.19869267865E+03  0.10000000000E+01 0.  0.
    9000005    1    3    3    0    0 -0.11539218090E+02  0.18446048534E+02 -0.12091906742E+02  0.24912335686E+02  0.10000000000E+01 0.  0.
<mgrwt>
<rscale>  0 0.12499922E+03</rscale>
<asrwt>0</asrwt>
<pdfrwt beam="1">  1        4 0.31462182E-01 0.12499922E+03</pdfrwt>
<pdfrwt beam="2">  1       -4 0.29385906E-02 0.12499922E+03</pdfrwt>
<totfact> 0.86302591E+03</totfact>
</mgrwt>
</event>
<event>
 5    1  0.3398872E-002  0.1249952E+03  0.7818608E-02  0.1235077E+00
         -4   -1    0    0    0  501 -0.00000000000E+00  0.00000000000E+00  0.11112252113E+03  0.11112977820E+03  0.12700000000E+01 0. -1.
          4   -1    0    0  501    0  0.00000000000E+00 -0.00000000000E+00 -0.35130075296E+02  0.35153023914E+02  0.12700000000E+01 0. -1.
         25    2    1    2    0    0  0.00000000000E+00  0.00000000000E+00  0.75992445835E+02  0.14628280211E+03  0.12499522539E+03 0.  0.
    9000005    1    3    3    0    0 -0.44637749136E+02 -0.25857101333E+02 -0.32781923007E+01  0.51699757079E+02  0.10000000000E+01 0.  0.
    9000005    1    3    3    0    0  0.44637749136E+02  0.25857101333E+02  0.79270638136E+02  0.94583045033E+02  0.10000000000E+01 0.  0.
<mgrwt>
<rscale>  0 0.12499523E+03</rscale>
<asrwt>0</asrwt>
<pdfrwt beam="2">  1        4 0.54069506E-02 0.12499523E+03</pdfrwt>
<pdfrwt beam="1">  1       -4 0.17098096E-01 0.12499523E+03</pdfrwt>
<totfact> 0.10006065E+04</totfact>
</mgrwt>
</event>
<event>
 5    1  0.3398872E-002  0.1249870E+03  0.7818608E-02  0.1235090E+00
          4   -1    0    0  501    0  0.00000000000E+00  0.00000000000E+00  0.15300884800E+04  0.15300890070E+04  0.12700000000E+01 0. -1.
         -4   -1    0    0    0  501 -0.00000000000E+00 -0.00000000000E+00 -0.23938879232E+01  0.27099076347E+01  0.12700000000E+01 0. -1.
         25    2    1    2    0    0  0.00000000000E+00  0.00000000000E+00  0.15276945921E+04  0.15327989147E+04  0.12498698425E+03 0.  0.
    9000005    1    3    3    0    0 -0.33887161685E+01  0.47018592336E+02  0.26085669233E+03  0.26508384590E+03  0.10000000000E+01 0.  0.
    9000005    1    3    3    0    0  0.33887161685E+01 -0.47018592336E+02  0.12668378997E+04  0.12677150688E+04  0.10000000000E+01 0.  0.
<mgrwt>
<rscale>  0 0.12498698E+03</rscale>
<asrwt>0</asrwt>
<pdfrwt beam="1">  1        4 0.23542273E+00 0.12498698E+03</pdfrwt>
<pdfrwt beam="2">  1       -4 0.39263995E-03 0.12498698E+03</pdfrwt>
<totfact> 0.17299502E+03</totfact>
</mgrwt>
</event>
<event>
 5    1  0.3398872E-002  0.1249998E+03  0.7818608E-02  0.1235070E+00
         -4   -1    0    0    0  501 -0.00000000000E+00  0.00000000000E+00  0.17855035904E+02  0.17900145450E+02  0.12700000000E+01 0.  1.
          4   -1    0    0  501    0  0.00000000000E+00 -0.00000000000E+00 -0.21845210095E+03  0.21845579257E+03  0.12700000000E+01 0.  1.
         25    2    1    2    0    0  0.00000000000E+00  0.00000000000E+00 -0.20059706504E+03  0.23635593802E+03  0.12499978774E+03 0.  0.
    9000005    1    3    3    0    0 -0.74382093314E+01 -0.13434228860E+02  0.14241320356E+02  0.20967133057E+02  0.10000000000E+01 0.  0.
    9000005    1    3    3    0    0  0.74382093314E+01  0.13434228860E+02 -0.21483838540E+03  0.21538880496E+03  0.10000000000E+01 0.  0.
<mgrwt>
<rscale>  0 0.12499979E+03</rscale>
<asrwt>0</asrwt>
<pdfrwt beam="2">  1        4 0.33611768E-01 0.12499979E+03</pdfrwt>
<pdfrwt beam="1">  1       -4 0.27506827E-02 0.12499979E+03</pdfrwt>
<totfact> 0.84343496E+03</totfact>
</mgrwt>
</event>
<event>
 5    1  0.3398872E-002  0.1249969E+03  0.7818608E-02  0.1235074E+00
          4   -1    0    0  501    0  0.00000000000E+00  0.00000000000E+00  0.15265648688E+02  0.15318385355E+02  0.12700000000E+01 0. -1.
         -4   -1    0    0    0  501 -0.00000000000E+00 -0.00000000000E+00 -0.25537676380E+03  0.25537992166E+03  0.12700000000E+01 0. -1.
         25    2    1    2    0    0  0.00000000000E+00  0.00000000000E+00 -0.24011111511E+03  0.27069830702E+03  0.12499690325E+03 0.  0.
    9000005    1    3    3    0    0  0.19018722062E+02 -0.50690252841E+02 -0.52473603518E+02  0.75403531669E+02  0.10000000000E+01 0.  0.
    9000005    1    3    3    0    0 -0.19018722062E+02  0.50690252841E+02 -0.18763751159E+03  0.19529477535E+03  0.10000000000E+01 0.  0.
<mgrwt>
<rscale>  0 0.12499690E+03</rscale>
<asrwt>0</asrwt>
<pdfrwt beam="1">  1        4 0.23528611E-02 0.12499690E+03</pdfrwt>
<pdfrwt beam="2">  1       -4 0.39293029E-01 0.12499690E+03</pdfrwt>
<totfact> 0.79433232E+03</totfact>
</mgrwt>
</event>
<event>
 5    1  0.3398872E-002  0.1250089E+03  0.7818608E-02  0.1235055E+00
          4   -1    0    0  501    0  0.00000000000E+00  0.00000000000E+00  0.35374685355E+03  0.35374913328E+03  0.12700000000E+01 0. -1.
         -4   -1    0    0    0  501 -0.00000000000E+00 -0.00000000000E+00 -0.11005238128E+02  0.11078274516E+02  0.12700000000E+01 0. -1.
         25    2    1    2    0    0  0.00000000000E+00  0.00000000000E+00  0.34274161542E+03  0.36482740779E+03  0.12500888983E+03 0.  0.
    9000005    1    3    3    0    0 -0.22906220732E+02 -0.31685650842E+02  0.29081244779E+02  0.48738016121E+02  0.10000000000E+01 0.  0.
    9000005    1    3    3    0    0  0.22906220732E+02  0.31685650842E+02  0.31366037064E+03  0.31608939167E+03  0.10000000000E+01 0.  0.
<mgrwt>
<rscale>  0 0.12500889E+03</rscale>
<asrwt>0</asrwt>
<pdfrwt beam="1">  1        4 0.54428389E-01 0.12500889E+03</pdfrwt>
<pdfrwt beam="2">  1       -4 0.16989070E-02 0.12500889E+03</pdfrwt>
<totfact> 0.68110187E+03</totfact>
</mgrwt>
</event>
<event>
 5    1  0.3398872E-002  0.1250587E+03  0.7818608E-02  0.1234978E+00
         -4   -1    0    0    0  501 -0.00000000000E+00  0.00000000000E+00  0.58055380537E+03  0.58055519448E+03  0.12700000000E+01 0.  1.
          4   -1    0    0  501    0  0.00000000000E+00 -0.00000000000E+00 -0.66735327426E+01  0.67933010581E+01  0.12700000000E+01 0.  1.
         25    2    1    2    0    0  0.00000000000E+00  0.00000000000E+00  0.57388027263E+03  0.58734849553E+03  0.12505873777E+03 0.  0.
    9000005    1    3    3    0    0 -0.58908907052E+02 -0.20917561696E+02  0.29190665846E+03  0.29852688484E+03  0.10000000000E+01 0.  0.
    9000005    1    3    3    0    0  0.58908907052E+02  0.20917561696E+02  0.28197361417E+03  0.28882161069E+03  0.10000000000E+01 0.  0.
<mgrwt>
<rscale>  0 0.12505874E+03</rscale>
<asrwt>0</asrwt>
<pdfrwt beam="2">  1        4 0.10360167E-02 0.12505874E+03</pdfrwt>
<pdfrwt beam="1">  1       -4 0.89325326E-01 0.12505874E+03</pdfrwt>
<totfact> 0.49612112E+03</totfact>
</mgrwt>
</event>
<event>
 5    1  0.3398872E-002  0.1250003E+03  0.7818608E-02  0.1235069E+00
         -4   -1    0    0    0  501 -0.00000000000E+00  0.00000000000E+00  0.13229907441E+03  0.13230516993E+03  0.12700000000E+01 0. -1.
          4   -1    0    0  501    0  0.00000000000E+00 -0.00000000000E+00 -0.29505606784E+02  0.29532926230E+02  0.12700000000E+01 0. -1.
         25    2    1    2    0    0  0.00000000000E+00  0.00000000000E+00  0.10279346763E+03  0.16183809616E+03  0.12500028953E+03 0.  0.
    9000005    1    3    3    0    0 -0.43576938129E+02 -0.44593412374E+02  0.56850814906E+02  0.84383275116E+02  0.10000000000E+01 0.  0.
    9000005    1    3    3    0    0  0.43576938129E+02  0.44593412374E+02  0.45942652723E+02  0.77454821045E+02  0.10000000000E+01 0.  0.
<mgrwt>
<rscale>  0 0.12500029E+03</rscale>
<asrwt>0</asrwt>
<pdfrwt beam="2">  1        4 0.45418945E-02 0.12500029E+03</pdfrwt>
<pdfrwt beam="1">  1       -4 0.20356274E-01 0.12500029E+03</pdfrwt>
<totfact> 0.96988949E+03</totfact>
</mgrwt>
</event>
<event>
 5    1  0.3398872E-002  0.1249998E+03  0.7818608E-02  0.1235070E+00
         -4   -1    0    0    0  501 -0.00000000000E+00  0.00000000000E+00  0.94818008407E+01  0.95664751702E+01  0.12700000000E+01 0.  1.
          4   -1    0    0  501    0  0.00000000000E+00 -0.00000000000E+00 -0.41005492641E+03  0.41005689309E+03  0.12700000000E+01 0.  1.
         25    2    1    2    0    0  0.00000000000E+00  0.00000000000E+00 -0.40057312557E+03  0.41962336826E+03  0.12499976906E+03 0.  0.
    9000005    1    3    3    0    0 -0.61483291614E+02  0.95935792531E+01 -0.18100103727E+03  0.19140169122E+03  0.10000000000E+01 0.  0.
    9000005    1    3    3    0    0  0.61483291614E+02 -0.95935792531E+01 -0.21957208830E+03  0.22822167704E+03  0.10000000000E+01 0.  0.
<mgrwt>
<rscale>  0 0.12499977E+03</rscale>
<asrwt>0</asrwt>
<pdfrwt beam="2">  1        4 0.63092024E-01 0.12499977E+03</pdfrwt>
<pdfrwt beam="1">  1       -4 0.14654036E-02 0.12499977E+03</pdfrwt>
<totfact> 0.62688291E+03</totfact>
</mgrwt>
</event>
<event>
 5    1  0.3398872E-002  0.1249988E+03  0.7818608E-02  0.1235071E+00
         -4   -1    0    0    0  501 -0.00000000000E+00  0.00000000000E+00  0.83143892928E+02  0.83153591811E+02  0.12700000000E+01 0.  1.
          4   -1    0    0  501    0  0.00000000000E+00 -0.00000000000E+00 -0.46959851294E+02  0.46977021336E+02  0.12700000000E+01 0.  1.
         25    2    1    2    0    0  0.00000000000E+00  0.00000000000E+00  0.36184041633E+02  0.13013061315E+03  0.12499876643E+03 0.  0.
    9000005    1    3    3    0    0  0.22020268526E+02 -0.58483083185E+02  0.18194327842E+02  0.65093754005E+02  0.10000000000E+01 0.  0.
    9000005    1    3    3    0    0 -0.22020268526E+02  0.58483083185E+02  0.17989713791E+02  0.65036859142E+02  0.10000000000E+01 0.  0.
<mgrwt>
<rscale>  0 0.12499877E+03</rscale>
<asrwt>0</asrwt>
<pdfrwt beam="2">  1        4 0.72266594E-02 0.12499877E+03</pdfrwt>
<pdfrwt beam="1">  1       -4 0.12793435E-01 0.12499877E+03</pdfrwt>
<totfact> 0.10342002E+04</totfact>
</mgrwt>
</event>
<event>
 5    1  0.3398872E-002  0.1250020E+03  0.7818608E-02  0.1235066E+00
          4   -1    0    0  501    0  0.00000000000E+00  0.00000000000E+00  0.11632191801E+02  0.11701315571E+02  0.12700000000E+01 0. -1.
         -4   -1    0    0    0  501 -0.00000000000E+00 -0.00000000000E+00 -0.33475925075E+03  0.33476165979E+03  0.12700000000E+01 0. -1.
         25    2    1    2    0    0  0.00000000000E+00  0.00000000000E+00 -0.32312705895E+03  0.34646297536E+03  0.12500198826E+03 0.  0.
    9000005    1    3    3    0    0 -0.23984559568E+01 -0.60444630195E+02 -0.11808570607E+03  0.13268210086E+03  0.10000000000E+01 0.  0.
    9000005    1    3    3    0    0  0.23984559568E+01  0.60444630195E+02 -0.20504135288E+03  0.21378087450E+03  0.10000000000E+01 0.  0.
<mgrwt>
<rscale>  0 0.12500199E+03</rscale>
<asrwt>0</asrwt>
<pdfrwt beam="1">  1        4 0.17950708E-02 0.12500199E+03</pdfrwt>
<pdfrwt beam="2">  1       -4 0.51506918E-01 0.12500199E+03</pdfrwt>
<totfact> 0.70112350E+03</totfact>
</mgrwt>
</event>
<event>
 5    1  0.3398872E-002  0.1249954E+03  0.7818608E-02  0.1235076E+00
          4   -1    0    0  501    0  0.00000000000E+00  0.00000000000E+00  0.52368373423E+02  0.52383770721E+02  0.12700000000E+01 0.  1.
         -4   -1    0    0    0  501 -0.00000000000E+00 -0.00000000000E+00 -0.74554567354E+02  0.74565383479E+02  0.12700000000E+01 0.  1.
         25    2    1    2    0    0  0.00000000000E+00  0.00000000000E+00 -0.22186193932E+02  0.12694915420E+03  0.12499544212E+03 0.  0.
    9000005    1    3    3    0    0 -0.32590522617E+02  0.48581131699E+02 -0.33406857182E+02  0.67374228221E+02  0.10000000000E+01 0.  0.
    9000005    1    3    3    0    0  0.32590522617E+02 -0.48581131699E+02  0.11220663251E+02  0.59574925979E+02  0.10000000000E+01 0.  0.
<mgrwt>
<rscale>  0 0.12499544E+03</rscale>
<asrwt>0</asrwt>
<pdfrwt beam="1">  1        4 0.80586893E-02 0.12499544E+03</pdfrwt>
<pdfrwt beam="2">  1       -4 0.11471950E-01 0.12499544E+03</pdfrwt>
<totfact> 0.10411322E+04</totfact>
</mgrwt>
</event>
<event>
 5    1  0.3398872E-002  0.1249947E+03  0.7818608E-02  0.1235078E+00
         -4   -1    0    0    0  501 -0.00000000000E+00  0.00000000000E+00  0.52216893853E+02  0.52232335805E+02  0.12700000000E+01 0.  1.
          4   -1    0    0  501    0  0.00000000000E+00 -0.00000000000E+00 -0.74769871541E+02  0.74780656524E+02  0.12700000000E+01 0.  1.
         25    2    1    2    0    0  0.00000000000E+00  0.00000000000E+00 -0.22552977688E+02  0.12701299233E+03  0.12499465356E+03 0.  0.
    9000005    1    3    3    0    0  0.59785080421E+02 -0.17406275502E+02 -0.16622774995E+02  0.64455805917E+02  0.10000000000E+01 0.  0.
    9000005    1    3    3    0    0 -0.59785080421E+02  0.17406275502E+02 -0.59302026934E+01  0.62557186412E+02  0.10000000000E+01 0.  0.
<mgrwt>
<rscale>  0 0.12499465E+03</rscale>
<asrwt>0</asrwt>
<pdfrwt beam="2">  1        4 0.11505075E-01 0.12499465E+03</pdfrwt>
<pdfrwt beam="1">  1       -4 0.80353858E-02 0.12499465E+03</pdfrwt>
<totfact> 0.10410120E+04</totfact>
</mgrwt>
</event>
<event>
 5    1  0.3398872E-002  0.1250022E+03  0.7818608E-02  0.1235066E+00
         -4   -1    0    0    0  501 -0.00000000000E+00  0.00000000000E+00  0.35884655526E+04  0.35884657773E+04  0.12700000000E+01 0. -1.
          4   -1    0    0  501    0  0.00000000000E+00 -0.00000000000E+00 -0.71788674929E+00  0.14588561906E+01  0.12700000000E+01 0. -1.
         25    2    1    2    0    0  0.00000000000E+00  0.00000000000E+00  0.35877476658E+04  0.35899246335E+04  0.12500224226E+03 0.  0.
    9000005    1    3    3    0    0 -0.43556087366E+02 -0.15596054241E+02  0.58733194723E+03  0.58915209063E+03  0.10000000000E+01 0.  0.
    9000005    1    3    3    0    0  0.43556087366E+02  0.15596054241E+02  0.30004157186E+04  0.30007725429E+04  0.10000000000E+01 0.  0.
<mgrwt>
<rscale>  0 0.12500224E+03</rscale>
<asrwt>0</asrwt>
<pdfrwt beam="2">  1        4 0.16746097E-03 0.12500224E+03</pdfrwt>
<pdfrwt beam="1">  1       -4 0.55212231E+00 0.12500224E+03</pdfrwt>
<totfact> 0.46082726E+01</totfact>
</mgrwt>
</event>
<event>
 5    1  0.3398872E-002  0.1250004E+03  0.7818608E-02  0.1235069E+00
          4   -1    0    0  501    0  0.00000000000E+00  0.00000000000E+00  0.67830117524E+02  0.67842005744E+02  0.12700000000E+01 0.  1.
         -4   -1    0    0    0  501 -0.00000000000E+00 -0.00000000000E+00 -0.57565173222E+02  0.57579180857E+02  0.12700000000E+01 0.  1.
         25    2    1    2    0    0  0.00000000000E+00  0.00000000000E+00  0.10264944302E+02  0.12542118660E+03  0.12500041987E+03 0.  0.
    9000005    1    3    3    0    0 -0.11583426539E+02 -0.29979034774E+02  0.58907260939E+02  0.67111725411E+02  0.10000000000E+01 0.  0.
    9000005    1    3    3    0    0  0.11583426539E+02  0.29979034774E+02 -0.48642316637E+02  0.58309461189E+02  0.10000000000E+01 0.  0.
<mgrwt>
<rscale>  0 0.12500042E+03</rscale>
<asrwt>0</asrwt>
<pdfrwt beam="1">  1        4 0.10437395E-01 0.12500042E+03</pdfrwt>
<pdfrwt beam="2">  1       -4 0.88581725E-02 0.12500042E+03</pdfrwt>
<totfact> 0.10443599E+04</totfact>
</mgrwt>
</event>
<event>
 5    1  0.3398872E-002  0.1250011E+03  0.7818608E-02  0.1235068E+00
          4   -1    0    0  501    0  0.00000000000E+00  0.00000000000E+00  0.42369486220E+03  0.42369676557E+03  0.12700000000E+01 0.  1.
         -4   -1    0    0    0  501 -0.00000000000E+00 -0.00000000000E+00 -0.91739861552E+01  0.92614751512E+01  0.12700000000E+01 0.  1.
         25    2    1    2    0    0  0.00000000000E+00  0.00000000000E+00  0.41452087604E+03  0.43295824072E+03  0.12500112612E+03 0.  0.
    9000005    1    3    3    0    0  0.65038008235E+01  0.55822531573E+02  0.11260329159E+03  0.12585291309E+03  0.10000000000E+01 0.  0.
    9000005    1    3    3    0    0 -0.65038008235E+01 -0.55822531573E+02  0.30191758445E+03  0.30710532763E+03  0.10000000000E+01 0.  0.
<mgrwt>
<rscale>  0 0.12500113E+03</rscale>
<asrwt>0</asrwt>
<pdfrwt beam="1">  1        4 0.65190701E-01 0.12500113E+03</pdfrwt>
<pdfrwt beam="2">  1       -4 0.14182588E-02 0.12500113E+03</pdfrwt>
<totfact> 0.61467230E+03</totfact>
</mgrwt>
</event>
<event>
 5    1  0.3398872E-002  0.1250196E+03  0.7818608E-02  0.1235039E+00
         -4   -1    0    0    0  501 -0.00000000000E+00  0.00000000000E+00  0.10932558537E+03  0.10933296171E+03  0.12700000000E+01 0.  1.
          4   -1    0    0  501    0  0.00000000000E+00 -0.00000000000E+00 -0.35721769754E+02  0.35744338494E+02  0.12700000000E+01 0.  1.
         25    2    1    2    0    0  0.00000000000E+00  0.00000000000E+00  0.73603815618E+02  0.14507730021E+03  0.12501960391E+03 0.  0.
    9000005    1    3    3    0    0 -0.51413805422E+02 -0.83773706984E+01  0.76881768904E+02  0.92872849195E+02  0.10000000000E+01 0.  0.
    9000005    1    3    3    0    0  0.51413805422E+02  0.83773706984E+01 -0.32779532862E+01  0.52204451013E+02  0.10000000000E+01 0.  0.
<mgrwt>
<rscale>  0 0.12501960E+03</rscale>
<asrwt>0</asrwt>
<pdfrwt beam="2">  1        4 0.54979605E-02 0.12501960E+03</pdfrwt>
<pdfrwt beam="1">  1       -4 0.16821624E-01 0.12501960E+03</pdfrwt>
<totfact> 0.10024992E+04</totfact>
</mgrwt>
</event>
<event>
 5    1  0.3398872E-002  0.1249986E+03  0.7818608E-02  0.1235071E+00
          4   -1    0    0  501    0  0.00000000000E+00  0.00000000000E+00  0.19068987439E+02  0.19111231827E+02  0.12700000000E+01 0. -1.
         -4   -1    0    0    0  501 -0.00000000000E+00 -0.00000000000E+00 -0.20457289041E+03  0.20457683249E+03  0.12700000000E+01 0. -1.
         25    2    1    2    0    0  0.00000000000E+00  0.00000000000E+00 -0.18550390298E+03  0.22368806432E+03  0.12499860839E+03 0.  0.
    9000005    1    3    3    0    0  0.34682454729E+02  0.42050574914E+02 -0.38060398363E+02  0.66488475995E+02  0.10000000000E+01 0.  0.
    9000005    1    3    3    0    0 -0.34682454729E+02 -0.42050574914E+02 -0.14744350461E+03  0.15719958832E+03  0.10000000000E+01 0.  0.
<mgrwt>
<rscale>  0 0.12499861E+03</rscale>
<asrwt>0</asrwt>
<pdfrwt beam="1">  1        4 0.29372433E-02 0.12499861E+03</pdfrwt>
<pdfrwt beam="2">  1       -4 0.31476304E-01 0.12499861E+03</pdfrwt>
<totfact> 0.86290787E+03</totfact>
</mgrwt>
</event>
<event>
 5    1  0.3398872E-002  0.1249961E+03  0.7818608E-02  0.1235075E+00
          4   -1    0    0  501    0  0.00000000000E+00  0.00000000000E+00  0.48674752632E+01  0.50304289516E+01  0.12700000000E+01 0. -1.
         -4   -1    0    0    0  501 -0.00000000000E+00 -0.00000000000E+00 -0.78909566819E+03  0.78909669018E+03  0.12700000000E+01 0. -1.
         25    2    1    2    0    0  0.00000000000E+00  0.00000000000E+00 -0.78422819293E+03  0.79412711913E+03  0.12499609099E+03 0.  0.
    9000005    1    3    3    0    0  0.22744996329E+02 -0.31704750778E+02 -0.82009508177E+02  0.90824476389E+02  0.10000000000E+01 0.  0.
    9000005    1    3    3    0    0 -0.22744996329E+02  0.31704750778E+02 -0.70221868475E+03  0.70330264274E+03  0.10000000000E+01 0.  0.
<mgrwt>
<rscale>  0 0.12499609E+03</rscale>
<asrwt>0</asrwt>
<pdfrwt beam="1">  1        4 0.76145649E-03 0.12499609E+03</pdfrwt>
<pdfrwt beam="2">  1       -4 0.12141185E+00 0.12499609E+03</pdfrwt>
<totfact> 0.38531574E+03</totfact>
</mgrwt>
</event>
<event>
 5    1  0.3398872E-002  0.1249997E+03  0.7818608E-02  0.1235070E+00
         -4   -1    0    0    0  501 -0.00000000000E+00  0.00000000000E+00  0.22033510952E+03  0.22033876959E+03  0.12700000000E+01 0.  1.
          4   -1    0    0  501    0  0.00000000000E+00 -0.00000000000E+00 -0.17702034412E+02  0.17747532852E+02  0.12700000000E+01 0.  1.
         25    2    1    2    0    0  0.00000000000E+00  0.00000000000E+00  0.20263307510E+03  0.23808630244E+03  0.12499969714E+03 0.  0.
    9000005    1    3    3    0    0 -0.11448940851E+02 -0.48785082888E+02  0.17243511884E+03  0.17957152549E+03  0.10000000000E+01 0.  0.
    9000005    1    3    3    0    0  0.11448940851E+02  0.48785082888E+02  0.30197956266E+02  0.58514776952E+02  0.10000000000E+01 0.  0.
<mgrwt>
<rscale>  0 0.12499970E+03</rscale>
<asrwt>0</asrwt>
<pdfrwt beam="2">  1        4 0.27271712E-02 0.12499970E+03</pdfrwt>
<pdfrwt beam="1">  1       -4 0.33901492E-01 0.12499970E+03</pdfrwt>
<totfact> 0.84083772E+03</totfact>
</mgrwt>
</event>
<event>
 5    1  0.3398872E-002  0.1249957E+03  0.7818608E-02  0.1235076E+00
         -4   -1    0    0    0  501 -0.00000000000E+00  0.00000000000E+00  0.24619801683E+01  0.27702430126E+01  0.12700000000E+01 0.  1.
          4   -1    0    0  501    0  0.00000000000E+00 -0.00000000000E+00 -0.14927397508E+04  0.14927402910E+04  0.12700000000E+01 0.  1.
         25    2    1    2    0    0  0.00000000000E+00  0.00000000000E+00 -0.14902777706E+04  0.14955105340E+04  0.12499569532E+03 0.  0.
    9000005    1    3    3    0    0 -0.17511695003E+02 -0.44790665610E+02 -0.26773932454E+03  0.27202611840E+03  0.10000000000E+01 0.  0.
    9000005    1    3    3    0    0  0.17511695003E+02  0.44790665610E+02 -0.12225384461E+04  0.12234844156E+04  0.10000000000E+01 0.  0.
<mgrwt>
<rscale>  0 0.12499570E+03</rscale>
<asrwt>0</asrwt>
<pdfrwt beam="2">  1        4 0.22967534E+00 0.12499570E+03</pdfrwt>
<pdfrwt beam="1">  1       -4 0.40252146E-03 0.12499570E+03</pdfrwt>
<totfact> 0.18020666E+03</totfact>
</mgrwt>
</event>
<event>
 5    1  0.3398872E-002  0.1249995E+03  0.7818608E-02  0.1235070E+00
          4   -1    0    0  501    0  0.00000000000E+00  0.00000000000E+00  0.19495852338E+02  0.19537173757E+02  0.12700000000E+01 0. -1.
         -4   -1    0    0    0  501 -0.00000000000E+00 -0.00000000000E+00 -0.20010606176E+03  0.20011009183E+03  0.12700000000E+01 0. -1.
         25    2    1    2    0    0  0.00000000000E+00  0.00000000000E+00 -0.18061020942E+03  0.21964726559E+03  0.12499949413E+03 0.  0.
    9000005    1    3    3    0    0 -0.35770813729E+02 -0.10253849685E+02 -0.17852430615E+03  0.18236397790E+03  0.10000000000E+01 0.  0.
    9000005    1    3    3    0    0  0.35770813729E+02  0.10253849685E+02 -0.20859032646E+01  0.37283287685E+02  0.10000000000E+01 0.  0.
<mgrwt>
<rscale>  0 0.12499949E+03</rscale>
<asrwt>0</asrwt>
<pdfrwt beam="1">  1        4 0.30028506E-02 0.12499949E+03</pdfrwt>
<pdfrwt beam="2">  1       -4 0.30789035E-01 0.12499949E+03</pdfrwt>
<totfact> 0.86925179E+03</totfact>
</mgrwt>
</event>
<event>
 5    1  0.3398872E-002  0.1249950E+03  0.7818608E-02  0.1235077E+00
         -4   -1    0    0    0  501 -0.00000000000E+00  0.00000000000E+00  0.32947305490E+02  0.32971773369E+02  0.12700000000E+01 0.  1.
          4   -1    0    0  501    0  0.00000000000E+00 -0.00000000000E+00 -0.11847915962E+03  0.11848596611E+03  0.12700000000E+01 0.  1.
         25    2    1    2    0    0  0.00000000000E+00  0.00000000000E+00 -0.85531854132E+02  0.15145773948E+03  0.12499499501E+03 0.  0.
    9000005    1    3    3    0    0  0.73672293324E+01 -0.60750911005E+02 -0.58092408653E+02  0.84384105134E+02  0.10000000000E+01 0.  0.
    9000005    1    3    3    0    0 -0.73672293324E+01  0.60750911005E+02 -0.27439445479E+02  0.67073634345E+02  0.10000000000E+01 0.  0.
<mgrwt>
<rscale>  0 0.12499500E+03</rscale>
<asrwt>0</asrwt>
<pdfrwt beam="2">  1        4 0.18229969E-01 0.12499500E+03</pdfrwt>
<pdfrwt beam="1">  1       -4 0.50712220E-02 0.12499500E+03</pdfrwt>
<totfact> 0.99025062E+03</totfact>
</mgrwt>
</event>
<event>
 5    1  0.3398872E-002  0.1250017E+03  0.7818608E-02  0.1235067E+00
         -4   -1    0    0    0  501 -0.00000000000E+00  0.00000000000E+00  0.79306609088E+01  0.80317048284E+01  0.12700000000E+01 0.  1.
          4   -1    0    0  501    0  0.00000000000E+00 -0.00000000000E+00 -0.48934401791E+03  0.48934566593E+03  0.12700000000E+01 0.  1.
         25    2    1    2    0    0  0.00000000000E+00  0.00000000000E+00 -0.48141335701E+03  0.49737737076E+03  0.12500171456E+03 0.  0.
    9000005    1    3    3    0    0  0.51233020020E+02 -0.27939193980E+01 -0.98755829599E+02  0.11129394505E+03  0.10000000000E+01 0.  0.
    9000005    1    3    3    0    0 -0.51233020020E+02  0.27939193980E+01 -0.38265752741E+03  0.38608342571E+03  0.10000000000E+01 0.  0.
<mgrwt>
<rscale>  0 0.12500171E+03</rscale>
<asrwt>0</asrwt>
<pdfrwt beam="2">  1        4 0.75291571E-01 0.12500171E+03</pdfrwt>
<pdfrwt beam="1">  1       -4 0.12280014E-02 0.12500171E+03</pdfrwt>
<totfact> 0.56066322E+03</totfact>
</mgrwt>
</event>
<event>
 5    1  0.3398872E-002  0.1250058E+03  0.7818608E-02  0.1235060E+00
          4   -1    0    0  501    0  0.00000000000E+00  0.00000000000E+00  0.11160062106E+03  0.11160784704E+03  0.12700000000E+01 0.  1.
         -4   -1    0    0    0  501 -0.00000000000E+00 -0.00000000000E+00 -0.34985385514E+02  0.35008428979E+02  0.12700000000E+01 0.  1.
         25    2    1    2    0    0  0.00000000000E+00  0.00000000000E+00  0.76615235548E+02  0.14661627602E+03  0.12500575217E+03 0.  0.
    9000005    1    3    3    0    0  0.86905645481E+01  0.87361789028E+01 -0.33552115190E+02  0.35757393190E+02  0.10000000000E+01 0.  0.
    9000005    1    3    3    0    0 -0.86905645481E+01 -0.87361789028E+01  0.11016735074E+03  0.11085888283E+03  0.10000000000E+01 0.  0.
<mgrwt>
<rscale>  0 0.12500575E+03</rscale>
<asrwt>0</asrwt>
<pdfrwt beam="1">  1        4 0.17171655E-01 0.12500575E+03</pdfrwt>
<pdfrwt beam="2">  1       -4 0.53846954E-02 0.12500575E+03</pdfrwt>
<totfact> 0.99969574E+03</totfact>
</mgrwt>
</event>
<event>
 5    1  0.3398872E-002  0.1249992E+03  0.7818608E-02  0.1235071E+00
          4   -1    0    0  501    0  0.00000000000E+00  0.00000000000E+00  0.20523290377E+03  0.20523683317E+03  0.12700000000E+01 0.  1.
         -4   -1    0    0    0  501 -0.00000000000E+00 -0.00000000000E+00 -0.19007708876E+02  0.19050089152E+02  0.12700000000E+01 0.  1.
         25    2    1    2    0    0  0.00000000000E+00  0.00000000000E+00  0.18622519489E+03  0.22428692232E+03  0.12499920124E+03 0.  0.
    9000005    1    3    3    0    0 -0.80155069207E+00  0.43245978873E+02  0.12182736701E+02  0.44947483196E+02  0.10000000000E+01 0.  0.
    9000005    1    3    3    0    0  0.80155069207E+00 -0.43245978873E+02  0.17404245819E+03  0.17933943912E+03  0.10000000000E+01 0.  0.
<mgrwt>
<rscale>  0 0.12499920E+03</rscale>
<asrwt>0</asrwt>
<pdfrwt beam="1">  1        4 0.31577856E-01 0.12499920E+03</pdfrwt>
<pdfrwt beam="2">  1       -4 0.29278251E-02 0.12499920E+03</pdfrwt>
<totfact> 0.86196049E+03</totfact>
</mgrwt>
</event>
<event>
 5    1  0.3398872E-002  0.1250010E+03  0.7818608E-02  0.1235068E+00
         -4   -1    0    0    0  501 -0.00000000000E+00  0.00000000000E+00  0.65570806111E+03  0.65570929100E+03  0.12700000000E+01 0.  1.
          4   -1    0    0  501    0  0.00000000000E+00 -0.00000000000E+00 -0.58884659764E+01  0.60238635073E+01  0.12700000000E+01 0.  1.
         25    2    1    2    0    0  0.00000000000E+00  0.00000000000E+00  0.64981959513E+03  0.66173315451E+03  0.12500104622E+03 0.  0.
    9000005    1    3    3    0    0 -0.53077825110E+02 -0.25871821167E+02  0.43323394003E+03  0.43724049840E+03  0.10000000000E+01 0.  0.
    9000005    1    3    3    0    0  0.53077825110E+02  0.25871821167E+02  0.21658565511E+03  0.22449265611E+03  0.10000000000E+01 0.  0.
<mgrwt>
<rscale>  0 0.12500105E+03</rscale>
<asrwt>0</asrwt>
<pdfrwt beam="2">  1        4 0.91642722E-03 0.12500105E+03</pdfrwt>
<pdfrwt beam="1">  1       -4 0.10088872E+00 0.12500105E+03</pdfrwt>
<totfact> 0.45184011E+03</totfact>
</mgrwt>
</event>
<event>
 5    1  0.3398872E-002  0.1250030E+03  0.7818608E-02  0.1235065E+00
         -4   -1    0    0    0  501 -0.00000000000E+00  0.00000000000E+00  0.26959860892E+02  0.26989757303E+02  0.12700000000E+01 0. -1.
          4   -1    0    0  501    0  0.00000000000E+00 -0.00000000000E+00 -0.14478533381E+03  0.14479090367E+03  0.12700000000E+01 0. -1.
         25    2    1    2    0    0  0.00000000000E+00  0.00000000000E+00 -0.11782547291E+03  0.17178066097E+03  0.12500301363E+03 0.  0.
    9000005    1    3    3    0    0 -0.27074881867E+02  0.55048441849E+02 -0.42533754550E+02  0.74655880239E+02  0.10000000000E+01 0.  0.
    9000005    1    3    3    0    0  0.27074881867E+02 -0.55048441849E+02 -0.75291718365E+02  0.97124780733E+02  0.10000000000E+01 0.  0.
<mgrwt>
<rscale>  0 0.12500301E+03</rscale>
<asrwt>0</asrwt>
<pdfrwt beam="2">  1        4 0.22277394E-01 0.12500301E+03</pdfrwt>
<pdfrwt beam="1">  1       -4 0.41503992E-02 0.12500301E+03</pdfrwt>
<totfact> 0.95111351E+03</totfact>
</mgrwt>
</event>
<event>
 5    1  0.3398872E-002  0.1249394E+03  0.7818608E-02  0.1235164E+00
         -4   -1    0    0    0  501 -0.00000000000E+00  0.00000000000E+00  0.42516245036E+02  0.42535208851E+02  0.12700000000E+01 0.  1.
          4   -1    0    0  501    0  0.00000000000E+00 -0.00000000000E+00 -0.91743752737E+02  0.91752542561E+02  0.12700000000E+01 0.  1.
         25    2    1    2    0    0  0.00000000000E+00  0.00000000000E+00 -0.49227507701E+02  0.13428775141E+03  0.12493939597E+03 0.  0.
    9000005    1    3    3    0    0  0.54335891747E+02 -0.16604608072E+02 -0.52504554881E+02  0.77368148642E+02  0.10000000000E+01 0.  0.
    9000005    1    3    3    0    0 -0.54335891747E+02  0.16604608072E+02  0.32770471792E+01  0.56919602769E+02  0.10000000000E+01 0.  0.
<mgrwt>
<rscale>  0 0.12493940E+03</rscale>
<asrwt>0</asrwt>
<pdfrwt beam="2">  1        4 0.14116558E-01 0.12493940E+03</pdfrwt>
<pdfrwt beam="1">  1       -4 0.65430957E-02 0.12493940E+03</pdfrwt>
<totfact> 0.10267132E+04</totfact>
</mgrwt>
</event>
<event>
 5    1  0.3398872E-002  0.1249978E+03  0.7818608E-02  0.1235073E+00
         -4   -1    0    0    0  501 -0.00000000000E+00  0.00000000000E+00  0.13200697000E+02  0.13261647759E+02  0.12700000000E+01 0. -1.
          4   -1    0    0  501    0  0.00000000000E+00 -0.00000000000E+00 -0.29515809007E+03  0.29516082232E+03  0.12700000000E+01 0. -1.
         25    2    1    2    0    0  0.00000000000E+00  0.00000000000E+00 -0.28195739307E+03  0.30842247008E+03  0.12499779415E+03 0.  0.
    9000005    1    3    3    0    0 -0.38694124410E+02 -0.26575138017E+02 -0.39195200002E+02  0.61161564137E+02  0.10000000000E+01 0.  0.
    9000005    1    3    3    0    0  0.38694124410E+02  0.26575138017E+02 -0.24276219307E+03  0.24726090595E+03  0.10000000000E+01 0.  0.
<mgrwt>
<rscale>  0 0.12499779E+03</rscale>
<asrwt>0</asrwt>
<pdfrwt beam="2">  1        4 0.45413831E-01 0.12499779E+03</pdfrwt>
<pdfrwt beam="1">  1       -4 0.20357754E-02 0.12499779E+03</pdfrwt>
<totfact> 0.74557992E+03</totfact>
</mgrwt>
</event>
<event>
 5    1  0.3398872E-002  0.1249985E+03  0.7818608E-02  0.1235072E+00
         -4   -1    0    0    0  501 -0.00000000000E+00  0.00000000000E+00  0.53699608088E+02  0.53714623789E+02  0.12700000000E+01 0. -1.
          4   -1    0    0  501    0  0.00000000000E+00 -0.00000000000E+00 -0.72710190979E+02  0.72721281426E+02  0.12700000000E+01 0. -1.
         25    2    1    2    0    0  0.00000000000E+00  0.00000000000E+00 -0.19010582891E+02  0.12643590521E+03  0.12499854345E+03 0.  0.
    9000005    1    3    3    0    0  0.92748040686E+01  0.66980976290E+01 -0.71646843223E+02  0.72561399147E+02  0.10000000000E+01 0.  0.
    9000005    1    3    3    0    0 -0.92748040686E+01 -0.66980976290E+01  0.52636260332E+02  0.53874506068E+02  0.10000000000E+01 0.  0.
<mgrwt>
<rscale>  0 0.12499854E+03</rscale>
<asrwt>0</asrwt>
<pdfrwt beam="2">  1        4 0.11188191E-01 0.12499854E+03</pdfrwt>
<pdfrwt beam="1">  1       -4 0.82634863E-02 0.12499854E+03</pdfrwt>
<totfact> 0.10421769E+04</totfact>
</mgrwt>
</event>
<event>
 5    1  0.3398872E-002  0.1249909E+03  0.7818608E-02  0.1235083E+00
          4   -1    0    0  501    0  0.00000000000E+00  0.00000000000E+00  0.13639388166E+02  0.13698387115E+02  0.12700000000E+01 0.  1.
         -4   -1    0    0    0  501 -0.00000000000E+00 -0.00000000000E+00 -0.28567488466E+03  0.28567770761E+03  0.12700000000E+01 0.  1.
         25    2    1    2    0    0  0.00000000000E+00  0.00000000000E+00 -0.27203549649E+03  0.29937609473E+03  0.12499093863E+03 0.  0.
    9000005    1    3    3    0    0 -0.28946351421E+02  0.54291292033E+02 -0.16217331911E+03  0.17345495404E+03  0.10000000000E+01 0.  0.
    9000005    1    3    3    0    0  0.28946351421E+02 -0.54291292033E+02 -0.10986217738E+03  0.12592114068E+03  0.10000000000E+01 0.  0.
<mgrwt>
<rscale>  0 0.12499094E+03</rscale>
<asrwt>0</asrwt>
<pdfrwt beam="1">  1        4 0.21031232E-02 0.12499094E+03</pdfrwt>
<pdfrwt beam="2">  1       -4 0.43954733E-01 0.12499094E+03</pdfrwt>
<totfact> 0.75692394E+03</totfact>
</mgrwt>
</event>
<event>
 5    1  0.3398872E-002  0.1250096E+03  0.7818608E-02  0.1235054E+00
         -4   -1    0    0    0  501 -0.00000000000E+00  0.00000000000E+00  0.53698957841E+02  0.53713973723E+02  0.12700000000E+01 0. -1.
          4   -1    0    0  501    0  0.00000000000E+00 -0.00000000000E+00 -0.72723956092E+02  0.72735044440E+02  0.12700000000E+01 0. -1.
         25    2    1    2    0    0  0.00000000000E+00  0.00000000000E+00 -0.19024998252E+02  0.12644901816E+03  0.12500961417E+03 0.  0.
    9000005    1    3    3    0    0  0.32294263236E+02  0.47196820873E+02  0.15984717351E+02  0.59388302950E+02  0.10000000000E+01 0.  0.
    9000005    1    3    3    0    0 -0.32294263236E+02 -0.47196820873E+02 -0.35009715602E+02  0.67060715214E+02  0.10000000000E+01 0.  0.
<mgrwt>
<rscale>  0 0.12500961E+03</rscale>
<asrwt>0</asrwt>
<pdfrwt beam="2">  1        4 0.11190309E-01 0.12500961E+03</pdfrwt>
<pdfrwt beam="1">  1       -4 0.82633862E-02 0.12500961E+03</pdfrwt>
<totfact> 0.10418879E+04</totfact>
</mgrwt>
</event>
<event>
 5    1  0.3398872E-002  0.1249989E+03  0.7818608E-02  0.1235071E+00
         -4   -1    0    0    0  501 -0.00000000000E+00  0.00000000000E+00  0.51678686354E+02  0.51694289078E+02  0.12700000000E+01 0.  1.
          4   -1    0    0  501    0  0.00000000000E+00 -0.00000000000E+00 -0.75553602601E+02  0.75564275726E+02  0.12700000000E+01 0.  1.
         25    2    1    2    0    0  0.00000000000E+00  0.00000000000E+00 -0.23874916247E+02  0.12725856480E+03  0.12499892276E+03 0.  0.
    9000005    1    3    3    0    0  0.18847429417E+02  0.50295709326E+02 -0.44456999903E+02  0.69730257512E+02  0.10000000000E+01 0.  0.
    9000005    1    3    3    0    0 -0.18847429417E+02 -0.50295709326E+02  0.20582083657E+02  0.57528307292E+02  0.10000000000E+01 0.  0.
<mgrwt>
<rscale>  0 0.12499892E+03</rscale>
<asrwt>0</asrwt>
<pdfrwt beam="2">  1        4 0.11625652E-01 0.12499892E+03</pdfrwt>
<pdfrwt beam="1">  1       -4 0.79525883E-02 0.12499892E+03</pdfrwt>
<totfact> 0.10403786E+04</totfact>
</mgrwt>
</event>
<event>
 5    1  0.3398872E-002  0.1250000E+03  0.7818608E-02  0.1235069E+00
          4   -1    0    0  501    0  0.00000000000E+00  0.00000000000E+00  0.31100749460E+02  0.31126668902E+02  0.12700000000E+01 0.  1.
         -4   -1    0    0    0  501 -0.00000000000E+00 -0.00000000000E+00 -0.12551845969E+03  0.12552488448E+03  0.12700000000E+01 0.  1.
         25    2    1    2    0    0  0.00000000000E+00  0.00000000000E+00 -0.94417710232E+02  0.15665155338E+03  0.12500002068E+03 0.  0.
    9000005    1    3    3    0    0  0.62450992485E+02 -0.15861872885E+01 -0.49233031558E+02  0.79545797179E+02  0.10000000000E+01 0.  0.
    9000005    1    3    3    0    0 -0.62450992485E+02  0.15861872885E+01 -0.45184678674E+02  0.77105756201E+02  0.10000000000E+01 0.  0.
<mgrwt>
<rscale>  0 0.12500002E+03</rscale>
<asrwt>0</asrwt>
<pdfrwt beam="1">  1        4 0.47872188E-02 0.12500002E+03</pdfrwt>
<pdfrwt beam="2">  1       -4 0.19313020E-01 0.12500002E+03</pdfrwt>
<totfact> 0.97992205E+03</totfact>
</mgrwt>
</event>
<event>
 5    1  0.3398872E-002  0.1249892E+03  0.7818608E-02  0.1235086E+00
         -4   -1    0    0    0  501 -0.00000000000E+00  0.00000000000E+00  0.11589831835E+03  0.11590527640E+03  0.12700000000E+01 0.  1.
          4   -1    0    0  501    0  0.00000000000E+00 -0.00000000000E+00 -0.33678329316E+02  0.33702266474E+02  0.12700000000E+01 0.  1.
         25    2    1    2    0    0  0.00000000000E+00  0.00000000000E+00  0.82219989037E+02  0.14960754287E+03  0.12498916068E+03 0.  0.
    9000005    1    3    3    0    0 -0.24480396315E+02  0.38383163320E+02  0.92342514171E+02  0.10295968606E+03  0.10000000000E+01 0.  0.
    9000005    1    3    3    0    0  0.24480396315E+02 -0.38383163320E+02 -0.10122525134E+02  0.46647856813E+02  0.10000000000E+01 0.  0.
<mgrwt>
<rscale>  0 0.12498916E+03</rscale>
<asrwt>0</asrwt>
<pdfrwt beam="2">  1        4 0.51836581E-02 0.12498916E+03</pdfrwt>
<pdfrwt beam="1">  1       -4 0.17832887E-01 0.12498916E+03</pdfrwt>
<totfact> 0.99406235E+03</totfact>
</mgrwt>
</event>
<event>
 5    1  0.3398872E-002  0.1249963E+03  0.7818608E-02  0.1235075E+00
         -4   -1    0    0    0  501 -0.00000000000E+00  0.00000000000E+00  0.26019795589E+03  0.26020105524E+03  0.12700000000E+01 0.  1.
          4   -1    0    0  501    0  0.00000000000E+00 -0.00000000000E+00 -0.14981675741E+02  0.15035408475E+02  0.12700000000E+01 0.  1.
         25    2    1    2    0    0  0.00000000000E+00  0.00000000000E+00  0.24521628015E+03  0.27523646372E+03  0.12499634759E+03 0.  0.
    9000005    1    3    3    0    0 -0.34151027544E+02  0.45954679031E+02  0.17774049913E+03  0.18673727597E+03  0.10000000000E+01 0.  0.
    9000005    1    3    3    0    0  0.34151027544E+02 -0.45954679031E+02  0.67475781017E+02  0.88499187742E+02  0.10000000000E+01 0.  0.
<mgrwt>
<rscale>  0 0.12499635E+03</rscale>
<asrwt>0</asrwt>
<pdfrwt beam="2">  1        4 0.23092449E-02 0.12499635E+03</pdfrwt>
<pdfrwt beam="1">  1       -4 0.40034827E-01 0.12499635E+03</pdfrwt>
<totfact> 0.78820384E+03</totfact>
</mgrwt>
</event>
<event>
 5    1  0.3398872E-002  0.1250007E+03  0.7818608E-02  0.1235068E+00
          4   -1    0    0  501    0  0.00000000000E+00  0.00000000000E+00  0.10491273042E+02  0.10567862132E+02  0.12700000000E+01 0.  1.
         -4   -1    0    0    0  501 -0.00000000000E+00 -0.00000000000E+00 -0.37090533151E+03  0.37090750578E+03  0.12700000000E+01 0.  1.
         25    2    1    2    0    0  0.00000000000E+00  0.00000000000E+00 -0.36041405847E+03  0.38147536791E+03  0.12500065112E+03 0.  0.
    9000005    1    3    3    0    0 -0.96600719758E+01  0.53223014119E+02 -0.84705866418E+02  0.10050915395E+03  0.10000000000E+01 0.  0.
    9000005    1    3    3    0    0  0.96600719758E+01 -0.53223014119E+02 -0.27570819205E+03  0.28096621396E+03  0.10000000000E+01 0.  0.
<mgrwt>
<rscale>  0 0.12500065E+03</rscale>
<asrwt>0</asrwt>
<pdfrwt beam="1">  1        4 0.16201010E-02 0.12500065E+03</pdfrwt>
<pdfrwt beam="2">  1       -4 0.57068408E-01 0.12500065E+03</pdfrwt>
<totfact> 0.66394293E+03</totfact>
</mgrwt>
</event>
<event>
 5    1  0.3398872E-002  0.1250022E+03  0.7818608E-02  0.1235066E+00
         -4   -1    0    0    0  501 -0.00000000000E+00  0.00000000000E+00  0.45497953846E+02  0.45515675367E+02  0.12700000000E+01 0.  1.
          4   -1    0    0  501    0  0.00000000000E+00 -0.00000000000E+00 -0.85819418092E+02  0.85828814635E+02  0.12700000000E+01 0.  1.
         25    2    1    2    0    0  0.00000000000E+00  0.00000000000E+00 -0.40321464246E+02  0.13134449000E+03  0.12500221828E+03 0.  0.
    9000005    1    3    3    0    0  0.57899843400E+00 -0.55628080777E+02  0.97542956589E+01  0.56488626235E+02  0.10000000000E+01 0.  0.
    9000005    1    3    3    0    0 -0.57899843400E+00  0.55628080777E+02 -0.50075759905E+02  0.74855863767E+02  0.10000000000E+01 0.  0.
<mgrwt>
<rscale>  0 0.12500222E+03</rscale>
<asrwt>0</asrwt>
<pdfrwt beam="2">  1        4 0.13205073E-01 0.12500222E+03</pdfrwt>
<pdfrwt beam="1">  1       -4 0.70017712E-02 0.12500222E+03</pdfrwt>
<totfact> 0.10315193E+04</totfact>
</mgrwt>
</event>
<event>
 5    1  0.3398872E-002  0.1250027E+03  0.7818608E-02  0.1235065E+00
          4   -1    0    0  501    0  0.00000000000E+00  0.00000000000E+00  0.17553923809E+03  0.17554383216E+03  0.12700000000E+01 0.  1.
         -4   -1    0    0    0  501 -0.00000000000E+00 -0.00000000000E+00 -0.22230796996E+02  0.22267043699E+02  0.12700000000E+01 0.  1.
         25    2    1    2    0    0  0.00000000000E+00  0.00000000000E+00  0.15330844109E+03  0.19781087586E+03  0.12500265796E+03 0.  0.
    9000005    1    3    3    0    0 -0.49922996840E+02  0.14811521840E+02  0.13132859853E+03  0.14127946626E+03  0.10000000000E+01 0.  0.
    9000005    1    3    3    0    0  0.49922996840E+02 -0.14811521840E+02  0.21979842560E+02  0.56531409603E+02  0.10000000000E+01 0.  0.
<mgrwt>
<rscale>  0 0.12500266E+03</rscale>
<asrwt>0</asrwt>
<pdfrwt beam="1">  1        4 0.27009179E-01 0.12500266E+03</pdfrwt>
<pdfrwt beam="2">  1       -4 0.34232641E-02 0.12500266E+03</pdfrwt>
<totfact> 0.90500343E+03</totfact>
</mgrwt>
</event>
<event>
 5    1  0.3398872E-002  0.1249971E+03  0.7818608E-02  0.1235074E+00
         -4   -1    0    0    0  501 -0.00000000000E+00  0.00000000000E+00  0.77492180199E+02  0.77502586357E+02  0.12700000000E+01 0. -1.
          4   -1    0    0  501    0  0.00000000000E+00 -0.00000000000E+00 -0.50384155774E+02  0.50400159256E+02  0.12700000000E+01 0. -1.
         25    2    1    2    0    0  0.00000000000E+00  0.00000000000E+00  0.27108024425E+02  0.12790274561E+03  0.12499706935E+03 0.  0.
    9000005    1    3    3    0    0 -0.36264936351E+02 -0.48952646168E+02  0.27789995299E+02  0.66968582292E+02  0.10000000000E+01 0.  0.
    9000005    1    3    3    0    0  0.36264936351E+02  0.48952646168E+02 -0.68197087413E+00  0.60934163321E+02  0.10000000000E+01 0.  0.
<mgrwt>
<rscale>  0 0.12499707E+03</rscale>
<asrwt>0</asrwt>
<pdfrwt beam="2">  1        4 0.77534401E-02 0.12499707E+03</pdfrwt>
<pdfrwt beam="1">  1       -4 0.11923905E-01 0.12499707E+03</pdfrwt>
<totfact> 0.10390276E+04</totfact>
</mgrwt>
</event>
<event>
 5    1  0.3398872E-002  0.1249990E+03  0.7818608E-02  0.1235071E+00
         -4   -1    0    0    0  501 -0.00000000000E+00  0.00000000000E+00  0.46701079429E+03  0.46701252112E+03  0.12700000000E+01 0. -1.
          4   -1    0    0  501    0  0.00000000000E+00 -0.00000000000E+00 -0.83142736876E+01  0.84107102526E+01  0.12700000000E+01 0. -1.
         25    2    1    2    0    0  0.00000000000E+00  0.00000000000E+00  0.45869652060E+03  0.47542323137E+03  0.12499900366E+03 0.  0.
    9000005    1    3    3    0    0 -0.38365703202E+02 -0.12640260423E+02  0.47997310719E+02  0.62741096596E+02  0.10000000000E+01 0.  0.
    9000005    1    3    3    0    0  0.38365703202E+02  0.12640260423E+02  0.41069920988E+03  0.41268213478E+03  0.10000000000E+01 0.  0.
<mgrwt>
<rscale>  0 0.12499900E+03</rscale>
<asrwt>0</asrwt>
<pdfrwt beam="2">  1        4 0.12866701E-02 0.12499900E+03</pdfrwt>
<pdfrwt beam="1">  1       -4 0.71855361E-01 0.12499900E+03</pdfrwt>
<totfact> 0.57824219E+03</totfact>
</mgrwt>
</event>
<event>
 5    1  0.3398872E-002  0.1249905E+03  0.7818608E-02  0.1235084E+00
         -4   -1    0    0    0  501 -0.00000000000E+00  0.00000000000E+00  0.16746108810E+03  0.16746590377E+03  0.12700000000E+01 0.  1.
          4   -1    0    0  501    0  0.00000000000E+00 -0.00000000000E+00 -0.23300308574E+02  0.23334894036E+02  0.12700000000E+01 0.  1.
         25    2    1    2    0    0  0.00000000000E+00  0.00000000000E+00  0.14416077952E+03  0.19080079781E+03  0.12499045600E+03 0.  0.
    9000005    1    3    3    0    0 -0.28781733040E+02 -0.16016634909E+02  0.15314052235E+03  0.15664590750E+03  0.10000000000E+01 0.  0.
    9000005    1    3    3    0    0  0.28781733040E+02  0.16016634909E+02 -0.89797428299E+01  0.34154890307E+02  0.10000000000E+01 0.  0.
<mgrwt>
<rscale>  0 0.12499046E+03</rscale>
<asrwt>0</asrwt>
<pdfrwt beam="2">  1        4 0.35876936E-02 0.12499046E+03</pdfrwt>
<pdfrwt beam="1">  1       -4 0.25766276E-01 0.12499046E+03</pdfrwt>
<totfact> 0.91727771E+03</totfact>
</mgrwt>
</event>
<event>
 5    1  0.3398872E-002  0.1250039E+03  0.7818608E-02  0.1235063E+00
         -4   -1    0    0    0  501 -0.00000000000E+00  0.00000000000E+00  0.30827981400E+03  0.30828242996E+03  0.12700000000E+01 0. -1.
          4   -1    0    0  501    0  0.00000000000E+00 -0.00000000000E+00 -0.12637415496E+02  0.12701069657E+02  0.12700000000E+01 0. -1.
         25    2    1    2    0    0  0.00000000000E+00  0.00000000000E+00  0.29564239850E+03  0.32098349961E+03  0.12500391686E+03 0.  0.
    9000005    1    3    3    0    0 -0.53888635795E+02 -0.31572586790E+02  0.14226533336E+03  0.15537451007E+03  0.10000000000E+01 0.  0.
    9000005    1    3    3    0    0  0.53888635795E+02  0.31572586790E+02  0.15337706515E+03  0.16560898954E+03  0.10000000000E+01 0.  0.
<mgrwt>
<rscale>  0 0.12500392E+03</rscale>
<asrwt>0</asrwt>
<pdfrwt beam="2">  1        4 0.19493156E-02 0.12500392E+03</pdfrwt>
<pdfrwt beam="1">  1       -4 0.47432759E-01 0.12500392E+03</pdfrwt>
<totfact> 0.73032963E+03</totfact>
</mgrwt>
</event>
<event>
 5    1  0.3398872E-002  0.1249971E+03  0.7818608E-02  0.1235074E+00
         -4   -1    0    0    0  501 -0.00000000000E+00  0.00000000000E+00  0.47526077172E+01  0.49193678571E+01  0.12700000000E+01 0.  1.
          4   -1    0    0  501    0  0.00000000000E+00 -0.00000000000E+00 -0.80754135054E+03  0.80754234918E+03  0.12700000000E+01 0.  1.
         25    2    1    2    0    0  0.00000000000E+00  0.00000000000E+00 -0.80278874282E+03  0.81246171704E+03  0.12499710421E+03 0.  0.
    9000005    1    3    3    0    0 -0.11980476459E+02 -0.46469391642E+02 -0.14122736751E+03  0.14916134054E+03  0.10000000000E+01 0.  0.
    9000005    1    3    3    0    0  0.11980476459E+02  0.46469391642E+02 -0.66156137530E+03  0.66330037650E+03  0.10000000000E+01 0.  0.
<mgrwt>
<rscale>  0 0.12499710E+03</rscale>
<asrwt>0</asrwt>
<pdfrwt beam="2">  1        4 0.12424993E+00 0.12499710E+03</pdfrwt>
<pdfrwt beam="1">  1       -4 0.74407558E-03 0.12499710E+03</pdfrwt>
<totfact> 0.37716838E+03</totfact>
</mgrwt>
</event>
<event>
 5    1  0.3398872E-002  0.1250043E+03  0.7818608E-02  0.1235063E+00
          4   -1    0    0  501    0  0.00000000000E+00  0.00000000000E+00  0.27142623133E+04  0.27142626104E+04  0.12700000000E+01 0.  1.
         -4   -1    0    0    0  501 -0.00000000000E+00 -0.00000000000E+00 -0.11587395634E+01  0.17191792739E+01  0.12700000000E+01 0.  1.
         25    2    1    2    0    0  0.00000000000E+00  0.00000000000E+00  0.27131035737E+04  0.27159817897E+04  0.12500432034E+03 0.  0.
    9000005    1    3    3    0    0  0.55976146138E+02  0.20676877479E+02  0.17599146429E+04  0.17609262939E+04  0.10000000000E+01 0.  0.
    9000005    1    3    3    0    0 -0.55976146138E+02 -0.20676877479E+02  0.95318893080E+03  0.95505549577E+03  0.10000000000E+01 0.  0.
<mgrwt>
<rscale>  0 0.12500432E+03</rscale>
<asrwt>0</asrwt>
<pdfrwt beam="1">  1        4 0.41762356E+00 0.12500432E+03</pdfrwt>
<pdfrwt beam="2">  1       -4 0.22140037E-03 0.12500432E+03</pdfrwt>
<totfact> 0.31857777E+02</totfact>
</mgrwt>
</event>
<event>
 5    1  0.3398872E-002  0.1250066E+03  0.7818608E-02  0.1235059E+00
          4   -1    0    0  501    0  0.00000000000E+00  0.00000000000E+00  0.15946044917E+03  0.15946550646E+03  0.12700000000E+01 0. -1.
         -4   -1    0    0    0  501 -0.00000000000E+00 -0.00000000000E+00 -0.24477350711E+02  0.24510275352E+02  0.12700000000E+01 0. -1.
         25    2    1    2    0    0  0.00000000000E+00  0.00000000000E+00  0.13498309846E+03  0.18397578181E+03  0.12500660552E+03 0.  0.
    9000005    1    3    3    0    0  0.61631295119E+01  0.58123212690E+02  0.34934372483E+02  0.68100678408E+02  0.10000000000E+01 0.  0.
    9000005    1    3    3    0    0 -0.61631295119E+01 -0.58123212690E+02  0.10004872598E+03  0.11587510340E+03  0.10000000000E+01 0.  0.
<mgrwt>
<rscale>  0 0.12500661E+03</rscale>
<asrwt>0</asrwt>
<pdfrwt beam="1">  1        4 0.24535299E-01 0.12500661E+03</pdfrwt>
<pdfrwt beam="2">  1       -4 0.37686678E-02 0.12500661E+03</pdfrwt>
<totfact> 0.92892451E+03</totfact>
</mgrwt>
</event>
<event>
 5    1  0.3398872E-002  0.1250005E+03  0.7818608E-02  0.1235068E+00
         -4   -1    0    0    0  501 -0.00000000000E+00  0.00000000000E+00  0.28575432584E+01  0.31270518821E+01  0.12700000000E+01 0. -1.
          4   -1    0    0  501    0  0.00000000000E+00 -0.00000000000E+00 -0.13051762962E+04  0.13051769141E+04  0.12700000000E+01 0. -1.
         25    2    1    2    0    0  0.00000000000E+00  0.00000000000E+00 -0.13023187530E+04  0.13083039660E+04  0.12500053242E+03 0.  0.
    9000005    1    3    3    0    0  0.30311019411E+02 -0.50890158207E+02 -0.44269238587E+03  0.44663868463E+03  0.10000000000E+01 0.  0.
    9000005    1    3    3    0    0 -0.30311019411E+02  0.50890158207E+02 -0.85962636711E+03  0.86166528138E+03  0.10000000000E+01 0.  0.
<mgrwt>
<rscale>  0 0.12500053E+03</rscale>
<asrwt>0</asrwt>
<pdfrwt beam="2">  1        4 0.20081668E+00 0.12500053E+03</pdfrwt>
<pdfrwt beam="1">  1       -4 0.46040204E-03 0.12500053E+03</pdfrwt>
<totfact> 0.22033185E+03</totfact>
</mgrwt>
</event>
<event>
 5    1  0.3398872E-002  0.1249988E+03  0.7818608E-02  0.1235071E+00
          4   -1    0    0  501    0  0.00000000000E+00  0.00000000000E+00  0.39992448261E+02  0.40012608236E+02  0.12700000000E+01 0. -1.
         -4   -1    0    0    0  501 -0.00000000000E+00 -0.00000000000E+00 -0.97623877848E+02  0.97632138285E+02  0.12700000000E+01 0. -1.
         25    2    1    2    0    0  0.00000000000E+00  0.00000000000E+00 -0.57631429587E+02  0.13764474652E+03  0.12499877827E+03 0.  0.
    9000005    1    3    3    0    0 -0.12578872911E+02 -0.51180562063E+02  0.81595516794E+01  0.53340943565E+02  0.10000000000E+01 0.  0.
    9000005    1    3    3    0    0  0.12578872911E+02  0.51180562063E+02 -0.65790981267E+02  0.84303802956E+02  0.10000000000E+01 0.  0.
<mgrwt>
<rscale>  0 0.12499878E+03</rscale>
<asrwt>0</asrwt>
<pdfrwt beam="1">  1        4 0.61548706E-02 0.12499878E+03</pdfrwt>
<pdfrwt beam="2">  1       -4 0.15021244E-01 0.12499878E+03</pdfrwt>
<totfact> 0.10182903E+04</totfact>
</mgrwt>
</event>
<event>
 5    1  0.3398872E-002  0.1249995E+03  0.7818608E-02  0.1235070E+00
          4   -1    0    0  501    0  0.00000000000E+00  0.00000000000E+00  0.13278716852E+02  0.13339311123E+02  0.12700000000E+01 0.  1.
         -4   -1    0    0    0  501 -0.00000000000E+00 -0.00000000000E+00 -0.29343953763E+03  0.29344228588E+03  0.12700000000E+01 0.  1.
         25    2    1    2    0    0  0.00000000000E+00  0.00000000000E+00 -0.28016082078E+03  0.30678159701E+03  0.12499945105E+03 0.  0.
    9000005    1    3    3    0    0  0.76586313533E+01 -0.61516723376E+02 -0.12071600628E+03  0.13570672814E+03  0.10000000000E+01 0.  0.
    9000005    1    3    3    0    0 -0.76586313533E+01  0.61516723376E+02 -0.15944481449E+03  0.17107486887E+03  0.10000000000E+01 0.  0.
<mgrwt>
<rscale>  0 0.12499945E+03</rscale>
<asrwt>0</asrwt>
<pdfrwt beam="1">  1        4 0.20477522E-02 0.12499945E+03</pdfrwt>
<pdfrwt beam="2">  1       -4 0.45149412E-01 0.12499945E+03</pdfrwt>
<totfact> 0.74756879E+03</totfact>
</mgrwt>
</event>
<event>
 5    1  0.3398872E-002  0.1250079E+03  0.7818608E-02  0.1235057E+00
          4   -1    0    0  501    0  0.00000000000E+00  0.00000000000E+00  0.75999110379E+02  0.76009720947E+02  0.12700000000E+01 0.  1.
         -4   -1    0    0    0  501 -0.00000000000E+00 -0.00000000000E+00 -0.51383046717E+02  0.51398739186E+02  0.12700000000E+01 0.  1.
         25    2    1    2    0    0  0.00000000000E+00  0.00000000000E+00  0.24616063662E+02  0.12740846013E+03  0.12500786025E+03 0.  0.
    9000005    1    3    3    0    0 -0.25030032047E+02 -0.31355041091E+02 -0.36529798439E+02  0.54268474091E+02  0.10000000000E+01 0.  0.
    9000005    1    3    3    0    0  0.25030032047E+02  0.31355041091E+02  0.61145862101E+02  0.73139986042E+02  0.10000000000E+01 0.  0.
<mgrwt>
<rscale>  0 0.12500786E+03</rscale>
<asrwt>0</asrwt>
<pdfrwt beam="1">  1        4 0.11694194E-01 0.12500786E+03</pdfrwt>
<pdfrwt beam="2">  1       -4 0.79071074E-02 0.12500786E+03</pdfrwt>
<totfact> 0.10398438E+04</totfact>
</mgrwt>
</event>
<event>
 5    1  0.3398872E-002  0.1250026E+03  0.7818608E-02  0.1235065E+00
         -4   -1    0    0    0  501 -0.00000000000E+00  0.00000000000E+00  0.11780458830E+03  0.11781143376E+03  0.12700000000E+01 0. -1.
          4   -1    0    0  501    0  0.00000000000E+00 -0.00000000000E+00 -0.33140138162E+02  0.33164463774E+02  0.12700000000E+01 0. -1.
         25    2    1    2    0    0  0.00000000000E+00  0.00000000000E+00  0.84664450141E+02  0.15097589754E+03  0.12500261005E+03 0.  0.
    9000005    1    3    3    0    0 -0.36218665385E+02 -0.49985100747E+02  0.30553340492E+02  0.68882571338E+02  0.10000000000E+01 0.  0.
    9000005    1    3    3    0    0  0.36218665385E+02  0.49985100747E+02  0.54111109649E+02  0.82093326199E+02  0.10000000000E+01 0.  0.
<mgrwt>
<rscale>  0 0.12500261E+03</rscale>
<asrwt>0</asrwt>
<pdfrwt beam="2">  1        4 0.51008806E-02 0.12500261E+03</pdfrwt>
<pdfrwt beam="1">  1       -4 0.18126180E-01 0.12500261E+03</pdfrwt>
<totfact> 0.99103702E+03</totfact>
</mgrwt>
</event>
<event>
 5    1  0.3398872E-002  0.1250022E+03  0.7818608E-02  0.1235066E+00
         -4   -1    0    0    0  501 -0.00000000000E+00  0.00000000000E+00  0.70976190074E+02  0.70987551425E+02  0.12700000000E+01 0.  1.
          4   -1    0    0  501    0  0.00000000000E+00 -0.00000000000E+00 -0.55014928569E+02  0.55029585365E+02  0.12700000000E+01 0.  1.
         25    2    1    2    0    0  0.00000000000E+00  0.00000000000E+00  0.15961261505E+02  0.12601713679E+03  0.12500222756E+03 0.  0.
    9000005    1    3    3    0    0 -0.50570183287E+02  0.15137409264E+02  0.41702247675E+02  0.67279729919E+02  0.10000000000E+01 0.  0.
    9000005    1    3    3    0    0  0.50570183287E+02 -0.15137409264E+02 -0.25740986170E+02  0.58737406871E+02  0.10000000000E+01 0.  0.
<mgrwt>
<rscale>  0 0.12500223E+03</rscale>
<asrwt>0</asrwt>
<pdfrwt beam="2">  1        4 0.84658366E-02 0.12500223E+03</pdfrwt>
<pdfrwt beam="1">  1       -4 0.10921415E-01 0.12500223E+03</pdfrwt>
<totfact> 0.10430057E+04</totfact>
</mgrwt>
</event>
<event>
 5    1  0.3398872E-002  0.1249966E+03  0.7818608E-02  0.1235075E+00
          4   -1    0    0  501    0  0.00000000000E+00  0.00000000000E+00  0.74451697665E+01  0.75527116225E+01  0.12700000000E+01 0. -1.
         -4   -1    0    0    0  501 -0.00000000000E+00 -0.00000000000E+00 -0.52077034756E+03  0.52077189613E+03  0.12700000000E+01 0. -1.
         25    2    1    2    0    0  0.00000000000E+00  0.00000000000E+00 -0.51332517780E+03  0.52832460775E+03  0.12499661195E+03 0.  0.
    9000005    1    3    3    0    0  0.49032098422E+02 -0.23518250025E+02 -0.12653866012E+03  0.13773266593E+03  0.10000000000E+01 0.  0.
    9000005    1    3    3    0    0 -0.49032098422E+02  0.23518250025E+02 -0.38678651768E+03  0.39059194182E+03  0.10000000000E+01 0.  0.
<mgrwt>
<rscale>  0 0.12499661E+03</rscale>
<asrwt>0</asrwt>
<pdfrwt beam="1">  1        4 0.11538027E-02 0.12499661E+03</pdfrwt>
<pdfrwt beam="2">  1       -4 0.80126878E-01 0.12499661E+03</pdfrwt>
<totfact> 0.53735814E+03</totfact>
</mgrwt>
</event>
<event>
 5    1  0.3398872E-002  0.1250030E+03  0.7818608E-02  0.1235065E+00
          4   -1    0    0  501    0  0.00000000000E+00  0.00000000000E+00  0.76273299553E+03  0.76273405285E+03  0.12700000000E+01 0. -1.
         -4   -1    0    0    0  501 -0.00000000000E+00 -0.00000000000E+00 -0.50418277491E+01  0.51993198643E+01  0.12700000000E+01 0. -1.
         25    2    1    2    0    0  0.00000000000E+00  0.00000000000E+00  0.75769116778E+03  0.76793337271E+03  0.12500303672E+03 0.  0.
    9000005    1    3    3    0    0  0.57115425540E+02 -0.18039715268E+02  0.48836848910E+03  0.49202884500E+03  0.10000000000E+01 0.  0.
    9000005    1    3    3    0    0 -0.57115425540E+02  0.18039715268E+02  0.26932267868E+03  0.27590452771E+03  0.10000000000E+01 0.  0.
<mgrwt>
<rscale>  0 0.12500304E+03</rscale>
<asrwt>0</asrwt>
<pdfrwt beam="1">  1        4 0.11735570E+00 0.12500304E+03</pdfrwt>
<pdfrwt beam="2">  1       -4 0.78786217E-03 0.12500304E+03</pdfrwt>
<totfact> 0.39728090E+03</totfact>
</mgrwt>
</event>
<event>
 5    1  0.3398872E-002  0.1249975E+03  0.7818608E-02  0.1235073E+00
         -4   -1    0    0    0  501 -0.00000000000E+00  0.00000000000E+00  0.12790005468E+03  0.12790635984E+03  0.12700000000E+01 0.  1.
          4   -1    0    0  501    0  0.00000000000E+00 -0.00000000000E+00 -0.30519944698E+02  0.30546356974E+02  0.12700000000E+01 0.  1.
         25    2    1    2    0    0  0.00000000000E+00  0.00000000000E+00  0.97380109985E+02  0.15845271682E+03  0.12499751056E+03 0.  0.
    9000005    1    3    3    0    0 -0.20185190859E+02  0.28872466554E+02  0.11411873205E+03  0.11943678772E+03  0.10000000000E+01 0.  0.
    9000005    1    3    3    0    0  0.20185190859E+02 -0.28872466554E+02 -0.16738622065E+02  0.39015929101E+02  0.10000000000E+01 0.  0.
<mgrwt>
<rscale>  0 0.12499751E+03</rscale>
<asrwt>0</asrwt>
<pdfrwt beam="2">  1        4 0.46978929E-02 0.12499751E+03</pdfrwt>
<pdfrwt beam="1">  1       -4 0.19679448E-01 0.12499751E+03</pdfrwt>
<totfact> 0.97647386E+03</totfact>
</mgrwt>
</event>
<event>
 5    1  0.3398872E-002  0.1250025E+03  0.7818608E-02  0.1235065E+00
          4   -1    0    0  501    0  0.00000000000E+00  0.00000000000E+00  0.21678108549E+03  0.21678480557E+03  0.12700000000E+01 0.  1.
         -4   -1    0    0    0  501 -0.00000000000E+00 -0.00000000000E+00 -0.17993785750E+02  0.18038548324E+02  0.12700000000E+01 0.  1.
         25    2    1    2    0    0  0.00000000000E+00  0.00000000000E+00  0.19878729974E+03  0.23482335389E+03  0.12500246796E+03 0.  0.
    9000005    1    3    3    0    0 -0.13893364389E+02 -0.57620168818E+02  0.13660102099E+03  0.14890919502E+03  0.10000000000E+01 0.  0.
    9000005    1    3    3    0    0  0.13893364389E+02  0.57620168818E+02  0.62186278751E+02  0.85914158866E+02  0.10000000000E+01 0.  0.
<mgrwt>
<rscale>  0 0.12500247E+03</rscale>
<asrwt>0</asrwt>
<pdfrwt beam="1">  1        4 0.33354665E-01 0.12500247E+03</pdfrwt>
<pdfrwt beam="2">  1       -4 0.27720042E-02 0.12500247E+03</pdfrwt>
<totfact> 0.84569772E+03</totfact>
</mgrwt>
</event>
<event>
 5    1  0.3398872E-002  0.1250014E+03  0.7818608E-02  0.1235067E+00
         -4   -1    0    0    0  501 -0.00000000000E+00  0.00000000000E+00  0.25296227710E+02  0.25328087894E+02  0.12700000000E+01 0.  1.
          4   -1    0    0  501    0  0.00000000000E+00 -0.00000000000E+00 -0.15429214201E+03  0.15429736869E+03  0.12700000000E+01 0.  1.
         25    2    1    2    0    0  0.00000000000E+00  0.00000000000E+00 -0.12899591430E+03  0.17962545658E+03  0.12500143498E+03 0.  0.
    9000005    1    3    3    0    0 -0.15055639591E+02 -0.14550921044E+02  0.20112867973E+02  0.29050456878E+02  0.10000000000E+01 0.  0.
    9000005    1    3    3    0    0  0.15055639591E+02  0.14550921044E+02 -0.14910878227E+03  0.15057499971E+03  0.10000000000E+01 0.  0.
<mgrwt>
<rscale>  0 0.12500143E+03</rscale>
<asrwt>0</asrwt>
<pdfrwt beam="2">  1        4 0.23740105E-01 0.12500143E+03</pdfrwt>
<pdfrwt beam="1">  1       -4 0.38945803E-02 0.12500143E+03</pdfrwt>
<totfact> 0.93681452E+03</totfact>
</mgrwt>
</event>
<event>
 5    1  0.3398872E-002  0.1249998E+03  0.7818608E-02  0.1235070E+00
         -4   -1    0    0    0  501 -0.00000000000E+00  0.00000000000E+00  0.22759642231E+03  0.22759996561E+03  0.12700000000E+01 0.  1.
          4   -1    0    0  501    0  0.00000000000E+00 -0.00000000000E+00 -0.17135819517E+02  0.17182817305E+02  0.12700000000E+01 0.  1.
         25    2    1    2    0    0  0.00000000000E+00  0.00000000000E+00  0.21046060279E+03  0.24478278292E+03  0.12499978194E+03 0.  0.
    9000005    1    3    3    0    0  0.54719512437E+02 -0.22773628211E+02  0.14402043489E+03  0.15574257238E+03  0.10000000000E+01 0.  0.
    9000005    1    3    3    0    0 -0.54719512437E+02  0.22773628211E+02  0.66440167896E+02  0.89040210542E+02  0.10000000000E+01 0.  0.
<mgrwt>
<rscale>  0 0.12499978E+03</rscale>
<asrwt>0</asrwt>
<pdfrwt beam="2">  1        4 0.26401678E-02 0.12499978E+03</pdfrwt>
<pdfrwt beam="1">  1       -4 0.35018721E-01 0.12499978E+03</pdfrwt>
<totfact> 0.83090577E+03</totfact>
</mgrwt>
</event>
<event>
 5    1  0.3398872E-002  0.1249989E+03  0.7818608E-02  0.1235071E+00
         -4   -1    0    0    0  501 -0.00000000000E+00  0.00000000000E+00  0.11238226932E+03  0.11238944504E+03  0.12700000000E+01 0.  1.
          4   -1    0    0  501    0  0.00000000000E+00 -0.00000000000E+00 -0.34738086711E+02  0.34761294112E+02  0.12700000000E+01 0.  1.
         25    2    1    2    0    0  0.00000000000E+00  0.00000000000E+00  0.77644182604E+02  0.14715073915E+03  0.12499888376E+03 0.  0.
    9000005    1    3    3    0    0 -0.13109459655E+02  0.24870238917E+01 -0.33047304258E+02  0.35653436567E+02  0.10000000000E+01 0.  0.
    9000005    1    3    3    0    0  0.13109459655E+02 -0.24870238917E+01  0.11069148686E+03  0.11149730259E+03  0.10000000000E+01 0.  0.
<mgrwt>
<rscale>  0 0.12499888E+03</rscale>
<asrwt>0</asrwt>
<pdfrwt beam="2">  1        4 0.53466582E-02 0.12499888E+03</pdfrwt>
<pdfrwt beam="1">  1       -4 0.17291917E-01 0.12499888E+03</pdfrwt>
<totfact> 0.99877228E+03</totfact>
</mgrwt>
</event>
<event>
 5    1  0.3398872E-002  0.1250025E+03  0.7818608E-02  0.1235065E+00
         -4   -1    0    0    0  501 -0.00000000000E+00  0.00000000000E+00  0.14244044719E+03  0.14244610874E+03  0.12700000000E+01 0.  1.
          4   -1    0    0  501    0  0.00000000000E+00 -0.00000000000E+00 -0.27403921689E+02  0.27433334175E+02  0.12700000000E+01 0.  1.
         25    2    1    2    0    0  0.00000000000E+00  0.00000000000E+00  0.11503652550E+03  0.16987944291E+03  0.12500249168E+03 0.  0.
    9000005    1    3    3    0    0 -0.31050494006E+02 -0.52374515719E+02  0.76650025257E+02  0.97895094090E+02  0.10000000000E+01 0.  0.
    9000005    1    3    3    0    0  0.31050494006E+02  0.52374515719E+02  0.38386500240E+02  0.71984348823E+02  0.10000000000E+01 0.  0.
<mgrwt>
<rscale>  0 0.12500249E+03</rscale>
<asrwt>0</asrwt>
<pdfrwt beam="2">  1        4 0.42186860E-02 0.12500249E+03</pdfrwt>
<pdfrwt beam="1">  1       -4 0.21916612E-01 0.12500249E+03</pdfrwt>
<totfact> 0.95465772E+03</totfact>
</mgrwt>
</event>
<event>
 5    1  0.3398872E-002  0.1249920E+03  0.7818608E-02  0.1235082E+00
         -4   -1    0    0    0  501 -0.00000000000E+00  0.00000000000E+00  0.48994344173E+03  0.48994508773E+03  0.12700000000E+01 0. -1.
          4   -1    0    0  501    0  0.00000000000E+00 -0.00000000000E+00 -0.79195929332E+01  0.80207762858E+01  0.12700000000E+01 0. -1.
         25    2    1    2    0    0  0.00000000000E+00  0.00000000000E+00  0.48202384880E+03  0.49796586402E+03  0.12499204343E+03 0.  0.
    9000005    1    3    3    0    0 -0.40444301643E+02 -0.47626391291E+02  0.24443454888E+03  0.25229598365E+03  0.10000000000E+01 0.  0.
    9000005    1    3    3    0    0  0.40444301643E+02  0.47626391291E+02  0.23758929992E+03  0.24566988036E+03  0.10000000000E+01 0.  0.
<mgrwt>
<rscale>  0 0.12499204E+03</rscale>
<asrwt>0</asrwt>
<pdfrwt beam="2">  1        4 0.12263082E-02 0.12499204E+03</pdfrwt>
<pdfrwt beam="1">  1       -4 0.75383864E-01 0.12499204E+03</pdfrwt>
<totfact> 0.56032318E+03</totfact>
</mgrwt>
</event>
<event>
 5    1  0.3398872E-002  0.1249847E+03  0.7818608E-02  0.1235093E+00
         -4   -1    0    0    0  501 -0.00000000000E+00  0.00000000000E+00  0.23250451899E+02  0.23285111413E+02  0.12700000000E+01 0.  1.
          4   -1    0    0  501    0  0.00000000000E+00 -0.00000000000E+00 -0.16780411501E+03  0.16780892084E+03  0.12700000000E+01 0.  1.
         25    2    1    2    0    0  0.00000000000E+00  0.00000000000E+00 -0.14455366311E+03  0.19109403226E+03  0.12498466964E+03 0.  0.
    9000005    1    3    3    0    0  0.23546912529E+02  0.29061316964E+02  0.42507611805E+01  0.37657485364E+02  0.10000000000E+01 0.  0.
    9000005    1    3    3    0    0 -0.23546912529E+02 -0.29061316964E+02 -0.14880442429E+03  0.15343654689E+03  0.10000000000E+01 0.  0.
<mgrwt>
<rscale>  0 0.12498467E+03</rscale>
<asrwt>0</asrwt>
<pdfrwt beam="2">  1        4 0.25819053E-01 0.12498467E+03</pdfrwt>
<pdfrwt beam="1">  1       -4 0.35800285E-02 0.12498467E+03</pdfrwt>
<totfact> 0.91688783E+03</totfact>
</mgrwt>
</event>
<event>
 5    1  0.3398872E-002  0.1249975E+03  0.7818608E-02  0.1235073E+00
          4   -1    0    0  501    0  0.00000000000E+00  0.00000000000E+00  0.80177663171E+02  0.80187720828E+02  0.12700000000E+01 0.  1.
         -4   -1    0    0    0  501 -0.00000000000E+00 -0.00000000000E+00 -0.48696574268E+02  0.48713132166E+02  0.12700000000E+01 0.  1.
         25    2    1    2    0    0  0.00000000000E+00  0.00000000000E+00  0.31481088903E+02  0.12890085299E+03  0.12499748375E+03 0.  0.
    9000005    1    3    3    0    0  0.57735372637E+01 -0.40921647392E+01 -0.48287089728E+02  0.48813139411E+02  0.10000000000E+01 0.  0.
    9000005    1    3    3    0    0 -0.57735372637E+01  0.40921647392E+01  0.79768178631E+02  0.80087713583E+02  0.10000000000E+01 0.  0.
<mgrwt>
<rscale>  0 0.12499748E+03</rscale>
<asrwt>0</asrwt>
<pdfrwt beam="1">  1        4 0.12337072E-01 0.12499748E+03</pdfrwt>
<pdfrwt beam="2">  1       -4 0.74938280E-02 0.12499748E+03</pdfrwt>
<totfact> 0.10368667E+04</totfact>
</mgrwt>
</event>
<event>
 5    1  0.3398872E-002  0.1249978E+03  0.7818608E-02  0.1235073E+00
         -4   -1    0    0    0  501 -0.00000000000E+00  0.00000000000E+00  0.19543701952E+03  0.19544114587E+03  0.12700000000E+01 0. -1.
          4   -1    0    0  501    0  0.00000000000E+00 -0.00000000000E+00 -0.19962037069E+02  0.20002395455E+02  0.12700000000E+01 0. -1.
         25    2    1    2    0    0  0.00000000000E+00  0.00000000000E+00  0.17547498245E+03  0.21544354132E+03  0.12499780011E+03 0.  0.
    9000005    1    3    3    0    0  0.27631267862E+02 -0.27770170880E+02  0.38212772272E+01  0.39373487450E+02  0.10000000000E+01 0.  0.
    9000005    1    3    3    0    0 -0.27631267862E+02  0.27770170880E+02  0.17165370522E+03  0.17607005387E+03  0.10000000000E+01 0.  0.
<mgrwt>
<rscale>  0 0.12499780E+03</rscale>
<asrwt>0</asrwt>
<pdfrwt beam="2">  1        4 0.30745045E-02 0.12499780E+03</pdfrwt>
<pdfrwt beam="1">  1       -4 0.30070656E-01 0.12499780E+03</pdfrwt>
<totfact> 0.87598830E+03</totfact>
</mgrwt>
</event>
<event>
 5    1  0.3398872E-002  0.1250040E+03  0.7818608E-02  0.1235063E+00
         -4   -1    0    0    0  501 -0.00000000000E+00  0.00000000000E+00  0.16070324092E+03  0.16070825909E+03  0.12700000000E+01 0. -1.
          4   -1    0    0  501    0  0.00000000000E+00 -0.00000000000E+00 -0.24286780828E+02  0.24319963466E+02  0.12700000000E+01 0. -1.
         25    2    1    2    0    0  0.00000000000E+00  0.00000000000E+00  0.13641646009E+03  0.18502822256E+03  0.12500397018E+03 0.  0.
    9000005    1    3    3    0    0 -0.28031860759E+02  0.17741815041E+02 -0.10184543393E+02  0.34717173598E+02  0.10000000000E+01 0.  0.
    9000005    1    3    3    0    0  0.28031860759E+02 -0.17741815041E+02  0.14660100348E+03  0.15031104896E+03  0.10000000000E+01 0.  0.
<mgrwt>
<rscale>  0 0.12500397E+03</rscale>
<asrwt>0</asrwt>
<pdfrwt beam="2">  1        4 0.37393663E-02 0.12500397E+03</pdfrwt>
<pdfrwt beam="1">  1       -4 0.24726514E-01 0.12500397E+03</pdfrwt>
<totfact> 0.92711407E+03</totfact>
</mgrwt>
</event>
<event>
 5    1  0.3398872E-002  0.1249927E+03  0.7818608E-02  0.1235081E+00
         -4   -1    0    0    0  501 -0.00000000000E+00  0.00000000000E+00  0.10874347383E+03  0.10875088966E+03  0.12700000000E+01 0.  1.
          4   -1    0    0  501    0  0.00000000000E+00 -0.00000000000E+00 -0.35897649903E+02  0.35920108137E+02  0.12700000000E+01 0.  1.
         25    2    1    2    0    0  0.00000000000E+00  0.00000000000E+00  0.72845823930E+02  0.14467099779E+03  0.12499273394E+03 0.  0.
    9000005    1    3    3    0    0 -0.21214725969E+02 -0.71058091761E+01 -0.31108637692E+02  0.38331507419E+02  0.10000000000E+01 0.  0.
    9000005    1    3    3    0    0  0.21214725969E+02  0.71058091761E+01  0.10395446162E+03  0.10633949037E+03  0.10000000000E+01 0.  0.
<mgrwt>
<rscale>  0 0.12499273E+03</rscale>
<asrwt>0</asrwt>
<pdfrwt beam="2">  1        4 0.55250134E-02 0.12499273E+03</pdfrwt>
<pdfrwt beam="1">  1       -4 0.16732063E-01 0.12499273E+03</pdfrwt>
<totfact> 0.10039320E+04</totfact>
</mgrwt>
</event>
<event>
 5    1  0.3398872E-002  0.1249991E+03  0.7818608E-02  0.1235071E+00
          4   -1    0    0  501    0  0.00000000000E+00  0.00000000000E+00  0.82256028790E+02  0.82265832351E+02  0.12700000000E+01 0.  1.
         -4   -1    0    0    0  501 -0.00000000000E+00 -0.00000000000E+00 -0.47467072290E+02  0.47484058923E+02  0.12700000000E+01 0.  1.
         25    2    1    2    0    0  0.00000000000E+00  0.00000000000E+00  0.34788956500E+02  0.12974989127E+03  0.12499905116E+03 0.  0.
    9000005    1    3    3    0    0 -0.50891230666E+01  0.28180056107E+02 -0.40260957082E+02  0.49416185617E+02  0.10000000000E+01 0.  0.
    9000005    1    3    3    0    0  0.50891230666E+01 -0.28180056107E+02  0.75049913582E+02  0.80333705657E+02  0.10000000000E+01 0.  0.
<mgrwt>
<rscale>  0 0.12499905E+03</rscale>
<asrwt>0</asrwt>
<pdfrwt beam="1">  1        4 0.12656834E-01 0.12499905E+03</pdfrwt>
<pdfrwt beam="2">  1       -4 0.73046873E-02 0.12499905E+03</pdfrwt>
<totfact> 0.10350082E+04</totfact>
</mgrwt>
</event>
<event>
 5    1  0.3398872E-002  0.1249978E+03  0.7818608E-02  0.1235073E+00
         -4   -1    0    0    0  501 -0.00000000000E+00  0.00000000000E+00  0.34845257124E+03  0.34845488561E+03  0.12700000000E+01 0. -1.
          4   -1    0    0  501    0  0.00000000000E+00 -0.00000000000E+00 -0.11171555452E+02  0.11243511516E+02  0.12700000000E+01 0. -1.
         25    2    1    2    0    0  0.00000000000E+00  0.00000000000E+00  0.33728101579E+03  0.35969839712E+03  0.12499781311E+03 0.  0.
    9000005    1    3    3    0    0 -0.51823351345E+02  0.32844459106E+02  0.20277359318E+03  0.21185501724E+03  0.10000000000E+01 0.  0.
    9000005    1    3    3    0    0  0.51823351345E+02 -0.32844459106E+02  0.13450742260E+03  0.14784337988E+03  0.10000000000E+01 0.  0.
<mgrwt>
<rscale>  0 0.12499781E+03</rscale>
<asrwt>0</asrwt>
<pdfrwt beam="2">  1        4 0.17244141E-02 0.12499781E+03</pdfrwt>
<pdfrwt beam="1">  1       -4 0.53613796E-01 0.12499781E+03</pdfrwt>
<totfact> 0.68673952E+03</totfact>
</mgrwt>
</event>
<event>
 5    1  0.3398872E-002  0.1250081E+03  0.7818608E-02  0.1235057E+00
         -4   -1    0    0    0  501 -0.00000000000E+00  0.00000000000E+00  0.24690852378E+01  0.27765593657E+01  0.12700000000E+01 0. -1.
          4   -1    0    0  501    0  0.00000000000E+00 -0.00000000000E+00 -0.14892169701E+04  0.14892175116E+04  0.12700000000E+01 0. -1.
         25    2    1    2    0    0  0.00000000000E+00  0.00000000000E+00 -0.14867478848E+04  0.14919940710E+04  0.12500813866E+03 0.  0.
    9000005    1    3    3    0    0 -0.47308854146E+02 -0.10709928342E+02 -0.12137059447E+04  0.12146752449E+04  0.10000000000E+01 0.  0.
    9000005    1    3    3    0    0  0.47308854146E+02  0.10709928342E+02 -0.27304194007E+03  0.27731882606E+03  0.10000000000E+01 0.  0.
<mgrwt>
<rscale>  0 0.12500814E+03</rscale>
<asrwt>0</asrwt>
<pdfrwt beam="2">  1        4 0.22913332E+00 0.12500814E+03</pdfrwt>
<pdfrwt beam="1">  1       -4 0.40355397E-03 0.12500814E+03</pdfrwt>
<totfact> 0.18085266E+03</totfact>
</mgrwt>
</event>
<event>
 5    1  0.3398872E-002  0.1250004E+03  0.7818608E-02  0.1235069E+00
         -4   -1    0    0    0  501 -0.00000000000E+00  0.00000000000E+00  0.56928162216E+03  0.56928303876E+03  0.12700000000E+01 0.  1.
          4   -1    0    0  501    0  0.00000000000E+00 -0.00000000000E+00 -0.68015567746E+01  0.69191093761E+01  0.12700000000E+01 0.  1.
         25    2    1    2    0    0  0.00000000000E+00  0.00000000000E+00  0.56248006538E+03  0.57620214814E+03  0.12500036628E+03 0.  0.
    9000005    1    3    3    0    0 -0.15822269059E+02 -0.47774630453E+02  0.45201408376E+03  0.45480819192E+03  0.10000000000E+01 0.  0.
    9000005    1    3    3    0    0  0.15822269059E+02  0.47774630453E+02  0.11046598162E+03  0.12139395622E+03  0.10000000000E+01 0.  0.
<mgrwt>
<rscale>  0 0.12500037E+03</rscale>
<asrwt>0</asrwt>
<pdfrwt beam="2">  1        4 0.10555443E-02 0.12500037E+03</pdfrwt>
<pdfrwt beam="1">  1       -4 0.87590987E-01 0.12500037E+03</pdfrwt>
<totfact> 0.50404675E+03</totfact>
</mgrwt>
</event>
<event>
 5    1  0.3398872E-002  0.1250003E+03  0.7818608E-02  0.1235069E+00
          4   -1    0    0  501    0  0.00000000000E+00  0.00000000000E+00  0.25946581269E+03  0.25946892079E+03  0.12700000000E+01 0. -1.
         -4   -1    0    0    0  501 -0.00000000000E+00 -0.00000000000E+00 -0.15025049225E+02  0.15078627399E+02  0.12700000000E+01 0. -1.
         25    2    1    2    0    0  0.00000000000E+00  0.00000000000E+00  0.24444076347E+03  0.27454754819E+03  0.12500027749E+03 0.  0.
    9000005    1    3    3    0    0 -0.31449999501E+02  0.25438936398E+02  0.22684316523E+03  0.23042366104E+03  0.10000000000E+01 0.  0.
    9000005    1    3    3    0    0  0.31449999501E+02 -0.25438936398E+02  0.17597598235E+02  0.44123887151E+02  0.10000000000E+01 0.  0.
<mgrwt>
<rscale>  0 0.12500028E+03</rscale>
<asrwt>0</asrwt>
<pdfrwt beam="1">  1        4 0.39922174E-01 0.12500028E+03</pdfrwt>
<pdfrwt beam="2">  1       -4 0.23159067E-02 0.12500028E+03</pdfrwt>
<totfact> 0.78906174E+03</totfact>
</mgrwt>
</event>
<event>
 5    1  0.3398872E-002  0.1249987E+03  0.7818608E-02  0.1235071E+00
          4   -1    0    0  501    0  0.00000000000E+00  0.00000000000E+00  0.24434664104E+03  0.24434994145E+03  0.12700000000E+01 0.  1.
         -4   -1    0    0    0  501 -0.00000000000E+00 -0.00000000000E+00 -0.15957551878E+02  0.16008009306E+02  0.12700000000E+01 0.  1.
         25    2    1    2    0    0  0.00000000000E+00  0.00000000000E+00  0.22838908916E+03  0.26035795075E+03  0.12499874589E+03 0.  0.
    9000005    1    3    3    0    0  0.18930549973E+02 -0.59527487550E+02  0.11041991060E+03  0.12686782158E+03  0.10000000000E+01 0.  0.
    9000005    1    3    3    0    0 -0.18930549973E+02  0.59527487550E+02  0.11796917856E+03  0.13349012917E+03  0.10000000000E+01 0.  0.
<mgrwt>
<rscale>  0 0.12499875E+03</rscale>
<asrwt>0</asrwt>
<pdfrwt beam="1">  1        4 0.37595926E-01 0.12499875E+03</pdfrwt>
<pdfrwt beam="2">  1       -4 0.24591432E-02 0.12499875E+03</pdfrwt>
<totfact> 0.80858109E+03</totfact>
</mgrwt>
</event>
<event>
 5    1  0.3398872E-002  0.1249867E+03  0.7818608E-02  0.1235090E+00
          4   -1    0    0  501    0  0.00000000000E+00  0.00000000000E+00  0.12638064416E+02  0.12701715325E+02  0.12700000000E+01 0. -1.
         -4   -1    0    0    0  501 -0.00000000000E+00 -0.00000000000E+00 -0.30817896255E+03  0.30818157936E+03  0.12700000000E+01 0. -1.
         25    2    1    2    0    0  0.00000000000E+00  0.00000000000E+00 -0.29554089813E+03  0.32088329469E+03  0.12498666465E+03 0.  0.
    9000005    1    3    3    0    0  0.27026100790E+02  0.31090823661E+02 -0.27150062373E+02  0.49347495648E+02  0.10000000000E+01 0.  0.
    9000005    1    3    3    0    0 -0.27026100790E+02 -0.31090823661E+02 -0.26839083576E+03  0.27153579904E+03  0.10000000000E+01 0.  0.
<mgrwt>
<rscale>  0 0.12498666E+03</rscale>
<asrwt>0</asrwt>
<pdfrwt beam="1">  1        4 0.19494153E-02 0.12498666E+03</pdfrwt>
<pdfrwt beam="2">  1       -4 0.47417240E-01 0.12498666E+03</pdfrwt>
<totfact> 0.73072792E+03</totfact>
</mgrwt>
</event>
<event>
 5    1  0.3398872E-002  0.1250008E+03  0.7818608E-02  0.1235068E+00
          4   -1    0    0  501    0  0.00000000000E+00  0.00000000000E+00  0.54672134236E+03  0.54672281742E+03  0.12700000000E+01 0.  1.
         -4   -1    0    0    0  501 -0.00000000000E+00 -0.00000000000E+00 -0.70870246170E+01  0.71999179107E+01  0.12700000000E+01 0.  1.
         25    2    1    2    0    0  0.00000000000E+00  0.00000000000E+00  0.53963431774E+03  0.55392273533E+03  0.12500079934E+03 0.  0.
    9000005    1    3    3    0    0  0.50810275164E+02  0.30484627126E+02  0.18182344164E+03  0.19123744529E+03  0.10000000000E+01 0.  0.
    9000005    1    3    3    0    0 -0.50810275164E+02 -0.30484627126E+02  0.35781087610E+03  0.36268529004E+03  0.10000000000E+01 0.  0.
<mgrwt>
<rscale>  0 0.12500080E+03</rscale>
<asrwt>0</asrwt>
<pdfrwt beam="1">  1        4 0.84119777E-01 0.12500080E+03</pdfrwt>
<pdfrwt beam="2">  1       -4 0.10991090E-02 0.12500080E+03</pdfrwt>
<totfact> 0.51910689E+03</totfact>
</mgrwt>
</event>
<event>
 5    1  0.3398872E-002  0.1250110E+03  0.7818608E-02  0.1235052E+00
         -4   -1    0    0    0  501 -0.00000000000E+00  0.00000000000E+00  0.13054813710E+01  0.18213131554E+01  0.12700000000E+01 0. -1.
          4   -1    0    0  501    0  0.00000000000E+00 -0.00000000000E+00 -0.24984879029E+04  0.24984882257E+04  0.12700000000E+01 0. -1.
         25    2    1    2    0    0  0.00000000000E+00  0.00000000000E+00 -0.24971824215E+04  0.25003095388E+04  0.12501097381E+03 0.  0.
    9000005    1    3    3    0    0  0.26038342087E+02  0.40649285686E+02 -0.45469204323E+03  0.45724852527E+03  0.10000000000E+01 0.  0.
    9000005    1    3    3    0    0 -0.26038342087E+02 -0.40649285686E+02 -0.20424903783E+04  0.20430610136E+04  0.10000000000E+01 0.  0.
<mgrwt>
<rscale>  0 0.12501097E+03</rscale>
<asrwt>0</asrwt>
<pdfrwt beam="2">  1        4 0.38441926E+00 0.12501097E+03</pdfrwt>
<pdfrwt beam="1">  1       -4 0.24054948E-03 0.12501097E+03</pdfrwt>
<totfact> 0.46659426E+02</totfact>
</mgrwt>
</event>
<event>
 5    1  0.3398872E-002  0.1249944E+03  0.7818608E-02  0.1235078E+00
         -4   -1    0    0    0  501 -0.00000000000E+00  0.00000000000E+00  0.75862141393E+01  0.76917842512E+01  0.12700000000E+01 0.  1.
          4   -1    0    0  501    0  0.00000000000E+00 -0.00000000000E+00 -0.51120398224E+03  0.51120555979E+03  0.12700000000E+01 0.  1.
         25    2    1    2    0    0  0.00000000000E+00  0.00000000000E+00 -0.50361776810E+03  0.51889734404E+03  0.12499438909E+03 0.  0.
    9000005    1    3    3    0    0  0.10446068627E+02 -0.23121197853E+02 -0.14737614027E+02  0.29358259606E+02  0.10000000000E+01 0.  0.
    9000005    1    3    3    0    0 -0.10446068627E+02  0.23121197853E+02 -0.48888015407E+03  0.48953908443E+03  0.10000000000E+01 0.  0.
<mgrwt>
<rscale>  0 0.12499439E+03</rscale>
<asrwt>0</asrwt>
<pdfrwt beam="2">  1        4 0.78654982E-01 0.12499439E+03</pdfrwt>
<pdfrwt beam="1">  1       -4 0.11753524E-02 0.12499439E+03</pdfrwt>
<totfact> 0.54434130E+03</totfact>
</mgrwt>
</event>
<event>
 5    1  0.3398872E-002  0.1249980E+03  0.7818608E-02  0.1235072E+00
          4   -1    0    0  501    0  0.00000000000E+00  0.00000000000E+00  0.66025124440E+02  0.66037337601E+02  0.12700000000E+01 0.  1.
         -4   -1    0    0    0  501 -0.00000000000E+00 -0.00000000000E+00 -0.59136689367E+02  0.59150324846E+02  0.12700000000E+01 0.  1.
         25    2    1    2    0    0  0.00000000000E+00  0.00000000000E+00  0.68884350729E+01  0.12518766245E+03  0.12499800115E+03 0.  0.
    9000005    1    3    3    0    0 -0.76517380288E+01  0.21595365468E+02 -0.54783625059E+02  0.59389851651E+02  0.10000000000E+01 0.  0.
    9000005    1    3    3    0    0  0.76517380288E+01 -0.21595365468E+02  0.61672060132E+02  0.65797810795E+02  0.10000000000E+01 0.  0.
<mgrwt>
<rscale>  0 0.12499800E+03</rscale>
<asrwt>0</asrwt>
<pdfrwt beam="1">  1        4 0.10159700E-01 0.12499800E+03</pdfrwt>
<pdfrwt beam="2">  1       -4 0.90999405E-02 0.12499800E+03</pdfrwt>
<totfact> 0.10449260E+04</totfact>
</mgrwt>
</event>
<event>
 5    1  0.3398872E-002  0.1249983E+03  0.7818608E-02  0.1235072E+00
         -4   -1    0    0    0  501 -0.00000000000E+00  0.00000000000E+00  0.29845762433E+01  0.32435467242E+01  0.12700000000E+01 0. -1.
          4   -1    0    0  501    0  0.00000000000E+00 -0.00000000000E+00 -0.12540976037E+04  0.12540982467E+04  0.12700000000E+01 0. -1.
         25    2    1    2    0    0  0.00000000000E+00  0.00000000000E+00 -0.12511130274E+04  0.12573417935E+04  0.12499831259E+03 0.  0.
    9000005    1    3    3    0    0 -0.59826637772E+02  0.12846277863E+02 -0.49796693444E+03  0.50171338555E+03  0.10000000000E+01 0.  0.
    9000005    1    3    3    0    0  0.59826637772E+02 -0.12846277863E+02 -0.75314609300E+03  0.75562840791E+03  0.10000000000E+01 0.  0.
<mgrwt>
<rscale>  0 0.12499831E+03</rscale>
<asrwt>0</asrwt>
<pdfrwt beam="2">  1        4 0.19295766E+00 0.12499831E+03</pdfrwt>
<pdfrwt beam="1">  1       -4 0.47913685E-03 0.12499831E+03</pdfrwt>
<totfact> 0.23259160E+03</totfact>
</mgrwt>
</event>
<event>
 5    1  0.3398872E-002  0.1250000E+03  0.7818608E-02  0.1235069E+00
         -4   -1    0    0    0  501 -0.00000000000E+00  0.00000000000E+00  0.46636128565E+01  0.48334444111E+01  0.12700000000E+01 0. -1.
          4   -1    0    0  501    0  0.00000000000E+00 -0.00000000000E+00 -0.82245329988E+03  0.82245428042E+03  0.12700000000E+01 0. -1.
         25    2    1    2    0    0  0.00000000000E+00  0.00000000000E+00 -0.81778968702E+03  0.82728772483E+03  0.12500002983E+03 0.  0.
    9000005    1    3    3    0    0 -0.47735063192E+02  0.38312679890E+02 -0.32550579301E+03  0.33121219630E+03  0.10000000000E+01 0.  0.
    9000005    1    3    3    0    0  0.47735063192E+02 -0.38312679890E+02 -0.49228389402E+03  0.49607552853E+03  0.10000000000E+01 0.  0.
<mgrwt>
<rscale>  0 0.12500003E+03</rscale>
<asrwt>0</asrwt>
<pdfrwt beam="2">  1        4 0.12654430E+00 0.12500003E+03</pdfrwt>
<pdfrwt beam="1">  1       -4 0.73061895E-03 0.12500003E+03</pdfrwt>
<totfact> 0.37075172E+03</totfact>
</mgrwt>
</event>
<event>
 5    1  0.3398872E-002  0.1250001E+03  0.7818608E-02  0.1235069E+00
         -4   -1    0    0    0  501 -0.00000000000E+00  0.00000000000E+00  0.25403716135E+02  0.25435441680E+02  0.12700000000E+01 0. -1.
          4   -1    0    0  501    0  0.00000000000E+00 -0.00000000000E+00 -0.15363671802E+03  0.15364196700E+03  0.12700000000E+01 0. -1.
         25    2    1    2    0    0  0.00000000000E+00  0.00000000000E+00 -0.12823300189E+03  0.17907740868E+03  0.12500006211E+03 0.  0.
    9000005    1    3    3    0    0  0.44527657290E+02  0.26004093333E+02 -0.11469278048E+03  0.12575515508E+03  0.10000000000E+01 0.  0.
    9000005    1    3    3    0    0 -0.44527657290E+02 -0.26004093333E+02 -0.13540221404E+02  0.53322253605E+02  0.10000000000E+01 0.  0.
<mgrwt>
<rscale>  0 0.12500006E+03</rscale>
<asrwt>0</asrwt>
<pdfrwt beam="2">  1        4 0.23639262E-01 0.12500006E+03</pdfrwt>
<pdfrwt beam="1">  1       -4 0.39111083E-02 0.12500006E+03</pdfrwt>
<totfact> 0.93783206E+03</totfact>
</mgrwt>
</event>
<event>
 5    1  0.3398872E-002  0.1249998E+03  0.7818608E-02  0.1235070E+00
          4   -1    0    0  501    0  0.00000000000E+00  0.00000000000E+00  0.20826877866E+02  0.20865563536E+02  0.12700000000E+01 0.  1.
         -4   -1    0    0    0  501 -0.00000000000E+00 -0.00000000000E+00 -0.18734264523E+03  0.18734694986E+03  0.12700000000E+01 0.  1.
         25    2    1    2    0    0  0.00000000000E+00  0.00000000000E+00 -0.16651576736E+03  0.20821251340E+03  0.12499979982E+03 0.  0.
    9000005    1    3    3    0    0 -0.16723966803E+02 -0.56748182086E+02 -0.49728389336E+02  0.77291396298E+02  0.10000000000E+01 0.  0.
    9000005    1    3    3    0    0  0.16723966803E+02  0.56748182086E+02 -0.11678737803E+03  0.13092111710E+03  0.10000000000E+01 0.  0.
<mgrwt>
<rscale>  0 0.12499980E+03</rscale>
<asrwt>0</asrwt>
<pdfrwt beam="1">  1        4 0.32074421E-02 0.12499980E+03</pdfrwt>
<pdfrwt beam="2">  1       -4 0.28825251E-01 0.12499980E+03</pdfrwt>
<totfact> 0.88769033E+03</totfact>
</mgrwt>
</event>
<event>
 5    1  0.3398872E-002  0.1250060E+03  0.7818608E-02  0.1235060E+00
         -4   -1    0    0    0  501 -0.00000000000E+00  0.00000000000E+00  0.82568545556E+01  0.83539539831E+01  0.12700000000E+01 0. -1.
          4   -1    0    0  501    0  0.00000000000E+00 -0.00000000000E+00 -0.47027342998E+03  0.47027514483E+03  0.12700000000E+01 0. -1.
         25    2    1    2    0    0  0.00000000000E+00  0.00000000000E+00 -0.46201657542E+03  0.47862909881E+03  0.12500599291E+03 0.  0.
    9000005    1    3    3    0    0 -0.52631180044E+02 -0.30808479150E+02 -0.28328590169E+03  0.28977768305E+03  0.10000000000E+01 0.  0.
    9000005    1    3    3    0    0  0.52631180044E+02  0.30808479150E+02 -0.17873067373E+03  0.18885141576E+03  0.10000000000E+01 0.  0.
<mgrwt>
<rscale>  0 0.12500599E+03</rscale>
<asrwt>0</asrwt>
<pdfrwt beam="2">  1        4 0.72357339E-01 0.12500599E+03</pdfrwt>
<pdfrwt beam="1">  1       -4 0.12778868E-02 0.12500599E+03</pdfrwt>
<totfact> 0.57553886E+03</totfact>
</mgrwt>
</event>
<event>
 5    1  0.3398872E-002  0.1249961E+03  0.7818608E-02  0.1235075E+00
          4   -1    0    0  501    0  0.00000000000E+00  0.00000000000E+00  0.34569774260E+03  0.34570007541E+03  0.12700000000E+01 0.  1.
         -4   -1    0    0    0  501 -0.00000000000E+00 -0.00000000000E+00 -0.11260842187E+02  0.11332231323E+02  0.12700000000E+01 0.  1.
         25    2    1    2    0    0  0.00000000000E+00  0.00000000000E+00  0.33443690041E+03  0.35703230673E+03  0.12499611071E+03 0.  0.
    9000005    1    3    3    0    0 -0.76840865608E+01  0.48080881358E+02  0.27909799029E+03  0.28331520348E+03  0.10000000000E+01 0.  0.
    9000005    1    3    3    0    0  0.76840865608E+01 -0.48080881358E+02  0.55338910122E+02  0.73717103253E+02  0.10000000000E+01 0.  0.
<mgrwt>
<rscale>  0 0.12499611E+03</rscale>
<asrwt>0</asrwt>
<pdfrwt beam="1">  1        4 0.53189948E-01 0.12499611E+03</pdfrwt>
<pdfrwt beam="2">  1       -4 0.17381079E-02 0.12499611E+03</pdfrwt>
<totfact> 0.68963708E+03</totfact>
</mgrwt>
</event>
<event>
 5    1  0.3398872E-002  0.1249996E+03  0.7818608E-02  0.1235070E+00
          4   -1    0    0  501    0  0.00000000000E+00  0.00000000000E+00  0.14806675275E+03  0.14807219918E+03  0.12700000000E+01 0.  1.
         -4   -1    0    0    0  501 -0.00000000000E+00 -0.00000000000E+00 -0.26360301114E+02  0.26390876734E+02  0.12700000000E+01 0.  1.
         25    2    1    2    0    0  0.00000000000E+00  0.00000000000E+00  0.12170645164E+03  0.17446307591E+03  0.12499961795E+03 0.  0.
    9000005    1    3    3    0    0  0.32226368186E+02 -0.67891321340E+01 -0.13271859354E+02  0.35521449468E+02  0.10000000000E+01 0.  0.
    9000005    1    3    3    0    0 -0.32226368186E+02  0.67891321340E+01  0.13497831099E+03  0.13894162645E+03  0.10000000000E+01 0.  0.
<mgrwt>
<rscale>  0 0.12499962E+03</rscale>
<asrwt>0</asrwt>
<pdfrwt beam="1">  1        4 0.22782272E-01 0.12499962E+03</pdfrwt>
<pdfrwt beam="2">  1       -4 0.40582017E-02 0.12499962E+03</pdfrwt>
<totfact> 0.94624079E+03</totfact>
</mgrwt>
</event>
<event>
 5    1  0.3398872E-002  0.1249995E+03  0.7818608E-02  0.1235070E+00
         -4   -1    0    0    0  501 -0.00000000000E+00  0.00000000000E+00  0.87273730244E+02  0.87282970222E+02  0.12700000000E+01 0.  1.
          4   -1    0    0  501    0  0.00000000000E+00 -0.00000000000E+00 -0.44737633567E+02  0.44755656147E+02  0.12700000000E+01 0.  1.
         25    2    1    2    0    0  0.00000000000E+00  0.00000000000E+00  0.42536096677E+02  0.13203862637E+03  0.12499951733E+03 0.  0.
    9000005    1    3    3    0    0 -0.19036076220E+01  0.27820810413E+02 -0.37806195042E+02  0.46988611361E+02  0.10000000000E+01 0.  0.
    9000005    1    3    3    0    0  0.19036076220E+01 -0.27820810413E+02  0.80342291720E+02  0.85050015008E+02  0.10000000000E+01 0.  0.
<mgrwt>
<rscale>  0 0.12499952E+03</rscale>
<asrwt>0</asrwt>
<pdfrwt beam="2">  1        4 0.68848100E-02 0.12499952E+03</pdfrwt>
<pdfrwt beam="1">  1       -4 0.13428825E-01 0.12499952E+03</pdfrwt>
<totfact> 0.10300986E+04</totfact>
</mgrwt>
</event>
<event>
 5    1  0.3398872E-002  0.1250002E+03  0.7818608E-02  0.1235069E+00
         -4   -1    0    0    0  501 -0.00000000000E+00  0.00000000000E+00  0.64512597129E+01  0.65750780896E+01  0.12700000000E+01 0.  1.
          4   -1    0    0  501    0  0.00000000000E+00 -0.00000000000E+00 -0.59962352940E+03  0.59962487433E+03  0.12700000000E+01 0.  1.
         25    2    1    2    0    0  0.00000000000E+00  0.00000000000E+00 -0.59317226969E+03  0.60619995242E+03  0.12500016313E+03 0.  0.
    9000005    1    3    3    0    0 -0.54568324451E+02 -0.28631981931E+01 -0.14954183922E+03  0.15921577062E+03  0.10000000000E+01 0.  0.
    9000005    1    3    3    0    0  0.54568324451E+02  0.28631981931E+01 -0.44363043047E+03  0.44698418180E+03  0.10000000000E+01 0.  0.
<mgrwt>
<rscale>  0 0.12500016E+03</rscale>
<asrwt>0</asrwt>
<pdfrwt beam="2">  1        4 0.92259358E-01 0.12500016E+03</pdfrwt>
<pdfrwt beam="1">  1       -4 0.10021299E-02 0.12500016E+03</pdfrwt>
<totfact> 0.48478419E+03</totfact>
</mgrwt>
</event>
<event>
 4    1  0.3398872E-002  0.1236011E+03  0.7818608E-02  0.1237272E+00
          4   -1    0    0  501    0  0.00000000000E+00  0.00000000000E+00  0.60077332136E+02  0.60090754169E+02  0.12700000000E+01 0. -1.
         -4   -1    0    0    0  501 -0.00000000000E+00 -0.00000000000E+00 -0.63546370410E+02  0.63559059876E+02  0.12700000000E+01 0. -1.
    9000005    1    1    2    0    0 -0.57452568647E+02 -0.22667807148E+02 -0.36545056378E+01  0.61878772907E+02  0.10000000000E+01 0.  0.
    9000005    1    1    2    0    0  0.57452568647E+02  0.22667807148E+02  0.18546736335E+00  0.61771041137E+02  0.10000000000E+01 0.  0.
<mgrwt>
<rscale>  0 0.12360114E+03</rscale>
<asrwt>0</asrwt>
<pdfrwt beam="1">  1        4 0.92446751E-02 0.12360114E+03</pdfrwt>
<pdfrwt beam="2">  1       -4 0.97783732E-02 0.12360114E+03</pdfrwt>
<totfact> 0.10820720E+04</totfact>
</mgrwt>
</event>
<event>
 5    1  0.3398872E-002  0.1250041E+03  0.7818608E-02  0.1235063E+00
         -4   -1    0    0    0  501 -0.00000000000E+00  0.00000000000E+00  0.23299203527E+02  0.23333790626E+02  0.12700000000E+01 0.  1.
          4   -1    0    0  501    0  0.00000000000E+00 -0.00000000000E+00 -0.16750561630E+03  0.16751043070E+03  0.12700000000E+01 0.  1.
         25    2    1    2    0    0  0.00000000000E+00  0.00000000000E+00 -0.14420641278E+03  0.19084422132E+03  0.12500410924E+03 0.  0.
    9000005    1    3    3    0    0 -0.16546402649E+02 -0.48248433818E+01 -0.16381279095E+03  0.16472004441E+03  0.10000000000E+01 0.  0.
    9000005    1    3    3    0    0  0.16546402649E+02  0.48248433818E+01  0.19606378170E+02  0.26124176910E+02  0.10000000000E+01 0.  0.
<mgrwt>
<rscale>  0 0.12500411E+03</rscale>
<asrwt>0</asrwt>
<pdfrwt beam="2">  1        4 0.25773125E-01 0.12500411E+03</pdfrwt>
<pdfrwt beam="1">  1       -4 0.35875238E-02 0.12500411E+03</pdfrwt>
<totfact> 0.91692191E+03</totfact>
</mgrwt>
</event>
<event>
 5    1  0.3398872E-002  0.1249960E+03  0.7818608E-02  0.1235075E+00
          4   -1    0    0  501    0  0.00000000000E+00  0.00000000000E+00  0.27836621200E+01  0.30596854084E+01  0.12700000000E+01 0. -1.
         -4   -1    0    0    0  501 -0.00000000000E+00 -0.00000000000E+00 -0.13366296031E+04  0.13366302064E+04  0.12700000000E+01 0. -1.
         25    2    1    2    0    0  0.00000000000E+00  0.00000000000E+00 -0.13338459409E+04  0.13396898918E+04  0.12499604820E+03 0.  0.
    9000005    1    3    3    0    0  0.11480686532E+02 -0.53381483011E+02 -0.34119632946E+03  0.34553917886E+03  0.10000000000E+01 0.  0.
    9000005    1    3    3    0    0 -0.11480686532E+02  0.53381483011E+02 -0.99264961148E+03  0.99415071295E+03  0.10000000000E+01 0.  0.
<mgrwt>
<rscale>  0 0.12499605E+03</rscale>
<asrwt>0</asrwt>
<pdfrwt beam="1">  1        4 0.44953575E-03 0.12499605E+03</pdfrwt>
<pdfrwt beam="2">  1       -4 0.20565611E+00 0.12499605E+03</pdfrwt>
<totfact> 0.21312599E+03</totfact>
</mgrwt>
</event>
<event>
 5    1  0.3398872E-002  0.1249990E+03  0.7818608E-02  0.1235071E+00
         -4   -1    0    0    0  501 -0.00000000000E+00  0.00000000000E+00  0.73960788059E+02  0.73971691007E+02  0.12700000000E+01 0.  1.
          4   -1    0    0  501    0  0.00000000000E+00 -0.00000000000E+00 -0.52791866946E+02  0.52807140764E+02  0.12700000000E+01 0.  1.
         25    2    1    2    0    0  0.00000000000E+00  0.00000000000E+00  0.21168921113E+02  0.12677883177E+03  0.12499899585E+03 0.  0.
    9000005    1    3    3    0    0  0.16897437649E+01 -0.55886499521E+02  0.38893011610E+02  0.68116241931E+02  0.10000000000E+01 0.  0.
    9000005    1    3    3    0    0 -0.16897437649E+01  0.55886499521E+02 -0.17724090497E+02  0.58662589839E+02  0.10000000000E+01 0.  0.
<mgrwt>
<rscale>  0 0.12499900E+03</rscale>
<asrwt>0</asrwt>
<pdfrwt beam="2">  1        4 0.81238393E-02 0.12499900E+03</pdfrwt>
<pdfrwt beam="1">  1       -4 0.11380596E-01 0.12499900E+03</pdfrwt>
<totfact> 0.10414190E+04</totfact>
</mgrwt>
</event>
<event>
 5    1  0.3398872E-002  0.1250030E+03  0.7818608E-02  0.1235065E+00
         -4   -1    0    0    0  501 -0.00000000000E+00  0.00000000000E+00  0.85893158605E+03  0.85893252495E+03  0.12700000000E+01 0. -1.
          4   -1    0    0  501    0  0.00000000000E+00 -0.00000000000E+00 -0.44584003739E+01  0.46357560219E+01  0.12700000000E+01 0. -1.
         25    2    1    2    0    0  0.00000000000E+00  0.00000000000E+00  0.85447318568E+03  0.86356828097E+03  0.12500300340E+03 0.  0.
    9000005    1    3    3    0    0 -0.23211687389E+02  0.30072528428E+02  0.84432049952E+02  0.92590012726E+02  0.10000000000E+01 0.  0.
    9000005    1    3    3    0    0  0.23211687389E+02 -0.30072528428E+02  0.77004113572E+03  0.77097826824E+03  0.10000000000E+01 0.  0.
<mgrwt>
<rscale>  0 0.12500300E+03</rscale>
<asrwt>0</asrwt>
<pdfrwt beam="2">  1        4 0.69962274E-03 0.12500300E+03</pdfrwt>
<pdfrwt beam="1">  1       -4 0.13215703E+00 0.12500300E+03</pdfrwt>
<totfact> 0.35576109E+03</totfact>
</mgrwt>
</event>
<event>
 5    1  0.3398872E-002  0.1250027E+03  0.7818608E-02  0.1235065E+00
         -4   -1    0    0    0  501 -0.00000000000E+00  0.00000000000E+00  0.12281276531E+02  0.12346766914E+02  0.12700000000E+01 0. -1.
          4   -1    0    0  501    0  0.00000000000E+00 -0.00000000000E+00 -0.31716638689E+03  0.31716892955E+03  0.12700000000E+01 0. -1.
         25    2    1    2    0    0  0.00000000000E+00  0.00000000000E+00 -0.30488511036E+03  0.32951569646E+03  0.12500265476E+03 0.  0.
    9000005    1    3    3    0    0 -0.32030277709E+02  0.27203145540E+02 -0.30512835328E+02  0.51942111405E+02  0.10000000000E+01 0.  0.
    9000005    1    3    3    0    0  0.32030277709E+02 -0.27203145540E+02 -0.27437227503E+03  0.27757358506E+03  0.10000000000E+01 0.  0.
<mgrwt>
<rscale>  0 0.12500265E+03</rscale>
<asrwt>0</asrwt>
<pdfrwt beam="2">  1        4 0.48800056E-01 0.12500265E+03</pdfrwt>
<pdfrwt beam="1">  1       -4 0.18946607E-02 0.12500265E+03</pdfrwt>
<totfact> 0.72034238E+03</totfact>
</mgrwt>
</event>
<event>
 5    1  0.3398872E-002  0.1249984E+03  0.7818608E-02  0.1235072E+00
          4   -1    0    0  501    0  0.00000000000E+00  0.00000000000E+00  0.46347055529E+03  0.46347229531E+03  0.12700000000E+01 0. -1.
         -4   -1    0    0    0  501 -0.00000000000E+00 -0.00000000000E+00 -0.83784324183E+01  0.84741388818E+01  0.12700000000E+01 0. -1.
         25    2    1    2    0    0  0.00000000000E+00  0.00000000000E+00  0.45509212287E+03  0.47194643419E+03  0.12499838578E+03 0.  0.
    9000005    1    3    3    0    0 -0.49202971270E+02 -0.14309443903E+02  0.36259807841E+03  0.36620221058E+03  0.10000000000E+01 0.  0.
    9000005    1    3    3    0    0  0.49202971270E+02  0.14309443903E+02  0.92494044457E+02  0.10574422361E+03  0.10000000000E+01 0.  0.
<mgrwt>
<rscale>  0 0.12499839E+03</rscale>
<asrwt>0</asrwt>
<pdfrwt beam="1">  1        4 0.71310640E-01 0.12499839E+03</pdfrwt>
<pdfrwt beam="2">  1       -4 0.12964858E-02 0.12499839E+03</pdfrwt>
<totfact> 0.58110700E+03</totfact>
</mgrwt>
</event>
<event>
 5    1  0.3398872E-002  0.1249979E+03  0.7818608E-02  0.1235073E+00
          4   -1    0    0  501    0  0.00000000000E+00  0.00000000000E+00  0.68265395959E+03  0.68265514093E+03  0.12700000000E+01 0.  1.
         -4   -1    0    0    0  501 -0.00000000000E+00 -0.00000000000E+00 -0.56502924395E+01  0.57912610589E+01  0.12700000000E+01 0.  1.
         25    2    1    2    0    0  0.00000000000E+00  0.00000000000E+00  0.67700366715E+03  0.68844640199E+03  0.12499793231E+03 0.  0.
    9000005    1    3    3    0    0  0.35139262743E+02 -0.15705717120E+02  0.60964911389E+03  0.61086371590E+03  0.10000000000E+01 0.  0.
    9000005    1    3    3    0    0 -0.35139262743E+02  0.15705717120E+02  0.67354553254E+02  0.77582686087E+02  0.10000000000E+01 0.  0.
<mgrwt>
<rscale>  0 0.12499793E+03</rscale>
<asrwt>0</asrwt>
<pdfrwt beam="1">  1        4 0.10503458E+00 0.12499793E+03</pdfrwt>
<pdfrwt beam="2">  1       -4 0.88021070E-03 0.12499793E+03</pdfrwt>
<totfact> 0.43705639E+03</totfact>
</mgrwt>
</event>
<event>
 5    1  0.3398872E-002  0.1249965E+03  0.7818608E-02  0.1235075E+00
          4   -1    0    0  501    0  0.00000000000E+00  0.00000000000E+00  0.40729173163E+02  0.40748968657E+02  0.12700000000E+01 0. -1.
         -4   -1    0    0    0  501 -0.00000000000E+00 -0.00000000000E+00 -0.95855261036E+02  0.95863673872E+02  0.12700000000E+01 0. -1.
         25    2    1    2    0    0  0.00000000000E+00  0.00000000000E+00 -0.55126087873E+02  0.13661264253E+03  0.12499651409E+03 0.  0.
    9000005    1    3    3    0    0  0.90449397888E+01  0.51320212980E+02 -0.65256620921E+02  0.83516476039E+02  0.10000000000E+01 0.  0.
    9000005    1    3    3    0    0 -0.90449397888E+01 -0.51320212980E+02  0.10130533048E+02  0.53096166490E+02  0.10000000000E+01 0.  0.
<mgrwt>
<rscale>  0 0.12499651E+03</rscale>
<asrwt>0</asrwt>
<pdfrwt beam="1">  1        4 0.62681965E-02 0.12499651E+03</pdfrwt>
<pdfrwt beam="2">  1       -4 0.14749133E-01 0.12499651E+03</pdfrwt>
<totfact> 0.10204993E+04</totfact>
</mgrwt>
</event>
<event>
 5    1  0.3398872E-002  0.1250164E+03  0.7818608E-02  0.1235044E+00
          4   -1    0    0  501    0  0.00000000000E+00  0.00000000000E+00  0.14016708497E+02  0.14074125802E+02  0.12700000000E+01 0.  1.
         -4   -1    0    0    0  501 -0.00000000000E+00 -0.00000000000E+00 -0.27812974198E+03  0.27813264151E+03  0.12700000000E+01 0.  1.
         25    2    1    2    0    0  0.00000000000E+00  0.00000000000E+00 -0.26411303348E+03  0.29220676731E+03  0.12501640056E+03 0.  0.
    9000005    1    3    3    0    0 -0.27634179109E+02  0.21162509403E+02 -0.10721942781E+02  0.36434320582E+02  0.10000000000E+01 0.  0.
    9000005    1    3    3    0    0  0.27634179109E+02 -0.21162509403E+02 -0.25339109070E+03  0.25577244673E+03  0.10000000000E+01 0.  0.
<mgrwt>
<rscale>  0 0.12501640E+03</rscale>
<asrwt>0</asrwt>
<pdfrwt beam="1">  1        4 0.21610567E-02 0.12501640E+03</pdfrwt>
<pdfrwt beam="2">  1       -4 0.42793826E-01 0.12501640E+03</pdfrwt>
<totfact> 0.76559034E+03</totfact>
</mgrwt>
</event>
<event>
 5    1  0.3398872E-002  0.1250025E+03  0.7818608E-02  0.1235065E+00
         -4   -1    0    0    0  501 -0.00000000000E+00  0.00000000000E+00  0.56089372338E+02  0.56103748443E+02  0.12700000000E+01 0.  1.
          4   -1    0    0  501    0  0.00000000000E+00 -0.00000000000E+00 -0.69617021597E+02  0.69628604725E+02  0.12700000000E+01 0.  1.
         25    2    1    2    0    0  0.00000000000E+00  0.00000000000E+00 -0.13527649258E+02  0.12573235317E+03  0.12500250933E+03 0.  0.
    9000005    1    3    3    0    0  0.21929470002E+01  0.55137897765E+02  0.22740185558E+02  0.59691815400E+02  0.10000000000E+01 0.  0.
    9000005    1    3    3    0    0 -0.21929470002E+01 -0.55137897765E+02 -0.36267834817E+02  0.66040537768E+02  0.10000000000E+01 0.  0.
<mgrwt>
<rscale>  0 0.12500251E+03</rscale>
<asrwt>0</asrwt>
<pdfrwt beam="2">  1        4 0.10712308E-01 0.12500251E+03</pdfrwt>
<pdfrwt beam="1">  1       -4 0.86311311E-02 0.12500251E+03</pdfrwt>
<totfact> 0.10436242E+04</totfact>
</mgrwt>
</event>
<event>
 5    1  0.3398872E-002  0.1250013E+03  0.7818608E-02  0.1235067E+00
          4   -1    0    0  501    0  0.00000000000E+00  0.00000000000E+00  0.11802035557E+03  0.11802718851E+03  0.12700000000E+01 0.  1.
         -4   -1    0    0    0  501 -0.00000000000E+00 -0.00000000000E+00 -0.33078826287E+02  0.33103196953E+02  0.12700000000E+01 0.  1.
         25    2    1    2    0    0  0.00000000000E+00  0.00000000000E+00  0.84941529279E+02  0.15113038546E+03  0.12500132005E+03 0.  0.
    9000005    1    3    3    0    0  0.60077410839E+02 -0.15162058104E+02  0.52304069504E+02  0.81091916895E+02  0.10000000000E+01 0.  0.
    9000005    1    3    3    0    0 -0.60077410839E+02  0.15162058104E+02  0.32637459775E+02  0.70038468570E+02  0.10000000000E+01 0.  0.
<mgrwt>
<rscale>  0 0.12500132E+03</rscale>
<asrwt>0</asrwt>
<pdfrwt beam="1">  1        4 0.18159378E-01 0.12500132E+03</pdfrwt>
<pdfrwt beam="2">  1       -4 0.50914505E-02 0.12500132E+03</pdfrwt>
<totfact> 0.99075905E+03</totfact>
</mgrwt>
</event>
<event>
 5    1  0.3398872E-002  0.1249980E+03  0.7818608E-02  0.1235072E+00
          4   -1    0    0  501    0  0.00000000000E+00  0.00000000000E+00  0.46427159140E+03  0.46427332842E+03  0.12700000000E+01 0. -1.
         -4   -1    0    0    0  501 -0.00000000000E+00 -0.00000000000E+00 -0.83637544986E+01  0.84596270198E+01  0.12700000000E+01 0. -1.
         25    2    1    2    0    0  0.00000000000E+00  0.00000000000E+00  0.45590783690E+03  0.47273295544E+03  0.12499796562E+03 0.  0.
    9000005    1    3    3    0    0 -0.26760532388E+02  0.20396625627E+02  0.28801370945E+02  0.44302002200E+02  0.10000000000E+01 0.  0.
    9000005    1    3    3    0    0  0.26760532388E+02 -0.20396625627E+02  0.42710646596E+03  0.42843095324E+03  0.10000000000E+01 0.  0.
<mgrwt>
<rscale>  0 0.12499797E+03</rscale>
<asrwt>0</asrwt>
<pdfrwt beam="1">  1        4 0.71433915E-01 0.12499797E+03</pdfrwt>
<pdfrwt beam="2">  1       -4 0.12942397E-02 0.12499797E+03</pdfrwt>
<totfact> 0.58046402E+03</totfact>
</mgrwt>
</event>
<event>
 5    1  0.3398872E-002  0.1250003E+03  0.7818608E-02  0.1235069E+00
          4   -1    0    0  501    0  0.00000000000E+00  0.00000000000E+00  0.41768289090E+02  0.41787592339E+02  0.12700000000E+01 0. -1.
         -4   -1    0    0    0  501 -0.00000000000E+00 -0.00000000000E+00 -0.93477110135E+02  0.93485736983E+02  0.12700000000E+01 0. -1.
         25    2    1    2    0    0  0.00000000000E+00  0.00000000000E+00 -0.51708821046E+02  0.13527332932E+03  0.12500028581E+03 0.  0.
    9000005    1    3    3    0    0 -0.19460823264E+02  0.14464275443E+02 -0.88184168817E+02  0.91462487043E+02  0.10000000000E+01 0.  0.
    9000005    1    3    3    0    0  0.19460823264E+02 -0.14464275443E+02  0.36475347771E+02  0.43810842279E+02  0.10000000000E+01 0.  0.
<mgrwt>
<rscale>  0 0.12500029E+03</rscale>
<asrwt>0</asrwt>
<pdfrwt beam="1">  1        4 0.64280391E-02 0.12500029E+03</pdfrwt>
<pdfrwt beam="2">  1       -4 0.14383242E-01 0.12500029E+03</pdfrwt>
<totfact> 0.10232247E+04</totfact>
</mgrwt>
</event>
<event>
 5    1  0.3398872E-002  0.1250006E+03  0.7818608E-02  0.1235068E+00
         -4   -1    0    0    0  501 -0.00000000000E+00  0.00000000000E+00  0.69338505659E+02  0.69350135306E+02  0.12700000000E+01 0. -1.
          4   -1    0    0  501    0  0.00000000000E+00 -0.00000000000E+00 -0.56312957596E+02  0.56327276636E+02  0.12700000000E+01 0. -1.
         25    2    1    2    0    0  0.00000000000E+00  0.00000000000E+00  0.13025548063E+02  0.12567741194E+03  0.12500058788E+03 0.  0.
    9000005    1    3    3    0    0  0.58520006860E+02 -0.20228022560E+02 -0.19901236013E+01  0.61957442583E+02  0.10000000000E+01 0.  0.
    9000005    1    3    3    0    0 -0.58520006860E+02  0.20228022560E+02  0.15015671664E+02  0.63719969359E+02  0.10000000000E+01 0.  0.
<mgrwt>
<rscale>  0 0.12500059E+03</rscale>
<asrwt>0</asrwt>
<pdfrwt beam="2">  1        4 0.86655280E-02 0.12500059E+03</pdfrwt>
<pdfrwt beam="1">  1       -4 0.10669458E-01 0.12500059E+03</pdfrwt>
<totfact> 0.10437903E+04</totfact>
</mgrwt>
</event>
<event>
 5    1  0.3398872E-002  0.1250006E+03  0.7818608E-02  0.1235068E+00
         -4   -1    0    0    0  501 -0.00000000000E+00  0.00000000000E+00  0.92272092794E+01  0.93141983598E+01  0.12700000000E+01 0. -1.
          4   -1    0    0  501    0  0.00000000000E+00 -0.00000000000E+00 -0.42127003953E+03  0.42127195385E+03  0.12700000000E+01 0. -1.
         25    2    1    2    0    0  0.00000000000E+00  0.00000000000E+00 -0.41204283025E+03  0.43058615221E+03  0.12500056207E+03 0.  0.
    9000005    1    3    3    0    0  0.57340677165E+02  0.24333416834E+02 -0.18872356242E+03  0.19874016062E+03  0.10000000000E+01 0.  0.
    9000005    1    3    3    0    0 -0.57340677165E+02 -0.24333416834E+02 -0.22331926783E+03  0.23184599159E+03  0.10000000000E+01 0.  0.
<mgrwt>
<rscale>  0 0.12500056E+03</rscale>
<asrwt>0</asrwt>
<pdfrwt beam="2">  1        4 0.64817599E-01 0.12500056E+03</pdfrwt>
<pdfrwt beam="1">  1       -4 0.14264097E-02 0.12500056E+03</pdfrwt>
<totfact> 0.61682138E+03</totfact>
</mgrwt>
</event>
<event>
 5    1  0.3398872E-002  0.1250013E+03  0.7818608E-02  0.1235067E+00
         -4   -1    0    0    0  501 -0.00000000000E+00  0.00000000000E+00  0.32259005267E+03  0.32259255258E+03  0.12700000000E+01 0. -1.
          4   -1    0    0  501    0  0.00000000000E+00 -0.00000000000E+00 -0.12073417510E+02  0.12140029257E+02  0.12700000000E+01 0. -1.
         25    2    1    2    0    0  0.00000000000E+00  0.00000000000E+00  0.31051663516E+03  0.33473258184E+03  0.12500128253E+03 0.  0.
    9000005    1    3    3    0    0  0.33129251061E+02 -0.52137164274E+02  0.12992497063E+03  0.14386566362E+03  0.10000000000E+01 0.  0.
    9000005    1    3    3    0    0 -0.33129251061E+02  0.52137164274E+02  0.18059166453E+03  0.19086691822E+03  0.10000000000E+01 0.  0.
<mgrwt>
<rscale>  0 0.12500128E+03</rscale>
<asrwt>0</asrwt>
<pdfrwt beam="2">  1        4 0.18627654E-02 0.12500128E+03</pdfrwt>
<pdfrwt beam="1">  1       -4 0.49634549E-01 0.12500128E+03</pdfrwt>
<totfact> 0.71435448E+03</totfact>
</mgrwt>
</event>
<event>
 5    1  0.3398872E-002  0.1249999E+03  0.7818608E-02  0.1235069E+00
          4   -1    0    0  501    0  0.00000000000E+00  0.00000000000E+00  0.41464234864E+03  0.41464429356E+03  0.12700000000E+01 0.  1.
         -4   -1    0    0    0  501 -0.00000000000E+00 -0.00000000000E+00 -0.93759721498E+01  0.94615936159E+01  0.12700000000E+01 0.  1.
         25    2    1    2    0    0  0.00000000000E+00  0.00000000000E+00  0.40526637649E+03  0.42410588718E+03  0.12499987051E+03 0.  0.
    9000005    1    3    3    0    0  0.19381470301E+02  0.52510102484E+02  0.29692084574E+03  0.30215218167E+03  0.10000000000E+01 0.  0.
    9000005    1    3    3    0    0 -0.19381470301E+02 -0.52510102484E+02  0.10834553075E+03  0.12195370551E+03  0.10000000000E+01 0.  0.
<mgrwt>
<rscale>  0 0.12499987E+03</rscale>
<asrwt>0</asrwt>
<pdfrwt beam="1">  1        4 0.63797877E-01 0.12499987E+03</pdfrwt>
<pdfrwt beam="2">  1       -4 0.14491929E-02 0.12499987E+03</pdfrwt>
<totfact> 0.62274084E+03</totfact>
</mgrwt>
</event>
<event>
 4    1  0.3398872E-002  0.1249306E+03  0.7818608E-02  0.1235178E+00
          4   -1    0    0  501    0  0.00000000000E+00  0.00000000000E+00  0.38974995425E+03  0.38975202339E+03  0.12700000000E+01 0. -1.
         -4   -1    0    0    0  501 -0.00000000000E+00 -0.00000000000E+00 -0.99689418761E+01  0.10049512532E+02  0.12700000000E+01 0. -1.
    9000005    1    1    2    0    0 -0.26640048499E+02 -0.38278076634E+02  0.32284323689E+03  0.32619573715E+03  0.10000000000E+01 0.  0.
    9000005    1    1    2    0    0  0.26640048499E+02  0.38278076634E+02  0.56937775486E+02  0.73605798767E+02  0.10000000000E+01 0.  0.
<mgrwt>
<rscale>  0 0.12493058E+03</rscale>
<asrwt>0</asrwt>
<pdfrwt beam="1">  1        4 0.59967887E-01 0.12493058E+03</pdfrwt>
<pdfrwt beam="2">  1       -4 0.15400403E-02 0.12493058E+03</pdfrwt>
<totfact> 0.64671153E+03</totfact>
</mgrwt>
</event>
<event>
 5    1  0.3398872E-002  0.1249995E+03  0.7818608E-02  0.1235070E+00
         -4   -1    0    0    0  501 -0.00000000000E+00  0.00000000000E+00  0.85285760909E+01  0.86226162003E+01  0.12700000000E+01 0.  1.
          4   -1    0    0  501    0  0.00000000000E+00 -0.00000000000E+00 -0.45540905441E+03  0.45541082524E+03  0.12700000000E+01 0.  1.
         25    2    1    2    0    0  0.00000000000E+00  0.00000000000E+00 -0.44688047832E+03  0.46403344144E+03  0.12499949146E+03 0.  0.
    9000005    1    3    3    0    0  0.49869044246E+02 -0.21818326659E+02 -0.10948723452E+03  0.12227598078E+03  0.10000000000E+01 0.  0.
    9000005    1    3    3    0    0 -0.49869044246E+02  0.21818326659E+02 -0.33739324380E+03  0.34175746066E+03  0.10000000000E+01 0.  0.
<mgrwt>
<rscale>  0 0.12499949E+03</rscale>
<asrwt>0</asrwt>
<pdfrwt beam="2">  1        4 0.70070283E-01 0.12499949E+03</pdfrwt>
<pdfrwt beam="1">  1       -4 0.13194591E-02 0.12499949E+03</pdfrwt>
<totfact> 0.58767735E+03</totfact>
</mgrwt>
</event>
<event>
 5    1  0.3398872E-002  0.1249971E+03  0.7818608E-02  0.1235074E+00
         -4   -1    0    0    0  501 -0.00000000000E+00  0.00000000000E+00  0.62444093235E+01  0.63722482531E+01  0.12700000000E+01 0.  1.
          4   -1    0    0  501    0  0.00000000000E+00 -0.00000000000E+00 -0.61906394374E+03  0.61906524643E+03  0.12700000000E+01 0.  1.
         25    2    1    2    0    0  0.00000000000E+00  0.00000000000E+00 -0.61281953441E+03  0.62543749468E+03  0.12499711194E+03 0.  0.
    9000005    1    3    3    0    0  0.26224031905E+02  0.49502558300E+02 -0.44497165171E+03  0.44848519926E+03  0.10000000000E+01 0.  0.
    9000005    1    3    3    0    0 -0.26224031905E+02 -0.49502558300E+02 -0.16784788270E+03  0.17695229542E+03  0.10000000000E+01 0.  0.
<mgrwt>
<rscale>  0 0.12499711E+03</rscale>
<asrwt>0</asrwt>
<pdfrwt beam="2">  1        4 0.95250493E-01 0.12499711E+03</pdfrwt>
<pdfrwt beam="1">  1       -4 0.97061282E-03 0.12499711E+03</pdfrwt>
<totfact> 0.47303319E+03</totfact>
</mgrwt>
</event>
<event>
 5    1  0.3398872E-002  0.1250019E+03  0.7818608E-02  0.1235066E+00
         -4   -1    0    0    0  501 -0.00000000000E+00  0.00000000000E+00  0.20744769827E+02  0.20783608329E+02  0.12700000000E+01 0. -1.
          4   -1    0    0  501    0  0.00000000000E+00 -0.00000000000E+00 -0.18808910652E+03  0.18809339407E+03  0.12700000000E+01 0. -1.
         25    2    1    2    0    0  0.00000000000E+00  0.00000000000E+00 -0.16734433670E+03  0.20887700240E+03  0.12500190041E+03 0.  0.
    9000005    1    3    3    0    0 -0.41299277289E+02  0.10763865459E+02 -0.15995206946E+03  0.16555106653E+03  0.10000000000E+01 0.  0.
    9000005    1    3    3    0    0  0.41299277289E+02 -0.10763865459E+02 -0.73922672377E+01  0.43325935871E+02  0.10000000000E+01 0.  0.
<mgrwt>
<rscale>  0 0.12500190E+03</rscale>
<asrwt>0</asrwt>
<pdfrwt beam="2">  1        4 0.28940102E-01 0.12500190E+03</pdfrwt>
<pdfrwt beam="1">  1       -4 0.31948206E-02 0.12500190E+03</pdfrwt>
<totfact> 0.88655843E+03</totfact>
</mgrwt>
</event>
<event>
 5    1  0.3398872E-002  0.1249998E+03  0.7818608E-02  0.1235070E+00
          4   -1    0    0  501    0  0.00000000000E+00  0.00000000000E+00  0.97898549417E+02  0.97906786680E+02  0.12700000000E+01 0. -1.
         -4   -1    0    0    0  501 -0.00000000000E+00 -0.00000000000E+00 -0.39880875394E+02  0.39901091742E+02  0.12700000000E+01 0. -1.
         25    2    1    2    0    0  0.00000000000E+00  0.00000000000E+00  0.58017674022E+02  0.13780787842E+03  0.12499984342E+03 0.  0.
    9000005    1    3    3    0    0  0.37244767003E+02  0.15070254533E+02  0.81777106814E+02  0.91119594159E+02  0.10000000000E+01 0.  0.
    9000005    1    3    3    0    0 -0.37244767003E+02 -0.15070254533E+02 -0.23759432792E+02  0.46688284263E+02  0.10000000000E+01 0.  0.
<mgrwt>
<rscale>  0 0.12499984E+03</rscale>
<asrwt>0</asrwt>
<pdfrwt beam="1">  1        4 0.15063504E-01 0.12499984E+03</pdfrwt>
<pdfrwt beam="2">  1       -4 0.61377081E-02 0.12499984E+03</pdfrwt>
<totfact> 0.10179257E+04</totfact>
</mgrwt>
</event>
<event>
 5    1  0.3398872E-002  0.1250019E+03  0.7818608E-02  0.1235066E+00
          4   -1    0    0  501    0  0.00000000000E+00  0.00000000000E+00  0.17156103840E+02  0.17203046212E+02  0.12700000000E+01 0.  1.
         -4   -1    0    0    0  501 -0.00000000000E+00 -0.00000000000E+00 -0.22733594075E+03  0.22733948811E+03  0.12700000000E+01 0.  1.
         25    2    1    2    0    0  0.00000000000E+00  0.00000000000E+00 -0.21017983691E+03  0.24454253433E+03  0.12500194899E+03 0.  0.
    9000005    1    3    3    0    0  0.21484051559E+01  0.39128657252E+02 -0.20032231359E+03  0.20412176950E+03  0.10000000000E+01 0.  0.
    9000005    1    3    3    0    0 -0.21484051559E+01 -0.39128657252E+02 -0.98575233224E+01  0.40420764826E+02  0.10000000000E+01 0.  0.
<mgrwt>
<rscale>  0 0.12500195E+03</rscale>
<asrwt>0</asrwt>
<pdfrwt beam="1">  1        4 0.26432846E-02 0.12500195E+03</pdfrwt>
<pdfrwt beam="2">  1       -4 0.34978642E-01 0.12500195E+03</pdfrwt>
<totfact> 0.83121846E+03</totfact>
</mgrwt>
</event>
<event>
 5    1  0.3398872E-002  0.1250005E+03  0.7818608E-02  0.1235068E+00
         -4   -1    0    0    0  501 -0.00000000000E+00  0.00000000000E+00  0.55435553888E+03  0.55435699363E+03  0.12700000000E+01 0. -1.
          4   -1    0    0  501    0  0.00000000000E+00 -0.00000000000E+00 -0.69878331369E+01  0.71023032847E+01  0.12700000000E+01 0. -1.
         25    2    1    2    0    0  0.00000000000E+00  0.00000000000E+00  0.54736770574E+03  0.56145929692E+03  0.12500054721E+03 0.  0.
    9000005    1    3    3    0    0 -0.49981566413E+02 -0.29658028036E+02  0.17051956964E+03  0.18015459816E+03  0.10000000000E+01 0.  0.
    9000005    1    3    3    0    0  0.49981566413E+02  0.29658028036E+02  0.37684813611E+03  0.38130469876E+03  0.10000000000E+01 0.  0.
<mgrwt>
<rscale>  0 0.12500055E+03</rscale>
<asrwt>0</asrwt>
<pdfrwt beam="2">  1        4 0.10839686E-02 0.12500055E+03</pdfrwt>
<pdfrwt beam="1">  1       -4 0.85294381E-01 0.12500055E+03</pdfrwt>
<totfact> 0.51393817E+03</totfact>
</mgrwt>
</event>
<event>
 5    1  0.3398872E-002  0.1250020E+03  0.7818608E-02  0.1235066E+00
          4   -1    0    0  501    0  0.00000000000E+00  0.00000000000E+00  0.19306663960E+03  0.19307081661E+03  0.12700000000E+01 0. -1.
         -4   -1    0    0    0  501 -0.00000000000E+00 -0.00000000000E+00 -0.20208980060E+02  0.20248846265E+02  0.12700000000E+01 0. -1.
         25    2    1    2    0    0  0.00000000000E+00  0.00000000000E+00  0.17285765954E+03  0.21331966288E+03  0.12500203241E+03 0.  0.
    9000005    1    3    3    0    0  0.17147648434E+02  0.59859956317E+02  0.95478395238E+02  0.11399289528E+03  0.10000000000E+01 0.  0.
    9000005    1    3    3    0    0 -0.17147648434E+02 -0.59859956317E+02  0.77379264305E+02  0.99326767598E+02  0.10000000000E+01 0.  0.
<mgrwt>
<rscale>  0 0.12500203E+03</rscale>
<asrwt>0</asrwt>
<pdfrwt beam="1">  1        4 0.29705947E-01 0.12500203E+03</pdfrwt>
<pdfrwt beam="2">  1       -4 0.31124619E-02 0.12500203E+03</pdfrwt>
<totfact> 0.87932596E+03</totfact>
</mgrwt>
</event>
<event>
 5    1  0.3398872E-002  0.1250013E+03  0.7818608E-02  0.1235067E+00
         -4   -1    0    0    0  501 -0.00000000000E+00  0.00000000000E+00  0.22474743310E+02  0.22510597212E+02  0.12700000000E+01 0.  1.
          4   -1    0    0  501    0  0.00000000000E+00 -0.00000000000E+00 -0.17363323437E+03  0.17363787887E+03  0.12700000000E+01 0.  1.
         25    2    1    2    0    0  0.00000000000E+00  0.00000000000E+00 -0.15115849106E+03  0.19614847608E+03  0.12500134099E+03 0.  0.
    9000005    1    3    3    0    0  0.78373673027E+01  0.33005076639E+02 -0.15793567694E+03  0.16154082290E+03  0.10000000000E+01 0.  0.
    9000005    1    3    3    0    0 -0.78373673027E+01 -0.33005076639E+02  0.67771858868E+01  0.34607653182E+02  0.10000000000E+01 0.  0.
<mgrwt>
<rscale>  0 0.12500134E+03</rscale>
<asrwt>0</asrwt>
<pdfrwt beam="2">  1        4 0.26715920E-01 0.12500134E+03</pdfrwt>
<pdfrwt beam="1">  1       -4 0.34607682E-02 0.12500134E+03</pdfrwt>
<totfact> 0.90785644E+03</totfact>
</mgrwt>
</event>
<event>
 5    1  0.3398872E-002  0.1249892E+03  0.7818608E-02  0.1235086E+00
         -4   -1    0    0    0  501 -0.00000000000E+00  0.00000000000E+00  0.16818419355E+02  0.16866301599E+02  0.12700000000E+01 0.  1.
          4   -1    0    0  501    0  0.00000000000E+00 -0.00000000000E+00 -0.23184020358E+03  0.23184368203E+03  0.12700000000E+01 0.  1.
         25    2    1    2    0    0  0.00000000000E+00  0.00000000000E+00 -0.21502178422E+03  0.24870998363E+03  0.12498915259E+03 0.  0.
    9000005    1    3    3    0    0  0.50708055310E+01  0.34091888187E+02 -0.37977203888E+01  0.34689949395E+02  0.10000000000E+01 0.  0.
    9000005    1    3    3    0    0 -0.50708055310E+01 -0.34091888187E+02 -0.21122406384E+03  0.21402003423E+03  0.10000000000E+01 0.  0.
<mgrwt>
<rscale>  0 0.12498915E+03</rscale>
<asrwt>0</asrwt>
<pdfrwt beam="2">  1        4 0.35671672E-01 0.12498915E+03</pdfrwt>
<pdfrwt beam="1">  1       -4 0.25914001E-02 0.12498915E+03</pdfrwt>
<totfact> 0.82536979E+03</totfact>
</mgrwt>
</event>
<event>
 5    1  0.3398872E-002  0.1250022E+03  0.7818608E-02  0.1235066E+00
         -4   -1    0    0    0  501 -0.00000000000E+00  0.00000000000E+00  0.24944404287E+02  0.24976713259E+02  0.12700000000E+01 0.  1.
          4   -1    0    0  501    0  0.00000000000E+00 -0.00000000000E+00 -0.15646748920E+03  0.15647264322E+03  0.12700000000E+01 0.  1.
         25    2    1    2    0    0  0.00000000000E+00  0.00000000000E+00 -0.13152308491E+03  0.18144935648E+03  0.12500218839E+03 0.  0.
    9000005    1    3    3    0    0  0.47433540018E+02  0.18162620844E+02 -0.11861073704E+03  0.12903227680E+03  0.10000000000E+01 0.  0.
    9000005    1    3    3    0    0 -0.47433540018E+02 -0.18162620844E+02 -0.12912347869E+02  0.52417079678E+02  0.10000000000E+01 0.  0.
<mgrwt>
<rscale>  0 0.12500219E+03</rscale>
<asrwt>0</asrwt>
<pdfrwt beam="2">  1        4 0.24074803E-01 0.12500219E+03</pdfrwt>
<pdfrwt beam="1">  1       -4 0.38404825E-02 0.12500219E+03</pdfrwt>
<totfact> 0.93352183E+03</totfact>
</mgrwt>
</event>
<event>
 5    1  0.3398872E-002  0.1249999E+03  0.7818608E-02  0.1235069E+00
          4   -1    0    0  501    0  0.00000000000E+00  0.00000000000E+00  0.67636770230E+02  0.67648692427E+02  0.12700000000E+01 0. -1.
         -4   -1    0    0    0  501 -0.00000000000E+00 -0.00000000000E+00 -0.57729257176E+02  0.57743225006E+02  0.12700000000E+01 0. -1.
         25    2    1    2    0    0  0.00000000000E+00  0.00000000000E+00  0.99075130539E+01  0.12539191743E+03  0.12499989657E+03 0.  0.
    9000005    1    3    3    0    0  0.27608765240E+02  0.56062329117E+02  0.50760878430E+01  0.62705624404E+02  0.10000000000E+01 0.  0.
    9000005    1    3    3    0    0 -0.27608765240E+02 -0.56062329117E+02  0.48314252110E+01  0.62686293029E+02  0.10000000000E+01 0.  0.
<mgrwt>
<rscale>  0 0.12499990E+03</rscale>
<asrwt>0</asrwt>
<pdfrwt beam="1">  1        4 0.10407649E-01 0.12499990E+03</pdfrwt>
<pdfrwt beam="2">  1       -4 0.88834157E-02 0.12499990E+03</pdfrwt>
<totfact> 0.10444370E+04</totfact>
</mgrwt>
</event>
<event>
 5    1  0.3398872E-002  0.1250033E+03  0.7818608E-02  0.1235064E+00
         -4   -1    0    0    0  501 -0.00000000000E+00  0.00000000000E+00  0.59342821764E+02  0.59356409889E+02  0.12700000000E+01 0.  1.
          4   -1    0    0  501    0  0.00000000000E+00 -0.00000000000E+00 -0.65801404585E+02  0.65813659261E+02  0.12700000000E+01 0.  1.
         25    2    1    2    0    0  0.00000000000E+00  0.00000000000E+00 -0.64585828213E+01  0.12517006915E+03  0.12500333163E+03 0.  0.
    9000005    1    3    3    0    0 -0.42648267630E+02 -0.14062312050E+02 -0.46747990131E+02  0.64830532415E+02  0.10000000000E+01 0.  0.
    9000005    1    3    3    0    0  0.42648267630E+02  0.14062312050E+02  0.40289407310E+02  0.60339536735E+02  0.10000000000E+01 0.  0.
<mgrwt>
<rscale>  0 0.12500333E+03</rscale>
<asrwt>0</asrwt>
<pdfrwt beam="2">  1        4 0.10125281E-01 0.12500333E+03</pdfrwt>
<pdfrwt beam="1">  1       -4 0.91316528E-02 0.12500333E+03</pdfrwt>
<totfact> 0.10448383E+04</totfact>
</mgrwt>
</event>
<event>
 5    1  0.3398872E-002  0.1249549E+03  0.7818608E-02  0.1235140E+00
         -4   -1    0    0    0  501 -0.00000000000E+00  0.00000000000E+00  0.19417476795E+03  0.19417892112E+03  0.12700000000E+01 0. -1.
          4   -1    0    0  501    0  0.00000000000E+00 -0.00000000000E+00 -0.20078236782E+02  0.20118362068E+02  0.12700000000E+01 0. -1.
         25    2    1    2    0    0  0.00000000000E+00  0.00000000000E+00  0.17409653117E+03  0.21429728319E+03  0.12495488553E+03 0.  0.
    9000005    1    3    3    0    0 -0.28876807531E+02  0.55377752084E+02  0.89390612412E+02  0.10905157966E+03  0.10000000000E+01 0.  0.
    9000005    1    3    3    0    0  0.28876807531E+02 -0.55377752084E+02  0.84705918754E+02  0.10524570353E+03  0.10000000000E+01 0.  0.
<mgrwt>
<rscale>  0 0.12495489E+03</rscale>
<asrwt>0</asrwt>
<pdfrwt beam="2">  1        4 0.30923655E-02 0.12495489E+03</pdfrwt>
<pdfrwt beam="1">  1       -4 0.29876447E-01 0.12495489E+03</pdfrwt>
<totfact> 0.87867410E+03</totfact>
</mgrwt>
</event>
<event>
 5    1  0.3398872E-002  0.1250124E+03  0.7818608E-02  0.1235050E+00
         -4   -1    0    0    0  501 -0.00000000000E+00  0.00000000000E+00  0.50479013016E+01  0.52052096548E+01  0.12700000000E+01 0. -1.
          4   -1    0    0  501    0  0.00000000000E+00 -0.00000000000E+00 -0.76195741483E+03  0.76195847323E+03  0.12700000000E+01 0. -1.
         25    2    1    2    0    0  0.00000000000E+00  0.00000000000E+00 -0.75690951353E+03  0.76716368288E+03  0.12501241800E+03 0.  0.
    9000005    1    3    3    0    0 -0.58529350943E+02 -0.16138152103E+02 -0.28745321146E+03  0.29379665358E+03  0.10000000000E+01 0.  0.
    9000005    1    3    3    0    0  0.58529350943E+02  0.16138152103E+02 -0.46945630207E+03  0.47336702930E+03  0.10000000000E+01 0.  0.
<mgrwt>
<rscale>  0 0.12501242E+03</rscale>
<asrwt>0</asrwt>
<pdfrwt beam="2">  1        4 0.11723631E+00 0.12501242E+03</pdfrwt>
<pdfrwt beam="1">  1       -4 0.78878286E-03 0.12501242E+03</pdfrwt>
<totfact> 0.39755576E+03</totfact>
</mgrwt>
</event>
<event>
 5    1  0.3398872E-002  0.1249991E+03  0.7818608E-02  0.1235071E+00
         -4   -1    0    0    0  501 -0.00000000000E+00  0.00000000000E+00  0.89678657508E+03  0.89678747435E+03  0.12700000000E+01 0.  1.
          4   -1    0    0  501    0  0.00000000000E+00 -0.00000000000E+00 -0.42622712951E+01  0.44474550693E+01  0.12700000000E+01 0.  1.
         25    2    1    2    0    0  0.00000000000E+00  0.00000000000E+00  0.89252430379E+03  0.90123492942E+03  0.12499906060E+03 0.  0.
    9000005    1    3    3    0    0 -0.52508030488E+02  0.33871617619E+02  0.43976703799E+03  0.44418512746E+03  0.10000000000E+01 0.  0.
    9000005    1    3    3    0    0  0.52508030488E+02 -0.33871617619E+02  0.45275726579E+03  0.45704980196E+03  0.10000000000E+01 0.  0.
<mgrwt>
<rscale>  0 0.12499906E+03</rscale>
<asrwt>0</asrwt>
<pdfrwt beam="2">  1        4 0.67004766E-03 0.12499906E+03</pdfrwt>
<pdfrwt beam="1">  1       -4 0.13798158E+00 0.12499906E+03</pdfrwt>
<totfact> 0.34113348E+03</totfact>
</mgrwt>
</event>
<event>
 5    1  0.3398872E-002  0.1249981E+03  0.7818608E-02  0.1235072E+00
          4   -1    0    0  501    0  0.00000000000E+00  0.00000000000E+00  0.17520748737E+02  0.17566716719E+02  0.12700000000E+01 0.  1.
         -4   -1    0    0    0  501 -0.00000000000E+00 -0.00000000000E+00 -0.22260339802E+03  0.22260702080E+03  0.12700000000E+01 0.  1.
         25    2    1    2    0    0  0.00000000000E+00  0.00000000000E+00 -0.20508264928E+03  0.24017373752E+03  0.12499812462E+03 0.  0.
    9000005    1    3    3    0    0 -0.88726119084E+01  0.48552564325E+02 -0.28896624673E+02  0.57202182320E+02  0.10000000000E+01 0.  0.
    9000005    1    3    3    0    0  0.88726119084E+01 -0.48552564325E+02 -0.17618602461E+03  0.18297155520E+03  0.10000000000E+01 0.  0.
<mgrwt>
<rscale>  0 0.12499812E+03</rscale>
<asrwt>0</asrwt>
<pdfrwt beam="1">  1        4 0.26993146E-02 0.12499812E+03</pdfrwt>
<pdfrwt beam="2">  1       -4 0.34250489E-01 0.12499812E+03</pdfrwt>
<totfact> 0.83775003E+03</totfact>
</mgrwt>
</event>
<event>
 5    1  0.3398872E-002  0.1250045E+03  0.7818608E-02  0.1235062E+00
          4   -1    0    0  501    0  0.00000000000E+00  0.00000000000E+00  0.13490426838E+02  0.13550074401E+02  0.12700000000E+01 0.  1.
         -4   -1    0    0    0  501 -0.00000000000E+00 -0.00000000000E+00 -0.28887816087E+03  0.28888095252E+03  0.12700000000E+01 0.  1.
         25    2    1    2    0    0  0.00000000000E+00  0.00000000000E+00 -0.27538773404E+03  0.30243102692E+03  0.12500448787E+03 0.  0.
    9000005    1    3    3    0    0  0.14198309000E+02 -0.27387179361E+02 -0.62025028206E+01  0.31482068119E+02  0.10000000000E+01 0.  0.
    9000005    1    3    3    0    0 -0.14198309000E+02  0.27387179361E+02 -0.26918523122E+03  0.27094895880E+03  0.10000000000E+01 0.  0.
<mgrwt>
<rscale>  0 0.12500449E+03</rscale>
<asrwt>0</asrwt>
<pdfrwt beam="1">  1        4 0.20802535E-02 0.12500449E+03</pdfrwt>
<pdfrwt beam="2">  1       -4 0.44447592E-01 0.12500449E+03</pdfrwt>
<totfact> 0.75287406E+03</totfact>
</mgrwt>
</event>
<event>
 5    1  0.3398872E-002  0.1249997E+03  0.7818608E-02  0.1235070E+00
          4   -1    0    0  501    0  0.00000000000E+00  0.00000000000E+00  0.96782498602E+01  0.97612202288E+01  0.12700000000E+01 0.  1.
         -4   -1    0    0    0  501 -0.00000000000E+00 -0.00000000000E+00 -0.40180281074E+03  0.40180481781E+03  0.12700000000E+01 0.  1.
         25    2    1    2    0    0  0.00000000000E+00  0.00000000000E+00 -0.39212456088E+03  0.41156603804E+03  0.12499972970E+03 0.  0.
    9000005    1    3    3    0    0  0.56349818156E+02  0.98197878464E+01 -0.11319086656E+03  0.12682626902E+03  0.10000000000E+01 0.  0.
    9000005    1    3    3    0    0 -0.56349818156E+02 -0.98197878464E+01 -0.27893369431E+03  0.28473976902E+03  0.10000000000E+01 0.  0.
<mgrwt>
<rscale>  0 0.12499973E+03</rscale>
<asrwt>0</asrwt>
<pdfrwt beam="1">  1        4 0.14954986E-02 0.12499973E+03</pdfrwt>
<pdfrwt beam="2">  1       -4 0.61822341E-01 0.12499973E+03</pdfrwt>
<totfact> 0.63443607E+03</totfact>
</mgrwt>
</event>
<event>
 5    1  0.3398872E-002  0.1250029E+03  0.7818608E-02  0.1235065E+00
          4   -1    0    0  501    0  0.00000000000E+00  0.00000000000E+00  0.36815697844E+02  0.36837596390E+02  0.12700000000E+01 0. -1.
         -4   -1    0    0    0  501 -0.00000000000E+00 -0.00000000000E+00 -0.10605050340E+03  0.10605810752E+03  0.12700000000E+01 0. -1.
         25    2    1    2    0    0  0.00000000000E+00  0.00000000000E+00 -0.69234805556E+02  0.14289570391E+03  0.12500289555E+03 0.  0.
    9000005    1    3    3    0    0  0.93789739192E+01 -0.51842516750E+02  0.38066871209E+01  0.52830886436E+02  0.10000000000E+01 0.  0.
    9000005    1    3    3    0    0 -0.93789739192E+01  0.51842516750E+02 -0.73041492677E+02  0.90064817478E+02  0.10000000000E+01 0.  0.
<mgrwt>
<rscale>  0 0.12500290E+03</rscale>
<asrwt>0</asrwt>
<pdfrwt beam="1">  1        4 0.56662230E-02 0.12500290E+03</pdfrwt>
<pdfrwt beam="2">  1       -4 0.16317731E-01 0.12500290E+03</pdfrwt>
<totfact> 0.10073263E+04</totfact>
</mgrwt>
</event>
<event>
 4    1  0.3398872E-002  0.1248843E+03  0.7818608E-02  0.1235250E+00
         -4   -1    0    0    0  501 -0.00000000000E+00  0.00000000000E+00  0.32960117401E+03  0.32960362074E+03  0.12700000000E+01 0.  1.
          4   -1    0    0  501    0  0.00000000000E+00 -0.00000000000E+00 -0.11792922772E+02  0.11861109877E+02  0.12700000000E+01 0.  1.
    9000005    1    1    2    0    0 -0.46589840193E+02  0.36377375499E+02  0.21386817194E+03  0.22188853424E+03  0.10000000000E+01 0.  0.
    9000005    1    1    2    0    0  0.46589840193E+02 -0.36377375499E+02  0.10394007929E+03  0.11957619638E+03  0.10000000000E+01 0.  0.
<mgrwt>
<rscale>  0 0.12488426E+03</rscale>
<asrwt>0</asrwt>
<pdfrwt beam="2">  1        4 0.18197295E-02 0.12488426E+03</pdfrwt>
<pdfrwt beam="1">  1       -4 0.50713297E-01 0.12488426E+03</pdfrwt>
<totfact> 0.70855279E+03</totfact>
</mgrwt>
</event>
<event>
 5    1  0.3398872E-002  0.1250043E+03  0.7818608E-02  0.1235063E+00
          4   -1    0    0  501    0  0.00000000000E+00  0.00000000000E+00  0.39404849458E+01  0.41400871498E+01  0.12700000000E+01 0. -1.
         -4   -1    0    0    0  501 -0.00000000000E+00 -0.00000000000E+00 -0.96669127214E+03  0.96669210638E+03  0.12700000000E+01 0. -1.
         25    2    1    2    0    0  0.00000000000E+00  0.00000000000E+00 -0.96275078719E+03  0.97083219353E+03  0.12500427891E+03 0.  0.
    9000005    1    3    3    0    0  0.21280975827E+02 -0.10194784943E+02 -0.31949943674E+02  0.39731756480E+02  0.10000000000E+01 0.  0.
    9000005    1    3    3    0    0 -0.21280975827E+02  0.10194784943E+02 -0.93080084352E+03  0.93110043705E+03  0.10000000000E+01 0.  0.
<mgrwt>
<rscale>  0 0.12500428E+03</rscale>
<asrwt>0</asrwt>
<pdfrwt beam="1">  1        4 0.62164741E-03 0.12500428E+03</pdfrwt>
<pdfrwt beam="2">  1       -4 0.14873697E+00 0.12500428E+03</pdfrwt>
<totfact> 0.31584794E+03</totfact>
</mgrwt>
</event>
<event>
 5    1  0.3398872E-002  0.1249969E+03  0.7818608E-02  0.1235074E+00
         -4   -1    0    0    0  501 -0.00000000000E+00  0.00000000000E+00  0.14783481760E+03  0.14784027257E+03  0.12700000000E+01 0. -1.
          4   -1    0    0  501    0  0.00000000000E+00 -0.00000000000E+00 -0.26400542206E+02  0.26431071276E+02  0.12700000000E+01 0. -1.
         25    2    1    2    0    0  0.00000000000E+00  0.00000000000E+00  0.12143427539E+03  0.17427134385E+03  0.12499687215E+03 0.  0.
    9000005    1    3    3    0    0  0.53810967639E+02  0.31704435414E+02  0.63595775150E+02  0.89141539588E+02  0.10000000000E+01 0.  0.
    9000005    1    3    3    0    0 -0.53810967639E+02 -0.31704435414E+02  0.57838500243E+02  0.85129804261E+02  0.10000000000E+01 0.  0.
<mgrwt>
<rscale>  0 0.12499687E+03</rscale>
<asrwt>0</asrwt>
<pdfrwt beam="2">  1        4 0.40643900E-02 0.12499687E+03</pdfrwt>
<pdfrwt beam="1">  1       -4 0.22746586E-01 0.12499687E+03</pdfrwt>
<totfact> 0.94665105E+03</totfact>
</mgrwt>
</event>
<event>
 5    1  0.3398872E-002  0.1250052E+03  0.7818608E-02  0.1235061E+00
         -4   -1    0    0    0  501 -0.00000000000E+00  0.00000000000E+00  0.54981735661E+03  0.54981882336E+03  0.12700000000E+01 0.  1.
          4   -1    0    0  501    0  0.00000000000E+00 -0.00000000000E+00 -0.70469858659E+01  0.71605104423E+01  0.12700000000E+01 0.  1.
         25    2    1    2    0    0  0.00000000000E+00  0.00000000000E+00  0.54277037074E+03  0.55697933381E+03  0.12500521163E+03 0.  0.
    9000005    1    3    3    0    0 -0.15773662646E+02 -0.48503905406E+02  0.43229139820E+03  0.43529104083E+03  0.10000000000E+01 0.  0.
    9000005    1    3    3    0    0  0.15773662646E+02  0.48503905406E+02  0.11047897254E+03  0.12168829297E+03  0.10000000000E+01 0.  0.
<mgrwt>
<rscale>  0 0.12500521E+03</rscale>
<asrwt>0</asrwt>
<pdfrwt beam="2">  1        4 0.10929971E-02 0.12500521E+03</pdfrwt>
<pdfrwt beam="1">  1       -4 0.84596134E-01 0.12500521E+03</pdfrwt>
<totfact> 0.51694988E+03</totfact>
</mgrwt>
</event>
<event>
 5    1  0.3398872E-002  0.1249944E+03  0.7818608E-02  0.1235078E+00
         -4   -1    0    0    0  501 -0.00000000000E+00  0.00000000000E+00  0.33287450203E+03  0.33287692471E+03  0.12700000000E+01 0.  1.
          4   -1    0    0  501    0  0.00000000000E+00 -0.00000000000E+00 -0.11697010712E+02  0.11765753677E+02  0.12700000000E+01 0.  1.
         25    2    1    2    0    0  0.00000000000E+00  0.00000000000E+00  0.32117749132E+03  0.34464267838E+03  0.12499437921E+03 0.  0.
    9000005    1    3    3    0    0  0.33132513332E+02  0.15382412017E+02  0.20794664124E+02  0.42045214891E+02  0.10000000000E+01 0.  0.
    9000005    1    3    3    0    0 -0.33132513332E+02 -0.15382412017E+02  0.30038282719E+03  0.30259746349E+03  0.10000000000E+01 0.  0.
<mgrwt>
<rscale>  0 0.12499438E+03</rscale>
<asrwt>0</asrwt>
<pdfrwt beam="2">  1        4 0.18050145E-02 0.12499438E+03</pdfrwt>
<pdfrwt beam="1">  1       -4 0.51216934E-01 0.12499438E+03</pdfrwt>
<totfact> 0.70326725E+03</totfact>
</mgrwt>
</event>
<event>
 4    1  0.3398872E-002  0.1247019E+03  0.7818608E-02  0.1235536E+00
          4   -1    0    0  501    0  0.00000000000E+00  0.00000000000E+00  0.20683028785E+03  0.20683418691E+03  0.12700000000E+01 0. -1.
         -4   -1    0    0    0  501 -0.00000000000E+00 -0.00000000000E+00 -0.18770761318E+02  0.18813675358E+02  0.12700000000E+01 0. -1.
    9000005    1    1    2    0    0 -0.17311284888E+02 -0.50216939896E+01 -0.13961706385E+02  0.22821639735E+02  0.10000000000E+01 0.  0.
    9000005    1    1    2    0    0  0.17311284888E+02  0.50216939896E+01  0.20202123292E+03  0.20282622253E+03  0.10000000000E+01 0.  0.
<mgrwt>
<rscale>  0 0.12470193E+03</rscale>
<asrwt>0</asrwt>
<pdfrwt beam="1">  1        4 0.31823647E-01 0.12470193E+03</pdfrwt>
<pdfrwt beam="2">  1       -4 0.28914103E-02 0.12470193E+03</pdfrwt>
<totfact> 0.86556917E+03</totfact>
</mgrwt>
</event>
<event>
 5    1  0.3398872E-002  0.1249992E+03  0.7818608E-02  0.1235071E+00
          4   -1    0    0  501    0  0.00000000000E+00  0.00000000000E+00  0.17473543829E+02  0.17519635668E+02  0.12700000000E+01 0. -1.
         -4   -1    0    0    0  501 -0.00000000000E+00 -0.00000000000E+00 -0.22320694659E+03  0.22321055958E+03  0.12700000000E+01 0. -1.
         25    2    1    2    0    0  0.00000000000E+00  0.00000000000E+00 -0.20573340276E+03  0.24073019525E+03  0.12499917556E+03 0.  0.
    9000005    1    3    3    0    0  0.50409042480E+02  0.27182252358E+02 -0.15102276584E+03  0.16152034611E+03  0.10000000000E+01 0.  0.
    9000005    1    3    3    0    0 -0.50409042480E+02 -0.27182252358E+02 -0.54710636926E+02  0.79209849134E+02  0.10000000000E+01 0.  0.
<mgrwt>
<rscale>  0 0.12499918E+03</rscale>
<asrwt>0</asrwt>
<pdfrwt beam="1">  1        4 0.26920611E-02 0.12499918E+03</pdfrwt>
<pdfrwt beam="2">  1       -4 0.34343352E-01 0.12499918E+03</pdfrwt>
<totfact> 0.83690277E+03</totfact>
</mgrwt>
</event>
<event>
 5    1  0.3398872E-002  0.1249996E+03  0.7818608E-02  0.1235070E+00
         -4   -1    0    0    0  501 -0.00000000000E+00  0.00000000000E+00  0.18232679529E+01  0.22219824545E+01  0.12700000000E+01 0.  1.
          4   -1    0    0  501    0  0.00000000000E+00 -0.00000000000E+00 -0.19308646144E+04  0.19308650321E+04  0.12700000000E+01 0.  1.
         25    2    1    2    0    0  0.00000000000E+00  0.00000000000E+00 -0.19290413464E+04  0.19330870145E+04  0.12499955757E+03 0.  0.
    9000005    1    3    3    0    0 -0.26138661829E+02  0.52407538084E+02 -0.62731723038E+03  0.63004578184E+03  0.10000000000E+01 0.  0.
    9000005    1    3    3    0    0  0.26138661829E+02 -0.52407538084E+02 -0.13017241161E+04  0.13030412327E+04  0.10000000000E+01 0.  0.
<mgrwt>
<rscale>  0 0.12499956E+03</rscale>
<asrwt>0</asrwt>
<pdfrwt beam="2">  1        4 0.29708532E+00 0.12499956E+03</pdfrwt>
<pdfrwt beam="1">  1       -4 0.31120678E-03 0.12499956E+03</pdfrwt>
<totfact> 0.10760225E+03</totfact>
</mgrwt>
</event>
<event>
 5    1  0.3398872E-002  0.1249984E+03  0.7818608E-02  0.1235072E+00
         -4   -1    0    0    0  501 -0.00000000000E+00  0.00000000000E+00  0.41665800517E+02  0.41685151226E+02  0.12700000000E+01 0. -1.
          4   -1    0    0  501    0  0.00000000000E+00 -0.00000000000E+00 -0.93704181678E+02  0.93712787622E+02  0.12700000000E+01 0. -1.
         25    2    1    2    0    0  0.00000000000E+00  0.00000000000E+00 -0.52038381161E+02  0.13539793885E+03  0.12499843491E+03 0.  0.
    9000005    1    3    3    0    0 -0.46822293938E+02 -0.37426117060E+02 -0.68827204887E+01  0.60344123899E+02  0.10000000000E+01 0.  0.
    9000005    1    3    3    0    0  0.46822293938E+02  0.37426117060E+02 -0.45155660672E+02  0.75053814950E+02  0.10000000000E+01 0.  0.
<mgrwt>
<rscale>  0 0.12499843E+03</rscale>
<asrwt>0</asrwt>
<pdfrwt beam="2">  1        4 0.14418178E-01 0.12499843E+03</pdfrwt>
<pdfrwt beam="1">  1       -4 0.64122737E-02 0.12499843E+03</pdfrwt>
<totfact> 0.10230051E+04</totfact>
</mgrwt>
</event>
<event>
 5    1  0.3398872E-002  0.1249993E+03  0.7818608E-02  0.1235070E+00
          4   -1    0    0  501    0  0.00000000000E+00  0.00000000000E+00  0.21352805187E+04  0.21352808964E+04  0.12700000000E+01 0.  1.
         -4   -1    0    0    0  501 -0.00000000000E+00 -0.00000000000E+00 -0.16085242125E+01  0.20494511807E+01  0.12700000000E+01 0.  1.
         25    2    1    2    0    0  0.00000000000E+00  0.00000000000E+00  0.21336719945E+04  0.21373303475E+04  0.12499933815E+03 0.  0.
    9000005    1    3    3    0    0 -0.51953881060E+02  0.33977156386E+02  0.11896088569E+04  0.11912278897E+04  0.10000000000E+01 0.  0.
    9000005    1    3    3    0    0  0.51953881060E+02 -0.33977156386E+02  0.94406313758E+03  0.94610245780E+03  0.10000000000E+01 0.  0.
<mgrwt>
<rscale>  0 0.12499934E+03</rscale>
<asrwt>0</asrwt>
<pdfrwt beam="1">  1        4 0.32853892E+00 0.12499934E+03</pdfrwt>
<pdfrwt beam="2">  1       -4 0.28141154E-03 0.12499934E+03</pdfrwt>
<totfact> 0.81736645E+02</totfact>
</mgrwt>
</event>
<event>
 5    1  0.3398872E-002  0.1250034E+03  0.7818608E-02  0.1235064E+00
         -4   -1    0    0    0  501 -0.00000000000E+00  0.00000000000E+00  0.56530283484E+02  0.56544547490E+02  0.12700000000E+01 0. -1.
          4   -1    0    0  501    0  0.00000000000E+00 -0.00000000000E+00 -0.69075055980E+02  0.69086729975E+02  0.12700000000E+01 0. -1.
         25    2    1    2    0    0  0.00000000000E+00  0.00000000000E+00 -0.12544772496E+02  0.12563127746E+03  0.12500338620E+03 0.  0.
    9000005    1    3    3    0    0 -0.39539295711E+01 -0.75138011619E+01  0.55952830420E+02  0.56602208428E+02  0.10000000000E+01 0.  0.
    9000005    1    3    3    0    0  0.39539295711E+01  0.75138011619E+01 -0.68497602915E+02  0.69029069037E+02  0.10000000000E+01 0.  0.
<mgrwt>
<rscale>  0 0.12500339E+03</rscale>
<asrwt>0</asrwt>
<pdfrwt beam="2">  1        4 0.10628927E-01 0.12500339E+03</pdfrwt>
<pdfrwt beam="1">  1       -4 0.86989619E-02 0.12500339E+03</pdfrwt>
<totfact> 0.10438260E+04</totfact>
</mgrwt>
</event>
<event>
 5    1  0.3398872E-002  0.1249948E+03  0.7818608E-02  0.1235077E+00
         -4   -1    0    0    0  501 -0.00000000000E+00  0.00000000000E+00  0.40970152777E+03  0.40970349615E+03  0.12700000000E+01 0.  1.
          4   -1    0    0  501    0  0.00000000000E+00 -0.00000000000E+00 -0.94892985851E+01  0.95739066027E+01  0.12700000000E+01 0.  1.
         25    2    1    2    0    0  0.00000000000E+00  0.00000000000E+00  0.40021222918E+03  0.41927740275E+03  0.12499484817E+03 0.  0.
    9000005    1    3    3    0    0 -0.76088195394E+01  0.54163383621E+02  0.98731140816E+02  0.11287340000E+03  0.10000000000E+01 0.  0.
    9000005    1    3    3    0    0  0.76088195394E+01 -0.54163383621E+02  0.30148108837E+03  0.30640400275E+03  0.10000000000E+01 0.  0.
<mgrwt>
<rscale>  0 0.12499485E+03</rscale>
<asrwt>0</asrwt>
<pdfrwt beam="2">  1        4 0.14665517E-02 0.12499485E+03</pdfrwt>
<pdfrwt beam="1">  1       -4 0.63037670E-01 0.12499485E+03</pdfrwt>
<totfact> 0.62727226E+03</totfact>
</mgrwt>
</event>
<event>
 5    1  0.3398872E-002  0.1250015E+03  0.7818608E-02  0.1235067E+00
          4   -1    0    0  501    0  0.00000000000E+00  0.00000000000E+00  0.19750278351E+02  0.19791068565E+02  0.12700000000E+01 0. -1.
         -4   -1    0    0    0  501 -0.00000000000E+00 -0.00000000000E+00 -0.19753993178E+03  0.19754401421E+03  0.12700000000E+01 0. -1.
         25    2    1    2    0    0  0.00000000000E+00  0.00000000000E+00 -0.17778965343E+03  0.21733508277E+03  0.12500150933E+03 0.  0.
    9000005    1    3    3    0    0  0.55494709715E+02  0.21575255833E+02 -0.12189227244E+03  0.13566090281E+03  0.10000000000E+01 0.  0.
    9000005    1    3    3    0    0 -0.55494709715E+02 -0.21575255833E+02 -0.55897380994E+02  0.81674179963E+02  0.10000000000E+01 0.  0.
<mgrwt>
<rscale>  0 0.12500151E+03</rscale>
<asrwt>0</asrwt>
<pdfrwt beam="1">  1        4 0.30419562E-02 0.12500151E+03</pdfrwt>
<pdfrwt beam="2">  1       -4 0.30394209E-01 0.12500151E+03</pdfrwt>
<totfact> 0.87288859E+03</totfact>
</mgrwt>
</event>
<event>
 5    1  0.3398872E-002  0.1250023E+03  0.7818608E-02  0.1235066E+00
          4   -1    0    0  501    0  0.00000000000E+00  0.00000000000E+00  0.10683850939E+04  0.10683858488E+04  0.12700000000E+01 0.  1.
         -4   -1    0    0    0  501 -0.00000000000E+00 -0.00000000000E+00 -0.35452963532E+01  0.37659031098E+01  0.12700000000E+01 0.  1.
         25    2    1    2    0    0  0.00000000000E+00  0.00000000000E+00  0.10648397976E+04  0.10721517519E+04  0.12500233812E+03 0.  0.
    9000005    1    3    3    0    0 -0.39523442827E+01  0.52690865698E+02  0.24621764454E+03  0.25182548885E+03  0.10000000000E+01 0.  0.
    9000005    1    3    3    0    0  0.39523442827E+01 -0.52690865698E+02  0.81862215304E+03  0.82032626302E+03  0.10000000000E+01 0.  0.
<mgrwt>
<rscale>  0 0.12500234E+03</rscale>
<asrwt>0</asrwt>
<pdfrwt beam="1">  1        4 0.16438408E+00 0.12500234E+03</pdfrwt>
<pdfrwt beam="2">  1       -4 0.56245762E-03 0.12500234E+03</pdfrwt>
<totfact> 0.28311597E+03</totfact>
</mgrwt>
</event>
<event>
 5    1  0.3398872E-002  0.1250120E+03  0.7818608E-02  0.1235051E+00
         -4   -1    0    0    0  501 -0.00000000000E+00  0.00000000000E+00  0.15276376246E+04  0.15276381525E+04  0.12700000000E+01 0.  1.
          4   -1    0    0  501    0  0.00000000000E+00 -0.00000000000E+00 -0.23993202914E+01  0.27147076934E+01  0.12700000000E+01 0.  1.
         25    2    1    2    0    0  0.00000000000E+00  0.00000000000E+00  0.15252383043E+04  0.15303528602E+04  0.12501196659E+03 0.  0.
    9000005    1    3    3    0    0 -0.48599260473E+02  0.28139897336E+02  0.42686389254E+03  0.43054329015E+03  0.10000000000E+01 0.  0.
    9000005    1    3    3    0    0  0.48599260473E+02 -0.28139897336E+02  0.10983744117E+04  0.10998095700E+04  0.10000000000E+01 0.  0.
<mgrwt>
<rscale>  0 0.12501197E+03</rscale>
<asrwt>0</asrwt>
<pdfrwt beam="2">  1        4 0.39342704E-03 0.12501197E+03</pdfrwt>
<pdfrwt beam="1">  1       -4 0.23504567E+00 0.12501197E+03</pdfrwt>
<totfact> 0.17336838E+03</totfact>
</mgrwt>
</event>
<event>
 5    1  0.3398872E-002  0.1249965E+03  0.7818608E-02  0.1235075E+00
          4   -1    0    0  501    0  0.00000000000E+00  0.00000000000E+00  0.51431764656E+02  0.51447442265E+02  0.12700000000E+01 0.  1.
         -4   -1    0    0    0  501 -0.00000000000E+00 -0.00000000000E+00 -0.75913311532E+02  0.75923934091E+02  0.12700000000E+01 0.  1.
         25    2    1    2    0    0  0.00000000000E+00  0.00000000000E+00 -0.24481546876E+02  0.12737137636E+03  0.12499648546E+03 0.  0.
    9000005    1    3    3    0    0  0.62035581953E+02  0.66094668769E+01 -0.85763588907E+01  0.62981365597E+02  0.10000000000E+01 0.  0.
    9000005    1    3    3    0    0 -0.62035581953E+02 -0.66094668769E+01 -0.15905187985E+02  0.64390010759E+02  0.10000000000E+01 0.  0.
<mgrwt>
<rscale>  0 0.12499649E+03</rscale>
<asrwt>0</asrwt>
<pdfrwt beam="1">  1        4 0.79146023E-02 0.12499649E+03</pdfrwt>
<pdfrwt beam="2">  1       -4 0.11680994E-01 0.12499649E+03</pdfrwt>
<totfact> 0.10401912E+04</totfact>
</mgrwt>
</event>
<event>
 5    1  0.3398872E-002  0.1249907E+03  0.7818608E-02  0.1235084E+00
         -4   -1    0    0    0  501 -0.00000000000E+00  0.00000000000E+00  0.16643888221E+03  0.16644372746E+03  0.12700000000E+01 0. -1.
          4   -1    0    0  501    0  0.00000000000E+00 -0.00000000000E+00 -0.23443702198E+02  0.23478076427E+02  0.12700000000E+01 0. -1.
         25    2    1    2    0    0  0.00000000000E+00  0.00000000000E+00  0.14299518001E+03  0.18992180389E+03  0.12499067999E+03 0.  0.
    9000005    1    3    3    0    0  0.53306745392E+02 -0.62263286408E+01  0.12012811151E+03  0.13157560355E+03  0.10000000000E+01 0.  0.
    9000005    1    3    3    0    0 -0.53306745392E+02  0.62263286408E+01  0.22867068497E+02  0.58346200342E+02  0.10000000000E+01 0.  0.
<mgrwt>
<rscale>  0 0.12499068E+03</rscale>
<asrwt>0</asrwt>
<pdfrwt beam="2">  1        4 0.36097402E-02 0.12499068E+03</pdfrwt>
<pdfrwt beam="1">  1       -4 0.25608999E-01 0.12499068E+03</pdfrwt>
<totfact> 0.91880101E+03</totfact>
</mgrwt>
</event>
<event>
 5    1  0.3398872E-002  0.1249974E+03  0.7818608E-02  0.1235073E+00
         -4   -1    0    0    0  501 -0.00000000000E+00  0.00000000000E+00  0.29753496458E+02  0.29780588502E+02  0.12700000000E+01 0.  1.
          4   -1    0    0  501    0  0.00000000000E+00 -0.00000000000E+00 -0.13119168828E+03  0.13119783525E+03  0.12700000000E+01 0.  1.
         25    2    1    2    0    0  0.00000000000E+00  0.00000000000E+00 -0.10143819183E+03  0.16097842375E+03  0.12499738459E+03 0.  0.
    9000005    1    3    3    0    0  0.68093002866E+01 -0.56012772465E+02 -0.16131411634E+02  0.58694290105E+02  0.10000000000E+01 0.  0.
    9000005    1    3    3    0    0 -0.68093002866E+01  0.56012772465E+02 -0.85306780192E+02  0.10228413365E+03  0.10000000000E+01 0.  0.
<mgrwt>
<rscale>  0 0.12499738E+03</rscale>
<asrwt>0</asrwt>
<pdfrwt beam="2">  1        4 0.20185893E-01 0.12499738E+03</pdfrwt>
<pdfrwt beam="1">  1       -4 0.45800179E-02 0.12499738E+03</pdfrwt>
<totfact> 0.97160195E+03</totfact>
</mgrwt>
</event>
<event>
 5    1  0.3398872E-002  0.1250077E+03  0.7818608E-02  0.1235057E+00
          4   -1    0    0  501    0  0.00000000000E+00  0.00000000000E+00  0.18735504460E+03  0.18735934894E+03  0.12700000000E+01 0.  1.
         -4   -1    0    0    0  501 -0.00000000000E+00 -0.00000000000E+00 -0.20828147657E+02  0.20866830972E+02  0.12700000000E+01 0.  1.
         25    2    1    2    0    0  0.00000000000E+00  0.00000000000E+00  0.16652689694E+03  0.20822617992E+03  0.12500773815E+03 0.  0.
    9000005    1    3    3    0    0 -0.27386861454E+02  0.40485245089E+02  0.18394111628E+02  0.52234457907E+02  0.10000000000E+01 0.  0.
    9000005    1    3    3    0    0  0.27386861454E+02 -0.40485245089E+02  0.14813278531E+03  0.15599172201E+03  0.10000000000E+01 0.  0.
<mgrwt>
<rscale>  0 0.12500774E+03</rscale>
<asrwt>0</asrwt>
<pdfrwt beam="1">  1        4 0.28827160E-01 0.12500774E+03</pdfrwt>
<pdfrwt beam="2">  1       -4 0.32076371E-02 0.12500774E+03</pdfrwt>
<totfact> 0.88751032E+03</totfact>
</mgrwt>
</event>
<event>
 5    1  0.3398872E-002  0.1249935E+03  0.7818608E-02  0.1235079E+00
          4   -1    0    0  501    0  0.00000000000E+00  0.00000000000E+00  0.17417794657E+02  0.17464033632E+02  0.12700000000E+01 0.  1.
         -4   -1    0    0    0  501 -0.00000000000E+00 -0.00000000000E+00 -0.22389905352E+03  0.22390265533E+03  0.12700000000E+01 0.  1.
         25    2    1    2    0    0  0.00000000000E+00  0.00000000000E+00 -0.20648125886E+03  0.24136668896E+03  0.12499347296E+03 0.  0.
    9000005    1    3    3    0    0 -0.22783765172E+02 -0.16741363872E+02  0.43696072164E+01  0.28626328562E+02  0.10000000000E+01 0.  0.
    9000005    1    3    3    0    0  0.22783765172E+02  0.16741363872E+02 -0.21085086607E+03  0.21274036040E+03  0.10000000000E+01 0.  0.
<mgrwt>
<rscale>  0 0.12499347E+03</rscale>
<asrwt>0</asrwt>
<pdfrwt beam="1">  1        4 0.26834948E-02 0.12499347E+03</pdfrwt>
<pdfrwt beam="2">  1       -4 0.34449840E-01 0.12499347E+03</pdfrwt>
<totfact> 0.83606408E+03</totfact>
</mgrwt>
</event>
<event>
 5    1  0.3398872E-002  0.1250012E+03  0.7818608E-02  0.1235067E+00
         -4   -1    0    0    0  501 -0.00000000000E+00  0.00000000000E+00  0.22506623153E+02  0.22542426350E+02  0.12700000000E+01 0. -1.
          4   -1    0    0  501    0  0.00000000000E+00 -0.00000000000E+00 -0.17338720574E+03  0.17339185683E+03  0.12700000000E+01 0. -1.
         25    2    1    2    0    0  0.00000000000E+00  0.00000000000E+00 -0.15088058259E+03  0.19593428318E+03  0.12500117249E+03 0.  0.
    9000005    1    3    3    0    0  0.20673350934E+02 -0.12921602404E+02 -0.16563350042E+03  0.16742106113E+03  0.10000000000E+01 0.  0.
    9000005    1    3    3    0    0 -0.20673350934E+02  0.12921602404E+02  0.14752917828E+02  0.28513222055E+02  0.10000000000E+01 0.  0.
<mgrwt>
<rscale>  0 0.12500117E+03</rscale>
<asrwt>0</asrwt>
<pdfrwt beam="2">  1        4 0.26678066E-01 0.12500117E+03</pdfrwt>
<pdfrwt beam="1">  1       -4 0.34656694E-02 0.12500117E+03</pdfrwt>
<totfact> 0.90822515E+03</totfact>
</mgrwt>
</event>
<event>
 5    1  0.3398872E-002  0.1249984E+03  0.7818608E-02  0.1235072E+00
          4   -1    0    0  501    0  0.00000000000E+00  0.00000000000E+00  0.33020663967E+03  0.33020908192E+03  0.12700000000E+01 0. -1.
         -4   -1    0    0    0  501 -0.00000000000E+00 -0.00000000000E+00 -0.11792832899E+02  0.11861020520E+02  0.12700000000E+01 0. -1.
         25    2    1    2    0    0  0.00000000000E+00  0.00000000000E+00  0.31841380677E+03  0.34207010244E+03  0.12499841055E+03 0.  0.
    9000005    1    3    3    0    0  0.36333394530E+02  0.20329320458E+02  0.31675856354E+02  0.52323576943E+02  0.10000000000E+01 0.  0.
    9000005    1    3    3    0    0 -0.36333394530E+02 -0.20329320458E+02  0.28673795041E+03  0.28974652549E+03  0.10000000000E+01 0.  0.
<mgrwt>
<rscale>  0 0.12499841E+03</rscale>
<asrwt>0</asrwt>
<pdfrwt beam="1">  1        4 0.50806451E-01 0.12499841E+03</pdfrwt>
<pdfrwt beam="2">  1       -4 0.18197152E-02 0.12499841E+03</pdfrwt>
<totfact> 0.70608328E+03</totfact>
</mgrwt>
</event>
<event>
 5    1  0.3398872E-002  0.1250015E+03  0.7818608E-02  0.1235067E+00
         -4   -1    0    0    0  501 -0.00000000000E+00  0.00000000000E+00  0.14555638223E+04  0.14555643764E+04  0.12700000000E+01 0. -1.
          4   -1    0    0  501    0  0.00000000000E+00 -0.00000000000E+00 -0.25328999792E+01  0.28334576589E+01  0.12700000000E+01 0. -1.
         25    2    1    2    0    0  0.00000000000E+00  0.00000000000E+00  0.14530309224E+04  0.14583978340E+04  0.12500152404E+03 0.  0.
    9000005    1    3    3    0    0  0.22903746455E+01  0.14443154438E+02  0.14353776784E+04  0.14354525176E+04  0.10000000000E+01 0.  0.
    9000005    1    3    3    0    0 -0.22903746455E+01 -0.14443154438E+02  0.17653243958E+02  0.22945316480E+02  0.10000000000E+01 0.  0.
<mgrwt>
<rscale>  0 0.12500152E+03</rscale>
<asrwt>0</asrwt>
<pdfrwt beam="2">  1        4 0.41283965E-03 0.12500152E+03</pdfrwt>
<pdfrwt beam="1">  1       -4 0.22395590E+00 0.12500152E+03</pdfrwt>
<totfact> 0.18760780E+03</totfact>
</mgrwt>
</event>
<event>
 5    1  0.3398872E-002  0.1249976E+03  0.7818608E-02  0.1235073E+00
         -4   -1    0    0    0  501 -0.00000000000E+00  0.00000000000E+00  0.84743602232E+01  0.85689953432E+01  0.12700000000E+01 0.  1.
          4   -1    0    0  501    0  0.00000000000E+00 -0.00000000000E+00 -0.45827642732E+03  0.45827818707E+03  0.12700000000E+01 0.  1.
         25    2    1    2    0    0  0.00000000000E+00  0.00000000000E+00 -0.44980206710E+03  0.46684718241E+03  0.12499756860E+03 0.  0.
    9000005    1    3    3    0    0 -0.54428259314E+01  0.12382628535E+02  0.29598481150E+01  0.13882166417E+02  0.10000000000E+01 0.  0.
    9000005    1    3    3    0    0  0.54428259314E+01 -0.12382628535E+02 -0.45276191522E+03  0.45296501599E+03  0.10000000000E+01 0.  0.
<mgrwt>
<rscale>  0 0.12499757E+03</rscale>
<asrwt>0</asrwt>
<pdfrwt beam="2">  1        4 0.70511462E-01 0.12499757E+03</pdfrwt>
<pdfrwt beam="1">  1       -4 0.13111631E-02 0.12499757E+03</pdfrwt>
<totfact> 0.58534752E+03</totfact>
</mgrwt>
</event>
<event>
 5    1  0.3398872E-002  0.1249994E+03  0.7818608E-02  0.1235070E+00
         -4   -1    0    0    0  501 -0.00000000000E+00  0.00000000000E+00  0.36626532459E+01  0.38765872620E+01  0.12700000000E+01 0. -1.
          4   -1    0    0  501    0  0.00000000000E+00 -0.00000000000E+00 -0.10360199094E+04  0.10360206878E+04  0.12700000000E+01 0. -1.
         25    2    1    2    0    0  0.00000000000E+00  0.00000000000E+00 -0.10323572562E+04  0.10398972751E+04  0.12499935348E+03 0.  0.
    9000005    1    3    3    0    0 -0.45001516201E+02 -0.37578821396E+02 -0.69613269359E+03  0.69859790392E+03  0.10000000000E+01 0.  0.
    9000005    1    3    3    0    0  0.45001516201E+02  0.37578821396E+02 -0.33622456260E+03  0.34129937119E+03  0.10000000000E+01 0.  0.
<mgrwt>
<rscale>  0 0.12499935E+03</rscale>
<asrwt>0</asrwt>
<pdfrwt beam="2">  1        4 0.15940397E+00 0.12499935E+03</pdfrwt>
<pdfrwt beam="1">  1       -4 0.58000228E-03 0.12499935E+03</pdfrwt>
<totfact> 0.29312781E+03</totfact>
</mgrwt>
</event>
<event>
 5    1  0.3398872E-002  0.1250264E+03  0.7818608E-02  0.1235028E+00
         -4   -1    0    0    0  501 -0.00000000000E+00  0.00000000000E+00  0.13660676862E+02  0.13719584262E+02  0.12700000000E+01 0. -1.
          4   -1    0    0  501    0  0.00000000000E+00 -0.00000000000E+00 -0.28539336747E+03  0.28539619321E+03  0.12700000000E+01 0. -1.
         25    2    1    2    0    0  0.00000000000E+00  0.00000000000E+00 -0.27173269061E+03  0.29911577747E+03  0.12502636996E+03 0.  0.
    9000005    1    3    3    0    0 -0.61851616702E+02  0.34974969323E+01 -0.15574552875E+03  0.16761719691E+03  0.10000000000E+01 0.  0.
    9000005    1    3    3    0    0  0.61851616702E+02 -0.34974969323E+01 -0.11598716186E+03  0.13149858056E+03  0.10000000000E+01 0.  0.
<mgrwt>
<rscale>  0 0.12502637E+03</rscale>
<asrwt>0</asrwt>
<pdfrwt beam="2">  1        4 0.43911416E-01 0.12502637E+03</pdfrwt>
<pdfrwt beam="1">  1       -4 0.21063915E-02 0.12502637E+03</pdfrwt>
<totfact> 0.75665585E+03</totfact>
</mgrwt>
</event>
<event>
 5    1  0.3398872E-002  0.1250001E+03  0.7818608E-02  0.1235069E+00
         -4   -1    0    0    0  501 -0.00000000000E+00  0.00000000000E+00  0.38549343681E+02  0.38570257949E+02  0.12700000000E+01 0. -1.
          4   -1    0    0  501    0  0.00000000000E+00 -0.00000000000E+00 -0.10127892695E+03  0.10128688930E+03  0.12700000000E+01 0. -1.
         25    2    1    2    0    0  0.00000000000E+00  0.00000000000E+00 -0.62729583264E+02  0.13985714724E+03  0.12500008408E+03 0.  0.
    9000005    1    3    3    0    0  0.46179808695E+02 -0.31748803498E+02 -0.62304641472E+02  0.83805904348E+02  0.10000000000E+01 0.  0.
    9000005    1    3    3    0    0 -0.46179808695E+02  0.31748803498E+02 -0.42494179242E+00  0.56051242896E+02  0.10000000000E+01 0.  0.
<mgrwt>
<rscale>  0 0.12500008E+03</rscale>
<asrwt>0</asrwt>
<pdfrwt beam="2">  1        4 0.15583595E-01 0.12500008E+03</pdfrwt>
<pdfrwt beam="1">  1       -4 0.59328896E-02 0.12500008E+03</pdfrwt>
<totfact> 0.10136528E+04</totfact>
</mgrwt>
</event>
<event>
 5    1  0.3398872E-002  0.1249897E+03  0.7818608E-02  0.1235085E+00
         -4   -1    0    0    0  501 -0.00000000000E+00  0.00000000000E+00  0.48435911687E+02  0.48452558663E+02  0.12700000000E+01 0.  1.
          4   -1    0    0  501    0  0.00000000000E+00 -0.00000000000E+00 -0.80598967181E+02  0.80608972271E+02  0.12700000000E+01 0.  1.
         25    2    1    2    0    0  0.00000000000E+00  0.00000000000E+00 -0.32163055494E+02  0.12906153093E+03  0.12498966609E+03 0.  0.
    9000005    1    3    3    0    0 -0.58257133867E+02 -0.21988250381E+02 -0.21469501092E+02  0.65873486915E+02  0.10000000000E+01 0.  0.
    9000005    1    3    3    0    0  0.58257133867E+02  0.21988250381E+02 -0.10693554402E+02  0.63188044019E+02  0.10000000000E+01 0.  0.
<mgrwt>
<rscale>  0 0.12498967E+03</rscale>
<asrwt>0</asrwt>
<pdfrwt beam="2">  1        4 0.12401891E-01 0.12498967E+03</pdfrwt>
<pdfrwt beam="1">  1       -4 0.74537288E-02 0.12498967E+03</pdfrwt>
<totfact> 0.10367043E+04</totfact>
</mgrwt>
</event>
<event>
 5    1  0.3398872E-002  0.1249921E+03  0.7818608E-02  0.1235082E+00
         -4   -1    0    0    0  501 -0.00000000000E+00  0.00000000000E+00  0.39174057084E+03  0.39174262947E+03  0.12700000000E+01 0. -1.
          4   -1    0    0  501    0  0.00000000000E+00 -0.00000000000E+00 -0.99277322653E+01  0.10008634669E+02  0.12700000000E+01 0. -1.
         25    2    1    2    0    0  0.00000000000E+00  0.00000000000E+00  0.38181283858E+03  0.40175126414E+03  0.12499213789E+03 0.  0.
    9000005    1    3    3    0    0  0.18050535819E+02 -0.41763297532E+02  0.53228392371E+02  0.70030397817E+02  0.10000000000E+01 0.  0.
    9000005    1    3    3    0    0 -0.18050535819E+02  0.41763297532E+02  0.32858444621E+03  0.33172086632E+03  0.10000000000E+01 0.  0.
<mgrwt>
<rscale>  0 0.12499214E+03</rscale>
<asrwt>0</asrwt>
<pdfrwt beam="2">  1        4 0.15337247E-02 0.12499214E+03</pdfrwt>
<pdfrwt beam="1">  1       -4 0.60274174E-01 0.12499214E+03</pdfrwt>
<totfact> 0.64393985E+03</totfact>
</mgrwt>
</event>
<event>
 5    1  0.3398872E-002  0.1249965E+03  0.7818608E-02  0.1235075E+00
         -4   -1    0    0    0  501 -0.00000000000E+00  0.00000000000E+00  0.98986575399E+00  0.16101969479E+01  0.12700000000E+01 0.  1.
          4   -1    0    0  501    0  0.00000000000E+00 -0.00000000000E+00 -0.30039470487E+04  0.30039473172E+04  0.12700000000E+01 0.  1.
         25    2    1    2    0    0  0.00000000000E+00  0.00000000000E+00 -0.30029571829E+04  0.30055575141E+04  0.12499651205E+03 0.  0.
    9000005    1    3    3    0    0 -0.14336045299E+01 -0.62109407054E+02 -0.16634905724E+04  0.16646505694E+04  0.10000000000E+01 0.  0.
    9000005    1    3    3    0    0  0.14336045299E+01  0.62109407054E+02 -0.13394666106E+04  0.13409069448E+04  0.10000000000E+01 0.  0.
<mgrwt>
<rscale>  0 0.12499651E+03</rscale>
<asrwt>0</asrwt>
<pdfrwt beam="2">  1        4 0.46218788E+00 0.12499651E+03</pdfrwt>
<pdfrwt beam="1">  1       -4 0.20002788E-03 0.12499651E+03</pdfrwt>
<totfact> 0.17969356E+02</totfact>
</mgrwt>
</event>
<event>
 5    1  0.3398872E-002  0.1249958E+03  0.7818608E-02  0.1235076E+00
          4   -1    0    0  501    0  0.00000000000E+00  0.00000000000E+00  0.69478042061E+02  0.69489648356E+02  0.12700000000E+01 0.  1.
         -4   -1    0    0    0  501 -0.00000000000E+00 -0.00000000000E+00 -0.56195521899E+02  0.56209870854E+02  0.12700000000E+01 0.  1.
         25    2    1    2    0    0  0.00000000000E+00  0.00000000000E+00  0.13282520162E+02  0.12569951921E+03  0.12499577508E+03 0.  0.
    9000005    1    3    3    0    0  0.19985707627E+02 -0.59121187941E+02  0.34228391832E+01  0.62509672859E+02  0.10000000000E+01 0.  0.
    9000005    1    3    3    0    0 -0.19985707627E+02  0.59121187941E+02  0.98596809788E+01  0.63189846351E+02  0.10000000000E+01 0.  0.
<mgrwt>
<rscale>  0 0.12499578E+03</rscale>
<asrwt>0</asrwt>
<pdfrwt beam="1">  1        4 0.10690926E-01 0.12499578E+03</pdfrwt>
<pdfrwt beam="2">  1       -4 0.86474615E-02 0.12499578E+03</pdfrwt>
<totfact> 0.10438550E+04</totfact>
</mgrwt>
</event>
<event>
 5    1  0.3398872E-002  0.1249991E+03  0.7818608E-02  0.1235071E+00
         -4   -1    0    0    0  501 -0.00000000000E+00  0.00000000000E+00  0.16006232112E+04  0.16006237151E+04  0.12700000000E+01 0. -1.
          4   -1    0    0  501    0  0.00000000000E+00 -0.00000000000E+00 -0.22746542587E+01  0.26051779204E+01  0.12700000000E+01 0. -1.
         25    2    1    2    0    0  0.00000000000E+00  0.00000000000E+00  0.15983485570E+04  0.16032288930E+04  0.12499909492E+03 0.  0.
    9000005    1    3    3    0    0 -0.31107054663E+02  0.30050496285E+02  0.22065369204E+03  0.22485491542E+03  0.10000000000E+01 0.  0.
    9000005    1    3    3    0    0  0.31107054663E+02 -0.30050496285E+02  0.13776948649E+04  0.13783739776E+04  0.10000000000E+01 0.  0.
<mgrwt>
<rscale>  0 0.12499909E+03</rscale>
<asrwt>0</asrwt>
<pdfrwt beam="2">  1        4 0.37540935E-03 0.12499909E+03</pdfrwt>
<pdfrwt beam="1">  1       -4 0.24627592E+00 0.12499909E+03</pdfrwt>
<totfact> 0.15988120E+03</totfact>
</mgrwt>
</event>
<event>
 5    1  0.3398872E-002  0.1250009E+03  0.7818608E-02  0.1235068E+00
         -4   -1    0    0    0  501 -0.00000000000E+00  0.00000000000E+00  0.12654213916E+02  0.12717783998E+02  0.12700000000E+01 0. -1.
          4   -1    0    0  501    0  0.00000000000E+00 -0.00000000000E+00 -0.30785770493E+03  0.30786032448E+03  0.12700000000E+01 0. -1.
         25    2    1    2    0    0  0.00000000000E+00  0.00000000000E+00 -0.29520349102E+03  0.32057810848E+03  0.12500089010E+03 0.  0.
    9000005    1    3    3    0    0 -0.14244047672E+02 -0.33981904411E+02 -0.18155328455E+02  0.41088668423E+02  0.10000000000E+01 0.  0.
    9000005    1    3    3    0    0  0.14244047672E+02  0.33981904411E+02 -0.27704816256E+03  0.27948944005E+03  0.10000000000E+01 0.  0.
<mgrwt>
<rscale>  0 0.12500089E+03</rscale>
<asrwt>0</asrwt>
<pdfrwt beam="2">  1        4 0.47367810E-01 0.12500089E+03</pdfrwt>
<pdfrwt beam="1">  1       -4 0.19518939E-02 0.12500089E+03</pdfrwt>
<totfact> 0.73085980E+03</totfact>
</mgrwt>
</event>
<event>
 5    1  0.3398872E-002  0.1250004E+03  0.7818608E-02  0.1235069E+00
         -4   -1    0    0    0  501 -0.00000000000E+00  0.00000000000E+00  0.89478620279E+02  0.89487632592E+02  0.12700000000E+01 0.  1.
          4   -1    0    0  501    0  0.00000000000E+00 -0.00000000000E+00 -0.43635493526E+02  0.43653971128E+02  0.12700000000E+01 0.  1.
         25    2    1    2    0    0  0.00000000000E+00  0.00000000000E+00  0.45843126753E+02  0.13314160372E+03  0.12500037748E+03 0.  0.
    9000005    1    3    3    0    0  0.26126221376E+02 -0.56716951722E+02  0.20338423864E+02  0.65681378954E+02  0.10000000000E+01 0.  0.
    9000005    1    3    3    0    0 -0.26126221376E+02  0.56716951722E+02  0.25504702889E+02  0.67460224766E+02  0.10000000000E+01 0.  0.
<mgrwt>
<rscale>  0 0.12500038E+03</rscale>
<asrwt>0</asrwt>
<pdfrwt beam="2">  1        4 0.67152675E-02 0.12500038E+03</pdfrwt>
<pdfrwt beam="1">  1       -4 0.13768056E-01 0.12500038E+03</pdfrwt>
<totfact> 0.10277304E+04</totfact>
</mgrwt>
</event>
<event>
 5    1  0.3398872E-002  0.1249952E+03  0.7818608E-02  0.1235077E+00
         -4   -1    0    0    0  501 -0.00000000000E+00  0.00000000000E+00  0.18482616709E+02  0.18526198218E+02  0.12700000000E+01 0.  1.
          4   -1    0    0  501    0  0.00000000000E+00 -0.00000000000E+00 -0.21103649821E+03  0.21104031955E+03  0.12700000000E+01 0.  1.
         25    2    1    2    0    0  0.00000000000E+00  0.00000000000E+00 -0.19255388150E+03  0.22956651777E+03  0.12499515510E+03 0.  0.
    9000005    1    3    3    0    0  0.22339014455E+02  0.51182370925E+01  0.10494642224E+02  0.25226284569E+02  0.10000000000E+01 0.  0.
    9000005    1    3    3    0    0 -0.22339014455E+02 -0.51182370925E+01 -0.20304852372E+03  0.20434023320E+03  0.10000000000E+01 0.  0.
<mgrwt>
<rscale>  0 0.12499516E+03</rscale>
<asrwt>0</asrwt>
<pdfrwt beam="2">  1        4 0.32470798E-01 0.12499516E+03</pdfrwt>
<pdfrwt beam="1">  1       -4 0.28471260E-02 0.12499516E+03</pdfrwt>
<totfact> 0.85385434E+03</totfact>
</mgrwt>
</event>
<event>
 5    1  0.3398872E-002  0.1250023E+03  0.7818608E-02  0.1235066E+00
          4   -1    0    0  501    0  0.00000000000E+00  0.00000000000E+00  0.23032704308E+04  0.23032707809E+04  0.12700000000E+01 0.  1.
         -4   -1    0    0    0  501 -0.00000000000E+00 -0.00000000000E+00 -0.14578720857E+01  0.19334660634E+01  0.12700000000E+01 0.  1.
         25    2    1    2    0    0  0.00000000000E+00  0.00000000000E+00  0.23018125587E+04  0.23052042470E+04  0.12500225963E+03 0.  0.
    9000005    1    3    3    0    0  0.61155266775E+02  0.52346479271E+01  0.13675605897E+04  0.13689376665E+04  0.10000000000E+01 0.  0.
    9000005    1    3    3    0    0 -0.61155266775E+02 -0.52346479271E+01  0.93425196898E+03  0.93626658048E+03  0.10000000000E+01 0.  0.
<mgrwt>
<rscale>  0 0.12500226E+03</rscale>
<asrwt>0</asrwt>
<pdfrwt beam="1">  1        4 0.35438637E+00 0.12500226E+03</pdfrwt>
<pdfrwt beam="2">  1       -4 0.26089876E-03 0.12500226E+03</pdfrwt>
<totfact> 0.63848722E+02</totfact>
</mgrwt>
</event>
<event>
 5    1  0.3398872E-002  0.1250029E+03  0.7818608E-02  0.1235065E+00
          4   -1    0    0  501    0  0.00000000000E+00  0.00000000000E+00  0.36284996168E+02  0.36307214805E+02  0.12700000000E+01 0.  1.
         -4   -1    0    0    0  501 -0.00000000000E+00 -0.00000000000E+00 -0.10760071068E+03  0.10760820526E+03  0.12700000000E+01 0.  1.
         25    2    1    2    0    0  0.00000000000E+00  0.00000000000E+00 -0.71315714510E+02  0.14391542006E+03  0.12500286795E+03 0.  0.
    9000005    1    3    3    0    0 -0.30363127768E+02  0.27616183240E+02 -0.89913831530E+02  0.98843665478E+02  0.10000000000E+01 0.  0.
    9000005    1    3    3    0    0  0.30363127768E+02 -0.27616183240E+02  0.18598117020E+02  0.45071754584E+02  0.10000000000E+01 0.  0.
<mgrwt>
<rscale>  0 0.12500287E+03</rscale>
<asrwt>0</asrwt>
<pdfrwt beam="1">  1        4 0.55845928E-02 0.12500287E+03</pdfrwt>
<pdfrwt beam="2">  1       -4 0.16556241E-01 0.12500287E+03</pdfrwt>
<totfact> 0.10052422E+04</totfact>
</mgrwt>
</event>
<event>
 5    1  0.3398872E-002  0.1250507E+03  0.7818608E-02  0.1234990E+00
         -4   -1    0    0    0  501 -0.00000000000E+00  0.00000000000E+00  0.21073486045E+02  0.21111719828E+02  0.12700000000E+01 0.  1.
          4   -1    0    0  501    0  0.00000000000E+00 -0.00000000000E+00 -0.18530514627E+03  0.18530949823E+03  0.12700000000E+01 0.  1.
         25    2    1    2    0    0  0.00000000000E+00  0.00000000000E+00 -0.16423166022E+03  0.20642121806E+03  0.12505071389E+03 0.  0.
    9000005    1    3    3    0    0 -0.49082404960E+02 -0.29711496022E+02 -0.41127755274E+02  0.70599913077E+02  0.10000000000E+01 0.  0.
    9000005    1    3    3    0    0  0.49082404960E+02  0.29711496022E+02 -0.12310390495E+03  0.13582130498E+03  0.10000000000E+01 0.  0.
<mgrwt>
<rscale>  0 0.12505071E+03</rscale>
<asrwt>0</asrwt>
<pdfrwt beam="2">  1        4 0.28511759E-01 0.12505071E+03</pdfrwt>
<pdfrwt beam="1">  1       -4 0.32453507E-02 0.12505071E+03</pdfrwt>
<totfact> 0.88962762E+03</totfact>
</mgrwt>
</event>
<event>
 5    1  0.3398872E-002  0.1249983E+03  0.7818608E-02  0.1235072E+00
         -4   -1    0    0    0  501 -0.00000000000E+00  0.00000000000E+00  0.20771988340E+02  0.20810776045E+02  0.12700000000E+01 0.  1.
          4   -1    0    0  501    0  0.00000000000E+00 -0.00000000000E+00 -0.18783221060E+03  0.18783650401E+03  0.12700000000E+01 0.  1.
         25    2    1    2    0    0  0.00000000000E+00  0.00000000000E+00 -0.16706022226E+03  0.20864728005E+03  0.12499827844E+03 0.  0.
    9000005    1    3    3    0    0  0.13836301813E+02  0.52350593981E+02 -0.31459741560E+02  0.62631807231E+02  0.10000000000E+01 0.  0.
    9000005    1    3    3    0    0 -0.13836301813E+02 -0.52350593981E+02 -0.13560048070E+03  0.14601547282E+03  0.10000000000E+01 0.  0.
<mgrwt>
<rscale>  0 0.12499828E+03</rscale>
<asrwt>0</asrwt>
<pdfrwt beam="2">  1        4 0.28900576E-01 0.12499828E+03</pdfrwt>
<pdfrwt beam="1">  1       -4 0.31990046E-02 0.12499828E+03</pdfrwt>
<totfact> 0.88700690E+03</totfact>
</mgrwt>
</event>
<event>
 5    1  0.3398872E-002  0.1250413E+03  0.7818608E-02  0.1235005E+00
          4   -1    0    0  501    0  0.00000000000E+00  0.00000000000E+00  0.33446076210E+02  0.33470179471E+02  0.12700000000E+01 0. -1.
         -4   -1    0    0    0  501 -0.00000000000E+00 -0.00000000000E+00 -0.11680009214E+03  0.11680699647E+03  0.12700000000E+01 0. -1.
         25    2    1    2    0    0  0.00000000000E+00  0.00000000000E+00 -0.83354015934E+02  0.15027717594E+03  0.12504134371E+03 0.  0.
    9000005    1    3    3    0    0 -0.32154344357E+02 -0.48567754490E+02 -0.68953442552E+02  0.90267967059E+02  0.10000000000E+01 0.  0.
    9000005    1    3    3    0    0  0.32154344357E+02  0.48567754490E+02 -0.14400573382E+02  0.60009208884E+02  0.10000000000E+01 0.  0.
<mgrwt>
<rscale>  0 0.12504134E+03</rscale>
<asrwt>0</asrwt>
<pdfrwt beam="1">  1        4 0.51479354E-02 0.12504134E+03</pdfrwt>
<pdfrwt beam="2">  1       -4 0.17971630E-01 0.12504134E+03</pdfrwt>
<totfact> 0.99156188E+03</totfact>
</mgrwt>
</event>
<event>
 5    1  0.3398872E-002  0.1249976E+03  0.7818608E-02  0.1235073E+00
          4   -1    0    0  501    0  0.00000000000E+00  0.00000000000E+00  0.30450511618E+03  0.30450776457E+03  0.12700000000E+01 0. -1.
         -4   -1    0    0    0  501 -0.00000000000E+00 -0.00000000000E+00 -0.12793555492E+02  0.12856436603E+02  0.12700000000E+01 0. -1.
         25    2    1    2    0    0  0.00000000000E+00  0.00000000000E+00  0.29171156069E+03  0.31736420117E+03  0.12499760615E+03 0.  0.
    9000005    1    3    3    0    0  0.17291484016E+02  0.59469947681E+02  0.16701164246E+03  0.17812792822E+03  0.10000000000E+01 0.  0.
    9000005    1    3    3    0    0 -0.17291484016E+02 -0.59469947681E+02  0.12469991823E+03  0.13923627295E+03  0.10000000000E+01 0.  0.
<mgrwt>
<rscale>  0 0.12499761E+03</rscale>
<asrwt>0</asrwt>
<pdfrwt beam="1">  1        4 0.46851976E-01 0.12499761E+03</pdfrwt>
<pdfrwt beam="2">  1       -4 0.19732803E-02 0.12499761E+03</pdfrwt>
<totfact> 0.73474621E+03</totfact>
</mgrwt>
</event>
<event>
 5    1  0.3398872E-002  0.1249949E+03  0.7818608E-02  0.1235077E+00
          4   -1    0    0  501    0  0.00000000000E+00  0.00000000000E+00  0.98108323567E+02  0.98116543218E+02  0.12700000000E+01 0.  1.
         -4   -1    0    0    0  501 -0.00000000000E+00 -0.00000000000E+00 -0.39792423928E+02  0.39812685190E+02  0.12700000000E+01 0.  1.
         25    2    1    2    0    0  0.00000000000E+00  0.00000000000E+00  0.58315899639E+02  0.13792922841E+03  0.12499491149E+03 0.  0.
    9000005    1    3    3    0    0  0.32906928584E+02  0.37740291785E+02 -0.12097052063E+02  0.51522172329E+02  0.10000000000E+01 0.  0.
    9000005    1    3    3    0    0 -0.32906928584E+02 -0.37740291785E+02  0.70412951702E+02  0.86407056079E+02  0.10000000000E+01 0.  0.
<mgrwt>
<rscale>  0 0.12499491E+03</rscale>
<asrwt>0</asrwt>
<pdfrwt beam="1">  1        4 0.15095779E-01 0.12499491E+03</pdfrwt>
<pdfrwt beam="2">  1       -4 0.61241023E-02 0.12499491E+03</pdfrwt>
<totfact> 0.10177852E+04</totfact>
</mgrwt>
</event>
<event>
 5    1  0.3398872E-002  0.1250126E+03  0.7818608E-02  0.1235050E+00
         -4   -1    0    0    0  501 -0.00000000000E+00  0.00000000000E+00  0.13316910880E+02  0.13377332148E+02  0.12700000000E+01 0. -1.
          4   -1    0    0  501    0  0.00000000000E+00 -0.00000000000E+00 -0.29266307797E+03  0.29266583351E+03  0.12700000000E+01 0. -1.
         25    2    1    2    0    0  0.00000000000E+00  0.00000000000E+00 -0.27934616709E+03  0.30604316566E+03  0.12501255209E+03 0.  0.
    9000005    1    3    3    0    0  0.21856136851E+02 -0.47450426604E+02 -0.22365398839E+03  0.22967659921E+03  0.10000000000E+01 0.  0.
    9000005    1    3    3    0    0 -0.21856136851E+02  0.47450426604E+02 -0.55692178695E+02  0.76366566446E+02  0.10000000000E+01 0.  0.
<mgrwt>
<rscale>  0 0.12501255E+03</rscale>
<asrwt>0</asrwt>
<pdfrwt beam="2">  1        4 0.45029944E-01 0.12501255E+03</pdfrwt>
<pdfrwt beam="1">  1       -4 0.20536155E-02 0.12501255E+03</pdfrwt>
<totfact> 0.74826152E+03</totfact>
</mgrwt>
</event>
<event>
 5    1  0.3398872E-002  0.1249983E+03  0.7818608E-02  0.1235072E+00
          4   -1    0    0  501    0  0.00000000000E+00  0.00000000000E+00  0.18036418015E+03  0.18036865133E+03  0.12700000000E+01 0. -1.
         -4   -1    0    0    0  501 -0.00000000000E+00 -0.00000000000E+00 -0.21633605798E+02  0.21670851387E+02  0.12700000000E+01 0. -1.
         25    2    1    2    0    0  0.00000000000E+00  0.00000000000E+00  0.15873057436E+03  0.20203950272E+03  0.12499826168E+03 0.  0.
    9000005    1    3    3    0    0  0.11964668657E+02  0.59219884890E+02  0.10517580374E+03  0.12129755874E+03  0.10000000000E+01 0.  0.
    9000005    1    3    3    0    0 -0.11964668657E+02 -0.59219884890E+02  0.53554770614E+02  0.80741943982E+02  0.10000000000E+01 0.  0.
<mgrwt>
<rscale>  0 0.12499826E+03</rscale>
<asrwt>0</asrwt>
<pdfrwt beam="1">  1        4 0.27751543E-01 0.12499826E+03</pdfrwt>
<pdfrwt beam="2">  1       -4 0.33314562E-02 0.12499826E+03</pdfrwt>
<totfact> 0.89796157E+03</totfact>
</mgrwt>
</event>
<event>
 5    1  0.3398872E-002  0.1250160E+03  0.7818608E-02  0.1235044E+00
          4   -1    0    0  501    0  0.00000000000E+00  0.00000000000E+00  0.12129814533E+02  0.12196118260E+02  0.12700000000E+01 0. -1.
         -4   -1    0    0    0  501 -0.00000000000E+00 -0.00000000000E+00 -0.32117374650E+03  0.32117625744E+03  0.12700000000E+01 0. -1.
         25    2    1    2    0    0  0.00000000000E+00  0.00000000000E+00 -0.30904393197E+03  0.33337237570E+03  0.12501595495E+03 0.  0.
    9000005    1    3    3    0    0 -0.30227455058E+02 -0.34216076967E+02 -0.26834115944E+03  0.27219922265E+03  0.10000000000E+01 0.  0.
    9000005    1    3    3    0    0  0.30227455058E+02  0.34216076967E+02 -0.40702772533E+02  0.61173153050E+02  0.10000000000E+01 0.  0.
<mgrwt>
<rscale>  0 0.12501595E+03</rscale>
<asrwt>0</asrwt>
<pdfrwt beam="1">  1        4 0.18714190E-02 0.12501595E+03</pdfrwt>
<pdfrwt beam="2">  1       -4 0.49416633E-01 0.12501595E+03</pdfrwt>
<totfact> 0.71568093E+03</totfact>
</mgrwt>
</event>
<event>
 5    1  0.3398872E-002  0.1250020E+03  0.7818608E-02  0.1235066E+00
          4   -1    0    0  501    0  0.00000000000E+00  0.00000000000E+00  0.16525474838E+03  0.16525962835E+03  0.12700000000E+01 0. -1.
         -4   -1    0    0    0  501 -0.00000000000E+00 -0.00000000000E+00 -0.23616202754E+02  0.23650326266E+02  0.12700000000E+01 0. -1.
         25    2    1    2    0    0  0.00000000000E+00  0.00000000000E+00  0.14163854563E+03  0.18890995462E+03  0.12500197337E+03 0.  0.
    9000005    1    3    3    0    0  0.80322678150E+01  0.58744256492E+02  0.10066297168E+03  0.11683081299E+03  0.10000000000E+01 0.  0.
    9000005    1    3    3    0    0 -0.80322678150E+01 -0.58744256492E+02  0.40975573948E+02  0.72079141625E+02  0.10000000000E+01 0.  0.
<mgrwt>
<rscale>  0 0.12500197E+03</rscale>
<asrwt>0</asrwt>
<pdfrwt beam="1">  1        4 0.25426809E-01 0.12500197E+03</pdfrwt>
<pdfrwt beam="2">  1       -4 0.36362620E-02 0.12500197E+03</pdfrwt>
<totfact> 0.92033255E+03</totfact>
</mgrwt>
</event>
<event>
 5    1  0.3398872E-002  0.1250008E+03  0.7818608E-02  0.1235068E+00
          4   -1    0    0  501    0  0.00000000000E+00  0.00000000000E+00  0.50473078064E+03  0.50473237842E+03  0.12700000000E+01 0.  1.
         -4   -1    0    0    0  501 -0.00000000000E+00 -0.00000000000E+00 -0.76856481039E+01  0.77898707805E+01  0.12700000000E+01 0.  1.
         25    2    1    2    0    0  0.00000000000E+00  0.00000000000E+00  0.49704513254E+03  0.51252224920E+03  0.12500076859E+03 0.  0.
    9000005    1    3    3    0    0  0.38058835976E+02  0.45246663636E+02  0.16554510997E+03  0.17578941664E+03  0.10000000000E+01 0.  0.
    9000005    1    3    3    0    0 -0.38058835976E+02 -0.45246663636E+02  0.33150002256E+03  0.33673283256E+03  0.10000000000E+01 0.  0.
<mgrwt>
<rscale>  0 0.12500077E+03</rscale>
<asrwt>0</asrwt>
<pdfrwt beam="1">  1        4 0.77659041E-01 0.12500077E+03</pdfrwt>
<pdfrwt beam="2">  1       -4 0.11905473E-02 0.12500077E+03</pdfrwt>
<totfact> 0.54904783E+03</totfact>
</mgrwt>
</event>
<event>
 5    1  0.3398872E-002  0.1249996E+03  0.7818608E-02  0.1235070E+00
         -4   -1    0    0    0  501 -0.00000000000E+00  0.00000000000E+00  0.12224141439E+03  0.12224801140E+03  0.12700000000E+01 0. -1.
          4   -1    0    0  501    0  0.00000000000E+00 -0.00000000000E+00 -0.31934944922E+02  0.31960187846E+02  0.12700000000E+01 0. -1.
         25    2    1    2    0    0  0.00000000000E+00  0.00000000000E+00  0.90306469467E+02  0.15420819925E+03  0.12499964115E+03 0.  0.
    9000005    1    3    3    0    0 -0.27660935423E+02  0.36989958710E+02  0.97082399801E+02  0.10751454202E+03  0.10000000000E+01 0.  0.
    9000005    1    3    3    0    0  0.27660935423E+02 -0.36989958710E+02 -0.67759303334E+01  0.46693657232E+02  0.10000000000E+01 0.  0.
<mgrwt>
<rscale>  0 0.12499964E+03</rscale>
<asrwt>0</asrwt>
<pdfrwt beam="2">  1        4 0.49155176E-02 0.12499964E+03</pdfrwt>
<pdfrwt beam="1">  1       -4 0.18808821E-01 0.12499964E+03</pdfrwt>
<totfact> 0.98471958E+03</totfact>
</mgrwt>
</event>
<event>
 5    1  0.3398872E-002  0.1249999E+03  0.7818608E-02  0.1235069E+00
          4   -1    0    0  501    0  0.00000000000E+00  0.00000000000E+00  0.21124427462E+03  0.21124809221E+03  0.12700000000E+01 0. -1.
         -4   -1    0    0    0  501 -0.00000000000E+00 -0.00000000000E+00 -0.18465814490E+02  0.18509435561E+02  0.12700000000E+01 0. -1.
         25    2    1    2    0    0  0.00000000000E+00  0.00000000000E+00  0.19277846013E+03  0.22975752777E+03  0.12499994750E+03 0.  0.
    9000005    1    3    3    0    0  0.13206498770E+02  0.12915149997E+02  0.20612060949E+03  0.20694907191E+03  0.10000000000E+01 0.  0.
    9000005    1    3    3    0    0 -0.13206498770E+02 -0.12915149997E+02 -0.13342149355E+02  0.22808455858E+02  0.10000000000E+01 0.  0.
<mgrwt>
<rscale>  0 0.12499995E+03</rscale>
<asrwt>0</asrwt>
<pdfrwt beam="1">  1        4 0.32502769E-01 0.12499995E+03</pdfrwt>
<pdfrwt beam="2">  1       -4 0.28445436E-02 0.12499995E+03</pdfrwt>
<totfact> 0.85346941E+03</totfact>
</mgrwt>
</event>
<event>
 5    1  0.3398872E-002  0.1249975E+03  0.7818608E-02  0.1235073E+00
          4   -1    0    0  501    0  0.00000000000E+00  0.00000000000E+00  0.35132020918E+03  0.35132250466E+03  0.12700000000E+01 0.  1.
         -4   -1    0    0    0  501 -0.00000000000E+00 -0.00000000000E+00 -0.11079722453E+02  0.11152271053E+02  0.12700000000E+01 0.  1.
         25    2    1    2    0    0  0.00000000000E+00  0.00000000000E+00  0.34024048673E+03  0.36247477571E+03  0.12499749685E+03 0.  0.
    9000005    1    3    3    0    0 -0.39032769381E+02  0.23018561205E+02  0.29490447593E+03  0.29836732591E+03  0.10000000000E+01 0.  0.
    9000005    1    3    3    0    0  0.39032769381E+02 -0.23018561205E+02  0.45336010804E+02  0.64107449810E+02  0.10000000000E+01 0.  0.
<mgrwt>
<rscale>  0 0.12499750E+03</rscale>
<asrwt>0</asrwt>
<pdfrwt beam="1">  1        4 0.54055009E-01 0.12499750E+03</pdfrwt>
<pdfrwt beam="2">  1       -4 0.17103303E-02 0.12499750E+03</pdfrwt>
<totfact> 0.68377425E+03</totfact>
</mgrwt>
</event>
<event>
 5    1  0.3398872E-002  0.1249980E+03  0.7818608E-02  0.1235072E+00
         -4   -1    0    0    0  501 -0.00000000000E+00  0.00000000000E+00  0.11200189664E+03  0.11200909674E+03  0.12700000000E+01 0.  1.
          4   -1    0    0  501    0  0.00000000000E+00 -0.00000000000E+00 -0.34855626242E+02  0.34878755435E+02  0.12700000000E+01 0.  1.
         25    2    1    2    0    0  0.00000000000E+00  0.00000000000E+00  0.77146270400E+02  0.14688785217E+03  0.12499797630E+03 0.  0.
    9000005    1    3    3    0    0  0.61521496552E+02 -0.91889907535E+01  0.31542858356E+02  0.69751587812E+02  0.10000000000E+01 0.  0.
    9000005    1    3    3    0    0 -0.61521496552E+02  0.91889907535E+01  0.45603412044E+02  0.77136264358E+02  0.10000000000E+01 0.  0.
<mgrwt>
<rscale>  0 0.12499798E+03</rscale>
<asrwt>0</asrwt>
<pdfrwt beam="2">  1        4 0.53647371E-02 0.12499798E+03</pdfrwt>
<pdfrwt beam="1">  1       -4 0.17233394E-01 0.12499798E+03</pdfrwt>
<totfact> 0.99932268E+03</totfact>
</mgrwt>
</event>
<event>
 5    1  0.3398872E-002  0.1250086E+03  0.7818608E-02  0.1235056E+00
          4   -1    0    0  501    0  0.00000000000E+00  0.00000000000E+00  0.12900593486E+02  0.12962955384E+02  0.12700000000E+01 0.  1.
         -4   -1    0    0    0  501 -0.00000000000E+00 -0.00000000000E+00 -0.30204373539E+03  0.30204640536E+03  0.12700000000E+01 0.  1.
         25    2    1    2    0    0  0.00000000000E+00  0.00000000000E+00 -0.28914314191E+03  0.31500936074E+03  0.12500856308E+03 0.  0.
    9000005    1    3    3    0    0 -0.59757308585E+02  0.10693742294E+02 -0.10715351203E+03  0.12315911332E+03  0.10000000000E+01 0.  0.
    9000005    1    3    3    0    0  0.59757308585E+02 -0.10693742294E+02 -0.18198962987E+03  0.19185024742E+03  0.10000000000E+01 0.  0.
<mgrwt>
<rscale>  0 0.12500856E+03</rscale>
<asrwt>0</asrwt>
<pdfrwt beam="1">  1        4 0.19897094E-02 0.12500856E+03</pdfrwt>
<pdfrwt beam="2">  1       -4 0.46473264E-01 0.12500856E+03</pdfrwt>
<totfact> 0.73739653E+03</totfact>
</mgrwt>
</event>
<event>
 5    1  0.3398872E-002  0.1250010E+03  0.7818608E-02  0.1235068E+00
          4   -1    0    0  501    0  0.00000000000E+00  0.00000000000E+00  0.75617322218E+03  0.75617428867E+03  0.12700000000E+01 0.  1.
         -4   -1    0    0    0  501 -0.00000000000E+00 -0.00000000000E+00 -0.50867574461E+01  0.52429000864E+01  0.12700000000E+01 0.  1.
         25    2    1    2    0    0  0.00000000000E+00  0.00000000000E+00  0.75108646473E+03  0.76141718875E+03  0.12500103129E+03 0.  0.
    9000005    1    3    3    0    0 -0.51291728693E+02 -0.75836773497E+01  0.16304888283E+03  0.17109731671E+03  0.10000000000E+01 0.  0.
    9000005    1    3    3    0    0  0.51291728693E+02  0.75836773497E+01  0.58803758191E+03  0.59031987204E+03  0.10000000000E+01 0.  0.
<mgrwt>
<rscale>  0 0.12500103E+03</rscale>
<asrwt>0</asrwt>
<pdfrwt beam="1">  1        4 0.11634644E+00 0.12500103E+03</pdfrwt>
<pdfrwt beam="2">  1       -4 0.79467107E-03 0.12500103E+03</pdfrwt>
<totfact> 0.40033014E+03</totfact>
</mgrwt>
</event>
<event>
 5    1  0.3398872E-002  0.1249973E+03  0.7818608E-02  0.1235074E+00
          4   -1    0    0  501    0  0.00000000000E+00  0.00000000000E+00  0.86276595468E+01  0.87206312418E+01  0.12700000000E+01 0. -1.
         -4   -1    0    0    0  501 -0.00000000000E+00 -0.00000000000E+00 -0.45021900558E+03  0.45022079681E+03  0.12700000000E+01 0. -1.
         25    2    1    2    0    0  0.00000000000E+00  0.00000000000E+00 -0.44159134603E+03  0.45894142806E+03  0.12499726995E+03 0.  0.
    9000005    1    3    3    0    0 -0.22275569242E+02  0.51775726155E+02 -0.31987155069E+03  0.32480107104E+03  0.10000000000E+01 0.  0.
    9000005    1    3    3    0    0  0.22275569242E+02 -0.51775726155E+02 -0.12171979534E+03  0.13414035702E+03  0.10000000000E+01 0.  0.
<mgrwt>
<rscale>  0 0.12499727E+03</rscale>
<asrwt>0</asrwt>
<pdfrwt beam="1">  1        4 0.13346220E-02 0.12499727E+03</pdfrwt>
<pdfrwt beam="2">  1       -4 0.69271734E-01 0.12499727E+03</pdfrwt>
<totfact> 0.59200518E+03</totfact>
</mgrwt>
</event>
<event>
 5    1  0.3398872E-002  0.1250056E+03  0.7818608E-02  0.1235060E+00
         -4   -1    0    0    0  501 -0.00000000000E+00  0.00000000000E+00  0.22914709996E+03  0.22915061929E+03  0.12700000000E+01 0.  1.
          4   -1    0    0  501    0  0.00000000000E+00 -0.00000000000E+00 -0.17021142007E+02  0.17068455560E+02  0.12700000000E+01 0.  1.
         25    2    1    2    0    0  0.00000000000E+00  0.00000000000E+00  0.21212595796E+03  0.24621907485E+03  0.12500564300E+03 0.  0.
    9000005    1    3    3    0    0  0.19355229040E+02 -0.59340153233E+02  0.99920906088E+02  0.11781793645E+03  0.10000000000E+01 0.  0.
    9000005    1    3    3    0    0 -0.19355229040E+02  0.59340153233E+02  0.11220505187E+03  0.12840113840E+03  0.10000000000E+01 0.  0.
<mgrwt>
<rscale>  0 0.12500564E+03</rscale>
<asrwt>0</asrwt>
<pdfrwt beam="2">  1        4 0.26225475E-02 0.12500564E+03</pdfrwt>
<pdfrwt beam="1">  1       -4 0.35257309E-01 0.12500564E+03</pdfrwt>
<totfact> 0.82869358E+03</totfact>
</mgrwt>
</event>
<event>
 5    1  0.3398872E-002  0.1250000E+03  0.7818608E-02  0.1235069E+00
         -4   -1    0    0    0  501 -0.00000000000E+00  0.00000000000E+00  0.10870353109E+03  0.10871094964E+03  0.12700000000E+01 0.  1.
          4   -1    0    0  501    0  0.00000000000E+00 -0.00000000000E+00 -0.35915030840E+02  0.35937478212E+02  0.12700000000E+01 0.  1.
         25    2    1    2    0    0  0.00000000000E+00  0.00000000000E+00  0.72788500248E+02  0.14464842785E+03  0.12500000764E+03 0.  0.
    9000005    1    3    3    0    0  0.28551920572E+01  0.55528529089E+02  0.33853756703E+01  0.55713826227E+02  0.10000000000E+01 0.  0.
    9000005    1    3    3    0    0 -0.28551920572E+01 -0.55528529089E+02  0.69403124578E+02  0.88934601622E+02  0.10000000000E+01 0.  0.
<mgrwt>
<rscale>  0 0.12500001E+03</rscale>
<asrwt>0</asrwt>
<pdfrwt beam="2">  1        4 0.55276869E-02 0.12500001E+03</pdfrwt>
<pdfrwt beam="1">  1       -4 0.16725917E-01 0.12500001E+03</pdfrwt>
<totfact> 0.10038135E+04</totfact>
</mgrwt>
</event>
<event>
 5    1  0.3398872E-002  0.1250095E+03  0.7818608E-02  0.1235054E+00
          4   -1    0    0  501    0  0.00000000000E+00  0.00000000000E+00  0.37735444609E+01  0.39815245570E+01  0.12700000000E+01 0. -1.
         -4   -1    0    0    0  501 -0.00000000000E+00 -0.00000000000E+00 -0.10073498739E+04  0.10073506745E+04  0.12700000000E+01 0. -1.
         25    2    1    2    0    0  0.00000000000E+00  0.00000000000E+00 -0.10035763295E+04  0.10113321990E+04  0.12500947072E+03 0.  0.
    9000005    1    3    3    0    0 -0.24917464109E+02  0.54268931881E+02 -0.35264912815E+03  0.35767080475E+03  0.10000000000E+01 0.  0.
    9000005    1    3    3    0    0  0.24917464109E+02 -0.54268931881E+02 -0.65092720131E+03  0.65366139429E+03  0.10000000000E+01 0.  0.
<mgrwt>
<rscale>  0 0.12500947E+03</rscale>
<asrwt>0</asrwt>
<pdfrwt beam="1">  1        4 0.59660616E-03 0.12500947E+03</pdfrwt>
<pdfrwt beam="2">  1       -4 0.15499275E+00 0.12500947E+03</pdfrwt>
<totfact> 0.30227007E+03</totfact>
</mgrwt>
</event>
<event>
 5    1  0.3398872E-002  0.1250009E+03  0.7818608E-02  0.1235068E+00
         -4   -1    0    0    0  501 -0.00000000000E+00  0.00000000000E+00  0.11737132450E+03  0.11737819522E+03  0.12700000000E+01 0. -1.
          4   -1    0    0  501    0  0.00000000000E+00 -0.00000000000E+00 -0.33261631127E+02  0.33285867951E+02  0.12700000000E+01 0. -1.
         25    2    1    2    0    0  0.00000000000E+00  0.00000000000E+00  0.84109693368E+02  0.15066406317E+03  0.12500087765E+03 0.  0.
    9000005    1    3    3    0    0 -0.22797078540E+01 -0.58089051972E+01  0.11700076842E+03  0.11717132865E+03  0.10000000000E+01 0.  0.
    9000005    1    3    3    0    0  0.22797078540E+01  0.58089051972E+01 -0.32891075053E+02  0.33492734520E+02  0.10000000000E+01 0.  0.
<mgrwt>
<rscale>  0 0.12500088E+03</rscale>
<asrwt>0</asrwt>
<pdfrwt beam="2">  1        4 0.51195669E-02 0.12500088E+03</pdfrwt>
<pdfrwt beam="1">  1       -4 0.18059520E-01 0.12500088E+03</pdfrwt>
<totfact> 0.99169533E+03</totfact>
</mgrwt>
</event>
<event>
 5    1  0.3398872E-002  0.1250001E+03  0.7818608E-02  0.1235069E+00
         -4   -1    0    0    0  501 -0.00000000000E+00  0.00000000000E+00  0.80870999111E+02  0.80880970550E+02  0.12700000000E+01 0.  1.
          4   -1    0    0  501    0  0.00000000000E+00 -0.00000000000E+00 -0.48281002399E+02  0.48297702768E+02  0.12700000000E+01 0.  1.
         25    2    1    2    0    0  0.00000000000E+00  0.00000000000E+00  0.32589996711E+02  0.12917867332E+03  0.12500008702E+03 0.  0.
    9000005    1    3    3    0    0  0.40588697682E+02  0.47431285514E+02  0.13356312867E+02  0.63847946862E+02  0.10000000000E+01 0.  0.
    9000005    1    3    3    0    0 -0.40588697682E+02 -0.47431285514E+02  0.19233683845E+02  0.65330726456E+02  0.10000000000E+01 0.  0.
<mgrwt>
<rscale>  0 0.12500009E+03</rscale>
<asrwt>0</asrwt>
<pdfrwt beam="2">  1        4 0.74298983E-02 0.12500009E+03</pdfrwt>
<pdfrwt beam="1">  1       -4 0.12443744E-01 0.12500009E+03</pdfrwt>
<totfact> 0.10362089E+04</totfact>
</mgrwt>
</event>
<event>
 5    1  0.3398872E-002  0.1250017E+03  0.7818608E-02  0.1235067E+00
          4   -1    0    0  501    0  0.00000000000E+00  0.00000000000E+00  0.27458888045E+02  0.27488241716E+02  0.12700000000E+01 0. -1.
         -4   -1    0    0    0  501 -0.00000000000E+00 -0.00000000000E+00 -0.14215378536E+03  0.14215945833E+03  0.12700000000E+01 0. -1.
         25    2    1    2    0    0  0.00000000000E+00  0.00000000000E+00 -0.11469489731E+03  0.16964770004E+03  0.12500169063E+03 0.  0.
    9000005    1    3    3    0    0 -0.39368230180E+02 -0.40246392173E+02 -0.94159511229E+02  0.10971163651E+03  0.10000000000E+01 0.  0.
    9000005    1    3    3    0    0  0.39368230180E+02  0.40246392173E+02 -0.20535386085E+02  0.59936063536E+02  0.10000000000E+01 0.  0.
<mgrwt>
<rscale>  0 0.12500169E+03</rscale>
<asrwt>0</asrwt>
<pdfrwt beam="1">  1        4 0.42271388E-02 0.12500169E+03</pdfrwt>
<pdfrwt beam="2">  1       -4 0.21872507E-01 0.12500169E+03</pdfrwt>
<totfact> 0.95510717E+03</totfact>
</mgrwt>
</event>
<event>
 5    1  0.3398872E-002  0.1249967E+03  0.7818608E-02  0.1235074E+00
          4   -1    0    0  501    0  0.00000000000E+00  0.00000000000E+00  0.21722599618E+02  0.21759692878E+02  0.12700000000E+01 0. -1.
         -4   -1    0    0    0  501 -0.00000000000E+00 -0.00000000000E+00 -0.17962212559E+03  0.17962661524E+03  0.12700000000E+01 0. -1.
         25    2    1    2    0    0  0.00000000000E+00  0.00000000000E+00 -0.15789952597E+03  0.20138630812E+03  0.12499673913E+03 0.  0.
    9000005    1    3    3    0    0 -0.59587053064E+02  0.17697246851E+02 -0.89295787964E+02  0.10880508806E+03  0.10000000000E+01 0.  0.
    9000005    1    3    3    0    0  0.59587053064E+02 -0.17697246851E+02 -0.68603738010E+02  0.92581220060E+02  0.10000000000E+01 0.  0.
<mgrwt>
<rscale>  0 0.12499674E+03</rscale>
<asrwt>0</asrwt>
<pdfrwt beam="1">  1        4 0.33451372E-02 0.12499674E+03</pdfrwt>
<pdfrwt beam="2">  1       -4 0.27637371E-01 0.12499674E+03</pdfrwt>
<totfact> 0.89908780E+03</totfact>
</mgrwt>
</event>
<event>
 5    1  0.3398872E-002  0.1249679E+03  0.7818608E-02  0.1235119E+00
          4   -1    0    0  501    0  0.00000000000E+00  0.00000000000E+00  0.10493290360E+03  0.10494058871E+03  0.12700000000E+01 0. -1.
         -4   -1    0    0    0  501 -0.00000000000E+00 -0.00000000000E+00 -0.37187149211E+02  0.37208829146E+02  0.12700000000E+01 0. -1.
         25    2    1    2    0    0  0.00000000000E+00  0.00000000000E+00  0.67745754390E+02  0.14214941785E+03  0.12496787490E+03 0.  0.
    9000005    1    3    3    0    0 -0.26002340672E+02  0.40578876554E+02  0.79093921176E+02  0.92626212865E+02  0.10000000000E+01 0.  0.
    9000005    1    3    3    0    0  0.26002340672E+02 -0.40578876554E+02 -0.11348166786E+02  0.49523204987E+02  0.10000000000E+01 0.  0.
<mgrwt>
<rscale>  0 0.12496787E+03</rscale>
<asrwt>0</asrwt>
<pdfrwt beam="1">  1        4 0.16145782E-01 0.12496787E+03</pdfrwt>
<pdfrwt beam="2">  1       -4 0.57233589E-02 0.12496787E+03</pdfrwt>
<totfact> 0.10096535E+04</totfact>
</mgrwt>
</event>
<event>
 5    1  0.3398872E-002  0.1249987E+03  0.7818608E-02  0.1235071E+00
          4   -1    0    0  501    0  0.00000000000E+00  0.00000000000E+00  0.18301674068E+03  0.18302114706E+03  0.12700000000E+01 0. -1.
         -4   -1    0    0    0  501 -0.00000000000E+00 -0.00000000000E+00 -0.21319688765E+02  0.21357481804E+02  0.12700000000E+01 0. -1.
         25    2    1    2    0    0  0.00000000000E+00  0.00000000000E+00  0.16169705192E+03  0.20437862886E+03  0.12499874934E+03 0.  0.
    9000005    1    3    3    0    0  0.78904115587E+01  0.47206154835E+02  0.14654586614E+03  0.15416669722E+03  0.10000000000E+01 0.  0.
    9000005    1    3    3    0    0 -0.78904115587E+01 -0.47206154835E+02  0.15151185780E+02  0.50211931644E+02  0.10000000000E+01 0.  0.
<mgrwt>
<rscale>  0 0.12499875E+03</rscale>
<asrwt>0</asrwt>
<pdfrwt beam="1">  1        4 0.28159668E-01 0.12499875E+03</pdfrwt>
<pdfrwt beam="2">  1       -4 0.32831982E-02 0.12499875E+03</pdfrwt>
<totfact> 0.89404733E+03</totfact>
</mgrwt>
</event>
<event>
 5    1  0.3398872E-002  0.1249646E+03  0.7818608E-02  0.1235125E+00
          4   -1    0    0  501    0  0.00000000000E+00  0.00000000000E+00  0.12592608389E+03  0.12593248788E+03  0.12700000000E+01 0. -1.
         -4   -1    0    0    0  501 -0.00000000000E+00 -0.00000000000E+00 -0.30982431553E+02  0.31008449896E+02  0.12700000000E+01 0. -1.
         25    2    1    2    0    0  0.00000000000E+00  0.00000000000E+00  0.94943652340E+02  0.15694093778E+03  0.12496463832E+03 0.  0.
    9000005    1    3    3    0    0 -0.40954803332E+02  0.26285911546E+02 -0.17292175027E+01  0.48705597778E+02  0.10000000000E+01 0.  0.
    9000005    1    3    3    0    0  0.40954803332E+02 -0.26285911546E+02  0.96672869842E+02  0.10823534000E+03  0.10000000000E+01 0.  0.
<mgrwt>
<rscale>  0 0.12496464E+03</rscale>
<asrwt>0</asrwt>
<pdfrwt beam="1">  1        4 0.19375738E-01 0.12496464E+03</pdfrwt>
<pdfrwt beam="2">  1       -4 0.47690220E-02 0.12496464E+03</pdfrwt>
<totfact> 0.98013721E+03</totfact>
</mgrwt>
</event>
<event>
 5    1  0.3398872E-002  0.1249970E+03  0.7818608E-02  0.1235074E+00
         -4   -1    0    0    0  501 -0.00000000000E+00  0.00000000000E+00  0.16759462964E+03  0.16759944148E+03  0.12700000000E+01 0.  1.
          4   -1    0    0  501    0  0.00000000000E+00 -0.00000000000E+00 -0.23284173798E+02  0.23318783190E+02  0.12700000000E+01 0.  1.
         25    2    1    2    0    0  0.00000000000E+00  0.00000000000E+00  0.14431045584E+03  0.19091822467E+03  0.12499704335E+03 0.  0.
    9000005    1    3    3    0    0  0.50043607409E+02  0.36567805321E+02  0.84326284896E+02  0.10465891913E+03  0.10000000000E+01 0.  0.
    9000005    1    3    3    0    0 -0.50043607409E+02 -0.36567805321E+02  0.59984170946E+02  0.86259305542E+02  0.10000000000E+01 0.  0.
<mgrwt>
<rscale>  0 0.12499704E+03</rscale>
<asrwt>0</asrwt>
<pdfrwt beam="2">  1        4 0.35852129E-02 0.12499704E+03</pdfrwt>
<pdfrwt beam="1">  1       -4 0.25786822E-01 0.12499704E+03</pdfrwt>
<totfact> 0.91693862E+03</totfact>
</mgrwt>
</event>
<event>
 4    1  0.3398872E-002  0.1252787E+03  0.7818608E-02  0.1234634E+00
          4   -1    0    0  501    0  0.00000000000E+00  0.00000000000E+00  0.20618323536E+02  0.20657399774E+02  0.12700000000E+01 0. -1.
         -4   -1    0    0    0  501 -0.00000000000E+00 -0.00000000000E+00 -0.19007976002E+03  0.19008400266E+03  0.12700000000E+01 0. -1.
    9000005    1    1    2    0    0  0.18324353826E+02  0.52860167076E+02 -0.13209270648E+03  0.14345543668E+03  0.10000000000E+01 0.  0.
    9000005    1    1    2    0    0 -0.18324353826E+02 -0.52860167076E+02 -0.37368730000E+02  0.67285965760E+02  0.10000000000E+01 0.  0.
<mgrwt>
<rscale>  0 0.12527873E+03</rscale>
<asrwt>0</asrwt>
<pdfrwt beam="1">  1        4 0.31753821E-02 0.12527873E+03</pdfrwt>
<pdfrwt beam="2">  1       -4 0.29246371E-01 0.12527873E+03</pdfrwt>
<totfact> 0.87806649E+03</totfact>
</mgrwt>
</event>
<event>
 5    1  0.3398872E-002  0.1250006E+03  0.7818608E-02  0.1235068E+00
         -4   -1    0    0    0  501 -0.00000000000E+00  0.00000000000E+00  0.49252131975E+03  0.49252295713E+03  0.12700000000E+01 0. -1.
          4   -1    0    0  501    0  0.00000000000E+00 -0.00000000000E+00 -0.78787083556E+01  0.79804100993E+01  0.12700000000E+01 0. -1.
         25    2    1    2    0    0  0.00000000000E+00  0.00000000000E+00  0.48464261139E+03  0.50050336723E+03  0.12500063935E+03 0.  0.
    9000005    1    3    3    0    0  0.13844564693E+02 -0.43926427407E+02  0.41144434672E+03  0.41401528165E+03  0.10000000000E+01 0.  0.
    9000005    1    3    3    0    0 -0.13844564693E+02  0.43926427407E+02  0.73198264672E+02  0.86488085580E+02  0.10000000000E+01 0.  0.
<mgrwt>
<rscale>  0 0.12500064E+03</rscale>
<asrwt>0</asrwt>
<pdfrwt beam="2">  1        4 0.12200579E-02 0.12500064E+03</pdfrwt>
<pdfrwt beam="1">  1       -4 0.75780476E-01 0.12500064E+03</pdfrwt>
<totfact> 0.55824538E+03</totfact>
</mgrwt>
</event>
<event>
 5    1  0.3398872E-002  0.1249982E+03  0.7818608E-02  0.1235072E+00
         -4   -1    0    0    0  501 -0.00000000000E+00  0.00000000000E+00  0.87844265759E+02  0.87853445731E+02  0.12700000000E+01 0. -1.
          4   -1    0    0  501    0  0.00000000000E+00 -0.00000000000E+00 -0.44446017417E+02  0.44464158198E+02  0.12700000000E+01 0. -1.
         25    2    1    2    0    0  0.00000000000E+00  0.00000000000E+00  0.43398248342E+02  0.13231760393E+03  0.12499816139E+03 0.  0.
    9000005    1    3    3    0    0  0.33559973727E+02 -0.15200590759E+02 -0.31732345574E+02  0.48634057528E+02  0.10000000000E+01 0.  0.
    9000005    1    3    3    0    0 -0.33559973727E+02  0.15200590759E+02  0.75130593916E+02  0.83683546401E+02  0.10000000000E+01 0.  0.
<mgrwt>
<rscale>  0 0.12499816E+03</rscale>
<asrwt>0</asrwt>
<pdfrwt beam="2">  1        4 0.68399505E-02 0.12499816E+03</pdfrwt>
<pdfrwt beam="1">  1       -4 0.13516604E-01 0.12499816E+03</pdfrwt>
<totfact> 0.10295351E+04</totfact>
</mgrwt>
</event>
<event>
 5    1  0.3398872E-002  0.1250014E+03  0.7818608E-02  0.1235067E+00
         -4   -1    0    0    0  501 -0.00000000000E+00  0.00000000000E+00  0.16677412807E+03  0.16677896358E+03  0.12700000000E+01 0. -1.
          4   -1    0    0  501    0  0.00000000000E+00 -0.00000000000E+00 -0.23400533923E+02  0.23434971472E+02  0.12700000000E+01 0. -1.
         25    2    1    2    0    0  0.00000000000E+00  0.00000000000E+00  0.14337359415E+03  0.19021393506E+03  0.12500141435E+03 0.  0.
    9000005    1    3    3    0    0 -0.11207259195E+02  0.35036267541E+02  0.14856166615E+03  0.15305133567E+03  0.10000000000E+01 0.  0.
    9000005    1    3    3    0    0  0.11207259195E+02 -0.35036267541E+02 -0.51880720010E+01  0.37162599384E+02  0.10000000000E+01 0.  0.
<mgrwt>
<rscale>  0 0.12500141E+03</rscale>
<asrwt>0</asrwt>
<pdfrwt beam="2">  1        4 0.36031031E-02 0.12500141E+03</pdfrwt>
<pdfrwt beam="1">  1       -4 0.25660580E-01 0.12500141E+03</pdfrwt>
<totfact> 0.91807194E+03</totfact>
</mgrwt>
</event>
<event>
 5    1  0.3398872E-002  0.1249971E+03  0.7818608E-02  0.1235074E+00
         -4   -1    0    0    0  501 -0.00000000000E+00  0.00000000000E+00  0.58486201244E+02  0.58499988341E+02  0.12700000000E+01 0.  1.
          4   -1    0    0  501    0  0.00000000000E+00 -0.00000000000E+00 -0.66758435637E+02  0.66770514665E+02  0.12700000000E+01 0.  1.
         25    2    1    2    0    0  0.00000000000E+00  0.00000000000E+00 -0.82722343928E+01  0.12527050301E+03  0.12499707621E+03 0.  0.
    9000005    1    3    3    0    0 -0.38801972045E+02  0.17751915579E+02 -0.49890598482E+02  0.65656647479E+02  0.10000000000E+01 0.  0.
    9000005    1    3    3    0    0  0.38801972045E+02 -0.17751915579E+02  0.41618364089E+02  0.59613855527E+02  0.10000000000E+01 0.  0.
<mgrwt>
<rscale>  0 0.12499708E+03</rscale>
<asrwt>0</asrwt>
<pdfrwt beam="2">  1        4 0.10272518E-01 0.12499708E+03</pdfrwt>
<pdfrwt beam="1">  1       -4 0.89998668E-02 0.12499708E+03</pdfrwt>
<totfact> 0.10447680E+04</totfact>
</mgrwt>
</event>
<event>
 5    1  0.3398872E-002  0.1250018E+03  0.7818608E-02  0.1235066E+00
          4   -1    0    0  501    0  0.00000000000E+00  0.00000000000E+00  0.39588086271E+02  0.39608452060E+02  0.12700000000E+01 0. -1.
         -4   -1    0    0    0  501 -0.00000000000E+00 -0.00000000000E+00 -0.98625346599E+02  0.98633523164E+02  0.12700000000E+01 0. -1.
         25    2    1    2    0    0  0.00000000000E+00  0.00000000000E+00 -0.59037260328E+02  0.13824197522E+03  0.12500178241E+03 0.  0.
    9000005    1    3    3    0    0 -0.43168325529E+02 -0.11789649712E+02  0.18723589722E+02  0.48518789983E+02  0.10000000000E+01 0.  0.
    9000005    1    3    3    0    0  0.43168325529E+02  0.11789649712E+02 -0.77760850050E+02  0.89723185241E+02  0.10000000000E+01 0.  0.
<mgrwt>
<rscale>  0 0.12500178E+03</rscale>
<asrwt>0</asrwt>
<pdfrwt beam="1">  1        4 0.60926704E-02 0.12500178E+03</pdfrwt>
<pdfrwt beam="2">  1       -4 0.15175326E-01 0.12500178E+03</pdfrwt>
<totfact> 0.10169744E+04</totfact>
</mgrwt>
</event>
<event>
 5    1  0.3398872E-002  0.1250081E+03  0.7818608E-02  0.1235057E+00
         -4   -1    0    0    0  501 -0.00000000000E+00  0.00000000000E+00  0.16785840433E+02  0.16833815344E+02  0.12700000000E+01 0.  1.
          4   -1    0    0  501    0  0.00000000000E+00 -0.00000000000E+00 -0.23235918091E+03  0.23236265159E+03  0.12700000000E+01 0.  1.
         25    2    1    2    0    0  0.00000000000E+00  0.00000000000E+00 -0.21557334048E+03  0.24919646694E+03  0.12500805577E+03 0.  0.
    9000005    1    3    3    0    0  0.23104014073E+02  0.34742856410E+02 -0.20053839497E+03  0.20483532263E+03  0.10000000000E+01 0.  0.
    9000005    1    3    3    0    0 -0.23104014073E+02 -0.34742856410E+02 -0.15034945508E+02  0.44361144308E+02  0.10000000000E+01 0.  0.
<mgrwt>
<rscale>  0 0.12500806E+03</rscale>
<asrwt>0</asrwt>
<pdfrwt beam="2">  1        4 0.35751521E-01 0.12500806E+03</pdfrwt>
<pdfrwt beam="1">  1       -4 0.25863945E-02 0.12500806E+03</pdfrwt>
<totfact> 0.82431709E+03</totfact>
</mgrwt>
</event>
<event>
 5    1  0.3398872E-002  0.1249992E+03  0.7818608E-02  0.1235071E+00
         -4   -1    0    0    0  501 -0.00000000000E+00  0.00000000000E+00  0.41808573552E+01  0.43694929024E+01  0.12700000000E+01 0. -1.
          4   -1    0    0  501    0  0.00000000000E+00 -0.00000000000E+00 -0.91350474040E+03  0.91350562321E+03  0.12700000000E+01 0. -1.
         25    2    1    2    0    0  0.00000000000E+00  0.00000000000E+00 -0.90932388305E+03  0.91787511611E+03  0.12499921800E+03 0.  0.
    9000005    1    3    3    0    0 -0.30322371614E+01 -0.61980733953E+02 -0.40050465282E+03  0.40528481686E+03  0.10000000000E+01 0.  0.
    9000005    1    3    3    0    0  0.30322371614E+01  0.61980733953E+02 -0.50881923022E+03  0.51259029925E+03  0.10000000000E+01 0.  0.
<mgrwt>
<rscale>  0 0.12499922E+03</rscale>
<asrwt>0</asrwt>
<pdfrwt beam="2">  1        4 0.14055361E+00 0.12499922E+03</pdfrwt>
<pdfrwt beam="1">  1       -4 0.65778788E-03 0.12499922E+03</pdfrwt>
<totfact> 0.33485257E+03</totfact>
</mgrwt>
</event>
<event>
 5    1  0.3398872E-002  0.1249958E+03  0.7818608E-02  0.1235076E+00
         -4   -1    0    0    0  501 -0.00000000000E+00  0.00000000000E+00  0.12943913461E+02  0.13006067649E+02  0.12700000000E+01 0. -1.
          4   -1    0    0  501    0  0.00000000000E+00 -0.00000000000E+00 -0.30097605227E+03  0.30097873170E+03  0.12700000000E+01 0. -1.
         25    2    1    2    0    0  0.00000000000E+00  0.00000000000E+00 -0.28803213881E+03  0.31398479935E+03  0.12499576489E+03 0.  0.
    9000005    1    3    3    0    0  0.25452900055E+02  0.28644650712E+02 -0.20020218351E+02  0.43245523219E+02  0.10000000000E+01 0.  0.
    9000005    1    3    3    0    0 -0.25452900055E+02 -0.28644650712E+02 -0.26801192046E+03  0.27073927613E+03  0.10000000000E+01 0.  0.
<mgrwt>
<rscale>  0 0.12499576E+03</rscale>
<asrwt>0</asrwt>
<pdfrwt beam="2">  1        4 0.46308990E-01 0.12499576E+03</pdfrwt>
<pdfrwt beam="1">  1       -4 0.19963587E-02 0.12499576E+03</pdfrwt>
<totfact> 0.73884252E+03</totfact>
</mgrwt>
</event>
<event>
 5    1  0.3398872E-002  0.1249996E+03  0.7818608E-02  0.1235070E+00
         -4   -1    0    0    0  501 -0.00000000000E+00  0.00000000000E+00  0.12971457167E+03  0.12972078863E+03  0.12700000000E+01 0. -1.
          4   -1    0    0  501    0  0.00000000000E+00 -0.00000000000E+00 -0.30093661634E+02  0.30120447715E+02  0.12700000000E+01 0. -1.
         25    2    1    2    0    0  0.00000000000E+00  0.00000000000E+00  0.99620910033E+02  0.15984123634E+03  0.12499958048E+03 0.  0.
    9000005    1    3    3    0    0 -0.25551761803E+01  0.57658866090E+02  0.80450751639E+02  0.99017156106E+02  0.10000000000E+01 0.  0.
    9000005    1    3    3    0    0  0.25551761803E+01 -0.57658866090E+02  0.19170158394E+02  0.60824080239E+02  0.10000000000E+01 0.  0.
<mgrwt>
<rscale>  0 0.12499958E+03</rscale>
<asrwt>0</asrwt>
<pdfrwt beam="2">  1        4 0.46323328E-02 0.12499958E+03</pdfrwt>
<pdfrwt beam="1">  1       -4 0.19958627E-01 0.12499958E+03</pdfrwt>
<totfact> 0.97374320E+03</totfact>
</mgrwt>
</event>
<event>
 5    1  0.3398872E-002  0.1250018E+03  0.7818608E-02  0.1235066E+00
         -4   -1    0    0    0  501 -0.00000000000E+00  0.00000000000E+00  0.45266747851E+02  0.45284559852E+02  0.12700000000E+01 0.  1.
          4   -1    0    0  501    0  0.00000000000E+00 -0.00000000000E+00 -0.86257062819E+02  0.86266411692E+02  0.12700000000E+01 0.  1.
         25    2    1    2    0    0  0.00000000000E+00  0.00000000000E+00 -0.40990314968E+02  0.13155097154E+03  0.12500180876E+03 0.  0.
    9000005    1    3    3    0    0  0.37119549860E+01 -0.14785612141E+02  0.43285128140E+02  0.45902017976E+02  0.10000000000E+01 0.  0.
    9000005    1    3    3    0    0 -0.37119549860E+01  0.14785612141E+02 -0.84275443108E+02  0.85648953568E+02  0.10000000000E+01 0.  0.
<mgrwt>
<rscale>  0 0.12500181E+03</rscale>
<asrwt>0</asrwt>
<pdfrwt beam="2">  1        4 0.13272407E-01 0.12500181E+03</pdfrwt>
<pdfrwt beam="1">  1       -4 0.69662043E-02 0.12500181E+03</pdfrwt>
<totfact> 0.10310871E+04</totfact>
</mgrwt>
</event>
<event>
 5    1  0.3398872E-002  0.1250003E+03  0.7818608E-02  0.1235069E+00
         -4   -1    0    0    0  501 -0.00000000000E+00  0.00000000000E+00  0.24236383932E+03  0.24236716673E+03  0.12700000000E+01 0.  1.
          4   -1    0    0  501    0  0.00000000000E+00 -0.00000000000E+00 -0.16088917129E+02  0.16138963857E+02  0.12700000000E+01 0.  1.
         25    2    1    2    0    0  0.00000000000E+00  0.00000000000E+00  0.22627492219E+03  0.25850613059E+03  0.12500031656E+03 0.  0.
    9000005    1    3    3    0    0  0.53201281375E+02 -0.29155121720E+02  0.14414931553E+03  0.15639828206E+03  0.10000000000E+01 0.  0.
    9000005    1    3    3    0    0 -0.53201281375E+02  0.29155121720E+02  0.82125606659E+02  0.10210784853E+03  0.10000000000E+01 0.  0.
<mgrwt>
<rscale>  0 0.12500032E+03</rscale>
<asrwt>0</asrwt>
<pdfrwt beam="2">  1        4 0.24793238E-02 0.12500032E+03</pdfrwt>
<pdfrwt beam="1">  1       -4 0.37290849E-01 0.12500032E+03</pdfrwt>
<totfact> 0.81115590E+03</totfact>
</mgrwt>
</event>
<event>
 5    1  0.3398872E-002  0.1249933E+03  0.7818608E-02  0.1235080E+00
         -4   -1    0    0    0  501 -0.00000000000E+00  0.00000000000E+00  0.92301671358E+02  0.92310408056E+02  0.12700000000E+01 0. -1.
          4   -1    0    0  501    0  0.00000000000E+00 -0.00000000000E+00 -0.42295693894E+02  0.42314756551E+02  0.12700000000E+01 0. -1.
         25    2    1    2    0    0  0.00000000000E+00  0.00000000000E+00  0.50005977464E+02  0.13462516461E+03  0.12499334848E+03 0.  0.
    9000005    1    3    3    0    0  0.32282438826E+02  0.27707116881E+02 -0.24295175543E+02  0.49000976899E+02  0.10000000000E+01 0.  0.
    9000005    1    3    3    0    0 -0.32282438826E+02 -0.27707116881E+02  0.74301153007E+02  0.85624187707E+02  0.10000000000E+01 0.  0.
<mgrwt>
<rscale>  0 0.12499335E+03</rscale>
<asrwt>0</asrwt>
<pdfrwt beam="2">  1        4 0.65091683E-02 0.12499335E+03</pdfrwt>
<pdfrwt beam="1">  1       -4 0.14202395E-01 0.12499335E+03</pdfrwt>
<totfact> 0.10247515E+04</totfact>
</mgrwt>
</event>
<event>
 5    1  0.3398872E-002  0.1249860E+03  0.7818608E-02  0.1235091E+00
         -4   -1    0    0    0  501 -0.00000000000E+00  0.00000000000E+00  0.39113520598E+03  0.39113726779E+03  0.12700000000E+01 0.  1.
          4   -1    0    0  501    0  0.00000000000E+00 -0.00000000000E+00 -0.99422440181E+01  0.10023029288E+02  0.12700000000E+01 0.  1.
         25    2    1    2    0    0  0.00000000000E+00  0.00000000000E+00  0.38119296196E+03  0.40116029708E+03  0.12498603804E+03 0.  0.
    9000005    1    3    3    0    0 -0.21821972946E+02 -0.54105783882E+02  0.11877341866E+03  0.13233200419E+03  0.10000000000E+01 0.  0.
    9000005    1    3    3    0    0  0.21821972946E+02  0.54105783882E+02  0.26241954329E+03  0.26882829289E+03  0.10000000000E+01 0.  0.
<mgrwt>
<rscale>  0 0.12498604E+03</rscale>
<asrwt>0</asrwt>
<pdfrwt beam="2">  1        4 0.15359490E-02 0.12498604E+03</pdfrwt>
<pdfrwt beam="1">  1       -4 0.60181013E-01 0.12498604E+03</pdfrwt>
<totfact> 0.64459964E+03</totfact>
</mgrwt>
</event>
<event>
 5    1  0.3398872E-002  0.1249999E+03  0.7818608E-02  0.1235069E+00
         -4   -1    0    0    0  501 -0.00000000000E+00  0.00000000000E+00  0.12333539264E+03  0.12334193114E+03  0.12700000000E+01 0.  1.
          4   -1    0    0  501    0  0.00000000000E+00 -0.00000000000E+00 -0.31651628104E+02  0.31677096799E+02  0.12700000000E+01 0.  1.
         25    2    1    2    0    0  0.00000000000E+00  0.00000000000E+00  0.91683764537E+02  0.15501902794E+03  0.12499994538E+03 0.  0.
    9000005    1    3    3    0    0  0.12322737929E+02  0.17352913247E+02  0.11870835706E+03  0.12060533780E+03  0.10000000000E+01 0.  0.
    9000005    1    3    3    0    0 -0.12322737929E+02 -0.17352913247E+02 -0.27024592526E+02  0.34413690145E+02  0.10000000000E+01 0.  0.
<mgrwt>
<rscale>  0 0.12499995E+03</rscale>
<asrwt>0</asrwt>
<pdfrwt beam="2">  1        4 0.48719434E-02 0.12499995E+03</pdfrwt>
<pdfrwt beam="1">  1       -4 0.18977138E-01 0.12499995E+03</pdfrwt>
<totfact> 0.98311884E+03</totfact>
</mgrwt>
</event>
<event>
 5    1  0.3398872E-002  0.1249963E+03  0.7818608E-02  0.1235075E+00
          4   -1    0    0  501    0  0.00000000000E+00  0.00000000000E+00  0.28288753836E+03  0.28289038913E+03  0.12700000000E+01 0.  1.
         -4   -1    0    0    0  501 -0.00000000000E+00 -0.00000000000E+00 -0.13775535962E+02  0.13833954281E+02  0.12700000000E+01 0.  1.
         25    2    1    2    0    0  0.00000000000E+00  0.00000000000E+00  0.26911200240E+03  0.29672434341E+03  0.12499626449E+03 0.  0.
    9000005    1    3    3    0    0  0.12428813210E+02 -0.16145392479E+02 -0.56803516675E+01  0.21175823271E+02  0.10000000000E+01 0.  0.
    9000005    1    3    3    0    0 -0.12428813210E+02  0.16145392479E+02  0.27479235407E+03  0.27554852014E+03  0.10000000000E+01 0.  0.
<mgrwt>
<rscale>  0 0.12499626E+03</rscale>
<asrwt>0</asrwt>
<pdfrwt beam="1">  1        4 0.43525871E-01 0.12499626E+03</pdfrwt>
<pdfrwt beam="2">  1       -4 0.21240263E-02 0.12499626E+03</pdfrwt>
<totfact> 0.76017881E+03</totfact>
</mgrwt>
</event>
<event>
 5    1  0.3398872E-002  0.1250045E+03  0.7818608E-02  0.1235062E+00
          4   -1    0    0  501    0  0.00000000000E+00  0.00000000000E+00  0.12064820658E+02  0.12131479609E+02  0.12700000000E+01 0. -1.
         -4   -1    0    0    0  501 -0.00000000000E+00 -0.00000000000E+00 -0.32283549363E+03  0.32283799164E+03  0.12700000000E+01 0. -1.
         25    2    1    2    0    0  0.00000000000E+00  0.00000000000E+00 -0.31077067297E+03  0.33496947125E+03  0.12500454188E+03 0.  0.
    9000005    1    3    3    0    0 -0.33075622155E+02  0.52763643866E+02 -0.14132415545E+03  0.15443935965E+03  0.10000000000E+01 0.  0.
    9000005    1    3    3    0    0  0.33075622155E+02 -0.52763643866E+02 -0.16944651753E+03  0.18053011161E+03  0.10000000000E+01 0.  0.
<mgrwt>
<rscale>  0 0.12500454E+03</rscale>
<asrwt>0</asrwt>
<pdfrwt beam="1">  1        4 0.18614463E-02 0.12500454E+03</pdfrwt>
<pdfrwt beam="2">  1       -4 0.49672312E-01 0.12500454E+03</pdfrwt>
<totfact> 0.71403198E+03</totfact>
</mgrwt>
</event>
<event>
 5    1  0.3398872E-002  0.1250023E+03  0.7818608E-02  0.1235066E+00
          4   -1    0    0  501    0  0.00000000000E+00  0.00000000000E+00  0.21872718992E+03  0.21873087690E+03  0.12700000000E+01 0.  1.
         -4   -1    0    0    0  501 -0.00000000000E+00 -0.00000000000E+00 -0.17833232729E+02  0.17878397287E+02  0.12700000000E+01 0.  1.
         25    2    1    2    0    0  0.00000000000E+00  0.00000000000E+00  0.20089395719E+03  0.23660927419E+03  0.12500226637E+03 0.  0.
    9000005    1    3    3    0    0  0.16375367659E+02 -0.37480541688E+02  0.18988136876E+03  0.19423922846E+03  0.10000000000E+01 0.  0.
    9000005    1    3    3    0    0 -0.16375367659E+02  0.37480541688E+02  0.11012588434E+02  0.42370045731E+02  0.10000000000E+01 0.  0.
<mgrwt>
<rscale>  0 0.12500227E+03</rscale>
<asrwt>0</asrwt>
<pdfrwt beam="1">  1        4 0.33654094E-01 0.12500227E+03</pdfrwt>
<pdfrwt beam="2">  1       -4 0.27473321E-02 0.12500227E+03</pdfrwt>
<totfact> 0.84300700E+03</totfact>
</mgrwt>
</event>
<event>
 5    1  0.3398872E-002  0.1249828E+03  0.7818608E-02  0.1235096E+00
          4   -1    0    0  501    0  0.00000000000E+00  0.00000000000E+00  0.15593164028E+02  0.15644796720E+02  0.12700000000E+01 0.  1.
         -4   -1    0    0    0  501 -0.00000000000E+00 -0.00000000000E+00 -0.24997420111E+03  0.24997742722E+03  0.12700000000E+01 0.  1.
         25    2    1    2    0    0  0.00000000000E+00  0.00000000000E+00 -0.23438103708E+03  0.26562222394E+03  0.12498278005E+03 0.  0.
    9000005    1    3    3    0    0  0.18177622549E+02 -0.59114658127E+02 -0.98276200320E+02  0.11612140335E+03  0.10000000000E+01 0.  0.
    9000005    1    3    3    0    0 -0.18177622549E+02  0.59114658127E+02 -0.13610483676E+03  0.14950082059E+03  0.10000000000E+01 0.  0.
<mgrwt>
<rscale>  0 0.12498278E+03</rscale>
<asrwt>0</asrwt>
<pdfrwt beam="1">  1        4 0.24031684E-02 0.12498278E+03</pdfrwt>
<pdfrwt beam="2">  1       -4 0.38461786E-01 0.12498278E+03</pdfrwt>
<totfact> 0.80154188E+03</totfact>
</mgrwt>
</event>
<event>
 5    1  0.3398872E-002  0.1249979E+03  0.7818608E-02  0.1235072E+00
          4   -1    0    0  501    0  0.00000000000E+00  0.00000000000E+00  0.26605623224E+03  0.26605926335E+03  0.12700000000E+01 0. -1.
         -4   -1    0    0    0  501 -0.00000000000E+00 -0.00000000000E+00 -0.14650979501E+02  0.14705920588E+02  0.12700000000E+01 0. -1.
         25    2    1    2    0    0  0.00000000000E+00  0.00000000000E+00  0.25140525274E+03  0.28076518394E+03  0.12499794961E+03 0.  0.
    9000005    1    3    3    0    0 -0.49916714127E+02  0.37391008059E+02  0.13450459220E+03  0.14826412633E+03  0.10000000000E+01 0.  0.
    9000005    1    3    3    0    0  0.49916714127E+02 -0.37391008059E+02  0.11690066054E+03  0.13250105761E+03  0.10000000000E+01 0.  0.
<mgrwt>
<rscale>  0 0.12499795E+03</rscale>
<asrwt>0</asrwt>
<pdfrwt beam="1">  1        4 0.40936186E-01 0.12499795E+03</pdfrwt>
<pdfrwt beam="2">  1       -4 0.22584563E-02 0.12499795E+03</pdfrwt>
<totfact> 0.78080315E+03</totfact>
</mgrwt>
</event>
<event>
 5    1  0.3398872E-002  0.1250017E+03  0.7818608E-02  0.1235067E+00
         -4   -1    0    0    0  501 -0.00000000000E+00  0.00000000000E+00  0.38415697854E+02  0.38436684841E+02  0.12700000000E+01 0.  1.
          4   -1    0    0  501    0  0.00000000000E+00 -0.00000000000E+00 -0.10163375126E+03  0.10164168582E+03  0.12700000000E+01 0.  1.
         25    2    1    2    0    0  0.00000000000E+00  0.00000000000E+00 -0.63218053408E+02  0.14007837066E+03  0.12500171059E+03 0.  0.
    9000005    1    3    3    0    0 -0.54104088826E+02  0.31209979079E+02 -0.33861899413E+02  0.71055917795E+02  0.10000000000E+01 0.  0.
    9000005    1    3    3    0    0  0.54104088826E+02 -0.31209979079E+02 -0.29356153995E+02  0.69022452863E+02  0.10000000000E+01 0.  0.
<mgrwt>
<rscale>  0 0.12500171E+03</rscale>
<asrwt>0</asrwt>
<pdfrwt beam="2">  1        4 0.15638186E-01 0.12500171E+03</pdfrwt>
<pdfrwt beam="1">  1       -4 0.59123321E-02 0.12500171E+03</pdfrwt>
<totfact> 0.10131571E+04</totfact>
</mgrwt>
</event>
<event>
 5    1  0.3398872E-002  0.1250006E+03  0.7818608E-02  0.1235068E+00
          4   -1    0    0  501    0  0.00000000000E+00  0.00000000000E+00  0.62925206465E+03  0.62925334625E+03  0.12700000000E+01 0.  1.
         -4   -1    0    0    0  501 -0.00000000000E+00 -0.00000000000E+00 -0.61415750406E+01  0.62715105022E+01  0.12700000000E+01 0.  1.
         25    2    1    2    0    0  0.00000000000E+00  0.00000000000E+00  0.62311048961E+03  0.63552485675E+03  0.12500064515E+03 0.  0.
    9000005    1    3    3    0    0  0.36614821419E+02  0.39791865872E+02  0.47081670521E+03  0.47391286925E+03  0.10000000000E+01 0.  0.
    9000005    1    3    3    0    0 -0.36614821419E+02 -0.39791865872E+02  0.15229378439E+03  0.16161198749E+03  0.10000000000E+01 0.  0.
<mgrwt>
<rscale>  0 0.12500065E+03</rscale>
<asrwt>0</asrwt>
<pdfrwt beam="1">  1        4 0.96818085E-01 0.12500065E+03</pdfrwt>
<pdfrwt beam="2">  1       -4 0.95495151E-03 0.12500065E+03</pdfrwt>
<totfact> 0.46698658E+03</totfact>
</mgrwt>
</event>
<event>
 5    1  0.3398872E-002  0.1250029E+03  0.7818608E-02  0.1235065E+00
          4   -1    0    0  501    0  0.00000000000E+00  0.00000000000E+00  0.14874125841E+03  0.14874668014E+03  0.12700000000E+01 0.  1.
         -4   -1    0    0    0  501 -0.00000000000E+00 -0.00000000000E+00 -0.26242015503E+02  0.26272728782E+02  0.12700000000E+01 0.  1.
         25    2    1    2    0    0  0.00000000000E+00  0.00000000000E+00  0.12249924291E+03  0.17501940893E+03  0.12500291592E+03 0.  0.
    9000005    1    3    3    0    0  0.59003497139E+02 -0.19940373193E+02  0.68443730078E+02  0.92544990922E+02  0.10000000000E+01 0.  0.
    9000005    1    3    3    0    0 -0.59003497139E+02  0.19940373193E+02  0.54055512830E+02  0.82474418004E+02  0.10000000000E+01 0.  0.
<mgrwt>
<rscale>  0 0.12500292E+03</rscale>
<asrwt>0</asrwt>
<pdfrwt beam="1">  1        4 0.22886050E-01 0.12500292E+03</pdfrwt>
<pdfrwt beam="2">  1       -4 0.40400128E-02 0.12500292E+03</pdfrwt>
<totfact> 0.94515103E+03</totfact>
</mgrwt>
</event>
<event>
 5    1  0.3398872E-002  0.1249989E+03  0.7818608E-02  0.1235071E+00
         -4   -1    0    0    0  501 -0.00000000000E+00  0.00000000000E+00  0.57207662730E+02  0.57221757881E+02  0.12700000000E+01 0. -1.
          4   -1    0    0  501    0  0.00000000000E+00 -0.00000000000E+00 -0.68252300274E+02  0.68264114970E+02  0.12700000000E+01 0. -1.
         25    2    1    2    0    0  0.00000000000E+00  0.00000000000E+00 -0.11044637544E+02  0.12548587285E+03  0.12499888106E+03 0.  0.
    9000005    1    3    3    0    0  0.23340417108E+02  0.82855186721E+01 -0.63119665012E+02  0.67812366141E+02  0.10000000000E+01 0.  0.
    9000005    1    3    3    0    0 -0.23340417108E+02 -0.82855186721E+01  0.52075027468E+02  0.57673506710E+02  0.10000000000E+01 0.  0.
<mgrwt>
<rscale>  0 0.12499888E+03</rscale>
<asrwt>0</asrwt>
<pdfrwt beam="2">  1        4 0.10502347E-01 0.12499888E+03</pdfrwt>
<pdfrwt beam="1">  1       -4 0.88031719E-02 0.12499888E+03</pdfrwt>
<totfact> 0.10442530E+04</totfact>
</mgrwt>
</event>
<event>
 5    1  0.3398872E-002  0.1249949E+03  0.7818608E-02  0.1235077E+00
         -4   -1    0    0    0  501 -0.00000000000E+00  0.00000000000E+00  0.55644464358E+03  0.55644609287E+03  0.12700000000E+01 0.  1.
          4   -1    0    0  501    0  0.00000000000E+00 -0.00000000000E+00 -0.69605262831E+01  0.70754382294E+01  0.12700000000E+01 0.  1.
         25    2    1    2    0    0  0.00000000000E+00  0.00000000000E+00  0.54948411730E+03  0.56352153110E+03  0.12499488329E+03 0.  0.
    9000005    1    3    3    0    0 -0.52757355867E+02  0.33438701275E+02  0.28310973326E+03  0.28992000001E+03  0.10000000000E+01 0.  0.
    9000005    1    3    3    0    0  0.52757355867E+02 -0.33438701275E+02  0.26637438404E+03  0.27360153108E+03  0.10000000000E+01 0.  0.
<mgrwt>
<rscale>  0 0.12499488E+03</rscale>
<asrwt>0</asrwt>
<pdfrwt beam="2">  1        4 0.10798007E-02 0.12499488E+03</pdfrwt>
<pdfrwt beam="1">  1       -4 0.85615851E-01 0.12499488E+03</pdfrwt>
<totfact> 0.51260026E+03</totfact>
</mgrwt>
</event>
<event>
 5    1  0.3398872E-002  0.1250060E+03  0.7818608E-02  0.1235060E+00
          4   -1    0    0  501    0  0.00000000000E+00  0.00000000000E+00  0.13718328118E+03  0.13718915969E+03  0.12700000000E+01 0.  1.
         -4   -1    0    0    0  501 -0.00000000000E+00 -0.00000000000E+00 -0.28456775630E+02  0.28485101005E+02  0.12700000000E+01 0.  1.
         25    2    1    2    0    0  0.00000000000E+00  0.00000000000E+00  0.10872650555E+03  0.16567426069E+03  0.12500603044E+03 0.  0.
    9000005    1    3    3    0    0 -0.47318698027E+02  0.39228845741E+02  0.69338040193E+02  0.92664585138E+02  0.10000000000E+01 0.  0.
    9000005    1    3    3    0    0  0.47318698027E+02 -0.39228845741E+02  0.39388465357E+02  0.73009675553E+02  0.10000000000E+01 0.  0.
<mgrwt>
<rscale>  0 0.12500603E+03</rscale>
<asrwt>0</asrwt>
<pdfrwt beam="1">  1        4 0.21107751E-01 0.12500603E+03</pdfrwt>
<pdfrwt beam="2">  1       -4 0.43805966E-02 0.12500603E+03</pdfrwt>
<totfact> 0.96246812E+03</totfact>
</mgrwt>
</event>
<event>
 5    1  0.3398872E-002  0.1250010E+03  0.7818608E-02  0.1235068E+00
         -4   -1    0    0    0  501 -0.00000000000E+00  0.00000000000E+00  0.38150907086E+03  0.38151118470E+03  0.12700000000E+01 0.  1.
          4   -1    0    0  501    0  0.00000000000E+00 -0.00000000000E+00 -0.10197579755E+02  0.10276357957E+02  0.12700000000E+01 0.  1.
         25    2    1    2    0    0  0.00000000000E+00  0.00000000000E+00  0.37131149110E+03  0.39178754265E+03  0.12500102060E+03 0.  0.
    9000005    1    3    3    0    0 -0.32669895360E+02  0.53265818515E+02  0.18295171296E+03  0.19333105999E+03  0.10000000000E+01 0.  0.
    9000005    1    3    3    0    0  0.32669895360E+02 -0.53265818515E+02  0.18835977815E+03  0.19845648266E+03  0.10000000000E+01 0.  0.
<mgrwt>
<rscale>  0 0.12500102E+03</rscale>
<asrwt>0</asrwt>
<pdfrwt beam="2">  1        4 0.15750807E-02 0.12500102E+03</pdfrwt>
<pdfrwt beam="1">  1       -4 0.58699931E-01 0.12500102E+03</pdfrwt>
<totfact> 0.65357959E+03</totfact>
</mgrwt>
</event>
<event>
 5    1  0.3398872E-002  0.1249996E+03  0.7818608E-02  0.1235070E+00
          4   -1    0    0  501    0  0.00000000000E+00  0.00000000000E+00  0.30539940683E+02  0.30566335680E+02  0.12700000000E+01 0.  1.
         -4   -1    0    0    0  501 -0.00000000000E+00 -0.00000000000E+00 -0.12782071011E+03  0.12782701918E+03  0.12700000000E+01 0.  1.
         25    2    1    2    0    0  0.00000000000E+00  0.00000000000E+00 -0.97280769428E+02  0.15839335486E+03  0.12499962706E+03 0.  0.
    9000005    1    3    3    0    0  0.11762095482E+02  0.53720578497E+02 -0.11029713921E+02  0.56097255132E+02  0.10000000000E+01 0.  0.
    9000005    1    3    3    0    0 -0.11762095482E+02 -0.53720578497E+02 -0.86251055507E+02  0.10229609973E+03  0.10000000000E+01 0.  0.
<mgrwt>
<rscale>  0 0.12499963E+03</rscale>
<asrwt>0</asrwt>
<pdfrwt beam="1">  1        4 0.47009682E-02 0.12499963E+03</pdfrwt>
<pdfrwt beam="2">  1       -4 0.19667240E-01 0.12499963E+03</pdfrwt>
<totfact> 0.97654249E+03</totfact>
</mgrwt>
</event>
<event>
 5    1  0.3398872E-002  0.1250050E+03  0.7818608E-02  0.1235061E+00
          4   -1    0    0  501    0  0.00000000000E+00  0.00000000000E+00  0.13802436940E+03  0.13803021208E+03  0.12700000000E+01 0.  1.
         -4   -1    0    0    0  501 -0.00000000000E+00 -0.00000000000E+00 -0.28282738889E+02  0.28311238388E+02  0.12700000000E+01 0.  1.
         25    2    1    2    0    0  0.00000000000E+00  0.00000000000E+00  0.10974163051E+03  0.16634145047E+03  0.12500501061E+03 0.  0.
    9000005    1    3    3    0    0 -0.59685325406E+02  0.59598435288E+01  0.78212951394E+02  0.98570399053E+02  0.10000000000E+01 0.  0.
    9000005    1    3    3    0    0  0.59685325406E+02 -0.59598435288E+01  0.31528679116E+02  0.67771051420E+02  0.10000000000E+01 0.  0.
<mgrwt>
<rscale>  0 0.12500501E+03</rscale>
<asrwt>0</asrwt>
<pdfrwt beam="1">  1        4 0.21237160E-01 0.12500501E+03</pdfrwt>
<pdfrwt beam="2">  1       -4 0.43538324E-02 0.12500501E+03</pdfrwt>
<totfact> 0.96123126E+03</totfact>
</mgrwt>
</event>
<event>
 5    1  0.3398872E-002  0.1249980E+03  0.7818608E-02  0.1235072E+00
         -4   -1    0    0    0  501 -0.00000000000E+00  0.00000000000E+00  0.14681190729E+03  0.14681740027E+03  0.12700000000E+01 0.  1.
          4   -1    0    0  501    0  0.00000000000E+00 -0.00000000000E+00 -0.26585193562E+02  0.26615510829E+02  0.12700000000E+01 0.  1.
         25    2    1    2    0    0  0.00000000000E+00  0.00000000000E+00  0.12022671373E+03  0.17343291110E+03  0.12499804782E+03 0.  0.
    9000005    1    3    3    0    0  0.56473497646E+02 -0.41234056671E+01  0.96793105574E+02  0.11214349601E+03  0.10000000000E+01 0.  0.
    9000005    1    3    3    0    0 -0.56473497646E+02  0.41234056671E+01  0.23433608151E+02  0.61289415086E+02  0.10000000000E+01 0.  0.
<mgrwt>
<rscale>  0 0.12499805E+03</rscale>
<asrwt>0</asrwt>
<pdfrwt beam="2">  1        4 0.40927846E-02 0.12499805E+03</pdfrwt>
<pdfrwt beam="1">  1       -4 0.22589201E-01 0.12499805E+03</pdfrwt>
<totfact> 0.94816789E+03</totfact>
</mgrwt>
</event>
<event>
 5    1  0.3398872E-002  0.1249972E+03  0.7818608E-02  0.1235074E+00
         -4   -1    0    0    0  501 -0.00000000000E+00  0.00000000000E+00  0.11944444871E+03  0.11945120020E+03  0.12700000000E+01 0.  1.
          4   -1    0    0  501    0  0.00000000000E+00 -0.00000000000E+00 -0.32682011819E+02  0.32706678165E+02  0.12700000000E+01 0.  1.
         25    2    1    2    0    0  0.00000000000E+00  0.00000000000E+00  0.86762436893E+02  0.15215787836E+03  0.12499719793E+03 0.  0.
    9000005    1    3    3    0    0 -0.77321869223E+01  0.56478695975E+02  0.74545872728E+02  0.93849437689E+02  0.10000000000E+01 0.  0.
    9000005    1    3    3    0    0  0.77321869223E+01 -0.56478695975E+02  0.12216564165E+02  0.58308440672E+02  0.10000000000E+01 0.  0.
<mgrwt>
<rscale>  0 0.12499720E+03</rscale>
<asrwt>0</asrwt>
<pdfrwt beam="2">  1        4 0.50304185E-02 0.12499720E+03</pdfrwt>
<pdfrwt beam="1">  1       -4 0.18378486E-01 0.12499720E+03</pdfrwt>
<totfact> 0.98881518E+03</totfact>
</mgrwt>
</event>
<event>
 5    1  0.3398872E-002  0.1249999E+03  0.7818608E-02  0.1235069E+00
          4   -1    0    0  501    0  0.00000000000E+00  0.00000000000E+00  0.24584403684E+02  0.24617185146E+02  0.12700000000E+01 0.  1.
         -4   -1    0    0    0  501 -0.00000000000E+00 -0.00000000000E+00 -0.15874993196E+03  0.15875501188E+03  0.12700000000E+01 0.  1.
         25    2    1    2    0    0  0.00000000000E+00  0.00000000000E+00 -0.13416552828E+03  0.18337219703E+03  0.12499989466E+03 0.  0.
    9000005    1    3    3    0    0  0.22324219762E+02  0.58086114996E+02 -0.75494051850E+02  0.97840274979E+02  0.10000000000E+01 0.  0.
    9000005    1    3    3    0    0 -0.22324219762E+02 -0.58086114996E+02 -0.58671476428E+02  0.85531922050E+02  0.10000000000E+01 0.  0.
<mgrwt>
<rscale>  0 0.12499989E+03</rscale>
<asrwt>0</asrwt>
<pdfrwt beam="1">  1        4 0.37851285E-02 0.12499989E+03</pdfrwt>
<pdfrwt beam="2">  1       -4 0.24425978E-01 0.12499989E+03</pdfrwt>
<totfact> 0.93013714E+03</totfact>
</mgrwt>
</event>
<event>
 5    1  0.3398872E-002  0.1249979E+03  0.7818608E-02  0.1235073E+00
         -4   -1    0    0    0  501 -0.00000000000E+00  0.00000000000E+00  0.95664228971E+02  0.95672658606E+02  0.12700000000E+01 0.  1.
          4   -1    0    0  501    0  0.00000000000E+00 -0.00000000000E+00 -0.40811434917E+02  0.40831190529E+02  0.12700000000E+01 0.  1.
         25    2    1    2    0    0  0.00000000000E+00  0.00000000000E+00  0.54852794054E+02  0.13650384913E+03  0.12499788723E+03 0.  0.
    9000005    1    3    3    0    0 -0.58757971279E+02  0.21238088377E+02  0.28791400289E+02  0.68800438351E+02  0.10000000000E+01 0.  0.
    9000005    1    3    3    0    0  0.58757971279E+02 -0.21238088377E+02  0.26061393766E+02  0.67703410784E+02  0.10000000000E+01 0.  0.
<mgrwt>
<rscale>  0 0.12499789E+03</rscale>
<asrwt>0</asrwt>
<pdfrwt beam="2">  1        4 0.62808505E-02 0.12499789E+03</pdfrwt>
<pdfrwt beam="1">  1       -4 0.14719742E-01 0.12499789E+03</pdfrwt>
<totfact> 0.10206956E+04</totfact>
</mgrwt>
</event>
<event>
 5    1  0.3398872E-002  0.1249978E+03  0.7818608E-02  0.1235073E+00
         -4   -1    0    0    0  501 -0.00000000000E+00  0.00000000000E+00  0.40910467114E+02  0.40930174927E+02  0.12700000000E+01 0.  1.
          4   -1    0    0  501    0  0.00000000000E+00 -0.00000000000E+00 -0.95432590618E+02  0.95441040711E+02  0.12700000000E+01 0.  1.
         25    2    1    2    0    0  0.00000000000E+00  0.00000000000E+00 -0.54522123503E+02  0.13637121564E+03  0.12499778599E+03 0.  0.
    9000005    1    3    3    0    0 -0.26739257531E+02  0.21390497710E+02  0.29769292105E+02  0.45384491162E+02  0.10000000000E+01 0.  0.
    9000005    1    3    3    0    0  0.26739257531E+02 -0.21390497710E+02 -0.84291415608E+02  0.90986724476E+02  0.10000000000E+01 0.  0.
<mgrwt>
<rscale>  0 0.12499779E+03</rscale>
<asrwt>0</asrwt>
<pdfrwt beam="2">  1        4 0.14684103E-01 0.12499779E+03</pdfrwt>
<pdfrwt beam="1">  1       -4 0.62960840E-02 0.12499779E+03</pdfrwt>
<totfact> 0.10209759E+04</totfact>
</mgrwt>
</event>
<event>
 5    1  0.3398872E-002  0.1249946E+03  0.7818608E-02  0.1235078E+00
         -4   -1    0    0    0  501 -0.00000000000E+00  0.00000000000E+00  0.29614241087E+02  0.29641460409E+02  0.12700000000E+01 0.  1.
          4   -1    0    0  501    0  0.00000000000E+00 -0.00000000000E+00 -0.13180216855E+03  0.13180828705E+03  0.12700000000E+01 0.  1.
         25    2    1    2    0    0  0.00000000000E+00  0.00000000000E+00 -0.10218792746E+03  0.16144974746E+03  0.12499459362E+03 0.  0.
    9000005    1    3    3    0    0 -0.10263949441E+01  0.26860316745E+02 -0.12395952193E+03  0.12684436597E+03  0.10000000000E+01 0.  0.
    9000005    1    3    3    0    0  0.10263949441E+01 -0.26860316745E+02  0.21771594465E+02  0.34605381485E+02  0.10000000000E+01 0.  0.
<mgrwt>
<rscale>  0 0.12499459E+03</rscale>
<asrwt>0</asrwt>
<pdfrwt beam="2">  1        4 0.20279821E-01 0.12499459E+03</pdfrwt>
<pdfrwt beam="1">  1       -4 0.45586016E-02 0.12499459E+03</pdfrwt>
<totfact> 0.97075806E+03</totfact>
</mgrwt>
</event>
<event>
 5    1  0.3398872E-002  0.1250014E+03  0.7818608E-02  0.1235067E+00
          4   -1    0    0  501    0  0.00000000000E+00  0.00000000000E+00  0.11940885866E+02  0.12008232812E+02  0.12700000000E+01 0.  1.
         -4   -1    0    0    0  501 -0.00000000000E+00 -0.00000000000E+00 -0.32615122235E+03  0.32615369497E+03  0.12700000000E+01 0.  1.
         25    2    1    2    0    0  0.00000000000E+00  0.00000000000E+00 -0.31421033648E+03  0.33816192778E+03  0.12500141538E+03 0.  0.
    9000005    1    3    3    0    0  0.10055233131E+02 -0.76729641704E+01  0.84551885279E+01  0.15247042517E+02  0.10000000000E+01 0.  0.
    9000005    1    3    3    0    0 -0.10055233131E+02  0.76729641704E+01 -0.32266552501E+03  0.32291488526E+03  0.10000000000E+01 0.  0.
<mgrwt>
<rscale>  0 0.12500142E+03</rscale>
<asrwt>0</asrwt>
<pdfrwt beam="1">  1        4 0.18424303E-02 0.12500142E+03</pdfrwt>
<pdfrwt beam="2">  1       -4 0.50182475E-01 0.12500142E+03</pdfrwt>
<totfact> 0.71044604E+03</totfact>
</mgrwt>
</event>
<event>
 5    1  0.3398872E-002  0.1250004E+03  0.7818608E-02  0.1235069E+00
         -4   -1    0    0    0  501 -0.00000000000E+00  0.00000000000E+00  0.10318725793E+03  0.10319507304E+03  0.12700000000E+01 0. -1.
          4   -1    0    0  501    0  0.00000000000E+00 -0.00000000000E+00 -0.37836272253E+02  0.37857580456E+02  0.12700000000E+01 0. -1.
         25    2    1    2    0    0  0.00000000000E+00  0.00000000000E+00  0.65350985677E+02  0.14105265349E+03  0.12500039891E+03 0.  0.
    9000005    1    3    3    0    0 -0.57276391946E+02  0.90679080318E+01  0.63937063409E+01  0.58349734457E+02  0.10000000000E+01 0.  0.
    9000005    1    3    3    0    0  0.57276391946E+02 -0.90679080318E+01  0.58957279336E+02  0.82702919037E+02  0.10000000000E+01 0.  0.
<mgrwt>
<rscale>  0 0.12500040E+03</rscale>
<asrwt>0</asrwt>
<pdfrwt beam="2">  1        4 0.58232053E-02 0.12500040E+03</pdfrwt>
<pdfrwt beam="1">  1       -4 0.15877203E-01 0.12500040E+03</pdfrwt>
<totfact> 0.10111725E+04</totfact>
</mgrwt>
</event>
<event>
 5    1  0.3398872E-002  0.1250009E+03  0.7818608E-02  0.1235068E+00
          4   -1    0    0  501    0  0.00000000000E+00  0.00000000000E+00  0.34861699656E+02  0.34884824823E+02  0.12700000000E+01 0. -1.
         -4   -1    0    0    0  501 -0.00000000000E+00 -0.00000000000E+00 -0.11198758840E+03  0.11199478941E+03  0.12700000000E+01 0. -1.
         25    2    1    2    0    0  0.00000000000E+00  0.00000000000E+00 -0.77125888746E+02  0.14687961424E+03  0.12500087345E+03 0.  0.
    9000005    1    3    3    0    0  0.34431763246E+01  0.49023056368E+02 -0.83922538794E+02  0.97257945878E+02  0.10000000000E+01 0.  0.
    9000005    1    3    3    0    0 -0.34431763246E+01 -0.49023056368E+02  0.67966500482E+01  0.49621668359E+02  0.10000000000E+01 0.  0.
<mgrwt>
<rscale>  0 0.12500087E+03</rscale>
<asrwt>0</asrwt>
<pdfrwt beam="1">  1        4 0.53656712E-02 0.12500087E+03</pdfrwt>
<pdfrwt beam="2">  1       -4 0.17231192E-01 0.12500087E+03</pdfrwt>
<totfact> 0.99927412E+03</totfact>
</mgrwt>
</event>
<event>
 5    1  0.3398872E-002  0.1250016E+03  0.7818608E-02  0.1235067E+00
          4   -1    0    0  501    0  0.00000000000E+00  0.00000000000E+00  0.71877681386E+03  0.71877793584E+03  0.12700000000E+01 0.  1.
         -4   -1    0    0    0  501 -0.00000000000E+00 -0.00000000000E+00 -0.53593800156E+01  0.55077993928E+01  0.12700000000E+01 0.  1.
         25    2    1    2    0    0  0.00000000000E+00  0.00000000000E+00  0.71341743385E+03  0.72428573523E+03  0.12500156535E+03 0.  0.
    9000005    1    3    3    0    0  0.30576389350E+02  0.32280439862E+02  0.10226387249E+03  0.11151610646E+03  0.10000000000E+01 0.  0.
    9000005    1    3    3    0    0 -0.30576389350E+02 -0.32280439862E+02  0.61115356136E+03  0.61276962878E+03  0.10000000000E+01 0.  0.
<mgrwt>
<rscale>  0 0.12500157E+03</rscale>
<asrwt>0</asrwt>
<pdfrwt beam="1">  1        4 0.11059256E+00 0.12500157E+03</pdfrwt>
<pdfrwt beam="2">  1       -4 0.83602309E-03 0.12500157E+03</pdfrwt>
<totfact> 0.41833821E+03</totfact>
</mgrwt>
</event>
<event>
 5    1  0.3398872E-002  0.1249948E+03  0.7818608E-02  0.1235077E+00
          4   -1    0    0  501    0  0.00000000000E+00  0.00000000000E+00  0.47795308145E+03  0.47795476875E+03  0.12700000000E+01 0.  1.
         -4   -1    0    0    0  501 -0.00000000000E+00 -0.00000000000E+00 -0.81211441572E+01  0.82198468612E+01  0.12700000000E+01 0.  1.
         25    2    1    2    0    0  0.00000000000E+00  0.00000000000E+00  0.46983193730E+03  0.48617461561E+03  0.12499483014E+03 0.  0.
    9000005    1    3    3    0    0  0.52768194693E+02  0.15789367526E+02  0.12011532992E+03  0.13214567333E+03  0.10000000000E+01 0.  0.
    9000005    1    3    3    0    0 -0.52768194693E+02 -0.15789367526E+02  0.34971660738E+03  0.35402894228E+03  0.10000000000E+01 0.  0.
<mgrwt>
<rscale>  0 0.12499483E+03</rscale>
<asrwt>0</asrwt>
<pdfrwt beam="1">  1        4 0.73538983E-01 0.12499483E+03</pdfrwt>
<pdfrwt beam="2">  1       -4 0.12571288E-02 0.12499483E+03</pdfrwt>
<totfact> 0.56959699E+03</totfact>
</mgrwt>
</event>
<event>
 5    1  0.3398872E-002  0.1250018E+03  0.7818608E-02  0.1235067E+00
          4   -1    0    0  501    0  0.00000000000E+00  0.00000000000E+00  0.20410546621E+03  0.20410941731E+03  0.12700000000E+01 0. -1.
         -4   -1    0    0    0  501 -0.00000000000E+00 -0.00000000000E+00 -0.19113719447E+02  0.19155865188E+02  0.12700000000E+01 0. -1.
         25    2    1    2    0    0  0.00000000000E+00  0.00000000000E+00  0.18499174676E+03  0.22326528250E+03  0.12500175999E+03 0.  0.
    9000005    1    3    3    0    0  0.60347698883E+02 -0.15707485657E+02  0.85177203618E+02  0.10556858378E+03  0.10000000000E+01 0.  0.
    9000005    1    3    3    0    0 -0.60347698883E+02  0.15707485657E+02  0.99814543143E+02  0.11769669872E+03  0.10000000000E+01 0.  0.
<mgrwt>
<rscale>  0 0.12500176E+03</rscale>
<asrwt>0</asrwt>
<pdfrwt beam="1">  1        4 0.31404390E-01 0.12500176E+03</pdfrwt>
<pdfrwt beam="2">  1       -4 0.29441179E-02 0.12500176E+03</pdfrwt>
<totfact> 0.86350887E+03</totfact>
</mgrwt>
</event>
<event>
 5    1  0.3398872E-002  0.1249627E+03  0.7818608E-02  0.1235128E+00
          4   -1    0    0  501    0  0.00000000000E+00  0.00000000000E+00  0.11375626373E+03  0.11376335279E+03  0.12700000000E+01 0.  1.
         -4   -1    0    0    0  501 -0.00000000000E+00 -0.00000000000E+00 -0.34298365863E+02  0.34321870591E+02  0.12700000000E+01 0.  1.
         25    2    1    2    0    0  0.00000000000E+00  0.00000000000E+00  0.79457897863E+02  0.14808522338E+03  0.12496269783E+03 0.  0.
    9000005    1    3    3    0    0  0.34593027048E+02 -0.38518199171E+02 -0.17064678603E+01  0.51809663387E+02  0.10000000000E+01 0.  0.
    9000005    1    3    3    0    0 -0.34593027048E+02  0.38518199171E+02  0.81164365724E+02  0.96275559988E+02  0.10000000000E+01 0.  0.
<mgrwt>
<rscale>  0 0.12496270E+03</rscale>
<asrwt>0</asrwt>
<pdfrwt beam="1">  1        4 0.17503317E-01 0.12496270E+03</pdfrwt>
<pdfrwt beam="2">  1       -4 0.52790251E-02 0.12496270E+03</pdfrwt>
<totfact> 0.99770509E+03</totfact>
</mgrwt>
</event>
<event>
 5    1  0.3398872E-002  0.1249988E+03  0.7818608E-02  0.1235071E+00
         -4   -1    0    0    0  501 -0.00000000000E+00  0.00000000000E+00  0.87464596341E+02  0.87473816157E+02  0.12700000000E+01 0.  1.
          4   -1    0    0  501    0  0.00000000000E+00 -0.00000000000E+00 -0.44639431583E+02  0.44657493795E+02  0.12700000000E+01 0.  1.
         25    2    1    2    0    0  0.00000000000E+00  0.00000000000E+00  0.42825164757E+02  0.13213130995E+03  0.12499875333E+03 0.  0.
    9000005    1    3    3    0    0 -0.14503041907E+02  0.60784979300E+02  0.21262531023E+02  0.66017021734E+02  0.10000000000E+01 0.  0.
    9000005    1    3    3    0    0  0.14503041907E+02 -0.60784979300E+02  0.21562633734E+02  0.66114288219E+02  0.10000000000E+01 0.  0.
<mgrwt>
<rscale>  0 0.12499875E+03</rscale>
<asrwt>0</asrwt>
<pdfrwt beam="2">  1        4 0.68697035E-02 0.12499875E+03</pdfrwt>
<pdfrwt beam="1">  1       -4 0.13458190E-01 0.12499875E+03</pdfrwt>
<totfact> 0.10299186E+04</totfact>
</mgrwt>
</event>
<event>
 5    1  0.3398872E-002  0.1249893E+03  0.7818608E-02  0.1235086E+00
          4   -1    0    0  501    0  0.00000000000E+00  0.00000000000E+00  0.86328305235E+03  0.86328398652E+03  0.12700000000E+01 0.  1.
         -4   -1    0    0    0  501 -0.00000000000E+00 -0.00000000000E+00 -0.44340172738E+01  0.46123106123E+01  0.12700000000E+01 0.  1.
         25    2    1    2    0    0  0.00000000000E+00  0.00000000000E+00  0.85884903508E+03  0.86789629713E+03  0.12498926961E+03 0.  0.
    9000005    1    3    3    0    0  0.26896422845E+02  0.45046936546E+02  0.19375188473E+03  0.20073225175E+03  0.10000000000E+01 0.  0.
    9000005    1    3    3    0    0 -0.26896422845E+02 -0.45046936546E+02  0.66509715035E+03  0.66716404538E+03  0.10000000000E+01 0.  0.
<mgrwt>
<rscale>  0 0.12498927E+03</rscale>
<asrwt>0</asrwt>
<pdfrwt beam="1">  1        4 0.13282645E+00 0.12498927E+03</pdfrwt>
<pdfrwt beam="2">  1       -4 0.69594382E-03 0.12498927E+03</pdfrwt>
<totfact> 0.35414300E+03</totfact>
</mgrwt>
</event>
<event>
 5    1  0.3398872E-002  0.1249920E+03  0.7818608E-02  0.1235082E+00
          4   -1    0    0  501    0  0.00000000000E+00  0.00000000000E+00  0.81750973503E+02  0.81760837622E+02  0.12700000000E+01 0. -1.
         -4   -1    0    0    0  501 -0.00000000000E+00 -0.00000000000E+00 -0.47755026667E+02  0.47771910910E+02  0.12700000000E+01 0. -1.
         25    2    1    2    0    0  0.00000000000E+00  0.00000000000E+00  0.33995946836E+02  0.12953274853E+03  0.12499203391E+03 0.  0.
    9000005    1    3    3    0    0 -0.46454757749E+02 -0.41561617550E+02  0.12440537308E+02  0.63570272450E+02  0.10000000000E+01 0.  0.
    9000005    1    3    3    0    0  0.46454757749E+02  0.41561617550E+02  0.21555409528E+02  0.65962476082E+02  0.10000000000E+01 0.  0.
<mgrwt>
<rscale>  0 0.12499203E+03</rscale>
<asrwt>0</asrwt>
<pdfrwt beam="1">  1        4 0.12579130E-01 0.12499203E+03</pdfrwt>
<pdfrwt beam="2">  1       -4 0.73489848E-02 0.12499203E+03</pdfrwt>
<totfact> 0.10356375E+04</totfact>
</mgrwt>
</event>
<event>
 5    1  0.3398872E-002  0.1250001E+03  0.7818608E-02  0.1235069E+00
         -4   -1    0    0    0  501 -0.00000000000E+00  0.00000000000E+00  0.43201070382E+02  0.43219733712E+02  0.12700000000E+01 0.  1.
          4   -1    0    0  501    0  0.00000000000E+00 -0.00000000000E+00 -0.90377771244E+02  0.90386693905E+02  0.12700000000E+01 0.  1.
         25    2    1    2    0    0  0.00000000000E+00  0.00000000000E+00 -0.47176700862E+02  0.13360642762E+03  0.12500014559E+03 0.  0.
    9000005    1    3    3    0    0 -0.42468215302E+02  0.19469693548E+02  0.20773964475E+02  0.51138790343E+02  0.10000000000E+01 0.  0.
    9000005    1    3    3    0    0  0.42468215302E+02 -0.19469693548E+02 -0.67950665337E+02  0.82467637274E+02  0.10000000000E+01 0.  0.
<mgrwt>
<rscale>  0 0.12500015E+03</rscale>
<asrwt>0</asrwt>
<pdfrwt beam="2">  1        4 0.13906394E-01 0.12500015E+03</pdfrwt>
<pdfrwt beam="1">  1       -4 0.66484405E-02 0.12500015E+03</pdfrwt>
<totfact> 0.10267494E+04</totfact>
</mgrwt>
</event>
<event>
 5    1  0.3398872E-002  0.1249927E+03  0.7818608E-02  0.1235081E+00
          4   -1    0    0  501    0  0.00000000000E+00  0.00000000000E+00  0.87184421585E+02  0.87193671026E+02  0.12700000000E+01 0.  1.
         -4   -1    0    0    0  501 -0.00000000000E+00 -0.00000000000E+00 -0.44778592671E+02  0.44796598773E+02  0.12700000000E+01 0.  1.
         25    2    1    2    0    0  0.00000000000E+00  0.00000000000E+00  0.42405828913E+02  0.13199026980E+03  0.12499270777E+03 0.  0.
    9000005    1    3    3    0    0  0.12630978867E+01 -0.28973976140E+02 -0.37246597978E+02  0.47216477744E+02  0.10000000000E+01 0.  0.
    9000005    1    3    3    0    0 -0.12630978867E+01  0.28973976140E+02  0.79652426892E+02  0.84773792055E+02  0.10000000000E+01 0.  0.
<mgrwt>
<rscale>  0 0.12499271E+03</rscale>
<asrwt>0</asrwt>
<pdfrwt beam="1">  1        4 0.13415084E-01 0.12499271E+03</pdfrwt>
<pdfrwt beam="2">  1       -4 0.68911109E-02 0.12499271E+03</pdfrwt>
<totfact> 0.10303601E+04</totfact>
</mgrwt>
</event>
<event>
 5    1  0.3398872E-002  0.1250011E+03  0.7818608E-02  0.1235068E+00
         -4   -1    0    0    0  501 -0.00000000000E+00  0.00000000000E+00  0.70781407990E+02  0.70792800602E+02  0.12700000000E+01 0.  1.
          4   -1    0    0  501    0  0.00000000000E+00 -0.00000000000E+00 -0.55165351270E+02  0.55179968111E+02  0.12700000000E+01 0.  1.
         25    2    1    2    0    0  0.00000000000E+00  0.00000000000E+00  0.15616056721E+02  0.12597276871E+03  0.12500110891E+03 0.  0.
    9000005    1    3    3    0    0 -0.62002228976E+02  0.24773479159E+01  0.34059502550E+00  0.62060693322E+02  0.10000000000E+01 0.  0.
    9000005    1    3    3    0    0  0.62002228976E+02 -0.24773479159E+01  0.15275461695E+02  0.63912075390E+02  0.10000000000E+01 0.  0.
<mgrwt>
<rscale>  0 0.12500111E+03</rscale>
<asrwt>0</asrwt>
<pdfrwt beam="2">  1        4 0.84889778E-02 0.12500111E+03</pdfrwt>
<pdfrwt beam="1">  1       -4 0.10891448E-01 0.12500111E+03</pdfrwt>
<totfact> 0.10431293E+04</totfact>
</mgrwt>
</event>
<event>
 5    1  0.3398872E-002  0.1249992E+03  0.7818608E-02  0.1235070E+00
         -4   -1    0    0    0  501 -0.00000000000E+00  0.00000000000E+00  0.37150957341E+02  0.37172658385E+02  0.12700000000E+01 0.  1.
          4   -1    0    0  501    0  0.00000000000E+00 -0.00000000000E+00 -0.10508782321E+03  0.10509549698E+03  0.12700000000E+01 0.  1.
         25    2    1    2    0    0  0.00000000000E+00  0.00000000000E+00 -0.67936865865E+02  0.14226815537E+03  0.12499924115E+03 0.  0.
    9000005    1    3    3    0    0 -0.57349214162E+02 -0.19876607725E+02 -0.50895578479E+02  0.79217244388E+02  0.10000000000E+01 0.  0.
    9000005    1    3    3    0    0  0.57349214162E+02  0.19876607725E+02 -0.17041287386E+02  0.63050910980E+02  0.10000000000E+01 0.  0.
<mgrwt>
<rscale>  0 0.12499924E+03</rscale>
<asrwt>0</asrwt>
<pdfrwt beam="2">  1        4 0.16169617E-01 0.12499924E+03</pdfrwt>
<pdfrwt beam="1">  1       -4 0.57177915E-02 0.12499924E+03</pdfrwt>
<totfact> 0.10086964E+04</totfact>
</mgrwt>
</event>
<event>
 5    1  0.3398872E-002  0.1250010E+03  0.7818608E-02  0.1235068E+00
          4   -1    0    0  501    0  0.00000000000E+00  0.00000000000E+00  0.44198841014E+02  0.44217083203E+02  0.12700000000E+01 0. -1.
         -4   -1    0    0    0  501 -0.00000000000E+00 -0.00000000000E+00 -0.88339330021E+02  0.88348458552E+02  0.12700000000E+01 0. -1.
         25    2    1    2    0    0  0.00000000000E+00  0.00000000000E+00 -0.44140489007E+02  0.13256554175E+03  0.12500096036E+03 0.  0.
    9000005    1    3    3    0    0 -0.46033191464E+01 -0.52697812695E+02 -0.57356281366E+02  0.78031999988E+02  0.10000000000E+01 0.  0.
    9000005    1    3    3    0    0  0.46033191464E+01  0.52697812695E+02  0.13215792359E+02  0.54533541767E+02  0.10000000000E+01 0.  0.
<mgrwt>
<rscale>  0 0.12500096E+03</rscale>
<asrwt>0</asrwt>
<pdfrwt beam="1">  1        4 0.68019271E-02 0.12500096E+03</pdfrwt>
<pdfrwt beam="2">  1       -4 0.13592772E-01 0.12500096E+03</pdfrwt>
<totfact> 0.10289419E+04</totfact>
</mgrwt>
</event>
<event>
 5    1  0.3398872E-002  0.1249960E+03  0.7818608E-02  0.1235076E+00
          4   -1    0    0  501    0  0.00000000000E+00  0.00000000000E+00  0.98216092976E+00  0.16054719219E+01  0.12700000000E+01 0. -1.
         -4   -1    0    0    0  501 -0.00000000000E+00 -0.00000000000E+00 -0.30183509878E+04  0.30183512550E+04  0.12700000000E+01 0. -1.
         25    2    1    2    0    0  0.00000000000E+00  0.00000000000E+00 -0.30173688268E+04  0.30199567269E+04  0.12499597996E+03 0.  0.
    9000005    1    3    3    0    0 -0.33453592342E+02 -0.52190886683E+02 -0.16988735969E+04  0.17000045676E+04  0.10000000000E+01 0.  0.
    9000005    1    3    3    0    0  0.33453592342E+02  0.52190886683E+02 -0.13184952299E+04  0.13199521593E+04  0.10000000000E+01 0.  0.
<mgrwt>
<rscale>  0 0.12499598E+03</rscale>
<asrwt>0</asrwt>
<pdfrwt beam="1">  1        4 0.19907165E-03 0.12499598E+03</pdfrwt>
<pdfrwt beam="2">  1       -4 0.46440402E+00 0.12499598E+03</pdfrwt>
<totfact> 0.17433260E+02</totfact>
</mgrwt>
</event>
<event>
 5    1  0.3398872E-002  0.1249973E+03  0.7818608E-02  0.1235073E+00
         -4   -1    0    0    0  501 -0.00000000000E+00  0.00000000000E+00  0.40757278860E+03  0.40757476726E+03  0.12700000000E+01 0.  1.
          4   -1    0    0  501    0  0.00000000000E+00 -0.00000000000E+00 -0.95396826757E+01  0.96238477519E+01  0.12700000000E+01 0.  1.
         25    2    1    2    0    0  0.00000000000E+00  0.00000000000E+00  0.39803310593E+03  0.41719861502E+03  0.12499732380E+03 0.  0.
    9000005    1    3    3    0    0  0.10522636668E+02 -0.12754233654E+02 -0.21224587284E+01  0.16700335014E+02  0.10000000000E+01 0.  0.
    9000005    1    3    3    0    0 -0.10522636668E+02  0.12754233654E+02  0.40015556466E+03  0.40049828000E+03  0.10000000000E+01 0.  0.
<mgrwt>
<rscale>  0 0.12499732E+03</rscale>
<asrwt>0</asrwt>
<pdfrwt beam="2">  1        4 0.14742700E-02 0.12499732E+03</pdfrwt>
<pdfrwt beam="1">  1       -4 0.62710129E-01 0.12499732E+03</pdfrwt>
<totfact> 0.62917467E+03</totfact>
</mgrwt>
</event>
<event>
 5    1  0.3398872E-002  0.1250017E+03  0.7818608E-02  0.1235067E+00
         -4   -1    0    0    0  501 -0.00000000000E+00  0.00000000000E+00  0.76100957561E+01  0.77153390993E+01  0.12700000000E+01 0. -1.
          4   -1    0    0  501    0  0.00000000000E+00 -0.00000000000E+00 -0.50968150006E+03  0.50968308232E+03  0.12700000000E+01 0. -1.
         25    2    1    2    0    0  0.00000000000E+00  0.00000000000E+00 -0.50207140431E+03  0.51739842142E+03  0.12500172586E+03 0.  0.
    9000005    1    3    3    0    0 -0.29405206701E+02 -0.97271041500E+01 -0.26372989116E+02  0.40691734925E+02  0.10000000000E+01 0.  0.
    9000005    1    3    3    0    0  0.29405206701E+02  0.97271041500E+01 -0.47569841519E+03  0.47670668650E+03  0.10000000000E+01 0.  0.
<mgrwt>
<rscale>  0 0.12500173E+03</rscale>
<asrwt>0</asrwt>
<pdfrwt beam="2">  1        4 0.78420729E-01 0.12500173E+03</pdfrwt>
<pdfrwt beam="1">  1       -4 0.11790017E-02 0.12500173E+03</pdfrwt>
<totfact> 0.54537230E+03</totfact>
</mgrwt>
</event>
<event>
 5    1  0.3398872E-002  0.1250159E+03  0.7818608E-02  0.1235045E+00
          4   -1    0    0  501    0  0.00000000000E+00  0.00000000000E+00  0.33522421858E+03  0.33522662428E+03  0.12700000000E+01 0.  1.
         -4   -1    0    0    0  501 -0.00000000000E+00 -0.00000000000E+00 -0.11618554288E+02  0.11687758714E+02  0.12700000000E+01 0.  1.
         25    2    1    2    0    0  0.00000000000E+00  0.00000000000E+00  0.32360566429E+03  0.34691438299E+03  0.12501585165E+03 0.  0.
    9000005    1    3    3    0    0 -0.38256994310E+02  0.22882019228E+02  0.28336574233E+03  0.28685245048E+03  0.10000000000E+01 0.  0.
    9000005    1    3    3    0    0  0.38256994310E+02 -0.22882019228E+02  0.40239921958E+02  0.60061932510E+02  0.10000000000E+01 0.  0.
<mgrwt>
<rscale>  0 0.12501585E+03</rscale>
<asrwt>0</asrwt>
<pdfrwt beam="1">  1        4 0.51578464E-01 0.12501585E+03</pdfrwt>
<pdfrwt beam="2">  1       -4 0.17929784E-02 0.12501585E+03</pdfrwt>
<totfact> 0.70040772E+03</totfact>
</mgrwt>
</event>
<event>
 5    1  0.3398872E-002  0.1249911E+03  0.7818608E-02  0.1235083E+00
          4   -1    0    0  501    0  0.00000000000E+00  0.00000000000E+00  0.63294480222E+01  0.64556031683E+01  0.12700000000E+01 0.  1.
         -4   -1    0    0    0  501 -0.00000000000E+00 -0.00000000000E+00 -0.61085159512E+03  0.61085291533E+03  0.12700000000E+01 0.  1.
         25    2    1    2    0    0  0.00000000000E+00  0.00000000000E+00 -0.60452214710E+03  0.61730851850E+03  0.12499112237E+03 0.  0.
    9000005    1    3    3    0    0 -0.49119938573E+01  0.48642759348E+02 -0.11006235282E+03  0.12043656932E+03  0.10000000000E+01 0.  0.
    9000005    1    3    3    0    0  0.49119938573E+01 -0.48642759348E+02 -0.49445979428E+03  0.49687194918E+03  0.10000000000E+01 0.  0.
<mgrwt>
<rscale>  0 0.12499112E+03</rscale>
<asrwt>0</asrwt>
<pdfrwt beam="1">  1        4 0.98356752E-03 0.12499112E+03</pdfrwt>
<pdfrwt beam="2">  1       -4 0.93986928E-01 0.12499112E+03</pdfrwt>
<totfact> 0.47802280E+03</totfact>
</mgrwt>
</event>
<event>
 5    1  0.3398872E-002  0.1250010E+03  0.7818608E-02  0.1235068E+00
          4   -1    0    0  501    0  0.00000000000E+00  0.00000000000E+00  0.23369742901E+02  0.23404225756E+02  0.12700000000E+01 0. -1.
         -4   -1    0    0    0  501 -0.00000000000E+00 -0.00000000000E+00 -0.16699247152E+03  0.16699730071E+03  0.12700000000E+01 0. -1.
         25    2    1    2    0    0  0.00000000000E+00  0.00000000000E+00 -0.14362272861E+03  0.19040152646E+03  0.12500101241E+03 0.  0.
    9000005    1    3    3    0    0  0.45205213541E+02  0.16826583087E+02 -0.11290892559E+02  0.49549263208E+02  0.10000000000E+01 0.  0.
    9000005    1    3    3    0    0 -0.45205213541E+02 -0.16826583087E+02 -0.13233183606E+03  0.14085226325E+03  0.10000000000E+01 0.  0.
<mgrwt>
<rscale>  0 0.12500101E+03</rscale>
<asrwt>0</asrwt>
<pdfrwt beam="1">  1        4 0.35983692E-02 0.12500101E+03</pdfrwt>
<pdfrwt beam="2">  1       -4 0.25694173E-01 0.12500101E+03</pdfrwt>
<totfact> 0.91775416E+03</totfact>
</mgrwt>
</event>
<event>
 5    1  0.3398872E-002  0.1250070E+03  0.7818608E-02  0.1235058E+00
         -4   -1    0    0    0  501 -0.00000000000E+00  0.00000000000E+00  0.34881451296E+03  0.34881682493E+03  0.12700000000E+01 0. -1.
          4   -1    0    0  501    0  0.00000000000E+00 -0.00000000000E+00 -0.11161547500E+02  0.11233567670E+02  0.12700000000E+01 0. -1.
         25    2    1    2    0    0  0.00000000000E+00  0.00000000000E+00  0.33765296546E+03  0.36005039260E+03  0.12500704030E+03 0.  0.
    9000005    1    3    3    0    0 -0.34921362520E+02 -0.51725335957E+02  0.15941461905E+03  0.17119881047E+03  0.10000000000E+01 0.  0.
    9000005    1    3    3    0    0  0.34921362520E+02  0.51725335957E+02  0.17823834641E+03  0.18885158213E+03  0.10000000000E+01 0.  0.
<mgrwt>
<rscale>  0 0.12500704E+03</rscale>
<asrwt>0</asrwt>
<pdfrwt beam="2">  1        4 0.17228791E-02 0.12500704E+03</pdfrwt>
<pdfrwt beam="1">  1       -4 0.53669487E-01 0.12500704E+03</pdfrwt>
<totfact> 0.68622173E+03</totfact>
</mgrwt>
</event>
<event>
 5    1  0.3398872E-002  0.1249998E+03  0.7818608E-02  0.1235070E+00
          4   -1    0    0  501    0  0.00000000000E+00  0.00000000000E+00  0.49941741632E+03  0.49941903110E+03  0.12700000000E+01 0. -1.
         -4   -1    0    0    0  501 -0.00000000000E+00 -0.00000000000E+00 -0.77683918118E+01  0.78715189984E+01  0.12700000000E+01 0. -1.
         25    2    1    2    0    0  0.00000000000E+00  0.00000000000E+00  0.49164902451E+03  0.50729055010E+03  0.12499975567E+03 0.  0.
    9000005    1    3    3    0    0 -0.12844023688E+02  0.13818218518E+02  0.48760449748E+03  0.48797034548E+03  0.10000000000E+01 0.  0.
    9000005    1    3    3    0    0  0.12844023688E+02 -0.13818218518E+02  0.40445270292E+01  0.19320204616E+02  0.10000000000E+01 0.  0.
<mgrwt>
<rscale>  0 0.12499976E+03</rscale>
<asrwt>0</asrwt>
<pdfrwt beam="1">  1        4 0.76841516E-01 0.12499976E+03</pdfrwt>
<pdfrwt beam="2">  1       -4 0.12031941E-02 0.12499976E+03</pdfrwt>
<totfact> 0.55303404E+03</totfact>
</mgrwt>
</event>
<event>
 5    1  0.3398872E-002  0.1249989E+03  0.7818608E-02  0.1235071E+00
         -4   -1    0    0    0  501 -0.00000000000E+00  0.00000000000E+00  0.38744823154E+03  0.38745031298E+03  0.12700000000E+01 0.  1.
          4   -1    0    0  501    0  0.00000000000E+00 -0.00000000000E+00 -0.10039697919E+02  0.10119705248E+02  0.12700000000E+01 0.  1.
         25    2    1    2    0    0  0.00000000000E+00  0.00000000000E+00  0.37740853362E+03  0.39757001822E+03  0.12499887255E+03 0.  0.
    9000005    1    3    3    0    0  0.20436317358E+02  0.19646600282E+02  0.11572378362E+02  0.30635794600E+02  0.10000000000E+01 0.  0.
    9000005    1    3    3    0    0 -0.20436317358E+02 -0.19646600282E+02  0.36583615526E+03  0.36693422362E+03  0.10000000000E+01 0.  0.
<mgrwt>
<rscale>  0 0.12499887E+03</rscale>
<asrwt>0</asrwt>
<pdfrwt beam="2">  1        4 0.15508838E-02 0.12499887E+03</pdfrwt>
<pdfrwt beam="1">  1       -4 0.59613720E-01 0.12499887E+03</pdfrwt>
<totfact> 0.64791434E+03</totfact>
</mgrwt>
</event>
<event>
 5    1  0.3398872E-002  0.1249925E+03  0.7818608E-02  0.1235081E+00
          4   -1    0    0  501    0  0.00000000000E+00  0.00000000000E+00  0.46858618609E+02  0.46875825731E+02  0.12700000000E+01 0. -1.
         -4   -1    0    0    0  501 -0.00000000000E+00 -0.00000000000E+00 -0.83315048452E+02  0.83324727414E+02  0.12700000000E+01 0. -1.
         25    2    1    2    0    0  0.00000000000E+00  0.00000000000E+00 -0.36456429843E+02  0.13020055314E+03  0.12499245082E+03 0.  0.
    9000005    1    3    3    0    0 -0.43364550393E+01 -0.35753622664E+01 -0.83056338902E+02  0.83252288193E+02  0.10000000000E+01 0.  0.
    9000005    1    3    3    0    0  0.43364550393E+01  0.35753622664E+01  0.46599909059E+02  0.46948264951E+02  0.10000000000E+01 0.  0.
<mgrwt>
<rscale>  0 0.12499245E+03</rscale>
<asrwt>0</asrwt>
<pdfrwt beam="1">  1        4 0.72110864E-02 0.12499245E+03</pdfrwt>
<pdfrwt beam="2">  1       -4 0.12819768E-01 0.12499245E+03</pdfrwt>
<totfact> 0.10341981E+04</totfact>
</mgrwt>
</event>
<event>
 5    1  0.3398872E-002  0.1250012E+03  0.7818608E-02  0.1235067E+00
          4   -1    0    0  501    0  0.00000000000E+00  0.00000000000E+00  0.15901234204E+03  0.15901741358E+03  0.12700000000E+01 0. -1.
         -4   -1    0    0    0  501 -0.00000000000E+00 -0.00000000000E+00 -0.24544308048E+02  0.24577142990E+02  0.12700000000E+01 0. -1.
         25    2    1    2    0    0  0.00000000000E+00  0.00000000000E+00  0.13446803400E+03  0.18359455657E+03  0.12500123614E+03 0.  0.
    9000005    1    3    3    0    0  0.46843844180E+01  0.43026018141E+02  0.10241219225E+01  0.43303931925E+02  0.10000000000E+01 0.  0.
    9000005    1    3    3    0    0 -0.46843844180E+01 -0.43026018141E+02  0.13344391207E+03  0.14029062465E+03  0.10000000000E+01 0.  0.
<mgrwt>
<rscale>  0 0.12500124E+03</rscale>
<asrwt>0</asrwt>
<pdfrwt beam="1">  1        4 0.24466353E-01 0.12500124E+03</pdfrwt>
<pdfrwt beam="2">  1       -4 0.37789633E-02 0.12500124E+03</pdfrwt>
<totfact> 0.92971368E+03</totfact>
</mgrwt>
</event>
<event>
 5    1  0.3398872E-002  0.1250015E+03  0.7818608E-02  0.1235067E+00
          4   -1    0    0  501    0  0.00000000000E+00  0.00000000000E+00  0.49332225852E+03  0.49332389325E+03  0.12700000000E+01 0.  1.
         -4   -1    0    0    0  501 -0.00000000000E+00 -0.00000000000E+00 -0.78658645375E+01  0.79677302240E+01  0.12700000000E+01 0.  1.
         25    2    1    2    0    0  0.00000000000E+00  0.00000000000E+00  0.48545639398E+03  0.50129162347E+03  0.12500152522E+03 0.  0.
    9000005    1    3    3    0    0 -0.52782446991E+02 -0.12493889182E+02  0.11826320862E+03  0.13011253010E+03  0.10000000000E+01 0.  0.
    9000005    1    3    3    0    0  0.52782446991E+02  0.12493889182E+02  0.36719318536E+03  0.37117909337E+03  0.10000000000E+01 0.  0.
<mgrwt>
<rscale>  0 0.12500153E+03</rscale>
<asrwt>0</asrwt>
<pdfrwt beam="1">  1        4 0.75903696E-01 0.12500153E+03</pdfrwt>
<pdfrwt beam="2">  1       -4 0.12180945E-02 0.12500153E+03</pdfrwt>
<totfact> 0.55762419E+03</totfact>
</mgrwt>
</event>
<event>
 5    1  0.3398872E-002  0.1249970E+03  0.7818608E-02  0.1235074E+00
         -4   -1    0    0    0  501 -0.00000000000E+00  0.00000000000E+00  0.57107905798E+02  0.57122025565E+02  0.12700000000E+01 0. -1.
          4   -1    0    0  501    0  0.00000000000E+00 -0.00000000000E+00 -0.68369464210E+02  0.68381258663E+02  0.12700000000E+01 0. -1.
         25    2    1    2    0    0  0.00000000000E+00  0.00000000000E+00 -0.11261558412E+02  0.12550328423E+03  0.12499700658E+03 0.  0.
    9000005    1    3    3    0    0  0.90409030682E+01 -0.46517061600E+02  0.35271031242E+02  0.59081474195E+02  0.10000000000E+01 0.  0.
    9000005    1    3    3    0    0 -0.90409030682E+01  0.46517061600E+02 -0.46532589654E+02  0.66421810033E+02  0.10000000000E+01 0.  0.
<mgrwt>
<rscale>  0 0.12499701E+03</rscale>
<asrwt>0</asrwt>
<pdfrwt beam="2">  1        4 0.10520373E-01 0.12499701E+03</pdfrwt>
<pdfrwt beam="1">  1       -4 0.87878250E-02 0.12499701E+03</pdfrwt>
<totfact> 0.10442587E+04</totfact>
</mgrwt>
</event>
<event>
 5    1  0.3398872E-002  0.1250015E+03  0.7818608E-02  0.1235067E+00
          4   -1    0    0  501    0  0.00000000000E+00  0.00000000000E+00  0.92678671206E+02  0.92687372369E+02  0.12700000000E+01 0.  1.
         -4   -1    0    0    0  501 -0.00000000000E+00 -0.00000000000E+00 -0.42129095330E+02  0.42148233336E+02  0.12700000000E+01 0.  1.
         25    2    1    2    0    0  0.00000000000E+00  0.00000000000E+00  0.50549575877E+02  0.13483560570E+03  0.12500152377E+03 0.  0.
    9000005    1    3    3    0    0  0.55953709855E+02 -0.27131506332E+02  0.31959851206E+02  0.69924018559E+02  0.10000000000E+01 0.  0.
    9000005    1    3    3    0    0 -0.55953709855E+02  0.27131506332E+02  0.18589724671E+02  0.64911587145E+02  0.10000000000E+01 0.  0.
<mgrwt>
<rscale>  0 0.12500152E+03</rscale>
<asrwt>0</asrwt>
<pdfrwt beam="1">  1        4 0.14260398E-01 0.12500152E+03</pdfrwt>
<pdfrwt beam="2">  1       -4 0.64835408E-02 0.12500152E+03</pdfrwt>
<totfact> 0.10241185E+04</totfact>
</mgrwt>
</event>
<event>
 5    1  0.3398872E-002  0.1250002E+03  0.7818608E-02  0.1235069E+00
         -4   -1    0    0    0  501 -0.00000000000E+00  0.00000000000E+00  0.12091259505E+03  0.12091926456E+03  0.12700000000E+01 0.  1.
          4   -1    0    0  501    0  0.00000000000E+00 -0.00000000000E+00 -0.32286430183E+02  0.32311398514E+02  0.12700000000E+01 0.  1.
         25    2    1    2    0    0  0.00000000000E+00  0.00000000000E+00  0.88626164865E+02  0.15323066307E+03  0.12500015603E+03 0.  0.
    9000005    1    3    3    0    0  0.19940627915E+02 -0.10656035949E+02  0.11572918798E+03  0.11792126481E+03  0.10000000000E+01 0.  0.
    9000005    1    3    3    0    0 -0.19940627915E+02  0.10656035949E+02 -0.27103023114E+02  0.35309398263E+02  0.10000000000E+01 0.  0.
<mgrwt>
<rscale>  0 0.12500016E+03</rscale>
<asrwt>0</asrwt>
<pdfrwt beam="2">  1        4 0.49695768E-02 0.12500016E+03</pdfrwt>
<pdfrwt beam="1">  1       -4 0.18604371E-01 0.12500016E+03</pdfrwt>
<totfact> 0.98663222E+03</totfact>
</mgrwt>
</event>
<event>
 5    1  0.3398872E-002  0.1250125E+03  0.7818608E-02  0.1235050E+00
          4   -1    0    0  501    0  0.00000000000E+00  0.00000000000E+00  0.10376454552E+03  0.10377231716E+03  0.12700000000E+01 0. -1.
         -4   -1    0    0    0  501 -0.00000000000E+00 -0.00000000000E+00 -0.37632963468E+02  0.37654386721E+02  0.12700000000E+01 0. -1.
         25    2    1    2    0    0  0.00000000000E+00  0.00000000000E+00  0.66131582057E+02  0.14142670388E+03  0.12501250507E+03 0.  0.
    9000005    1    3    3    0    0 -0.47747970296E+02  0.19676384999E+02 -0.67553873907E+01  0.52092840705E+02  0.10000000000E+01 0.  0.
    9000005    1    3    3    0    0  0.47747970296E+02 -0.19676384999E+02  0.72886969447E+02  0.89333863172E+02  0.10000000000E+01 0.  0.
<mgrwt>
<rscale>  0 0.12501251E+03</rscale>
<asrwt>0</asrwt>
<pdfrwt beam="1">  1        4 0.15966022E-01 0.12501251E+03</pdfrwt>
<pdfrwt beam="2">  1       -4 0.57919325E-02 0.12501251E+03</pdfrwt>
<totfact> 0.10101256E+04</totfact>
</mgrwt>
</event>
<event>
 5    1  0.3398872E-002  0.1250007E+03  0.7818608E-02  0.1235068E+00
         -4   -1    0    0    0  501 -0.00000000000E+00  0.00000000000E+00  0.76247631756E+02  0.76258207744E+02  0.12700000000E+01 0. -1.
          4   -1    0    0  501    0  0.00000000000E+00 -0.00000000000E+00 -0.51209680886E+02  0.51225426464E+02  0.12700000000E+01 0. -1.
         25    2    1    2    0    0  0.00000000000E+00  0.00000000000E+00  0.25037950870E+02  0.12748363421E+03  0.12500071203E+03 0.  0.
    9000005    1    3    3    0    0  0.77852485864E+00 -0.41141698466E+02 -0.35447667561E+02  0.54321106295E+02  0.10000000000E+01 0.  0.
    9000005    1    3    3    0    0 -0.77852485864E+00  0.41141698466E+02  0.60485618431E+02  0.73162527913E+02  0.10000000000E+01 0.  0.
<mgrwt>
<rscale>  0 0.12500071E+03</rscale>
<asrwt>0</asrwt>
<pdfrwt beam="2">  1        4 0.78804372E-02 0.12500071E+03</pdfrwt>
<pdfrwt beam="1">  1       -4 0.11732430E-01 0.12500071E+03</pdfrwt>
<totfact> 0.10398488E+04</totfact>
</mgrwt>
</event>
<event>
 5    1  0.3398872E-002  0.1250011E+03  0.7818608E-02  0.1235068E+00
         -4   -1    0    0    0  501 -0.00000000000E+00  0.00000000000E+00  0.53797920094E+03  0.53798069997E+03  0.12700000000E+01 0.  1.
          4   -1    0    0  501    0  0.00000000000E+00 -0.00000000000E+00 -0.72040470041E+01  0.73151345331E+01  0.12700000000E+01 0.  1.
         25    2    1    2    0    0  0.00000000000E+00  0.00000000000E+00  0.53077515394E+03  0.54529583451E+03  0.12500113237E+03 0.  0.
    9000005    1    3    3    0    0 -0.46136378445E+02  0.36400123182E+02  0.35811000697E+03  0.36290124204E+03  0.10000000000E+01 0.  0.
    9000005    1    3    3    0    0  0.46136378445E+02 -0.36400123182E+02  0.17266514697E+03  0.18239459247E+03  0.10000000000E+01 0.  0.
<mgrwt>
<rscale>  0 0.12500113E+03</rscale>
<asrwt>0</asrwt>
<pdfrwt beam="2">  1        4 0.11169750E-02 0.12500113E+03</pdfrwt>
<pdfrwt beam="1">  1       -4 0.82774727E-01 0.12500113E+03</pdfrwt>
<totfact> 0.52512302E+03</totfact>
</mgrwt>
</event>
<event>
 5    1  0.3398872E-002  0.1250004E+03  0.7818608E-02  0.1235069E+00
          4   -1    0    0  501    0  0.00000000000E+00  0.00000000000E+00  0.51052799169E+03  0.51052957133E+03  0.12700000000E+01 0.  1.
         -4   -1    0    0    0  501 -0.00000000000E+00 -0.00000000000E+00 -0.75971350998E+01  0.77025555321E+01  0.12700000000E+01 0.  1.
         25    2    1    2    0    0  0.00000000000E+00  0.00000000000E+00  0.50293085659E+03  0.51823212686E+03  0.12500036319E+03 0.  0.
    9000005    1    3    3    0    0  0.39472233160E+02 -0.39040962244E+02  0.37040268835E+03  0.37454159376E+03  0.10000000000E+01 0.  0.
    9000005    1    3    3    0    0 -0.39472233160E+02  0.39040962244E+02  0.13252816824E+03  0.14369053310E+03  0.10000000000E+01 0.  0.
<mgrwt>
<rscale>  0 0.12500036E+03</rscale>
<asrwt>0</asrwt>
<pdfrwt beam="1">  1        4 0.78551002E-01 0.12500036E+03</pdfrwt>
<pdfrwt beam="2">  1       -4 0.11770207E-02 0.12500036E+03</pdfrwt>
<totfact> 0.54476578E+03</totfact>
</mgrwt>
</event>
<event>
 5    1  0.3398872E-002  0.1249980E+03  0.7818608E-02  0.1235072E+00
          4   -1    0    0  501    0  0.00000000000E+00  0.00000000000E+00  0.34939573107E+02  0.34962646767E+02  0.12700000000E+01 0.  1.
         -4   -1    0    0    0  501 -0.00000000000E+00 -0.00000000000E+00 -0.11173292001E+03  0.11174013744E+03  0.12700000000E+01 0.  1.
         25    2    1    2    0    0  0.00000000000E+00  0.00000000000E+00 -0.76793346905E+02  0.14670278420E+03  0.12499795504E+03 0.  0.
    9000005    1    3    3    0    0 -0.37616183411E+02  0.12166612428E+02 -0.95195567364E+02  0.10308346016E+03  0.10000000000E+01 0.  0.
    9000005    1    3    3    0    0  0.37616183411E+02 -0.12166612428E+02  0.18402220459E+02  0.43619324046E+02  0.10000000000E+01 0.  0.
<mgrwt>
<rscale>  0 0.12499796E+03</rscale>
<asrwt>0</asrwt>
<pdfrwt beam="1">  1        4 0.53776491E-02 0.12499796E+03</pdfrwt>
<pdfrwt beam="2">  1       -4 0.17192010E-01 0.12499796E+03</pdfrwt>
<totfact> 0.99969660E+03</totfact>
</mgrwt>
</event>
<event>
 5    1  0.3398872E-002  0.1250092E+03  0.7818608E-02  0.1235055E+00
         -4   -1    0    0    0  501 -0.00000000000E+00  0.00000000000E+00  0.63456022153E+02  0.63468729682E+02  0.12700000000E+01 0.  1.
          4   -1    0    0  501    0  0.00000000000E+00 -0.00000000000E+00 -0.61542018108E+02  0.61555120768E+02  0.12700000000E+01 0.  1.
         25    2    1    2    0    0  0.00000000000E+00  0.00000000000E+00  0.19140040451E+01  0.12502385045E+03  0.12500919874E+03 0.  0.
    9000005    1    3    3    0    0 -0.43231567904E+02 -0.32341901046E+02  0.32438587060E+02  0.62993880315E+02  0.10000000000E+01 0.  0.
    9000005    1    3    3    0    0  0.43231567904E+02  0.32341901046E+02 -0.30524583014E+02  0.62029970135E+02  0.10000000000E+01 0.  0.
<mgrwt>
<rscale>  0 0.12500920E+03</rscale>
<asrwt>0</asrwt>
<pdfrwt beam="2">  1        4 0.94699882E-02 0.12500920E+03</pdfrwt>
<pdfrwt beam="1">  1       -4 0.97644504E-02 0.12500920E+03</pdfrwt>
<totfact> 0.10450172E+04</totfact>
</mgrwt>
</event>
<event>
 5    1  0.3398872E-002  0.1250227E+03  0.7818608E-02  0.1235034E+00
          4   -1    0    0  501    0  0.00000000000E+00  0.00000000000E+00  0.60452526520E+02  0.60465865268E+02  0.12700000000E+01 0.  1.
         -4   -1    0    0    0  501 -0.00000000000E+00 -0.00000000000E+00 -0.64613628367E+02  0.64626108275E+02  0.12700000000E+01 0.  1.
         25    2    1    2    0    0  0.00000000000E+00  0.00000000000E+00 -0.41611018473E+01  0.12509197354E+03  0.12502274624E+03 0.  0.
    9000005    1    3    3    0    0  0.17691607095E+02  0.40619851019E+02  0.42031348106E+02  0.61078633597E+02  0.10000000000E+01 0.  0.
    9000005    1    3    3    0    0 -0.17691607095E+02 -0.40619851019E+02 -0.46192449954E+02  0.64013339947E+02  0.10000000000E+01 0.  0.
<mgrwt>
<rscale>  0 0.12502275E+03</rscale>
<asrwt>0</asrwt>
<pdfrwt beam="1">  1        4 0.93023747E-02 0.12502275E+03</pdfrwt>
<pdfrwt beam="2">  1       -4 0.99425443E-02 0.12502275E+03</pdfrwt>
<totfact> 0.10445495E+04</totfact>
</mgrwt>
</event>
<event>
 5    1  0.3398872E-002  0.1250093E+03  0.7818608E-02  0.1235055E+00
          4   -1    0    0  501    0  0.00000000000E+00  0.00000000000E+00  0.17498779181E+03  0.17499240036E+03  0.12700000000E+01 0. -1.
         -4   -1    0    0    0  501 -0.00000000000E+00 -0.00000000000E+00 -0.22303322730E+02  0.22339451757E+02  0.12700000000E+01 0. -1.
         25    2    1    2    0    0  0.00000000000E+00  0.00000000000E+00  0.15268446908E+03  0.19733185212E+03  0.12500925070E+03 0.  0.
    9000005    1    3    3    0    0 -0.27838220625E+02 -0.51049823731E+02  0.40181062159E+02  0.70686411614E+02  0.10000000000E+01 0.  0.
    9000005    1    3    3    0    0  0.27838220625E+02  0.51049823731E+02  0.11250340692E+03  0.12664544050E+03  0.10000000000E+01 0.  0.
<mgrwt>
<rscale>  0 0.12500925E+03</rscale>
<asrwt>0</asrwt>
<pdfrwt beam="1">  1        4 0.26924332E-01 0.12500925E+03</pdfrwt>
<pdfrwt beam="2">  1       -4 0.34344141E-02 0.12500925E+03</pdfrwt>
<totfact> 0.90568258E+03</totfact>
</mgrwt>
</event>
<event>
 5    1  0.3398872E-002  0.1249849E+03  0.7818608E-02  0.1235093E+00
         -4   -1    0    0    0  501 -0.00000000000E+00  0.00000000000E+00  0.23769172782E+03  0.23769512064E+03  0.12700000000E+01 0. -1.
          4   -1    0    0  501    0  0.00000000000E+00 -0.00000000000E+00 -0.16402078102E+02  0.16451172179E+02  0.12700000000E+01 0. -1.
         25    2    1    2    0    0  0.00000000000E+00  0.00000000000E+00  0.22128964972E+03  0.25414629282E+03  0.12498491541E+03 0.  0.
    9000005    1    3    3    0    0  0.55678305927E+01  0.24673649449E+02  0.22682597800E+03  0.22823412105E+03  0.10000000000E+01 0.  0.
    9000005    1    3    3    0    0 -0.55678305927E+01 -0.24673649449E+02 -0.55363282854E+01  0.25912171764E+02  0.10000000000E+01 0.  0.
<mgrwt>
<rscale>  0 0.12498492E+03</rscale>
<asrwt>0</asrwt>
<pdfrwt beam="2">  1        4 0.25274341E-02 0.12498492E+03</pdfrwt>
<pdfrwt beam="1">  1       -4 0.36571995E-01 0.12498492E+03</pdfrwt>
<totfact> 0.81762091E+03</totfact>
</mgrwt>
</event>
<event>
 5    1  0.3398872E-002  0.1249915E+03  0.7818608E-02  0.1235083E+00
          4   -1    0    0  501    0  0.00000000000E+00  0.00000000000E+00  0.21594434160E+03  0.21594807610E+03  0.12700000000E+01 0.  1.
         -4   -1    0    0    0  501 -0.00000000000E+00 -0.00000000000E+00 -0.18060495485E+02  0.18105093128E+02  0.12700000000E+01 0.  1.
         25    2    1    2    0    0  0.00000000000E+00  0.00000000000E+00  0.19788384612E+03  0.23405316923E+03  0.12499147759E+03 0.  0.
    9000005    1    3    3    0    0  0.10642500870E+02 -0.40779770008E+02  0.12551147971E+02  0.43986177171E+02  0.10000000000E+01 0.  0.
    9000005    1    3    3    0    0 -0.10642500870E+02  0.40779770008E+02  0.18533269815E+03  0.19006699206E+03  0.10000000000E+01 0.  0.
<mgrwt>
<rscale>  0 0.12499148E+03</rscale>
<asrwt>0</asrwt>
<pdfrwt beam="1">  1        4 0.33225923E-01 0.12499148E+03</pdfrwt>
<pdfrwt beam="2">  1       -4 0.27822557E-02 0.12499148E+03</pdfrwt>
<totfact> 0.84707191E+03</totfact>
</mgrwt>
</event>
<event>
 5    1  0.3398872E-002  0.1250017E+03  0.7818608E-02  0.1235067E+00
          4   -1    0    0  501    0  0.00000000000E+00  0.00000000000E+00  0.74455138579E+02  0.74465969146E+02  0.12700000000E+01 0.  1.
         -4   -1    0    0    0  501 -0.00000000000E+00 -0.00000000000E+00 -0.52443557014E+02  0.52458932245E+02  0.12700000000E+01 0.  1.
         25    2    1    2    0    0  0.00000000000E+00  0.00000000000E+00  0.22011581565E+02  0.12692490139E+03  0.12500168347E+03 0.  0.
    9000005    1    3    3    0    0 -0.18338151076E+02  0.59712000142E+02  0.12917433509E+02  0.63793971771E+02  0.10000000000E+01 0.  0.
    9000005    1    3    3    0    0  0.18338151076E+02 -0.59712000142E+02  0.90941480560E+01  0.63130929620E+02  0.10000000000E+01 0.  0.
<mgrwt>
<rscale>  0 0.12500168E+03</rscale>
<asrwt>0</asrwt>
<pdfrwt beam="1">  1        4 0.11456652E-01 0.12500168E+03</pdfrwt>
<pdfrwt beam="2">  1       -4 0.80702554E-02 0.12500168E+03</pdfrwt>
<totfact> 0.10410382E+04</totfact>
</mgrwt>
</event>
<event>
 5    1  0.3398872E-002  0.1250009E+03  0.7818608E-02  0.1235068E+00
         -4   -1    0    0    0  501 -0.00000000000E+00  0.00000000000E+00  0.48935326770E+02  0.48951803910E+02  0.12700000000E+01 0.  1.
          4   -1    0    0  501    0  0.00000000000E+00 -0.00000000000E+00 -0.79790967950E+02  0.79801074344E+02  0.12700000000E+01 0.  1.
         25    2    1    2    0    0  0.00000000000E+00  0.00000000000E+00 -0.30855641180E+02  0.12875287825E+03  0.12500093226E+03 0.  0.
    9000005    1    3    3    0    0 -0.15709753232E+02 -0.55812963912E+01 -0.77463149202E+02  0.79243212329E+02  0.10000000000E+01 0.  0.
    9000005    1    3    3    0    0  0.15709753232E+02  0.55812963912E+01  0.46607508021E+02  0.49509665925E+02  0.10000000000E+01 0.  0.
<mgrwt>
<rscale>  0 0.12500093E+03</rscale>
<asrwt>0</asrwt>
<pdfrwt beam="2">  1        4 0.12277578E-01 0.12500093E+03</pdfrwt>
<pdfrwt beam="1">  1       -4 0.75305567E-02 0.12500093E+03</pdfrwt>
<totfact> 0.10371042E+04</totfact>
</mgrwt>
</event>
<event>
 5    1  0.3398872E-002  0.1249998E+03  0.7818608E-02  0.1235070E+00
         -4   -1    0    0    0  501 -0.00000000000E+00  0.00000000000E+00  0.40914048563E+02  0.40933754651E+02  0.12700000000E+01 0. -1.
          4   -1    0    0  501    0  0.00000000000E+00 -0.00000000000E+00 -0.95427243261E+02  0.95435693828E+02  0.12700000000E+01 0. -1.
         25    2    1    2    0    0  0.00000000000E+00  0.00000000000E+00 -0.54513194698E+02  0.13636944848E+03  0.12499975233E+03 0.  0.
    9000005    1    3    3    0    0  0.31641330209E+02  0.19771993216E+02 -0.81947529405E+02  0.90047226880E+02  0.10000000000E+01 0.  0.
    9000005    1    3    3    0    0 -0.31641330209E+02 -0.19771993216E+02  0.27434334707E+02  0.46322221600E+02  0.10000000000E+01 0.  0.
<mgrwt>
<rscale>  0 0.12499975E+03</rscale>
<asrwt>0</asrwt>
<pdfrwt beam="2">  1        4 0.14683280E-01 0.12499975E+03</pdfrwt>
<pdfrwt beam="1">  1       -4 0.62966349E-02 0.12499975E+03</pdfrwt>
<totfact> 0.10209343E+04</totfact>
</mgrwt>
</event>
<event>
 5    1  0.3398872E-002  0.1249955E+03  0.7818608E-02  0.1235076E+00
         -4   -1    0    0    0  501 -0.00000000000E+00  0.00000000000E+00  0.34099878230E+01  0.36388070783E+01  0.12700000000E+01 0. -1.
          4   -1    0    0  501    0  0.00000000000E+00 -0.00000000000E+00 -0.11080368959E+04  0.11080376237E+04  0.12700000000E+01 0. -1.
         25    2    1    2    0    0  0.00000000000E+00  0.00000000000E+00 -0.11046269081E+04  0.11116764308E+04  0.12499552288E+03 0.  0.
    9000005    1    3    3    0    0 -0.20856589440E+02  0.57290138947E+02 -0.67419742141E+03  0.67694927460E+03  0.10000000000E+01 0.  0.
    9000005    1    3    3    0    0  0.20856589440E+02 -0.57290138947E+02 -0.43042948665E+03  0.43472715618E+03  0.10000000000E+01 0.  0.
<mgrwt>
<rscale>  0 0.12499552E+03</rscale>
<asrwt>0</asrwt>
<pdfrwt beam="2">  1        4 0.17048460E+00 0.12499552E+03</pdfrwt>
<pdfrwt beam="1">  1       -4 0.54227186E-03 0.12499552E+03</pdfrwt>
<totfact> 0.27146852E+03</totfact>
</mgrwt>
</event>
<event>
 5    1  0.3398872E-002  0.1250025E+03  0.7818608E-02  0.1235065E+00
          4   -1    0    0  501    0  0.00000000000E+00  0.00000000000E+00  0.54549456287E+02  0.54564238116E+02  0.12700000000E+01 0.  1.
         -4   -1    0    0    0  501 -0.00000000000E+00 -0.00000000000E+00 -0.71582105881E+02  0.71593371078E+02  0.12700000000E+01 0.  1.
         25    2    1    2    0    0  0.00000000000E+00  0.00000000000E+00 -0.17032649594E+02  0.12615760919E+03  0.12500252480E+03 0.  0.
    9000005    1    3    3    0    0 -0.95281729019E+00 -0.64280919184E+01  0.54212494513E+02  0.54609731622E+02  0.10000000000E+01 0.  0.
    9000005    1    3    3    0    0  0.95281729019E+00  0.64280919184E+01 -0.71245144106E+02  0.71547877573E+02  0.10000000000E+01 0.  0.
<mgrwt>
<rscale>  0 0.12500252E+03</rscale>
<asrwt>0</asrwt>
<pdfrwt beam="1">  1        4 0.83942277E-02 0.12500252E+03</pdfrwt>
<pdfrwt beam="2">  1       -4 0.11014635E-01 0.12500252E+03</pdfrwt>
<totfact> 0.10426912E+04</totfact>
</mgrwt>
</event>
<event>
 5    1  0.3398872E-002  0.1250049E+03  0.7818608E-02  0.1235062E+00
         -4   -1    0    0    0  501 -0.00000000000E+00  0.00000000000E+00  0.21142468892E+02  0.21180578152E+02  0.12700000000E+01 0.  1.
          4   -1    0    0  501    0  0.00000000000E+00 -0.00000000000E+00 -0.18456639092E+03  0.18457076030E+03  0.12700000000E+01 0.  1.
         25    2    1    2    0    0  0.00000000000E+00  0.00000000000E+00 -0.16342392203E+03  0.20575133845E+03  0.12500493984E+03 0.  0.
    9000005    1    3    3    0    0  0.10840667262E+02 -0.16245980724E+02 -0.17942218835E+03  0.18048482936E+03  0.10000000000E+01 0.  0.
    9000005    1    3    3    0    0 -0.10840667262E+02  0.16245980724E+02  0.15998266322E+02  0.25266509092E+02  0.10000000000E+01 0.  0.
<mgrwt>
<rscale>  0 0.12500494E+03</rscale>
<asrwt>0</asrwt>
<pdfrwt beam="2">  1        4 0.28398096E-01 0.12500494E+03</pdfrwt>
<pdfrwt beam="1">  1       -4 0.32559552E-02 0.12500494E+03</pdfrwt>
<totfact> 0.89164627E+03</totfact>
</mgrwt>
</event>
<event>
 5    1  0.3398872E-002  0.1249906E+03  0.7818608E-02  0.1235084E+00
         -4   -1    0    0    0  501 -0.00000000000E+00  0.00000000000E+00  0.14182791272E+02  0.14239538907E+02  0.12700000000E+01 0. -1.
          4   -1    0    0  501    0  0.00000000000E+00 -0.00000000000E+00 -0.27477243254E+03  0.27477536750E+03  0.12700000000E+01 0. -1.
         25    2    1    2    0    0  0.00000000000E+00  0.00000000000E+00 -0.26058964127E+03  0.28901490641E+03  0.12499061960E+03 0.  0.
    9000005    1    3    3    0    0  0.45287076589E+02  0.43044984517E+02 -0.12813341536E+03  0.14255862699E+03  0.10000000000E+01 0.  0.
    9000005    1    3    3    0    0 -0.45287076589E+02 -0.43044984517E+02 -0.13245622591E+03  0.14645627942E+03  0.10000000000E+01 0.  0.
<mgrwt>
<rscale>  0 0.12499062E+03</rscale>
<asrwt>0</asrwt>
<pdfrwt beam="2">  1        4 0.42277269E-01 0.12499062E+03</pdfrwt>
<pdfrwt beam="1">  1       -4 0.21865590E-02 0.12499062E+03</pdfrwt>
<totfact> 0.77013828E+03</totfact>
</mgrwt>
</event>
<event>
 5    1  0.3398872E-002  0.1249990E+03  0.7818608E-02  0.1235071E+00
          4   -1    0    0  501    0  0.00000000000E+00  0.00000000000E+00  0.20287457966E+03  0.20287855473E+03  0.12700000000E+01 0.  1.
         -4   -1    0    0    0  501 -0.00000000000E+00 -0.00000000000E+00 -0.19229090937E+02  0.19270984361E+02  0.12700000000E+01 0.  1.
         25    2    1    2    0    0  0.00000000000E+00  0.00000000000E+00  0.18364548872E+03  0.22214953910E+03  0.12499900877E+03 0.  0.
    9000005    1    3    3    0    0 -0.23193960825E+02 -0.39236701235E+02  0.15843943901E+02  0.48264988354E+02  0.10000000000E+01 0.  0.
    9000005    1    3    3    0    0  0.23193960825E+02  0.39236701235E+02  0.16780154482E+03  0.17388455074E+03  0.10000000000E+01 0.  0.
<mgrwt>
<rscale>  0 0.12499901E+03</rscale>
<asrwt>0</asrwt>
<pdfrwt beam="1">  1        4 0.31215002E-01 0.12499901E+03</pdfrwt>
<pdfrwt beam="2">  1       -4 0.29618500E-02 0.12499901E+03</pdfrwt>
<totfact> 0.86531266E+03</totfact>
</mgrwt>
</event>
<event>
 5    1  0.3398872E-002  0.1249972E+03  0.7818608E-02  0.1235074E+00
         -4   -1    0    0    0  501 -0.00000000000E+00  0.00000000000E+00  0.36495212249E+02  0.36517302982E+02  0.12700000000E+01 0.  1.
          4   -1    0    0  501    0  0.00000000000E+00 -0.00000000000E+00 -0.10697155712E+03  0.10697909578E+03  0.12700000000E+01 0.  1.
         25    2    1    2    0    0  0.00000000000E+00  0.00000000000E+00 -0.70476344873E+02  0.14349639876E+03  0.12499720505E+03 0.  0.
    9000005    1    3    3    0    0 -0.50192331551E+02 -0.17881941636E+02  0.22442561160E+01  0.53339203863E+02  0.10000000000E+01 0.  0.
    9000005    1    3    3    0    0  0.50192331551E+02  0.17881941636E+02 -0.72720600989E+02  0.90157194895E+02  0.10000000000E+01 0.  0.
<mgrwt>
<rscale>  0 0.12499721E+03</rscale>
<asrwt>0</asrwt>
<pdfrwt beam="2">  1        4 0.16459442E-01 0.12499721E+03</pdfrwt>
<pdfrwt beam="1">  1       -4 0.56169273E-02 0.12499721E+03</pdfrwt>
<totfact> 0.10062261E+04</totfact>
</mgrwt>
</event>
<event>
 5    1  0.3398872E-002  0.1249999E+03  0.7818608E-02  0.1235069E+00
          4   -1    0    0  501    0  0.00000000000E+00  0.00000000000E+00  0.49321325094E+01  0.50930178765E+01  0.12700000000E+01 0. -1.
         -4   -1    0    0    0  501 -0.00000000000E+00 -0.00000000000E+00 -0.77912725350E+03  0.77912828856E+03  0.12700000000E+01 0. -1.
         25    2    1    2    0    0  0.00000000000E+00  0.00000000000E+00 -0.77419512099E+03  0.78422130644E+03  0.12499988846E+03 0.  0.
    9000005    1    3    3    0    0 -0.18803239321E+01 -0.62462432018E+02 -0.38465161584E+03  0.38969597971E+03  0.10000000000E+01 0.  0.
    9000005    1    3    3    0    0  0.18803239321E+01  0.62462432018E+02 -0.38954350515E+03  0.39452532673E+03  0.10000000000E+01 0.  0.
<mgrwt>
<rscale>  0 0.12499989E+03</rscale>
<asrwt>0</asrwt>
<pdfrwt beam="1">  1        4 0.77124565E-03 0.12499989E+03</pdfrwt>
<pdfrwt beam="2">  1       -4 0.11987809E+00 0.12499989E+03</pdfrwt>
<totfact> 0.38979032E+03</totfact>
</mgrwt>
</event>
<event>
 5    1  0.3398872E-002  0.1249998E+03  0.7818608E-02  0.1235070E+00
         -4   -1    0    0    0  501 -0.00000000000E+00  0.00000000000E+00  0.86496880821E+02  0.86506203776E+02  0.12700000000E+01 0. -1.
          4   -1    0    0  501    0  0.00000000000E+00 -0.00000000000E+00 -0.45139740427E+02  0.45157602525E+02  0.12700000000E+01 0. -1.
         25    2    1    2    0    0  0.00000000000E+00  0.00000000000E+00  0.41357140394E+02  0.13166380630E+03  0.12499977931E+03 0.  0.
    9000005    1    3    3    0    0  0.36848891487E+02 -0.40497253576E+02 -0.11049879685E+02  0.55865626213E+02  0.10000000000E+01 0.  0.
    9000005    1    3    3    0    0 -0.36848891487E+02  0.40497253576E+02  0.52407020079E+02  0.75798180088E+02  0.10000000000E+01 0.  0.
<mgrwt>
<rscale>  0 0.12499978E+03</rscale>
<asrwt>0</asrwt>
<pdfrwt beam="2">  1        4 0.69466667E-02 0.12499978E+03</pdfrwt>
<pdfrwt beam="1">  1       -4 0.13309303E-01 0.12499978E+03</pdfrwt>
<totfact> 0.10308931E+04</totfact>
</mgrwt>
</event>
<event>
 5    1  0.3398872E-002  0.1249998E+03  0.7818608E-02  0.1235070E+00
         -4   -1    0    0    0  501 -0.00000000000E+00  0.00000000000E+00  0.59081132783E+01  0.60430706193E+01  0.12700000000E+01 0.  1.
          4   -1    0    0  501    0  0.00000000000E+00 -0.00000000000E+00 -0.65356346638E+03  0.65356470030E+03  0.12700000000E+01 0.  1.
         25    2    1    2    0    0  0.00000000000E+00  0.00000000000E+00 -0.64765535310E+03  0.65960777092E+03  0.12499982026E+03 0.  0.
    9000005    1    3    3    0    0 -0.20218205447E+02 -0.57726975919E+02 -0.25623857851E+03  0.26343953519E+03  0.10000000000E+01 0.  0.
    9000005    1    3    3    0    0  0.20218205447E+02  0.57726975919E+02 -0.39141677458E+03  0.39616823574E+03  0.10000000000E+01 0.  0.
<mgrwt>
<rscale>  0 0.12499982E+03</rscale>
<asrwt>0</asrwt>
<pdfrwt beam="2">  1        4 0.10055865E+00 0.12499982E+03</pdfrwt>
<pdfrwt beam="1">  1       -4 0.91941727E-03 0.12499982E+03</pdfrwt>
<totfact> 0.45306454E+03</totfact>
</mgrwt>
</event>
<event>
 5    1  0.3398872E-002  0.1249991E+03  0.7818608E-02  0.1235071E+00
          4   -1    0    0  501    0  0.00000000000E+00  0.00000000000E+00  0.35834555063E+02  0.35857052815E+02  0.12700000000E+01 0. -1.
         -4   -1    0    0    0  501 -0.00000000000E+00 -0.00000000000E+00 -0.10894591391E+03  0.10895331596E+03  0.12700000000E+01 0. -1.
         25    2    1    2    0    0  0.00000000000E+00  0.00000000000E+00 -0.73111358849E+02  0.14481036877E+03  0.12499908844E+03 0.  0.
    9000005    1    3    3    0    0  0.43678292061E+02 -0.23866315713E+02 -0.80330696143E+02  0.94506163640E+02  0.10000000000E+01 0.  0.
    9000005    1    3    3    0    0 -0.43678292061E+02  0.23866315713E+02  0.72193372939E+01  0.50304205133E+02  0.10000000000E+01 0.  0.
<mgrwt>
<rscale>  0 0.12499909E+03</rscale>
<asrwt>0</asrwt>
<pdfrwt beam="1">  1        4 0.55153085E-02 0.12499909E+03</pdfrwt>
<pdfrwt beam="2">  1       -4 0.16763210E-01 0.12499909E+03</pdfrwt>
<totfact> 0.10035049E+04</totfact>
</mgrwt>
</event>
<event>
 5    1  0.3398872E-002  0.1249916E+03  0.7818608E-02  0.1235082E+00
          4   -1    0    0  501    0  0.00000000000E+00  0.00000000000E+00  0.78304248250E+01  0.79327456117E+01  0.12700000000E+01 0. -1.
         -4   -1    0    0    0  501 -0.00000000000E+00 -0.00000000000E+00 -0.49544753569E+03  0.49544916340E+03  0.12700000000E+01 0. -1.
         25    2    1    2    0    0  0.00000000000E+00  0.00000000000E+00 -0.48761711086E+03  0.50338190901E+03  0.12499159780E+03 0.  0.
    9000005    1    3    3    0    0  0.70082713761E+01 -0.45614848274E+02 -0.74139332324E+02  0.87335392873E+02  0.10000000000E+01 0.  0.
    9000005    1    3    3    0    0 -0.70082713761E+01  0.45614848274E+02 -0.41347777854E+03  0.41604651614E+03  0.10000000000E+01 0.  0.
<mgrwt>
<rscale>  0 0.12499160E+03</rscale>
<asrwt>0</asrwt>
<pdfrwt beam="1">  1        4 0.12126772E-02 0.12499160E+03</pdfrwt>
<pdfrwt beam="2">  1       -4 0.76230669E-01 0.12499160E+03</pdfrwt>
<totfact> 0.55613207E+03</totfact>
</mgrwt>
</event>
<event>
 5    1  0.3398872E-002  0.1250000E+03  0.7818608E-02  0.1235069E+00
         -4   -1    0    0    0  501 -0.00000000000E+00  0.00000000000E+00  0.24496353242E+02  0.24529252377E+02  0.12700000000E+01 0.  1.
          4   -1    0    0  501    0  0.00000000000E+00 -0.00000000000E+00 -0.15932012741E+03  0.15932518915E+03  0.12700000000E+01 0.  1.
         25    2    1    2    0    0  0.00000000000E+00  0.00000000000E+00 -0.13482377417E+03  0.18385444153E+03  0.12500002235E+03 0.  0.
    9000005    1    3    3    0    0  0.52725100121E+02  0.20494710627E+02 -0.28350698795E+02  0.63282947692E+02  0.10000000000E+01 0.  0.
    9000005    1    3    3    0    0 -0.52725100121E+02 -0.20494710627E+02 -0.10647307537E+03  0.12057149383E+03  0.10000000000E+01 0.  0.
<mgrwt>
<rscale>  0 0.12500002E+03</rscale>
<asrwt>0</asrwt>
<pdfrwt beam="2">  1        4 0.24513708E-01 0.12500002E+03</pdfrwt>
<pdfrwt beam="1">  1       -4 0.37715899E-02 0.12500002E+03</pdfrwt>
<totfact> 0.92927710E+03</totfact>
</mgrwt>
</event>
<event>
 5    1  0.3398872E-002  0.1249988E+03  0.7818608E-02  0.1235071E+00
          4   -1    0    0  501    0  0.00000000000E+00  0.00000000000E+00  0.89946312173E+03  0.89946401832E+03  0.12700000000E+01 0. -1.
         -4   -1    0    0    0  501 -0.00000000000E+00 -0.00000000000E+00 -0.42490145281E+01  0.44347519051E+01  0.12700000000E+01 0. -1.
         25    2    1    2    0    0  0.00000000000E+00  0.00000000000E+00  0.89521410721E+03  0.90389877023E+03  0.12499875632E+03 0.  0.
    9000005    1    3    3    0    0  0.25410565527E+02  0.34779713013E+02  0.77500415198E+03  0.77620085086E+03  0.10000000000E+01 0.  0.
    9000005    1    3    3    0    0 -0.25410565527E+02 -0.34779713013E+02  0.12020995522E+03  0.12769791937E+03  0.10000000000E+01 0.  0.
<mgrwt>
<rscale>  0 0.12499876E+03</rscale>
<asrwt>0</asrwt>
<pdfrwt beam="1">  1        4 0.13839332E+00 0.12499876E+03</pdfrwt>
<pdfrwt beam="2">  1       -4 0.66805089E-03 0.12499876E+03</pdfrwt>
<totfact> 0.34011985E+03</totfact>
</mgrwt>
</event>
<event>
 5    1  0.3398872E-002  0.1250005E+03  0.7818608E-02  0.1235068E+00
         -4   -1    0    0    0  501 -0.00000000000E+00  0.00000000000E+00  0.39401513997E+02  0.39421976172E+02  0.12700000000E+01 0.  1.
          4   -1    0    0  501    0  0.00000000000E+00 -0.00000000000E+00 -0.99090145490E+02  0.99098283705E+02  0.12700000000E+01 0.  1.
         25    2    1    2    0    0  0.00000000000E+00  0.00000000000E+00 -0.59688631493E+02  0.13852025988E+03  0.12500051867E+03 0.  0.
    9000005    1    3    3    0    0  0.35098124436E+02 -0.40327464575E+02 -0.65703094593E+02  0.84711742852E+02  0.10000000000E+01 0.  0.
    9000005    1    3    3    0    0 -0.35098124436E+02  0.40327464575E+02  0.60144631007E+01  0.53808517024E+02  0.10000000000E+01 0.  0.
<mgrwt>
<rscale>  0 0.12500052E+03</rscale>
<asrwt>0</asrwt>
<pdfrwt beam="2">  1        4 0.15246838E-01 0.12500052E+03</pdfrwt>
<pdfrwt beam="1">  1       -4 0.60639715E-02 0.12500052E+03</pdfrwt>
<totfact> 0.10164228E+04</totfact>
</mgrwt>
</event>
<event>
 5    1  0.3398872E-002  0.1250037E+03  0.7818608E-02  0.1235064E+00
         -4   -1    0    0    0  501 -0.00000000000E+00  0.00000000000E+00  0.46885970529E+02  0.46903167617E+02  0.12700000000E+01 0.  1.
          4   -1    0    0  501    0  0.00000000000E+00 -0.00000000000E+00 -0.83281439000E+02  0.83291121867E+02  0.12700000000E+01 0.  1.
         25    2    1    2    0    0  0.00000000000E+00  0.00000000000E+00 -0.36395468470E+02  0.13019428948E+03  0.12500369150E+03 0.  0.
    9000005    1    3    3    0    0  0.18469024352E+02  0.23688279857E+02 -0.75275137715E+02  0.81052981568E+02  0.10000000000E+01 0.  0.
    9000005    1    3    3    0    0 -0.18469024352E+02 -0.23688279857E+02  0.38879669245E+02  0.49141307915E+02  0.10000000000E+01 0.  0.
<mgrwt>
<rscale>  0 0.12500369E+03</rscale>
<asrwt>0</asrwt>
<pdfrwt beam="2">  1        4 0.12814597E-01 0.12500369E+03</pdfrwt>
<pdfrwt beam="1">  1       -4 0.72152939E-02 0.12500369E+03</pdfrwt>
<totfact> 0.10339491E+04</totfact>
</mgrwt>
</event>
<event>
 5    1  0.3398872E-002  0.1250024E+03  0.7818608E-02  0.1235066E+00
          4   -1    0    0  501    0  0.00000000000E+00  0.00000000000E+00  0.37718581309E+03  0.37718795116E+03  0.12700000000E+01 0.  1.
         -4   -1    0    0    0  501 -0.00000000000E+00 -0.00000000000E+00 -0.10315583930E+02  0.10393467747E+02  0.12700000000E+01 0.  1.
         25    2    1    2    0    0  0.00000000000E+00  0.00000000000E+00  0.36687022916E+03  0.38758141890E+03  0.12500236491E+03 0.  0.
    9000005    1    3    3    0    0 -0.16244110344E+02  0.45614995292E+01  0.37000526166E+03  0.37039110688E+03  0.10000000000E+01 0.  0.
    9000005    1    3    3    0    0  0.16244110344E+02 -0.45614995292E+01 -0.31350324966E+01  0.17190312027E+02  0.10000000000E+01 0.  0.
<mgrwt>
<rscale>  0 0.12500236E+03</rscale>
<asrwt>0</asrwt>
<pdfrwt beam="1">  1        4 0.58034745E-01 0.12500236E+03</pdfrwt>
<pdfrwt beam="2">  1       -4 0.15931684E-02 0.12500236E+03</pdfrwt>
<totfact> 0.65775356E+03</totfact>
</mgrwt>
</event>
<event>
 5    1  0.3398872E-002  0.1250019E+03  0.7818608E-02  0.1235066E+00
          4   -1    0    0  501    0  0.00000000000E+00  0.00000000000E+00  0.17665849962E+02  0.17711441355E+02  0.12700000000E+01 0. -1.
         -4   -1    0    0    0  501 -0.00000000000E+00 -0.00000000000E+00 -0.22079307842E+03  0.22079673091E+03  0.12700000000E+01 0. -1.
         25    2    1    2    0    0  0.00000000000E+00  0.00000000000E+00 -0.20312722846E+03  0.23850817226E+03  0.12500190916E+03 0.  0.
    9000005    1    3    3    0    0  0.38109047229E+02 -0.41947761833E+01 -0.19572619217E+03  0.19944833399E+03  0.10000000000E+01 0.  0.
    9000005    1    3    3    0    0 -0.38109047229E+02  0.41947761833E+01 -0.74010362871E+01  0.39059838275E+02  0.10000000000E+01 0.  0.
<mgrwt>
<rscale>  0 0.12500191E+03</rscale>
<asrwt>0</asrwt>
<pdfrwt beam="1">  1        4 0.27216112E-02 0.12500191E+03</pdfrwt>
<pdfrwt beam="2">  1       -4 0.33971952E-01 0.12500191E+03</pdfrwt>
<totfact> 0.84016476E+03</totfact>
</mgrwt>
</event>
<event>
 5    1  0.3398872E-002  0.1249998E+03  0.7818608E-02  0.1235070E+00
         -4   -1    0    0    0  501 -0.00000000000E+00  0.00000000000E+00  0.13083628116E+03  0.13084244482E+03  0.12700000000E+01 0.  1.
          4   -1    0    0  501    0  0.00000000000E+00 -0.00000000000E+00 -0.29835553031E+02  0.29862570631E+02  0.12700000000E+01 0.  1.
         25    2    1    2    0    0  0.00000000000E+00  0.00000000000E+00  0.10100072812E+03  0.16070501545E+03  0.12499981964E+03 0.  0.
    9000005    1    3    3    0    0  0.43352767642E+02  0.26609809207E+02  0.38314837522E+01  0.51021805887E+02  0.10000000000E+01 0.  0.
    9000005    1    3    3    0    0 -0.43352767642E+02 -0.26609809207E+02  0.97169244372E+02  0.10968320956E+03  0.10000000000E+01 0.  0.
<mgrwt>
<rscale>  0 0.12499982E+03</rscale>
<asrwt>0</asrwt>
<pdfrwt beam="2">  1        4 0.45926374E-02 0.12499982E+03</pdfrwt>
<pdfrwt beam="1">  1       -4 0.20131212E-01 0.12499982E+03</pdfrwt>
<totfact> 0.97207429E+03</totfact>
</mgrwt>
</event>
<event>
 5    1  0.3398872E-002  0.1250002E+03  0.7818608E-02  0.1235069E+00
         -4   -1    0    0    0  501 -0.00000000000E+00  0.00000000000E+00  0.97309323976E+02  0.97317611113E+02  0.12700000000E+01 0. -1.
          4   -1    0    0  501    0  0.00000000000E+00 -0.00000000000E+00 -0.40122703968E+02  0.40142798528E+02  0.12700000000E+01 0. -1.
         25    2    1    2    0    0  0.00000000000E+00  0.00000000000E+00  0.57186620008E+02  0.13746040964E+03  0.12500021884E+03 0.  0.
    9000005    1    3    3    0    0 -0.29124468770E+01  0.11930386491E+02  0.95974683836E+02  0.96762370817E+02  0.10000000000E+01 0.  0.
    9000005    1    3    3    0    0  0.29124468770E+01 -0.11930386491E+02 -0.38788063828E+02  0.40698038824E+02  0.10000000000E+01 0.  0.
<mgrwt>
<rscale>  0 0.12500022E+03</rscale>
<asrwt>0</asrwt>
<pdfrwt beam="2">  1        4 0.61749070E-02 0.12500022E+03</pdfrwt>
<pdfrwt beam="1">  1       -4 0.14972848E-01 0.12500022E+03</pdfrwt>
<totfact> 0.10186418E+04</totfact>
</mgrwt>
</event>
<event>
 5    1  0.3398872E-002  0.1250015E+03  0.7818608E-02  0.1235067E+00
          4   -1    0    0  501    0  0.00000000000E+00  0.00000000000E+00  0.11857287725E+02  0.11925106800E+02  0.12700000000E+01 0.  1.
         -4   -1    0    0    0  501 -0.00000000000E+00 -0.00000000000E+00 -0.32843818618E+03  0.32844064158E+03  0.12700000000E+01 0.  1.
         25    2    1    2    0    0  0.00000000000E+00  0.00000000000E+00 -0.31658089845E+03  0.34036574838E+03  0.12500150961E+03 0.  0.
    9000005    1    3    3    0    0  0.48315009579E+02 -0.38344517581E+02 -0.18561480997E+03  0.19559780126E+03  0.10000000000E+01 0.  0.
    9000005    1    3    3    0    0 -0.48315009579E+02  0.38344517581E+02 -0.13096608848E+03  0.14476794711E+03  0.10000000000E+01 0.  0.
<mgrwt>
<rscale>  0 0.12500151E+03</rscale>
<asrwt>0</asrwt>
<pdfrwt beam="1">  1        4 0.18296041E-02 0.12500151E+03</pdfrwt>
<pdfrwt beam="2">  1       -4 0.50534351E-01 0.12500151E+03</pdfrwt>
<totfact> 0.70795246E+03</totfact>
</mgrwt>
</event>
<event>
 5    1  0.3398872E-002  0.1249992E+03  0.7818608E-02  0.1235070E+00
         -4   -1    0    0    0  501 -0.00000000000E+00  0.00000000000E+00  0.29086346835E+02  0.29114059700E+02  0.12700000000E+01 0. -1.
          4   -1    0    0  501    0  0.00000000000E+00 -0.00000000000E+00 -0.13420212353E+03  0.13420813261E+03  0.12700000000E+01 0. -1.
         25    2    1    2    0    0  0.00000000000E+00  0.00000000000E+00 -0.10511577669E+03  0.16332219231E+03  0.12499924797E+03 0.  0.
    9000005    1    3    3    0    0 -0.41869894119E+02  0.33073333548E+02 -0.95062490496E+02  0.10901747807E+03  0.10000000000E+01 0.  0.
    9000005    1    3    3    0    0  0.41869894119E+02 -0.33073333548E+02 -0.10053286195E+02  0.54304714241E+02  0.10000000000E+01 0.  0.
<mgrwt>
<rscale>  0 0.12499925E+03</rscale>
<asrwt>0</asrwt>
<pdfrwt beam="2">  1        4 0.20649074E-01 0.12499925E+03</pdfrwt>
<pdfrwt beam="1">  1       -4 0.44774167E-02 0.12499925E+03</pdfrwt>
<totfact> 0.96707723E+03</totfact>
</mgrwt>
</event>
<event>
 5    1  0.3398872E-002  0.1249989E+03  0.7818608E-02  0.1235071E+00
          4   -1    0    0  501    0  0.00000000000E+00  0.00000000000E+00  0.14310361063E+03  0.14310924595E+03  0.12700000000E+01 0. -1.
         -4   -1    0    0    0  501 -0.00000000000E+00 -0.00000000000E+00 -0.27275206078E+02  0.27304757216E+02  0.12700000000E+01 0. -1.
         25    2    1    2    0    0  0.00000000000E+00  0.00000000000E+00  0.11582840455E+03  0.17041400316E+03  0.12499885269E+03 0.  0.
    9000005    1    3    3    0    0 -0.40715004049E+02 -0.44282262297E+02  0.80992189614E+02  0.10089283962E+03  0.10000000000E+01 0.  0.
    9000005    1    3    3    0    0  0.40715004049E+02  0.44282262297E+02  0.34836214940E+02  0.69521163541E+02  0.10000000000E+01 0.  0.
<mgrwt>
<rscale>  0 0.12499885E+03</rscale>
<asrwt>0</asrwt>
<pdfrwt beam="1">  1        4 0.22018647E-01 0.12499885E+03</pdfrwt>
<pdfrwt beam="2">  1       -4 0.41988922E-02 0.12499885E+03</pdfrwt>
<totfact> 0.95373984E+03</totfact>
</mgrwt>
</event>
<event>
 5    1  0.3398872E-002  0.1250095E+03  0.7818608E-02  0.1235054E+00
          4   -1    0    0  501    0  0.00000000000E+00  0.00000000000E+00  0.35027967935E+02  0.35050983405E+02  0.12700000000E+01 0.  1.
         -4   -1    0    0    0  501 -0.00000000000E+00 -0.00000000000E+00 -0.11147175996E+03  0.11147899430E+03  0.12700000000E+01 0.  1.
         25    2    1    2    0    0  0.00000000000E+00  0.00000000000E+00 -0.76443792030E+02  0.14652997770E+03  0.12500952374E+03 0.  0.
    9000005    1    3    3    0    0 -0.42808342848E+02 -0.39897494412E+02 -0.63942013628E+02  0.86683016702E+02  0.10000000000E+01 0.  0.
    9000005    1    3    3    0    0  0.42808342848E+02  0.39897494412E+02 -0.12501778402E+02  0.59846961000E+02  0.10000000000E+01 0.  0.
<mgrwt>
<rscale>  0 0.12500952E+03</rscale>
<asrwt>0</asrwt>
<pdfrwt beam="1">  1        4 0.53912451E-02 0.12500952E+03</pdfrwt>
<pdfrwt beam="2">  1       -4 0.17151828E-01 0.12500952E+03</pdfrwt>
<totfact> 0.99978510E+03</totfact>
</mgrwt>
</event>
<event>
 5    1  0.3398872E-002  0.1250035E+03  0.7818608E-02  0.1235064E+00
          4   -1    0    0  501    0  0.00000000000E+00  0.00000000000E+00  0.90943579879E+01  0.91826056875E+01  0.12700000000E+01 0.  1.
         -4   -1    0    0    0  501 -0.00000000000E+00 -0.00000000000E+00 -0.42738537740E+03  0.42738726433E+03  0.12700000000E+01 0.  1.
         25    2    1    2    0    0  0.00000000000E+00  0.00000000000E+00 -0.41829101941E+03  0.43656987002E+03  0.12500349791E+03 0.  0.
    9000005    1    3    3    0    0  0.79054888483E+01  0.20796537295E+02 -0.41310273096E+03  0.41370262151E+03  0.10000000000E+01 0.  0.
    9000005    1    3    3    0    0 -0.79054888483E+01 -0.20796537295E+02 -0.51882884496E+01  0.22867248510E+02  0.10000000000E+01 0.  0.
<mgrwt>
<rscale>  0 0.12500350E+03</rscale>
<asrwt>0</asrwt>
<pdfrwt beam="1">  1        4 0.14060658E-02 0.12500350E+03</pdfrwt>
<pdfrwt beam="2">  1       -4 0.65758515E-01 0.12500350E+03</pdfrwt>
<totfact> 0.61140247E+03</totfact>
</mgrwt>
</event>
<event>
 5    1  0.3398872E-002  0.1249997E+03  0.7818608E-02  0.1235070E+00
         -4   -1    0    0    0  501 -0.00000000000E+00  0.00000000000E+00  0.60070341323E+01  0.61398175109E+01  0.12700000000E+01 0. -1.
          4   -1    0    0  501    0  0.00000000000E+00 -0.00000000000E+00 -0.64303432427E+03  0.64303557840E+03  0.12700000000E+01 0. -1.
         25    2    1    2    0    0  0.00000000000E+00  0.00000000000E+00 -0.63702729014E+03  0.64917539591E+03  0.12499970511E+03 0.  0.
    9000005    1    3    3    0    0 -0.39859558405E+02 -0.18468951051E+02 -0.54933423357E+03  0.55108890999E+03  0.10000000000E+01 0.  0.
    9000005    1    3    3    0    0  0.39859558405E+02  0.18468951051E+02 -0.87693056572E+02  0.98086485920E+02  0.10000000000E+01 0.  0.
<mgrwt>
<rscale>  0 0.12499971E+03</rscale>
<asrwt>0</asrwt>
<pdfrwt beam="2">  1        4 0.98938614E-01 0.12499971E+03</pdfrwt>
<pdfrwt beam="1">  1       -4 0.93447019E-03 0.12499971E+03</pdfrwt>
<totfact> 0.45903850E+03</totfact>
</mgrwt>
</event>
<event>
 5    1  0.3398872E-002  0.1250109E+03  0.7818608E-02  0.1235052E+00
         -4   -1    0    0    0  501 -0.00000000000E+00  0.00000000000E+00  0.15419753776E+03  0.15420276766E+03  0.12700000000E+01 0. -1.
          4   -1    0    0  501    0  0.00000000000E+00 -0.00000000000E+00 -0.25315586694E+02  0.25347422545E+02  0.12700000000E+01 0. -1.
         25    2    1    2    0    0  0.00000000000E+00  0.00000000000E+00  0.12888195107E+03  0.17955019020E+03  0.12501085349E+03 0.  0.
    9000005    1    3    3    0    0 -0.18935984771E+02  0.47084248484E+02  0.12052684823E+02  0.52170539445E+02  0.10000000000E+01 0.  0.
    9000005    1    3    3    0    0  0.18935984771E+02 -0.47084248484E+02  0.11682926625E+03  0.12737965075E+03  0.10000000000E+01 0.  0.
<mgrwt>
<rscale>  0 0.12501085E+03</rscale>
<asrwt>0</asrwt>
<pdfrwt beam="2">  1        4 0.38975568E-02 0.12501085E+03</pdfrwt>
<pdfrwt beam="1">  1       -4 0.23725549E-01 0.12501085E+03</pdfrwt>
<totfact> 0.93675233E+03</totfact>
</mgrwt>
</event>
<event>
 5    1  0.3398872E-002  0.1249794E+03  0.7818608E-02  0.1235101E+00
         -4   -1    0    0    0  501 -0.00000000000E+00  0.00000000000E+00  0.94414724537E+03  0.94414809952E+03  0.12700000000E+01 0. -1.
          4   -1    0    0  501    0  0.00000000000E+00 -0.00000000000E+00 -0.40375984357E+01  0.42326234333E+01  0.12700000000E+01 0. -1.
         25    2    1    2    0    0  0.00000000000E+00  0.00000000000E+00  0.94010964693E+03  0.94838072296E+03  0.12497938799E+03 0.  0.
    9000005    1    3    3    0    0  0.36598605477E+02  0.18281793444E+02  0.11169112064E+03  0.11895204212E+03  0.10000000000E+01 0.  0.
    9000005    1    3    3    0    0 -0.36598605477E+02 -0.18281793444E+02  0.82841852630E+03  0.82942868084E+03  0.10000000000E+01 0.  0.
<mgrwt>
<rscale>  0 0.12497939E+03</rscale>
<asrwt>0</asrwt>
<pdfrwt beam="2">  1        4 0.63623658E-03 0.12497939E+03</pdfrwt>
<pdfrwt beam="1">  1       -4 0.14526850E+00 0.12497939E+03</pdfrwt>
<totfact> 0.32388091E+03</totfact>
</mgrwt>
</event>
<event>
 5    1  0.3398872E-002  0.1249972E+03  0.7818608E-02  0.1235074E+00
         -4   -1    0    0    0  501 -0.00000000000E+00  0.00000000000E+00  0.80027843602E+02  0.80037920085E+02  0.12700000000E+01 0.  1.
          4   -1    0    0  501    0  0.00000000000E+00 -0.00000000000E+00 -0.48787556187E+02  0.48804083217E+02  0.12700000000E+01 0.  1.
         25    2    1    2    0    0  0.00000000000E+00  0.00000000000E+00  0.31240287416E+02  0.12884200330E+03  0.12499722500E+03 0.  0.
    9000005    1    3    3    0    0  0.37951321564E+02  0.10625247349E+02 -0.34367708891E+02  0.52300459884E+02  0.10000000000E+01 0.  0.
    9000005    1    3    3    0    0 -0.37951321564E+02 -0.10625247349E+02  0.65607996306E+02  0.76541543419E+02  0.10000000000E+01 0.  0.
<mgrwt>
<rscale>  0 0.12499722E+03</rscale>
<asrwt>0</asrwt>
<pdfrwt beam="2">  1        4 0.75078243E-02 0.12499722E+03</pdfrwt>
<pdfrwt beam="1">  1       -4 0.12314022E-01 0.12499722E+03</pdfrwt>
<totfact> 0.10369993E+04</totfact>
</mgrwt>
</event>
<event>
 5    1  0.3398872E-002  0.1250046E+03  0.7818608E-02  0.1235062E+00
         -4   -1    0    0    0  501 -0.00000000000E+00  0.00000000000E+00  0.43873556388E+02  0.43891933770E+02  0.12700000000E+01 0.  1.
          4   -1    0    0  501    0  0.00000000000E+00 -0.00000000000E+00 -0.88999280922E+02  0.89008341770E+02  0.12700000000E+01 0.  1.
         25    2    1    2    0    0  0.00000000000E+00  0.00000000000E+00 -0.45125724535E+02  0.13290027554E+03  0.12500460881E+03 0.  0.
    9000005    1    3    3    0    0 -0.39208573286E+02  0.41999129957E+02 -0.48698058478E+02  0.75324232727E+02  0.10000000000E+01 0.  0.
    9000005    1    3    3    0    0  0.39208573286E+02 -0.41999129957E+02  0.35723339435E+01  0.57576042814E+02  0.10000000000E+01 0.  0.
<mgrwt>
<rscale>  0 0.12500461E+03</rscale>
<asrwt>0</asrwt>
<pdfrwt beam="2">  1        4 0.13694308E-01 0.12500461E+03</pdfrwt>
<pdfrwt beam="1">  1       -4 0.67518885E-02 0.12500461E+03</pdfrwt>
<totfact> 0.10281451E+04</totfact>
</mgrwt>
</event>
<event>
 5    1  0.3398872E-002  0.1250415E+03  0.7818608E-02  0.1235004E+00
          4   -1    0    0  501    0  0.00000000000E+00  0.00000000000E+00  0.25609113885E+02  0.25640585290E+02  0.12700000000E+01 0. -1.
         -4   -1    0    0    0  501 -0.00000000000E+00 -0.00000000000E+00 -0.15250709118E+03  0.15251237904E+03  0.12700000000E+01 0. -1.
         25    2    1    2    0    0  0.00000000000E+00  0.00000000000E+00 -0.12689797730E+03  0.17815296433E+03  0.12504152134E+03 0.  0.
    9000005    1    3    3    0    0 -0.19923810654E+02  0.34803075434E+02  0.48741944397E+01  0.40410024277E+02  0.10000000000E+01 0.  0.
    9000005    1    3    3    0    0  0.19923810654E+02 -0.34803075434E+02 -0.13177217174E+03  0.13774294005E+03  0.10000000000E+01 0.  0.
<mgrwt>
<rscale>  0 0.12504152E+03</rscale>
<asrwt>0</asrwt>
<pdfrwt beam="1">  1        4 0.39426914E-02 0.12504152E+03</pdfrwt>
<pdfrwt beam="2">  1       -4 0.23465456E-01 0.12504152E+03</pdfrwt>
<totfact> 0.93863107E+03</totfact>
</mgrwt>
</event>
<event>
 5    1  0.3398872E-002  0.1249992E+03  0.7818608E-02  0.1235071E+00
         -4   -1    0    0    0  501 -0.00000000000E+00  0.00000000000E+00  0.19687743548E+02  0.19728663057E+02  0.12700000000E+01 0.  1.
          4   -1    0    0  501    0  0.00000000000E+00 -0.00000000000E+00 -0.19815871013E+03  0.19816277981E+03  0.12700000000E+01 0.  1.
         25    2    1    2    0    0  0.00000000000E+00  0.00000000000E+00 -0.17847096658E+03  0.21789144286E+03  0.12499917984E+03 0.  0.
    9000005    1    3    3    0    0 -0.15457149331E+02 -0.60067222757E+02 -0.10253419343E+03  0.11983845601E+03  0.10000000000E+01 0.  0.
    9000005    1    3    3    0    0  0.15457149331E+02  0.60067222757E+02 -0.75936773149E+02  0.98052986856E+02  0.10000000000E+01 0.  0.
<mgrwt>
<rscale>  0 0.12499918E+03</rscale>
<asrwt>0</asrwt>
<pdfrwt beam="2">  1        4 0.30489415E-01 0.12499918E+03</pdfrwt>
<pdfrwt beam="1">  1       -4 0.30323445E-02 0.12499918E+03</pdfrwt>
<totfact> 0.87204703E+03</totfact>
</mgrwt>
</event>
<event>
 5    1  0.3398872E-002  0.1250300E+03  0.7818608E-02  0.1235022E+00
          4   -1    0    0  501    0  0.00000000000E+00  0.00000000000E+00  0.17082745631E+01  0.21286385280E+01  0.12700000000E+01 0.  1.
         -4   -1    0    0    0  501 -0.00000000000E+00 -0.00000000000E+00 -0.20366989305E+04  0.20366993264E+04  0.12700000000E+01 0.  1.
         25    2    1    2    0    0  0.00000000000E+00  0.00000000000E+00 -0.20349906559E+04  0.20388279649E+04  0.12503000065E+03 0.  0.
    9000005    1    3    3    0    0 -0.17193660081E+02  0.54162900287E+02 -0.14420600417E+04  0.14431796165E+04  0.10000000000E+01 0.  0.
    9000005    1    3    3    0    0  0.17193660081E+02 -0.54162900287E+02 -0.59293061421E+03  0.59564834842E+03  0.10000000000E+01 0.  0.
<mgrwt>
<rscale>  0 0.12503000E+03</rscale>
<asrwt>0</asrwt>
<pdfrwt beam="1">  1        4 0.29517925E-03 0.12503000E+03</pdfrwt>
<pdfrwt beam="2">  1       -4 0.31336893E+00 0.12503000E+03</pdfrwt>
<totfact> 0.93568444E+02</totfact>
</mgrwt>
</event>
<event>
 5    1  0.3398872E-002  0.1250002E+03  0.7818608E-02  0.1235069E+00
          4   -1    0    0  501    0  0.00000000000E+00  0.00000000000E+00  0.33591315450E+02  0.33615314570E+02  0.12700000000E+01 0. -1.
         -4   -1    0    0    0  501 -0.00000000000E+00 -0.00000000000E+00 -0.11621886626E+03  0.11622580512E+03  0.12700000000E+01 0. -1.
         25    2    1    2    0    0  0.00000000000E+00  0.00000000000E+00 -0.82627550811E+02  0.14984111969E+03  0.12500019598E+03 0.  0.
    9000005    1    3    3    0    0 -0.43056826118E+02  0.43718315057E+02 -0.55501403014E+02  0.82744106034E+02  0.10000000000E+01 0.  0.
    9000005    1    3    3    0    0  0.43056826118E+02 -0.43718315057E+02 -0.27126147797E+02  0.67097013652E+02  0.10000000000E+01 0.  0.
<mgrwt>
<rscale>  0 0.12500020E+03</rscale>
<asrwt>0</asrwt>
<pdfrwt beam="1">  1        4 0.51702746E-02 0.12500020E+03</pdfrwt>
<pdfrwt beam="2">  1       -4 0.17882205E-01 0.12500020E+03</pdfrwt>
<totfact> 0.99334940E+03</totfact>
</mgrwt>
</event>
<event>
 5    1  0.3398872E-002  0.1249955E+03  0.7818608E-02  0.1235076E+00
          4   -1    0    0  501    0  0.00000000000E+00  0.00000000000E+00  0.26690472460E+03  0.26690774607E+03  0.12700000000E+01 0. -1.
         -4   -1    0    0    0  501 -0.00000000000E+00 -0.00000000000E+00 -0.14603660446E+02  0.14658778886E+02  0.12700000000E+01 0. -1.
         25    2    1    2    0    0  0.00000000000E+00  0.00000000000E+00  0.25230106415E+03  0.28156652496E+03  0.12499552394E+03 0.  0.
    9000005    1    3    3    0    0 -0.10837326702E+02  0.57292069707E+02  0.75522269982E+02  0.95417200570E+02  0.10000000000E+01 0.  0.
    9000005    1    3    3    0    0  0.10837326702E+02 -0.57292069707E+02  0.17677879417E+03  0.18614932439E+03  0.10000000000E+01 0.  0.
<mgrwt>
<rscale>  0 0.12499552E+03</rscale>
<asrwt>0</asrwt>
<pdfrwt beam="1">  1        4 0.41066738E-01 0.12499552E+03</pdfrwt>
<pdfrwt beam="2">  1       -4 0.22511893E-02 0.12499552E+03</pdfrwt>
<totfact> 0.77978609E+03</totfact>
</mgrwt>
</event>
<event>
 5    1  0.3398872E-002  0.1250000E+03  0.7818608E-02  0.1235069E+00
         -4   -1    0    0    0  501 -0.00000000000E+00  0.00000000000E+00  0.21607275989E+03  0.21607649216E+03  0.12700000000E+01 0.  1.
          4   -1    0    0  501    0  0.00000000000E+00 -0.00000000000E+00 -0.18052204964E+02  0.18096823038E+02  0.12700000000E+01 0.  1.
         25    2    1    2    0    0  0.00000000000E+00  0.00000000000E+00  0.19802055492E+03  0.23417331520E+03  0.12500000552E+03 0.  0.
    9000005    1    3    3    0    0  0.32607850716E+02 -0.53223712267E+02  0.93323425025E+02  0.11227776776E+03  0.10000000000E+01 0.  0.
    9000005    1    3    3    0    0 -0.32607850716E+02  0.53223712267E+02  0.10469712990E+03  0.12189554744E+03  0.10000000000E+01 0.  0.
<mgrwt>
<rscale>  0 0.12500001E+03</rscale>
<asrwt>0</asrwt>
<pdfrwt beam="2">  1        4 0.27809814E-02 0.12500001E+03</pdfrwt>
<pdfrwt beam="1">  1       -4 0.33245684E-01 0.12500001E+03</pdfrwt>
<totfact> 0.84672860E+03</totfact>
</mgrwt>
</event>
<event>
 5    1  0.3398872E-002  0.1249995E+03  0.7818608E-02  0.1235070E+00
         -4   -1    0    0    0  501 -0.00000000000E+00  0.00000000000E+00  0.63071774935E+02  0.63084559865E+02  0.12700000000E+01 0.  1.
          4   -1    0    0  501    0  0.00000000000E+00 -0.00000000000E+00 -0.61907355234E+02  0.61920380587E+02  0.12700000000E+01 0.  1.
         25    2    1    2    0    0  0.00000000000E+00  0.00000000000E+00  0.11644197008E+01  0.12500494045E+03  0.12499951706E+03 0.  0.
    9000005    1    3    3    0    0  0.51636656504E+02  0.26479009512E+02  0.23772385343E+02  0.62718486466E+02  0.10000000000E+01 0.  0.
    9000005    1    3    3    0    0 -0.51636656504E+02 -0.26479009512E+02 -0.22607965643E+02  0.62286453986E+02  0.10000000000E+01 0.  0.
<mgrwt>
<rscale>  0 0.12499952E+03</rscale>
<asrwt>0</asrwt>
<pdfrwt beam="2">  1        4 0.95261940E-02 0.12499952E+03</pdfrwt>
<pdfrwt beam="1">  1       -4 0.97053353E-02 0.12499952E+03</pdfrwt>
<totfact> 0.10452869E+04</totfact>
</mgrwt>
</event>
<event>
 5    1  0.3398872E-002  0.1249999E+03  0.7818608E-02  0.1235069E+00
         -4   -1    0    0    0  501 -0.00000000000E+00  0.00000000000E+00  0.28174833295E+03  0.28175119524E+03  0.12700000000E+01 0. -1.
          4   -1    0    0  501    0  0.00000000000E+00 -0.00000000000E+00 -0.13832283632E+02  0.13890463292E+02  0.12700000000E+01 0. -1.
         25    2    1    2    0    0  0.00000000000E+00  0.00000000000E+00  0.26791604932E+03  0.29564165853E+03  0.12499992311E+03 0.  0.
    9000005    1    3    3    0    0 -0.51218507785E+02  0.35607511945E+02  0.14281220839E+03  0.15584465763E+03  0.10000000000E+01 0.  0.
    9000005    1    3    3    0    0  0.51218507785E+02 -0.35607511945E+02  0.12510384092E+03  0.13979700090E+03  0.10000000000E+01 0.  0.
<mgrwt>
<rscale>  0 0.12499992E+03</rscale>
<asrwt>0</asrwt>
<pdfrwt beam="2">  1        4 0.21327392E-02 0.12499992E+03</pdfrwt>
<pdfrwt beam="1">  1       -4 0.43350592E-01 0.12499992E+03</pdfrwt>
<totfact> 0.76148943E+03</totfact>
</mgrwt>
</event>
<event>
 5    1  0.3398872E-002  0.1250002E+03  0.7818608E-02  0.1235069E+00
          4   -1    0    0  501    0  0.00000000000E+00  0.00000000000E+00  0.59331688666E+03  0.59331824588E+03  0.12700000000E+01 0.  1.
         -4   -1    0    0    0  501 -0.00000000000E+00 -0.00000000000E+00 -0.65211443138E+01  0.66436603737E+01  0.12700000000E+01 0.  1.
         25    2    1    2    0    0  0.00000000000E+00  0.00000000000E+00  0.58679574235E+03  0.59996190626E+03  0.12500018289E+03 0.  0.
    9000005    1    3    3    0    0  0.20395000518E+02  0.56158603449E+02  0.38131430469E+03  0.38596806052E+03  0.10000000000E+01 0.  0.
    9000005    1    3    3    0    0 -0.20395000518E+02 -0.56158603449E+02  0.20548143766E+03  0.21399384573E+03  0.10000000000E+01 0.  0.
<mgrwt>
<rscale>  0 0.12500018E+03</rscale>
<asrwt>0</asrwt>
<pdfrwt beam="1">  1        4 0.91289063E-01 0.12500018E+03</pdfrwt>
<pdfrwt beam="2">  1       -4 0.10127817E-02 0.12500018E+03</pdfrwt>
<totfact> 0.48869813E+03</totfact>
</mgrwt>
</event>
<event>
 5    1  0.3398872E-002  0.1249882E+03  0.7818608E-02  0.1235088E+00
          4   -1    0    0  501    0  0.00000000000E+00  0.00000000000E+00  0.32001988934E+01  0.34429889569E+01  0.12700000000E+01 0. -1.
         -4   -1    0    0    0  501 -0.00000000000E+00 -0.00000000000E+00 -0.11755520245E+04  0.11755527105E+04  0.12700000000E+01 0. -1.
         25    2    1    2    0    0  0.00000000000E+00  0.00000000000E+00 -0.11723518256E+04  0.11789956994E+04  0.12498822495E+03 0.  0.
    9000005    1    3    3    0    0 -0.44398981598E+02 -0.16962712950E+02 -0.96881867403E+03  0.96998434335E+03  0.10000000000E+01 0.  0.
    9000005    1    3    3    0    0  0.44398981598E+02  0.16962712950E+02 -0.20353315155E+03  0.20901135609E+03  0.10000000000E+01 0.  0.
<mgrwt>
<rscale>  0 0.12498822E+03</rscale>
<asrwt>0</asrwt>
<pdfrwt beam="1">  1        4 0.51106816E-03 0.12498822E+03</pdfrwt>
<pdfrwt beam="2">  1       -4 0.18087255E+00 0.12498822E+03</pdfrwt>
<totfact> 0.25275799E+03</totfact>
</mgrwt>
</event>
<event>
 5    1  0.3398872E-002  0.1249999E+03  0.7818608E-02  0.1235069E+00
          4   -1    0    0  501    0  0.00000000000E+00  0.00000000000E+00  0.14876439799E+02  0.14930551265E+02  0.12700000000E+01 0. -1.
         -4   -1    0    0    0  501 -0.00000000000E+00 -0.00000000000E+00 -0.26204672417E+03  0.26204980166E+03  0.12700000000E+01 0. -1.
         25    2    1    2    0    0  0.00000000000E+00  0.00000000000E+00 -0.24717028437E+03  0.27698035292E+03  0.12499986571E+03 0.  0.
    9000005    1    3    3    0    0  0.37964514883E+02  0.45157349876E+02 -0.77917708480E+02  0.97737709882E+02  0.10000000000E+01 0.  0.
    9000005    1    3    3    0    0 -0.37964514883E+02 -0.45157349876E+02 -0.16925257589E+03  0.17924264304E+03  0.10000000000E+01 0.  0.
<mgrwt>
<rscale>  0 0.12499987E+03</rscale>
<asrwt>0</asrwt>
<pdfrwt beam="1">  1        4 0.22930824E-02 0.12499987E+03</pdfrwt>
<pdfrwt beam="2">  1       -4 0.40319276E-01 0.12499987E+03</pdfrwt>
<totfact> 0.78580436E+03</totfact>
</mgrwt>
</event>
<event>
 5    1  0.3398872E-002  0.1250023E+03  0.7818608E-02  0.1235066E+00
         -4   -1    0    0    0  501 -0.00000000000E+00  0.00000000000E+00  0.32411944308E+03  0.32412193120E+03  0.12700000000E+01 0.  1.
          4   -1    0    0  501    0  0.00000000000E+00 -0.00000000000E+00 -0.12016329408E+02  0.12083255871E+02  0.12700000000E+01 0.  1.
         25    2    1    2    0    0  0.00000000000E+00  0.00000000000E+00  0.31210311367E+03  0.33620518707E+03  0.12500229697E+03 0.  0.
    9000005    1    3    3    0    0 -0.18259571690E+02  0.45603079311E+02  0.25995272174E+03  0.26455523118E+03  0.10000000000E+01 0.  0.
    9000005    1    3    3    0    0  0.18259571690E+02 -0.45603079311E+02  0.52150391930E+02  0.71649955893E+02  0.10000000000E+01 0.  0.
<mgrwt>
<rscale>  0 0.12500230E+03</rscale>
<asrwt>0</asrwt>
<pdfrwt beam="2">  1        4 0.18540054E-02 0.12500230E+03</pdfrwt>
<pdfrwt beam="1">  1       -4 0.49869877E-01 0.12500230E+03</pdfrwt>
<totfact> 0.71265667E+03</totfact>
</mgrwt>
</event>
<event>
 5    1  0.3398872E-002  0.1249992E+03  0.7818608E-02  0.1235071E+00
         -4   -1    0    0    0  501 -0.00000000000E+00  0.00000000000E+00  0.16202028124E+03  0.16202525863E+03  0.12700000000E+01 0. -1.
          4   -1    0    0  501    0  0.00000000000E+00 -0.00000000000E+00 -0.24087251609E+02  0.24120708739E+02  0.12700000000E+01 0. -1.
         25    2    1    2    0    0  0.00000000000E+00  0.00000000000E+00  0.13793302963E+03  0.18614596737E+03  0.12499920201E+03 0.  0.
    9000005    1    3    3    0    0 -0.48452306014E+02 -0.31899542758E+02  0.34361376196E+02  0.67430786443E+02  0.10000000000E+01 0.  0.
    9000005    1    3    3    0    0  0.48452306014E+02  0.31899542758E+02  0.10357165344E+03  0.11871518092E+03  0.10000000000E+01 0.  0.
<mgrwt>
<rscale>  0 0.12499920E+03</rscale>
<asrwt>0</asrwt>
<pdfrwt beam="2">  1        4 0.37086874E-02 0.12499920E+03</pdfrwt>
<pdfrwt beam="1">  1       -4 0.24929154E-01 0.12499920E+03</pdfrwt>
<totfact> 0.92523915E+03</totfact>
</mgrwt>
</event>
<event>
 5    1  0.3398872E-002  0.1250003E+03  0.7818608E-02  0.1235069E+00
         -4   -1    0    0    0  501 -0.00000000000E+00  0.00000000000E+00  0.16576140203E+02  0.16624720269E+02  0.12700000000E+01 0. -1.
          4   -1    0    0  501    0  0.00000000000E+00 -0.00000000000E+00 -0.23526093643E+03  0.23526436430E+03  0.12700000000E+01 0. -1.
         25    2    1    2    0    0  0.00000000000E+00  0.00000000000E+00 -0.21868479622E+03  0.25188908457E+03  0.12500028330E+03 0.  0.
    9000005    1    3    3    0    0 -0.21076652430E+02 -0.28613488460E+02 -0.57589668820E+01  0.36015589667E+02  0.10000000000E+01 0.  0.
    9000005    1    3    3    0    0  0.21076652430E+02  0.28613488460E+02 -0.21292582934E+03  0.21587349490E+03  0.10000000000E+01 0.  0.
<mgrwt>
<rscale>  0 0.12500028E+03</rscale>
<asrwt>0</asrwt>
<pdfrwt beam="2">  1        4 0.36197988E-01 0.12500028E+03</pdfrwt>
<pdfrwt beam="1">  1       -4 0.25541762E-02 0.12500028E+03</pdfrwt>
<totfact> 0.82057444E+03</totfact>
</mgrwt>
</event>
<event>
 5    1  0.3398872E-002  0.1250018E+03  0.7818608E-02  0.1235067E+00
          4   -1    0    0  501    0  0.00000000000E+00  0.00000000000E+00  0.57468396748E+03  0.57468537078E+03  0.12700000000E+01 0. -1.
         -4   -1    0    0    0  501 -0.00000000000E+00 -0.00000000000E+00 -0.67366618686E+01  0.68553273541E+01  0.12700000000E+01 0. -1.
         25    2    1    2    0    0  0.00000000000E+00  0.00000000000E+00  0.56794730562E+03  0.58154069813E+03  0.12500176649E+03 0.  0.
    9000005    1    3    3    0    0 -0.36528821075E+02  0.41484475094E+02  0.41961267704E+03  0.42323883940E+03  0.10000000000E+01 0.  0.
    9000005    1    3    3    0    0  0.36528821075E+02 -0.41484475094E+02  0.14833462857E+03  0.15830185873E+03  0.10000000000E+01 0.  0.
<mgrwt>
<rscale>  0 0.12500177E+03</rscale>
<asrwt>0</asrwt>
<pdfrwt beam="1">  1        4 0.88422151E-01 0.12500177E+03</pdfrwt>
<pdfrwt beam="2">  1       -4 0.10456456E-02 0.12500177E+03</pdfrwt>
<totfact> 0.50051999E+03</totfact>
</mgrwt>
</event>
<event>
 5    1  0.3398872E-002  0.1249984E+03  0.7818608E-02  0.1235072E+00
          4   -1    0    0  501    0  0.00000000000E+00  0.00000000000E+00  0.23539940430E+03  0.23540283015E+03  0.12700000000E+01 0. -1.
         -4   -1    0    0    0  501 -0.00000000000E+00 -0.00000000000E+00 -0.16565861045E+02  0.16614471167E+02  0.12700000000E+01 0. -1.
         25    2    1    2    0    0  0.00000000000E+00  0.00000000000E+00  0.21883354326E+03  0.25201730132E+03  0.12499840204E+03 0.  0.
    9000005    1    3    3    0    0  0.32521418155E+02  0.43724189244E+02  0.17108973999E+03  0.17956098266E+03  0.10000000000E+01 0.  0.
    9000005    1    3    3    0    0 -0.32521418155E+02 -0.43724189244E+02  0.47743803269E+02  0.72456318665E+02  0.10000000000E+01 0.  0.
<mgrwt>
<rscale>  0 0.12499840E+03</rscale>
<asrwt>0</asrwt>
<pdfrwt beam="1">  1        4 0.36219295E-01 0.12499840E+03</pdfrwt>
<pdfrwt beam="2">  1       -4 0.25525969E-02 0.12499840E+03</pdfrwt>
<totfact> 0.82042457E+03</totfact>
</mgrwt>
</event>
<event>
 5    1  0.3398872E-002  0.1250064E+03  0.7818608E-02  0.1235059E+00
          4   -1    0    0  501    0  0.00000000000E+00  0.00000000000E+00  0.25988085139E+02  0.26019098163E+02  0.12700000000E+01 0. -1.
         -4   -1    0    0    0  501 -0.00000000000E+00 -0.00000000000E+00 -0.15020139969E+03  0.15020676872E+03  0.12700000000E+01 0. -1.
         25    2    1    2    0    0  0.00000000000E+00  0.00000000000E+00 -0.12421331456E+03  0.17622586689E+03  0.12500643442E+03 0.  0.
    9000005    1    3    3    0    0  0.15003006438E+02 -0.17303231598E+02  0.19866215931E+02  0.30334115470E+02  0.10000000000E+01 0.  0.
    9000005    1    3    3    0    0 -0.15003006438E+02  0.17303231598E+02 -0.14407953049E+03  0.14589175142E+03  0.10000000000E+01 0.  0.
<mgrwt>
<rscale>  0 0.12500643E+03</rscale>
<asrwt>0</asrwt>
<pdfrwt beam="1">  1        4 0.40009657E-02 0.12500643E+03</pdfrwt>
<pdfrwt beam="2">  1       -4 0.23110706E-01 0.12500643E+03</pdfrwt>
<totfact> 0.94287196E+03</totfact>
</mgrwt>
</event>
<event>
 5    1  0.3398872E-002  0.1249983E+03  0.7818608E-02  0.1235072E+00
         -4   -1    0    0    0  501 -0.00000000000E+00  0.00000000000E+00  0.64039529100E+03  0.64039655030E+03  0.12700000000E+01 0. -1.
          4   -1    0    0  501    0  0.00000000000E+00 -0.00000000000E+00 -0.60321988733E+01  0.61644402217E+01  0.12700000000E+01 0. -1.
         25    2    1    2    0    0  0.00000000000E+00  0.00000000000E+00  0.63436309213E+03  0.64656099052E+03  0.12499832723E+03 0.  0.
    9000005    1    3    3    0    0 -0.27099356407E+02 -0.46741679726E+02  0.15476113402E+03  0.16392427625E+03  0.10000000000E+01 0.  0.
    9000005    1    3    3    0    0  0.27099356407E+02  0.46741679726E+02  0.47960195811E+03  0.48263671427E+03  0.10000000000E+01 0.  0.
<mgrwt>
<rscale>  0 0.12499833E+03</rscale>
<asrwt>0</asrwt>
<pdfrwt beam="2">  1        4 0.93830000E-03 0.12499833E+03</pdfrwt>
<pdfrwt beam="1">  1       -4 0.98532609E-01 0.12499833E+03</pdfrwt>
<totfact> 0.46056092E+03</totfact>
</mgrwt>
</event>
<event>
 5    1  0.3398872E-002  0.1250008E+03  0.7818608E-02  0.1235068E+00
         -4   -1    0    0    0  501 -0.00000000000E+00  0.00000000000E+00  0.31525413172E+02  0.31550983751E+02  0.12700000000E+01 0. -1.
          4   -1    0    0  501    0  0.00000000000E+00 -0.00000000000E+00 -0.12383057599E+03  0.12383708835E+03  0.12700000000E+01 0. -1.
         25    2    1    2    0    0  0.00000000000E+00  0.00000000000E+00 -0.92305162822E+02  0.15538807210E+03  0.12500083947E+03 0.  0.
    9000005    1    3    3    0    0  0.46524192111E+02 -0.36481006148E+02 -0.71321464694E+02  0.92645105576E+02  0.10000000000E+01 0.  0.
    9000005    1    3    3    0    0 -0.46524192111E+02  0.36481006148E+02 -0.20983698128E+02  0.62742966525E+02  0.10000000000E+01 0.  0.
<mgrwt>
<rscale>  0 0.12500084E+03</rscale>
<asrwt>0</asrwt>
<pdfrwt beam="2">  1        4 0.19053326E-01 0.12500084E+03</pdfrwt>
<pdfrwt beam="1">  1       -4 0.48525315E-02 0.12500084E+03</pdfrwt>
<totfact> 0.98237515E+03</totfact>
</mgrwt>
</event>
<event>
 5    1  0.3398872E-002  0.1249990E+03  0.7818608E-02  0.1235071E+00
         -4   -1    0    0    0  501 -0.00000000000E+00  0.00000000000E+00  0.33138827165E+03  0.33139070519E+03  0.12700000000E+01 0.  1.
          4   -1    0    0  501    0  0.00000000000E+00 -0.00000000000E+00 -0.11750648631E+02  0.11819079628E+02  0.12700000000E+01 0.  1.
         25    2    1    2    0    0  0.00000000000E+00  0.00000000000E+00  0.31963762301E+03  0.34320978481E+03  0.12499898538E+03 0.  0.
    9000005    1    3    3    0    0 -0.22324833703E+02 -0.22581767190E+02  0.30759904223E+03  0.30923535566E+03  0.10000000000E+01 0.  0.
    9000005    1    3    3    0    0  0.22324833703E+02  0.22581767190E+02  0.12038580788E+02  0.33974429159E+02  0.10000000000E+01 0.  0.
<mgrwt>
<rscale>  0 0.12499899E+03</rscale>
<asrwt>0</asrwt>
<pdfrwt beam="2">  1        4 0.18132434E-02 0.12499899E+03</pdfrwt>
<pdfrwt beam="1">  1       -4 0.50988256E-01 0.12499899E+03</pdfrwt>
<totfact> 0.70479665E+03</totfact>
</mgrwt>
</event>
<event>
 5    1  0.3398872E-002  0.1249998E+03  0.7818608E-02  0.1235070E+00
          4   -1    0    0  501    0  0.00000000000E+00  0.00000000000E+00  0.40278879902E+02  0.40298896588E+02  0.12700000000E+01 0. -1.
         -4   -1    0    0    0  501 -0.00000000000E+00 -0.00000000000E+00 -0.96931569243E+02  0.96939888673E+02  0.12700000000E+01 0. -1.
         25    2    1    2    0    0  0.00000000000E+00  0.00000000000E+00 -0.56652689341E+02  0.13723878526E+03  0.12499982788E+03 0.  0.
    9000005    1    3    3    0    0 -0.61419916528E+02 -0.64096199497E+00 -0.15692138648E+02  0.63403944625E+02  0.10000000000E+01 0.  0.
    9000005    1    3    3    0    0  0.61419916528E+02  0.64096199497E+00 -0.40960550693E+02  0.73834840636E+02  0.10000000000E+01 0.  0.
<mgrwt>
<rscale>  0 0.12499983E+03</rscale>
<asrwt>0</asrwt>
<pdfrwt beam="1">  1        4 0.61989305E-02 0.12499983E+03</pdfrwt>
<pdfrwt beam="2">  1       -4 0.14914729E-01 0.12499983E+03</pdfrwt>
<totfact> 0.10191135E+04</totfact>
</mgrwt>
</event>
<event>
 5    1  0.3398872E-002  0.1250020E+03  0.7818608E-02  0.1235066E+00
         -4   -1    0    0    0  501 -0.00000000000E+00  0.00000000000E+00  0.78090100328E+01  0.79116077818E+01  0.12700000000E+01 0.  1.
          4   -1    0    0  501    0  0.00000000000E+00 -0.00000000000E+00 -0.49687124643E+03  0.49687286948E+03  0.12700000000E+01 0.  1.
         25    2    1    2    0    0  0.00000000000E+00  0.00000000000E+00 -0.48906223639E+03  0.50478447726E+03  0.12500198966E+03 0.  0.
    9000005    1    3    3    0    0  0.31411171236E+02 -0.44547558834E+02 -0.36795961235E+03  0.37197637424E+03  0.10000000000E+01 0.  0.
    9000005    1    3    3    0    0 -0.31411171236E+02  0.44547558834E+02 -0.12110262405E+03  0.13280810302E+03  0.10000000000E+01 0.  0.
<mgrwt>
<rscale>  0 0.12500199E+03</rscale>
<asrwt>0</asrwt>
<pdfrwt beam="2">  1        4 0.76449723E-01 0.12500199E+03</pdfrwt>
<pdfrwt beam="1">  1       -4 0.12094035E-02 0.12500199E+03</pdfrwt>
<totfact> 0.55492635E+03</totfact>
</mgrwt>
</event>
<event>
 5    1  0.3398872E-002  0.1249985E+03  0.7818608E-02  0.1235072E+00
          4   -1    0    0  501    0  0.00000000000E+00  0.00000000000E+00  0.62862005831E+02  0.62874833416E+02  0.12700000000E+01 0. -1.
         -4   -1    0    0    0  501 -0.00000000000E+00 -0.00000000000E+00 -0.62112918827E+02  0.62125901081E+02  0.12700000000E+01 0. -1.
         25    2    1    2    0    0  0.00000000000E+00  0.00000000000E+00  0.74908700430E+00  0.12500073450E+03  0.12499848997E+03 0.  0.
    9000005    1    3    3    0    0 -0.58796632895E+02 -0.13135744293E+02 -0.16225869199E+02  0.62400886606E+02  0.10000000000E+01 0.  0.
    9000005    1    3    3    0    0  0.58796632895E+02  0.13135744293E+02  0.16974956204E+02  0.62599847892E+02  0.10000000000E+01 0.  0.
<mgrwt>
<rscale>  0 0.12499849E+03</rscale>
<asrwt>0</asrwt>
<pdfrwt beam="1">  1        4 0.96730632E-02 0.12499849E+03</pdfrwt>
<pdfrwt beam="2">  1       -4 0.95578191E-02 0.12499849E+03</pdfrwt>
<totfact> 0.10453203E+04</totfact>
</mgrwt>
</event>
<event>
 5    1  0.3398872E-002  0.1250015E+03  0.7818608E-02  0.1235067E+00
         -4   -1    0    0    0  501 -0.00000000000E+00  0.00000000000E+00  0.56137911839E+01  0.57556538687E+01  0.12700000000E+01 0.  1.
          4   -1    0    0  501    0  0.00000000000E+00 -0.00000000000E+00 -0.68702324206E+03  0.68702441590E+03  0.12700000000E+01 0.  1.
         25    2    1    2    0    0  0.00000000000E+00  0.00000000000E+00 -0.68140945088E+03  0.69278006976E+03  0.12500154124E+03 0.  0.
    9000005    1    3    3    0    0  0.25748077710E+02  0.14708981124E+02 -0.35833428330E+02  0.46522598996E+02  0.10000000000E+01 0.  0.
    9000005    1    3    3    0    0 -0.25748077710E+02 -0.14708981124E+02 -0.64557602255E+03  0.64625747077E+03  0.10000000000E+01 0.  0.
<mgrwt>
<rscale>  0 0.12500154E+03</rscale>
<asrwt>0</asrwt>
<pdfrwt beam="2">  1        4 0.10570682E+00 0.12500154E+03</pdfrwt>
<pdfrwt beam="1">  1       -4 0.87466353E-03 0.12500154E+03</pdfrwt>
<totfact> 0.43469125E+03</totfact>
</mgrwt>
</event>
<event>
 5    1  0.3398872E-002  0.1250154E+03  0.7818608E-02  0.1235045E+00
          4   -1    0    0  501    0  0.00000000000E+00  0.00000000000E+00  0.29864547221E+03  0.29864817256E+03  0.12700000000E+01 0. -1.
         -4   -1    0    0    0  501 -0.00000000000E+00 -0.00000000000E+00 -0.13049519225E+02  0.13111172793E+02  0.12700000000E+01 0. -1.
         25    2    1    2    0    0  0.00000000000E+00  0.00000000000E+00  0.28559595299E+03  0.31175934535E+03  0.12501536326E+03 0.  0.
    9000005    1    3    3    0    0  0.47981932755E+02 -0.18967473564E+02  0.23076048097E+03  0.23646020913E+03  0.10000000000E+01 0.  0.
    9000005    1    3    3    0    0 -0.47981932755E+02  0.18967473564E+02  0.54835472018E+02  0.75299136222E+02  0.10000000000E+01 0.  0.
<mgrwt>
<rscale>  0 0.12501536E+03</rscale>
<asrwt>0</asrwt>
<pdfrwt beam="1">  1        4 0.45950412E-01 0.12501536E+03</pdfrwt>
<pdfrwt beam="2">  1       -4 0.20125684E-02 0.12501536E+03</pdfrwt>
<totfact> 0.74121784E+03</totfact>
</mgrwt>
</event>
<event>
 5    1  0.3398872E-002  0.1250068E+03  0.7818608E-02  0.1235059E+00
         -4   -1    0    0    0  501 -0.00000000000E+00  0.00000000000E+00  0.11553238849E+02  0.11622832181E+02  0.12700000000E+01 0. -1.
          4   -1    0    0  501    0  0.00000000000E+00 -0.00000000000E+00 -0.33705949292E+03  0.33706188551E+03  0.12700000000E+01 0. -1.
         25    2    1    2    0    0  0.00000000000E+00  0.00000000000E+00 -0.32550625407E+03  0.34868471769E+03  0.12500684348E+03 0.  0.
    9000005    1    3    3    0    0  0.58545249143E+02  0.21513418168E+02 -0.15184106416E+03  0.16415566431E+03  0.10000000000E+01 0.  0.
    9000005    1    3    3    0    0 -0.58545249143E+02 -0.21513418168E+02 -0.17366518991E+03  0.18452905339E+03  0.10000000000E+01 0.  0.
<mgrwt>
<rscale>  0 0.12500684E+03</rscale>
<asrwt>0</asrwt>
<pdfrwt beam="2">  1        4 0.51860836E-01 0.12500684E+03</pdfrwt>
<pdfrwt beam="1">  1       -4 0.17829590E-02 0.12500684E+03</pdfrwt>
<totfact> 0.69858918E+03</totfact>
</mgrwt>
</event>
<event>
 5    1  0.3398872E-002  0.1250189E+03  0.7818608E-02  0.1235040E+00
          4   -1    0    0  501    0  0.00000000000E+00  0.00000000000E+00  0.27661753515E+02  0.27690892140E+02  0.12700000000E+01 0.  1.
         -4   -1    0    0    0  501 -0.00000000000E+00 -0.00000000000E+00 -0.14115121254E+03  0.14115692580E+03  0.12700000000E+01 0.  1.
         25    2    1    2    0    0  0.00000000000E+00  0.00000000000E+00 -0.11348945902E+03  0.16884781794E+03  0.12501891182E+03 0.  0.
    9000005    1    3    3    0    0 -0.38952719151E+02 -0.41339932875E+02 -0.21522651938E+02  0.60749723668E+02  0.10000000000E+01 0.  0.
    9000005    1    3    3    0    0  0.38952719151E+02  0.41339932875E+02 -0.91966807082E+02  0.10809809427E+03  0.10000000000E+01 0.  0.
<mgrwt>
<rscale>  0 0.12501891E+03</rscale>
<asrwt>0</asrwt>
<pdfrwt beam="1">  1        4 0.42583354E-02 0.12501891E+03</pdfrwt>
<pdfrwt beam="2">  1       -4 0.21718252E-01 0.12501891E+03</pdfrwt>
<totfact> 0.95622985E+03</totfact>
</mgrwt>
</event>
<event>
 5    1  0.3398872E-002  0.1250007E+03  0.7818608E-02  0.1235068E+00
         -4   -1    0    0    0  501 -0.00000000000E+00  0.00000000000E+00  0.13890281793E+02  0.13948219538E+02  0.12700000000E+01 0. -1.
          4   -1    0    0  501    0  0.00000000000E+00 -0.00000000000E+00 -0.28058020956E+03  0.28058308376E+03  0.12700000000E+01 0. -1.
         25    2    1    2    0    0  0.00000000000E+00  0.00000000000E+00 -0.26668992776E+03  0.29453130330E+03  0.12500068422E+03 0.  0.
    9000005    1    3    3    0    0  0.22731167872E+02 -0.57263914841E+02 -0.15799337400E+03  0.16958410351E+03  0.10000000000E+01 0.  0.
    9000005    1    3    3    0    0 -0.22731167872E+02  0.57263914841E+02 -0.10869655376E+03  0.12494719979E+03  0.10000000000E+01 0.  0.
<mgrwt>
<rscale>  0 0.12500068E+03</rscale>
<asrwt>0</asrwt>
<pdfrwt beam="2">  1        4 0.43170860E-01 0.12500068E+03</pdfrwt>
<pdfrwt beam="1">  1       -4 0.21416445E-02 0.12500068E+03</pdfrwt>
<totfact> 0.76288825E+03</totfact>
</mgrwt>
</event>
<event>
 5    1  0.3398872E-002  0.1249986E+03  0.7818608E-02  0.1235071E+00
         -4   -1    0    0    0  501 -0.00000000000E+00  0.00000000000E+00  0.65699035938E+03  0.65699158687E+03  0.12700000000E+01 0.  1.
          4   -1    0    0  501    0  0.00000000000E+00 -0.00000000000E+00 -0.58764749691E+01  0.60121425517E+01  0.12700000000E+01 0.  1.
         25    2    1    2    0    0  0.00000000000E+00  0.00000000000E+00  0.65111388441E+03  0.66300372942E+03  0.12499861901E+03 0.  0.
    9000005    1    3    3    0    0  0.22475942591E+02  0.46654221451E+02  0.51107719303E+03  0.51369512516E+03  0.10000000000E+01 0.  0.
    9000005    1    3    3    0    0 -0.22475942591E+02 -0.46654221451E+02  0.14003669138E+03  0.14930860426E+03  0.10000000000E+01 0.  0.
<mgrwt>
<rscale>  0 0.12499862E+03</rscale>
<asrwt>0</asrwt>
<pdfrwt beam="2">  1        4 0.91460294E-03 0.12499862E+03</pdfrwt>
<pdfrwt beam="1">  1       -4 0.10108603E+00 0.12499862E+03</pdfrwt>
<totfact> 0.45114191E+03</totfact>
</mgrwt>
</event>
<event>
 5    1  0.3398872E-002  0.1249963E+03  0.7818608E-02  0.1235075E+00
          4   -1    0    0  501    0  0.00000000000E+00  0.00000000000E+00  0.12704286607E+04  0.12704292955E+04  0.12700000000E+01 0.  1.
         -4   -1    0    0    0  501 -0.00000000000E+00 -0.00000000000E+00 -0.29427566700E+01  0.32051079263E+01  0.12700000000E+01 0.  1.
         25    2    1    2    0    0  0.00000000000E+00  0.00000000000E+00  0.12674859041E+04  0.12736344034E+04  0.12499630650E+03 0.  0.
    9000005    1    3    3    0    0 -0.50309634026E+02  0.36505143237E+02  0.56823358131E+03  0.57162407900E+03  0.10000000000E+01 0.  0.
    9000005    1    3    3    0    0  0.50309634026E+02 -0.36505143237E+02  0.69925232275E+03  0.70201032444E+03  0.10000000000E+01 0.  0.
<mgrwt>
<rscale>  0 0.12499631E+03</rscale>
<asrwt>0</asrwt>
<pdfrwt beam="1">  1        4 0.19547084E+00 0.12499631E+03</pdfrwt>
<pdfrwt beam="2">  1       -4 0.47296138E-03 0.12499631E+03</pdfrwt>
<totfact> 0.22861306E+03</totfact>
</mgrwt>
</event>
<event>
 5    1  0.3398872E-002  0.1249985E+03  0.7818608E-02  0.1235072E+00
         -4   -1    0    0    0  501 -0.00000000000E+00  0.00000000000E+00  0.98936878016E+01  0.99748663307E+01  0.12700000000E+01 0.  1.
          4   -1    0    0  501    0  0.00000000000E+00 -0.00000000000E+00 -0.39311770443E+03  0.39311975585E+03  0.12700000000E+01 0.  1.
         25    2    1    2    0    0  0.00000000000E+00  0.00000000000E+00 -0.38322401663E+03  0.40309462218E+03  0.12499851002E+03 0.  0.
    9000005    1    3    3    0    0 -0.32717519585E+02  0.22561825677E+02 -0.34712891028E+03  0.34939798571E+03  0.10000000000E+01 0.  0.
    9000005    1    3    3    0    0  0.32717519585E+02 -0.22561825677E+02 -0.36095106350E+02  0.53696636469E+02  0.10000000000E+01 0.  0.
<mgrwt>
<rscale>  0 0.12499851E+03</rscale>
<asrwt>0</asrwt>
<pdfrwt beam="2">  1        4 0.60486037E-01 0.12499851E+03</pdfrwt>
<pdfrwt beam="1">  1       -4 0.15285084E-02 0.12499851E+03</pdfrwt>
<totfact> 0.64255038E+03</totfact>
</mgrwt>
</event>
<event>
 5    1  0.3398872E-002  0.1249999E+03  0.7818608E-02  0.1235069E+00
         -4   -1    0    0    0  501 -0.00000000000E+00  0.00000000000E+00  0.14146834595E+03  0.14147404640E+03  0.12700000000E+01 0.  1.
          4   -1    0    0  501    0  0.00000000000E+00 -0.00000000000E+00 -0.27591294925E+02  0.27620507882E+02  0.12700000000E+01 0.  1.
         25    2    1    2    0    0  0.00000000000E+00  0.00000000000E+00  0.11387705102E+03  0.16909455429E+03  0.12499994216E+03 0.  0.
    9000005    1    3    3    0    0 -0.42411322246E+02 -0.30635806007E+02  0.10707204016E+02  0.53412705251E+02  0.10000000000E+01 0.  0.
    9000005    1    3    3    0    0  0.42411322246E+02  0.30635806007E+02  0.10316984701E+03  0.11568184903E+03  0.10000000000E+01 0.  0.
<mgrwt>
<rscale>  0 0.12499994E+03</rscale>
<asrwt>0</asrwt>
<pdfrwt beam="2">  1        4 0.42475003E-02 0.12499994E+03</pdfrwt>
<pdfrwt beam="1">  1       -4 0.21767046E-01 0.12499994E+03</pdfrwt>
<totfact> 0.95617643E+03</totfact>
</mgrwt>
</event>
<event>
 5    1  0.3398872E-002  0.1250000E+03  0.7818608E-02  0.1235069E+00
         -4   -1    0    0    0  501 -0.00000000000E+00  0.00000000000E+00  0.15345971783E+03  0.15346497286E+03  0.12700000000E+01 0. -1.
          4   -1    0    0  501    0  0.00000000000E+00 -0.00000000000E+00 -0.25433042248E+02  0.25464731257E+02  0.12700000000E+01 0. -1.
         25    2    1    2    0    0  0.00000000000E+00  0.00000000000E+00  0.12802667558E+03  0.17892970412E+03  0.12500003742E+03 0.  0.
    9000005    1    3    3    0    0 -0.57505609149E+02  0.11255966287E+02  0.95100926984E+02  0.11170845167E+03  0.10000000000E+01 0.  0.
    9000005    1    3    3    0    0  0.57505609149E+02 -0.11255966287E+02  0.32925748595E+02  0.67221252452E+02  0.10000000000E+01 0.  0.
<mgrwt>
<rscale>  0 0.12500004E+03</rscale>
<asrwt>0</asrwt>
<pdfrwt beam="2">  1        4 0.39156177E-02 0.12500004E+03</pdfrwt>
<pdfrwt beam="1">  1       -4 0.23612028E-01 0.12500004E+03</pdfrwt>
<totfact> 0.93809937E+03</totfact>
</mgrwt>
</event>
<event>
 5    1  0.3398872E-002  0.1249992E+03  0.7818608E-02  0.1235071E+00
         -4   -1    0    0    0  501 -0.00000000000E+00  0.00000000000E+00  0.12942761760E+02  0.13004921452E+02  0.12700000000E+01 0. -1.
          4   -1    0    0  501    0  0.00000000000E+00 -0.00000000000E+00 -0.30101933916E+03  0.30102201821E+03  0.12700000000E+01 0. -1.
         25    2    1    2    0    0  0.00000000000E+00  0.00000000000E+00 -0.28807657740E+03  0.31402693966E+03  0.12499921755E+03 0.  0.
    9000005    1    3    3    0    0 -0.43218501083E+02  0.19998217513E+02 -0.24569626398E+03  0.25027069679E+03  0.10000000000E+01 0.  0.
    9000005    1    3    3    0    0  0.43218501083E+02 -0.19998217513E+02 -0.42380313424E+02  0.63756242874E+02  0.10000000000E+01 0.  0.
<mgrwt>
<rscale>  0 0.12499922E+03</rscale>
<asrwt>0</asrwt>
<pdfrwt beam="2">  1        4 0.46315650E-01 0.12499922E+03</pdfrwt>
<pdfrwt beam="1">  1       -4 0.19961819E-02 0.12499922E+03</pdfrwt>
<totfact> 0.73873503E+03</totfact>
</mgrwt>
</event>
<event>
 5    1  0.3398872E-002  0.1249999E+03  0.7818608E-02  0.1235069E+00
          4   -1    0    0  501    0  0.00000000000E+00  0.00000000000E+00  0.74906336348E+01  0.75975319842E+01  0.12700000000E+01 0. -1.
         -4   -1    0    0    0  501 -0.00000000000E+00 -0.00000000000E+00 -0.51768118481E+03  0.51768274262E+03  0.12700000000E+01 0. -1.
         25    2    1    2    0    0  0.00000000000E+00  0.00000000000E+00 -0.51019055117E+03  0.52528027460E+03  0.12499987352E+03 0.  0.
    9000005    1    3    3    0    0  0.17353156961E+02 -0.22599116873E+02 -0.48881687752E+03  0.48964762012E+03  0.10000000000E+01 0.  0.
    9000005    1    3    3    0    0 -0.17353156961E+02  0.22599116873E+02 -0.21373673649E+02  0.35632654479E+02  0.10000000000E+01 0.  0.
<mgrwt>
<rscale>  0 0.12499987E+03</rscale>
<asrwt>0</asrwt>
<pdfrwt beam="1">  1        4 0.11607484E-02 0.12499987E+03</pdfrwt>
<pdfrwt beam="2">  1       -4 0.79651574E-01 0.12499987E+03</pdfrwt>
<totfact> 0.53955087E+03</totfact>
</mgrwt>
</event>
<event>
 5    1  0.3398872E-002  0.1249980E+03  0.7818608E-02  0.1235072E+00
         -4   -1    0    0    0  501 -0.00000000000E+00  0.00000000000E+00  0.14120106311E+03  0.14120677435E+03  0.12700000000E+01 0. -1.
          4   -1    0    0  501    0  0.00000000000E+00 -0.00000000000E+00 -0.27642723128E+02  0.27671881792E+02  0.12700000000E+01 0. -1.
         25    2    1    2    0    0  0.00000000000E+00  0.00000000000E+00  0.11355833998E+03  0.16887865614E+03  0.12499801567E+03 0.  0.
    9000005    1    3    3    0    0  0.38116907013E+02 -0.34167696964E+02  0.10520629765E+03  0.11700297083E+03  0.10000000000E+01 0.  0.
    9000005    1    3    3    0    0 -0.38116907013E+02  0.34167696964E+02  0.83520423257E+01  0.51875685317E+02  0.10000000000E+01 0.  0.
<mgrwt>
<rscale>  0 0.12499802E+03</rscale>
<asrwt>0</asrwt>
<pdfrwt beam="2">  1        4 0.42554090E-02 0.12499802E+03</pdfrwt>
<pdfrwt beam="1">  1       -4 0.21725922E-01 0.12499802E+03</pdfrwt>
<totfact> 0.95662100E+03</totfact>
</mgrwt>
</event>
<event>
 5    1  0.3398872E-002  0.1250044E+03  0.7818608E-02  0.1235062E+00
          4   -1    0    0  501    0  0.00000000000E+00  0.00000000000E+00  0.12986757836E+03  0.12987378800E+03  0.12700000000E+01 0.  1.
         -4   -1    0    0    0  501 -0.00000000000E+00 -0.00000000000E+00 -0.30060487050E+02  0.30087302666E+02  0.12700000000E+01 0.  1.
         25    2    1    2    0    0  0.00000000000E+00  0.00000000000E+00  0.99807091308E+02  0.15996109066E+03  0.12500438013E+03 0.  0.
    9000005    1    3    3    0    0  0.28322051008E+02 -0.33235442090E+01  0.12106301351E+03  0.12438021450E+03  0.10000000000E+01 0.  0.
    9000005    1    3    3    0    0 -0.28322051008E+02  0.33235442090E+01 -0.21255922205E+02  0.35580876158E+02  0.10000000000E+01 0.  0.
<mgrwt>
<rscale>  0 0.12500438E+03</rscale>
<asrwt>0</asrwt>
<pdfrwt beam="1">  1        4 0.19982169E-01 0.12500438E+03</pdfrwt>
<pdfrwt beam="2">  1       -4 0.46272306E-02 0.12500438E+03</pdfrwt>
<totfact> 0.97340702E+03</totfact>
</mgrwt>
</event>
<event>
 5    1  0.3398872E-002  0.1250058E+03  0.7818608E-02  0.1235060E+00
          4   -1    0    0  501    0  0.00000000000E+00  0.00000000000E+00  0.96944018410E+03  0.96944101597E+03  0.12700000000E+01 0.  1.
         -4   -1    0    0    0  501 -0.00000000000E+00 -0.00000000000E+00 -0.39288474645E+01  0.41290122789E+01  0.12700000000E+01 0.  1.
         25    2    1    2    0    0  0.00000000000E+00  0.00000000000E+00  0.96551133664E+03  0.97357002825E+03  0.12500583481E+03 0.  0.
    9000005    1    3    3    0    0  0.11823212557E+02  0.36125395074E+02  0.86909906659E+03  0.86993046852E+03  0.10000000000E+01 0.  0.
    9000005    1    3    3    0    0 -0.11823212557E+02 -0.36125395074E+02  0.96412270054E+02  0.10363955973E+03  0.10000000000E+01 0.  0.
<mgrwt>
<rscale>  0 0.12500583E+03</rscale>
<asrwt>0</asrwt>
<pdfrwt beam="1">  1        4 0.14916013E+00 0.12500583E+03</pdfrwt>
<pdfrwt beam="2">  1       -4 0.61989925E-03 0.12500583E+03</pdfrwt>
<totfact> 0.31489631E+03</totfact>
</mgrwt>
</event>
<event>
 5    1  0.3398872E-002  0.1249990E+03  0.7818608E-02  0.1235071E+00
          4   -1    0    0  501    0  0.00000000000E+00  0.00000000000E+00  0.65532999365E+02  0.65545304223E+02  0.12700000000E+01 0.  1.
         -4   -1    0    0    0  501 -0.00000000000E+00 -0.00000000000E+00 -0.59581751973E+02  0.59595285620E+02  0.12700000000E+01 0.  1.
         25    2    1    2    0    0  0.00000000000E+00  0.00000000000E+00  0.59512473916E+01  0.12514058984E+03  0.12499899952E+03 0.  0.
    9000005    1    3    3    0    0  0.55086158798E+02  0.11880886369E+02 -0.24065101451E+02  0.61284332907E+02  0.10000000000E+01 0.  0.
    9000005    1    3    3    0    0 -0.55086158798E+02 -0.11880886369E+02  0.30016348842E+02  0.63856256936E+02  0.10000000000E+01 0.  0.
<mgrwt>
<rscale>  0 0.12499900E+03</rscale>
<asrwt>0</asrwt>
<pdfrwt beam="1">  1        4 0.10083988E-01 0.12499900E+03</pdfrwt>
<pdfrwt beam="2">  1       -4 0.91684109E-02 0.12499900E+03</pdfrwt>
<totfact> 0.10450046E+04</totfact>
</mgrwt>
</event>
<event>
 5    1  0.3398872E-002  0.1249802E+03  0.7818608E-02  0.1235100E+00
         -4   -1    0    0    0  501 -0.00000000000E+00  0.00000000000E+00  0.12538194550E+04  0.12538200982E+04  0.12700000000E+01 0.  1.
          4   -1    0    0  501    0  0.00000000000E+00 -0.00000000000E+00 -0.29843576722E+01  0.32433456054E+01  0.12700000000E+01 0.  1.
         25    2    1    2    0    0  0.00000000000E+00  0.00000000000E+00  0.12508350973E+04  0.12570634438E+04  0.12498024256E+03 0.  0.
    9000005    1    3    3    0    0 -0.38923477626E+02 -0.47796725142E+02  0.72821268748E+03  0.73081754375E+03  0.10000000000E+01 0.  0.
    9000005    1    3    3    0    0  0.38923477626E+02  0.47796725142E+02  0.52262240981E+03  0.52624590002E+03  0.10000000000E+01 0.  0.
<mgrwt>
<rscale>  0 0.12498024E+03</rscale>
<asrwt>0</asrwt>
<pdfrwt beam="2">  1        4 0.47910477E-03 0.12498024E+03</pdfrwt>
<pdfrwt beam="1">  1       -4 0.19291479E+00 0.12498024E+03</pdfrwt>
<totfact> 0.23275222E+03</totfact>
</mgrwt>
</event>
<event>
 5    1  0.3398872E-002  0.1249993E+03  0.7818608E-02  0.1235070E+00
         -4   -1    0    0    0  501 -0.00000000000E+00  0.00000000000E+00  0.58452201116E+01  0.59815966224E+01  0.12700000000E+01 0. -1.
          4   -1    0    0  501    0  0.00000000000E+00 -0.00000000000E+00 -0.66043093141E+03  0.66043215251E+03  0.12700000000E+01 0. -1.
         25    2    1    2    0    0  0.00000000000E+00  0.00000000000E+00 -0.65458571130E+03  0.66641374913E+03  0.12499932636E+03 0.  0.
    9000005    1    3    3    0    0  0.35242069961E+02 -0.27533344094E+02 -0.55999338538E+03  0.56177725141E+03  0.10000000000E+01 0.  0.
    9000005    1    3    3    0    0 -0.35242069961E+02  0.27533344094E+02 -0.94592325921E+02  0.10463649772E+03  0.10000000000E+01 0.  0.
<mgrwt>
<rscale>  0 0.12499933E+03</rscale>
<asrwt>0</asrwt>
<pdfrwt beam="2">  1        4 0.10161529E+00 0.12499933E+03</pdfrwt>
<pdfrwt beam="1">  1       -4 0.90984958E-03 0.12499933E+03</pdfrwt>
<totfact> 0.44920586E+03</totfact>
</mgrwt>
</event>
<event>
 5    1  0.3398872E-002  0.1249641E+03  0.7818608E-02  0.1235125E+00
         -4   -1    0    0    0  501 -0.00000000000E+00  0.00000000000E+00  0.84838729657E+01  0.85784031439E+01  0.12700000000E+01 0. -1.
          4   -1    0    0  501    0  0.00000000000E+00 -0.00000000000E+00 -0.45752324670E+03  0.45752500934E+03  0.12700000000E+01 0. -1.
         25    2    1    2    0    0  0.00000000000E+00  0.00000000000E+00 -0.44903937373E+03  0.46610341248E+03  0.12496412271E+03 0.  0.
    9000005    1    3    3    0    0  0.50102034234E+02  0.86092568205E+01 -0.89073806553E+02  0.10256449752E+03  0.10000000000E+01 0.  0.
    9000005    1    3    3    0    0 -0.50102034234E+02 -0.86092568205E+01 -0.35996556718E+03  0.36353891496E+03  0.10000000000E+01 0.  0.
<mgrwt>
<rscale>  0 0.12496412E+03</rscale>
<asrwt>0</asrwt>
<pdfrwt beam="2">  1        4 0.70395580E-01 0.12496412E+03</pdfrwt>
<pdfrwt beam="1">  1       -4 0.13126187E-02 0.12496412E+03</pdfrwt>
<totfact> 0.58640017E+03</totfact>
</mgrwt>
</event>
<event>
 5    1  0.3398872E-002  0.1249997E+03  0.7818608E-02  0.1235070E+00
          4   -1    0    0  501    0  0.00000000000E+00  0.00000000000E+00  0.33318976892E+02  0.33343172032E+02  0.12700000000E+01 0.  1.
         -4   -1    0    0    0  501 -0.00000000000E+00 -0.00000000000E+00 -0.11716719061E+03  0.11717407330E+03  0.12700000000E+01 0.  1.
         25    2    1    2    0    0  0.00000000000E+00  0.00000000000E+00 -0.83848213715E+02  0.15051724534E+03  0.12499967280E+03 0.  0.
    9000005    1    3    3    0    0 -0.29088719161E+02  0.46381986335E+02 -0.78204287383E+02  0.95469119635E+02  0.10000000000E+01 0.  0.
    9000005    1    3    3    0    0  0.29088719161E+02 -0.46381986335E+02 -0.56439263322E+01  0.55048125702E+02  0.10000000000E+01 0.  0.
<mgrwt>
<rscale>  0 0.12499967E+03</rscale>
<asrwt>0</asrwt>
<pdfrwt beam="1">  1        4 0.51283871E-02 0.12499967E+03</pdfrwt>
<pdfrwt beam="2">  1       -4 0.18028112E-01 0.12499967E+03</pdfrwt>
<totfact> 0.99201423E+03</totfact>
</mgrwt>
</event>
<event>
 5    1  0.3398872E-002  0.1250169E+03  0.7818608E-02  0.1235043E+00
         -4   -1    0    0    0  501 -0.00000000000E+00  0.00000000000E+00  0.46422814155E+02  0.46440182752E+02  0.12700000000E+01 0.  1.
          4   -1    0    0  501    0  0.00000000000E+00 -0.00000000000E+00 -0.84129846881E+02  0.84139432113E+02  0.12700000000E+01 0.  1.
         25    2    1    2    0    0  0.00000000000E+00  0.00000000000E+00 -0.37707032727E+02  0.13057961487E+03  0.12501686087E+03 0.  0.
    9000005    1    3    3    0    0 -0.24764638783E+02  0.55892571039E+02 -0.52735798908E+01  0.61368375213E+02  0.10000000000E+01 0.  0.
    9000005    1    3    3    0    0  0.24764638783E+02 -0.55892571039E+02 -0.32433452836E+02  0.69211239653E+02  0.10000000000E+01 0.  0.
<mgrwt>
<rscale>  0 0.12501686E+03</rscale>
<asrwt>0</asrwt>
<pdfrwt beam="2">  1        4 0.12945127E-01 0.12501686E+03</pdfrwt>
<pdfrwt beam="1">  1       -4 0.71440448E-02 0.12501686E+03</pdfrwt>
<totfact> 0.10328181E+04</totfact>
</mgrwt>
</event>
<event>
 5    1  0.3398872E-002  0.1250030E+03  0.7818608E-02  0.1235065E+00
          4   -1    0    0  501    0  0.00000000000E+00  0.00000000000E+00  0.10009662063E+03  0.10010467702E+03  0.12700000000E+01 0. -1.
         -4   -1    0    0    0  501 -0.00000000000E+00 -0.00000000000E+00 -0.39006731306E+02  0.39027400466E+02  0.12700000000E+01 0. -1.
         25    2    1    2    0    0  0.00000000000E+00  0.00000000000E+00  0.61089889320E+02  0.13913207748E+03  0.12500304159E+03 0.  0.
    9000005    1    3    3    0    0 -0.13780368361E+02  0.37234608607E+02 -0.23170989391E+02  0.45980532615E+02  0.10000000000E+01 0.  0.
    9000005    1    3    3    0    0  0.13780368361E+02 -0.37234608607E+02  0.84260878710E+02  0.93151544868E+02  0.10000000000E+01 0.  0.
<mgrwt>
<rscale>  0 0.12500304E+03</rscale>
<asrwt>0</asrwt>
<pdfrwt beam="1">  1        4 0.15401690E-01 0.12500304E+03</pdfrwt>
<pdfrwt beam="2">  1       -4 0.60032453E-02 0.12500304E+03</pdfrwt>
<totfact> 0.10150910E+04</totfact>
</mgrwt>
</event>
<event>
 5    1  0.3398872E-002  0.1250050E+03  0.7818608E-02  0.1235061E+00
         -4   -1    0    0    0  501 -0.00000000000E+00  0.00000000000E+00  0.11697137051E+04  0.11697143946E+04  0.12700000000E+01 0. -1.
          4   -1    0    0  501    0  0.00000000000E+00 -0.00000000000E+00 -0.32183113523E+01  0.34598306259E+01  0.12700000000E+01 0. -1.
         25    2    1    2    0    0  0.00000000000E+00  0.00000000000E+00  0.11664953938E+04  0.11731742252E+04  0.12500503576E+03 0.  0.
    9000005    1    3    3    0    0 -0.40810385337E+02 -0.15689995099E+02  0.10023179423E+04  0.10032716087E+04  0.10000000000E+01 0.  0.
    9000005    1    3    3    0    0  0.40810385337E+02  0.15689995099E+02  0.16417745153E+03  0.16990261648E+03  0.10000000000E+01 0.  0.
<mgrwt>
<rscale>  0 0.12500504E+03</rscale>
<asrwt>0</asrwt>
<pdfrwt beam="2">  1        4 0.51375618E-03 0.12500504E+03</pdfrwt>
<pdfrwt beam="1">  1       -4 0.17997462E+00 0.12500504E+03</pdfrwt>
<totfact> 0.25423109E+03</totfact>
</mgrwt>
</event>
<event>
 5    1  0.3398872E-002  0.1250058E+03  0.7818608E-02  0.1235060E+00
         -4   -1    0    0    0  501 -0.00000000000E+00  0.00000000000E+00  0.40731733450E+02  0.40751527699E+02  0.12700000000E+01 0. -1.
          4   -1    0    0  501    0  0.00000000000E+00 -0.00000000000E+00 -0.95863438972E+02  0.95871851091E+02  0.12700000000E+01 0. -1.
         25    2    1    2    0    0  0.00000000000E+00  0.00000000000E+00 -0.55131705522E+02  0.13662337879E+03  0.12500577058E+03 0.  0.
    9000005    1    3    3    0    0  0.93981942642E+01 -0.59188930507E+02 -0.82003514213E+01  0.60497118224E+02  0.10000000000E+01 0.  0.
    9000005    1    3    3    0    0 -0.93981942642E+01  0.59188930507E+02 -0.46931354101E+02  0.76126260566E+02  0.10000000000E+01 0.  0.
<mgrwt>
<rscale>  0 0.12500577E+03</rscale>
<asrwt>0</asrwt>
<pdfrwt beam="2">  1        4 0.14750391E-01 0.12500577E+03</pdfrwt>
<pdfrwt beam="1">  1       -4 0.62685903E-02 0.12500577E+03</pdfrwt>
<totfact> 0.10202639E+04</totfact>
</mgrwt>
</event>
<event>
 5    1  0.3398872E-002  0.1249765E+03  0.7818608E-02  0.1235106E+00
         -4   -1    0    0    0  501 -0.00000000000E+00  0.00000000000E+00  0.30914278415E+02  0.30940354069E+02  0.12700000000E+01 0.  1.
          4   -1    0    0  501    0  0.00000000000E+00 -0.00000000000E+00 -0.12622753142E+03  0.12623392012E+03  0.12700000000E+01 0.  1.
         25    2    1    2    0    0  0.00000000000E+00  0.00000000000E+00 -0.95313253007E+02  0.15717427419E+03  0.12497654287E+03 0.  0.
    9000005    1    3    3    0    0  0.11803384927E+02 -0.45896131811E+02  0.35523896321E+01  0.47533086193E+02  0.10000000000E+01 0.  0.
    9000005    1    3    3    0    0 -0.11803384927E+02  0.45896131811E+02 -0.98865642639E+02  0.10964118800E+03  0.10000000000E+01 0.  0.
<mgrwt>
<rscale>  0 0.12497654E+03</rscale>
<asrwt>0</asrwt>
<pdfrwt beam="2">  1        4 0.19422117E-01 0.12497654E+03</pdfrwt>
<pdfrwt beam="1">  1       -4 0.47585402E-02 0.12497654E+03</pdfrwt>
<totfact> 0.97941992E+03</totfact>
</mgrwt>
</event>
<event>
 5    1  0.3398872E-002  0.1250003E+03  0.7818608E-02  0.1235069E+00
          4   -1    0    0  501    0  0.00000000000E+00  0.00000000000E+00  0.23103487803E+03  0.23103836860E+03  0.12700000000E+01 0. -1.
         -4   -1    0    0    0  501 -0.00000000000E+00 -0.00000000000E+00 -0.16880228666E+02  0.16927936077E+02  0.12700000000E+01 0. -1.
         25    2    1    2    0    0  0.00000000000E+00  0.00000000000E+00  0.21415464936E+03  0.24796630468E+03  0.12500029765E+03 0.  0.
    9000005    1    3    3    0    0 -0.86413072877E+01  0.19599193086E+02 -0.93805206667E+01  0.23405015045E+02  0.10000000000E+01 0.  0.
    9000005    1    3    3    0    0  0.86413072877E+01 -0.19599193086E+02  0.22353517003E+03  0.22456128963E+03  0.10000000000E+01 0.  0.
<mgrwt>
<rscale>  0 0.12500030E+03</rscale>
<asrwt>0</asrwt>
<pdfrwt beam="1">  1        4 0.35547763E-01 0.12500030E+03</pdfrwt>
<pdfrwt beam="2">  1       -4 0.26008968E-02 0.12500030E+03</pdfrwt>
<totfact> 0.82624505E+03</totfact>
</mgrwt>
</event>
<event>
 5    1  0.3398872E-002  0.1250011E+03  0.7818608E-02  0.1235068E+00
          4   -1    0    0  501    0  0.00000000000E+00  0.00000000000E+00  0.89499215614E+02  0.89508225854E+02  0.12700000000E+01 0.  1.
         -4   -1    0    0    0  501 -0.00000000000E+00 -0.00000000000E+00 -0.43625956949E+02  0.43644438589E+02  0.12700000000E+01 0.  1.
         25    2    1    2    0    0  0.00000000000E+00  0.00000000000E+00  0.45873258665E+02  0.13315266444E+03  0.12500110475E+03 0.  0.
    9000005    1    3    3    0    0 -0.18764120553E+02 -0.10300614087E+02 -0.39604320706E+02  0.45029957687E+02  0.10000000000E+01 0.  0.
    9000005    1    3    3    0    0  0.18764120553E+02  0.10300614087E+02  0.85477579372E+02  0.88122706756E+02  0.10000000000E+01 0.  0.
<mgrwt>
<rscale>  0 0.12500110E+03</rscale>
<asrwt>0</asrwt>
<pdfrwt beam="1">  1        4 0.13771225E-01 0.12500110E+03</pdfrwt>
<pdfrwt beam="2">  1       -4 0.67138005E-02 0.12500110E+03</pdfrwt>
<totfact> 0.10276900E+04</totfact>
</mgrwt>
</event>
<event>
 5    1  0.3398872E-002  0.1250006E+03  0.7818608E-02  0.1235068E+00
          4   -1    0    0  501    0  0.00000000000E+00  0.00000000000E+00  0.17375638726E+02  0.17421989586E+02  0.12700000000E+01 0. -1.
         -4   -1    0    0    0  501 -0.00000000000E+00 -0.00000000000E+00 -0.22446652269E+03  0.22447011541E+03  0.12700000000E+01 0. -1.
         25    2    1    2    0    0  0.00000000000E+00  0.00000000000E+00 -0.20709088397E+03  0.24189210499E+03  0.12500062494E+03 0.  0.
    9000005    1    3    3    0    0 -0.17724765711E+02 -0.51587121505E+02 -0.44535464853E+02  0.70425890511E+02  0.10000000000E+01 0.  0.
    9000005    1    3    3    0    0  0.17724765711E+02  0.51587121505E+02 -0.16255541912E+03  0.17146621448E+03  0.10000000000E+01 0.  0.
<mgrwt>
<rscale>  0 0.12500062E+03</rscale>
<asrwt>0</asrwt>
<pdfrwt beam="1">  1        4 0.26770172E-02 0.12500062E+03</pdfrwt>
<pdfrwt beam="2">  1       -4 0.34537151E-01 0.12500062E+03</pdfrwt>
<totfact> 0.83515214E+03</totfact>
</mgrwt>
</event>
<event>
 5    1  0.3398872E-002  0.1249777E+03  0.7818608E-02  0.1235104E+00
         -4   -1    0    0    0  501 -0.00000000000E+00  0.00000000000E+00  0.43902144013E+03  0.43902327705E+03  0.12700000000E+01 0.  1.
          4   -1    0    0  501    0  0.00000000000E+00 -0.00000000000E+00 -0.88472528586E+01  0.89379406545E+01  0.12700000000E+01 0.  1.
         25    2    1    2    0    0  0.00000000000E+00  0.00000000000E+00  0.43017418727E+03  0.44796121770E+03  0.12497768271E+03 0.  0.
    9000005    1    3    3    0    0 -0.54256776088E+02 -0.30470161760E+02  0.19492964933E+03  0.20462354873E+03  0.10000000000E+01 0.  0.
    9000005    1    3    3    0    0  0.54256776088E+02  0.30470161760E+02  0.23524453794E+03  0.24333766897E+03  0.10000000000E+01 0.  0.
<mgrwt>
<rscale>  0 0.12497768E+03</rscale>
<asrwt>0</asrwt>
<pdfrwt beam="2">  1        4 0.13682333E-02 0.12497768E+03</pdfrwt>
<pdfrwt beam="1">  1       -4 0.67548867E-01 0.12497768E+03</pdfrwt>
<totfact> 0.60170402E+03</totfact>
</mgrwt>
</event>
<event>
 5    1  0.3398872E-002  0.1249995E+03  0.7818608E-02  0.1235070E+00
          4   -1    0    0  501    0  0.00000000000E+00  0.00000000000E+00  0.19955484726E+02  0.19995856337E+02  0.12700000000E+01 0. -1.
         -4   -1    0    0    0  501 -0.00000000000E+00 -0.00000000000E+00 -0.19550626994E+03  0.19551039483E+03  0.12700000000E+01 0. -1.
         25    2    1    2    0    0  0.00000000000E+00  0.00000000000E+00 -0.17555078522E+03  0.21550625117E+03  0.12499946441E+03 0.  0.
    9000005    1    3    3    0    0  0.34377641795E+02 -0.48715099977E+02 -0.12004030133E+03  0.13403602936E+03  0.10000000000E+01 0.  0.
    9000005    1    3    3    0    0 -0.34377641795E+02  0.48715099977E+02 -0.55510483882E+02  0.81470221811E+02  0.10000000000E+01 0.  0.
<mgrwt>
<rscale>  0 0.12499946E+03</rscale>
<asrwt>0</asrwt>
<pdfrwt beam="1">  1        4 0.30734975E-02 0.12499946E+03</pdfrwt>
<pdfrwt beam="2">  1       -4 0.30081309E-01 0.12499946E+03</pdfrwt>
<totfact> 0.87585508E+03</totfact>
</mgrwt>
</event>
<event>
 5    1  0.3398872E-002  0.1250019E+03  0.7818608E-02  0.1235066E+00
         -4   -1    0    0    0  501 -0.00000000000E+00  0.00000000000E+00  0.29899567348E+02  0.29926527156E+02  0.12700000000E+01 0.  1.
          4   -1    0    0  501    0  0.00000000000E+00 -0.00000000000E+00 -0.13056084499E+03  0.13056702166E+03  0.12700000000E+01 0.  1.
         25    2    1    2    0    0  0.00000000000E+00  0.00000000000E+00 -0.10066127765E+03  0.16049354882E+03  0.12500194556E+03 0.  0.
    9000005    1    3    3    0    0 -0.14751256108E+01 -0.16688047431E+02 -0.12763021660E+03  0.12872893658E+03  0.10000000000E+01 0.  0.
    9000005    1    3    3    0    0  0.14751256108E+01  0.16688047431E+02  0.26968938953E+02  0.31764612242E+02  0.10000000000E+01 0.  0.
<mgrwt>
<rscale>  0 0.12500195E+03</rscale>
<asrwt>0</asrwt>
<pdfrwt beam="2">  1        4 0.20088832E-01 0.12500195E+03</pdfrwt>
<pdfrwt beam="1">  1       -4 0.46024825E-02 0.12500195E+03</pdfrwt>
<totfact> 0.97243465E+03</totfact>
</mgrwt>
</event>
<event>
 5    1  0.3398872E-002  0.1250000E+03  0.7818608E-02  0.1235069E+00
          4   -1    0    0  501    0  0.00000000000E+00  0.00000000000E+00  0.62607256329E+02  0.62620136099E+02  0.12700000000E+01 0.  1.
         -4   -1    0    0    0  501 -0.00000000000E+00 -0.00000000000E+00 -0.62367183332E+02  0.62380112671E+02  0.12700000000E+01 0.  1.
         25    2    1    2    0    0  0.00000000000E+00  0.00000000000E+00  0.24007299651E+00  0.12500024877E+03  0.12500001823E+03 0.  0.
    9000005    1    3    3    0    0 -0.42347656545E+02 -0.32269479243E+02  0.32840241006E+02  0.62562966160E+02  0.10000000000E+01 0.  0.
    9000005    1    3    3    0    0  0.42347656545E+02  0.32269479243E+02 -0.32600168009E+02  0.62437282609E+02  0.10000000000E+01 0.  0.
<mgrwt>
<rscale>  0 0.12500002E+03</rscale>
<asrwt>0</asrwt>
<pdfrwt beam="1">  1        4 0.96338709E-02 0.12500002E+03</pdfrwt>
<pdfrwt beam="2">  1       -4 0.95969366E-02 0.12500002E+03</pdfrwt>
<totfact> 0.10452853E+04</totfact>
</mgrwt>
</event>
<event>
 5    1  0.3398872E-002  0.1250002E+03  0.7818608E-02  0.1235069E+00
         -4   -1    0    0    0  501 -0.00000000000E+00  0.00000000000E+00  0.69545116824E+02  0.69556711927E+02  0.12700000000E+01 0. -1.
          4   -1    0    0  501    0  0.00000000000E+00 -0.00000000000E+00 -0.56145310508E+02  0.56159672293E+02  0.12700000000E+01 0. -1.
         25    2    1    2    0    0  0.00000000000E+00  0.00000000000E+00  0.13399806316E+02  0.12571638422E+03  0.12500021781E+03 0.  0.
    9000005    1    3    3    0    0 -0.39437264278E+02 -0.23401198377E+02 -0.35997419444E+02  0.58307187429E+02  0.10000000000E+01 0.  0.
    9000005    1    3    3    0    0  0.39437264278E+02  0.23401198377E+02  0.49397225760E+02  0.67409196791E+02  0.10000000000E+01 0.  0.
<mgrwt>
<rscale>  0 0.12500022E+03</rscale>
<asrwt>0</asrwt>
<pdfrwt beam="2">  1        4 0.86397367E-02 0.12500022E+03</pdfrwt>
<pdfrwt beam="1">  1       -4 0.10701245E-01 0.12500022E+03</pdfrwt>
<totfact> 0.10437132E+04</totfact>
</mgrwt>
</event>
<event>
 5    1  0.3398872E-002  0.1250007E+03  0.7818608E-02  0.1235068E+00
          4   -1    0    0  501    0  0.00000000000E+00  0.00000000000E+00  0.38458490652E+01  0.40501179035E+01  0.12700000000E+01 0. -1.
         -4   -1    0    0    0  501 -0.00000000000E+00 -0.00000000000E+00 -0.98923518679E+03  0.98923600201E+03  0.12700000000E+01 0. -1.
         25    2    1    2    0    0  0.00000000000E+00  0.00000000000E+00 -0.98538933772E+03  0.99328611991E+03  0.12500067648E+03 0.  0.
    9000005    1    3    3    0    0  0.48797500291E+02  0.19412548534E+02 -0.76184250099E+03  0.76365112414E+03  0.10000000000E+01 0.  0.
    9000005    1    3    3    0    0 -0.48797500291E+02 -0.19412548534E+02 -0.22354683673E+03  0.22963499578E+03  0.10000000000E+01 0.  0.
<mgrwt>
<rscale>  0 0.12500068E+03</rscale>
<asrwt>0</asrwt>
<pdfrwt beam="1">  1        4 0.60744557E-03 0.12500068E+03</pdfrwt>
<pdfrwt beam="2">  1       -4 0.15220561E+00 0.12500068E+03</pdfrwt>
<totfact> 0.30826788E+03</totfact>
</mgrwt>
</event>
<event>
 5    1  0.3398872E-002  0.1249986E+03  0.7818608E-02  0.1235071E+00
         -4   -1    0    0    0  501 -0.00000000000E+00  0.00000000000E+00  0.42730832040E+01  0.44578178595E+01  0.12700000000E+01 0. -1.
          4   -1    0    0  501    0  0.00000000000E+00 -0.00000000000E+00 -0.89460548406E+03  0.89460638552E+03  0.12700000000E+01 0. -1.
         25    2    1    2    0    0  0.00000000000E+00  0.00000000000E+00 -0.89033240086E+03  0.89906420338E+03  0.12499863112E+03 0.  0.
    9000005    1    3    3    0    0  0.33820799284E+02 -0.82993525549E+01 -0.81838057614E+03  0.81912178162E+03  0.10000000000E+01 0.  0.
    9000005    1    3    3    0    0 -0.33820799284E+02  0.82993525549E+01 -0.71951824722E+02  0.79942421766E+02  0.10000000000E+01 0.  0.
<mgrwt>
<rscale>  0 0.12499863E+03</rscale>
<asrwt>0</asrwt>
<pdfrwt beam="2">  1        4 0.13764575E+00 0.12499863E+03</pdfrwt>
<pdfrwt beam="1">  1       -4 0.67167783E-03 0.12499863E+03</pdfrwt>
<totfact> 0.34196831E+03</totfact>
</mgrwt>
</event>
<event>
 5    1  0.3398872E-002  0.1250009E+03  0.7818608E-02  0.1235068E+00
          4   -1    0    0  501    0  0.00000000000E+00  0.00000000000E+00  0.11667191499E+04  0.11667198411E+04  0.12700000000E+01 0. -1.
         -4   -1    0    0    0  501 -0.00000000000E+00 -0.00000000000E+00 -0.32269629658E+01  0.34678797532E+01  0.12700000000E+01 0. -1.
         25    2    1    2    0    0  0.00000000000E+00  0.00000000000E+00  0.11634921870E+04  0.11701877209E+04  0.12500093202E+03 0.  0.
    9000005    1    3    3    0    0  0.42128561194E+02  0.22896175212E+02  0.20655726136E+03  0.21205176898E+03  0.10000000000E+01 0.  0.
    9000005    1    3    3    0    0 -0.42128561194E+02 -0.22896175212E+02  0.95693492560E+03  0.95813595191E+03  0.10000000000E+01 0.  0.
<mgrwt>
<rscale>  0 0.12500093E+03</rscale>
<asrwt>0</asrwt>
<pdfrwt beam="1">  1        4 0.17951381E+00 0.12500093E+03</pdfrwt>
<pdfrwt beam="2">  1       -4 0.51504117E-03 0.12500093E+03</pdfrwt>
<totfact> 0.25506177E+03</totfact>
</mgrwt>
</event>
<event>
 5    1  0.3398872E-002  0.1249858E+03  0.7818608E-02  0.1235091E+00
         -4   -1    0    0    0  501 -0.00000000000E+00  0.00000000000E+00  0.25860236726E+02  0.25891402889E+02  0.12700000000E+01 0.  1.
          4   -1    0    0  501    0  0.00000000000E+00 -0.00000000000E+00 -0.15089338149E+03  0.15089872589E+03  0.12700000000E+01 0.  1.
         25    2    1    2    0    0  0.00000000000E+00  0.00000000000E+00 -0.12503314476E+03  0.17679012878E+03  0.12498584858E+03 0.  0.
    9000005    1    3    3    0    0  0.98743587324E+00 -0.57588537005E+02 -0.96785307813E+02  0.11263130308E+03  0.10000000000E+01 0.  0.
    9000005    1    3    3    0    0 -0.98743587324E+00  0.57588537005E+02 -0.28247836947E+02  0.64158825708E+02  0.10000000000E+01 0.  0.
<mgrwt>
<rscale>  0 0.12498585E+03</rscale>
<asrwt>0</asrwt>
<pdfrwt beam="2">  1        4 0.23217174E-01 0.12498585E+03</pdfrwt>
<pdfrwt beam="1">  1       -4 0.39813066E-02 0.12498585E+03</pdfrwt>
<totfact> 0.94227907E+03</totfact>
</mgrwt>
</event>
<event>
 5    1  0.3398872E-002  0.1250115E+03  0.7818608E-02  0.1235051E+00
         -4   -1    0    0    0  501 -0.00000000000E+00  0.00000000000E+00  0.45148443621E+03  0.45148622243E+03  0.12700000000E+01 0.  1.
          4   -1    0    0  501    0  0.00000000000E+00 -0.00000000000E+00 -0.86052005545E+01  0.86984123024E+01  0.12700000000E+01 0.  1.
         25    2    1    2    0    0  0.00000000000E+00  0.00000000000E+00  0.44287923566E+03  0.46018463473E+03  0.12501152213E+03 0.  0.
    9000005    1    3    3    0    0 -0.87221067004E+01 -0.53703844631E+02  0.10823089001E+03  0.12114084211E+03  0.10000000000E+01 0.  0.
    9000005    1    3    3    0    0  0.87221067004E+01  0.53703844631E+02  0.33464834564E+03  0.33904379262E+03  0.10000000000E+01 0.  0.
<mgrwt>
<rscale>  0 0.12501152E+03</rscale>
<asrwt>0</asrwt>
<pdfrwt beam="2">  1        4 0.13311844E-02 0.12501152E+03</pdfrwt>
<pdfrwt beam="1">  1       -4 0.69466461E-01 0.12501152E+03</pdfrwt>
<totfact> 0.59076548E+03</totfact>
</mgrwt>
</event>
<event>
 5    1  0.3398872E-002  0.1249999E+03  0.7818608E-02  0.1235070E+00
          4   -1    0    0  501    0  0.00000000000E+00  0.00000000000E+00  0.11599209010E+02  0.11668528170E+02  0.12700000000E+01 0. -1.
         -4   -1    0    0    0  501 -0.00000000000E+00 -0.00000000000E+00 -0.33569403242E+03  0.33569643475E+03  0.12700000000E+01 0. -1.
         25    2    1    2    0    0  0.00000000000E+00  0.00000000000E+00 -0.32409482341E+03  0.34736496292E+03  0.12499985161E+03 0.  0.
    9000005    1    3    3    0    0 -0.55368016445E+02  0.25487306128E+02 -0.20035430906E+03  0.20942318205E+03  0.10000000000E+01 0.  0.
    9000005    1    3    3    0    0  0.55368016445E+02 -0.25487306128E+02 -0.12374051435E+03  0.13794178087E+03  0.10000000000E+01 0.  0.
<mgrwt>
<rscale>  0 0.12499985E+03</rscale>
<asrwt>0</asrwt>
<pdfrwt beam="1">  1        4 0.17900110E-02 0.12499985E+03</pdfrwt>
<pdfrwt beam="2">  1       -4 0.51650746E-01 0.12499985E+03</pdfrwt>
<totfact> 0.70015651E+03</totfact>
</mgrwt>
</event>
<event>
 5    1  0.3398872E-002  0.1249846E+03  0.7818608E-02  0.1235093E+00
         -4   -1    0    0    0  501 -0.00000000000E+00  0.00000000000E+00  0.45051547046E+01  0.46807391417E+01  0.12700000000E+01 0. -1.
          4   -1    0    0  501    0  0.00000000000E+00 -0.00000000000E+00 -0.85010277841E+03  0.85010372706E+03  0.12700000000E+01 0. -1.
         25    2    1    2    0    0  0.00000000000E+00  0.00000000000E+00 -0.84559762371E+03  0.85478446620E+03  0.12498456882E+03 0.  0.
    9000005    1    3    3    0    0 -0.41072618069E+02 -0.40650991837E+02 -0.26026031978E+03  0.26660063230E+03  0.10000000000E+01 0.  0.
    9000005    1    3    3    0    0  0.41072618069E+02  0.40650991837E+02 -0.58533730393E+03  0.58818383390E+03  0.10000000000E+01 0.  0.
<mgrwt>
<rscale>  0 0.12498457E+03</rscale>
<asrwt>0</asrwt>
<pdfrwt beam="2">  1        4 0.13079850E+00 0.12498457E+03</pdfrwt>
<pdfrwt beam="1">  1       -4 0.70668087E-03 0.12498457E+03</pdfrwt>
<totfact> 0.35944476E+03</totfact>
</mgrwt>
</event>
<event>
 5    1  0.3398872E-002  0.1249984E+03  0.7818608E-02  0.1235072E+00
         -4   -1    0    0    0  501 -0.00000000000E+00  0.00000000000E+00  0.38770774712E+02  0.38791569596E+02  0.12700000000E+01 0. -1.
          4   -1    0    0  501    0  0.00000000000E+00 -0.00000000000E+00 -0.10069811952E+03  0.10070612779E+03  0.12700000000E+01 0. -1.
         25    2    1    2    0    0  0.00000000000E+00  0.00000000000E+00 -0.61927344811E+02  0.13949769739E+03  0.12499844616E+03 0.  0.
    9000005    1    3    3    0    0 -0.42764607266E+02  0.38061626942E+02 -0.58922728651E+02  0.82160738992E+02  0.10000000000E+01 0.  0.
    9000005    1    3    3    0    0  0.42764607266E+02 -0.38061626942E+02 -0.30046161603E+01  0.57336958399E+02  0.10000000000E+01 0.  0.
<mgrwt>
<rscale>  0 0.12499845E+03</rscale>
<asrwt>0</asrwt>
<pdfrwt beam="2">  1        4 0.15494234E-01 0.12499845E+03</pdfrwt>
<pdfrwt beam="1">  1       -4 0.59669502E-02 0.12499845E+03</pdfrwt>
<totfact> 0.10144362E+04</totfact>
</mgrwt>
</event>
<event>
 5    1  0.3398872E-002  0.1250045E+03  0.7818608E-02  0.1235062E+00
          4   -1    0    0  501    0  0.00000000000E+00  0.00000000000E+00  0.14845449877E+02  0.14899673890E+02  0.12700000000E+01 0. -1.
         -4   -1    0    0    0  501 -0.00000000000E+00 -0.00000000000E+00 -0.26261119416E+03  0.26261426503E+03  0.12700000000E+01 0. -1.
         25    2    1    2    0    0  0.00000000000E+00  0.00000000000E+00 -0.24776574428E+03  0.27751393892E+03  0.12500448894E+03 0.  0.
    9000005    1    3    3    0    0  0.42399830602E+02  0.43256637119E+02 -0.89731287222E+02  0.10826627451E+03  0.10000000000E+01 0.  0.
    9000005    1    3    3    0    0 -0.42399830602E+02 -0.43256637119E+02 -0.15803445706E+03  0.16924766441E+03  0.10000000000E+01 0.  0.
<mgrwt>
<rscale>  0 0.12500449E+03</rscale>
<asrwt>0</asrwt>
<pdfrwt beam="1">  1        4 0.22883229E-02 0.12500449E+03</pdfrwt>
<pdfrwt beam="2">  1       -4 0.40406126E-01 0.12500449E+03</pdfrwt>
<totfact> 0.78501064E+03</totfact>
</mgrwt>
</event>
<event>
 5    1  0.3398872E-002  0.1249996E+03  0.7818608E-02  0.1235070E+00
         -4   -1    0    0    0  501 -0.00000000000E+00  0.00000000000E+00  0.18568359379E+02  0.18611740113E+02  0.12700000000E+01 0. -1.
          4   -1    0    0  501    0  0.00000000000E+00 -0.00000000000E+00 -0.21007922604E+03  0.21008306479E+03  0.12700000000E+01 0. -1.
         25    2    1    2    0    0  0.00000000000E+00  0.00000000000E+00 -0.19151086666E+03  0.22869480490E+03  0.12499960697E+03 0.  0.
    9000005    1    3    3    0    0 -0.56439427319E+02  0.45483479780E+01 -0.47379839032E+02  0.73837291203E+02  0.10000000000E+01 0.  0.
    9000005    1    3    3    0    0  0.56439427319E+02 -0.45483479780E+01 -0.14413102762E+03  0.15485751370E+03  0.10000000000E+01 0.  0.
<mgrwt>
<rscale>  0 0.12499961E+03</rscale>
<asrwt>0</asrwt>
<pdfrwt beam="2">  1        4 0.32323511E-01 0.12499961E+03</pdfrwt>
<pdfrwt beam="1">  1       -4 0.28603031E-02 0.12499961E+03</pdfrwt>
<totfact> 0.85511165E+03</totfact>
</mgrwt>
</event>
<event>
 5    1  0.3398872E-002  0.1249983E+03  0.7818608E-02  0.1235072E+00
         -4   -1    0    0    0  501 -0.00000000000E+00  0.00000000000E+00  0.32653384705E+02  0.32678072658E+02  0.12700000000E+01 0. -1.
          4   -1    0    0  501    0  0.00000000000E+00 -0.00000000000E+00 -0.11955115757E+03  0.11955790303E+03  0.12700000000E+01 0. -1.
         25    2    1    2    0    0  0.00000000000E+00  0.00000000000E+00 -0.86897772870E+02  0.15223597569E+03  0.12499827745E+03 0.  0.
    9000005    1    3    3    0    0  0.57606622430E+02 -0.20720028158E+02 -0.28174021157E+02  0.67398946452E+02  0.10000000000E+01 0.  0.
    9000005    1    3    3    0    0 -0.57606622430E+02  0.20720028158E+02 -0.58723751713E+02  0.84837029238E+02  0.10000000000E+01 0.  0.
<mgrwt>
<rscale>  0 0.12499828E+03</rscale>
<asrwt>0</asrwt>
<pdfrwt beam="2">  1        4 0.18394903E-01 0.12499828E+03</pdfrwt>
<pdfrwt beam="1">  1       -4 0.50260157E-02 0.12499828E+03</pdfrwt>
<totfact> 0.98863675E+03</totfact>
</mgrwt>
</event>
<event>
 5    1  0.3398872E-002  0.1250045E+03  0.7818608E-02  0.1235062E+00
         -4   -1    0    0    0  501 -0.00000000000E+00  0.00000000000E+00  0.35150866413E+03  0.35151095837E+03  0.12700000000E+01 0. -1.
          4   -1    0    0  501    0  0.00000000000E+00 -0.00000000000E+00 -0.11074987763E+02  0.11147567176E+02  0.12700000000E+01 0. -1.
         25    2    1    2    0    0  0.00000000000E+00  0.00000000000E+00  0.34043367636E+03  0.36265852555E+03  0.12500447252E+03 0.  0.
    9000005    1    3    3    0    0  0.61038582260E+02  0.12883274128E+02  0.15942300114E+03  0.17119690584E+03  0.10000000000E+01 0.  0.
    9000005    1    3    3    0    0 -0.61038582260E+02 -0.12883274128E+02  0.18101067522E+03  0.19146161971E+03  0.10000000000E+01 0.  0.
<mgrwt>
<rscale>  0 0.12500447E+03</rscale>
<asrwt>0</asrwt>
<pdfrwt beam="2">  1        4 0.17096040E-02 0.12500447E+03</pdfrwt>
<pdfrwt beam="1">  1       -4 0.54084010E-01 0.12500447E+03</pdfrwt>
<totfact> 0.68347292E+03</totfact>
</mgrwt>
</event>
<event>
 5    1  0.3398872E-002  0.1249969E+03  0.7818608E-02  0.1235074E+00
         -4   -1    0    0    0  501 -0.00000000000E+00  0.00000000000E+00  0.13068965695E+03  0.13069582753E+03  0.12700000000E+01 0.  1.
          4   -1    0    0  501    0  0.00000000000E+00 -0.00000000000E+00 -0.29867660877E+02  0.29894649459E+02  0.12700000000E+01 0.  1.
         25    2    1    2    0    0  0.00000000000E+00  0.00000000000E+00  0.10082199607E+03  0.16059047698E+03  0.12499690559E+03 0.  0.
    9000005    1    3    3    0    0  0.48710014059E+02  0.30748779527E+02  0.19286386037E+02  0.60754568539E+02  0.10000000000E+01 0.  0.
    9000005    1    3    3    0    0 -0.48710014059E+02 -0.30748779527E+02  0.81535610031E+02  0.99835908446E+02  0.10000000000E+01 0.  0.
<mgrwt>
<rscale>  0 0.12499691E+03</rscale>
<asrwt>0</asrwt>
<pdfrwt beam="2">  1        4 0.45975753E-02 0.12499691E+03</pdfrwt>
<pdfrwt beam="1">  1       -4 0.20108652E-01 0.12499691E+03</pdfrwt>
<totfact> 0.97235828E+03</totfact>
</mgrwt>
</event>
<event>
 5    1  0.3398872E-002  0.1249970E+03  0.7818608E-02  0.1235074E+00
          4   -1    0    0  501    0  0.00000000000E+00  0.00000000000E+00  0.69141256333E+02  0.69152919152E+02  0.12700000000E+01 0. -1.
         -4   -1    0    0    0  501 -0.00000000000E+00 -0.00000000000E+00 -0.56470362685E+02  0.56484641822E+02  0.12700000000E+01 0. -1.
         25    2    1    2    0    0  0.00000000000E+00  0.00000000000E+00  0.12670893648E+02  0.12563756097E+03  0.12499698069E+03 0.  0.
    9000005    1    3    3    0    0 -0.46109954169E+02 -0.32329597550E+02 -0.20890831092E+02  0.60072935461E+02  0.10000000000E+01 0.  0.
    9000005    1    3    3    0    0  0.46109954169E+02  0.32329597550E+02  0.33561724741E+02  0.65564625514E+02  0.10000000000E+01 0.  0.
<mgrwt>
<rscale>  0 0.12499698E+03</rscale>
<asrwt>0</asrwt>
<pdfrwt beam="1">  1        4 0.10639112E-01 0.12499698E+03</pdfrwt>
<pdfrwt beam="2">  1       -4 0.86897437E-02 0.12499698E+03</pdfrwt>
<totfact> 0.10439630E+04</totfact>
</mgrwt>
</event>
<event>
 5    1  0.3398872E-002  0.1249830E+03  0.7818608E-02  0.1235096E+00
         -4   -1    0    0    0  501 -0.00000000000E+00  0.00000000000E+00  0.28946812618E+02  0.28974658941E+02  0.12700000000E+01 0.  1.
          4   -1    0    0  501    0  0.00000000000E+00 -0.00000000000E+00 -0.13481346953E+03  0.13481945136E+03  0.12700000000E+01 0.  1.
         25    2    1    2    0    0  0.00000000000E+00  0.00000000000E+00 -0.10586665691E+03  0.16379411030E+03  0.12498304495E+03 0.  0.
    9000005    1    3    3    0    0  0.47501358179E+02  0.32121151633E+02 -0.85460978079E+02  0.10292097058E+03  0.10000000000E+01 0.  0.
    9000005    1    3    3    0    0 -0.47501358179E+02 -0.32121151633E+02 -0.20405678829E+02  0.60873139721E+02  0.10000000000E+01 0.  0.
<mgrwt>
<rscale>  0 0.12498304E+03</rscale>
<asrwt>0</asrwt>
<pdfrwt beam="2">  1        4 0.20743136E-01 0.12498304E+03</pdfrwt>
<pdfrwt beam="1">  1       -4 0.44559580E-02 0.12498304E+03</pdfrwt>
<totfact> 0.96653072E+03</totfact>
</mgrwt>
</event>
<event>
 5    1  0.3398872E-002  0.1250015E+03  0.7818608E-02  0.1235067E+00
          4   -1    0    0  501    0  0.00000000000E+00  0.00000000000E+00  0.65384759061E+02  0.65397091812E+02  0.12700000000E+01 0.  1.
         -4   -1    0    0    0  501 -0.00000000000E+00 -0.00000000000E+00 -0.59719234550E+02  0.59732737048E+02  0.12700000000E+01 0.  1.
         25    2    1    2    0    0  0.00000000000E+00  0.00000000000E+00  0.56655245115E+01  0.12512982886E+03  0.12500150360E+03 0.  0.
    9000005    1    3    3    0    0  0.73222140456E+01  0.35435193944E+02  0.53836773211E+02  0.64874231696E+02  0.10000000000E+01 0.  0.
    9000005    1    3    3    0    0 -0.73222140456E+01 -0.35435193944E+02 -0.48171248699E+02  0.60255597164E+02  0.10000000000E+01 0.  0.
<mgrwt>
<rscale>  0 0.12500150E+03</rscale>
<asrwt>0</asrwt>
<pdfrwt beam="1">  1        4 0.10061181E-01 0.12500150E+03</pdfrwt>
<pdfrwt beam="2">  1       -4 0.91895618E-02 0.12500150E+03</pdfrwt>
<totfact> 0.10449688E+04</totfact>
</mgrwt>
</event>
<event>
 5    1  0.3398872E-002  0.1250101E+03  0.7818608E-02  0.1235053E+00
         -4   -1    0    0    0  501 -0.00000000000E+00  0.00000000000E+00  0.81686744897E+02  0.81696616771E+02  0.12700000000E+01 0.  1.
          4   -1    0    0  501    0  0.00000000000E+00 -0.00000000000E+00 -0.47806421572E+02  0.47823287670E+02  0.12700000000E+01 0.  1.
         25    2    1    2    0    0  0.00000000000E+00  0.00000000000E+00  0.33880323324E+02  0.12951990444E+03  0.12501011694E+03 0.  0.
    9000005    1    3    3    0    0  0.52412128168E+01 -0.34469260783E+02  0.70679246171E+02  0.78817232190E+02  0.10000000000E+01 0.  0.
    9000005    1    3    3    0    0 -0.52412128168E+01  0.34469260783E+02 -0.36798922847E+02  0.50702672251E+02  0.10000000000E+01 0.  0.
<mgrwt>
<rscale>  0 0.12501012E+03</rscale>
<asrwt>0</asrwt>
<pdfrwt beam="2">  1        4 0.73568910E-02 0.12501012E+03</pdfrwt>
<pdfrwt beam="1">  1       -4 0.12569248E-01 0.12501012E+03</pdfrwt>
<totfact> 0.10352424E+04</totfact>
</mgrwt>
</event>
<event>
 5    1  0.3398872E-002  0.1250002E+03  0.7818608E-02  0.1235069E+00
          4   -1    0    0  501    0  0.00000000000E+00  0.00000000000E+00  0.22334625714E+03  0.22334986788E+03  0.12700000000E+01 0. -1.
         -4   -1    0    0    0  501 -0.00000000000E+00 -0.00000000000E+00 -0.17462906773E+02  0.17509026614E+02  0.12700000000E+01 0. -1.
         25    2    1    2    0    0  0.00000000000E+00  0.00000000000E+00  0.20588335037E+03  0.24085889449E+03  0.12500021238E+03 0.  0.
    9000005    1    3    3    0    0 -0.40783528043E+02 -0.34573434952E+02  0.40603859708E+02  0.67143815704E+02  0.10000000000E+01 0.  0.
    9000005    1    3    3    0    0  0.40783528043E+02  0.34573434952E+02  0.16527949066E+03  0.17371507879E+03  0.10000000000E+01 0.  0.
<mgrwt>
<rscale>  0 0.12500021E+03</rscale>
<asrwt>0</asrwt>
<pdfrwt beam="1">  1        4 0.34364786E-01 0.12500021E+03</pdfrwt>
<pdfrwt beam="2">  1       -4 0.26904266E-02 0.12500021E+03</pdfrwt>
<totfact> 0.83669221E+03</totfact>
</mgrwt>
</event>
<event>
 5    1  0.3398872E-002  0.1249999E+03  0.7818608E-02  0.1235069E+00
          4   -1    0    0  501    0  0.00000000000E+00  0.00000000000E+00  0.97705523715E+01  0.98527454877E+01  0.12700000000E+01 0.  1.
         -4   -1    0    0    0  501 -0.00000000000E+00 -0.00000000000E+00 -0.39804009387E+03  0.39804211991E+03  0.12700000000E+01 0.  1.
         25    2    1    2    0    0  0.00000000000E+00  0.00000000000E+00 -0.38826954149E+03  0.40789486540E+03  0.12499993747E+03 0.  0.
    9000005    1    3    3    0    0  0.20132698419E+02 -0.25992436527E+02 -0.36755306729E+03  0.36902193644E+03  0.10000000000E+01 0.  0.
    9000005    1    3    3    0    0 -0.20132698419E+02  0.25992436527E+02 -0.20716474205E+02  0.38872928957E+02  0.10000000000E+01 0.  0.
<mgrwt>
<rscale>  0 0.12499994E+03</rscale>
<asrwt>0</asrwt>
<pdfrwt beam="1">  1        4 0.15096406E-02 0.12499994E+03</pdfrwt>
<pdfrwt beam="2">  1       -4 0.61243403E-01 0.12499994E+03</pdfrwt>
<totfact> 0.63792213E+03</totfact>
</mgrwt>
</event>
<event>
 5    1  0.3398872E-002  0.1249935E+03  0.7818608E-02  0.1235079E+00
         -4   -1    0    0    0  501 -0.00000000000E+00  0.00000000000E+00  0.14289323472E+03  0.14289887833E+03  0.12700000000E+01 0. -1.
          4   -1    0    0  501    0  0.00000000000E+00 -0.00000000000E+00 -0.27313047221E+02  0.27342557461E+02  0.12700000000E+01 0. -1.
         25    2    1    2    0    0  0.00000000000E+00  0.00000000000E+00  0.11558018750E+03  0.17024143580E+03  0.12499346671E+03 0.  0.
    9000005    1    3    3    0    0  0.96010515020E+01  0.40198220440E+02  0.12162668921E+03  0.12846061125E+03  0.10000000000E+01 0.  0.
    9000005    1    3    3    0    0 -0.96010515020E+01 -0.40198220440E+02 -0.60465017054E+01  0.41780824542E+02  0.10000000000E+01 0.  0.
<mgrwt>
<rscale>  0 0.12499347E+03</rscale>
<asrwt>0</asrwt>
<pdfrwt beam="2">  1        4 0.42047114E-02 0.12499347E+03</pdfrwt>
<pdfrwt beam="1">  1       -4 0.21986279E-01 0.12499347E+03</pdfrwt>
<totfact> 0.95417646E+03</totfact>
</mgrwt>
</event>
<event>
 5    1  0.3398872E-002  0.1249970E+03  0.7818608E-02  0.1235074E+00
          4   -1    0    0  501    0  0.00000000000E+00  0.00000000000E+00  0.68421760686E+02  0.68433546126E+02  0.12700000000E+01 0.  1.
         -4   -1    0    0    0  501 -0.00000000000E+00 -0.00000000000E+00 -0.57064256695E+02  0.57078387260E+02  0.12700000000E+01 0.  1.
         25    2    1    2    0    0  0.00000000000E+00  0.00000000000E+00  0.11357503991E+02  0.12551193339E+03  0.12499701006E+03 0.  0.
    9000005    1    3    3    0    0  0.16077653884E+02 -0.48510503278E+02  0.41789424699E+02  0.66023601078E+02  0.10000000000E+01 0.  0.
    9000005    1    3    3    0    0 -0.16077653884E+02  0.48510503278E+02 -0.30431920708E+02  0.59488332307E+02  0.10000000000E+01 0.  0.
<mgrwt>
<rscale>  0 0.12499701E+03</rscale>
<asrwt>0</asrwt>
<pdfrwt beam="1">  1        4 0.10528418E-01 0.12499701E+03</pdfrwt>
<pdfrwt beam="2">  1       -4 0.87811100E-02 0.12499701E+03</pdfrwt>
<totfact> 0.10442395E+04</totfact>
</mgrwt>
</event>
<event>
 5    1  0.3398872E-002  0.1250003E+03  0.7818608E-02  0.1235069E+00
         -4   -1    0    0    0  501 -0.00000000000E+00  0.00000000000E+00  0.25286165213E+02  0.25318038059E+02  0.12700000000E+01 0.  1.
          4   -1    0    0  501    0  0.00000000000E+00 -0.00000000000E+00 -0.15435072775E+03  0.15435595245E+03  0.12700000000E+01 0.  1.
         25    2    1    2    0    0  0.00000000000E+00  0.00000000000E+00 -0.12906456254E+03  0.17967399051E+03  0.12500032625E+03 0.  0.
    9000005    1    3    3    0    0  0.58931460026E+02 -0.19850935094E+02 -0.73427122874E+02  0.96226394396E+02  0.10000000000E+01 0.  0.
    9000005    1    3    3    0    0 -0.58931460026E+02  0.19850935094E+02 -0.55637439663E+02  0.83447596114E+02  0.10000000000E+01 0.  0.
<mgrwt>
<rscale>  0 0.12500033E+03</rscale>
<asrwt>0</asrwt>
<pdfrwt beam="2">  1        4 0.23749119E-01 0.12500033E+03</pdfrwt>
<pdfrwt beam="1">  1       -4 0.38930330E-02 0.12500033E+03</pdfrwt>
<totfact> 0.93675034E+03</totfact>
</mgrwt>
</event>
<event>
 5    1  0.3398872E-002  0.1250003E+03  0.7818608E-02  0.1235069E+00
          4   -1    0    0  501    0  0.00000000000E+00  0.00000000000E+00  0.78252610323E+03  0.78252713380E+03  0.12700000000E+01 0. -1.
         -4   -1    0    0    0  501 -0.00000000000E+00 -0.00000000000E+00 -0.49100416622E+01  0.50716278575E+01  0.12700000000E+01 0. -1.
         25    2    1    2    0    0  0.00000000000E+00  0.00000000000E+00  0.77761606157E+03  0.78759876166E+03  0.12500028064E+03 0.  0.
    9000005    1    3    3    0    0  0.18692861546E+02  0.38305306777E+02  0.10085857586E+03  0.10949964349E+03  0.10000000000E+01 0.  0.
    9000005    1    3    3    0    0 -0.18692861546E+02 -0.38305306777E+02  0.67675748571E+03  0.67809911817E+03  0.10000000000E+01 0.  0.
<mgrwt>
<rscale>  0 0.12500028E+03</rscale>
<asrwt>0</asrwt>
<pdfrwt beam="1">  1        4 0.12040124E+00 0.12500028E+03</pdfrwt>
<pdfrwt beam="2">  1       -4 0.76789938E-03 0.12500028E+03</pdfrwt>
<totfact> 0.38824115E+03</totfact>
</mgrwt>
</event>
<event>
 5    1  0.3398872E-002  0.1249951E+03  0.7818608E-02  0.1235077E+00
          4   -1    0    0  501    0  0.00000000000E+00  0.00000000000E+00  0.13993367003E+02  0.14050879690E+02  0.12700000000E+01 0.  1.
         -4   -1    0    0    0  501 -0.00000000000E+00 -0.00000000000E+00 -0.27849679023E+03  0.27849968594E+03  0.12700000000E+01 0.  1.
         25    2    1    2    0    0  0.00000000000E+00  0.00000000000E+00 -0.26450342323E+03  0.29255056563E+03  0.12499509011E+03 0.  0.
    9000005    1    3    3    0    0  0.17389567620E+02 -0.56283063022E+02 -0.18105332982E+03  0.19039823656E+03  0.10000000000E+01 0.  0.
    9000005    1    3    3    0    0 -0.17389567620E+02  0.56283063022E+02 -0.83450093404E+02  0.10215232907E+03  0.10000000000E+01 0.  0.
<mgrwt>
<rscale>  0 0.12499509E+03</rscale>
<asrwt>0</asrwt>
<pdfrwt beam="1">  1        4 0.21574727E-02 0.12499509E+03</pdfrwt>
<pdfrwt beam="2">  1       -4 0.42850303E-01 0.12499509E+03</pdfrwt>
<totfact> 0.76551234E+03</totfact>
</mgrwt>
</event>
<event>
 5    1  0.3398872E-002  0.1250009E+03  0.7818608E-02  0.1235068E+00
          4   -1    0    0  501    0  0.00000000000E+00  0.00000000000E+00  0.28691281471E+02  0.28719375558E+02  0.12700000000E+01 0.  1.
         -4   -1    0    0    0  501 -0.00000000000E+00 -0.00000000000E+00 -0.13605197383E+03  0.13605790122E+03  0.12700000000E+01 0.  1.
         25    2    1    2    0    0  0.00000000000E+00  0.00000000000E+00 -0.10736069236E+03  0.16477727678E+03  0.12500093071E+03 0.  0.
    9000005    1    3    3    0    0  0.33416085711E+01  0.56561979573E+02 -0.18931505444E+02  0.59748019042E+02  0.10000000000E+01 0.  0.
    9000005    1    3    3    0    0 -0.33416085711E+01 -0.56561979573E+02 -0.88429186919E+02  0.10502925773E+03  0.10000000000E+01 0.  0.
<mgrwt>
<rscale>  0 0.12500093E+03</rscale>
<asrwt>0</asrwt>
<pdfrwt beam="1">  1        4 0.44166604E-02 0.12500093E+03</pdfrwt>
<pdfrwt beam="2">  1       -4 0.20933689E-01 0.12500093E+03</pdfrwt>
<totfact> 0.96427573E+03</totfact>
</mgrwt>
</event>
<event>
 5    1  0.3398872E-002  0.1250040E+03  0.7818608E-02  0.1235063E+00
          4   -1    0    0  501    0  0.00000000000E+00  0.00000000000E+00  0.49908789612E+03  0.49908951197E+03  0.12700000000E+01 0. -1.
         -4   -1    0    0    0  501 -0.00000000000E+00 -0.00000000000E+00 -0.77741216053E+01  0.78771737783E+01  0.12700000000E+01 0. -1.
         25    2    1    2    0    0  0.00000000000E+00  0.00000000000E+00  0.49131377452E+03  0.50696668575E+03  0.12500398164E+03 0.  0.
    9000005    1    3    3    0    0  0.72520276551E+01  0.46579457092E+02  0.41204845829E+03  0.41473747082E+03  0.10000000000E+01 0.  0.
    9000005    1    3    3    0    0 -0.72520276551E+01 -0.46579457092E+02  0.79265316228E+02  0.92229214921E+02  0.10000000000E+01 0.  0.
<mgrwt>
<rscale>  0 0.12500398E+03</rscale>
<asrwt>0</asrwt>
<pdfrwt beam="1">  1        4 0.76790813E-01 0.12500398E+03</pdfrwt>
<pdfrwt beam="2">  1       -4 0.12040700E-02 0.12500398E+03</pdfrwt>
<totfact> 0.55323012E+03</totfact>
</mgrwt>
</event>
<event>
 5    1  0.3398872E-002  0.1250021E+03  0.7818608E-02  0.1235066E+00
          4   -1    0    0  501    0  0.00000000000E+00  0.00000000000E+00  0.61342811880E+03  0.61342943346E+03  0.12700000000E+01 0.  1.
         -4   -1    0    0    0  501 -0.00000000000E+00 -0.00000000000E+00 -0.63034660029E+01  0.64301309201E+01  0.12700000000E+01 0.  1.
         25    2    1    2    0    0  0.00000000000E+00  0.00000000000E+00  0.60712465280E+03  0.61985956438E+03  0.12500214206E+03 0.  0.
    9000005    1    3    3    0    0  0.43122444854E+02  0.41824551555E+02  0.21816947160E+03  0.22629130938E+03  0.10000000000E+01 0.  0.
    9000005    1    3    3    0    0 -0.43122444854E+02 -0.41824551555E+02  0.38895518120E+03  0.39356825500E+03  0.10000000000E+01 0.  0.
<mgrwt>
<rscale>  0 0.12500214E+03</rscale>
<asrwt>0</asrwt>
<pdfrwt beam="1">  1        4 0.94383377E-01 0.12500214E+03</pdfrwt>
<pdfrwt beam="2">  1       -4 0.97960883E-03 0.12500214E+03</pdfrwt>
<totfact> 0.47635315E+03</totfact>
</mgrwt>
</event>
<event>
 5    1  0.3398872E-002  0.1250037E+03  0.7818608E-02  0.1235064E+00
          4   -1    0    0  501    0  0.00000000000E+00  0.00000000000E+00  0.20647148434E+03  0.20647539017E+03  0.12700000000E+01 0.  1.
         -4   -1    0    0    0  501 -0.00000000000E+00 -0.00000000000E+00 -0.18894793485E+02  0.18937426458E+02  0.12700000000E+01 0.  1.
         25    2    1    2    0    0  0.00000000000E+00  0.00000000000E+00  0.18757669085E+03  0.22541281662E+03  0.12500369174E+03 0.  0.
    9000005    1    3    3    0    0  0.30625334782E+02  0.54363391747E+02  0.87492127071E+02  0.10746702653E+03  0.10000000000E+01 0.  0.
    9000005    1    3    3    0    0 -0.30625334782E+02 -0.54363391747E+02  0.10008456378E+03  0.11794579009E+03  0.10000000000E+01 0.  0.
<mgrwt>
<rscale>  0 0.12500369E+03</rscale>
<asrwt>0</asrwt>
<pdfrwt beam="1">  1        4 0.31768422E-01 0.12500369E+03</pdfrwt>
<pdfrwt beam="2">  1       -4 0.29104714E-02 0.12500369E+03</pdfrwt>
<totfact> 0.86011890E+03</totfact>
</mgrwt>
</event>
<event>
 5    1  0.3398872E-002  0.1249484E+03  0.7818608E-02  0.1235150E+00
         -4   -1    0    0    0  501 -0.00000000000E+00  0.00000000000E+00  0.43315560091E+01  0.45138982554E+01  0.12700000000E+01 0. -1.
          4   -1    0    0  501    0  0.00000000000E+00 -0.00000000000E+00 -0.88231065323E+03  0.88231156725E+03  0.12700000000E+01 0. -1.
         25    2    1    2    0    0  0.00000000000E+00  0.00000000000E+00 -0.87797909722E+03  0.88682546550E+03  0.12494843381E+03 0.  0.
    9000005    1    3    3    0    0 -0.33490541756E+02  0.94193615700E+00 -0.64799214836E+02  0.72955067502E+02  0.10000000000E+01 0.  0.
    9000005    1    3    3    0    0  0.33490541756E+02 -0.94193615700E+00 -0.81317988238E+03  0.81387039800E+03  0.10000000000E+01 0.  0.
<mgrwt>
<rscale>  0 0.12494843E+03</rscale>
<asrwt>0</asrwt>
<pdfrwt beam="2">  1        4 0.13575406E+00 0.12494843E+03</pdfrwt>
<pdfrwt beam="1">  1       -4 0.68049057E-03 0.12494843E+03</pdfrwt>
<totfact> 0.34704975E+03</totfact>
</mgrwt>
</event>
<event>
 5    1  0.3398872E-002  0.1250009E+03  0.7818608E-02  0.1235068E+00
          4   -1    0    0  501    0  0.00000000000E+00  0.00000000000E+00  0.24813896420E+02  0.24846375099E+02  0.12700000000E+01 0.  1.
         -4   -1    0    0    0  501 -0.00000000000E+00 -0.00000000000E+00 -0.15728618272E+03  0.15729130991E+03  0.12700000000E+01 0.  1.
         25    2    1    2    0    0  0.00000000000E+00  0.00000000000E+00 -0.13247228630E+03  0.18213768501E+03  0.12500091866E+03 0.  0.
    9000005    1    3    3    0    0 -0.12500065454E+02  0.54312958924E+02 -0.10742720688E+03  0.12102790555E+03  0.10000000000E+01 0.  0.
    9000005    1    3    3    0    0  0.12500065454E+02 -0.54312958924E+02 -0.25045079423E+02  0.61109779469E+02  0.10000000000E+01 0.  0.
<mgrwt>
<rscale>  0 0.12500092E+03</rscale>
<asrwt>0</asrwt>
<pdfrwt beam="1">  1        4 0.38204154E-02 0.12500092E+03</pdfrwt>
<pdfrwt beam="2">  1       -4 0.24200766E-01 0.12500092E+03</pdfrwt>
<totfact> 0.93231702E+03</totfact>
</mgrwt>
</event>
<event>
 5    1  0.3398872E-002  0.1250032E+03  0.7818608E-02  0.1235064E+00
         -4   -1    0    0    0  501 -0.00000000000E+00  0.00000000000E+00  0.51233822393E+03  0.51233979799E+03  0.12700000000E+01 0. -1.
          4   -1    0    0  501    0  0.00000000000E+00 -0.00000000000E+00 -0.75702718550E+01  0.76760612269E+01  0.12700000000E+01 0. -1.
         25    2    1    2    0    0  0.00000000000E+00  0.00000000000E+00  0.50476795208E+03  0.52001585921E+03  0.12500323352E+03 0.  0.
    9000005    1    3    3    0    0 -0.25064885426E+02 -0.35816106072E+02  0.66602426582E+02  0.79673867499E+02  0.10000000000E+01 0.  0.
    9000005    1    3    3    0    0  0.25064885426E+02  0.35816106072E+02  0.43816552549E+03  0.44034199171E+03  0.10000000000E+01 0.  0.
<mgrwt>
<rscale>  0 0.12500323E+03</rscale>
<asrwt>0</asrwt>
<pdfrwt beam="2">  1        4 0.11729159E-02 0.12500323E+03</pdfrwt>
<pdfrwt beam="1">  1       -4 0.78829529E-01 0.12500323E+03</pdfrwt>
<totfact> 0.54340286E+03</totfact>
</mgrwt>
</event>
<event>
 5    1  0.3398872E-002  0.1249940E+03  0.7818608E-02  0.1235079E+00
         -4   -1    0    0    0  501 -0.00000000000E+00  0.00000000000E+00  0.37664031577E+02  0.37685437169E+02  0.12700000000E+01 0.  1.
          4   -1    0    0  501    0  0.00000000000E+00 -0.00000000000E+00 -0.10364837068E+03  0.10365615102E+03  0.12700000000E+01 0.  1.
         25    2    1    2    0    0  0.00000000000E+00  0.00000000000E+00 -0.65984339102E+02  0.14134158819E+03  0.12499404604E+03 0.  0.
    9000005    1    3    3    0    0 -0.20496155430E+02  0.57970017002E+02 -0.20386935703E+02  0.64786128191E+02  0.10000000000E+01 0.  0.
    9000005    1    3    3    0    0  0.20496155430E+02 -0.57970017002E+02 -0.45597403399E+02  0.76555459998E+02  0.10000000000E+01 0.  0.
<mgrwt>
<rscale>  0 0.12499405E+03</rscale>
<asrwt>0</asrwt>
<pdfrwt beam="2">  1        4 0.15948148E-01 0.12499405E+03</pdfrwt>
<pdfrwt beam="1">  1       -4 0.57967115E-02 0.12499405E+03</pdfrwt>
<totfact> 0.10107212E+04</totfact>
</mgrwt>
</event>
<event>
 5    1  0.3398872E-002  0.1249965E+03  0.7818608E-02  0.1235075E+00
          4   -1    0    0  501    0  0.00000000000E+00  0.00000000000E+00  0.29567828630E+02  0.29595090638E+02  0.12700000000E+01 0.  1.
         -4   -1    0    0    0  501 -0.00000000000E+00 -0.00000000000E+00 -0.13201283847E+03  0.13201894721E+03  0.12700000000E+01 0.  1.
         25    2    1    2    0    0  0.00000000000E+00  0.00000000000E+00 -0.10244500984E+03  0.16161403785E+03  0.12499646870E+03 0.  0.
    9000005    1    3    3    0    0 -0.48088038860E+01  0.50233411736E+02 -0.35670516443E+01  0.50598854798E+02  0.10000000000E+01 0.  0.
    9000005    1    3    3    0    0  0.48088038860E+01 -0.50233411736E+02 -0.98877958200E+02  0.11101518305E+03  0.10000000000E+01 0.  0.
<mgrwt>
<rscale>  0 0.12499647E+03</rscale>
<asrwt>0</asrwt>
<pdfrwt beam="1">  1        4 0.45514638E-02 0.12499647E+03</pdfrwt>
<pdfrwt beam="2">  1       -4 0.20312234E-01 0.12499647E+03</pdfrwt>
<totfact> 0.97040212E+03</totfact>
</mgrwt>
</event>
<event>
 5    1  0.3398872E-002  0.1249806E+03  0.7818608E-02  0.1235100E+00
          4   -1    0    0  501    0  0.00000000000E+00  0.00000000000E+00  0.14330789057E+02  0.14386952943E+02  0.12700000000E+01 0.  1.
         -4   -1    0    0    0  501 -0.00000000000E+00 -0.00000000000E+00 -0.27190218828E+03  0.27190515422E+03  0.12700000000E+01 0.  1.
         25    2    1    2    0    0  0.00000000000E+00  0.00000000000E+00 -0.25757139922E+03  0.28629210716E+03  0.12498057819E+03 0.  0.
    9000005    1    3    3    0    0 -0.51676090831E+02  0.18513964650E+02 -0.60415101872E+02  0.81634366445E+02  0.10000000000E+01 0.  0.
    9000005    1    3    3    0    0  0.51676090831E+02 -0.18513964650E+02 -0.19715629735E+03  0.20465774072E+03  0.10000000000E+01 0.  0.
<mgrwt>
<rscale>  0 0.12498058E+03</rscale>
<asrwt>0</asrwt>
<pdfrwt beam="1">  1        4 0.22092854E-02 0.12498058E+03</pdfrwt>
<pdfrwt beam="2">  1       -4 0.41835651E-01 0.12498058E+03</pdfrwt>
<totfact> 0.77384537E+03</totfact>
</mgrwt>
</event>
<event>
 5    1  0.3398872E-002  0.1249978E+03  0.7818608E-02  0.1235073E+00
          4   -1    0    0  501    0  0.00000000000E+00  0.00000000000E+00  0.18872009352E+03  0.18872436673E+03  0.12700000000E+01 0. -1.
         -4   -1    0    0    0  501 -0.00000000000E+00 -0.00000000000E+00 -0.20673918347E+02  0.20712889703E+02  0.12700000000E+01 0. -1.
         25    2    1    2    0    0  0.00000000000E+00  0.00000000000E+00  0.16804617517E+03  0.20943725644E+03  0.12499778955E+03 0.  0.
    9000005    1    3    3    0    0  0.32729175084E+02 -0.46759573734E+02  0.41389049162E+02  0.70510354048E+02  0.10000000000E+01 0.  0.
    9000005    1    3    3    0    0 -0.32729175084E+02  0.46759573734E+02  0.12665712601E+03  0.13892690239E+03  0.10000000000E+01 0.  0.
<mgrwt>
<rscale>  0 0.12499779E+03</rscale>
<asrwt>0</asrwt>
<pdfrwt beam="1">  1        4 0.29037186E-01 0.12499779E+03</pdfrwt>
<pdfrwt beam="2">  1       -4 0.31839295E-02 0.12499779E+03</pdfrwt>
<totfact> 0.88572245E+03</totfact>
</mgrwt>
</event>
<event>
 5    1  0.3398872E-002  0.1250007E+03  0.7818608E-02  0.1235068E+00
         -4   -1    0    0    0  501 -0.00000000000E+00  0.00000000000E+00  0.57234354185E+01  0.58626455624E+01  0.12700000000E+01 0.  1.
          4   -1    0    0  501    0  0.00000000000E+00 -0.00000000000E+00 -0.67416782647E+03  0.67416902269E+03  0.12700000000E+01 0.  1.
         25    2    1    2    0    0  0.00000000000E+00  0.00000000000E+00 -0.66844439106E+03  0.68003166825E+03  0.12500066356E+03 0.  0.
    9000005    1    3    3    0    0 -0.15467480643E+02 -0.53872943164E+00 -0.66360333812E+03  0.66378454603E+03  0.10000000000E+01 0.  0.
    9000005    1    3    3    0    0  0.15467480643E+02  0.53872943164E+00 -0.48410529346E+01  0.16247122218E+02  0.10000000000E+01 0.  0.
<mgrwt>
<rscale>  0 0.12500066E+03</rscale>
<asrwt>0</asrwt>
<pdfrwt beam="2">  1        4 0.10372887E+00 0.12500066E+03</pdfrwt>
<pdfrwt beam="1">  1       -4 0.89132955E-03 0.12500066E+03</pdfrwt>
<totfact> 0.44161350E+03</totfact>
</mgrwt>
</event>
<event>
 5    1  0.3398872E-002  0.1249995E+03  0.7818608E-02  0.1235070E+00
         -4   -1    0    0    0  501 -0.00000000000E+00  0.00000000000E+00  0.13652271401E+02  0.13711214913E+02  0.12700000000E+01 0.  1.
          4   -1    0    0  501    0  0.00000000000E+00 -0.00000000000E+00 -0.28544565753E+03  0.28544848275E+03  0.12700000000E+01 0.  1.
         25    2    1    2    0    0  0.00000000000E+00  0.00000000000E+00 -0.27179338613E+03  0.29915969766E+03  0.12499951984E+03 0.  0.
    9000005    1    3    3    0    0  0.40089281230E+01 -0.25970626130E+02 -0.20186921285E+00  0.26298016607E+02  0.10000000000E+01 0.  0.
    9000005    1    3    3    0    0 -0.40089281230E+01  0.25970626130E+02 -0.27159151692E+03  0.27286168105E+03  0.10000000000E+01 0.  0.
<mgrwt>
<rscale>  0 0.12499952E+03</rscale>
<asrwt>0</asrwt>
<pdfrwt beam="2">  1        4 0.43919464E-01 0.12499952E+03</pdfrwt>
<pdfrwt beam="1">  1       -4 0.21051011E-02 0.12499952E+03</pdfrwt>
<totfact> 0.75705175E+03</totfact>
</mgrwt>
</event>
<event>
 5    1  0.3398872E-002  0.1249999E+03  0.7818608E-02  0.1235069E+00
          4   -1    0    0  501    0  0.00000000000E+00  0.00000000000E+00  0.47222067284E+02  0.47239142018E+02  0.12700000000E+01 0. -1.
         -4   -1    0    0    0  501 -0.00000000000E+00 -0.00000000000E+00 -0.82683859723E+02  0.82693612562E+02  0.12700000000E+01 0. -1.
         25    2    1    2    0    0  0.00000000000E+00  0.00000000000E+00 -0.35461792438E+02  0.12993275458E+03  0.12499992796E+03 0.  0.
    9000005    1    3    3    0    0  0.54743702728E+02  0.14279001496E+02  0.98586162500E+01  0.57436531811E+02  0.10000000000E+01 0.  0.
    9000005    1    3    3    0    0 -0.54743702728E+02 -0.14279001496E+02 -0.45320408688E+02  0.72496222769E+02  0.10000000000E+01 0.  0.
<mgrwt>
<rscale>  0 0.12499993E+03</rscale>
<asrwt>0</asrwt>
<pdfrwt beam="1">  1        4 0.72669971E-02 0.12499993E+03</pdfrwt>
<pdfrwt beam="2">  1       -4 0.12722657E-01 0.12499993E+03</pdfrwt>
<totfact> 0.10345963E+04</totfact>
</mgrwt>
</event>
<event>
 5    1  0.3398872E-002  0.1250093E+03  0.7818608E-02  0.1235055E+00
          4   -1    0    0  501    0  0.00000000000E+00  0.00000000000E+00  0.74636264827E+03  0.74636372877E+03  0.12700000000E+01 0.  1.
         -4   -1    0    0    0  501 -0.00000000000E+00 -0.00000000000E+00 -0.51563637828E+01  0.53104601929E+01  0.12700000000E+01 0.  1.
         25    2    1    2    0    0  0.00000000000E+00  0.00000000000E+00  0.74120628448E+03  0.75167418897E+03  0.12500932045E+03 0.  0.
    9000005    1    3    3    0    0  0.39732323501E+02  0.18045296544E+02  0.10159239626E+03  0.11057262426E+03  0.10000000000E+01 0.  0.
    9000005    1    3    3    0    0 -0.39732323501E+02 -0.18045296544E+02  0.63961388822E+03  0.64110156470E+03  0.10000000000E+01 0.  0.
<mgrwt>
<rscale>  0 0.12500932E+03</rscale>
<asrwt>0</asrwt>
<pdfrwt beam="1">  1        4 0.11483690E+00 0.12500932E+03</pdfrwt>
<pdfrwt beam="2">  1       -4 0.80522383E-03 0.12500932E+03</pdfrwt>
<totfact> 0.40485953E+03</totfact>
</mgrwt>
</event>
<event>
 5    1  0.3398872E-002  0.1249904E+03  0.7818608E-02  0.1235084E+00
         -4   -1    0    0    0  501 -0.00000000000E+00  0.00000000000E+00  0.40564820939E+03  0.40565019743E+03  0.12700000000E+01 0. -1.
          4   -1    0    0  501    0  0.00000000000E+00 -0.00000000000E+00 -0.95842723803E+01  0.96680492893E+01  0.12700000000E+01 0. -1.
         25    2    1    2    0    0  0.00000000000E+00  0.00000000000E+00  0.39606393701E+03  0.41531824672E+03  0.12499041509E+03 0.  0.
    9000005    1    3    3    0    0  0.47044713720E+02  0.21674891057E+02  0.31417062775E+03  0.31841355080E+03  0.10000000000E+01 0.  0.
    9000005    1    3    3    0    0 -0.47044713720E+02 -0.21674891057E+02  0.81893309257E+02  0.96904695926E+02  0.10000000000E+01 0.  0.
<mgrwt>
<rscale>  0 0.12499042E+03</rscale>
<asrwt>0</asrwt>
<pdfrwt beam="2">  1        4 0.14811011E-02 0.12499042E+03</pdfrwt>
<pdfrwt beam="1">  1       -4 0.62413998E-01 0.12499042E+03</pdfrwt>
<totfact> 0.63103082E+03</totfact>
</mgrwt>
</event>
<event>
 5    1  0.3398872E-002  0.1250001E+03  0.7818608E-02  0.1235069E+00
         -4   -1    0    0    0  501 -0.00000000000E+00  0.00000000000E+00  0.79187034737E+03  0.79187136578E+03  0.12700000000E+01 0.  1.
          4   -1    0    0  501    0  0.00000000000E+00 -0.00000000000E+00 -0.48501668636E+01  0.50136831377E+01  0.12700000000E+01 0.  1.
         25    2    1    2    0    0  0.00000000000E+00  0.00000000000E+00  0.78702018051E+03  0.79688504892E+03  0.12500006666E+03 0.  0.
    9000005    1    3    3    0    0  0.61671072421E+02 -0.64975708209E+01  0.44277362561E+03  0.44709621239E+03  0.10000000000E+01 0.  0.
    9000005    1    3    3    0    0 -0.61671072421E+02  0.64975708209E+01  0.34424655490E+03  0.34978883653E+03  0.10000000000E+01 0.  0.
<mgrwt>
<rscale>  0 0.12500007E+03</rscale>
<asrwt>0</asrwt>
<pdfrwt beam="2">  1        4 0.75883619E-03 0.12500007E+03</pdfrwt>
<pdfrwt beam="1">  1       -4 0.12183884E+00 0.12500007E+03</pdfrwt>
<totfact> 0.38404114E+03</totfact>
</mgrwt>
</event>
<event>
 5    1  0.3398872E-002  0.1249990E+03  0.7818608E-02  0.1235071E+00
          4   -1    0    0  501    0  0.00000000000E+00  0.00000000000E+00  0.12730768822E+02  0.12793958528E+02  0.12700000000E+01 0. -1.
         -4   -1    0    0    0  501 -0.00000000000E+00 -0.00000000000E+00 -0.30600617785E+03  0.30600881325E+03  0.12700000000E+01 0. -1.
         25    2    1    2    0    0  0.00000000000E+00  0.00000000000E+00 -0.29327540903E+03  0.31880277177E+03  0.12499896699E+03 0.  0.
    9000005    1    3    3    0    0 -0.31927938306E+02 -0.53080139183E+02 -0.12556125491E+03  0.14001258213E+03  0.10000000000E+01 0.  0.
    9000005    1    3    3    0    0  0.31927938306E+02  0.53080139183E+02 -0.16771415412E+03  0.17879018965E+03  0.10000000000E+01 0.  0.
<mgrwt>
<rscale>  0 0.12499897E+03</rscale>
<asrwt>0</asrwt>
<pdfrwt beam="1">  1        4 0.19636435E-02 0.12499897E+03</pdfrwt>
<pdfrwt beam="2">  1       -4 0.47082931E-01 0.12499897E+03</pdfrwt>
<totfact> 0.73300427E+03</totfact>
</mgrwt>
</event>
<event>
 5    1  0.3398872E-002  0.1249848E+03  0.7818608E-02  0.1235093E+00
          4   -1    0    0  501    0  0.00000000000E+00  0.00000000000E+00  0.13105251945E+03  0.13105867294E+03  0.12700000000E+01 0. -1.
         -4   -1    0    0    0  501 -0.00000000000E+00 -0.00000000000E+00 -0.29779103276E+02  0.29806172044E+02  0.12700000000E+01 0. -1.
         25    2    1    2    0    0  0.00000000000E+00  0.00000000000E+00  0.10127341617E+03  0.16086484499E+03  0.12498477319E+03 0.  0.
    9000005    1    3    3    0    0  0.16419487807E+02 -0.17842453049E+01  0.12819852531E+03  0.12926192403E+03  0.10000000000E+01 0.  0.
    9000005    1    3    3    0    0 -0.16419487807E+02  0.17842453049E+01 -0.26925109139E+02  0.31602920961E+02  0.10000000000E+01 0.  0.
<mgrwt>
<rscale>  0 0.12498477E+03</rscale>
<asrwt>0</asrwt>
<pdfrwt beam="1">  1        4 0.20164482E-01 0.12498477E+03</pdfrwt>
<pdfrwt beam="2">  1       -4 0.45839561E-02 0.12498477E+03</pdfrwt>
<totfact> 0.97209572E+03</totfact>
</mgrwt>
</event>
<event>
 5    1  0.3398872E-002  0.1250028E+03  0.7818608E-02  0.1235065E+00
         -4   -1    0    0    0  501 -0.00000000000E+00  0.00000000000E+00  0.40150792233E+02  0.40170872743E+02  0.12700000000E+01 0.  1.
          4   -1    0    0  501    0  0.00000000000E+00 -0.00000000000E+00 -0.97245310848E+02  0.97253603439E+02  0.12700000000E+01 0.  1.
         25    2    1    2    0    0  0.00000000000E+00  0.00000000000E+00 -0.57094518614E+02  0.13742447618E+03  0.12500281036E+03 0.  0.
    9000005    1    3    3    0    0  0.63331855032E+01  0.61910379546E+02 -0.34807047354E+02  0.71312936272E+02  0.10000000000E+01 0.  0.
    9000005    1    3    3    0    0 -0.63331855032E+01 -0.61910379546E+02 -0.22287471260E+02  0.66111539911E+02  0.10000000000E+01 0.  0.
<mgrwt>
<rscale>  0 0.12500281E+03</rscale>
<asrwt>0</asrwt>
<pdfrwt beam="2">  1        4 0.14963000E-01 0.12500281E+03</pdfrwt>
<pdfrwt beam="1">  1       -4 0.61792275E-02 0.12500281E+03</pdfrwt>
<totfact> 0.10186572E+04</totfact>
</mgrwt>
</event>
<event>
 5    1  0.3398872E-002  0.1250137E+03  0.7818608E-02  0.1235048E+00
          4   -1    0    0  501    0  0.00000000000E+00  0.00000000000E+00  0.51047895864E+02  0.51063691329E+02  0.12700000000E+01 0. -1.
         -4   -1    0    0    0  501 -0.00000000000E+00 -0.00000000000E+00 -0.76505091292E+02  0.76515631695E+02  0.12700000000E+01 0. -1.
         25    2    1    2    0    0  0.00000000000E+00  0.00000000000E+00 -0.25457195428E+02  0.12757932302E+03  0.12501365871E+03 0.  0.
    9000005    1    3    3    0    0 -0.36372255467E+02 -0.38626605332E+02  0.20981862366E+02  0.57063071733E+02  0.10000000000E+01 0.  0.
    9000005    1    3    3    0    0  0.36372255467E+02  0.38626605332E+02 -0.46439057794E+02  0.70516251290E+02  0.10000000000E+01 0.  0.
<mgrwt>
<rscale>  0 0.12501366E+03</rscale>
<asrwt>0</asrwt>
<pdfrwt beam="1">  1        4 0.78555483E-02 0.12501366E+03</pdfrwt>
<pdfrwt beam="2">  1       -4 0.11772040E-01 0.12501366E+03</pdfrwt>
<totfact> 0.10393378E+04</totfact>
</mgrwt>
</event>
<event>
 5    1  0.3398872E-002  0.1250036E+03  0.7818608E-02  0.1235064E+00
          4   -1    0    0  501    0  0.00000000000E+00  0.00000000000E+00  0.12049920540E+03  0.12050589779E+03  0.12700000000E+01 0. -1.
         -4   -1    0    0    0  501 -0.00000000000E+00 -0.00000000000E+00 -0.32399043261E+02  0.32423924874E+02  0.12700000000E+01 0. -1.
         25    2    1    2    0    0  0.00000000000E+00  0.00000000000E+00  0.88100162137E+02  0.15292982266E+03  0.12500356831E+03 0.  0.
    9000005    1    3    3    0    0 -0.14148884361E+02 -0.23137933473E+02 -0.24830023425E+02  0.36784303138E+02  0.10000000000E+01 0.  0.
    9000005    1    3    3    0    0  0.14148884361E+02  0.23137933473E+02  0.11293018556E+03  0.11614551952E+03  0.10000000000E+01 0.  0.
<mgrwt>
<rscale>  0 0.12500357E+03</rscale>
<asrwt>0</asrwt>
<pdfrwt beam="1">  1        4 0.18540768E-01 0.12500357E+03</pdfrwt>
<pdfrwt beam="2">  1       -4 0.49868970E-02 0.12500357E+03</pdfrwt>
<totfact> 0.98714931E+03</totfact>
</mgrwt>
</event>
<event>
 5    1  0.3398872E-002  0.1250010E+03  0.7818608E-02  0.1235068E+00
         -4   -1    0    0    0  501 -0.00000000000E+00  0.00000000000E+00  0.34047144092E+02  0.34070822133E+02  0.12700000000E+01 0.  1.
          4   -1    0    0  501    0  0.00000000000E+00 -0.00000000000E+00 -0.11466543812E+03  0.11467247098E+03  0.12700000000E+01 0.  1.
         25    2    1    2    0    0  0.00000000000E+00  0.00000000000E+00 -0.80618294032E+02  0.14874329311E+03  0.12500103165E+03 0.  0.
    9000005    1    3    3    0    0 -0.61323299460E+02 -0.53962233974E+01 -0.27512587416E+02  0.67435960362E+02  0.10000000000E+01 0.  0.
    9000005    1    3    3    0    0  0.61323299460E+02  0.53962233974E+01 -0.53105706617E+02  0.81307332750E+02  0.10000000000E+01 0.  0.
<mgrwt>
<rscale>  0 0.12500103E+03</rscale>
<asrwt>0</asrwt>
<pdfrwt beam="2">  1        4 0.17643199E-01 0.12500103E+03</pdfrwt>
<pdfrwt beam="1">  1       -4 0.52403846E-02 0.12500103E+03</pdfrwt>
<totfact> 0.99552484E+03</totfact>
</mgrwt>
</event>
<event>
 5    1  0.3398872E-002  0.1250027E+03  0.7818608E-02  0.1235065E+00
         -4   -1    0    0    0  501 -0.00000000000E+00  0.00000000000E+00  0.17828359828E+02  0.17873536700E+02  0.12700000000E+01 0.  1.
          4   -1    0    0  501    0  0.00000000000E+00 -0.00000000000E+00 -0.21878832185E+03  0.21879200780E+03  0.12700000000E+01 0.  1.
         25    2    1    2    0    0  0.00000000000E+00  0.00000000000E+00 -0.20095996203E+03  0.23666554450E+03  0.12500269445E+03 0.  0.
    9000005    1    3    3    0    0  0.21572495453E+02 -0.44359362658E+02 -0.17312615607E+03  0.18001886438E+03  0.10000000000E+01 0.  0.
    9000005    1    3    3    0    0 -0.21572495453E+02  0.44359362658E+02 -0.27833805952E+02  0.56646680126E+02  0.10000000000E+01 0.  0.
<mgrwt>
<rscale>  0 0.12500269E+03</rscale>
<asrwt>0</asrwt>
<pdfrwt beam="2">  1        4 0.33663498E-01 0.12500269E+03</pdfrwt>
<pdfrwt beam="1">  1       -4 0.27465834E-02 0.12500269E+03</pdfrwt>
<totfact> 0.84291431E+03</totfact>
</mgrwt>
</event>
<event>
 5    1  0.3398872E-002  0.1249886E+03  0.7818608E-02  0.1235087E+00
         -4   -1    0    0    0  501 -0.00000000000E+00  0.00000000000E+00  0.10563903128E+03  0.10564666502E+03  0.12700000000E+01 0.  1.
          4   -1    0    0  501    0  0.00000000000E+00 -0.00000000000E+00 -0.36950713369E+02  0.36972531945E+02  0.12700000000E+01 0.  1.
         25    2    1    2    0    0  0.00000000000E+00  0.00000000000E+00  0.68688317916E+02  0.14261919697E+03  0.12498860079E+03 0.  0.
    9000005    1    3    3    0    0 -0.47429511898E+02 -0.13492585801E+02  0.78136534397E+02  0.92400900851E+02  0.10000000000E+01 0.  0.
    9000005    1    3    3    0    0  0.47429511898E+02  0.13492585801E+02 -0.94482164810E+01  0.50218296119E+02  0.10000000000E+01 0.  0.
<mgrwt>
<rscale>  0 0.12498860E+03</rscale>
<asrwt>0</asrwt>
<pdfrwt beam="2">  1        4 0.56869906E-02 0.12498860E+03</pdfrwt>
<pdfrwt beam="1">  1       -4 0.16254425E-01 0.12498860E+03</pdfrwt>
<totfact> 0.10082175E+04</totfact>
</mgrwt>
</event>
<event>
 5    1  0.3398872E-002  0.1249975E+03  0.7818608E-02  0.1235073E+00
         -4   -1    0    0    0  501 -0.00000000000E+00  0.00000000000E+00  0.21869767849E+02  0.21906611919E+02  0.12700000000E+01 0.  1.
          4   -1    0    0  501    0  0.00000000000E+00 -0.00000000000E+00 -0.17841767191E+03  0.17842219187E+03  0.12700000000E+01 0.  1.
         25    2    1    2    0    0  0.00000000000E+00  0.00000000000E+00 -0.15654790406E+03  0.20032880379E+03  0.12499753341E+03 0.  0.
    9000005    1    3    3    0    0 -0.55527807530E+02  0.24484657761E+02 -0.10216705615E+03  0.11883578264E+03  0.10000000000E+01 0.  0.
    9000005    1    3    3    0    0  0.55527807530E+02 -0.24484657761E+02 -0.54380847915E+02  0.81493021142E+02  0.10000000000E+01 0.  0.
<mgrwt>
<rscale>  0 0.12499753E+03</rscale>
<asrwt>0</asrwt>
<pdfrwt beam="2">  1        4 0.27452054E-01 0.12499753E+03</pdfrwt>
<pdfrwt beam="1">  1       -4 0.33677616E-02 0.12499753E+03</pdfrwt>
<totfact> 0.90085053E+03</totfact>
</mgrwt>
</event>
<event>
 5    1  0.3398872E-002  0.1250051E+03  0.7818608E-02  0.1235061E+00
         -4   -1    0    0    0  501 -0.00000000000E+00  0.00000000000E+00  0.13111074429E+03  0.13111689505E+03  0.12700000000E+01 0. -1.
          4   -1    0    0  501    0  0.00000000000E+00 -0.00000000000E+00 -0.29775581857E+02  0.29802653823E+02  0.12700000000E+01 0. -1.
         25    2    1    2    0    0  0.00000000000E+00  0.00000000000E+00  0.10133516243E+03  0.16091954887E+03  0.12500514415E+03 0.  0.
    9000005    1    3    3    0    0 -0.43716386408E+01 -0.41551234545E+02  0.11049541698E+03  0.11813489532E+03  0.10000000000E+01 0.  0.
    9000005    1    3    3    0    0  0.43716386408E+01  0.41551234545E+02 -0.91602545535E+01  0.42784653558E+02  0.10000000000E+01 0.  0.
<mgrwt>
<rscale>  0 0.12500514E+03</rscale>
<asrwt>0</asrwt>
<pdfrwt beam="2">  1        4 0.45834143E-02 0.12500514E+03</pdfrwt>
<pdfrwt beam="1">  1       -4 0.20173440E-01 0.12500514E+03</pdfrwt>
<totfact> 0.97154562E+03</totfact>
</mgrwt>
</event>
<event>
 5    1  0.3398872E-002  0.1250002E+03  0.7818608E-02  0.1235069E+00
          4   -1    0    0  501    0  0.00000000000E+00  0.00000000000E+00  0.52363721964E+02  0.52379120629E+02  0.12700000000E+01 0. -1.
         -4   -1    0    0    0  501 -0.00000000000E+00 -0.00000000000E+00 -0.74566907369E+02  0.74577721704E+02  0.12700000000E+01 0. -1.
         25    2    1    2    0    0  0.00000000000E+00  0.00000000000E+00 -0.22203185405E+02  0.12695684233E+03  0.12500023349E+03 0.  0.
    9000005    1    3    3    0    0 -0.12792568993E+02 -0.30088632223E+02  0.42988848873E+02  0.54018670271E+02  0.10000000000E+01 0.  0.
    9000005    1    3    3    0    0  0.12792568993E+02  0.30088632223E+02 -0.65192034279E+02  0.72938172063E+02  0.10000000000E+01 0.  0.
<mgrwt>
<rscale>  0 0.12500023E+03</rscale>
<asrwt>0</asrwt>
<pdfrwt beam="1">  1        4 0.80579736E-02 0.12500023E+03</pdfrwt>
<pdfrwt beam="2">  1       -4 0.11473848E-01 0.12500023E+03</pdfrwt>
<totfact> 0.10410029E+04</totfact>
</mgrwt>
</event>
<event>
 5    1  0.3398872E-002  0.1250021E+03  0.7818608E-02  0.1235066E+00
          4   -1    0    0  501    0  0.00000000000E+00  0.00000000000E+00  0.35042184232E+01  0.37272572701E+01  0.12700000000E+01 0.  1.
         -4   -1    0    0    0  501 -0.00000000000E+00 -0.00000000000E+00 -0.10801597912E+04  0.10801605378E+04  0.12700000000E+01 0.  1.
         25    2    1    2    0    0  0.00000000000E+00  0.00000000000E+00 -0.10766555727E+04  0.10838877950E+04  0.12500211964E+03 0.  0.
    9000005    1    3    3    0    0  0.42378817591E+02 -0.42850058370E+02 -0.68167176399E+03  0.68433141496E+03  0.10000000000E+01 0.  0.
    9000005    1    3    3    0    0 -0.42378817591E+02  0.42850058370E+02 -0.39498380876E+03  0.39955638008E+03  0.10000000000E+01 0.  0.
<mgrwt>
<rscale>  0 0.12500212E+03</rscale>
<asrwt>0</asrwt>
<pdfrwt beam="1">  1        4 0.55632565E-03 0.12500212E+03</pdfrwt>
<pdfrwt beam="2">  1       -4 0.16619539E+00 0.12500212E+03</pdfrwt>
<totfact> 0.27958551E+03</totfact>
</mgrwt>
</event>
<event>
 5    1  0.3398872E-002  0.1249989E+03  0.7818608E-02  0.1235071E+00
         -4   -1    0    0    0  501 -0.00000000000E+00  0.00000000000E+00  0.31714545727E+02  0.31739963936E+02  0.12700000000E+01 0. -1.
          4   -1    0    0  501    0  0.00000000000E+00 -0.00000000000E+00 -0.12308891928E+03  0.12309547088E+03  0.12700000000E+01 0. -1.
         25    2    1    2    0    0  0.00000000000E+00  0.00000000000E+00 -0.91374373556E+02  0.15483543481E+03  0.12499894292E+03 0.  0.
    9000005    1    3    3    0    0  0.27263116294E+02  0.54175981789E+02 -0.27029749167E+02  0.66407242473E+02  0.10000000000E+01 0.  0.
    9000005    1    3    3    0    0 -0.27263116294E+02 -0.54175981789E+02 -0.64344624389E+02  0.88428192340E+02  0.10000000000E+01 0.  0.
<mgrwt>
<rscale>  0 0.12499894E+03</rscale>
<asrwt>0</asrwt>
<pdfrwt beam="2">  1        4 0.18939216E-01 0.12499894E+03</pdfrwt>
<pdfrwt beam="1">  1       -4 0.48816201E-02 0.12499894E+03</pdfrwt>
<totfact> 0.98350153E+03</totfact>
</mgrwt>
</event>
<event>
 5    1  0.3398872E-002  0.1249947E+03  0.7818608E-02  0.1235078E+00
          4   -1    0    0  501    0  0.00000000000E+00  0.00000000000E+00  0.15972939886E+03  0.15973444763E+03  0.12700000000E+01 0.  1.
         -4   -1    0    0    0  501 -0.00000000000E+00 -0.00000000000E+00 -0.24431427560E+02  0.24464414005E+02  0.12700000000E+01 0.  1.
         25    2    1    2    0    0  0.00000000000E+00  0.00000000000E+00  0.13529797130E+03  0.18419886164E+03  0.12499471825E+03 0.  0.
    9000005    1    3    3    0    0  0.39184349971E+02  0.47330014503E+02  0.84410865132E+02  0.10441138687E+03  0.10000000000E+01 0.  0.
    9000005    1    3    3    0    0 -0.39184349971E+02 -0.47330014503E+02  0.50887106167E+02  0.79787474767E+02  0.10000000000E+01 0.  0.
<mgrwt>
<rscale>  0 0.12499472E+03</rscale>
<asrwt>0</asrwt>
<pdfrwt beam="1">  1        4 0.24576680E-01 0.12499472E+03</pdfrwt>
<pdfrwt beam="2">  1       -4 0.37616069E-02 0.12499472E+03</pdfrwt>
<totfact> 0.92877601E+03</totfact>
</mgrwt>
</event>
<event>
 5    1  0.3398872E-002  0.1250001E+03  0.7818608E-02  0.1235069E+00
         -4   -1    0    0    0  501 -0.00000000000E+00  0.00000000000E+00  0.66803050450E+02  0.66815121413E+02  0.12700000000E+01 0.  1.
          4   -1    0    0  501    0  0.00000000000E+00 -0.00000000000E+00 -0.58449967045E+02  0.58463762688E+02  0.12700000000E+01 0.  1.
         25    2    1    2    0    0  0.00000000000E+00  0.00000000000E+00  0.83530834045E+01  0.12527888410E+03  0.12500009920E+03 0.  0.
    9000005    1    3    3    0    0  0.47856626747E+02 -0.36935495946E+02  0.20047535053E+02  0.63697654949E+02  0.10000000000E+01 0.  0.
    9000005    1    3    3    0    0 -0.47856626747E+02  0.36935495946E+02 -0.11694451648E+02  0.61581229151E+02  0.10000000000E+01 0.  0.
<mgrwt>
<rscale>  0 0.12500010E+03</rscale>
<asrwt>0</asrwt>
<pdfrwt beam="2">  1        4 0.89942923E-02 0.12500010E+03</pdfrwt>
<pdfrwt beam="1">  1       -4 0.10279382E-01 0.12500010E+03</pdfrwt>
<totfact> 0.10446785E+04</totfact>
</mgrwt>
</event>
<event>
 5    1  0.3398872E-002  0.1250059E+03  0.7818608E-02  0.1235060E+00
         -4   -1    0    0    0  501 -0.00000000000E+00  0.00000000000E+00  0.11002392836E+02  0.11075447987E+02  0.12700000000E+01 0. -1.
          4   -1    0    0  501    0  0.00000000000E+00 -0.00000000000E+00 -0.35382078512E+03  0.35382306437E+03  0.12700000000E+01 0. -1.
         25    2    1    2    0    0  0.00000000000E+00  0.00000000000E+00 -0.34281839228E+03  0.36489851236E+03  0.12500589680E+03 0.  0.
    9000005    1    3    3    0    0 -0.13305583972E+02 -0.11936669714E+02 -0.34621366977E+03  0.34667625789E+03  0.10000000000E+01 0.  0.
    9000005    1    3    3    0    0  0.13305583972E+02  0.11936669714E+02  0.33952774889E+01  0.18222254469E+02  0.10000000000E+01 0.  0.
<mgrwt>
<rscale>  0 0.12500590E+03</rscale>
<asrwt>0</asrwt>
<pdfrwt beam="2">  1        4 0.54439753E-01 0.12500590E+03</pdfrwt>
<pdfrwt beam="1">  1       -4 0.16984710E-02 0.12500590E+03</pdfrwt>
<totfact> 0.68107169E+03</totfact>
</mgrwt>
</event>
<event>
 5    1  0.3398872E-002  0.1250195E+03  0.7818608E-02  0.1235039E+00
          4   -1    0    0  501    0  0.00000000000E+00  0.00000000000E+00  0.86288537664E+02  0.86297883127E+02  0.12700000000E+01 0.  1.
         -4   -1    0    0    0  501 -0.00000000000E+00 -0.00000000000E+00 -0.45263027398E+02  0.45280840862E+02  0.12700000000E+01 0.  1.
         25    2    1    2    0    0  0.00000000000E+00  0.00000000000E+00  0.41025510266E+02  0.13157872399E+03  0.12501947094E+03 0.  0.
    9000005    1    3    3    0    0 -0.28900123489E+02  0.48587052107E+02 -0.75418915324E+01  0.57042080064E+02  0.10000000000E+01 0.  0.
    9000005    1    3    3    0    0  0.28900123489E+02 -0.48587052107E+02  0.48567401798E+02  0.74536643925E+02  0.10000000000E+01 0.  0.
<mgrwt>
<rscale>  0 0.12501947E+03</rscale>
<asrwt>0</asrwt>
<pdfrwt beam="1">  1        4 0.13277249E-01 0.12501947E+03</pdfrwt>
<pdfrwt beam="2">  1       -4 0.69656319E-02 0.12501947E+03</pdfrwt>
<totfact> 0.10306171E+04</totfact>
</mgrwt>
</event>
<event>
 5    1  0.3398872E-002  0.1250007E+03  0.7818608E-02  0.1235068E+00
         -4   -1    0    0    0  501 -0.00000000000E+00  0.00000000000E+00  0.37223757021E+02  0.37245415648E+02  0.12700000000E+01 0. -1.
          4   -1    0    0  501    0  0.00000000000E+00 -0.00000000000E+00 -0.10488480370E+03  0.10489249233E+03  0.12700000000E+01 0. -1.
         25    2    1    2    0    0  0.00000000000E+00  0.00000000000E+00 -0.67661046676E+02  0.14213790797E+03  0.12500067058E+03 0.  0.
    9000005    1    3    3    0    0  0.93372924054E+01 -0.42039974531E+02  0.17663125088E+02  0.46556744688E+02  0.10000000000E+01 0.  0.
    9000005    1    3    3    0    0 -0.93372924054E+01  0.42039974531E+02 -0.85324171765E+02  0.95581163287E+02  0.10000000000E+01 0.  0.
<mgrwt>
<rscale>  0 0.12500067E+03</rscale>
<asrwt>0</asrwt>
<pdfrwt beam="2">  1        4 0.16138381E-01 0.12500067E+03</pdfrwt>
<pdfrwt beam="1">  1       -4 0.57289894E-02 0.12500067E+03</pdfrwt>
<totfact> 0.10089315E+04</totfact>
</mgrwt>
</event>
<event>
 5    1  0.3398872E-002  0.1249954E+03  0.7818608E-02  0.1235076E+00
         -4   -1    0    0    0  501 -0.00000000000E+00  0.00000000000E+00  0.12066833291E+01  0.17518517793E+01  0.12700000000E+01 0. -1.
          4   -1    0    0  501    0  0.00000000000E+00 -0.00000000000E+00 -0.26399249027E+04  0.26399252082E+04  0.12700000000E+01 0. -1.
         25    2    1    2    0    0  0.00000000000E+00  0.00000000000E+00 -0.26387182194E+04  0.26416770600E+04  0.12499539146E+03 0.  0.
    9000005    1    3    3    0    0  0.44816272571E+02  0.63175238437E+00 -0.39909542193E+03  0.40160559409E+03  0.10000000000E+01 0.  0.
    9000005    1    3    3    0    0 -0.44816272571E+02 -0.63175238437E+00 -0.22396227974E+04  0.22400714659E+04  0.10000000000E+01 0.  0.
<mgrwt>
<rscale>  0 0.12499539E+03</rscale>
<asrwt>0</asrwt>
<pdfrwt beam="2">  1        4 0.40618048E+00 0.12499539E+03</pdfrwt>
<pdfrwt beam="1">  1       -4 0.22760523E-03 0.12499539E+03</pdfrwt>
<totfact> 0.36500132E+02</totfact>
</mgrwt>
</event>
<event>
 5    1  0.3398872E-002  0.1249929E+03  0.7818608E-02  0.1235080E+00
          4   -1    0    0  501    0  0.00000000000E+00  0.00000000000E+00  0.45885621130E+02  0.45903192987E+02  0.12700000000E+01 0.  1.
         -4   -1    0    0    0  501 -0.00000000000E+00 -0.00000000000E+00 -0.85081864437E+02  0.85091342428E+02  0.12700000000E+01 0.  1.
         25    2    1    2    0    0  0.00000000000E+00  0.00000000000E+00 -0.39196243308E+02  0.13099453542E+03  0.12499289107E+03 0.  0.
    9000005    1    3    3    0    0  0.39429869833E+02  0.57530687181E+01  0.30848286776E+02  0.50402670879E+02  0.10000000000E+01 0.  0.
    9000005    1    3    3    0    0 -0.39429869833E+02 -0.57530687181E+01 -0.70044530084E+02  0.80591864536E+02  0.10000000000E+01 0.  0.
<mgrwt>
<rscale>  0 0.12499289E+03</rscale>
<asrwt>0</asrwt>
<pdfrwt beam="1">  1        4 0.70614071E-02 0.12499289E+03</pdfrwt>
<pdfrwt beam="2">  1       -4 0.13091598E-01 0.12499289E+03</pdfrwt>
<totfact> 0.10324862E+04</totfact>
</mgrwt>
</event>
<event>
 5    1  0.3398872E-002  0.1249996E+03  0.7818608E-02  0.1235070E+00
         -4   -1    0    0    0  501 -0.00000000000E+00  0.00000000000E+00  0.65008121847E+02  0.65020526037E+02  0.12700000000E+01 0. -1.
          4   -1    0    0  501    0  0.00000000000E+00 -0.00000000000E+00 -0.60063384013E+02  0.60076809162E+02  0.12700000000E+01 0. -1.
         25    2    1    2    0    0  0.00000000000E+00  0.00000000000E+00  0.49447378335E+01  0.12509733520E+03  0.12499957137E+03 0.  0.
    9000005    1    3    3    0    0  0.47733032267E+02 -0.77421830865E+01  0.42086650338E+02  0.64114506199E+02  0.10000000000E+01 0.  0.
    9000005    1    3    3    0    0 -0.47733032267E+02  0.77421830865E+01 -0.37141912505E+02  0.60982829000E+02  0.10000000000E+01 0.  0.
<mgrwt>
<rscale>  0 0.12499957E+03</rscale>
<asrwt>0</asrwt>
<pdfrwt beam="2">  1        4 0.92425075E-02 0.12499957E+03</pdfrwt>
<pdfrwt beam="1">  1       -4 0.10003236E-01 0.12499957E+03</pdfrwt>
<totfact> 0.10450850E+04</totfact>
</mgrwt>
</event>
<event>
 5    1  0.3398872E-002  0.1249978E+03  0.7818608E-02  0.1235073E+00
         -4   -1    0    0    0  501 -0.00000000000E+00  0.00000000000E+00  0.67494564998E+02  0.67506512310E+02  0.12700000000E+01 0.  1.
          4   -1    0    0  501    0  0.00000000000E+00 -0.00000000000E+00 -0.57848950225E+02  0.57862889162E+02  0.12700000000E+01 0.  1.
         25    2    1    2    0    0  0.00000000000E+00  0.00000000000E+00  0.96456147723E+01  0.12536940147E+03  0.12499779574E+03 0.  0.
    9000005    1    3    3    0    0 -0.52807836026E+02  0.32913042556E+02  0.10599819768E+02  0.63129169923E+02  0.10000000000E+01 0.  0.
    9000005    1    3    3    0    0  0.52807836026E+02 -0.32913042556E+02 -0.95420499617E+00  0.62240231549E+02  0.10000000000E+01 0.  0.
<mgrwt>
<rscale>  0 0.12499780E+03</rscale>
<asrwt>0</asrwt>
<pdfrwt beam="2">  1        4 0.89018297E-02 0.12499780E+03</pdfrwt>
<pdfrwt beam="1">  1       -4 0.10385770E-01 0.12499780E+03</pdfrwt>
<totfact> 0.10445364E+04</totfact>
</mgrwt>
</event>
<event>
 5    1  0.3398872E-002  0.1249972E+03  0.7818608E-02  0.1235074E+00
         -4   -1    0    0    0  501 -0.00000000000E+00  0.00000000000E+00  0.46730448720E+03  0.46730621295E+03  0.12700000000E+01 0. -1.
          4   -1    0    0  501    0  0.00000000000E+00 -0.00000000000E+00 -0.83087487172E+01  0.84052486725E+01  0.12700000000E+01 0. -1.
         25    2    1    2    0    0  0.00000000000E+00  0.00000000000E+00  0.45899573848E+03  0.47571146162E+03  0.12499722705E+03 0.  0.
    9000005    1    3    3    0    0  0.41889974486E+02 -0.38541268388E+02  0.32763062827E+03  0.33254026510E+03  0.10000000000E+01 0.  0.
    9000005    1    3    3    0    0 -0.41889974486E+02  0.38541268388E+02  0.13136511021E+03  0.14317119652E+03  0.10000000000E+01 0.  0.
<mgrwt>
<rscale>  0 0.12499723E+03</rscale>
<asrwt>0</asrwt>
<pdfrwt beam="2">  1        4 0.12858246E-02 0.12499723E+03</pdfrwt>
<pdfrwt beam="1">  1       -4 0.71900567E-01 0.12499723E+03</pdfrwt>
<totfact> 0.57802884E+03</totfact>
</mgrwt>
</event>
<event>
 5    1  0.3398872E-002  0.1250006E+03  0.7818608E-02  0.1235068E+00
          4   -1    0    0  501    0  0.00000000000E+00  0.00000000000E+00  0.29181676155E+03  0.29181952509E+03  0.12700000000E+01 0. -1.
         -4   -1    0    0    0  501 -0.00000000000E+00 -0.00000000000E+00 -0.13353143338E+02  0.13413401396E+02  0.12700000000E+01 0. -1.
         25    2    1    2    0    0  0.00000000000E+00  0.00000000000E+00  0.27846361822E+03  0.30523292649E+03  0.12500061096E+03 0.  0.
    9000005    1    3    3    0    0 -0.15166473716E+01  0.46629543213E+02  0.24075745310E+03  0.24523818165E+03  0.10000000000E+01 0.  0.
    9000005    1    3    3    0    0  0.15166473716E+01 -0.46629543213E+02  0.37706165122E+02  0.59994744834E+02  0.10000000000E+01 0.  0.
<mgrwt>
<rscale>  0 0.12500061E+03</rscale>
<asrwt>0</asrwt>
<pdfrwt beam="1">  1        4 0.44899735E-01 0.12500061E+03</pdfrwt>
<pdfrwt beam="2">  1       -4 0.20591775E-02 0.12500061E+03</pdfrwt>
<totfact> 0.74946065E+03</totfact>
</mgrwt>
</event>
<event>
 4    1  0.3398872E-002  0.1248840E+03  0.7818608E-02  0.1235251E+00
         -4   -1    0    0    0  501 -0.00000000000E+00  0.00000000000E+00  0.10013789291E+03  0.10014594599E+03  0.12700000000E+01 0.  1.
          4   -1    0    0  501    0  0.00000000000E+00 -0.00000000000E+00 -0.38916385163E+02  0.38937102282E+02  0.12700000000E+01 0.  1.
    9000005    1    1    2    0    0  0.24637569158E+02 -0.25930777742E+02 -0.26379562270E+02  0.44455554814E+02  0.10000000000E+01 0.  0.
    9000005    1    1    2    0    0 -0.24637569158E+02  0.25930777742E+02  0.87601070021E+02  0.94627493453E+02  0.10000000000E+01 0.  0.
<mgrwt>
<rscale>  0 0.12488403E+03</rscale>
<asrwt>0</asrwt>
<pdfrwt beam="2">  1        4 0.59893493E-02 0.12488403E+03</pdfrwt>
<pdfrwt beam="1">  1       -4 0.15408043E-01 0.12488403E+03</pdfrwt>
<totfact> 0.10179199E+04</totfact>
</mgrwt>
</event>
<event>
 5    1  0.3398872E-002  0.1249961E+03  0.7818608E-02  0.1235075E+00
         -4   -1    0    0    0  501 -0.00000000000E+00  0.00000000000E+00  0.15008933482E+02  0.15062568980E+02  0.12700000000E+01 0.  1.
          4   -1    0    0  501    0  0.00000000000E+00 -0.00000000000E+00 -0.25972596460E+03  0.25972906959E+03  0.12700000000E+01 0.  1.
         25    2    1    2    0    0  0.00000000000E+00  0.00000000000E+00 -0.24471703112E+03  0.27479163857E+03  0.12499607716E+03 0.  0.
    9000005    1    3    3    0    0 -0.41207013459E+01  0.63585429396E+01  0.14006110509E+02  0.15955637859E+02  0.10000000000E+01 0.  0.
    9000005    1    3    3    0    0  0.41207013459E+01 -0.63585429396E+01 -0.25872314163E+03  0.25883600071E+03  0.10000000000E+01 0.  0.
<mgrwt>
<rscale>  0 0.12499608E+03</rscale>
<asrwt>0</asrwt>
<pdfrwt beam="2">  1        4 0.39962202E-01 0.12499608E+03</pdfrwt>
<pdfrwt beam="1">  1       -4 0.23134315E-02 0.12499608E+03</pdfrwt>
<totfact> 0.78880685E+03</totfact>
</mgrwt>
</event>
<event>
 5    1  0.3398872E-002  0.1249980E+03  0.7818608E-02  0.1235072E+00
         -4   -1    0    0    0  501 -0.00000000000E+00  0.00000000000E+00  0.89064407987E+01  0.89965319819E+01  0.12700000000E+01 0. -1.
          4   -1    0    0  501    0  0.00000000000E+00 -0.00000000000E+00 -0.43627530889E+03  0.43627715737E+03  0.12700000000E+01 0. -1.
         25    2    1    2    0    0  0.00000000000E+00  0.00000000000E+00 -0.42736886809E+03  0.44527368935E+03  0.12499803606E+03 0.  0.
    9000005    1    3    3    0    0 -0.18226416946E+02 -0.58835572391E+02 -0.25126576962E+03  0.25870700384E+03  0.10000000000E+01 0.  0.
    9000005    1    3    3    0    0  0.18226416946E+02  0.58835572391E+02 -0.17610309847E+03  0.18656668551E+03  0.10000000000E+01 0.  0.
<mgrwt>
<rscale>  0 0.12499804E+03</rscale>
<asrwt>0</asrwt>
<pdfrwt beam="2">  1        4 0.67126334E-01 0.12499804E+03</pdfrwt>
<pdfrwt beam="1">  1       -4 0.13772943E-02 0.12499804E+03</pdfrwt>
<totfact> 0.60378053E+03</totfact>
</mgrwt>
</event>
<event>
 5    1  0.3398872E-002  0.1250012E+03  0.7818608E-02  0.1235067E+00
         -4   -1    0    0    0  501 -0.00000000000E+00  0.00000000000E+00  0.92005825878E+01  0.92878210552E+01  0.12700000000E+01 0. -1.
          4   -1    0    0  501    0  0.00000000000E+00 -0.00000000000E+00 -0.42248187666E+03  0.42248378550E+03  0.12700000000E+01 0. -1.
         25    2    1    2    0    0  0.00000000000E+00  0.00000000000E+00 -0.41328129407E+03  0.43177160655E+03  0.12500116877E+03 0.  0.
    9000005    1    3    3    0    0  0.24302541233E+02  0.20760623696E+02 -0.39212851080E+03  0.39343028098E+03  0.10000000000E+01 0.  0.
    9000005    1    3    3    0    0 -0.24302541233E+02 -0.20760623696E+02 -0.21152783272E+02  0.38341325574E+02  0.10000000000E+01 0.  0.
<mgrwt>
<rscale>  0 0.12500117E+03</rscale>
<asrwt>0</asrwt>
<pdfrwt beam="2">  1        4 0.65004054E-01 0.12500117E+03</pdfrwt>
<pdfrwt beam="1">  1       -4 0.14223321E-02 0.12500117E+03</pdfrwt>
<totfact> 0.61574154E+03</totfact>
</mgrwt>
</event>
<event>
 5    1  0.3398872E-002  0.1250042E+03  0.7818608E-02  0.1235063E+00
         -4   -1    0    0    0  501 -0.00000000000E+00  0.00000000000E+00  0.62525571490E+02  0.62538468083E+02  0.12700000000E+01 0.  1.
          4   -1    0    0  501    0  0.00000000000E+00 -0.00000000000E+00 -0.62452804001E+02  0.62465715617E+02  0.12700000000E+01 0.  1.
         25    2    1    2    0    0  0.00000000000E+00  0.00000000000E+00  0.72767489433E-01  0.12500418370E+03  0.12500416252E+03 0.  0.
    9000005    1    3    3    0    0 -0.31781166603E+02 -0.29967578310E+02 -0.44656037742E+02  0.62476075478E+02  0.10000000000E+01 0.  0.
    9000005    1    3    3    0    0  0.31781166603E+02  0.29967578310E+02  0.44728805231E+02  0.62528108222E+02  0.10000000000E+01 0.  0.
<mgrwt>
<rscale>  0 0.12500416E+03</rscale>
<asrwt>0</asrwt>
<pdfrwt beam="2">  1        4 0.96101089E-02 0.12500416E+03</pdfrwt>
<pdfrwt beam="1">  1       -4 0.96213040E-02 0.12500416E+03</pdfrwt>
<totfact> 0.10451788E+04</totfact>
</mgrwt>
</event>
<event>
 5    1  0.3398872E-002  0.1249977E+03  0.7818608E-02  0.1235073E+00
         -4   -1    0    0    0  501 -0.00000000000E+00  0.00000000000E+00  0.74296048491E+01  0.75373687859E+01  0.12700000000E+01 0.  1.
          4   -1    0    0  501    0  0.00000000000E+00 -0.00000000000E+00 -0.52185454438E+03  0.52185608973E+03  0.12700000000E+01 0.  1.
         25    2    1    2    0    0  0.00000000000E+00  0.00000000000E+00 -0.51442493953E+03  0.52939345852E+03  0.12499766202E+03 0.  0.
    9000005    1    3    3    0    0  0.45433723699E+02 -0.40076795658E+02 -0.32210010954E+03  0.32774968096E+03  0.10000000000E+01 0.  0.
    9000005    1    3    3    0    0 -0.45433723699E+02  0.40076795658E+02 -0.19232482999E+03  0.20164377756E+03  0.10000000000E+01 0.  0.
<mgrwt>
<rscale>  0 0.12499766E+03</rscale>
<asrwt>0</asrwt>
<pdfrwt beam="2">  1        4 0.80293694E-01 0.12499766E+03</pdfrwt>
<pdfrwt beam="1">  1       -4 0.11514249E-02 0.12499766E+03</pdfrwt>
<totfact> 0.53656570E+03</totfact>
</mgrwt>
</event>
<event>
 5    1  0.3398872E-002  0.1250008E+03  0.7818608E-02  0.1235068E+00
          4   -1    0    0  501    0  0.00000000000E+00  0.00000000000E+00  0.66580176518E+02  0.66592287880E+02  0.12700000000E+01 0. -1.
         -4   -1    0    0    0  501 -0.00000000000E+00 -0.00000000000E+00 -0.58646311492E+02  0.58660060958E+02  0.12700000000E+01 0. -1.
         25    2    1    2    0    0  0.00000000000E+00  0.00000000000E+00  0.79338650260E+01  0.12525234884E+03  0.12500081870E+03 0.  0.
    9000005    1    3    3    0    0 -0.61011555779E+02 -0.98742531771E+01  0.13226217033E+02  0.63212685684E+02  0.10000000000E+01 0.  0.
    9000005    1    3    3    0    0  0.61011555779E+02  0.98742531771E+01 -0.52923520067E+01  0.62039663153E+02  0.10000000000E+01 0.  0.
<mgrwt>
<rscale>  0 0.12500082E+03</rscale>
<asrwt>0</asrwt>
<pdfrwt beam="1">  1        4 0.10245093E-01 0.12500082E+03</pdfrwt>
<pdfrwt beam="2">  1       -4 0.90244988E-02 0.12500082E+03</pdfrwt>
<totfact> 0.10447191E+04</totfact>
</mgrwt>
</event>
<event>
 5    1  0.3398872E-002  0.1249988E+03  0.7818608E-02  0.1235071E+00
         -4   -1    0    0    0  501 -0.00000000000E+00  0.00000000000E+00  0.12353189751E+04  0.12353196279E+04  0.12700000000E+01 0.  1.
          4   -1    0    0  501    0  0.00000000000E+00 -0.00000000000E+00 -0.30338773224E+01  0.32889681676E+01  0.12700000000E+01 0.  1.
         25    2    1    2    0    0  0.00000000000E+00  0.00000000000E+00  0.12322850978E+04  0.12386085961E+04  0.12499876845E+03 0.  0.
    9000005    1    3    3    0    0 -0.17012213970E+02 -0.42438672036E+02  0.10382594838E+04  0.10392661892E+04  0.10000000000E+01 0.  0.
    9000005    1    3    3    0    0  0.17012213970E+02  0.42438672036E+02  0.19402561400E+03  0.19934240692E+03  0.10000000000E+01 0.  0.
<mgrwt>
<rscale>  0 0.12499877E+03</rscale>
<asrwt>0</asrwt>
<pdfrwt beam="2">  1        4 0.48642260E-03 0.12499877E+03</pdfrwt>
<pdfrwt beam="1">  1       -4 0.19006888E+00 0.12499877E+03</pdfrwt>
<totfact> 0.23724561E+03</totfact>
</mgrwt>
</event>
<event>
 5    1  0.3398872E-002  0.1249995E+03  0.7818608E-02  0.1235070E+00
          4   -1    0    0  501    0  0.00000000000E+00  0.00000000000E+00  0.13893443853E+04  0.13893449658E+04  0.12700000000E+01 0. -1.
         -4   -1    0    0    0  501 -0.00000000000E+00 -0.00000000000E+00 -0.26675294808E+01  0.29544227069E+01  0.12700000000E+01 0. -1.
         25    2    1    2    0    0  0.00000000000E+00  0.00000000000E+00  0.13866768558E+04  0.13922993885E+04  0.12499953857E+03 0.  0.
    9000005    1    3    3    0    0  0.62439293869E+01 -0.61164787775E+02  0.56875550769E+03  0.57206987812E+03  0.10000000000E+01 0.  0.
    9000005    1    3    3    0    0 -0.62439293869E+01  0.61164787775E+02  0.81792134815E+03  0.82022951037E+03  0.10000000000E+01 0.  0.
<mgrwt>
<rscale>  0 0.12499954E+03</rscale>
<asrwt>0</asrwt>
<pdfrwt beam="1">  1        4 0.21376770E+00 0.12499954E+03</pdfrwt>
<pdfrwt beam="2">  1       -4 0.43250190E-03 0.12499954E+03</pdfrwt>
<totfact> 0.20146941E+03</totfact>
</mgrwt>
</event>
<event>
 5    1  0.3398872E-002  0.1250012E+03  0.7818608E-02  0.1235067E+00
         -4   -1    0    0    0  501 -0.00000000000E+00  0.00000000000E+00  0.12773417351E+02  0.12836397112E+02  0.12700000000E+01 0. -1.
          4   -1    0    0  501    0  0.00000000000E+00 -0.00000000000E+00 -0.30500025085E+03  0.30500289494E+03  0.12700000000E+01 0. -1.
         25    2    1    2    0    0  0.00000000000E+00  0.00000000000E+00 -0.29222683350E+03  0.31783929205E+03  0.12500117340E+03 0.  0.
    9000005    1    3    3    0    0  0.17468085574E+02 -0.43990117088E+02 -0.24986824083E+03  0.25431359026E+03  0.10000000000E+01 0.  0.
    9000005    1    3    3    0    0 -0.17468085574E+02  0.43990117088E+02 -0.42358592675E+02  0.63525701794E+02  0.10000000000E+01 0.  0.
<mgrwt>
<rscale>  0 0.12500117E+03</rscale>
<asrwt>0</asrwt>
<pdfrwt beam="2">  1        4 0.46928158E-01 0.12500117E+03</pdfrwt>
<pdfrwt beam="1">  1       -4 0.19701894E-02 0.12500117E+03</pdfrwt>
<totfact> 0.73411944E+03</totfact>
</mgrwt>
</event>
<event>
 5    1  0.3398872E-002  0.1249988E+03  0.7818608E-02  0.1235071E+00
          4   -1    0    0  501    0  0.00000000000E+00  0.00000000000E+00  0.50012661424E+02  0.50028783742E+02  0.12700000000E+01 0.  1.
         -4   -1    0    0    0  501 -0.00000000000E+00 -0.00000000000E+00 -0.78069855320E+02  0.78080184489E+02  0.12700000000E+01 0.  1.
         25    2    1    2    0    0  0.00000000000E+00  0.00000000000E+00 -0.28057193897E+02  0.12810896823E+03  0.12499880644E+03 0.  0.
    9000005    1    3    3    0    0  0.46307616027E+02  0.43846430867E+00 -0.57031969593E+02  0.73472669127E+02  0.10000000000E+01 0.  0.
    9000005    1    3    3    0    0 -0.46307616027E+02 -0.43846430867E+00  0.28974775696E+02  0.54636299103E+02  0.10000000000E+01 0.  0.
<mgrwt>
<rscale>  0 0.12499881E+03</rscale>
<asrwt>0</asrwt>
<pdfrwt beam="1">  1        4 0.76962904E-02 0.12499881E+03</pdfrwt>
<pdfrwt beam="2">  1       -4 0.12012782E-01 0.12499881E+03</pdfrwt>
<totfact> 0.10385415E+04</totfact>
</mgrwt>
</event>
<event>
 5    1  0.3398872E-002  0.1249996E+03  0.7818608E-02  0.1235070E+00
          4   -1    0    0  501    0  0.00000000000E+00  0.00000000000E+00  0.47392488583E+03  0.47392658747E+03  0.12700000000E+01 0. -1.
         -4   -1    0    0    0  501 -0.00000000000E+00 -0.00000000000E+00 -0.81916363974E+01  0.82894997959E+01  0.12700000000E+01 0. -1.
         25    2    1    2    0    0  0.00000000000E+00  0.00000000000E+00  0.46573324943E+03  0.48221608726E+03  0.12499958076E+03 0.  0.
    9000005    1    3    3    0    0 -0.10461029836E+02 -0.24701260592E+02  0.15130055448E+02  0.30814022748E+02  0.10000000000E+01 0.  0.
    9000005    1    3    3    0    0  0.10461029836E+02  0.24701260592E+02  0.45060319399E+03  0.45140206452E+03  0.10000000000E+01 0.  0.
<mgrwt>
<rscale>  0 0.12499958E+03</rscale>
<asrwt>0</asrwt>
<pdfrwt beam="1">  1        4 0.72919187E-01 0.12499958E+03</pdfrwt>
<pdfrwt beam="2">  1       -4 0.12679105E-02 0.12499958E+03</pdfrwt>
<totfact> 0.57271594E+03</totfact>
</mgrwt>
</event>
<event>
 5    1  0.3398872E-002  0.1249988E+03  0.7818608E-02  0.1235071E+00
         -4   -1    0    0    0  501 -0.00000000000E+00  0.00000000000E+00  0.12017787182E+03  0.12018458210E+03  0.12700000000E+01 0. -1.
          4   -1    0    0  501    0  0.00000000000E+00 -0.00000000000E+00 -0.32483240413E+02  0.32508057582E+02  0.12700000000E+01 0. -1.
         25    2    1    2    0    0  0.00000000000E+00  0.00000000000E+00  0.87694631403E+02  0.15269263968E+03  0.12499877534E+03 0.  0.
    9000005    1    3    3    0    0  0.35398237187E+02  0.10717898719E+01  0.10674234897E+03  0.11246827550E+03  0.10000000000E+01 0.  0.
    9000005    1    3    3    0    0 -0.35398237187E+02 -0.10717898719E+01 -0.19047717567E+02  0.40224364184E+02  0.10000000000E+01 0.  0.
<mgrwt>
<rscale>  0 0.12499878E+03</rscale>
<asrwt>0</asrwt>
<pdfrwt beam="2">  1        4 0.49998469E-02 0.12499878E+03</pdfrwt>
<pdfrwt beam="1">  1       -4 0.18491328E-01 0.12499878E+03</pdfrwt>
<totfact> 0.98772365E+03</totfact>
</mgrwt>
</event>
<event>
 5    1  0.3398872E-002  0.1250024E+03  0.7818608E-02  0.1235065E+00
         -4   -1    0    0    0  501 -0.00000000000E+00  0.00000000000E+00  0.53151485185E+01  0.54647693248E+01  0.12700000000E+01 0. -1.
          4   -1    0    0  501    0  0.00000000000E+00 -0.00000000000E+00 -0.72460531916E+03  0.72460643211E+03  0.12700000000E+01 0. -1.
         25    2    1    2    0    0  0.00000000000E+00  0.00000000000E+00 -0.71929017064E+03  0.73007120143E+03  0.12500243831E+03 0.  0.
    9000005    1    3    3    0    0 -0.59425717218E+01 -0.76173907115E+01  0.95581080695E+00  0.97597322821E+01  0.10000000000E+01 0.  0.
    9000005    1    3    3    0    0  0.59425717218E+01  0.76173907115E+01 -0.72024598145E+03  0.72031146915E+03  0.10000000000E+01 0.  0.
<mgrwt>
<rscale>  0 0.12500244E+03</rscale>
<asrwt>0</asrwt>
<pdfrwt beam="2">  1        4 0.11148926E+00 0.12500244E+03</pdfrwt>
<pdfrwt beam="1">  1       -4 0.82931064E-03 0.12500244E+03</pdfrwt>
<totfact> 0.41543757E+03</totfact>
</mgrwt>
</event>
<event>
 4    1  0.3398872E-002  0.1266376E+03  0.7818608E-02  0.1232532E+00
          4   -1    0    0  501    0  0.00000000000E+00  0.00000000000E+00  0.20282437769E+03  0.20282835375E+03  0.12700000000E+01 0. -1.
         -4   -1    0    0    0  501 -0.00000000000E+00 -0.00000000000E+00 -0.19742618119E+02  0.19783424127E+02  0.12700000000E+01 0. -1.
    9000005    1    1    2    0    0  0.35790008047E+02  0.50033746017E+02  0.65233451144E+02  0.89669970250E+02  0.10000000000E+01 0.  0.
    9000005    1    1    2    0    0 -0.35790008047E+02 -0.50033746017E+02  0.11784830842E+03  0.13294180763E+03  0.10000000000E+01 0.  0.
<mgrwt>
<rscale>  0 0.12663757E+03</rscale>
<asrwt>0</asrwt>
<pdfrwt beam="1">  1        4 0.31207195E-01 0.12663757E+03</pdfrwt>
<pdfrwt beam="2">  1       -4 0.30407707E-02 0.12663757E+03</pdfrwt>
<totfact> 0.83369659E+03</totfact>
</mgrwt>
</event>
<event>
 4    1  0.3398872E-002  0.1253671E+03  0.7818608E-02  0.1234497E+00
          4   -1    0    0  501    0  0.00000000000E+00  0.00000000000E+00  0.31358456043E+02  0.31384162652E+02  0.12700000000E+01 0.  1.
         -4   -1    0    0    0  501 -0.00000000000E+00 -0.00000000000E+00 -0.12522008702E+03  0.12522652711E+03  0.12700000000E+01 0.  1.
    9000005    1    1    2    0    0 -0.12859038290E+02 -0.32902184807E+02  0.17743375086E+02  0.39544101839E+02  0.10000000000E+01 0.  0.
    9000005    1    1    2    0    0  0.12859038290E+02  0.32902184807E+02 -0.11160500606E+03  0.11706658792E+03  0.10000000000E+01 0.  0.
<mgrwt>
<rscale>  0 0.12536707E+03</rscale>
<asrwt>0</asrwt>
<pdfrwt beam="1">  1        4 0.48268507E-02 0.12536707E+03</pdfrwt>
<pdfrwt beam="2">  1       -4 0.19267101E-01 0.12536707E+03</pdfrwt>
<totfact> 0.97195711E+03</totfact>
</mgrwt>
</event>
<event>
 5    1  0.3398872E-002  0.1250006E+03  0.7818608E-02  0.1235068E+00
          4   -1    0    0  501    0  0.00000000000E+00  0.00000000000E+00  0.12633784475E+03  0.12634422787E+03  0.12700000000E+01 0. -1.
         -4   -1    0    0    0  501 -0.00000000000E+00 -0.00000000000E+00 -0.30899175876E+02  0.30925264264E+02  0.12700000000E+01 0. -1.
         25    2    1    2    0    0  0.00000000000E+00  0.00000000000E+00  0.95438668870E+02  0.15726949213E+03  0.12500061455E+03 0.  0.
    9000005    1    3    3    0    0 -0.34846825191E+02 -0.26702410576E+02  0.10367473596E+03  0.11259116676E+03  0.10000000000E+01 0.  0.
    9000005    1    3    3    0    0  0.34846825191E+02  0.26702410576E+02 -0.82360670914E+01  0.44678325367E+02  0.10000000000E+01 0.  0.
<mgrwt>
<rscale>  0 0.12500061E+03</rscale>
<asrwt>0</asrwt>
<pdfrwt beam="1">  1        4 0.19439089E-01 0.12500061E+03</pdfrwt>
<pdfrwt beam="2">  1       -4 0.47562172E-02 0.12500061E+03</pdfrwt>
<totfact> 0.97870450E+03</totfact>
</mgrwt>
</event>
<event>
 5    1  0.3398872E-002  0.1250000E+03  0.7818608E-02  0.1235069E+00
         -4   -1    0    0    0  501 -0.00000000000E+00  0.00000000000E+00  0.19110417728E+02  0.19152570735E+02  0.12700000000E+01 0.  1.
          4   -1    0    0  501    0  0.00000000000E+00 -0.00000000000E+00 -0.20413494917E+03  0.20413889971E+03  0.12700000000E+01 0.  1.
         25    2    1    2    0    0  0.00000000000E+00  0.00000000000E+00 -0.18502453145E+03  0.22329147044E+03  0.12500001414E+03 0.  0.
    9000005    1    3    3    0    0  0.34077535832E+02 -0.10322318552E+02 -0.18425082137E+03  0.18766244666E+03  0.10000000000E+01 0.  0.
    9000005    1    3    3    0    0 -0.34077535832E+02  0.10322318552E+02 -0.77371007231E+00  0.35629023786E+02  0.10000000000E+01 0.  0.
<mgrwt>
<rscale>  0 0.12500001E+03</rscale>
<asrwt>0</asrwt>
<pdfrwt beam="2">  1        4 0.31408922E-01 0.12500001E+03</pdfrwt>
<pdfrwt beam="1">  1       -4 0.29436108E-02 0.12500001E+03</pdfrwt>
<totfact> 0.86350156E+03</totfact>
</mgrwt>
</event>
<event>
 5    1  0.3398872E-002  0.1250006E+03  0.7818608E-02  0.1235068E+00
         -4   -1    0    0    0  501 -0.00000000000E+00  0.00000000000E+00  0.22248463203E+03  0.22248825675E+03  0.12700000000E+01 0. -1.
          4   -1    0    0  501    0  0.00000000000E+00 -0.00000000000E+00 -0.17530810688E+02  0.17576752356E+02  0.12700000000E+01 0. -1.
         25    2    1    2    0    0  0.00000000000E+00  0.00000000000E+00  0.20495382134E+03  0.24006500910E+03  0.12500055885E+03 0.  0.
    9000005    1    3    3    0    0  0.51242484898E+02 -0.27357164419E+02  0.58218465136E+02  0.82247166433E+02  0.10000000000E+01 0.  0.
    9000005    1    3    3    0    0 -0.51242484898E+02  0.27357164419E+02  0.14673535621E+03  0.15781784267E+03  0.10000000000E+01 0.  0.
<mgrwt>
<rscale>  0 0.12500056E+03</rscale>
<asrwt>0</asrwt>
<pdfrwt beam="2">  1        4 0.27008606E-02 0.12500056E+03</pdfrwt>
<pdfrwt beam="1">  1       -4 0.34232218E-01 0.12500056E+03</pdfrwt>
<totfact> 0.83786641E+03</totfact>
</mgrwt>
</event>
<event>
 5    1  0.3398872E-002  0.1250003E+03  0.7818608E-02  0.1235069E+00
          4   -1    0    0  501    0  0.00000000000E+00  0.00000000000E+00  0.54058397301E+03  0.54058546482E+03  0.12700000000E+01 0. -1.
         -4   -1    0    0    0  501 -0.00000000000E+00 -0.00000000000E+00 -0.71686956943E+01  0.72803226548E+01  0.12700000000E+01 0. -1.
         25    2    1    2    0    0  0.00000000000E+00  0.00000000000E+00  0.53341527732E+03  0.54786578748E+03  0.12500025205E+03 0.  0.
    9000005    1    3    3    0    0 -0.28891013310E+02 -0.18162184399E+02  0.49616122347E+03  0.49733440989E+03  0.10000000000E+01 0.  0.
    9000005    1    3    3    0    0  0.28891013310E+02  0.18162184399E+02  0.37254053852E+02  0.50531377585E+02  0.10000000000E+01 0.  0.
<mgrwt>
<rscale>  0 0.12500025E+03</rscale>
<asrwt>0</asrwt>
<pdfrwt beam="1">  1        4 0.83175472E-01 0.12500025E+03</pdfrwt>
<pdfrwt beam="2">  1       -4 0.11115776E-02 0.12500025E+03</pdfrwt>
<totfact> 0.52332717E+03</totfact>
</mgrwt>
</event>
<event>
 5    1  0.3398872E-002  0.1250005E+03  0.7818608E-02  0.1235068E+00
         -4   -1    0    0    0  501 -0.00000000000E+00  0.00000000000E+00  0.48714150063E+02  0.48730701989E+02  0.12700000000E+01 0. -1.
          4   -1    0    0  501    0  0.00000000000E+00 -0.00000000000E+00 -0.80152655382E+02  0.80162716176E+02  0.12700000000E+01 0. -1.
         25    2    1    2    0    0  0.00000000000E+00  0.00000000000E+00 -0.31438505319E+02  0.12889341817E+03  0.12500053452E+03 0.  0.
    9000005    1    3    3    0    0 -0.94679438935E+01 -0.21225725229E+02  0.44096904092E+02  0.49856898455E+02  0.10000000000E+01 0.  0.
    9000005    1    3    3    0    0  0.94679438935E+01  0.21225725229E+02 -0.75535409411E+02  0.79036519710E+02  0.10000000000E+01 0.  0.
<mgrwt>
<rscale>  0 0.12500053E+03</rscale>
<asrwt>0</asrwt>
<pdfrwt beam="2">  1        4 0.12333225E-01 0.12500053E+03</pdfrwt>
<pdfrwt beam="1">  1       -4 0.74965317E-02 0.12500053E+03</pdfrwt>
<totfact> 0.10368112E+04</totfact>
</mgrwt>
</event>
<event>
 5    1  0.3398872E-002  0.1249997E+03  0.7818608E-02  0.1235070E+00
         -4   -1    0    0    0  501 -0.00000000000E+00  0.00000000000E+00  0.96027921688E+02  0.96036319399E+02  0.12700000000E+01 0. -1.
          4   -1    0    0  501    0  0.00000000000E+00 -0.00000000000E+00 -0.40657987175E+02  0.40677817310E+02  0.12700000000E+01 0. -1.
         25    2    1    2    0    0  0.00000000000E+00  0.00000000000E+00  0.55369934514E+02  0.13671413671E+03  0.12499970211E+03 0.  0.
    9000005    1    3    3    0    0  0.20079868350E+02  0.47721521475E+02 -0.10590186106E+02  0.52855432707E+02  0.10000000000E+01 0.  0.
    9000005    1    3    3    0    0 -0.20079868350E+02 -0.47721521475E+02  0.65960120620E+02  0.83858704003E+02  0.10000000000E+01 0.  0.
<mgrwt>
<rscale>  0 0.12499970E+03</rscale>
<asrwt>0</asrwt>
<pdfrwt beam="2">  1        4 0.62572465E-02 0.12499970E+03</pdfrwt>
<pdfrwt beam="1">  1       -4 0.14775697E-01 0.12499970E+03</pdfrwt>
<totfact> 0.10202135E+04</totfact>
</mgrwt>
</event>
<event>
 5    1  0.3398872E-002  0.1250056E+03  0.7818608E-02  0.1235060E+00
          4   -1    0    0  501    0  0.00000000000E+00  0.00000000000E+00  0.65458532561E+02  0.65470851416E+02  0.12700000000E+01 0. -1.
         -4   -1    0    0    0  501 -0.00000000000E+00 -0.00000000000E+00 -0.59655861058E+02  0.59669377896E+02  0.12700000000E+01 0. -1.
         25    2    1    2    0    0  0.00000000000E+00  0.00000000000E+00  0.58026715039E+01  0.12514022931E+03  0.12500562386E+03 0.  0.
    9000005    1    3    3    0    0  0.37316131973E+01 -0.59610883904E+02  0.21311872398E+02  0.63423799334E+02  0.10000000000E+01 0.  0.
    9000005    1    3    3    0    0 -0.37316131973E+01  0.59610883904E+02 -0.15509200894E+02  0.61716429978E+02  0.10000000000E+01 0.  0.
<mgrwt>
<rscale>  0 0.12500562E+03</rscale>
<asrwt>0</asrwt>
<pdfrwt beam="1">  1        4 0.10072531E-01 0.12500562E+03</pdfrwt>
<pdfrwt beam="2">  1       -4 0.91798121E-02 0.12500562E+03</pdfrwt>
<totfact> 0.10448490E+04</totfact>
</mgrwt>
</event>
<event>
 5    1  0.3398872E-002  0.1250336E+03  0.7818608E-02  0.1235017E+00
          4   -1    0    0  501    0  0.00000000000E+00  0.00000000000E+00  0.15709115063E+02  0.15760367891E+02  0.12700000000E+01 0.  1.
         -4   -1    0    0    0  501 -0.00000000000E+00 -0.00000000000E+00 -0.24833678702E+03  0.24834003440E+03  0.12700000000E+01 0.  1.
         25    2    1    2    0    0  0.00000000000E+00  0.00000000000E+00 -0.23262767196E+03  0.26410040229E+03  0.12503355042E+03 0.  0.
    9000005    1    3    3    0    0  0.19729611825E+02  0.13908664898E+02 -0.23810470333E+03  0.23932730369E+03  0.10000000000E+01 0.  0.
    9000005    1    3    3    0    0 -0.19729611825E+02 -0.13908664898E+02  0.54770313718E+01  0.24773098608E+02  0.10000000000E+01 0.  0.
<mgrwt>
<rscale>  0 0.12503355E+03</rscale>
<asrwt>0</asrwt>
<pdfrwt beam="1">  1        4 0.24209794E-02 0.12503355E+03</pdfrwt>
<pdfrwt beam="2">  1       -4 0.38209849E-01 0.12503355E+03</pdfrwt>
<totfact> 0.80274102E+03</totfact>
</mgrwt>
</event>
<event>
 5    1  0.3398872E-002  0.1250029E+03  0.7818608E-02  0.1235065E+00
          4   -1    0    0  501    0  0.00000000000E+00  0.00000000000E+00  0.28117914380E+02  0.28146580771E+02  0.12700000000E+01 0. -1.
         -4   -1    0    0    0  501 -0.00000000000E+00 -0.00000000000E+00 -0.13882799852E+03  0.13883380738E+03  0.12700000000E+01 0. -1.
         25    2    1    2    0    0  0.00000000000E+00  0.00000000000E+00 -0.11071008414E+03  0.16698038815E+03  0.12500290916E+03 0.  0.
    9000005    1    3    3    0    0 -0.33507985909E+02  0.28376848416E+02  0.40458189673E+01  0.44106680864E+02  0.10000000000E+01 0.  0.
    9000005    1    3    3    0    0  0.33507985909E+02 -0.28376848416E+02 -0.11475590310E+03  0.12287370729E+03  0.10000000000E+01 0.  0.
<mgrwt>
<rscale>  0 0.12500291E+03</rscale>
<asrwt>0</asrwt>
<pdfrwt beam="1">  1        4 0.43284850E-02 0.12500291E+03</pdfrwt>
<pdfrwt beam="2">  1       -4 0.21360805E-01 0.12500291E+03</pdfrwt>
<totfact> 0.96007374E+03</totfact>
</mgrwt>
</event>
<event>
 5    1  0.3398872E-002  0.1249996E+03  0.7818608E-02  0.1235070E+00
          4   -1    0    0  501    0  0.00000000000E+00  0.00000000000E+00  0.20131082314E+03  0.20131482910E+03  0.12700000000E+01 0. -1.
         -4   -1    0    0    0  501 -0.00000000000E+00 -0.00000000000E+00 -0.19378955875E+02  0.19420526017E+02  0.12700000000E+01 0. -1.
         25    2    1    2    0    0  0.00000000000E+00  0.00000000000E+00  0.18193186727E+03  0.22073535512E+03  0.12499957068E+03 0.  0.
    9000005    1    3    3    0    0  0.23887723884E+02  0.19238253951E+02 -0.51816400292E+01  0.31122068711E+02  0.10000000000E+01 0.  0.
    9000005    1    3    3    0    0 -0.23887723884E+02 -0.19238253951E+02  0.18711350730E+03  0.18961328640E+03  0.10000000000E+01 0.  0.
<mgrwt>
<rscale>  0 0.12499957E+03</rscale>
<asrwt>0</asrwt>
<pdfrwt beam="1">  1        4 0.30974399E-01 0.12499957E+03</pdfrwt>
<pdfrwt beam="2">  1       -4 0.29848839E-02 0.12499957E+03</pdfrwt>
<totfact> 0.86752956E+03</totfact>
</mgrwt>
</event>
<event>
 5    1  0.3398872E-002  0.1249539E+03  0.7818608E-02  0.1235141E+00
         -4   -1    0    0    0  501 -0.00000000000E+00  0.00000000000E+00  0.67196603993E+02  0.67208604272E+02  0.12700000000E+01 0.  1.
          4   -1    0    0  501    0  0.00000000000E+00 -0.00000000000E+00 -0.58064672040E+02  0.58078559203E+02  0.12700000000E+01 0.  1.
         25    2    1    2    0    0  0.00000000000E+00  0.00000000000E+00  0.91319319532E+01  0.12528716347E+03  0.12495391611E+03 0.  0.
    9000005    1    3    3    0    0 -0.11698223162E+02  0.51241382911E+02 -0.29285628979E+02  0.60176206365E+02  0.10000000000E+01 0.  0.
    9000005    1    3    3    0    0  0.11698223162E+02 -0.51241382911E+02  0.38417560932E+02  0.65110957110E+02  0.10000000000E+01 0.  0.
<mgrwt>
<rscale>  0 0.12495392E+03</rscale>
<asrwt>0</asrwt>
<pdfrwt beam="2">  1        4 0.89350178E-02 0.12495392E+03</pdfrwt>
<pdfrwt beam="1">  1       -4 0.10339930E-01 0.12495392E+03</pdfrwt>
<totfact> 0.10457516E+04</totfact>
</mgrwt>
</event>
<event>
 5    1  0.3398872E-002  0.1249991E+03  0.7818608E-02  0.1235071E+00
          4   -1    0    0  501    0  0.00000000000E+00  0.00000000000E+00  0.12417357252E+03  0.12418006689E+03  0.12700000000E+01 0. -1.
         -4   -1    0    0    0  501 -0.00000000000E+00 -0.00000000000E+00 -0.31437366934E+02  0.31463009070E+02  0.12700000000E+01 0. -1.
         25    2    1    2    0    0  0.00000000000E+00  0.00000000000E+00  0.92736205590E+02  0.15564307596E+03  0.12499905307E+03 0.  0.
    9000005    1    3    3    0    0  0.59032458608E+02 -0.13647810124E+02  0.65419241460E+02  0.89172703467E+02  0.10000000000E+01 0.  0.
    9000005    1    3    3    0    0 -0.59032458608E+02  0.13647810124E+02  0.27316964131E+02  0.66470372496E+02  0.10000000000E+01 0.  0.
<mgrwt>
<rscale>  0 0.12499905E+03</rscale>
<asrwt>0</asrwt>
<pdfrwt beam="1">  1        4 0.19106099E-01 0.12499905E+03</pdfrwt>
<pdfrwt beam="2">  1       -4 0.48389899E-02 0.12499905E+03</pdfrwt>
<totfact> 0.98191493E+03</totfact>
</mgrwt>
</event>
<event>
 5    1  0.3398872E-002  0.1249977E+03  0.7818608E-02  0.1235073E+00
          4   -1    0    0  501    0  0.00000000000E+00  0.00000000000E+00  0.14164165132E+02  0.14220987092E+02  0.12700000000E+01 0. -1.
         -4   -1    0    0    0  501 -0.00000000000E+00 -0.00000000000E+00 -0.27516342429E+03  0.27516635508E+03  0.12700000000E+01 0. -1.
         25    2    1    2    0    0  0.00000000000E+00  0.00000000000E+00 -0.26099925916E+03  0.28938734217E+03  0.12499768209E+03 0.  0.
    9000005    1    3    3    0    0 -0.40278512352E+02 -0.45831693327E+02 -0.99249293580E+02  0.11650890501E+03  0.10000000000E+01 0.  0.
    9000005    1    3    3    0    0  0.40278512352E+02  0.45831693327E+02 -0.16174996558E+03  0.17287843716E+03  0.10000000000E+01 0.  0.
<mgrwt>
<rscale>  0 0.12499768E+03</rscale>
<asrwt>0</asrwt>
<pdfrwt beam="1">  1        4 0.21836989E-02 0.12499768E+03</pdfrwt>
<pdfrwt beam="2">  1       -4 0.42337427E-01 0.12499768E+03</pdfrwt>
<totfact> 0.76953615E+03</totfact>
</mgrwt>
</event>
<event>
 5    1  0.3398872E-002  0.1249968E+03  0.7818608E-02  0.1235074E+00
          4   -1    0    0  501    0  0.00000000000E+00  0.00000000000E+00  0.53231289835E+02  0.53246437604E+02  0.12700000000E+01 0.  1.
         -4   -1    0    0    0  501 -0.00000000000E+00 -0.00000000000E+00 -0.73347703995E+02  0.73358698062E+02  0.12700000000E+01 0.  1.
         25    2    1    2    0    0  0.00000000000E+00  0.00000000000E+00 -0.20116414160E+02  0.12660513567E+03  0.12499676099E+03 0.  0.
    9000005    1    3    3    0    0 -0.45105762102E+02 -0.41029167854E+02 -0.23913594480E+02  0.65504063924E+02  0.10000000000E+01 0.  0.
    9000005    1    3    3    0    0  0.45105762102E+02  0.41029167854E+02  0.37971803207E+01  0.61101071742E+02  0.10000000000E+01 0.  0.
<mgrwt>
<rscale>  0 0.12499676E+03</rscale>
<asrwt>0</asrwt>
<pdfrwt beam="1">  1        4 0.81914401E-02 0.12499676E+03</pdfrwt>
<pdfrwt beam="2">  1       -4 0.11286273E-01 0.12499676E+03</pdfrwt>
<totfact> 0.10418498E+04</totfact>
</mgrwt>
</event>
<event>
 5    1  0.3398872E-002  0.1250059E+03  0.7818608E-02  0.1235060E+00
          4   -1    0    0  501    0  0.00000000000E+00  0.00000000000E+00  0.63410652446E+03  0.63410779625E+03  0.12700000000E+01 0.  1.
         -4   -1    0    0    0  501 -0.00000000000E+00 -0.00000000000E+00 -0.60940856551E+01  0.62250124475E+01  0.12700000000E+01 0.  1.
         25    2    1    2    0    0  0.00000000000E+00  0.00000000000E+00  0.62801243880E+03  0.64033280869E+03  0.12500593025E+03 0.  0.
    9000005    1    3    3    0    0  0.32846799109E+02  0.45181079276E+02  0.45756000373E+03  0.46095813167E+03  0.10000000000E+01 0.  0.
    9000005    1    3    3    0    0 -0.32846799109E+02 -0.45181079276E+02  0.17045243507E+03  0.17937467703E+03  0.10000000000E+01 0.  0.
<mgrwt>
<rscale>  0 0.12500593E+03</rscale>
<asrwt>0</asrwt>
<pdfrwt beam="1">  1        4 0.97565043E-01 0.12500593E+03</pdfrwt>
<pdfrwt beam="2">  1       -4 0.94772053E-03 0.12500593E+03</pdfrwt>
<totfact> 0.46410700E+03</totfact>
</mgrwt>
</event>
<event>
 5    1  0.3398872E-002  0.1250204E+03  0.7818608E-02  0.1235037E+00
         -4   -1    0    0    0  501 -0.00000000000E+00  0.00000000000E+00  0.75948213989E+01  0.77002735069E+01  0.12700000000E+01 0.  1.
          4   -1    0    0  501    0  0.00000000000E+00 -0.00000000000E+00 -0.51084546484E+03  0.51084704349E+03  0.12700000000E+01 0.  1.
         25    2    1    2    0    0  0.00000000000E+00  0.00000000000E+00 -0.50325064344E+03  0.51854731700E+03  0.12502043771E+03 0.  0.
    9000005    1    3    3    0    0 -0.17907172795E+01  0.34977877312E+02 -0.36909449191E+02  0.50891708649E+02  0.10000000000E+01 0.  0.
    9000005    1    3    3    0    0  0.17907172795E+01 -0.34977877312E+02 -0.46634119425E+03  0.46765560835E+03  0.10000000000E+01 0.  0.
<mgrwt>
<rscale>  0 0.12502044E+03</rscale>
<asrwt>0</asrwt>
<pdfrwt beam="2">  1        4 0.78599816E-01 0.12502044E+03</pdfrwt>
<pdfrwt beam="1">  1       -4 0.11766676E-02 0.12502044E+03</pdfrwt>
<totfact> 0.54429064E+03</totfact>
</mgrwt>
</event>
<event>
 5    1  0.3398872E-002  0.1250006E+03  0.7818608E-02  0.1235068E+00
          4   -1    0    0  501    0  0.00000000000E+00  0.00000000000E+00  0.89312869375E+02  0.89321898412E+02  0.12700000000E+01 0. -1.
         -4   -1    0    0    0  501 -0.00000000000E+00 -0.00000000000E+00 -0.43716665962E+02  0.43735109269E+02  0.12700000000E+01 0. -1.
         25    2    1    2    0    0  0.00000000000E+00  0.00000000000E+00  0.45596203413E+02  0.13305700768E+03  0.12500061411E+03 0.  0.
    9000005    1    3    3    0    0 -0.53420340887E+02 -0.32061715728E+02  0.17626804342E+02  0.64756394798E+02  0.10000000000E+01 0.  0.
    9000005    1    3    3    0    0  0.53420340887E+02  0.32061715728E+02  0.27969399071E+02  0.68300612884E+02  0.10000000000E+01 0.  0.
<mgrwt>
<rscale>  0 0.12500061E+03</rscale>
<asrwt>0</asrwt>
<pdfrwt beam="1">  1        4 0.13742554E-01 0.12500061E+03</pdfrwt>
<pdfrwt beam="2">  1       -4 0.67277543E-02 0.12500061E+03</pdfrwt>
<totfact> 0.10279046E+04</totfact>
</mgrwt>
</event>
<event>
 5    1  0.3398872E-002  0.1250077E+03  0.7818608E-02  0.1235057E+00
         -4   -1    0    0    0  501 -0.00000000000E+00  0.00000000000E+00  0.13522167891E+02  0.13581676055E+02  0.12700000000E+01 0. -1.
          4   -1    0    0  501    0  0.00000000000E+00 -0.00000000000E+00 -0.28821802293E+03  0.28822082097E+03  0.12700000000E+01 0. -1.
         25    2    1    2    0    0  0.00000000000E+00  0.00000000000E+00 -0.27469585503E+03  0.30180249702E+03  0.12500773750E+03 0.  0.
    9000005    1    3    3    0    0  0.56289657370E+02 -0.11256679549E+02 -0.19700021160E+03  0.20519581314E+03  0.10000000000E+01 0.  0.
    9000005    1    3    3    0    0 -0.56289657370E+02  0.11256679549E+02 -0.77695643436E+02  0.96606683880E+02  0.10000000000E+01 0.  0.
<mgrwt>
<rscale>  0 0.12500774E+03</rscale>
<asrwt>0</asrwt>
<pdfrwt beam="2">  1        4 0.44346022E-01 0.12500774E+03</pdfrwt>
<pdfrwt beam="1">  1       -4 0.20851265E-02 0.12500774E+03</pdfrwt>
<totfact> 0.75360350E+03</totfact>
</mgrwt>
</event>
<event>
 5    1  0.3398872E-002  0.1250001E+03  0.7818608E-02  0.1235069E+00
          4   -1    0    0  501    0  0.00000000000E+00  0.00000000000E+00  0.73196335654E+02  0.73207352453E+02  0.12700000000E+01 0. -1.
         -4   -1    0    0    0  501 -0.00000000000E+00 -0.00000000000E+00 -0.53344235973E+02  0.53359351678E+02  0.12700000000E+01 0. -1.
         25    2    1    2    0    0  0.00000000000E+00  0.00000000000E+00  0.19852099681E+02  0.12656670413E+03  0.12500009893E+03 0.  0.
    9000005    1    3    3    0    0  0.52451985617E+02 -0.17256607296E+02 -0.19702517170E+02  0.58636085079E+02  0.10000000000E+01 0.  0.
    9000005    1    3    3    0    0 -0.52451985617E+02  0.17256607296E+02  0.39554616851E+02  0.67930619052E+02  0.10000000000E+01 0.  0.
<mgrwt>
<rscale>  0 0.12500010E+03</rscale>
<asrwt>0</asrwt>
<pdfrwt beam="1">  1        4 0.11262985E-01 0.12500010E+03</pdfrwt>
<pdfrwt beam="2">  1       -4 0.82088157E-02 0.12500010E+03</pdfrwt>
<totfact> 0.10418551E+04</totfact>
</mgrwt>
</event>
<event>
 5    1  0.3398872E-002  0.1249982E+03  0.7818608E-02  0.1235072E+00
          4   -1    0    0  501    0  0.00000000000E+00  0.00000000000E+00  0.13020140194E+02  0.13081932223E+02  0.12700000000E+01 0. -1.
         -4   -1    0    0    0  501 -0.00000000000E+00 -0.00000000000E+00 -0.29923406294E+03  0.29923675798E+03  0.12700000000E+01 0. -1.
         25    2    1    2    0    0  0.00000000000E+00  0.00000000000E+00 -0.28621392275E+03  0.31231869020E+03  0.12499821868E+03 0.  0.
    9000005    1    3    3    0    0 -0.17795989987E+02 -0.54839578490E+02 -0.20333592675E+03  0.21135414766E+03  0.10000000000E+01 0.  0.
    9000005    1    3    3    0    0  0.17795989987E+02  0.54839578490E+02 -0.82877996000E+02  0.10096454254E+03  0.10000000000E+01 0.  0.
<mgrwt>
<rscale>  0 0.12499822E+03</rscale>
<asrwt>0</asrwt>
<pdfrwt beam="1">  1        4 0.20080593E-02 0.12499822E+03</pdfrwt>
<pdfrwt beam="2">  1       -4 0.46040965E-01 0.12499822E+03</pdfrwt>
<totfact> 0.74082055E+03</totfact>
</mgrwt>
</event>
<event>
 5    1  0.3398872E-002  0.1249923E+03  0.7818608E-02  0.1235081E+00
          4   -1    0    0  501    0  0.00000000000E+00  0.00000000000E+00  0.93072364347E+02  0.93081028707E+02  0.12700000000E+01 0.  1.
         -4   -1    0    0    0  501 -0.00000000000E+00 -0.00000000000E+00 -0.41944617534E+02  0.41963839672E+02  0.12700000000E+01 0.  1.
         25    2    1    2    0    0  0.00000000000E+00  0.00000000000E+00  0.51127746813E+02  0.13504486838E+03  0.12499227969E+03 0.  0.
    9000005    1    3    3    0    0  0.18089182260E+02  0.53124981092E+02 -0.41288772593E+01  0.56280811635E+02  0.10000000000E+01 0.  0.
    9000005    1    3    3    0    0 -0.18089182260E+02 -0.53124981092E+02  0.55256624072E+02  0.78764056744E+02  0.10000000000E+01 0.  0.
<mgrwt>
<rscale>  0 0.12499228E+03</rscale>
<asrwt>0</asrwt>
<pdfrwt beam="1">  1        4 0.14320970E-01 0.12499228E+03</pdfrwt>
<pdfrwt beam="2">  1       -4 0.64551633E-02 0.12499228E+03</pdfrwt>
<totfact> 0.10238908E+04</totfact>
</mgrwt>
</event>
<event>
 5    1  0.3398872E-002  0.1250036E+03  0.7818608E-02  0.1235064E+00
         -4   -1    0    0    0  501 -0.00000000000E+00  0.00000000000E+00  0.10953373480E+02  0.11026753402E+02  0.12700000000E+01 0.  1.
          4   -1    0    0  501    0  0.00000000000E+00 -0.00000000000E+00 -0.35538062905E+03  0.35538289830E+03  0.12700000000E+01 0.  1.
         25    2    1    2    0    0  0.00000000000E+00  0.00000000000E+00 -0.34442725557E+03  0.36640965170E+03  0.12500359387E+03 0.  0.
    9000005    1    3    3    0    0  0.32054165552E+02  0.24816992531E+02 -0.32800903176E+02  0.52156034135E+02  0.10000000000E+01 0.  0.
    9000005    1    3    3    0    0 -0.32054165552E+02 -0.24816992531E+02 -0.31162635239E+03  0.31425361757E+03  0.10000000000E+01 0.  0.
<mgrwt>
<rscale>  0 0.12500359E+03</rscale>
<asrwt>0</asrwt>
<pdfrwt beam="2">  1        4 0.54679753E-01 0.12500359E+03</pdfrwt>
<pdfrwt beam="1">  1       -4 0.16909538E-02 0.12500359E+03</pdfrwt>
<totfact> 0.67950839E+03</totfact>
</mgrwt>
</event>
<event>
 5    1  0.3398872E-002  0.1250041E+03  0.7818608E-02  0.1235063E+00
          4   -1    0    0  501    0  0.00000000000E+00  0.00000000000E+00  0.15793132766E+03  0.15793643391E+03  0.12700000000E+01 0.  1.
         -4   -1    0    0    0  501 -0.00000000000E+00 -0.00000000000E+00 -0.24713675212E+02  0.24746285428E+02  0.12700000000E+01 0.  1.
         25    2    1    2    0    0  0.00000000000E+00  0.00000000000E+00  0.13321765245E+03  0.18268271934E+03  0.12500413201E+03 0.  0.
    9000005    1    3    3    0    0  0.37685001496E+02 -0.19250520659E+02 -0.59659334130E+00  0.42333176198E+02  0.10000000000E+01 0.  0.
    9000005    1    3    3    0    0 -0.37685001496E+02  0.19250520659E+02  0.13381424579E+03  0.14034954314E+03  0.10000000000E+01 0.  0.
<mgrwt>
<rscale>  0 0.12500413E+03</rscale>
<asrwt>0</asrwt>
<pdfrwt beam="1">  1        4 0.24300029E-01 0.12500413E+03</pdfrwt>
<pdfrwt beam="2">  1       -4 0.38050051E-02 0.12500413E+03</pdfrwt>
<totfact> 0.93127695E+03</totfact>
</mgrwt>
</event>
<event>
 4    1  0.3398872E-002  0.1251852E+03  0.7818608E-02  0.1234780E+00
          4   -1    0    0  501    0  0.00000000000E+00  0.00000000000E+00  0.31758685442E+03  0.31758939372E+03  0.12700000000E+01 0. -1.
         -4   -1    0    0    0  501 -0.00000000000E+00 -0.00000000000E+00 -0.12300976189E+02  0.12366362246E+02  0.12700000000E+01 0. -1.
    9000005    1    1    2    0    0  0.14775138290E+02 -0.37208576852E+02  0.27943414884E+03  0.28228926023E+03  0.10000000000E+01 0.  0.
    9000005    1    1    2    0    0 -0.14775138290E+02  0.37208576852E+02  0.25851729391E+02  0.47666495732E+02  0.10000000000E+01 0.  0.
<mgrwt>
<rscale>  0 0.12518520E+03</rscale>
<asrwt>0</asrwt>
<pdfrwt beam="1">  1        4 0.48864735E-01 0.12518520E+03</pdfrwt>
<pdfrwt beam="2">  1       -4 0.18976832E-02 0.12518520E+03</pdfrwt>
<totfact> 0.71692900E+03</totfact>
</mgrwt>
</event>
<event>
 5    1  0.3398872E-002  0.1250024E+03  0.7818608E-02  0.1235066E+00
          4   -1    0    0  501    0  0.00000000000E+00  0.00000000000E+00  0.54986451443E+03  0.54986598106E+03  0.12700000000E+01 0. -1.
         -4   -1    0    0    0  501 -0.00000000000E+00 -0.00000000000E+00 -0.70460460132E+01  0.71595854922E+01  0.12700000000E+01 0. -1.
         25    2    1    2    0    0  0.00000000000E+00  0.00000000000E+00  0.54281846842E+03  0.55702556655E+03  0.12500236854E+03 0.  0.
    9000005    1    3    3    0    0  0.50624653334E+02 -0.74547715236E+01  0.43126964020E+03  0.43429590339E+03  0.10000000000E+01 0.  0.
    9000005    1    3    3    0    0 -0.50624653334E+02  0.74547715236E+01  0.11154882821E+03  0.12272966316E+03  0.10000000000E+01 0.  0.
<mgrwt>
<rscale>  0 0.12500237E+03</rscale>
<asrwt>0</asrwt>
<pdfrwt beam="1">  1        4 0.84603394E-01 0.12500237E+03</pdfrwt>
<pdfrwt beam="2">  1       -4 0.10928536E-02 0.12500237E+03</pdfrwt>
<totfact> 0.51695035E+03</totfact>
</mgrwt>
</event>
<event>
 5    1  0.3398872E-002  0.1250024E+03  0.7818608E-02  0.1235066E+00
         -4   -1    0    0    0  501 -0.00000000000E+00  0.00000000000E+00  0.65933356137E+01  0.67145345718E+01  0.12700000000E+01 0. -1.
          4   -1    0    0  501    0  0.00000000000E+00 -0.00000000000E+00 -0.58695943724E+03  0.58696081118E+03  0.12700000000E+01 0. -1.
         25    2    1    2    0    0  0.00000000000E+00  0.00000000000E+00 -0.58036610162E+03  0.59367534575E+03  0.12500241694E+03 0.  0.
    9000005    1    3    3    0    0  0.12604456772E+02  0.49849485102E+02 -0.12149507005E+03  0.13193140468E+03  0.10000000000E+01 0.  0.
    9000005    1    3    3    0    0 -0.12604456772E+02 -0.49849485102E+02 -0.45887103158E+03  0.46174394107E+03  0.10000000000E+01 0.  0.
<mgrwt>
<rscale>  0 0.12500242E+03</rscale>
<asrwt>0</asrwt>
<pdfrwt beam="2">  1        4 0.90310839E-01 0.12500242E+03</pdfrwt>
<pdfrwt beam="1">  1       -4 0.10237885E-02 0.12500242E+03</pdfrwt>
<totfact> 0.49266695E+03</totfact>
</mgrwt>
</event>
<event>
 5    1  0.3398872E-002  0.1249999E+03  0.7818608E-02  0.1235070E+00
          4   -1    0    0  501    0  0.00000000000E+00  0.00000000000E+00  0.79626478030E+02  0.79636605299E+02  0.12700000000E+01 0. -1.
         -4   -1    0    0    0  501 -0.00000000000E+00 -0.00000000000E+00 -0.49035593986E+02  0.49052037445E+02  0.12700000000E+01 0. -1.
         25    2    1    2    0    0  0.00000000000E+00  0.00000000000E+00  0.30590884044E+02  0.12868864274E+03  0.12499985834E+03 0.  0.
    9000005    1    3    3    0    0 -0.39766258796E+02  0.18135109634E+02  0.61278996867E+02  0.75275181813E+02  0.10000000000E+01 0.  0.
    9000005    1    3    3    0    0  0.39766258796E+02 -0.18135109634E+02 -0.30688112822E+02  0.53413460931E+02  0.10000000000E+01 0.  0.
<mgrwt>
<rscale>  0 0.12499986E+03</rscale>
<asrwt>0</asrwt>
<pdfrwt beam="1">  1        4 0.12252271E-01 0.12499986E+03</pdfrwt>
<pdfrwt beam="2">  1       -4 0.75459815E-02 0.12499986E+03</pdfrwt>
<totfact> 0.10372675E+04</totfact>
</mgrwt>
</event>
<event>
 5    1  0.3398872E-002  0.1249986E+03  0.7818608E-02  0.1235071E+00
          4   -1    0    0  501    0  0.00000000000E+00  0.00000000000E+00  0.17924972906E+03  0.17925422804E+03  0.12700000000E+01 0.  1.
         -4   -1    0    0    0  501 -0.00000000000E+00 -0.00000000000E+00 -0.21768464101E+02  0.21805479342E+02  0.12700000000E+01 0.  1.
         25    2    1    2    0    0  0.00000000000E+00  0.00000000000E+00  0.15748126496E+03  0.20105970738E+03  0.12499862846E+03 0.  0.
    9000005    1    3    3    0    0  0.10045239545E+02 -0.27469960617E+02  0.16756771905E+03  0.17010422112E+03  0.10000000000E+01 0.  0.
    9000005    1    3    3    0    0 -0.10045239545E+02  0.27469960617E+02 -0.10086454087E+02  0.30955486264E+02  0.10000000000E+01 0.  0.
<mgrwt>
<rscale>  0 0.12499863E+03</rscale>
<asrwt>0</asrwt>
<pdfrwt beam="1">  1        4 0.27580075E-01 0.12499863E+03</pdfrwt>
<pdfrwt beam="2">  1       -4 0.33521878E-02 0.12499863E+03</pdfrwt>
<totfact> 0.89959845E+03</totfact>
</mgrwt>
</event>
<event>
 5    1  0.3398872E-002  0.1249979E+03  0.7818608E-02  0.1235073E+00
          4   -1    0    0  501    0  0.00000000000E+00  0.00000000000E+00  0.87950013686E+02  0.87959182621E+02  0.12700000000E+01 0.  1.
         -4   -1    0    0    0  501 -0.00000000000E+00 -0.00000000000E+00 -0.44392389668E+02  0.44410552354E+02  0.12700000000E+01 0.  1.
         25    2    1    2    0    0  0.00000000000E+00  0.00000000000E+00  0.43557624019E+02  0.13236973498E+03  0.12499792049E+03 0.  0.
    9000005    1    3    3    0    0  0.44743217193E+01 -0.34489114617E+02  0.76759953473E+02  0.84276978108E+02  0.10000000000E+01 0.  0.
    9000005    1    3    3    0    0 -0.44743217193E+01  0.34489114617E+02 -0.33202329454E+02  0.48092756867E+02  0.10000000000E+01 0.  0.
<mgrwt>
<rscale>  0 0.12499792E+03</rscale>
<asrwt>0</asrwt>
<pdfrwt beam="1">  1        4 0.13532874E-01 0.12499792E+03</pdfrwt>
<pdfrwt beam="2">  1       -4 0.68317009E-02 0.12499792E+03</pdfrwt>
<totfact> 0.10294296E+04</totfact>
</mgrwt>
</event>
<event>
 5    1  0.3398872E-002  0.1250008E+03  0.7818608E-02  0.1235068E+00
         -4   -1    0    0    0  501 -0.00000000000E+00  0.00000000000E+00  0.13453154845E+03  0.13453754282E+03  0.12700000000E+01 0. -1.
          4   -1    0    0  501    0  0.00000000000E+00 -0.00000000000E+00 -0.29015761214E+02  0.29043541431E+02  0.12700000000E+01 0. -1.
         25    2    1    2    0    0  0.00000000000E+00  0.00000000000E+00  0.10551578724E+03  0.16358108425E+03  0.12500075907E+03 0.  0.
    9000005    1    3    3    0    0  0.25980689096E+02  0.76995304564E+01 -0.20934017191E+02  0.34256562158E+02  0.10000000000E+01 0.  0.
    9000005    1    3    3    0    0 -0.25980689096E+02 -0.76995304564E+01  0.12644980443E+03  0.12932452209E+03  0.10000000000E+01 0.  0.
<mgrwt>
<rscale>  0 0.12500076E+03</rscale>
<asrwt>0</asrwt>
<pdfrwt beam="2">  1        4 0.44665612E-02 0.12500076E+03</pdfrwt>
<pdfrwt beam="1">  1       -4 0.20699760E-01 0.12500076E+03</pdfrwt>
<totfact> 0.96655140E+03</totfact>
</mgrwt>
</event>
<event>
 5    1  0.3398872E-002  0.1250011E+03  0.7818608E-02  0.1235068E+00
         -4   -1    0    0    0  501 -0.00000000000E+00  0.00000000000E+00  0.10021498060E+02  0.10101649537E+02  0.12700000000E+01 0.  1.
          4   -1    0    0  501    0  0.00000000000E+00 -0.00000000000E+00 -0.38815999605E+03  0.38816207366E+03  0.12700000000E+01 0.  1.
         25    2    1    2    0    0  0.00000000000E+00  0.00000000000E+00 -0.37813849799E+03  0.39826372320E+03  0.12500107823E+03 0.  0.
    9000005    1    3    3    0    0  0.27403142811E+02  0.53573594155E+02 -0.24278617736E+03  0.25013434419E+03  0.10000000000E+01 0.  0.
    9000005    1    3    3    0    0 -0.27403142811E+02 -0.53573594155E+02 -0.13535232062E+03  0.14812937901E+03  0.10000000000E+01 0.  0.
<mgrwt>
<rscale>  0 0.12500108E+03</rscale>
<asrwt>0</asrwt>
<pdfrwt beam="2">  1        4 0.59723236E-01 0.12500108E+03</pdfrwt>
<pdfrwt beam="1">  1       -4 0.15480945E-02 0.12500108E+03</pdfrwt>
<totfact> 0.64720473E+03</totfact>
</mgrwt>
</event>
<event>
 5    1  0.3398872E-002  0.1249991E+03  0.7818608E-02  0.1235071E+00
          4   -1    0    0  501    0  0.00000000000E+00  0.00000000000E+00  0.18306683401E+02  0.18350682743E+02  0.12700000000E+01 0. -1.
         -4   -1    0    0    0  501 -0.00000000000E+00 -0.00000000000E+00 -0.21307342261E+03  0.21307720742E+03  0.12700000000E+01 0. -1.
         25    2    1    2    0    0  0.00000000000E+00  0.00000000000E+00 -0.19476673921E+03  0.23142789017E+03  0.12499914257E+03 0.  0.
    9000005    1    3    3    0    0 -0.41411263825E+02 -0.39629300391E+02 -0.51289600479E+02  0.76922021153E+02  0.10000000000E+01 0.  0.
    9000005    1    3    3    0    0  0.41411263825E+02  0.39629300391E+02 -0.14347713873E+03  0.15450586901E+03  0.10000000000E+01 0.  0.
<mgrwt>
<rscale>  0 0.12499914E+03</rscale>
<asrwt>0</asrwt>
<pdfrwt beam="1">  1        4 0.28200887E-02 0.12499914E+03</pdfrwt>
<pdfrwt beam="2">  1       -4 0.32784200E-01 0.12499914E+03</pdfrwt>
<totfact> 0.85092453E+03</totfact>
</mgrwt>
</event>
<event>
 5    1  0.3398872E-002  0.1250044E+03  0.7818608E-02  0.1235062E+00
          4   -1    0    0  501    0  0.00000000000E+00  0.00000000000E+00  0.21828708208E+02  0.21865621465E+02  0.12700000000E+01 0. -1.
         -4   -1    0    0    0  501 -0.00000000000E+00 -0.00000000000E+00 -0.17877224773E+03  0.17877675872E+03  0.12700000000E+01 0. -1.
         25    2    1    2    0    0  0.00000000000E+00  0.00000000000E+00 -0.15694353952E+03  0.20064238019E+03  0.12500436044E+03 0.  0.
    9000005    1    3    3    0    0  0.59450007088E+02  0.72575002919E+01 -0.49824392493E+02  0.77913058857E+02  0.10000000000E+01 0.  0.
    9000005    1    3    3    0    0 -0.59450007088E+02 -0.72575002919E+01 -0.10711914703E+03  0.12272932133E+03  0.10000000000E+01 0.  0.
<mgrwt>
<rscale>  0 0.12500436E+03</rscale>
<asrwt>0</asrwt>
<pdfrwt beam="1">  1        4 0.33614494E-02 0.12500436E+03</pdfrwt>
<pdfrwt beam="2">  1       -4 0.27506608E-01 0.12500436E+03</pdfrwt>
<totfact> 0.90018494E+03</totfact>
</mgrwt>
</event>
<event>
 5    1  0.3398872E-002  0.1249976E+03  0.7818608E-02  0.1235073E+00
         -4   -1    0    0    0  501 -0.00000000000E+00  0.00000000000E+00  0.11102886893E+02  0.11175285113E+02  0.12700000000E+01 0.  1.
          4   -1    0    0  501    0  0.00000000000E+00 -0.00000000000E+00 -0.35059264963E+03  0.35059494988E+03  0.12700000000E+01 0.  1.
         25    2    1    2    0    0  0.00000000000E+00  0.00000000000E+00 -0.33948976274E+03  0.36177023499E+03  0.12499761565E+03 0.  0.
    9000005    1    3    3    0    0 -0.15621519341E+02 -0.34960700690E+01 -0.34457204287E+03  0.34494513636E+03  0.10000000000E+01 0.  0.
    9000005    1    3    3    0    0  0.15621519341E+02  0.34960700690E+01  0.50822801286E+01  0.16825098626E+02  0.10000000000E+01 0.  0.
<mgrwt>
<rscale>  0 0.12499762E+03</rscale>
<asrwt>0</asrwt>
<pdfrwt beam="2">  1        4 0.53943068E-01 0.12499762E+03</pdfrwt>
<pdfrwt beam="1">  1       -4 0.17138828E-02 0.12499762E+03</pdfrwt>
<totfact> 0.68452418E+03</totfact>
</mgrwt>
</event>
<event>
 5    1  0.3398872E-002  0.1249994E+03  0.7818608E-02  0.1235070E+00
         -4   -1    0    0    0  501 -0.00000000000E+00  0.00000000000E+00  0.23491577135E+02  0.23525881413E+02  0.12700000000E+01 0. -1.
          4   -1    0    0  501    0  0.00000000000E+00 -0.00000000000E+00 -0.16612336435E+03  0.16612821880E+03  0.12700000000E+01 0. -1.
         25    2    1    2    0    0  0.00000000000E+00  0.00000000000E+00 -0.14263178722E+03  0.18965410022E+03  0.12499940402E+03 0.  0.
    9000005    1    3    3    0    0 -0.54333720161E+02  0.28162238897E+02 -0.90504506082E+02  0.10925809108E+03  0.10000000000E+01 0.  0.
    9000005    1    3    3    0    0  0.54333720161E+02 -0.28162238897E+02 -0.52127281134E+02  0.80396009134E+02  0.10000000000E+01 0.  0.
<mgrwt>
<rscale>  0 0.12499940E+03</rscale>
<asrwt>0</asrwt>
<pdfrwt beam="2">  1        4 0.25560452E-01 0.12499940E+03</pdfrwt>
<pdfrwt beam="1">  1       -4 0.36171011E-02 0.12499940E+03</pdfrwt>
<totfact> 0.91908762E+03</totfact>
</mgrwt>
</event>
<event>
 5    1  0.3398872E-002  0.1249941E+03  0.7818608E-02  0.1235079E+00
         -4   -1    0    0    0  501 -0.00000000000E+00  0.00000000000E+00  0.70895843886E+02  0.70907218112E+02  0.12700000000E+01 0.  1.
          4   -1    0    0  501    0  0.00000000000E+00 -0.00000000000E+00 -0.55070087915E+02  0.55084730034E+02  0.12700000000E+01 0.  1.
         25    2    1    2    0    0  0.00000000000E+00  0.00000000000E+00  0.15825755971E+02  0.12599194815E+03  0.12499406564E+03 0.  0.
    9000005    1    3    3    0    0 -0.24744583753E+02 -0.51905013068E+02 -0.16745749191E+02  0.59898622044E+02  0.10000000000E+01 0.  0.
    9000005    1    3    3    0    0  0.24744583753E+02  0.51905013068E+02  0.32571505162E+02  0.66093326102E+02  0.10000000000E+01 0.  0.
<mgrwt>
<rscale>  0 0.12499407E+03</rscale>
<asrwt>0</asrwt>
<pdfrwt beam="2">  1        4 0.84743225E-02 0.12499407E+03</pdfrwt>
<pdfrwt beam="1">  1       -4 0.10909054E-01 0.12499407E+03</pdfrwt>
<totfact> 0.10432530E+04</totfact>
</mgrwt>
</event>
<event>
 5    1  0.3398872E-002  0.1250011E+03  0.7818608E-02  0.1235068E+00
          4   -1    0    0  501    0  0.00000000000E+00  0.00000000000E+00  0.33798812375E+01  0.36106089763E+01  0.12700000000E+01 0.  1.
         -4   -1    0    0    0  501 -0.00000000000E+00 -0.00000000000E+00 -0.11173778442E+04  0.11173785659E+04  0.12700000000E+01 0.  1.
         25    2    1    2    0    0  0.00000000000E+00  0.00000000000E+00 -0.11139979630E+04  0.11209891749E+04  0.12500107512E+03 0.  0.
    9000005    1    3    3    0    0 -0.13789063639E+02  0.59932809629E+02 -0.45744499198E+03  0.46156148088E+03  0.10000000000E+01 0.  0.
    9000005    1    3    3    0    0  0.13789063639E+02 -0.59932809629E+02 -0.65655297097E+03  0.65942769402E+03  0.10000000000E+01 0.  0.
<mgrwt>
<rscale>  0 0.12500108E+03</rscale>
<asrwt>0</asrwt>
<pdfrwt beam="1">  1        4 0.53778643E-03 0.12500108E+03</pdfrwt>
<pdfrwt beam="2">  1       -4 0.17192180E+00 0.12500108E+03</pdfrwt>
<totfact> 0.26876503E+03</totfact>
</mgrwt>
</event>
<event>
 5    1  0.3398872E-002  0.1250485E+03  0.7818608E-02  0.1234994E+00
         -4   -1    0    0    0  501 -0.00000000000E+00  0.00000000000E+00  0.56924595091E+02  0.56938760315E+02  0.12700000000E+01 0. -1.
          4   -1    0    0  501    0  0.00000000000E+00 -0.00000000000E+00 -0.68646145032E+02  0.68657891956E+02  0.12700000000E+01 0. -1.
         25    2    1    2    0    0  0.00000000000E+00  0.00000000000E+00 -0.11721549942E+02  0.12559665227E+03  0.12504848791E+03 0.  0.
    9000005    1    3    3    0    0 -0.34739994031E+02 -0.84271018665E+01 -0.57373003588E+02  0.67605804276E+02  0.10000000000E+01 0.  0.
    9000005    1    3    3    0    0  0.34739994031E+02  0.84271018665E+01  0.45651453646E+02  0.57990847995E+02  0.10000000000E+01 0.  0.
<mgrwt>
<rscale>  0 0.12504849E+03</rscale>
<asrwt>0</asrwt>
<pdfrwt beam="2">  1        4 0.10562939E-01 0.12504849E+03</pdfrwt>
<pdfrwt beam="1">  1       -4 0.87596232E-02 0.12504849E+03</pdfrwt>
<totfact> 0.10428410E+04</totfact>
</mgrwt>
</event>
<event>
 5    1  0.3398872E-002  0.1250000E+03  0.7818608E-02  0.1235069E+00
         -4   -1    0    0    0  501 -0.00000000000E+00  0.00000000000E+00  0.50482991196E+01  0.52055954511E+01  0.12700000000E+01 0.  1.
          4   -1    0    0  501    0  0.00000000000E+00 -0.00000000000E+00 -0.76174721465E+03  0.76174827333E+03  0.12700000000E+01 0.  1.
         25    2    1    2    0    0  0.00000000000E+00  0.00000000000E+00 -0.75669891553E+03  0.76695386878E+03  0.12499995232E+03 0.  0.
    9000005    1    3    3    0    0 -0.50030285737E+02 -0.18902651042E+01 -0.60781266250E+03  0.60987198270E+03  0.10000000000E+01 0.  0.
    9000005    1    3    3    0    0  0.50030285737E+02  0.18902651042E+01 -0.14888625303E+03  0.15708188608E+03  0.10000000000E+01 0.  0.
<mgrwt>
<rscale>  0 0.12499995E+03</rscale>
<asrwt>0</asrwt>
<pdfrwt beam="2">  1        4 0.11720397E+00 0.12499995E+03</pdfrwt>
<pdfrwt beam="1">  1       -4 0.78884316E-03 0.12499995E+03</pdfrwt>
<totfact> 0.39776129E+03</totfact>
</mgrwt>
</event>
<event>
 5    1  0.3398872E-002  0.1250003E+03  0.7818608E-02  0.1235069E+00
          4   -1    0    0  501    0  0.00000000000E+00  0.00000000000E+00  0.20084995036E+02  0.20125106847E+02  0.12700000000E+01 0. -1.
         -4   -1    0    0    0  501 -0.00000000000E+00 -0.00000000000E+00 -0.19425085847E+03  0.19425501002E+03  0.12700000000E+01 0. -1.
         25    2    1    2    0    0  0.00000000000E+00  0.00000000000E+00 -0.17416586343E+03  0.21438011686E+03  0.12500034608E+03 0.  0.
    9000005    1    3    3    0    0  0.59630509746E+02 -0.17887165656E+02 -0.96401631345E+02  0.11476072026E+03  0.10000000000E+01 0.  0.
    9000005    1    3    3    0    0 -0.59630509746E+02  0.17887165656E+02 -0.77764232090E+02  0.99619396607E+02  0.10000000000E+01 0.  0.
<mgrwt>
<rscale>  0 0.12500035E+03</rscale>
<asrwt>0</asrwt>
<pdfrwt beam="1">  1        4 0.30934043E-02 0.12500035E+03</pdfrwt>
<pdfrwt beam="2">  1       -4 0.29888151E-01 0.12500035E+03</pdfrwt>
<totfact> 0.87764831E+03</totfact>
</mgrwt>
</event>
<event>
 5    1  0.3398872E-002  0.1250033E+03  0.7818608E-02  0.1235064E+00
          4   -1    0    0  501    0  0.00000000000E+00  0.00000000000E+00  0.14322831743E+03  0.14323394784E+03  0.12700000000E+01 0. -1.
         -4   -1    0    0    0  501 -0.00000000000E+00 -0.00000000000E+00 -0.27253385004E+02  0.27282959777E+02  0.12700000000E+01 0. -1.
         25    2    1    2    0    0  0.00000000000E+00  0.00000000000E+00  0.11597493242E+03  0.17051690761E+03  0.12500332328E+03 0.  0.
    9000005    1    3    3    0    0  0.11279284482E+02  0.60862487683E+02  0.69721337808E+02  0.93239099154E+02  0.10000000000E+01 0.  0.
    9000005    1    3    3    0    0 -0.11279284482E+02 -0.60862487683E+02  0.46253594614E+02  0.77277808458E+02  0.10000000000E+01 0.  0.
<mgrwt>
<rscale>  0 0.12500332E+03</rscale>
<asrwt>0</asrwt>
<pdfrwt beam="1">  1        4 0.22037834E-01 0.12500332E+03</pdfrwt>
<pdfrwt beam="2">  1       -4 0.41955366E-02 0.12500332E+03</pdfrwt>
<totfact> 0.95345268E+03</totfact>
</mgrwt>
</event>
<event>
 5    1  0.3398872E-002  0.1250007E+03  0.7818608E-02  0.1235068E+00
          4   -1    0    0  501    0  0.00000000000E+00  0.00000000000E+00  0.20199725212E+02  0.20239609646E+02  0.12700000000E+01 0. -1.
         -4   -1    0    0    0  501 -0.00000000000E+00 -0.00000000000E+00 -0.19315083415E+03  0.19315500934E+03  0.12700000000E+01 0. -1.
         25    2    1    2    0    0  0.00000000000E+00  0.00000000000E+00 -0.17295110894E+03  0.21339461899E+03  0.12500070931E+03 0.  0.
    9000005    1    3    3    0    0  0.44255792890E+02 -0.17089732676E+02 -0.17033047295E+02  0.50415859284E+02  0.10000000000E+01 0.  0.
    9000005    1    3    3    0    0 -0.44255792890E+02  0.17089732676E+02 -0.15591806164E+03  0.16297875970E+03  0.10000000000E+01 0.  0.
<mgrwt>
<rscale>  0 0.12500071E+03</rscale>
<asrwt>0</asrwt>
<pdfrwt beam="1">  1        4 0.31110394E-02 0.12500071E+03</pdfrwt>
<pdfrwt beam="2">  1       -4 0.29718901E-01 0.12500071E+03</pdfrwt>
<totfact> 0.87923085E+03</totfact>
</mgrwt>
</event>
<event>
 5    1  0.3398872E-002  0.1250472E+03  0.7818608E-02  0.1234996E+00
          4   -1    0    0  501    0  0.00000000000E+00  0.00000000000E+00  0.74582943818E+02  0.74593755829E+02  0.12700000000E+01 0. -1.
         -4   -1    0    0    0  501 -0.00000000000E+00 -0.00000000000E+00 -0.52391832108E+02  0.52407222514E+02  0.12700000000E+01 0. -1.
         25    2    1    2    0    0  0.00000000000E+00  0.00000000000E+00  0.22191111710E+02  0.12700097834E+03  0.12504720333E+03 0.  0.
    9000005    1    3    3    0    0 -0.50870620736E+02 -0.36207622084E+02  0.79835639688E+01  0.62956725174E+02  0.10000000000E+01 0.  0.
    9000005    1    3    3    0    0  0.50870620736E+02  0.36207622084E+02  0.14207547741E+02  0.64044253168E+02  0.10000000000E+01 0.  0.
<mgrwt>
<rscale>  0 0.12504720E+03</rscale>
<asrwt>0</asrwt>
<pdfrwt beam="1">  1        4 0.11476315E-01 0.12504720E+03</pdfrwt>
<pdfrwt beam="2">  1       -4 0.80622974E-02 0.12504720E+03</pdfrwt>
<totfact> 0.10398041E+04</totfact>
</mgrwt>
</event>
<event>
 5    1  0.3398872E-002  0.1249899E+03  0.7818608E-02  0.1235085E+00
          4   -1    0    0  501    0  0.00000000000E+00  0.00000000000E+00  0.17998717386E+04  0.17998721867E+04  0.12700000000E+01 0.  1.
         -4   -1    0    0    0  501 -0.00000000000E+00 -0.00000000000E+00 -0.19836338238E+01  0.23553562675E+01  0.12700000000E+01 0.  1.
         25    2    1    2    0    0  0.00000000000E+00  0.00000000000E+00  0.17978881048E+04  0.18022275429E+04  0.12498991635E+03 0.  0.
    9000005    1    3    3    0    0 -0.26671259340E+02 -0.54077430236E+02  0.66250118372E+03  0.66524021449E+03  0.10000000000E+01 0.  0.
    9000005    1    3    3    0    0  0.26671259340E+02  0.54077430236E+02  0.11353869211E+04  0.11369873285E+04  0.10000000000E+01 0.  0.
<mgrwt>
<rscale>  0 0.12498992E+03</rscale>
<asrwt>0</asrwt>
<pdfrwt beam="1">  1        4 0.27693172E+00 0.12498992E+03</pdfrwt>
<pdfrwt beam="2">  1       -4 0.33380324E-03 0.12498992E+03</pdfrwt>
<totfact> 0.12672030E+03</totfact>
</mgrwt>
</event>
<event>
 5    1  0.3398872E-002  0.1250493E+03  0.7818608E-02  0.1234992E+00
          4   -1    0    0  501    0  0.00000000000E+00  0.00000000000E+00  0.27053841021E+03  0.27054139110E+03  0.12700000000E+01 0. -1.
         -4   -1    0    0    0  501 -0.00000000000E+00 -0.00000000000E+00 -0.14419230734E+02  0.14475051467E+02  0.12700000000E+01 0. -1.
         25    2    1    2    0    0  0.00000000000E+00  0.00000000000E+00  0.25611917948E+03  0.28501644257E+03  0.12504934402E+03 0.  0.
    9000005    1    3    3    0    0  0.47389370168E+02  0.39889411392E+02  0.10879811693E+03  0.12519963176E+03  0.10000000000E+01 0.  0.
    9000005    1    3    3    0    0 -0.47389370168E+02 -0.39889411392E+02  0.14732106255E+03  0.15981681081E+03  0.10000000000E+01 0.  0.
<mgrwt>
<rscale>  0 0.12504934E+03</rscale>
<asrwt>0</asrwt>
<pdfrwt beam="1">  1        4 0.41625812E-01 0.12504934E+03</pdfrwt>
<pdfrwt beam="2">  1       -4 0.22228667E-02 0.12504934E+03</pdfrwt>
<totfact> 0.77432698E+03</totfact>
</mgrwt>
</event>
<event>
 5    1  0.3398872E-002  0.1250010E+03  0.7818608E-02  0.1235068E+00
         -4   -1    0    0    0  501 -0.00000000000E+00  0.00000000000E+00  0.12922052873E+02  0.12984311705E+02  0.12700000000E+01 0. -1.
          4   -1    0    0  501    0  0.00000000000E+00 -0.00000000000E+00 -0.30150818755E+03  0.30151086226E+03  0.12700000000E+01 0. -1.
         25    2    1    2    0    0  0.00000000000E+00  0.00000000000E+00 -0.28858613468E+03  0.31449517396E+03  0.12500102927E+03 0.  0.
    9000005    1    3    3    0    0  0.27475751349E+02 -0.41866065217E+02 -0.23835123273E+03  0.24355696351E+03  0.10000000000E+01 0.  0.
    9000005    1    3    3    0    0 -0.27475751349E+02  0.41866065217E+02 -0.50234901946E+02  0.70938210455E+02  0.10000000000E+01 0.  0.
<mgrwt>
<rscale>  0 0.12500103E+03</rscale>
<asrwt>0</asrwt>
<pdfrwt beam="2">  1        4 0.46390865E-01 0.12500103E+03</pdfrwt>
<pdfrwt beam="1">  1       -4 0.19930032E-02 0.12500103E+03</pdfrwt>
<totfact> 0.73813988E+03</totfact>
</mgrwt>
</event>
<event>
 5    1  0.3398872E-002  0.1249909E+03  0.7818608E-02  0.1235083E+00
         -4   -1    0    0    0  501 -0.00000000000E+00  0.00000000000E+00  0.10414957938E+04  0.10414965681E+04  0.12700000000E+01 0. -1.
          4   -1    0    0  501    0  0.00000000000E+00 -0.00000000000E+00 -0.36417481234E+01  0.38568418939E+01  0.12700000000E+01 0. -1.
         25    2    1    2    0    0  0.00000000000E+00  0.00000000000E+00  0.10378540457E+04  0.10453534100E+04  0.12499092646E+03 0.  0.
    9000005    1    3    3    0    0 -0.35867373198E+02  0.25276256473E+02  0.14684109661E+03  0.15326012284E+03  0.10000000000E+01 0.  0.
    9000005    1    3    3    0    0  0.35867373198E+02 -0.25276256473E+02  0.89101294906E+03  0.89209328716E+03  0.10000000000E+01 0.  0.
<mgrwt>
<rscale>  0 0.12499093E+03</rscale>
<asrwt>0</asrwt>
<pdfrwt beam="2">  1        4 0.57687496E-03 0.12499093E+03</pdfrwt>
<pdfrwt beam="1">  1       -4 0.16024651E+00 0.12499093E+03</pdfrwt>
<totfact> 0.29146108E+03</totfact>
</mgrwt>
</event>
<event>
 5    1  0.3398872E-002  0.1249991E+03  0.7818608E-02  0.1235071E+00
         -4   -1    0    0    0  501 -0.00000000000E+00  0.00000000000E+00  0.31344753509E+03  0.31345010791E+03  0.12700000000E+01 0. -1.
          4   -1    0    0  501    0  0.00000000000E+00 -0.00000000000E+00 -0.12427037123E+02  0.12491763352E+02  0.12700000000E+01 0. -1.
         25    2    1    2    0    0  0.00000000000E+00  0.00000000000E+00  0.30102049796E+03  0.32594187127E+03  0.12499905300E+03 0.  0.
    9000005    1    3    3    0    0 -0.56637445108E+02 -0.24766432801E+02  0.12660956246E+03  0.14089768517E+03  0.10000000000E+01 0.  0.
    9000005    1    3    3    0    0  0.56637445108E+02  0.24766432801E+02  0.17441093551E+03  0.18504418609E+03  0.10000000000E+01 0.  0.
<mgrwt>
<rscale>  0 0.12499905E+03</rscale>
<asrwt>0</asrwt>
<pdfrwt beam="2">  1        4 0.19170286E-02 0.12499905E+03</pdfrwt>
<pdfrwt beam="1">  1       -4 0.48227878E-01 0.12499905E+03</pdfrwt>
<totfact> 0.72456464E+03</totfact>
</mgrwt>
</event>
<event>
 5    1  0.3398872E-002  0.1250048E+03  0.7818608E-02  0.1235062E+00
          4   -1    0    0  501    0  0.00000000000E+00  0.00000000000E+00  0.12073370717E+02  0.12139982721E+02  0.12700000000E+01 0.  1.
         -4   -1    0    0    0  501 -0.00000000000E+00 -0.00000000000E+00 -0.32260963276E+03  0.32261213252E+03  0.12700000000E+01 0.  1.
         25    2    1    2    0    0  0.00000000000E+00  0.00000000000E+00 -0.31053626204E+03  0.33475211524E+03  0.12500483437E+03 0.  0.
    9000005    1    3    3    0    0 -0.58812294511E+01  0.47535675167E+02 -0.47773243918E+02  0.67657313780E+02  0.10000000000E+01 0.  0.
    9000005    1    3    3    0    0  0.58812294511E+01 -0.47535675167E+02 -0.26276301812E+03  0.26709480146E+03  0.10000000000E+01 0.  0.
<mgrwt>
<rscale>  0 0.12500483E+03</rscale>
<asrwt>0</asrwt>
<pdfrwt beam="1">  1        4 0.18627582E-02 0.12500483E+03</pdfrwt>
<pdfrwt beam="2">  1       -4 0.49637561E-01 0.12500483E+03</pdfrwt>
<totfact> 0.71427594E+03</totfact>
</mgrwt>
</event>
<event>
 5    1  0.3398872E-002  0.1250070E+03  0.7818608E-02  0.1235058E+00
          4   -1    0    0  501    0  0.00000000000E+00  0.00000000000E+00  0.73659500511E+01  0.74746317739E+01  0.12700000000E+01 0.  1.
         -4   -1    0    0    0  501 -0.00000000000E+00 -0.00000000000E+00 -0.52637736186E+03  0.52637889393E+03  0.12700000000E+01 0.  1.
         25    2    1    2    0    0  0.00000000000E+00  0.00000000000E+00 -0.51901141181E+03  0.53385352570E+03  0.12500696510E+03 0.  0.
    9000005    1    3    3    0    0  0.10048551184E+02  0.94308707209E+01  0.81718133783E+00  0.13841332623E+02  0.10000000000E+01 0.  0.
    9000005    1    3    3    0    0 -0.10048551184E+02 -0.94308707209E+01 -0.51982859314E+03  0.52001219308E+03  0.10000000000E+01 0.  0.
<mgrwt>
<rscale>  0 0.12500697E+03</rscale>
<asrwt>0</asrwt>
<pdfrwt beam="1">  1        4 0.11417015E-02 0.12500697E+03</pdfrwt>
<pdfrwt beam="2">  1       -4 0.80989582E-01 0.12500697E+03</pdfrwt>
<totfact> 0.53322056E+03</totfact>
</mgrwt>
</event>
<event>
 5    1  0.3398872E-002  0.1250022E+03  0.7818608E-02  0.1235066E+00
          4   -1    0    0  501    0  0.00000000000E+00  0.00000000000E+00  0.26577030103E+03  0.26577333540E+03  0.12700000000E+01 0.  1.
         -4   -1    0    0    0  501 -0.00000000000E+00 -0.00000000000E+00 -0.14667796384E+02  0.14722674715E+02  0.12700000000E+01 0.  1.
         25    2    1    2    0    0  0.00000000000E+00  0.00000000000E+00  0.25110250465E+03  0.28049601012E+03  0.12500217539E+03 0.  0.
    9000005    1    3    3    0    0 -0.55441308847E+02 -0.17856295877E+02  0.74737285788E+02  0.94758893599E+02  0.10000000000E+01 0.  0.
    9000005    1    3    3    0    0  0.55441308847E+02  0.17856295877E+02  0.17636521886E+03  0.18573711652E+03  0.10000000000E+01 0.  0.
<mgrwt>
<rscale>  0 0.12500218E+03</rscale>
<asrwt>0</asrwt>
<pdfrwt beam="1">  1        4 0.40892192E-01 0.12500218E+03</pdfrwt>
<pdfrwt beam="2">  1       -4 0.22610390E-02 0.12500218E+03</pdfrwt>
<totfact> 0.78108607E+03</totfact>
</mgrwt>
</event>
<event>
 5    1  0.3398872E-002  0.1250012E+03  0.7818608E-02  0.1235067E+00
          4   -1    0    0  501    0  0.00000000000E+00  0.00000000000E+00  0.19567573213E+02  0.19608743495E+02  0.12700000000E+01 0. -1.
         -4   -1    0    0    0  501 -0.00000000000E+00 -0.00000000000E+00 -0.19937957768E+03  0.19938362244E+03  0.12700000000E+01 0. -1.
         25    2    1    2    0    0  0.00000000000E+00  0.00000000000E+00 -0.17981200447E+03  0.21899236594E+03  0.12500119754E+03 0.  0.
    9000005    1    3    3    0    0 -0.60710999162E+02  0.97514572568E+01 -0.70365314538E+02  0.93451558724E+02  0.10000000000E+01 0.  0.
    9000005    1    3    3    0    0  0.60710999162E+02 -0.97514572568E+01 -0.10944668993E+03  0.12554080721E+03  0.10000000000E+01 0.  0.
<mgrwt>
<rscale>  0 0.12500120E+03</rscale>
<asrwt>0</asrwt>
<pdfrwt beam="1">  1        4 0.30138741E-02 0.12500120E+03</pdfrwt>
<pdfrwt beam="2">  1       -4 0.30677258E-01 0.12500120E+03</pdfrwt>
<totfact> 0.87025719E+03</totfact>
</mgrwt>
</event>
<event>
 5    1  0.3398872E-002  0.1249987E+03  0.7818608E-02  0.1235071E+00
          4   -1    0    0  501    0  0.00000000000E+00  0.00000000000E+00  0.94650214857E+01  0.95498445916E+01  0.12700000000E+01 0. -1.
         -4   -1    0    0    0  501 -0.00000000000E+00 -0.00000000000E+00 -0.41076840879E+03  0.41077037206E+03  0.12700000000E+01 0. -1.
         25    2    1    2    0    0  0.00000000000E+00  0.00000000000E+00 -0.40130338730E+03  0.42032021665E+03  0.12499870344E+03 0.  0.
    9000005    1    3    3    0    0  0.15687993458E+02  0.23691723724E+02 -0.38780543714E+03  0.38884632953E+03  0.10000000000E+01 0.  0.
    9000005    1    3    3    0    0 -0.15687993458E+02 -0.23691723724E+02 -0.13497950161E+02  0.31473887118E+02  0.10000000000E+01 0.  0.
<mgrwt>
<rscale>  0 0.12499870E+03</rscale>
<asrwt>0</asrwt>
<pdfrwt beam="1">  1        4 0.14628333E-02 0.12499870E+03</pdfrwt>
<pdfrwt beam="2">  1       -4 0.63201802E-01 0.12499870E+03</pdfrwt>
<totfact> 0.62625111E+03</totfact>
</mgrwt>
</event>
<event>
 5    1  0.3398872E-002  0.1249994E+03  0.7818608E-02  0.1235070E+00
          4   -1    0    0  501    0  0.00000000000E+00  0.00000000000E+00  0.14386312880E+02  0.14442260844E+02  0.12700000000E+01 0.  1.
         -4   -1    0    0    0  501 -0.00000000000E+00 -0.00000000000E+00 -0.27093859362E+03  0.27094157010E+03  0.12700000000E+01 0.  1.
         25    2    1    2    0    0  0.00000000000E+00  0.00000000000E+00 -0.25655228074E+03  0.28538383095E+03  0.12499943286E+03 0.  0.
    9000005    1    3    3    0    0  0.41088332924E+02  0.44430486414E+02 -0.16385818518E+03  0.17467920333E+03  0.10000000000E+01 0.  0.
    9000005    1    3    3    0    0 -0.41088332924E+02 -0.44430486414E+02 -0.92694095560E+02  0.11070462762E+03  0.10000000000E+01 0.  0.
<mgrwt>
<rscale>  0 0.12499943E+03</rscale>
<asrwt>0</asrwt>
<pdfrwt beam="1">  1        4 0.22178118E-02 0.12499943E+03</pdfrwt>
<pdfrwt beam="2">  1       -4 0.41687389E-01 0.12499943E+03</pdfrwt>
<totfact> 0.77470600E+03</totfact>
</mgrwt>
</event>
<event>
 5    1  0.3398872E-002  0.1249999E+03  0.7818608E-02  0.1235069E+00
         -4   -1    0    0    0  501 -0.00000000000E+00  0.00000000000E+00  0.84173331917E+02  0.84182912197E+02  0.12700000000E+01 0.  1.
          4   -1    0    0  501    0  0.00000000000E+00 -0.00000000000E+00 -0.46386214276E+02  0.46403596572E+02  0.12700000000E+01 0.  1.
         25    2    1    2    0    0  0.00000000000E+00  0.00000000000E+00  0.37787117641E+02  0.13058650877E+03  0.12499988005E+03 0.  0.
    9000005    1    3    3    0    0  0.62121653246E+02 -0.81850314954E+00  0.11848828983E+02  0.63254758696E+02  0.10000000000E+01 0.  0.
    9000005    1    3    3    0    0 -0.62121653246E+02  0.81850314954E+00  0.25938288658E+02  0.67331750073E+02  0.10000000000E+01 0.  0.
<mgrwt>
<rscale>  0 0.12499988E+03</rscale>
<asrwt>0</asrwt>
<pdfrwt beam="2">  1        4 0.71384148E-02 0.12499988E+03</pdfrwt>
<pdfrwt beam="1">  1       -4 0.12951817E-01 0.12499988E+03</pdfrwt>
<totfact> 0.10331990E+04</totfact>
</mgrwt>
</event>
<event>
 5    1  0.3398872E-002  0.1250089E+03  0.7818608E-02  0.1235055E+00
          4   -1    0    0  501    0  0.00000000000E+00  0.00000000000E+00  0.32303694242E+02  0.32328649240E+02  0.12700000000E+01 0. -1.
         -4   -1    0    0    0  501 -0.00000000000E+00 -0.00000000000E+00 -0.12086484302E+03  0.12087151517E+03  0.12700000000E+01 0. -1.
         25    2    1    2    0    0  0.00000000000E+00  0.00000000000E+00 -0.88561148782E+02  0.15320016441E+03  0.12500885289E+03 0.  0.
    9000005    1    3    3    0    0 -0.10296151766E+02 -0.61391973422E+02 -0.37477237458E+02  0.72667244817E+02  0.10000000000E+01 0.  0.
    9000005    1    3    3    0    0  0.10296151766E+02  0.61391973422E+02 -0.51083911324E+02  0.80532919592E+02  0.10000000000E+01 0.  0.
<mgrwt>
<rscale>  0 0.12500885E+03</rscale>
<asrwt>0</asrwt>
<pdfrwt beam="1">  1        4 0.49722320E-02 0.12500885E+03</pdfrwt>
<pdfrwt beam="2">  1       -4 0.18597024E-01 0.12500885E+03</pdfrwt>
<totfact> 0.98649927E+03</totfact>
</mgrwt>
</event>
<event>
 5    1  0.3398872E-002  0.1250046E+03  0.7818608E-02  0.1235062E+00
          4   -1    0    0  501    0  0.00000000000E+00  0.00000000000E+00  0.29525084135E+03  0.29525357274E+03  0.12700000000E+01 0. -1.
         -4   -1    0    0    0  501 -0.00000000000E+00 -0.00000000000E+00 -0.13197970813E+02  0.13258934104E+02  0.12700000000E+01 0. -1.
         25    2    1    2    0    0  0.00000000000E+00  0.00000000000E+00  0.28205287054E+03  0.30851250685E+03  0.12500458033E+03 0.  0.
    9000005    1    3    3    0    0  0.31972297473E+00  0.61870031453E+02  0.16275799379E+03  0.17412400052E+03  0.10000000000E+01 0.  0.
    9000005    1    3    3    0    0 -0.31972297473E+00 -0.61870031453E+02  0.11929487675E+03  0.13438850633E+03  0.10000000000E+01 0.  0.
<mgrwt>
<rscale>  0 0.12500458E+03</rscale>
<asrwt>0</asrwt>
<pdfrwt beam="1">  1        4 0.45428106E-01 0.12500458E+03</pdfrwt>
<pdfrwt beam="2">  1       -4 0.20353566E-02 0.12500458E+03</pdfrwt>
<totfact> 0.74535727E+03</totfact>
</mgrwt>
</event>
<event>
 5    1  0.3398872E-002  0.1250017E+03  0.7818608E-02  0.1235067E+00
         -4   -1    0    0    0  501 -0.00000000000E+00  0.00000000000E+00  0.73247187790E+01  0.74340033085E+01  0.12700000000E+01 0.  1.
          4   -1    0    0  501    0  0.00000000000E+00 -0.00000000000E+00 -0.52925192216E+03  0.52925344591E+03  0.12700000000E+01 0.  1.
         25    2    1    2    0    0  0.00000000000E+00  0.00000000000E+00 -0.52192720338E+03  0.53668744922E+03  0.12500165008E+03 0.  0.
    9000005    1    3    3    0    0 -0.55353772695E+02 -0.19465947263E+02 -0.16864061374E+03  0.17855984951E+03  0.10000000000E+01 0.  0.
    9000005    1    3    3    0    0  0.55353772695E+02  0.19465947263E+02 -0.35328658964E+03  0.35812759971E+03  0.10000000000E+01 0.  0.
<mgrwt>
<rscale>  0 0.12500165E+03</rscale>
<asrwt>0</asrwt>
<pdfrwt beam="2">  1        4 0.81431867E-01 0.12500165E+03</pdfrwt>
<pdfrwt beam="1">  1       -4 0.11354039E-02 0.12500165E+03</pdfrwt>
<totfact> 0.53124234E+03</totfact>
</mgrwt>
</event>
<event>
 5    1  0.3398872E-002  0.1249939E+03  0.7818608E-02  0.1235079E+00
         -4   -1    0    0    0  501 -0.00000000000E+00  0.00000000000E+00  0.10370197771E+04  0.10370205548E+04  0.12700000000E+01 0.  1.
          4   -1    0    0  501    0  0.00000000000E+00 -0.00000000000E+00 -0.36585801686E+01  0.38727391921E+01  0.12700000000E+01 0.  1.
         25    2    1    2    0    0  0.00000000000E+00  0.00000000000E+00  0.10333611970E+04  0.10408932940E+04  0.12499394415E+03 0.  0.
    9000005    1    3    3    0    0 -0.58469508846E+02 -0.71338544554E+01  0.69042453753E+03  0.69293334265E+03  0.10000000000E+01 0.  0.
    9000005    1    3    3    0    0  0.58469508846E+02  0.71338544554E+01  0.34293665944E+03  0.34795995134E+03  0.10000000000E+01 0.  0.
<mgrwt>
<rscale>  0 0.12499394E+03</rscale>
<asrwt>0</asrwt>
<pdfrwt beam="2">  1        4 0.57939171E-03 0.12499394E+03</pdfrwt>
<pdfrwt beam="1">  1       -4 0.15955814E+00 0.12499394E+03</pdfrwt>
<totfact> 0.29284673E+03</totfact>
</mgrwt>
</event>
<event>
 5    1  0.3398872E-002  0.1250041E+03  0.7818608E-02  0.1235063E+00
          4   -1    0    0  501    0  0.00000000000E+00  0.00000000000E+00  0.13654009660E+02  0.13712945700E+02  0.12700000000E+01 0. -1.
         -4   -1    0    0    0  501 -0.00000000000E+00 -0.00000000000E+00 -0.28543045686E+03  0.28543328222E+03  0.12700000000E+01 0. -1.
         25    2    1    2    0    0  0.00000000000E+00  0.00000000000E+00 -0.27177644720E+03  0.29914622793E+03  0.12500411365E+03 0.  0.
    9000005    1    3    3    0    0  0.33726607603E+02 -0.19366290730E+02 -0.18823016557E+02  0.43218551911E+02  0.10000000000E+01 0.  0.
    9000005    1    3    3    0    0 -0.33726607603E+02  0.19366290730E+02 -0.25295343064E+03  0.25592767601E+03  0.10000000000E+01 0.  0.
<mgrwt>
<rscale>  0 0.12500411E+03</rscale>
<asrwt>0</asrwt>
<pdfrwt beam="1">  1        4 0.21053680E-02 0.12500411E+03</pdfrwt>
<pdfrwt beam="2">  1       -4 0.43917124E-01 0.12500411E+03</pdfrwt>
<totfact> 0.75699148E+03</totfact>
</mgrwt>
</event>
<event>
 5    1  0.3398872E-002  0.1250029E+03  0.7818608E-02  0.1235065E+00
          4   -1    0    0  501    0  0.00000000000E+00  0.00000000000E+00  0.87204818698E+02  0.87214065976E+02  0.12700000000E+01 0.  1.
         -4   -1    0    0    0  501 -0.00000000000E+00 -0.00000000000E+00 -0.44775420221E+02  0.44793427597E+02  0.12700000000E+01 0.  1.
         25    2    1    2    0    0  0.00000000000E+00  0.00000000000E+00  0.42429398477E+02  0.13200749357E+03  0.12500289798E+03 0.  0.
    9000005    1    3    3    0    0  0.14079862265E+02 -0.32844573388E+01 -0.42990180960E+02  0.45367233113E+02  0.10000000000E+01 0.  0.
    9000005    1    3    3    0    0 -0.14079862265E+02  0.32844573388E+01  0.85419579437E+02  0.86640260460E+02  0.10000000000E+01 0.  0.
<mgrwt>
<rscale>  0 0.12500290E+03</rscale>
<asrwt>0</asrwt>
<pdfrwt beam="1">  1        4 0.13418222E-01 0.12500290E+03</pdfrwt>
<pdfrwt beam="2">  1       -4 0.68906228E-02 0.12500290E+03</pdfrwt>
<totfact> 0.10300865E+04</totfact>
</mgrwt>
</event>
<event>
 5    1  0.3398872E-002  0.1250019E+03  0.7818608E-02  0.1235066E+00
          4   -1    0    0  501    0  0.00000000000E+00  0.00000000000E+00  0.56999882428E+01  0.58397573552E+01  0.12700000000E+01 0. -1.
         -4   -1    0    0    0  501 -0.00000000000E+00 -0.00000000000E+00 -0.67688862658E+03  0.67688981799E+03  0.12700000000E+01 0. -1.
         25    2    1    2    0    0  0.00000000000E+00  0.00000000000E+00 -0.67118863834E+03  0.68272957535E+03  0.12500193924E+03 0.  0.
    9000005    1    3    3    0    0  0.39397390644E+02 -0.44473354673E+02 -0.22978035951E+03  0.23733951901E+03  0.10000000000E+01 0.  0.
    9000005    1    3    3    0    0 -0.39397390644E+02  0.44473354673E+02 -0.44140827883E+03  0.44539005634E+03  0.10000000000E+01 0.  0.
<mgrwt>
<rscale>  0 0.12500194E+03</rscale>
<asrwt>0</asrwt>
<pdfrwt beam="1">  1        4 0.88776492E-03 0.12500194E+03</pdfrwt>
<pdfrwt beam="2">  1       -4 0.10414749E+00 0.12500194E+03</pdfrwt>
<totfact> 0.44012348E+03</totfact>
</mgrwt>
</event>
<event>
 5    1  0.3398872E-002  0.1249994E+03  0.7818608E-02  0.1235070E+00
          4   -1    0    0  501    0  0.00000000000E+00  0.00000000000E+00  0.73095863543E+03  0.73095973871E+03  0.12700000000E+01 0. -1.
         -4   -1    0    0    0  501 -0.00000000000E+00 -0.00000000000E+00 -0.52673843955E+01  0.54183243139E+01  0.12700000000E+01 0. -1.
         25    2    1    2    0    0  0.00000000000E+00  0.00000000000E+00  0.72569125103E+03  0.73637806302E+03  0.12499943948E+03 0.  0.
    9000005    1    3    3    0    0  0.41004931795E+02  0.47086482686E+02  0.37806425692E+03  0.38318679993E+03  0.10000000000E+01 0.  0.
    9000005    1    3    3    0    0 -0.41004931795E+02 -0.47086482686E+02  0.34762699412E+03  0.35319126309E+03  0.10000000000E+01 0.  0.
<mgrwt>
<rscale>  0 0.12499944E+03</rscale>
<asrwt>0</asrwt>
<pdfrwt beam="1">  1        4 0.11246684E+00 0.12499944E+03</pdfrwt>
<pdfrwt beam="2">  1       -4 0.82206271E-03 0.12499944E+03</pdfrwt>
<totfact> 0.41234819E+03</totfact>
</mgrwt>
</event>
<event>
 5    1  0.3398872E-002  0.1250001E+03  0.7818608E-02  0.1235069E+00
         -4   -1    0    0    0  501 -0.00000000000E+00  0.00000000000E+00  0.12114103959E+03  0.12114769653E+03  0.12700000000E+01 0. -1.
          4   -1    0    0  501    0  0.00000000000E+00 -0.00000000000E+00 -0.32225469875E+02  0.32250485402E+02  0.12700000000E+01 0. -1.
         25    2    1    2    0    0  0.00000000000E+00  0.00000000000E+00  0.88915569719E+02  0.15339818193E+03  0.12500009472E+03 0.  0.
    9000005    1    3    3    0    0  0.55041758800E+02  0.29525967106E+02  0.42041142609E+02  0.75298310852E+02  0.10000000000E+01 0.  0.
    9000005    1    3    3    0    0 -0.55041758800E+02 -0.29525967106E+02  0.46874427110E+02  0.78099871077E+02  0.10000000000E+01 0.  0.
<mgrwt>
<rscale>  0 0.12500009E+03</rscale>
<asrwt>0</asrwt>
<pdfrwt beam="2">  1        4 0.49602009E-02 0.12500009E+03</pdfrwt>
<pdfrwt beam="1">  1       -4 0.18639519E-01 0.12500009E+03</pdfrwt>
<totfact> 0.98630373E+03</totfact>
</mgrwt>
</event>
<event>
 4    1  0.3398872E-002  0.1248580E+03  0.7818608E-02  0.1235291E+00
         -4   -1    0    0    0  501 -0.00000000000E+00  0.00000000000E+00  0.12256687158E+03  0.12257345108E+03  0.12700000000E+01 0. -1.
          4   -1    0    0  501    0  0.00000000000E+00 -0.00000000000E+00 -0.31777877577E+02  0.31803245169E+02  0.12700000000E+01 0. -1.
    9000005    1    1    2    0    0  0.32661289795E+02  0.11701559291E+01  0.11114882624E+03  0.11585849425E+03  0.10000000000E+01 0.  0.
    9000005    1    1    2    0    0 -0.32661289795E+02 -0.11701559291E+01 -0.20359832239E+02  0.38518201992E+02  0.10000000000E+01 0.  0.
<mgrwt>
<rscale>  0 0.12485801E+03</rscale>
<asrwt>0</asrwt>
<pdfrwt beam="2">  1        4 0.48913617E-02 0.12485801E+03</pdfrwt>
<pdfrwt beam="1">  1       -4 0.18858899E-01 0.12485801E+03</pdfrwt>
<totfact> 0.98753025E+03</totfact>
</mgrwt>
</event>
<event>
 5    1  0.3398872E-002  0.1250060E+03  0.7818608E-02  0.1235060E+00
         -4   -1    0    0    0  501 -0.00000000000E+00  0.00000000000E+00  0.51292881786E+02  0.51308601831E+02  0.12700000000E+01 0.  1.
          4   -1    0    0  501    0  0.00000000000E+00 -0.00000000000E+00 -0.76130359259E+02  0.76140951537E+02  0.12700000000E+01 0.  1.
         25    2    1    2    0    0  0.00000000000E+00  0.00000000000E+00 -0.24837477473E+02  0.12744955337E+03  0.12500595332E+03 0.  0.
    9000005    1    3    3    0    0  0.53395497545E+02  0.21312767576E+02  0.12561408984E+02  0.58856624228E+02  0.10000000000E+01 0.  0.
    9000005    1    3    3    0    0 -0.53395497545E+02 -0.21312767576E+02 -0.37398886457E+02  0.68592929140E+02  0.10000000000E+01 0.  0.
<mgrwt>
<rscale>  0 0.12500595E+03</rscale>
<asrwt>0</asrwt>
<pdfrwt beam="2">  1        4 0.11714387E-01 0.12500595E+03</pdfrwt>
<pdfrwt beam="1">  1       -4 0.78932366E-02 0.12500595E+03</pdfrwt>
<totfact> 0.10397996E+04</totfact>
</mgrwt>
</event>
<event>
 5    1  0.3398872E-002  0.1249737E+03  0.7818608E-02  0.1235110E+00
         -4   -1    0    0    0  501 -0.00000000000E+00  0.00000000000E+00  0.66261021251E+03  0.66261142959E+03  0.12700000000E+01 0.  1.
          4   -1    0    0  501    0  0.00000000000E+00 -0.00000000000E+00 -0.58230985238E+01  0.59599812430E+01  0.12700000000E+01 0.  1.
         25    2    1    2    0    0  0.00000000000E+00  0.00000000000E+00  0.65678711398E+03  0.66857141083E+03  0.12497367036E+03 0.  0.
    9000005    1    3    3    0    0  0.41396220199E+02 -0.16048848019E+02  0.93226279022E+02  0.10326350599E+03  0.10000000000E+01 0.  0.
    9000005    1    3    3    0    0 -0.41396220199E+02  0.16048848019E+02  0.56356083496E+03  0.56530790484E+03  0.10000000000E+01 0.  0.
<mgrwt>
<rscale>  0 0.12497367E+03</rscale>
<asrwt>0</asrwt>
<pdfrwt beam="2">  1        4 0.90648478E-03 0.12497367E+03</pdfrwt>
<pdfrwt beam="1">  1       -4 0.10195061E+00 0.12497367E+03</pdfrwt>
<totfact> 0.44824318E+03</totfact>
</mgrwt>
</event>
<event>
 5    1  0.3398872E-002  0.1249996E+03  0.7818608E-02  0.1235070E+00
         -4   -1    0    0    0  501 -0.00000000000E+00  0.00000000000E+00  0.45998943864E+02  0.46016472448E+02  0.12700000000E+01 0.  1.
          4   -1    0    0  501    0  0.00000000000E+00 -0.00000000000E+00 -0.84881438011E+02  0.84890938379E+02  0.12700000000E+01 0.  1.
         25    2    1    2    0    0  0.00000000000E+00  0.00000000000E+00 -0.38882494147E+02  0.13090741083E+03  0.12499960743E+03 0.  0.
    9000005    1    3    3    0    0 -0.32311027160E+02 -0.12560412098E+01  0.36561801893E+02  0.48819519389E+02  0.10000000000E+01 0.  0.
    9000005    1    3    3    0    0  0.32311027160E+02  0.12560412098E+01 -0.75444296041E+02  0.82087891438E+02  0.10000000000E+01 0.  0.
<mgrwt>
<rscale>  0 0.12499961E+03</rscale>
<asrwt>0</asrwt>
<pdfrwt beam="2">  1        4 0.13060762E-01 0.12499961E+03</pdfrwt>
<pdfrwt beam="1">  1       -4 0.70788398E-02 0.12499961E+03</pdfrwt>
<totfact> 0.10325166E+04</totfact>
</mgrwt>
</event>
<event>
 5    1  0.3398872E-002  0.1249994E+03  0.7818608E-02  0.1235070E+00
         -4   -1    0    0    0  501 -0.00000000000E+00  0.00000000000E+00  0.21808680092E+03  0.21809049872E+03  0.12700000000E+01 0.  1.
          4   -1    0    0  501    0  0.00000000000E+00 -0.00000000000E+00 -0.17884906239E+02  0.17929940635E+02  0.12700000000E+01 0.  1.
         25    2    1    2    0    0  0.00000000000E+00  0.00000000000E+00  0.20020189468E+03  0.23602043936E+03  0.12499939665E+03 0.  0.
    9000005    1    3    3    0    0  0.34559350882E+02 -0.39951938783E+02  0.16314177340E+03  0.17148394786E+03  0.10000000000E+01 0.  0.
    9000005    1    3    3    0    0 -0.34559350882E+02  0.39951938783E+02  0.37060121278E+02  0.64536491499E+02  0.10000000000E+01 0.  0.
<mgrwt>
<rscale>  0 0.12499940E+03</rscale>
<asrwt>0</asrwt>
<pdfrwt beam="2">  1        4 0.27552727E-02 0.12499940E+03</pdfrwt>
<pdfrwt beam="1">  1       -4 0.33555563E-01 0.12499940E+03</pdfrwt>
<totfact> 0.84394780E+03</totfact>
</mgrwt>
</event>
<event>
 5    1  0.3398872E-002  0.1249971E+03  0.7818608E-02  0.1235074E+00
          4   -1    0    0  501    0  0.00000000000E+00  0.00000000000E+00  0.33506392393E+02  0.33530452296E+02  0.12700000000E+01 0. -1.
         -4   -1    0    0    0  501 -0.00000000000E+00 -0.00000000000E+00 -0.11650737982E+03  0.11651430149E+03  0.12700000000E+01 0. -1.
         25    2    1    2    0    0  0.00000000000E+00  0.00000000000E+00 -0.83000987425E+02  0.15004475379E+03  0.12499705687E+03 0.  0.
    9000005    1    3    3    0    0  0.41990338953E+02  0.22137396260E+02  0.72862117069E+01  0.48034797383E+02  0.10000000000E+01 0.  0.
    9000005    1    3    3    0    0 -0.41990338953E+02 -0.22137396260E+02 -0.90287199132E+02  0.10200995640E+03  0.10000000000E+01 0.  0.
<mgrwt>
<rscale>  0 0.12499706E+03</rscale>
<asrwt>0</asrwt>
<pdfrwt beam="1">  1        4 0.51572128E-02 0.12499706E+03</pdfrwt>
<pdfrwt beam="2">  1       -4 0.17926595E-01 0.12499706E+03</pdfrwt>
<totfact> 0.99301355E+03</totfact>
</mgrwt>
</event>
<event>
 5    1  0.3398872E-002  0.1250018E+03  0.7818608E-02  0.1235066E+00
          4   -1    0    0  501    0  0.00000000000E+00  0.00000000000E+00  0.43533534717E+02  0.43552055576E+02  0.12700000000E+01 0. -1.
         -4   -1    0    0    0  501 -0.00000000000E+00 -0.00000000000E+00 -0.89690142353E+02  0.89699133415E+02  0.12700000000E+01 0. -1.
         25    2    1    2    0    0  0.00000000000E+00  0.00000000000E+00 -0.46156607637E+02  0.13325118899E+03  0.12500178774E+03 0.  0.
    9000005    1    3    3    0    0  0.10915430797E+02 -0.55529906525E+02  0.51784794800E+01  0.56837784948E+02  0.10000000000E+01 0.  0.
    9000005    1    3    3    0    0 -0.10915430797E+02  0.55529906525E+02 -0.51335087117E+02  0.76413404043E+02  0.10000000000E+01 0.  0.
<mgrwt>
<rscale>  0 0.12500179E+03</rscale>
<asrwt>0</asrwt>
<pdfrwt beam="1">  1        4 0.66995832E-02 0.12500179E+03</pdfrwt>
<pdfrwt beam="2">  1       -4 0.13800600E-01 0.12500179E+03</pdfrwt>
<totfact> 0.10274650E+04</totfact>
</mgrwt>
</event>
<event>
 5    1  0.3398872E-002  0.1250001E+03  0.7818608E-02  0.1235069E+00
         -4   -1    0    0    0  501 -0.00000000000E+00  0.00000000000E+00  0.24811070670E+03  0.24811395704E+03  0.12700000000E+01 0.  1.
          4   -1    0    0  501    0  0.00000000000E+00 -0.00000000000E+00 -0.15715025342E+02  0.15766258957E+02  0.12700000000E+01 0.  1.
         25    2    1    2    0    0  0.00000000000E+00  0.00000000000E+00  0.23239568135E+03  0.26388021600E+03  0.12500006273E+03 0.  0.
    9000005    1    3    3    0    0 -0.42702150872E+01  0.56051372084E+02  0.17382820202E+03  0.18269437557E+03  0.10000000000E+01 0.  0.
    9000005    1    3    3    0    0  0.42702150872E+01 -0.56051372084E+02  0.58567479337E+02  0.81185840423E+02  0.10000000000E+01 0.  0.
<mgrwt>
<rscale>  0 0.12500006E+03</rscale>
<asrwt>0</asrwt>
<pdfrwt beam="2">  1        4 0.24218871E-02 0.12500006E+03</pdfrwt>
<pdfrwt beam="1">  1       -4 0.38175072E-01 0.12500006E+03</pdfrwt>
<totfact> 0.80364477E+03</totfact>
</mgrwt>
</event>
<event>
 5    1  0.3398872E-002  0.1249987E+03  0.7818608E-02  0.1235071E+00
         -4   -1    0    0    0  501 -0.00000000000E+00  0.00000000000E+00  0.70099209792E+02  0.70110713258E+02  0.12700000000E+01 0. -1.
          4   -1    0    0  501    0  0.00000000000E+00 -0.00000000000E+00 -0.55700157591E+02  0.55714634125E+02  0.12700000000E+01 0. -1.
         25    2    1    2    0    0  0.00000000000E+00  0.00000000000E+00  0.14399052202E+02  0.12582534738E+03  0.12499874135E+03 0.  0.
    9000005    1    3    3    0    0  0.27548566894E+01 -0.34514857184E+02  0.59565719714E+02  0.68905294186E+02  0.10000000000E+01 0.  0.
    9000005    1    3    3    0    0 -0.27548566894E+01  0.34514857184E+02 -0.45166667512E+02  0.56920053197E+02  0.10000000000E+01 0.  0.
<mgrwt>
<rscale>  0 0.12499874E+03</rscale>
<asrwt>0</asrwt>
<pdfrwt beam="2">  1        4 0.85712535E-02 0.12499874E+03</pdfrwt>
<pdfrwt beam="1">  1       -4 0.10786492E-01 0.12499874E+03</pdfrwt>
<totfact> 0.10435085E+04</totfact>
</mgrwt>
</event>
<event>
 5    1  0.3398872E-002  0.1250010E+03  0.7818608E-02  0.1235068E+00
         -4   -1    0    0    0  501 -0.00000000000E+00  0.00000000000E+00  0.54261631100E+03  0.54261779722E+03  0.12700000000E+01 0.  1.
          4   -1    0    0  501    0  0.00000000000E+00 -0.00000000000E+00 -0.71415182701E+01  0.72535634831E+01  0.12700000000E+01 0.  1.
         25    2    1    2    0    0  0.00000000000E+00  0.00000000000E+00  0.53547479273E+03  0.54987136070E+03  0.12500103870E+03 0.  0.
    9000005    1    3    3    0    0 -0.31048597788E+02 -0.35611027422E+02  0.44767232063E+03  0.45015960210E+03  0.10000000000E+01 0.  0.
    9000005    1    3    3    0    0  0.31048597788E+02  0.35611027422E+02  0.87802472092E+02  0.99711758605E+02  0.10000000000E+01 0.  0.
<mgrwt>
<rscale>  0 0.12500104E+03</rscale>
<asrwt>0</asrwt>
<pdfrwt beam="2">  1        4 0.11074284E-02 0.12500104E+03</pdfrwt>
<pdfrwt beam="1">  1       -4 0.83488159E-01 0.12500104E+03</pdfrwt>
<totfact> 0.52191709E+03</totfact>
</mgrwt>
</event>
<event>
 5    1  0.3398872E-002  0.1249743E+03  0.7818608E-02  0.1235110E+00
         -4   -1    0    0    0  501 -0.00000000000E+00  0.00000000000E+00  0.55249538551E+03  0.55249684516E+03  0.12700000000E+01 0. -1.
          4   -1    0    0  501    0  0.00000000000E+00 -0.00000000000E+00 -0.70087472908E+01  0.71228813401E+01  0.12700000000E+01 0. -1.
         25    2    1    2    0    0  0.00000000000E+00  0.00000000000E+00  0.54548663822E+03  0.55961972650E+03  0.12497426059E+03 0.  0.
    9000005    1    3    3    0    0 -0.24758864667E+02 -0.41304171244E+02  0.45099474802E+03  0.45355958669E+03  0.10000000000E+01 0.  0.
    9000005    1    3    3    0    0  0.24758864667E+02  0.41304171244E+02  0.94491890206E+02  0.10606013981E+03  0.10000000000E+01 0.  0.
<mgrwt>
<rscale>  0 0.12497426E+03</rscale>
<asrwt>0</asrwt>
<pdfrwt beam="2">  1        4 0.10871603E-02 0.12497426E+03</pdfrwt>
<pdfrwt beam="1">  1       -4 0.85008206E-01 0.12497426E+03</pdfrwt>
<totfact> 0.51549049E+03</totfact>
</mgrwt>
</event>
<event>
 5    1  0.3398872E-002  0.1250025E+03  0.7818608E-02  0.1235065E+00
         -4   -1    0    0    0  501 -0.00000000000E+00  0.00000000000E+00  0.46452496575E+03  0.46452670182E+03  0.12700000000E+01 0.  1.
          4   -1    0    0  501    0  0.00000000000E+00 -0.00000000000E+00 -0.83597536291E+01  0.84556715133E+01  0.12700000000E+01 0.  1.
         25    2    1    2    0    0  0.00000000000E+00  0.00000000000E+00  0.45616521212E+03  0.47298237333E+03  0.12500249892E+03 0.  0.
    9000005    1    3    3    0    0 -0.27188637005E+02  0.55101407575E+02  0.27122754056E+03  0.27810207812E+03  0.10000000000E+01 0.  0.
    9000005    1    3    3    0    0  0.27188637005E+02 -0.55101407575E+02  0.18493767156E+03  0.19488029521E+03  0.10000000000E+01 0.  0.
<mgrwt>
<rscale>  0 0.12500250E+03</rscale>
<asrwt>0</asrwt>
<pdfrwt beam="2">  1        4 0.12936278E-02 0.12500250E+03</pdfrwt>
<pdfrwt beam="1">  1       -4 0.71472890E-01 0.12500250E+03</pdfrwt>
<totfact> 0.58020086E+03</totfact>
</mgrwt>
</event>
<event>
 5    1  0.3398872E-002  0.1249974E+03  0.7818608E-02  0.1235073E+00
          4   -1    0    0  501    0  0.00000000000E+00  0.00000000000E+00  0.14883459190E+02  0.14937545229E+02  0.12700000000E+01 0.  1.
         -4   -1    0    0    0  501 -0.00000000000E+00 -0.00000000000E+00 -0.26191316061E+03  0.26191623967E+03  0.12700000000E+01 0.  1.
         25    2    1    2    0    0  0.00000000000E+00  0.00000000000E+00 -0.24702970142E+03  0.27685378490E+03  0.12499737928E+03 0.  0.
    9000005    1    3    3    0    0 -0.25345774389E+02 -0.54220495553E+02 -0.83719994320E+02  0.10291893833E+03  0.10000000000E+01 0.  0.
    9000005    1    3    3    0    0  0.25345774389E+02  0.54220495553E+02 -0.16330970710E+03  0.17393484657E+03  0.10000000000E+01 0.  0.
<mgrwt>
<rscale>  0 0.12499738E+03</rscale>
<asrwt>0</asrwt>
<pdfrwt beam="1">  1        4 0.22941605E-02 0.12499738E+03</pdfrwt>
<pdfrwt beam="2">  1       -4 0.40298726E-01 0.12499738E+03</pdfrwt>
<totfact> 0.78601710E+03</totfact>
</mgrwt>
</event>
<event>
 5    1  0.3398872E-002  0.1249996E+03  0.7818608E-02  0.1235070E+00
         -4   -1    0    0    0  501 -0.00000000000E+00  0.00000000000E+00  0.11367455745E+02  0.11438179493E+02  0.12700000000E+01 0.  1.
          4   -1    0    0  501    0  0.00000000000E+00 -0.00000000000E+00 -0.34249478021E+03  0.34249713483E+03  0.12700000000E+01 0.  1.
         25    2    1    2    0    0  0.00000000000E+00  0.00000000000E+00 -0.33112732446E+03  0.35393531433E+03  0.12499960689E+03 0.  0.
    9000005    1    3    3    0    0  0.59443794798E+02 -0.14235423066E+02 -0.12875281225E+03  0.14252893977E+03  0.10000000000E+01 0.  0.
    9000005    1    3    3    0    0 -0.59443794798E+02  0.14235423066E+02 -0.20237451221E+03  0.21140637456E+03  0.10000000000E+01 0.  0.
<mgrwt>
<rscale>  0 0.12499961E+03</rscale>
<asrwt>0</asrwt>
<pdfrwt beam="2">  1        4 0.52697118E-01 0.12499961E+03</pdfrwt>
<pdfrwt beam="1">  1       -4 0.17544610E-02 0.12499961E+03</pdfrwt>
<totfact> 0.69294388E+03</totfact>
</mgrwt>
</event>
<event>
 5    1  0.3398872E-002  0.1250007E+03  0.7818608E-02  0.1235068E+00
         -4   -1    0    0    0  501 -0.00000000000E+00  0.00000000000E+00  0.13456321560E+03  0.13456920856E+03  0.12700000000E+01 0.  1.
          4   -1    0    0  501    0  0.00000000000E+00 -0.00000000000E+00 -0.29008911442E+02  0.29036698212E+02  0.12700000000E+01 0.  1.
         25    2    1    2    0    0  0.00000000000E+00  0.00000000000E+00  0.10555430416E+03  0.16360590677E+03  0.12500072642E+03 0.  0.
    9000005    1    3    3    0    0  0.57845346550E+02  0.75480121416E+01  0.82109144975E+02  0.10072719739E+03  0.10000000000E+01 0.  0.
    9000005    1    3    3    0    0 -0.57845346550E+02 -0.75480121416E+01  0.23445159181E+02  0.62878709384E+02  0.10000000000E+01 0.  0.
<mgrwt>
<rscale>  0 0.12500073E+03</rscale>
<asrwt>0</asrwt>
<pdfrwt beam="2">  1        4 0.44655078E-02 0.12500073E+03</pdfrwt>
<pdfrwt beam="1">  1       -4 0.20704632E-01 0.12500073E+03</pdfrwt>
<totfact> 0.96650487E+03</totfact>
</mgrwt>
</event>
<event>
 5    1  0.3398872E-002  0.1250274E+03  0.7818608E-02  0.1235026E+00
         -4   -1    0    0    0  501 -0.00000000000E+00  0.00000000000E+00  0.63548138141E+03  0.63548265044E+03  0.12700000000E+01 0.  1.
          4   -1    0    0  501    0  0.00000000000E+00 -0.00000000000E+00 -0.60827564107E+01  0.62139219139E+01  0.12700000000E+01 0.  1.
         25    2    1    2    0    0  0.00000000000E+00  0.00000000000E+00  0.62939862500E+03  0.64169657236E+03  0.12502744430E+03 0.  0.
    9000005    1    3    3    0    0  0.29061974937E+01  0.31476876282E+02  0.59145788739E+03  0.59230285520E+03  0.10000000000E+01 0.  0.
    9000005    1    3    3    0    0 -0.29061974937E+01 -0.31476876282E+02  0.37940737606E+02  0.49393717155E+02  0.10000000000E+01 0.  0.
<mgrwt>
<rscale>  0 0.12502744E+03</rscale>
<asrwt>0</asrwt>
<pdfrwt beam="2">  1        4 0.94599659E-03 0.12502744E+03</pdfrwt>
<pdfrwt beam="1">  1       -4 0.97776487E-01 0.12502744E+03</pdfrwt>
<totfact> 0.46309224E+03</totfact>
</mgrwt>
</event>
<event>
 5    1  0.3398872E-002  0.1249969E+03  0.7818608E-02  0.1235074E+00
         -4   -1    0    0    0  501 -0.00000000000E+00  0.00000000000E+00  0.31590560488E+02  0.31616078378E+02  0.12700000000E+01 0.  1.
          4   -1    0    0  501    0  0.00000000000E+00 -0.00000000000E+00 -0.12356766225E+03  0.12357418846E+03  0.12700000000E+01 0.  1.
         25    2    1    2    0    0  0.00000000000E+00  0.00000000000E+00 -0.91977101764E+02  0.15519026684E+03  0.12499692666E+03 0.  0.
    9000005    1    3    3    0    0  0.54713246329E+02  0.21082782120E+02 -0.19157368644E+02  0.61693012564E+02  0.10000000000E+01 0.  0.
    9000005    1    3    3    0    0 -0.54713246329E+02 -0.21082782120E+02 -0.72819733120E+02  0.93497254278E+02  0.10000000000E+01 0.  0.
<mgrwt>
<rscale>  0 0.12499693E+03</rscale>
<asrwt>0</asrwt>
<pdfrwt beam="2">  1        4 0.19012874E-01 0.12499693E+03</pdfrwt>
<pdfrwt beam="1">  1       -4 0.48625512E-02 0.12499693E+03</pdfrwt>
<totfact> 0.98284953E+03</totfact>
</mgrwt>
</event>
<event>
 5    1  0.3398872E-002  0.1250003E+03  0.7818608E-02  0.1235069E+00
         -4   -1    0    0    0  501 -0.00000000000E+00  0.00000000000E+00  0.16228896394E+03  0.16229393309E+03  0.12700000000E+01 0. -1.
          4   -1    0    0  501    0  0.00000000000E+00 -0.00000000000E+00 -0.24047750865E+02  0.24081262876E+02  0.12700000000E+01 0. -1.
         25    2    1    2    0    0  0.00000000000E+00  0.00000000000E+00  0.13824121308E+03  0.18637519597E+03  0.12500032271E+03 0.  0.
    9000005    1    3    3    0    0 -0.36275801084E+02 -0.31504723197E+02  0.12870063734E+03  0.13738025834E+03  0.10000000000E+01 0.  0.
    9000005    1    3    3    0    0  0.36275801084E+02  0.31504723197E+02  0.95405757361E+01  0.48994937630E+02  0.10000000000E+01 0.  0.
<mgrwt>
<rscale>  0 0.12500032E+03</rscale>
<asrwt>0</asrwt>
<pdfrwt beam="2">  1        4 0.37026139E-02 0.12500032E+03</pdfrwt>
<pdfrwt beam="1">  1       -4 0.24970494E-01 0.12500032E+03</pdfrwt>
<totfact> 0.92481202E+03</totfact>
</mgrwt>
</event>
<event>
 5    1  0.3398872E-002  0.1250023E+03  0.7818608E-02  0.1235066E+00
         -4   -1    0    0    0  501 -0.00000000000E+00  0.00000000000E+00  0.11355787129E+03  0.11356497274E+03  0.12700000000E+01 0.  1.
          4   -1    0    0  501    0  0.00000000000E+00 -0.00000000000E+00 -0.34380111544E+02  0.34403560423E+02  0.12700000000E+01 0.  1.
         25    2    1    2    0    0  0.00000000000E+00  0.00000000000E+00  0.79177759749E+02  0.14796853316E+03  0.12500227665E+03 0.  0.
    9000005    1    3    3    0    0 -0.33757237165E+02 -0.64582973038E+01 -0.22193621844E+02  0.40924534397E+02  0.10000000000E+01 0.  0.
    9000005    1    3    3    0    0  0.33757237165E+02  0.64582973038E+01  0.10137138159E+03  0.10704399876E+03  0.10000000000E+01 0.  0.
<mgrwt>
<rscale>  0 0.12500228E+03</rscale>
<asrwt>0</asrwt>
<pdfrwt beam="2">  1        4 0.52915981E-02 0.12500228E+03</pdfrwt>
<pdfrwt beam="1">  1       -4 0.17472791E-01 0.12500228E+03</pdfrwt>
<totfact> 0.99705082E+03</totfact>
</mgrwt>
</event>
<event>
 5    1  0.3398872E-002  0.1250009E+03  0.7818608E-02  0.1235068E+00
          4   -1    0    0  501    0  0.00000000000E+00  0.00000000000E+00  0.11282353608E+02  0.11353607486E+02  0.12700000000E+01 0.  1.
         -4   -1    0    0    0  501 -0.00000000000E+00 -0.00000000000E+00 -0.34506901902E+03  0.34507135608E+03  0.12700000000E+01 0.  1.
         25    2    1    2    0    0  0.00000000000E+00  0.00000000000E+00 -0.33378666541E+03  0.35642496357E+03  0.12500086658E+03 0.  0.
    9000005    1    3    3    0    0 -0.27803590663E+02 -0.25448061440E+02 -0.24762391028E+02  0.45108973545E+02  0.10000000000E+01 0.  0.
    9000005    1    3    3    0    0  0.27803590663E+02  0.25448061440E+02 -0.30902427438E+03  0.31131599002E+03  0.10000000000E+01 0.  0.
<mgrwt>
<rscale>  0 0.12500087E+03</rscale>
<asrwt>0</asrwt>
<pdfrwt beam="1">  1        4 0.17414078E-02 0.12500087E+03</pdfrwt>
<pdfrwt beam="2">  1       -4 0.53093194E-01 0.12500087E+03</pdfrwt>
<totfact> 0.69022148E+03</totfact>
</mgrwt>
</event>
<event>
 5    1  0.3398872E-002  0.1250043E+03  0.7818608E-02  0.1235063E+00
         -4   -1    0    0    0  501 -0.00000000000E+00  0.00000000000E+00  0.54857031300E+02  0.54871730272E+02  0.12700000000E+01 0.  1.
          4   -1    0    0  501    0  0.00000000000E+00 -0.00000000000E+00 -0.71182845899E+02  0.71194174272E+02  0.12700000000E+01 0.  1.
         25    2    1    2    0    0  0.00000000000E+00  0.00000000000E+00 -0.16325814599E+02  0.12606590454E+03  0.12500432019E+03 0.  0.
    9000005    1    3    3    0    0  0.18473764020E+01  0.47349726693E+02 -0.49253379572E+02  0.68354259683E+02  0.10000000000E+01 0.  0.
    9000005    1    3    3    0    0 -0.18473764020E+01 -0.47349726693E+02  0.32927564973E+02  0.57711644861E+02  0.10000000000E+01 0.  0.
<mgrwt>
<rscale>  0 0.12500432E+03</rscale>
<asrwt>0</asrwt>
<pdfrwt beam="2">  1        4 0.10953209E-01 0.12500432E+03</pdfrwt>
<pdfrwt beam="1">  1       -4 0.84415454E-02 0.12500432E+03</pdfrwt>
<totfact> 0.10428496E+04</totfact>
</mgrwt>
</event>
<event>
 5    1  0.3398872E-002  0.1250008E+03  0.7818608E-02  0.1235068E+00
          4   -1    0    0  501    0  0.00000000000E+00  0.00000000000E+00  0.36058169464E+03  0.36058393116E+03  0.12700000000E+01 0.  1.
         -4   -1    0    0    0  501 -0.00000000000E+00 -0.00000000000E+00 -0.10793822340E+02  0.10868279565E+02  0.12700000000E+01 0.  1.
         25    2    1    2    0    0  0.00000000000E+00  0.00000000000E+00  0.34978787230E+03  0.37145221072E+03  0.12500075697E+03 0.  0.
    9000005    1    3    3    0    0  0.52891659021E+01 -0.59759639108E+02  0.22688483648E+03  0.23468472205E+03  0.10000000000E+01 0.  0.
    9000005    1    3    3    0    0 -0.52891659021E+01  0.59759639108E+02  0.12290303583E+03  0.13676748867E+03  0.10000000000E+01 0.  0.
<mgrwt>
<rscale>  0 0.12500076E+03</rscale>
<asrwt>0</asrwt>
<pdfrwt beam="1">  1        4 0.55479993E-01 0.12500076E+03</pdfrwt>
<pdfrwt beam="2">  1       -4 0.16664880E-02 0.12500076E+03</pdfrwt>
<totfact> 0.67426160E+03</totfact>
</mgrwt>
</event>
<event>
 5    1  0.3398872E-002  0.1250019E+03  0.7818608E-02  0.1235066E+00
         -4   -1    0    0    0  501 -0.00000000000E+00  0.00000000000E+00  0.76116960575E+02  0.76127554717E+02  0.12700000000E+01 0. -1.
          4   -1    0    0  501    0  0.00000000000E+00 -0.00000000000E+00 -0.51298607905E+02  0.51314326197E+02  0.12700000000E+01 0. -1.
         25    2    1    2    0    0  0.00000000000E+00  0.00000000000E+00  0.24818352670E+02  0.12744188091E+03  0.12500192951E+03 0.  0.
    9000005    1    3    3    0    0 -0.28084401206E+02  0.53757951639E+02  0.27760294947E+02  0.66710455935E+02  0.10000000000E+01 0.  0.
    9000005    1    3    3    0    0  0.28084401206E+02 -0.53757951639E+02 -0.29419422774E+01  0.60731424978E+02  0.10000000000E+01 0.  0.
<mgrwt>
<rscale>  0 0.12500193E+03</rscale>
<asrwt>0</asrwt>
<pdfrwt beam="2">  1        4 0.78941176E-02 0.12500193E+03</pdfrwt>
<pdfrwt beam="1">  1       -4 0.11712326E-01 0.12500193E+03</pdfrwt>
<totfact> 0.10399106E+04</totfact>
</mgrwt>
</event>
<event>
 5    1  0.3398872E-002  0.1249825E+03  0.7818608E-02  0.1235097E+00
         -4   -1    0    0    0  501 -0.00000000000E+00  0.00000000000E+00  0.95064890946E+02  0.95073373721E+02  0.12700000000E+01 0.  1.
          4   -1    0    0  501    0  0.00000000000E+00 -0.00000000000E+00 -0.41058708469E+02  0.41078345161E+02  0.12700000000E+01 0.  1.
         25    2    1    2    0    0  0.00000000000E+00  0.00000000000E+00  0.54006182477E+02  0.13615171888E+03  0.12498249001E+03 0.  0.
    9000005    1    3    3    0    0  0.58676491885E+02 -0.20415498462E+02  0.34264551460E+02  0.70956203141E+02  0.10000000000E+01 0.  0.
    9000005    1    3    3    0    0 -0.58676491885E+02  0.20415498462E+02  0.19741631018E+02  0.65195515740E+02  0.10000000000E+01 0.  0.
<mgrwt>
<rscale>  0 0.12498249E+03</rscale>
<asrwt>0</asrwt>
<pdfrwt beam="2">  1        4 0.63188875E-02 0.12498249E+03</pdfrwt>
<pdfrwt beam="1">  1       -4 0.14627531E-01 0.12498249E+03</pdfrwt>
<totfact> 0.10217886E+04</totfact>
</mgrwt>
</event>
<event>
 5    1  0.3398872E-002  0.1250000E+03  0.7818608E-02  0.1235069E+00
         -4   -1    0    0    0  501 -0.00000000000E+00  0.00000000000E+00  0.71432101754E+02  0.71443390604E+02  0.12700000000E+01 0. -1.
          4   -1    0    0  501    0  0.00000000000E+00 -0.00000000000E+00 -0.54661820372E+02  0.54676571824E+02  0.12700000000E+01 0. -1.
         25    2    1    2    0    0  0.00000000000E+00  0.00000000000E+00  0.16770281381E+02  0.12611996243E+03  0.12500001034E+03 0.  0.
    9000005    1    3    3    0    0  0.59396803696E+02  0.17499045483E+02  0.16890003822E+02  0.64190880281E+02  0.10000000000E+01 0.  0.
    9000005    1    3    3    0    0 -0.59396803696E+02 -0.17499045483E+02 -0.11972244047E+00  0.61929082147E+02  0.10000000000E+01 0.  0.
<mgrwt>
<rscale>  0 0.12500001E+03</rscale>
<asrwt>0</asrwt>
<pdfrwt beam="2">  1        4 0.84115139E-02 0.12500001E+03</pdfrwt>
<pdfrwt beam="1">  1       -4 0.10991557E-01 0.12500001E+03</pdfrwt>
<totfact> 0.10428327E+04</totfact>
</mgrwt>
</event>
<event>
 5    1  0.3398872E-002  0.1249991E+03  0.7818608E-02  0.1235071E+00
          4   -1    0    0  501    0  0.00000000000E+00  0.00000000000E+00  0.21452164289E+01  0.24929607953E+01  0.12700000000E+01 0. -1.
         -4   -1    0    0    0  501 -0.00000000000E+00 -0.00000000000E+00 -0.16840177124E+04  0.16840181912E+04  0.12700000000E+01 0. -1.
         25    2    1    2    0    0  0.00000000000E+00  0.00000000000E+00 -0.16818724959E+04  0.16865111520E+04  0.12499909354E+03 0.  0.
    9000005    1    3    3    0    0  0.53609268950E+01 -0.25143242052E+02 -0.72441456255E+02  0.76874486941E+02  0.10000000000E+01 0.  0.
    9000005    1    3    3    0    0 -0.53609268950E+01  0.25143242052E+02 -0.16094310397E+04  0.16096366651E+04  0.10000000000E+01 0.  0.
<mgrwt>
<rscale>  0 0.12499909E+03</rscale>
<asrwt>0</asrwt>
<pdfrwt beam="1">  1        4 0.35682105E-03 0.12499909E+03</pdfrwt>
<pdfrwt beam="2">  1       -4 0.25910546E+00 0.12499909E+03</pdfrwt>
<totfact> 0.14534604E+03</totfact>
</mgrwt>
</event>
<event>
 5    1  0.3398872E-002  0.1249999E+03  0.7818608E-02  0.1235069E+00
         -4   -1    0    0    0  501 -0.00000000000E+00  0.00000000000E+00  0.99977857055E+02  0.99985923016E+02  0.12700000000E+01 0.  1.
          4   -1    0    0  501    0  0.00000000000E+00 -0.00000000000E+00 -0.39051140399E+02  0.39071786067E+02  0.12700000000E+01 0.  1.
         25    2    1    2    0    0  0.00000000000E+00  0.00000000000E+00  0.60926716656E+02  0.13905770908E+03  0.12499992661E+03 0.  0.
    9000005    1    3    3    0    0  0.51854648232E+02 -0.33535690565E+02  0.41116213465E+02  0.74196294346E+02  0.10000000000E+01 0.  0.
    9000005    1    3    3    0    0 -0.51854648232E+02  0.33535690565E+02  0.19810503191E+02  0.64861414737E+02  0.10000000000E+01 0.  0.
<mgrwt>
<rscale>  0 0.12499993E+03</rscale>
<asrwt>0</asrwt>
<pdfrwt beam="2">  1        4 0.60100764E-02 0.12499993E+03</pdfrwt>
<pdfrwt beam="1">  1       -4 0.15383417E-01 0.12499993E+03</pdfrwt>
<totfact> 0.10153169E+04</totfact>
</mgrwt>
</event>
<event>
 5    1  0.3398872E-002  0.1250029E+03  0.7818608E-02  0.1235065E+00
          4   -1    0    0  501    0  0.00000000000E+00  0.00000000000E+00  0.44068721195E+02  0.44087017224E+02  0.12700000000E+01 0.  1.
         -4   -1    0    0    0  501 -0.00000000000E+00 -0.00000000000E+00 -0.88602834991E+02  0.88611936377E+02  0.12700000000E+01 0.  1.
         25    2    1    2    0    0  0.00000000000E+00  0.00000000000E+00 -0.44534113796E+02  0.13269895360E+03  0.12500289995E+03 0.  0.
    9000005    1    3    3    0    0 -0.39498853582E+01 -0.33627121980E+02  0.33493474748E+02  0.47636097424E+02  0.10000000000E+01 0.  0.
    9000005    1    3    3    0    0  0.39498853582E+01  0.33627121980E+02 -0.78027588545E+02  0.85062856178E+02  0.10000000000E+01 0.  0.
<mgrwt>
<rscale>  0 0.12500290E+03</rscale>
<asrwt>0</asrwt>
<pdfrwt beam="1">  1        4 0.67819108E-02 0.12500290E+03</pdfrwt>
<pdfrwt beam="2">  1       -4 0.13633313E-01 0.12500290E+03</pdfrwt>
<totfact> 0.10286129E+04</totfact>
</mgrwt>
</event>
<event>
 5    1  0.3398872E-002  0.1250035E+03  0.7818608E-02  0.1235064E+00
          4   -1    0    0  501    0  0.00000000000E+00  0.00000000000E+00  0.21246677603E+02  0.21284600282E+02  0.12700000000E+01 0.  1.
         -4   -1    0    0    0  501 -0.00000000000E+00 -0.00000000000E+00 -0.18365836856E+03  0.18366275954E+03  0.12700000000E+01 0.  1.
         25    2    1    2    0    0  0.00000000000E+00  0.00000000000E+00 -0.16241169095E+03  0.20494735982E+03  0.12500345171E+03 0.  0.
    9000005    1    3    3    0    0 -0.97010548984E+01  0.59243608688E+02 -0.52735019960E+02  0.79911813686E+02  0.10000000000E+01 0.  0.
    9000005    1    3    3    0    0  0.97010548984E+01 -0.59243608688E+02 -0.10967667099E+03  0.12503554613E+03  0.10000000000E+01 0.  0.
<mgrwt>
<rscale>  0 0.12500345E+03</rscale>
<asrwt>0</asrwt>
<pdfrwt beam="1">  1        4 0.32719746E-02 0.12500345E+03</pdfrwt>
<pdfrwt beam="2">  1       -4 0.28258387E-01 0.12500345E+03</pdfrwt>
<totfact> 0.89300855E+03</totfact>
</mgrwt>
</event>
<event>
 5    1  0.3398872E-002  0.1250012E+03  0.7818608E-02  0.1235067E+00
          4   -1    0    0  501    0  0.00000000000E+00  0.00000000000E+00  0.18471446397E+02  0.18515054199E+02  0.12700000000E+01 0. -1.
         -4   -1    0    0    0  501 -0.00000000000E+00 -0.00000000000E+00 -0.21118440796E+03  0.21118822662E+03  0.12700000000E+01 0. -1.
         25    2    1    2    0    0  0.00000000000E+00  0.00000000000E+00 -0.19271296156E+03  0.22970328082E+03  0.12500124666E+03 0.  0.
    9000005    1    3    3    0    0  0.34091734466E+02  0.42493188388E+02 -0.40094144727E+02  0.67649522242E+02  0.10000000000E+01 0.  0.
    9000005    1    3    3    0    0 -0.34091734466E+02 -0.42493188388E+02 -0.15261881683E+03  0.16205375858E+03  0.10000000000E+01 0.  0.
<mgrwt>
<rscale>  0 0.12500125E+03</rscale>
<asrwt>0</asrwt>
<pdfrwt beam="1">  1        4 0.28454093E-02 0.12500125E+03</pdfrwt>
<pdfrwt beam="2">  1       -4 0.32493555E-01 0.12500125E+03</pdfrwt>
<totfact> 0.85352806E+03</totfact>
</mgrwt>
</event>
<event>
 5    1  0.3398872E-002  0.1249895E+03  0.7818608E-02  0.1235086E+00
          4   -1    0    0  501    0  0.00000000000E+00  0.00000000000E+00  0.19670873093E+02  0.19711827623E+02  0.12700000000E+01 0. -1.
         -4   -1    0    0    0  501 -0.00000000000E+00 -0.00000000000E+00 -0.19829759587E+03  0.19830166270E+03  0.12700000000E+01 0. -1.
         25    2    1    2    0    0  0.00000000000E+00  0.00000000000E+00 -0.17862672278E+03  0.21801349032E+03  0.12498950304E+03 0.  0.
    9000005    1    3    3    0    0  0.64712094216E+01  0.46880332146E+02 -0.16048560702E+03  0.16732086586E+03  0.10000000000E+01 0.  0.
    9000005    1    3    3    0    0 -0.64712094216E+01 -0.46880332146E+02 -0.18141115765E+02  0.50692624460E+02  0.10000000000E+01 0.  0.
<mgrwt>
<rscale>  0 0.12498950E+03</rscale>
<asrwt>0</asrwt>
<pdfrwt beam="1">  1        4 0.30297515E-02 0.12498950E+03</pdfrwt>
<pdfrwt beam="2">  1       -4 0.30510784E-01 0.12498950E+03</pdfrwt>
<totfact> 0.87204117E+03</totfact>
</mgrwt>
</event>
<event>
 5    1  0.3398872E-002  0.1250006E+03  0.7818608E-02  0.1235068E+00
          4   -1    0    0  501    0  0.00000000000E+00  0.00000000000E+00  0.40531063273E+02  0.40550955477E+02  0.12700000000E+01 0.  1.
         -4   -1    0    0    0  501 -0.00000000000E+00 -0.00000000000E+00 -0.96329835978E+02  0.96338207372E+02  0.12700000000E+01 0.  1.
         25    2    1    2    0    0  0.00000000000E+00  0.00000000000E+00 -0.55798772705E+02  0.13688916285E+03  0.12500055948E+03 0.  0.
    9000005    1    3    3    0    0  0.59115875820E+02  0.15842466852E+02 -0.14063939301E+02  0.62804975270E+02  0.10000000000E+01 0.  0.
    9000005    1    3    3    0    0 -0.59115875820E+02 -0.15842466852E+02 -0.41734833404E+02  0.74084187579E+02  0.10000000000E+01 0.  0.
<mgrwt>
<rscale>  0 0.12500056E+03</rscale>
<asrwt>0</asrwt>
<pdfrwt beam="1">  1        4 0.62377223E-02 0.12500056E+03</pdfrwt>
<pdfrwt beam="2">  1       -4 0.14822149E-01 0.12500056E+03</pdfrwt>
<totfact> 0.10198275E+04</totfact>
</mgrwt>
</event>
<event>
 5    1  0.3398872E-002  0.1250065E+03  0.7818608E-02  0.1235059E+00
         -4   -1    0    0    0  501 -0.00000000000E+00  0.00000000000E+00  0.28416349154E+03  0.28416632950E+03  0.12700000000E+01 0. -1.
          4   -1    0    0  501    0  0.00000000000E+00 -0.00000000000E+00 -0.13715673020E+02  0.13774345226E+02  0.12700000000E+01 0. -1.
         25    2    1    2    0    0  0.00000000000E+00  0.00000000000E+00  0.27044781852E+03  0.29794067473E+03  0.12500649230E+03 0.  0.
    9000005    1    3    3    0    0  0.59169911128E+02 -0.20047185580E+02  0.13913134078E+03  0.15251720566E+03  0.10000000000E+01 0.  0.
    9000005    1    3    3    0    0 -0.59169911128E+02  0.20047185580E+02  0.13131647773E+03  0.14542346907E+03  0.10000000000E+01 0.  0.
<mgrwt>
<rscale>  0 0.12500649E+03</rscale>
<asrwt>0</asrwt>
<pdfrwt beam="2">  1        4 0.21148351E-02 0.12500649E+03</pdfrwt>
<pdfrwt beam="1">  1       -4 0.43722191E-01 0.12500649E+03</pdfrwt>
<totfact> 0.75846950E+03</totfact>
</mgrwt>
</event>
<event>
 5    1  0.3398872E-002  0.1249949E+03  0.7818608E-02  0.1235077E+00
          4   -1    0    0  501    0  0.00000000000E+00  0.00000000000E+00  0.16709045979E+03  0.16709528614E+03  0.12700000000E+01 0.  1.
         -4   -1    0    0    0  501 -0.00000000000E+00 -0.00000000000E+00 -0.23353730642E+02  0.23388237106E+02  0.12700000000E+01 0.  1.
         25    2    1    2    0    0  0.00000000000E+00  0.00000000000E+00  0.14373672914E+03  0.19048352325E+03  0.12499490119E+03 0.  0.
    9000005    1    3    3    0    0  0.29543822838E+02  0.49868655676E+02  0.10745176437E+03  0.12209259581E+03  0.10000000000E+01 0.  0.
    9000005    1    3    3    0    0 -0.29543822838E+02 -0.49868655676E+02  0.36284964778E+02  0.68390927438E+02  0.10000000000E+01 0.  0.
<mgrwt>
<rscale>  0 0.12499490E+03</rscale>
<asrwt>0</asrwt>
<pdfrwt beam="1">  1        4 0.25709249E-01 0.12499490E+03</pdfrwt>
<pdfrwt beam="2">  1       -4 0.35959073E-02 0.12499490E+03</pdfrwt>
<totfact> 0.91773732E+03</totfact>
</mgrwt>
</event>
<event>
 5    1  0.3398872E-002  0.1250033E+03  0.7818608E-02  0.1235064E+00
          4   -1    0    0  501    0  0.00000000000E+00  0.00000000000E+00  0.24032939910E+03  0.24033275468E+03  0.12700000000E+01 0.  1.
         -4   -1    0    0    0  501 -0.00000000000E+00 -0.00000000000E+00 -0.16226305859E+02  0.16275930138E+02  0.12700000000E+01 0.  1.
         25    2    1    2    0    0  0.00000000000E+00  0.00000000000E+00  0.22410309324E+03  0.25660868482E+03  0.12500328285E+03 0.  0.
    9000005    1    3    3    0    0 -0.77860331167E+01 -0.51037426309E+02  0.39764043552E+02  0.65173770457E+02  0.10000000000E+01 0.  0.
    9000005    1    3    3    0    0  0.77860331167E+01  0.51037426309E+02  0.18433904969E+03  0.19143491436E+03  0.10000000000E+01 0.  0.
<mgrwt>
<rscale>  0 0.12500328E+03</rscale>
<asrwt>0</asrwt>
<pdfrwt beam="1">  1        4 0.36977828E-01 0.12500328E+03</pdfrwt>
<pdfrwt beam="2">  1       -4 0.25004302E-02 0.12500328E+03</pdfrwt>
<totfact> 0.81378403E+03</totfact>
</mgrwt>
</event>
<event>
 5    1  0.3398872E-002  0.1250067E+03  0.7818608E-02  0.1235059E+00
          4   -1    0    0  501    0  0.00000000000E+00  0.00000000000E+00  0.37473885889E+02  0.37495400033E+02  0.12700000000E+01 0.  1.
         -4   -1    0    0    0  501 -0.00000000000E+00 -0.00000000000E+00 -0.10419518139E+03  0.10420292090E+03  0.12700000000E+01 0.  1.
         25    2    1    2    0    0  0.00000000000E+00  0.00000000000E+00 -0.66721295497E+02  0.14169832093E+03  0.12500673135E+03 0.  0.
    9000005    1    3    3    0    0 -0.48355113203E+02 -0.37927686899E+02 -0.46232243834E+02  0.76909991395E+02  0.10000000000E+01 0.  0.
    9000005    1    3    3    0    0  0.48355113203E+02  0.37927686899E+02 -0.20489051663E+02  0.64788329539E+02  0.10000000000E+01 0.  0.
<mgrwt>
<rscale>  0 0.12500673E+03</rscale>
<asrwt>0</asrwt>
<pdfrwt beam="1">  1        4 0.57674635E-02 0.12500673E+03</pdfrwt>
<pdfrwt beam="2">  1       -4 0.16032278E-01 0.12500673E+03</pdfrwt>
<totfact> 0.10096977E+04</totfact>
</mgrwt>
</event>
<event>
 5    1  0.3398872E-002  0.1250027E+03  0.7818608E-02  0.1235065E+00
         -4   -1    0    0    0  501 -0.00000000000E+00  0.00000000000E+00  0.92612926622E+01  0.93479645793E+01  0.12700000000E+01 0. -1.
          4   -1    0    0  501    0  0.00000000000E+00 -0.00000000000E+00 -0.41974826959E+03  0.41975019085E+03  0.12700000000E+01 0. -1.
         25    2    1    2    0    0  0.00000000000E+00  0.00000000000E+00 -0.41048697693E+03  0.42909815543E+03  0.12500267505E+03 0.  0.
    9000005    1    3    3    0    0  0.42033320960E+02 -0.15565369977E+02 -0.55759378856E+02  0.71548509026E+02  0.10000000000E+01 0.  0.
    9000005    1    3    3    0    0 -0.42033320960E+02  0.15565369977E+02 -0.35472759807E+03  0.35754964641E+03  0.10000000000E+01 0.  0.
<mgrwt>
<rscale>  0 0.12500268E+03</rscale>
<asrwt>0</asrwt>
<pdfrwt beam="2">  1        4 0.64583457E-01 0.12500268E+03</pdfrwt>
<pdfrwt beam="1">  1       -4 0.14316294E-02 0.12500268E+03</pdfrwt>
<totfact> 0.61814184E+03</totfact>
</mgrwt>
</event>
<event>
 5    1  0.3398872E-002  0.1249999E+03  0.7818608E-02  0.1235069E+00
          4   -1    0    0  501    0  0.00000000000E+00  0.00000000000E+00  0.22689505208E+03  0.22689860634E+03  0.12700000000E+01 0.  1.
         -4   -1    0    0    0  501 -0.00000000000E+00 -0.00000000000E+00 -0.17188957040E+02  0.17235809935E+02  0.12700000000E+01 0.  1.
         25    2    1    2    0    0  0.00000000000E+00  0.00000000000E+00  0.20970609504E+03  0.24413441627E+03  0.12499986765E+03 0.  0.
    9000005    1    3    3    0    0  0.25087911674E+02 -0.17511772292E+02  0.21127652432E+03  0.21348263444E+03  0.10000000000E+01 0.  0.
    9000005    1    3    3    0    0 -0.25087911674E+02  0.17511772292E+02 -0.15704292818E+01  0.30651781826E+02  0.10000000000E+01 0.  0.
<mgrwt>
<rscale>  0 0.12499987E+03</rscale>
<asrwt>0</asrwt>
<pdfrwt beam="1">  1        4 0.34910807E-01 0.12499987E+03</pdfrwt>
<pdfrwt beam="2">  1       -4 0.26483325E-02 0.12499987E+03</pdfrwt>
<totfact> 0.83185693E+03</totfact>
</mgrwt>
</event>
<event>
 5    1  0.3398872E-002  0.1249878E+03  0.7818608E-02  0.1235088E+00
         -4   -1    0    0    0  501 -0.00000000000E+00  0.00000000000E+00  0.19222890837E+03  0.19223310358E+03  0.12700000000E+01 0.  1.
          4   -1    0    0  501    0  0.00000000000E+00 -0.00000000000E+00 -0.20292580497E+02  0.20332282785E+02  0.12700000000E+01 0.  1.
         25    2    1    2    0    0  0.00000000000E+00  0.00000000000E+00  0.17193632787E+03  0.21256538636E+03  0.12498776996E+03 0.  0.
    9000005    1    3    3    0    0  0.27918924901E+02  0.32376134928E+02  0.84643800436E+01  0.43592731161E+02  0.10000000000E+01 0.  0.
    9000005    1    3    3    0    0 -0.27918924901E+02 -0.32376134928E+02  0.16347194783E+03  0.16897265520E+03  0.10000000000E+01 0.  0.
<mgrwt>
<rscale>  0 0.12498777E+03</rscale>
<asrwt>0</asrwt>
<pdfrwt beam="2">  1        4 0.31253122E-02 0.12498777E+03</pdfrwt>
<pdfrwt beam="1">  1       -4 0.29577055E-01 0.12498777E+03</pdfrwt>
<totfact> 0.88082701E+03</totfact>
</mgrwt>
</event>
<event>
 5    1  0.3398872E-002  0.1250146E+03  0.7818608E-02  0.1235047E+00
          4   -1    0    0  501    0  0.00000000000E+00  0.00000000000E+00  0.12280422375E+02  0.12345917289E+02  0.12700000000E+01 0.  1.
         -4   -1    0    0    0  501 -0.00000000000E+00 -0.00000000000E+00 -0.31724876982E+03  0.31725131182E+03  0.12700000000E+01 0.  1.
         25    2    1    2    0    0  0.00000000000E+00  0.00000000000E+00 -0.30496834744E+03  0.32959722911E+03  0.12501456113E+03 0.  0.
    9000005    1    3    3    0    0  0.20765607179E+02  0.16958698841E+02 -0.30133045199E+03  0.30252247719E+03  0.10000000000E+01 0.  0.
    9000005    1    3    3    0    0 -0.20765607179E+02 -0.16958698841E+02 -0.36378954469E+01  0.27074751914E+02  0.10000000000E+01 0.  0.
<mgrwt>
<rscale>  0 0.12501456E+03</rscale>
<asrwt>0</asrwt>
<pdfrwt beam="1">  1        4 0.18945296E-02 0.12501456E+03</pdfrwt>
<pdfrwt beam="2">  1       -4 0.48812731E-01 0.12501456E+03</pdfrwt>
<totfact> 0.72005787E+03</totfact>
</mgrwt>
</event>
<event>
 5    1  0.3398872E-002  0.1249980E+03  0.7818608E-02  0.1235072E+00
          4   -1    0    0  501    0  0.00000000000E+00  0.00000000000E+00  0.24804404581E+03  0.24804729702E+03  0.12700000000E+01 0. -1.
         -4   -1    0    0    0  501 -0.00000000000E+00 -0.00000000000E+00 -0.15718751843E+02  0.15769973352E+02  0.12700000000E+01 0. -1.
         25    2    1    2    0    0  0.00000000000E+00  0.00000000000E+00  0.23232529396E+03  0.26381727037E+03  0.12499803971E+03 0.  0.
    9000005    1    3    3    0    0  0.58009123658E+02 -0.23083547153E+02  0.11049195934E+03  0.12691485987E+03  0.10000000000E+01 0.  0.
    9000005    1    3    3    0    0 -0.58009123658E+02  0.23083547153E+02  0.12183333463E+03  0.13690241051E+03  0.10000000000E+01 0.  0.
<mgrwt>
<rscale>  0 0.12499804E+03</rscale>
<asrwt>0</asrwt>
<pdfrwt beam="1">  1        4 0.38164815E-01 0.12499804E+03</pdfrwt>
<pdfrwt beam="2">  1       -4 0.24224596E-02 0.12499804E+03</pdfrwt>
<totfact> 0.80376831E+03</totfact>
</mgrwt>
</event>
<event>
 5    1  0.3398872E-002  0.1250090E+03  0.7818608E-02  0.1235055E+00
         -4   -1    0    0    0  501 -0.00000000000E+00  0.00000000000E+00  0.15339466791E+03  0.15339992517E+03  0.12700000000E+01 0. -1.
          4   -1    0    0  501    0  0.00000000000E+00 -0.00000000000E+00 -0.25447497793E+02  0.25479168824E+02  0.12700000000E+01 0. -1.
         25    2    1    2    0    0  0.00000000000E+00  0.00000000000E+00  0.12794717011E+03  0.17887909399E+03  0.12500900739E+03 0.  0.
    9000005    1    3    3    0    0  0.42657475236E+02  0.40051041467E+02  0.32556063568E+02  0.66967480102E+02  0.10000000000E+01 0.  0.
    9000005    1    3    3    0    0 -0.42657475236E+02 -0.40051041467E+02  0.95391106546E+02  0.11191161389E+03  0.10000000000E+01 0.  0.
<mgrwt>
<rscale>  0 0.12500901E+03</rscale>
<asrwt>0</asrwt>
<pdfrwt beam="2">  1        4 0.39178402E-02 0.12500901E+03</pdfrwt>
<pdfrwt beam="1">  1       -4 0.23602021E-01 0.12500901E+03</pdfrwt>
<totfact> 0.93800211E+03</totfact>
</mgrwt>
</event>
<event>
 5    1  0.3398872E-002  0.1249966E+03  0.7818608E-02  0.1235075E+00
         -4   -1    0    0    0  501 -0.00000000000E+00  0.00000000000E+00  0.49693914133E+01  0.51291082089E+01  0.12700000000E+01 0.  1.
          4   -1    0    0  501    0  0.00000000000E+00 -0.00000000000E+00 -0.77342763385E+03  0.77342867654E+03  0.12700000000E+01 0.  1.
         25    2    1    2    0    0  0.00000000000E+00  0.00000000000E+00 -0.76845824244E+03  0.77855778475E+03  0.12499661529E+03 0.  0.
    9000005    1    3    3    0    0  0.19272646620E+02  0.59237314837E+02 -0.41508699439E+03  0.41973647362E+03  0.10000000000E+01 0.  0.
    9000005    1    3    3    0    0 -0.19272646620E+02 -0.59237314837E+02 -0.35337124805E+03  0.35882131113E+03  0.10000000000E+01 0.  0.
<mgrwt>
<rscale>  0 0.12499662E+03</rscale>
<asrwt>0</asrwt>
<pdfrwt beam="2">  1        4 0.11900114E+00 0.12499662E+03</pdfrwt>
<pdfrwt beam="1">  1       -4 0.77688849E-03 0.12499662E+03</pdfrwt>
<totfact> 0.39242994E+03</totfact>
</mgrwt>
</event>
<event>
 5    1  0.3398872E-002  0.1249999E+03  0.7818608E-02  0.1235069E+00
          4   -1    0    0  501    0  0.00000000000E+00  0.00000000000E+00  0.53838574342E+02  0.53853551296E+02  0.12700000000E+01 0.  1.
         -4   -1    0    0    0  501 -0.00000000000E+00 -0.00000000000E+00 -0.72524166192E+02  0.72535285082E+02  0.12700000000E+01 0.  1.
         25    2    1    2    0    0  0.00000000000E+00  0.00000000000E+00 -0.18685591850E+02  0.12638883638E+03  0.12499994647E+03 0.  0.
    9000005    1    3    3    0    0  0.75506383764E+01 -0.58657970278E+02  0.11067554371E+02  0.60176909000E+02  0.10000000000E+01 0.  0.
    9000005    1    3    3    0    0 -0.75506383764E+01  0.58657970278E+02 -0.29753146221E+02  0.66211927378E+02  0.10000000000E+01 0.  0.
<mgrwt>
<rscale>  0 0.12499995E+03</rscale>
<asrwt>0</asrwt>
<pdfrwt beam="1">  1        4 0.82848650E-02 0.12499995E+03</pdfrwt>
<pdfrwt beam="2">  1       -4 0.11159571E-01 0.12499995E+03</pdfrwt>
<totfact> 0.10422466E+04</totfact>
</mgrwt>
</event>
<event>
 5    1  0.3398872E-002  0.1250005E+03  0.7818608E-02  0.1235069E+00
          4   -1    0    0  501    0  0.00000000000E+00  0.00000000000E+00  0.52712875342E+02  0.52728172041E+02  0.12700000000E+01 0. -1.
         -4   -1    0    0    0  501 -0.00000000000E+00 -0.00000000000E+00 -0.74073386773E+02  0.74084273149E+02  0.12700000000E+01 0. -1.
         25    2    1    2    0    0  0.00000000000E+00  0.00000000000E+00 -0.21360511431E+02  0.12681244519E+03  0.12500049922E+03 0.  0.
    9000005    1    3    3    0    0  0.44779481564E+02 -0.42663572679E+02 -0.16120731709E+01  0.61878761969E+02  0.10000000000E+01 0.  0.
    9000005    1    3    3    0    0 -0.44779481564E+02  0.42663572679E+02 -0.19748438260E+02  0.64933683221E+02  0.10000000000E+01 0.  0.
<mgrwt>
<rscale>  0 0.12500050E+03</rscale>
<asrwt>0</asrwt>
<pdfrwt beam="1">  1        4 0.81116872E-02 0.12500050E+03</pdfrwt>
<pdfrwt beam="2">  1       -4 0.11397920E-01 0.12500050E+03</pdfrwt>
<totfact> 0.10413106E+04</totfact>
</mgrwt>
</event>
<event>
 5    1  0.3398872E-002  0.1249873E+03  0.7818608E-02  0.1235089E+00
          4   -1    0    0  501    0  0.00000000000E+00  0.00000000000E+00  0.26097734457E+02  0.26128617334E+02  0.12700000000E+01 0. -1.
         -4   -1    0    0    0  501 -0.00000000000E+00 -0.00000000000E+00 -0.14952525566E+03  0.14953064896E+03  0.12700000000E+01 0. -1.
         25    2    1    2    0    0  0.00000000000E+00  0.00000000000E+00 -0.12342752120E+03  0.17565926630E+03  0.12498729874E+03 0.  0.
    9000005    1    3    3    0    0  0.52091254656E+02 -0.29785057121E+02 -0.37217227626E+02  0.70617069265E+02  0.10000000000E+01 0.  0.
    9000005    1    3    3    0    0 -0.52091254656E+02  0.29785057121E+02 -0.86210293575E+02  0.10504219703E+03  0.10000000000E+01 0.  0.
<mgrwt>
<rscale>  0 0.12498730E+03</rscale>
<asrwt>0</asrwt>
<pdfrwt beam="1">  1        4 0.40178266E-02 0.12498730E+03</pdfrwt>
<pdfrwt beam="2">  1       -4 0.23006675E-01 0.12498730E+03</pdfrwt>
<totfact> 0.94431138E+03</totfact>
</mgrwt>
</event>
<event>
 5    1  0.3398872E-002  0.1250014E+03  0.7818608E-02  0.1235067E+00
         -4   -1    0    0    0  501 -0.00000000000E+00  0.00000000000E+00  0.18744269045E+03  0.18744699278E+03  0.12700000000E+01 0. -1.
          4   -1    0    0  501    0  0.00000000000E+00 -0.00000000000E+00 -0.20816271260E+02  0.20854976604E+02  0.12700000000E+01 0. -1.
         25    2    1    2    0    0  0.00000000000E+00  0.00000000000E+00  0.16662641919E+03  0.20830196938E+03  0.12500138750E+03 0.  0.
    9000005    1    3    3    0    0  0.59338725405E+02 -0.14483081899E+02  0.61300819249E+02  0.86542674067E+02  0.10000000000E+01 0.  0.
    9000005    1    3    3    0    0 -0.59338725405E+02  0.14483081899E+02  0.10532559994E+03  0.12175929532E+03  0.10000000000E+01 0.  0.
<mgrwt>
<rscale>  0 0.12500139E+03</rscale>
<asrwt>0</asrwt>
<pdfrwt beam="2">  1        4 0.32058116E-02 0.12500139E+03</pdfrwt>
<pdfrwt beam="1">  1       -4 0.28840645E-01 0.12500139E+03</pdfrwt>
<totfact> 0.88751190E+03</totfact>
</mgrwt>
</event>
<event>
 4    1  0.3398872E-002  0.1251116E+03  0.7818608E-02  0.1234895E+00
         -4   -1    0    0    0  501 -0.00000000000E+00  0.00000000000E+00  0.33072847684E+02  0.33097222752E+02  0.12700000000E+01 0. -1.
          4   -1    0    0  501    0  0.00000000000E+00 -0.00000000000E+00 -0.11825018799E+03  0.11825700766E+03  0.12700000000E+01 0. -1.
    9000005    1    1    2    0    0  0.15727854013E+02 -0.24420373772E+02 -0.10960191754E+03  0.11339003649E+03  0.10000000000E+01 0.  0.
    9000005    1    1    2    0    0 -0.15727854013E+02  0.24420373772E+02  0.24424577232E+02  0.37964193919E+02  0.10000000000E+01 0.  0.
<mgrwt>
<rscale>  0 0.12511165E+03</rscale>
<asrwt>0</asrwt>
<pdfrwt beam="2">  1        4 0.18194736E-01 0.12511165E+03</pdfrwt>
<pdfrwt beam="1">  1       -4 0.50905301E-02 0.12511165E+03</pdfrwt>
<totfact> 0.98786044E+03</totfact>
</mgrwt>
</event>
<event>
 5    1  0.3398872E-002  0.1250020E+03  0.7818608E-02  0.1235066E+00
          4   -1    0    0  501    0  0.00000000000E+00  0.00000000000E+00  0.17786216710E+02  0.17831500353E+02  0.12700000000E+01 0. -1.
         -4   -1    0    0    0  501 -0.00000000000E+00 -0.00000000000E+00 -0.21930291790E+03  0.21930659520E+03  0.12700000000E+01 0. -1.
         25    2    1    2    0    0  0.00000000000E+00  0.00000000000E+00 -0.20151670119E+03  0.23713809556E+03  0.12500198201E+03 0.  0.
    9000005    1    3    3    0    0 -0.19120772187E+02  0.47335070794E+02 -0.16913627589E+03  0.17667567087E+03  0.10000000000E+01 0.  0.
    9000005    1    3    3    0    0  0.19120772187E+02 -0.47335070794E+02 -0.32380425299E+02  0.60462424683E+02  0.10000000000E+01 0.  0.
<mgrwt>
<rscale>  0 0.12500198E+03</rscale>
<asrwt>0</asrwt>
<pdfrwt beam="1">  1        4 0.27401074E-02 0.12500198E+03</pdfrwt>
<pdfrwt beam="2">  1       -4 0.33742675E-01 0.12500198E+03</pdfrwt>
<totfact> 0.84221730E+03</totfact>
</mgrwt>
</event>
<event>
 5    1  0.3398872E-002  0.1250011E+03  0.7818608E-02  0.1235068E+00
          4   -1    0    0  501    0  0.00000000000E+00  0.00000000000E+00  0.25126338934E+03  0.25126659889E+03  0.12700000000E+01 0.  1.
         -4   -1    0    0    0  501 -0.00000000000E+00 -0.00000000000E+00 -0.15517459737E+02  0.15569343490E+02  0.12700000000E+01 0.  1.
         25    2    1    2    0    0  0.00000000000E+00  0.00000000000E+00  0.23574592960E+03  0.26683594238E+03  0.12500110730E+03 0.  0.
    9000005    1    3    3    0    0  0.43303196047E+02  0.31465294353E+02  0.49029068491E+02  0.72595324186E+02  0.10000000000E+01 0.  0.
    9000005    1    3    3    0    0 -0.43303196047E+02 -0.31465294353E+02  0.18671686111E+03  0.19424061820E+03  0.10000000000E+01 0.  0.
<mgrwt>
<rscale>  0 0.12500111E+03</rscale>
<asrwt>0</asrwt>
<pdfrwt beam="1">  1        4 0.38660142E-01 0.12500111E+03</pdfrwt>
<pdfrwt beam="2">  1       -4 0.23915396E-02 0.12500111E+03</pdfrwt>
<totfact> 0.79954234E+03</totfact>
</mgrwt>
</event>
<event>
 5    1  0.3398872E-002  0.1249968E+03  0.7818608E-02  0.1235074E+00
         -4   -1    0    0    0  501 -0.00000000000E+00  0.00000000000E+00  0.27455432115E+03  0.27455725844E+03  0.12700000000E+01 0.  1.
          4   -1    0    0  501    0  0.00000000000E+00 -0.00000000000E+00 -0.14195516646E+02  0.14252213613E+02  0.12700000000E+01 0.  1.
         25    2    1    2    0    0  0.00000000000E+00  0.00000000000E+00  0.26035880450E+03  0.28880947205E+03  0.12499681622E+03 0.  0.
    9000005    1    3    3    0    0 -0.47365701012E+02 -0.19257086577E+02  0.47170218016E+02  0.69572799882E+02  0.10000000000E+01 0.  0.
    9000005    1    3    3    0    0  0.47365701012E+02  0.19257086577E+02  0.21318858649E+03  0.21923667217E+03  0.10000000000E+01 0.  0.
<mgrwt>
<rscale>  0 0.12499682E+03</rscale>
<asrwt>0</asrwt>
<pdfrwt beam="2">  1        4 0.21885131E-02 0.12499682E+03</pdfrwt>
<pdfrwt beam="1">  1       -4 0.42243710E-01 0.12499682E+03</pdfrwt>
<totfact> 0.77029797E+03</totfact>
</mgrwt>
</event>
<event>
 5    1  0.3398872E-002  0.1249976E+03  0.7818608E-02  0.1235073E+00
         -4   -1    0    0    0  501 -0.00000000000E+00  0.00000000000E+00  0.28470634341E+03  0.28470917596E+03  0.12700000000E+01 0.  1.
          4   -1    0    0  501    0  0.00000000000E+00 -0.00000000000E+00 -0.13687457979E+02  0.13746250614E+02  0.12700000000E+01 0.  1.
         25    2    1    2    0    0  0.00000000000E+00  0.00000000000E+00  0.27101888543E+03  0.29845542658E+03  0.12499762155E+03 0.  0.
    9000005    1    3    3    0    0 -0.37742049505E+02  0.20632354961E+02  0.24374696179E+03  0.24751512631E+03  0.10000000000E+01 0.  0.
    9000005    1    3    3    0    0  0.37742049505E+02 -0.20632354961E+02  0.27271923645E+02  0.50940300268E+02  0.10000000000E+01 0.  0.
<mgrwt>
<rscale>  0 0.12499762E+03</rscale>
<asrwt>0</asrwt>
<pdfrwt beam="2">  1        4 0.21105032E-02 0.12499762E+03</pdfrwt>
<pdfrwt beam="1">  1       -4 0.43805716E-01 0.12499762E+03</pdfrwt>
<totfact> 0.75796997E+03</totfact>
</mgrwt>
</event>
<event>
 5    1  0.3398872E-002  0.1249998E+03  0.7818608E-02  0.1235070E+00
         -4   -1    0    0    0  501 -0.00000000000E+00  0.00000000000E+00  0.51872642442E+03  0.51872797909E+03  0.12700000000E+01 0.  1.
          4   -1    0    0  501    0  0.00000000000E+00 -0.00000000000E+00 -0.74753164650E+01  0.75824307615E+01  0.12700000000E+01 0.  1.
         25    2    1    2    0    0  0.00000000000E+00  0.00000000000E+00  0.51125110795E+03  0.52631040985E+03  0.12499980853E+03 0.  0.
    9000005    1    3    3    0    0  0.26774072562E+02  0.57066776971E+01  0.49215694525E+03  0.49291873153E+03  0.10000000000E+01 0.  0.
    9000005    1    3    3    0    0 -0.26774072562E+02 -0.57066776971E+01  0.19094162702E+02  0.33391678323E+02  0.10000000000E+01 0.  0.
<mgrwt>
<rscale>  0 0.12499981E+03</rscale>
<asrwt>0</asrwt>
<pdfrwt beam="2">  1        4 0.11584076E-02 0.12499981E+03</pdfrwt>
<pdfrwt beam="1">  1       -4 0.79812438E-01 0.12499981E+03</pdfrwt>
<totfact> 0.53879485E+03</totfact>
</mgrwt>
</event>
<event>
 5    1  0.3398872E-002  0.1250006E+03  0.7818608E-02  0.1235068E+00
          4   -1    0    0  501    0  0.00000000000E+00  0.00000000000E+00  0.98691720480E+03  0.98691802194E+03  0.12700000000E+01 0. -1.
         -4   -1    0    0    0  501 -0.00000000000E+00 -0.00000000000E+00 -0.38553540122E+01  0.40591445600E+01  0.12700000000E+01 0. -1.
         25    2    1    2    0    0  0.00000000000E+00  0.00000000000E+00  0.98306185079E+03  0.99097716650E+03  0.12500056820E+03 0.  0.
    9000005    1    3    3    0    0  0.42836260874E+02 -0.60887347337E+00  0.85222054027E+03  0.85329723146E+03  0.10000000000E+01 0.  0.
    9000005    1    3    3    0    0 -0.42836260874E+02  0.60887347337E+00  0.13084131052E+03  0.13767993504E+03  0.10000000000E+01 0.  0.
<mgrwt>
<rscale>  0 0.12500057E+03</rscale>
<asrwt>0</asrwt>
<pdfrwt beam="1">  1        4 0.15184938E+00 0.12500057E+03</pdfrwt>
<pdfrwt beam="2">  1       -4 0.60886955E-03 0.12500057E+03</pdfrwt>
<totfact> 0.30903850E+03</totfact>
</mgrwt>
</event>
<event>
 5    1  0.3398872E-002  0.1250016E+03  0.7818608E-02  0.1235067E+00
         -4   -1    0    0    0  501 -0.00000000000E+00  0.00000000000E+00  0.17393523110E+02  0.17439826437E+02  0.12700000000E+01 0. -1.
          4   -1    0    0  501    0  0.00000000000E+00 -0.00000000000E+00 -0.22423974449E+03  0.22424334083E+03  0.12700000000E+01 0. -1.
         25    2    1    2    0    0  0.00000000000E+00  0.00000000000E+00 -0.20684622138E+03  0.24168316727E+03  0.12500157616E+03 0.  0.
    9000005    1    3    3    0    0 -0.29126097205E+02 -0.41109068663E+02 -0.31936410587E+02  0.59659193642E+02  0.10000000000E+01 0.  0.
    9000005    1    3    3    0    0  0.29126097205E+02  0.41109068663E+02 -0.17490981079E+03  0.18202397363E+03  0.10000000000E+01 0.  0.
<mgrwt>
<rscale>  0 0.12500158E+03</rscale>
<asrwt>0</asrwt>
<pdfrwt beam="2">  1        4 0.34502259E-01 0.12500158E+03</pdfrwt>
<pdfrwt beam="1">  1       -4 0.26797652E-02 0.12500158E+03</pdfrwt>
<totfact> 0.83544392E+03</totfact>
</mgrwt>
</event>
<event>
 5    1  0.3398872E-002  0.1250004E+03  0.7818608E-02  0.1235069E+00
          4   -1    0    0  501    0  0.00000000000E+00  0.00000000000E+00  0.66239445668E+01  0.67445935107E+01  0.12700000000E+01 0.  1.
         -4   -1    0    0    0  501 -0.00000000000E+00 -0.00000000000E+00 -0.58427717818E+03  0.58427855843E+03  0.12700000000E+01 0.  1.
         25    2    1    2    0    0  0.00000000000E+00  0.00000000000E+00 -0.57765323361E+03  0.59102315194E+03  0.12500043131E+03 0.  0.
    9000005    1    3    3    0    0 -0.45828737351E+01 -0.28463218995E+02 -0.26674513052E+02  0.39289785107E+02  0.10000000000E+01 0.  0.
    9000005    1    3    3    0    0  0.45828737351E+01  0.28463218995E+02 -0.55097872056E+03  0.55173336683E+03  0.10000000000E+01 0.  0.
<mgrwt>
<rscale>  0 0.12500043E+03</rscale>
<asrwt>0</asrwt>
<pdfrwt beam="1">  1        4 0.10284557E-02 0.12500043E+03</pdfrwt>
<pdfrwt beam="2">  1       -4 0.89898143E-01 0.12500043E+03</pdfrwt>
<totfact> 0.49438751E+03</totfact>
</mgrwt>
</event>
<event>
 5    1  0.3398872E-002  0.1249955E+03  0.7818608E-02  0.1235076E+00
          4   -1    0    0  501    0  0.00000000000E+00  0.00000000000E+00  0.20630257730E+04  0.20630261639E+04  0.12700000000E+01 0.  1.
         -4   -1    0    0    0  501 -0.00000000000E+00 -0.00000000000E+00 -0.16799139740E+01  0.21059465710E+01  0.12700000000E+01 0.  1.
         25    2    1    2    0    0  0.00000000000E+00  0.00000000000E+00  0.20613458591E+04  0.20651321105E+04  0.12499553273E+03 0.  0.
    9000005    1    3    3    0    0 -0.44136333637E+02 -0.33362149410E+02  0.55071357472E+03  0.55348666681E+03  0.10000000000E+01 0.  0.
    9000005    1    3    3    0    0  0.44136333637E+02  0.33362149410E+02  0.15106322843E+04  0.15116454437E+04  0.10000000000E+01 0.  0.
<mgrwt>
<rscale>  0 0.12499553E+03</rscale>
<asrwt>0</asrwt>
<pdfrwt beam="1">  1        4 0.31742073E+00 0.12499553E+03</pdfrwt>
<pdfrwt beam="2">  1       -4 0.29125071E-03 0.12499553E+03</pdfrwt>
<totfact> 0.90358772E+02</totfact>
</mgrwt>
</event>
<event>
 5    1  0.3398872E-002  0.1250034E+03  0.7818608E-02  0.1235064E+00
         -4   -1    0    0    0  501 -0.00000000000E+00  0.00000000000E+00  0.91916991288E+01  0.92790211161E+01  0.12700000000E+01 0. -1.
          4   -1    0    0  501    0  0.00000000000E+00 -0.00000000000E+00 -0.42290167214E+03  0.42290357908E+03  0.12700000000E+01 0. -1.
         25    2    1    2    0    0  0.00000000000E+00  0.00000000000E+00 -0.41370997301E+03  0.43218260019E+03  0.12500343253E+03 0.  0.
    9000005    1    3    3    0    0  0.54588625650E+02 -0.30415265738E+02 -0.20919502699E+03  0.21833132106E+03  0.10000000000E+01 0.  0.
    9000005    1    3    3    0    0 -0.54588625650E+02  0.30415265738E+02 -0.20451494602E+03  0.21385127913E+03  0.10000000000E+01 0.  0.
<mgrwt>
<rscale>  0 0.12500343E+03</rscale>
<asrwt>0</asrwt>
<pdfrwt beam="2">  1        4 0.65068644E-01 0.12500343E+03</pdfrwt>
<pdfrwt beam="1">  1       -4 0.14209716E-02 0.12500343E+03</pdfrwt>
<totfact> 0.61533999E+03</totfact>
</mgrwt>
</event>
<event>
 5    1  0.3398872E-002  0.1249983E+03  0.7818608E-02  0.1235072E+00
         -4   -1    0    0    0  501 -0.00000000000E+00  0.00000000000E+00  0.22567092308E+02  0.22602799721E+02  0.12700000000E+01 0. -1.
          4   -1    0    0  501    0  0.00000000000E+00 -0.00000000000E+00 -0.17291536319E+03  0.17292002697E+03  0.12700000000E+01 0. -1.
         25    2    1    2    0    0  0.00000000000E+00  0.00000000000E+00 -0.15034827088E+03  0.19552282669E+03  0.12499829279E+03 0.  0.
    9000005    1    3    3    0    0  0.52478286049E+02  0.42544145674E+01 -0.12782703388E+03  0.13824912709E+03  0.10000000000E+01 0.  0.
    9000005    1    3    3    0    0 -0.52478286049E+02 -0.42544145674E+01 -0.22521237000E+02  0.57273699601E+02  0.10000000000E+01 0.  0.
<mgrwt>
<rscale>  0 0.12499829E+03</rscale>
<asrwt>0</asrwt>
<pdfrwt beam="2">  1        4 0.26605468E-01 0.12499829E+03</pdfrwt>
<pdfrwt beam="1">  1       -4 0.34749660E-02 0.12499829E+03</pdfrwt>
<totfact> 0.90898616E+03</totfact>
</mgrwt>
</event>
<event>
 5    1  0.3398872E-002  0.1249976E+03  0.7818608E-02  0.1235073E+00
          4   -1    0    0  501    0  0.00000000000E+00  0.00000000000E+00  0.22912316950E+03  0.22912668920E+03  0.12700000000E+01 0.  1.
         -4   -1    0    0    0  501 -0.00000000000E+00 -0.00000000000E+00 -0.17020716756E+02  0.17068031488E+02  0.12700000000E+01 0.  1.
         25    2    1    2    0    0  0.00000000000E+00  0.00000000000E+00  0.21210245275E+03  0.24619472069E+03  0.12499756011E+03 0.  0.
    9000005    1    3    3    0    0  0.15032221392E+02  0.54951588988E+02  0.15663008491E+03  0.16667221818E+03  0.10000000000E+01 0.  0.
    9000005    1    3    3    0    0 -0.15032221392E+02 -0.54951588988E+02  0.55472367834E+02  0.79522502509E+02  0.10000000000E+01 0.  0.
<mgrwt>
<rscale>  0 0.12499756E+03</rscale>
<asrwt>0</asrwt>
<pdfrwt beam="1">  1        4 0.35253627E-01 0.12499756E+03</pdfrwt>
<pdfrwt beam="2">  1       -4 0.26224822E-02 0.12499756E+03</pdfrwt>
<totfact> 0.82887845E+03</totfact>
</mgrwt>
</event>
<event>
 5    1  0.3398872E-002  0.1249987E+03  0.7818608E-02  0.1235071E+00
          4   -1    0    0  501    0  0.00000000000E+00  0.00000000000E+00  0.12438036115E+02  0.12502705403E+02  0.12700000000E+01 0. -1.
         -4   -1    0    0    0  501 -0.00000000000E+00 -0.00000000000E+00 -0.31317015427E+03  0.31317272938E+03  0.12700000000E+01 0. -1.
         25    2    1    2    0    0  0.00000000000E+00  0.00000000000E+00 -0.30073211816E+03  0.32567543478E+03  0.12499872771E+03 0.  0.
    9000005    1    3    3    0    0 -0.27394571647E+02  0.51988897210E+02 -0.20574983434E+03  0.21397967735E+03  0.10000000000E+01 0.  0.
    9000005    1    3    3    0    0  0.27394571647E+02 -0.51988897210E+02 -0.94982283816E+02  0.11169575743E+03  0.10000000000E+01 0.  0.
<mgrwt>
<rscale>  0 0.12499873E+03</rscale>
<asrwt>0</asrwt>
<pdfrwt beam="1">  1        4 0.19187169E-02 0.12499873E+03</pdfrwt>
<pdfrwt beam="2">  1       -4 0.48185190E-01 0.12499873E+03</pdfrwt>
<totfact> 0.72488200E+03</totfact>
</mgrwt>
</event>
<event>
 5    1  0.3398872E-002  0.1250018E+03  0.7818608E-02  0.1235066E+00
          4   -1    0    0  501    0  0.00000000000E+00  0.00000000000E+00  0.74010767792E+02  0.74021663377E+02  0.12700000000E+01 0.  1.
         -4   -1    0    0    0  501 -0.00000000000E+00 -0.00000000000E+00 -0.52758612186E+02  0.52773895628E+02  0.12700000000E+01 0.  1.
         25    2    1    2    0    0  0.00000000000E+00  0.00000000000E+00  0.21252155606E+02  0.12679555901E+03  0.12500183865E+03 0.  0.
    9000005    1    3    3    0    0 -0.41180590199E+02 -0.18421573905E+02  0.54492087387E+02  0.70750144749E+02  0.10000000000E+01 0.  0.
    9000005    1    3    3    0    0  0.41180590199E+02  0.18421573905E+02 -0.33239931781E+02  0.56045414256E+02  0.10000000000E+01 0.  0.
<mgrwt>
<rscale>  0 0.12500184E+03</rscale>
<asrwt>0</asrwt>
<pdfrwt beam="1">  1        4 0.11388286E-01 0.12500184E+03</pdfrwt>
<pdfrwt beam="2">  1       -4 0.81187233E-02 0.12500184E+03</pdfrwt>
<totfact> 0.10413158E+04</totfact>
</mgrwt>
</event>
<event>
 5    1  0.3398872E-002  0.1249931E+03  0.7818608E-02  0.1235080E+00
         -4   -1    0    0    0  501 -0.00000000000E+00  0.00000000000E+00  0.63826487384E+03  0.63826613734E+03  0.12700000000E+01 0.  1.
          4   -1    0    0  501    0  0.00000000000E+00 -0.00000000000E+00 -0.60522609121E+01  0.61840732651E+01  0.12700000000E+01 0.  1.
         25    2    1    2    0    0  0.00000000000E+00  0.00000000000E+00  0.63221261293E+03  0.64445021061E+03  0.12499314384E+03 0.  0.
    9000005    1    3    3    0    0 -0.28494409747E+01  0.41051977267E+02  0.55856652850E+03  0.56008120028E+03  0.10000000000E+01 0.  0.
    9000005    1    3    3    0    0  0.28494409747E+01 -0.41051977267E+02  0.73646084430E+02  0.84369010325E+02  0.10000000000E+01 0.  0.
<mgrwt>
<rscale>  0 0.12499314E+03</rscale>
<asrwt>0</asrwt>
<pdfrwt beam="2">  1        4 0.94135451E-03 0.12499314E+03</pdfrwt>
<pdfrwt beam="1">  1       -4 0.98204744E-01 0.12499314E+03</pdfrwt>
<totfact> 0.46183702E+03</totfact>
</mgrwt>
</event>
<event>
 5    1  0.3398872E-002  0.1250007E+03  0.7818608E-02  0.1235068E+00
         -4   -1    0    0    0  501 -0.00000000000E+00  0.00000000000E+00  0.10397846102E+04  0.10397853858E+04  0.12700000000E+01 0.  1.
          4   -1    0    0  501    0  0.00000000000E+00 -0.00000000000E+00 -0.36486996113E+01  0.38634063796E+01  0.12700000000E+01 0.  1.
         25    2    1    2    0    0  0.00000000000E+00  0.00000000000E+00  0.10361359106E+04  0.10436487922E+04  0.12500070477E+03 0.  0.
    9000005    1    3    3    0    0  0.43673862838E+02  0.41925588466E+02  0.64744810278E+03  0.65027317879E+03  0.10000000000E+01 0.  0.
    9000005    1    3    3    0    0 -0.43673862838E+02 -0.41925588466E+02  0.38868780784E+03  0.39337561342E+03  0.10000000000E+01 0.  0.
<mgrwt>
<rscale>  0 0.12500070E+03</rscale>
<asrwt>0</asrwt>
<pdfrwt beam="2">  1        4 0.57791407E-03 0.12500070E+03</pdfrwt>
<pdfrwt beam="1">  1       -4 0.15998341E+00 0.12500070E+03</pdfrwt>
<totfact> 0.29193465E+03</totfact>
</mgrwt>
</event>
<event>
 5    1  0.3398872E-002  0.1250065E+03  0.7818608E-02  0.1235059E+00
         -4   -1    0    0    0  501 -0.00000000000E+00  0.00000000000E+00  0.13009797095E+03  0.13010416960E+03  0.12700000000E+01 0.  1.
          4   -1    0    0  501    0  0.00000000000E+00 -0.00000000000E+00 -0.30008227091E+02  0.30035089364E+02  0.12700000000E+01 0.  1.
         25    2    1    2    0    0  0.00000000000E+00  0.00000000000E+00  0.10008974386E+03  0.16013925896E+03  0.12500650157E+03 0.  0.
    9000005    1    3    3    0    0  0.30131330056E+02  0.52366843055E+02  0.70520525113E+02  0.92867258841E+02  0.10000000000E+01 0.  0.
    9000005    1    3    3    0    0 -0.30131330056E+02 -0.52366843055E+02  0.29569218749E+02  0.67272000118E+02  0.10000000000E+01 0.  0.
<mgrwt>
<rscale>  0 0.12500650E+03</rscale>
<asrwt>0</asrwt>
<pdfrwt beam="2">  1        4 0.46191935E-02 0.12500650E+03</pdfrwt>
<pdfrwt beam="1">  1       -4 0.20017616E-01 0.12500650E+03</pdfrwt>
<totfact> 0.97301723E+03</totfact>
</mgrwt>
</event>
<event>
 5    1  0.3398872E-002  0.1250031E+03  0.7818608E-02  0.1235064E+00
         -4   -1    0    0    0  501 -0.00000000000E+00  0.00000000000E+00  0.18144593432E+02  0.18188984876E+02  0.12700000000E+01 0. -1.
          4   -1    0    0  501    0  0.00000000000E+00 -0.00000000000E+00 -0.21498579168E+03  0.21498954283E+03  0.12700000000E+01 0. -1.
         25    2    1    2    0    0  0.00000000000E+00  0.00000000000E+00 -0.19684119825E+03  0.23317852771E+03  0.12500307378E+03 0.  0.
    9000005    1    3    3    0    0 -0.32373816382E+02  0.38591133325E+02 -0.16741711974E+03  0.17483372541E+03  0.10000000000E+01 0.  0.
    9000005    1    3    3    0    0  0.32373816382E+02 -0.38591133325E+02 -0.29424078510E+02  0.58344802293E+02  0.10000000000E+01 0.  0.
<mgrwt>
<rscale>  0 0.12500307E+03</rscale>
<asrwt>0</asrwt>
<pdfrwt beam="2">  1        4 0.33078439E-01 0.12500307E+03</pdfrwt>
<pdfrwt beam="1">  1       -4 0.27951793E-02 0.12500307E+03</pdfrwt>
<totfact> 0.84818094E+03</totfact>
</mgrwt>
</event>
<event>
 5    1  0.3398872E-002  0.1250069E+03  0.7818608E-02  0.1235058E+00
          4   -1    0    0  501    0  0.00000000000E+00  0.00000000000E+00  0.48869036282E+02  0.48885535766E+02  0.12700000000E+01 0.  1.
         -4   -1    0    0    0  501 -0.00000000000E+00 -0.00000000000E+00 -0.79906815631E+02  0.79916907374E+02  0.12700000000E+01 0.  1.
         25    2    1    2    0    0  0.00000000000E+00  0.00000000000E+00 -0.31037779349E+02  0.12880244314E+03  0.12500690226E+03 0.  0.
    9000005    1    3    3    0    0  0.33040730439E+02  0.21992128387E+01 -0.70129616772E+02  0.77560876437E+02  0.10000000000E+01 0.  0.
    9000005    1    3    3    0    0 -0.33040730439E+02 -0.21992128387E+01  0.39091837423E+02  0.51241566703E+02  0.10000000000E+01 0.  0.
<mgrwt>
<rscale>  0 0.12500690E+03</rscale>
<asrwt>0</asrwt>
<pdfrwt beam="1">  1        4 0.75203588E-02 0.12500690E+03</pdfrwt>
<pdfrwt beam="2">  1       -4 0.12295402E-01 0.12500690E+03</pdfrwt>
<totfact> 0.10368578E+04</totfact>
</mgrwt>
</event>
<event>
 5    1  0.3398872E-002  0.1250039E+03  0.7818608E-02  0.1235063E+00
         -4   -1    0    0    0  501 -0.00000000000E+00  0.00000000000E+00  0.20333591544E+02  0.20373213911E+02  0.12700000000E+01 0. -1.
          4   -1    0    0  501    0  0.00000000000E+00 -0.00000000000E+00 -0.19189152810E+03  0.19189573069E+03  0.12700000000E+01 0. -1.
         25    2    1    2    0    0  0.00000000000E+00  0.00000000000E+00 -0.17155793655E+03  0.21226894460E+03  0.12500391692E+03 0.  0.
    9000005    1    3    3    0    0 -0.39756591704E+02 -0.41590239154E+02 -0.44352320468E+02  0.72653030960E+02  0.10000000000E+01 0.  0.
    9000005    1    3    3    0    0  0.39756591704E+02  0.41590239154E+02 -0.12720561609E+03  0.13961591364E+03  0.10000000000E+01 0.  0.
<mgrwt>
<rscale>  0 0.12500392E+03</rscale>
<asrwt>0</asrwt>
<pdfrwt beam="2">  1        4 0.29525143E-01 0.12500392E+03</pdfrwt>
<pdfrwt beam="1">  1       -4 0.31316161E-02 0.12500392E+03</pdfrwt>
<totfact> 0.88098955E+03</totfact>
</mgrwt>
</event>
<event>
 5    1  0.3398872E-002  0.1250006E+03  0.7818608E-02  0.1235068E+00
          4   -1    0    0  501    0  0.00000000000E+00  0.00000000000E+00  0.60443162327E+02  0.60456503141E+02  0.12700000000E+01 0.  1.
         -4   -1    0    0    0  501 -0.00000000000E+00 -0.00000000000E+00 -0.64600716058E+02  0.64613198460E+02  0.12700000000E+01 0.  1.
         25    2    1    2    0    0  0.00000000000E+00  0.00000000000E+00 -0.41575537307E+01  0.12506970160E+03  0.12500058002E+03 0.  0.
    9000005    1    3    3    0    0  0.44221070815E+02 -0.28067417015E+02  0.32028241632E+02  0.61401068916E+02  0.10000000000E+01 0.  0.
    9000005    1    3    3    0    0 -0.44221070815E+02  0.28067417015E+02 -0.36185795363E+02  0.63668632685E+02  0.10000000000E+01 0.  0.
<mgrwt>
<rscale>  0 0.12500058E+03</rscale>
<asrwt>0</asrwt>
<pdfrwt beam="1">  1        4 0.93009345E-02 0.12500058E+03</pdfrwt>
<pdfrwt beam="2">  1       -4 0.99405581E-02 0.12500058E+03</pdfrwt>
<totfact> 0.10451212E+04</totfact>
</mgrwt>
</event>
<event>
 5    1  0.3398872E-002  0.1250152E+03  0.7818608E-02  0.1235046E+00
         -4   -1    0    0    0  501 -0.00000000000E+00  0.00000000000E+00  0.11030234131E+03  0.11030965233E+03  0.12700000000E+01 0.  1.
          4   -1    0    0  501    0  0.00000000000E+00 -0.00000000000E+00 -0.35402776179E+02  0.35425548142E+02  0.12700000000E+01 0.  1.
         25    2    1    2    0    0  0.00000000000E+00  0.00000000000E+00  0.74899565127E+02  0.14573520047E+03  0.12501521428E+03 0.  0.
    9000005    1    3    3    0    0 -0.24939277645E+02 -0.11814159931E+02  0.10282127088E+03  0.10646480963E+03  0.10000000000E+01 0.  0.
    9000005    1    3    3    0    0  0.24939277645E+02  0.11814159931E+02 -0.27921705757E+02  0.39270390840E+02  0.10000000000E+01 0.  0.
<mgrwt>
<rscale>  0 0.12501521E+03</rscale>
<asrwt>0</asrwt>
<pdfrwt beam="2">  1        4 0.54488951E-02 0.12501521E+03</pdfrwt>
<pdfrwt beam="1">  1       -4 0.16971905E-01 0.12501521E+03</pdfrwt>
<totfact> 0.10012642E+04</totfact>
</mgrwt>
</event>
<event>
 5    1  0.3398872E-002  0.1249991E+03  0.7818608E-02  0.1235071E+00
          4   -1    0    0  501    0  0.00000000000E+00  0.00000000000E+00  0.13186990624E+03  0.13187602159E+03  0.12700000000E+01 0. -1.
         -4   -1    0    0    0  501 -0.00000000000E+00 -0.00000000000E+00 -0.29601173344E+02  0.29628404671E+02  0.12700000000E+01 0. -1.
         25    2    1    2    0    0  0.00000000000E+00  0.00000000000E+00  0.10226873289E+03  0.16150442626E+03  0.12499914390E+03 0.  0.
    9000005    1    3    3    0    0  0.47787098892E+02 -0.16273247890E+02  0.35427255373E+01  0.50615969038E+02  0.10000000000E+01 0.  0.
    9000005    1    3    3    0    0 -0.47787098892E+02  0.16273247890E+02  0.98726007356E+02  0.11088845723E+03  0.10000000000E+01 0.  0.
<mgrwt>
<rscale>  0 0.12499914E+03</rscale>
<asrwt>0</asrwt>
<pdfrwt beam="1">  1        4 0.20290243E-01 0.12499914E+03</pdfrwt>
<pdfrwt beam="2">  1       -4 0.45565918E-02 0.12499914E+03</pdfrwt>
<totfact> 0.97055392E+03</totfact>
</mgrwt>
</event>
<event>
 5    1  0.3398872E-002  0.1250009E+03  0.7818608E-02  0.1235068E+00
          4   -1    0    0  501    0  0.00000000000E+00  0.00000000000E+00  0.17328437469E+04  0.17328442123E+04  0.12700000000E+01 0.  1.
         -4   -1    0    0    0  501 -0.00000000000E+00 -0.00000000000E+00 -0.20749008443E+01  0.24327173106E+01  0.12700000000E+01 0.  1.
         25    2    1    2    0    0  0.00000000000E+00  0.00000000000E+00  0.17307688460E+04  0.17352769296E+04  0.12500089572E+03 0.  0.
    9000005    1    3    3    0    0  0.11689715165E+02 -0.60124697637E+02  0.69329249714E+03  0.69599361728E+03  0.10000000000E+01 0.  0.
    9000005    1    3    3    0    0 -0.11689715165E+02  0.60124697637E+02  0.10374763489E+04  0.10392833123E+04  0.10000000000E+01 0.  0.
<mgrwt>
<rscale>  0 0.12500090E+03</rscale>
<asrwt>0</asrwt>
<pdfrwt beam="1">  1        4 0.26661952E+00 0.12500090E+03</pdfrwt>
<pdfrwt beam="2">  1       -4 0.34677485E-03 0.12500090E+03</pdfrwt>
<totfact> 0.13727137E+03</totfact>
</mgrwt>
</event>
<event>
 5    1  0.3398872E-002  0.1250022E+03  0.7818608E-02  0.1235066E+00
          4   -1    0    0  501    0  0.00000000000E+00  0.00000000000E+00  0.59381903398E+01  0.60724792723E+01  0.12700000000E+01 0. -1.
         -4   -1    0    0    0  501 -0.00000000000E+00 -0.00000000000E+00 -0.65035119525E+03  0.65035243528E+03  0.12700000000E+01 0. -1.
         25    2    1    2    0    0  0.00000000000E+00  0.00000000000E+00 -0.64441300491E+03  0.65642491455E+03  0.12500219013E+03 0.  0.
    9000005    1    3    3    0    0  0.10313217655E+02  0.57174017207E+02 -0.20129451799E+03  0.20951303939E+03  0.10000000000E+01 0.  0.
    9000005    1    3    3    0    0 -0.10313217655E+02 -0.57174017207E+02 -0.44311848692E+03  0.44691187515E+03  0.10000000000E+01 0.  0.
<mgrwt>
<rscale>  0 0.12500219E+03</rscale>
<asrwt>0</asrwt>
<pdfrwt beam="1">  1        4 0.92399356E-03 0.12500219E+03</pdfrwt>
<pdfrwt beam="2">  1       -4 0.10006440E+00 0.12500219E+03</pdfrwt>
<totfact> 0.45486505E+03</totfact>
</mgrwt>
</event>
<event>
 5    1  0.3398872E-002  0.1250004E+03  0.7818608E-02  0.1235069E+00
          4   -1    0    0  501    0  0.00000000000E+00  0.00000000000E+00  0.31024005415E+02  0.31049988921E+02  0.12700000000E+01 0.  1.
         -4   -1    0    0    0  501 -0.00000000000E+00 -0.00000000000E+00 -0.12582946063E+03  0.12583586953E+03  0.12700000000E+01 0.  1.
         25    2    1    2    0    0  0.00000000000E+00  0.00000000000E+00 -0.94805455210E+02  0.15688585846E+03  0.12500039298E+03 0.  0.
    9000005    1    3    3    0    0 -0.22425549579E+02 -0.53043749586E+02 -0.77855754986E+02  0.96845563804E+02  0.10000000000E+01 0.  0.
    9000005    1    3    3    0    0  0.22425549579E+02  0.53043749586E+02 -0.16949700225E+02  0.60040294651E+02  0.10000000000E+01 0.  0.
<mgrwt>
<rscale>  0 0.12500039E+03</rscale>
<asrwt>0</asrwt>
<pdfrwt beam="1">  1        4 0.47754157E-02 0.12500039E+03</pdfrwt>
<pdfrwt beam="2">  1       -4 0.19360870E-01 0.12500039E+03</pdfrwt>
<totfact> 0.97945683E+03</totfact>
</mgrwt>
</event>
<event>
 5    1  0.3398872E-002  0.1249999E+03  0.7818608E-02  0.1235069E+00
          4   -1    0    0  501    0  0.00000000000E+00  0.00000000000E+00  0.18814972981E+03  0.18815401597E+03  0.12700000000E+01 0.  1.
         -4   -1    0    0    0  501 -0.00000000000E+00 -0.00000000000E+00 -0.20737421512E+02  0.20776273751E+02  0.12700000000E+01 0.  1.
         25    2    1    2    0    0  0.00000000000E+00  0.00000000000E+00  0.16741230829E+03  0.20893028972E+03  0.12499993998E+03 0.  0.
    9000005    1    3    3    0    0 -0.17460772458E+02  0.29250521157E+02 -0.38617492890E+01  0.34298464548E+02  0.10000000000E+01 0.  0.
    9000005    1    3    3    0    0  0.17460772458E+02 -0.29250521157E+02  0.17127405758E+03  0.17463182517E+03  0.10000000000E+01 0.  0.
<mgrwt>
<rscale>  0 0.12499994E+03</rscale>
<asrwt>0</asrwt>
<pdfrwt beam="1">  1        4 0.28949432E-01 0.12499994E+03</pdfrwt>
<pdfrwt beam="2">  1       -4 0.31936908E-02 0.12499994E+03</pdfrwt>
<totfact> 0.88650994E+03</totfact>
</mgrwt>
</event>
<event>
 5    1  0.3398872E-002  0.1249951E+03  0.7818608E-02  0.1235077E+00
          4   -1    0    0  501    0  0.00000000000E+00  0.00000000000E+00  0.36214359334E+03  0.36214582022E+03  0.12700000000E+01 0. -1.
         -4   -1    0    0    0  501 -0.00000000000E+00 -0.00000000000E+00 -0.10745976055E+02  0.10820762514E+02  0.12700000000E+01 0. -1.
         25    2    1    2    0    0  0.00000000000E+00  0.00000000000E+00  0.35139761729E+03  0.37296658273E+03  0.12499514549E+03 0.  0.
    9000005    1    3    3    0    0  0.29024809690E+02 -0.78659087235E+01  0.12249411063E+02  0.32486307407E+02  0.10000000000E+01 0.  0.
    9000005    1    3    3    0    0 -0.29024809690E+02  0.78659087235E+01  0.33914820623E+03  0.34048027532E+03  0.10000000000E+01 0.  0.
<mgrwt>
<rscale>  0 0.12499515E+03</rscale>
<asrwt>0</asrwt>
<pdfrwt beam="1">  1        4 0.55720315E-01 0.12499515E+03</pdfrwt>
<pdfrwt beam="2">  1       -4 0.16591514E-02 0.12499515E+03</pdfrwt>
<totfact> 0.67276937E+03</totfact>
</mgrwt>
</event>
<event>
 5    1  0.3398872E-002  0.1249999E+03  0.7818608E-02  0.1235070E+00
         -4   -1    0    0    0  501 -0.00000000000E+00  0.00000000000E+00  0.28257497306E+02  0.28286022237E+02  0.12700000000E+01 0. -1.
          4   -1    0    0  501    0  0.00000000000E+00 -0.00000000000E+00 -0.13813613987E+03  0.13814197783E+03  0.12700000000E+01 0. -1.
         25    2    1    2    0    0  0.00000000000E+00  0.00000000000E+00 -0.10987864257E+03  0.16642800007E+03  0.12499985246E+03 0.  0.
    9000005    1    3    3    0    0  0.44456706309E+02  0.31875301913E+02 -0.14713361458E+02  0.56656125999E+02  0.10000000000E+01 0.  0.
    9000005    1    3    3    0    0 -0.44456706309E+02 -0.31875301913E+02 -0.95165281109E+02  0.10977187407E+03  0.10000000000E+01 0.  0.
<mgrwt>
<rscale>  0 0.12499985E+03</rscale>
<asrwt>0</asrwt>
<pdfrwt beam="2">  1        4 0.21254357E-01 0.12499985E+03</pdfrwt>
<pdfrwt beam="1">  1       -4 0.43499507E-02 0.12499985E+03</pdfrwt>
<totfact> 0.96117952E+03</totfact>
</mgrwt>
</event>
<event>
 5    1  0.3398872E-002  0.1249890E+03  0.7818608E-02  0.1235086E+00
          4   -1    0    0  501    0  0.00000000000E+00  0.00000000000E+00  0.70524211869E+03  0.70524326219E+03  0.12700000000E+01 0. -1.
         -4   -1    0    0    0  501 -0.00000000000E+00 -0.00000000000E+00 -0.54639318952E+01  0.56095857026E+01  0.12700000000E+01 0. -1.
         25    2    1    2    0    0  0.00000000000E+00  0.00000000000E+00  0.69977818679E+03  0.71085284790E+03  0.12498904213E+03 0.  0.
    9000005    1    3    3    0    0 -0.56189357252E+02 -0.66586374454E+01  0.19909635106E+03  0.20698294212E+03  0.10000000000E+01 0.  0.
    9000005    1    3    3    0    0  0.56189357252E+02  0.66586374454E+01  0.50068183573E+03  0.50386990578E+03  0.10000000000E+01 0.  0.
<mgrwt>
<rscale>  0 0.12498904E+03</rscale>
<asrwt>0</asrwt>
<pdfrwt beam="1">  1        4 0.10851010E+00 0.12498904E+03</pdfrwt>
<pdfrwt beam="2">  1       -4 0.85189684E-03 0.12498904E+03</pdfrwt>
<totfact> 0.42530136E+03</totfact>
</mgrwt>
</event>
<event>
 5    1  0.3398872E-002  0.1250049E+03  0.7818608E-02  0.1235062E+00
          4   -1    0    0  501    0  0.00000000000E+00  0.00000000000E+00  0.13168352540E+03  0.13168964941E+03  0.12700000000E+01 0. -1.
         -4   -1    0    0    0  501 -0.00000000000E+00 -0.00000000000E+00 -0.29645842733E+02  0.29673033066E+02  0.12700000000E+01 0. -1.
         25    2    1    2    0    0  0.00000000000E+00  0.00000000000E+00  0.10203768267E+03  0.16136268248E+03  0.12500490635E+03 0.  0.
    9000005    1    3    3    0    0 -0.46822897804E+01  0.32121455485E+02  0.11995371722E+03  0.12427230590E+03  0.10000000000E+01 0.  0.
    9000005    1    3    3    0    0  0.46822897804E+01 -0.32121455485E+02 -0.17916034553E+02  0.37090376571E+02  0.10000000000E+01 0.  0.
<mgrwt>
<rscale>  0 0.12500491E+03</rscale>
<asrwt>0</asrwt>
<pdfrwt beam="1">  1        4 0.20261566E-01 0.12500491E+03</pdfrwt>
<pdfrwt beam="2">  1       -4 0.45634616E-02 0.12500491E+03</pdfrwt>
<totfact> 0.97070008E+03</totfact>
</mgrwt>
</event>
<event>
 5    1  0.3398872E-002  0.1250005E+03  0.7818608E-02  0.1235068E+00
          4   -1    0    0  501    0  0.00000000000E+00  0.00000000000E+00  0.14911360551E+03  0.14911901370E+03  0.12700000000E+01 0. -1.
         -4   -1    0    0    0  501 -0.00000000000E+00 -0.00000000000E+00 -0.26175404118E+02  0.26206195465E+02  0.12700000000E+01 0. -1.
         25    2    1    2    0    0  0.00000000000E+00  0.00000000000E+00  0.12293820139E+03  0.17532520917E+03  0.12500051043E+03 0.  0.
    9000005    1    3    3    0    0  0.52488508169E+02 -0.17599575599E+02  0.10213212915E+03  0.11617555834E+03  0.10000000000E+01 0.  0.
    9000005    1    3    3    0    0 -0.52488508169E+02  0.17599575599E+02  0.20806072243E+02  0.59149650829E+02  0.10000000000E+01 0.  0.
<mgrwt>
<rscale>  0 0.12500051E+03</rscale>
<asrwt>0</asrwt>
<pdfrwt beam="1">  1        4 0.22943339E-01 0.12500051E+03</pdfrwt>
<pdfrwt beam="2">  1       -4 0.40297698E-02 0.12500051E+03</pdfrwt>
<totfact> 0.94464231E+03</totfact>
</mgrwt>
</event>
<event>
 5    1  0.3398872E-002  0.1250017E+03  0.7818608E-02  0.1235067E+00
          4   -1    0    0  501    0  0.00000000000E+00  0.00000000000E+00  0.16105813084E+03  0.16106313796E+03  0.12700000000E+01 0. -1.
         -4   -1    0    0    0  501 -0.00000000000E+00 -0.00000000000E+00 -0.24232308405E+02  0.24265565533E+02  0.12700000000E+01 0. -1.
         25    2    1    2    0    0  0.00000000000E+00  0.00000000000E+00  0.13682582244E+03  0.18532870350E+03  0.12500169060E+03 0.  0.
    9000005    1    3    3    0    0 -0.48514387927E+02 -0.39600770208E+01  0.10306197662E+02  0.49764904865E+02  0.10000000000E+01 0.  0.
    9000005    1    3    3    0    0  0.48514387927E+02  0.39600770208E+01  0.12651962478E+03  0.13556379863E+03  0.10000000000E+01 0.  0.
<mgrwt>
<rscale>  0 0.12500169E+03</rscale>
<asrwt>0</asrwt>
<pdfrwt beam="1">  1        4 0.24781119E-01 0.12500169E+03</pdfrwt>
<pdfrwt beam="2">  1       -4 0.37309907E-02 0.12500169E+03</pdfrwt>
<totfact> 0.92663006E+03</totfact>
</mgrwt>
</event>
<event>
 5    1  0.3398872E-002  0.1250028E+03  0.7818608E-02  0.1235065E+00
         -4   -1    0    0    0  501 -0.00000000000E+00  0.00000000000E+00  0.28904966540E+02  0.28932853138E+02  0.12700000000E+01 0.  1.
          4   -1    0    0  501    0  0.00000000000E+00 -0.00000000000E+00 -0.13505108192E+03  0.13505705323E+03  0.12700000000E+01 0.  1.
         25    2    1    2    0    0  0.00000000000E+00  0.00000000000E+00 -0.10614611538E+03  0.16398990637E+03  0.12500276629E+03 0.  0.
    9000005    1    3    3    0    0  0.60217617016E+02 -0.12312583967E+02 -0.38250336886E+02  0.72400617366E+02  0.10000000000E+01 0.  0.
    9000005    1    3    3    0    0 -0.60217617016E+02  0.12312583967E+02 -0.67895778496E+02  0.91589289006E+02  0.10000000000E+01 0.  0.
<mgrwt>
<rscale>  0 0.12500277E+03</rscale>
<asrwt>0</asrwt>
<pdfrwt beam="2">  1        4 0.20779694E-01 0.12500277E+03</pdfrwt>
<pdfrwt beam="1">  1       -4 0.44495224E-02 0.12500277E+03</pdfrwt>
<totfact> 0.96573028E+03</totfact>
</mgrwt>
</event>
<event>
 5    1  0.3398872E-002  0.1249940E+03  0.7818608E-02  0.1235079E+00
         -4   -1    0    0    0  501 -0.00000000000E+00  0.00000000000E+00  0.29696751246E+02  0.29723895010E+02  0.12700000000E+01 0.  1.
          4   -1    0    0  501    0  0.00000000000E+00 -0.00000000000E+00 -0.13143511221E+03  0.13144124779E+03  0.12700000000E+01 0.  1.
         25    2    1    2    0    0  0.00000000000E+00  0.00000000000E+00 -0.10173836096E+03  0.16116514281E+03  0.12499403651E+03 0.  0.
    9000005    1    3    3    0    0 -0.55059838598E+02  0.23251283487E+02 -0.27351841799E+02  0.65736833359E+02  0.10000000000E+01 0.  0.
    9000005    1    3    3    0    0  0.55059838598E+02 -0.23251283487E+02 -0.74386519165E+02  0.95428309446E+02  0.10000000000E+01 0.  0.
<mgrwt>
<rscale>  0 0.12499404E+03</rscale>
<asrwt>0</asrwt>
<pdfrwt beam="2">  1        4 0.20223346E-01 0.12499404E+03</pdfrwt>
<pdfrwt beam="1">  1       -4 0.45712910E-02 0.12499404E+03</pdfrwt>
<totfact> 0.97131642E+03</totfact>
</mgrwt>
</event>
<event>
 5    1  0.3398872E-002  0.1249897E+03  0.7818608E-02  0.1235085E+00
          4   -1    0    0  501    0  0.00000000000E+00  0.00000000000E+00  0.13959715244E+04  0.13959721021E+04  0.12700000000E+01 0. -1.
         -4   -1    0    0    0  501 -0.00000000000E+00 -0.00000000000E+00 -0.26530357966E+01  0.29413430501E+01  0.12700000000E+01 0. -1.
         25    2    1    2    0    0  0.00000000000E+00  0.00000000000E+00  0.13933184886E+04  0.13989134451E+04  0.12498966490E+03 0.  0.
    9000005    1    3    3    0    0 -0.54056519158E+01  0.43394377066E+02  0.19709043838E+03  0.20188594289E+03  0.10000000000E+01 0.  0.
    9000005    1    3    3    0    0  0.54056519158E+01 -0.43394377066E+02  0.11962280502E+04  0.11970275022E+04  0.10000000000E+01 0.  0.
<mgrwt>
<rscale>  0 0.12498966E+03</rscale>
<asrwt>0</asrwt>
<pdfrwt beam="1">  1        4 0.21478747E+00 0.12498966E+03</pdfrwt>
<pdfrwt beam="2">  1       -4 0.43038047E-03 0.12498966E+03</pdfrwt>
<totfact> 0.20008713E+03</totfact>
</mgrwt>
</event>
<event>
 5    1  0.3398872E-002  0.1250121E+03  0.7818608E-02  0.1235050E+00
          4   -1    0    0  501    0  0.00000000000E+00  0.00000000000E+00  0.42894238203E+02  0.42913034978E+02  0.12700000000E+01 0. -1.
         -4   -1    0    0    0  501 -0.00000000000E+00 -0.00000000000E+00 -0.91041511665E+02  0.91050369281E+02  0.12700000000E+01 0. -1.
         25    2    1    2    0    0  0.00000000000E+00  0.00000000000E+00 -0.48147273462E+02  0.13396340426E+03  0.12501213437E+03 0.  0.
    9000005    1    3    3    0    0 -0.61046236355E+02 -0.86549818561E+01 -0.35025859309E+02  0.70917998452E+02  0.10000000000E+01 0.  0.
    9000005    1    3    3    0    0  0.61046236355E+02  0.86549818561E+01 -0.13121414153E+02  0.63045405808E+02  0.10000000000E+01 0.  0.
<mgrwt>
<rscale>  0 0.12501213E+03</rscale>
<asrwt>0</asrwt>
<pdfrwt beam="1">  1        4 0.66012409E-02 0.12501213E+03</pdfrwt>
<pdfrwt beam="2">  1       -4 0.14008514E-01 0.12501213E+03</pdfrwt>
<totfact> 0.10257159E+04</totfact>
</mgrwt>
</event>
<event>
 5    1  0.3398872E-002  0.1250022E+03  0.7818608E-02  0.1235066E+00
          4   -1    0    0  501    0  0.00000000000E+00  0.00000000000E+00  0.61293447114E+02  0.61306602899E+02  0.12700000000E+01 0. -1.
         -4   -1    0    0    0  501 -0.00000000000E+00 -0.00000000000E+00 -0.63706255022E+02  0.63718912647E+02  0.12700000000E+01 0. -1.
         25    2    1    2    0    0  0.00000000000E+00  0.00000000000E+00 -0.24128079085E+01  0.12502551555E+03  0.12500223156E+03 0.  0.
    9000005    1    3    3    0    0 -0.50416501895E+02  0.22736917736E+02  0.27895379516E+02  0.61951136307E+02  0.10000000000E+01 0.  0.
    9000005    1    3    3    0    0  0.50416501895E+02 -0.22736917736E+02 -0.30308187425E+02  0.63074379239E+02  0.10000000000E+01 0.  0.
<mgrwt>
<rscale>  0 0.12500223E+03</rscale>
<asrwt>0</asrwt>
<pdfrwt beam="1">  1        4 0.94317467E-02 0.12500223E+03</pdfrwt>
<pdfrwt beam="2">  1       -4 0.98029480E-02 0.12500223E+03</pdfrwt>
<totfact> 0.10451781E+04</totfact>
</mgrwt>
</event>
<event>
 5    1  0.3398872E-002  0.1249998E+03  0.7818608E-02  0.1235070E+00
         -4   -1    0    0    0  501 -0.00000000000E+00  0.00000000000E+00  0.34802123971E+02  0.34825288698E+02  0.12700000000E+01 0. -1.
          4   -1    0    0  501    0  0.00000000000E+00 -0.00000000000E+00 -0.11217731181E+03  0.11218450065E+03  0.12700000000E+01 0. -1.
         25    2    1    2    0    0  0.00000000000E+00  0.00000000000E+00 -0.77375187842E+02  0.14700978934E+03  0.12499983388E+03 0.  0.
    9000005    1    3    3    0    0 -0.57494065765E+02  0.22112830190E+02 -0.26313872012E+02  0.66992273565E+02  0.10000000000E+01 0.  0.
    9000005    1    3    3    0    0  0.57494065765E+02 -0.22112830190E+02 -0.51061315830E+02  0.80017515779E+02  0.10000000000E+01 0.  0.
<mgrwt>
<rscale>  0 0.12499983E+03</rscale>
<asrwt>0</asrwt>
<pdfrwt beam="2">  1        4 0.17260383E-01 0.12499983E+03</pdfrwt>
<pdfrwt beam="1">  1       -4 0.53565078E-02 0.12499983E+03</pdfrwt>
<totfact> 0.99903500E+03</totfact>
</mgrwt>
</event>
<event>
 5    1  0.3398872E-002  0.1250093E+03  0.7818608E-02  0.1235055E+00
         -4   -1    0    0    0  501 -0.00000000000E+00  0.00000000000E+00  0.50233851116E+01  0.51814378294E+01  0.12700000000E+01 0.  1.
          4   -1    0    0  501    0  0.00000000000E+00 -0.00000000000E+00 -0.76552445707E+03  0.76552551053E+03  0.12700000000E+01 0.  1.
         25    2    1    2    0    0  0.00000000000E+00  0.00000000000E+00 -0.76050107196E+03  0.77070694836E+03  0.12500927885E+03 0.  0.
    9000005    1    3    3    0    0  0.40471407776E+02  0.46684441328E+02 -0.32226553327E+03  0.32813632204E+03  0.10000000000E+01 0.  0.
    9000005    1    3    3    0    0 -0.40471407776E+02 -0.46684441328E+02 -0.43823553869E+03  0.44257062632E+03  0.10000000000E+01 0.  0.
<mgrwt>
<rscale>  0 0.12500928E+03</rscale>
<asrwt>0</asrwt>
<pdfrwt beam="2">  1        4 0.11778514E+00 0.12500928E+03</pdfrwt>
<pdfrwt beam="1">  1       -4 0.78506802E-03 0.12500928E+03</pdfrwt>
<totfact> 0.39594748E+03</totfact>
</mgrwt>
</event>
<event>
 5    1  0.3398872E-002  0.1249550E+03  0.7818608E-02  0.1235140E+00
         -4   -1    0    0    0  501 -0.00000000000E+00  0.00000000000E+00  0.43637721784E+01  0.45448220675E+01  0.12700000000E+01 0. -1.
          4   -1    0    0  501    0  0.00000000000E+00 -0.00000000000E+00 -0.87614973849E+03  0.87615065893E+03  0.12700000000E+01 0. -1.
         25    2    1    2    0    0  0.00000000000E+00  0.00000000000E+00 -0.87178596631E+03  0.88069548100E+03  0.12495502873E+03 0.  0.
    9000005    1    3    3    0    0  0.10444211132E+02  0.17338892715E+02 -0.85243036247E+03  0.85267123887E+03  0.10000000000E+01 0.  0.
    9000005    1    3    3    0    0 -0.10444211132E+02 -0.17338892715E+02 -0.19355603842E+02  0.28024242128E+02  0.10000000000E+01 0.  0.
<mgrwt>
<rscale>  0 0.12495503E+03</rscale>
<asrwt>0</asrwt>
<pdfrwt beam="2">  1        4 0.13480613E+00 0.12495503E+03</pdfrwt>
<pdfrwt beam="1">  1       -4 0.68534798E-03 0.12495503E+03</pdfrwt>
<totfact> 0.34937406E+03</totfact>
</mgrwt>
</event>
<event>
 5    1  0.3398872E-002  0.1250019E+03  0.7818608E-02  0.1235066E+00
         -4   -1    0    0    0  501 -0.00000000000E+00  0.00000000000E+00  0.25998367561E+02  0.26029368334E+02  0.12700000000E+01 0. -1.
          4   -1    0    0  501    0  0.00000000000E+00 -0.00000000000E+00 -0.15013112104E+03  0.15013649258E+03  0.12700000000E+01 0. -1.
         25    2    1    2    0    0  0.00000000000E+00  0.00000000000E+00 -0.12413275347E+03  0.17616586091E+03  0.12500188025E+03 0.  0.
    9000005    1    3    3    0    0 -0.12517557076E+01 -0.53506404439E+02 -0.16598730551E+02  0.56044804079E+02  0.10000000000E+01 0.  0.
    9000005    1    3    3    0    0  0.12517557076E+01  0.53506404439E+02 -0.10753402292E+03  0.12012105683E+03  0.10000000000E+01 0.  0.
<mgrwt>
<rscale>  0 0.12500188E+03</rscale>
<asrwt>0</asrwt>
<pdfrwt beam="2">  1        4 0.23099893E-01 0.12500188E+03</pdfrwt>
<pdfrwt beam="1">  1       -4 0.40025468E-02 0.12500188E+03</pdfrwt>
<totfact> 0.94307772E+03</totfact>
</mgrwt>
</event>
<event>
 5    1  0.3398872E-002  0.1250019E+03  0.7818608E-02  0.1235066E+00
          4   -1    0    0  501    0  0.00000000000E+00  0.00000000000E+00  0.18454131008E+01  0.22401896153E+01  0.12700000000E+01 0. -1.
         -4   -1    0    0    0  501 -0.00000000000E+00 -0.00000000000E+00 -0.19118662766E+04  0.19118666985E+04  0.12700000000E+01 0. -1.
         25    2    1    2    0    0  0.00000000000E+00  0.00000000000E+00 -0.19100208635E+04  0.19141068881E+04  0.12500191917E+03 0.  0.
    9000005    1    3    3    0    0 -0.17260699073E+02 -0.60035472643E+02 -0.92770308440E+03  0.92980438938E+03  0.10000000000E+01 0.  0.
    9000005    1    3    3    0    0  0.17260699073E+02  0.60035472643E+02 -0.98231777915E+03  0.98430249870E+03  0.10000000000E+01 0.  0.
<mgrwt>
<rscale>  0 0.12500192E+03</rscale>
<asrwt>0</asrwt>
<pdfrwt beam="1">  1        4 0.31431111E-03 0.12500192E+03</pdfrwt>
<pdfrwt beam="2">  1       -4 0.29416224E+00 0.12500192E+03</pdfrwt>
<totfact> 0.11023946E+03</totfact>
</mgrwt>
</event>
<event>
 5    1  0.3398872E-002  0.1250021E+03  0.7818608E-02  0.1235066E+00
          4   -1    0    0  501    0  0.00000000000E+00  0.00000000000E+00  0.82709821249E+01  0.83679176209E+01  0.12700000000E+01 0.  1.
         -4   -1    0    0    0  501 -0.00000000000E+00 -0.00000000000E+00 -0.46944986745E+03  0.46945158531E+03  0.12700000000E+01 0.  1.
         25    2    1    2    0    0  0.00000000000E+00  0.00000000000E+00 -0.46117888532E+03  0.47781950293E+03  0.12500205242E+03 0.  0.
    9000005    1    3    3    0    0  0.95302925485E+01  0.54167482194E+02 -0.34401098380E+03  0.34838125606E+03  0.10000000000E+01 0.  0.
    9000005    1    3    3    0    0 -0.95302925485E+01 -0.54167482194E+02 -0.11716790153E+03  0.12943824687E+03  0.10000000000E+01 0.  0.
<mgrwt>
<rscale>  0 0.12500205E+03</rscale>
<asrwt>0</asrwt>
<pdfrwt beam="1">  1        4 0.12800479E-02 0.12500205E+03</pdfrwt>
<pdfrwt beam="2">  1       -4 0.72230624E-01 0.12500205E+03</pdfrwt>
<totfact> 0.57624733E+03</totfact>
</mgrwt>
</event>
<event>
 5    1  0.3398872E-002  0.1249992E+03  0.7818608E-02  0.1235070E+00
          4   -1    0    0  501    0  0.00000000000E+00  0.00000000000E+00  0.59587905431E+02  0.59601437681E+02  0.12700000000E+01 0. -1.
         -4   -1    0    0    0  501 -0.00000000000E+00 -0.00000000000E+00 -0.65526488914E+02  0.65538794995E+02  0.12700000000E+01 0. -1.
         25    2    1    2    0    0  0.00000000000E+00  0.00000000000E+00 -0.59385834830E+01  0.12514023268E+03  0.12499924424E+03 0.  0.
    9000005    1    3    3    0    0  0.53567032364E+02 -0.28866211203E+02  0.11277629411E+02  0.61894022577E+02  0.10000000000E+01 0.  0.
    9000005    1    3    3    0    0 -0.53567032364E+02  0.28866211203E+02 -0.17216212895E+02  0.63246210100E+02  0.10000000000E+01 0.  0.
<mgrwt>
<rscale>  0 0.12499924E+03</rscale>
<asrwt>0</asrwt>
<pdfrwt beam="1">  1        4 0.91693575E-02 0.12499924E+03</pdfrwt>
<pdfrwt beam="2">  1       -4 0.10082986E-01 0.12499924E+03</pdfrwt>
<totfact> 0.10449996E+04</totfact>
</mgrwt>
</event>
<event>
 5    1  0.3398872E-002  0.1250016E+03  0.7818608E-02  0.1235067E+00
         -4   -1    0    0    0  501 -0.00000000000E+00  0.00000000000E+00  0.49785935582E+02  0.49802131297E+02  0.12700000000E+01 0.  1.
          4   -1    0    0  501    0  0.00000000000E+00 -0.00000000000E+00 -0.78428787535E+02  0.78439069437E+02  0.12700000000E+01 0.  1.
         25    2    1    2    0    0  0.00000000000E+00  0.00000000000E+00 -0.28642851953E+02  0.12824120073E+03  0.12500157038E+03 0.  0.
    9000005    1    3    3    0    0  0.22300791558E+01 -0.38501149328E+01 -0.78271115762E+02  0.78403853226E+02  0.10000000000E+01 0.  0.
    9000005    1    3    3    0    0 -0.22300791558E+01  0.38501149328E+01  0.49628263809E+02  0.49837347509E+02  0.10000000000E+01 0.  0.
<mgrwt>
<rscale>  0 0.12500157E+03</rscale>
<asrwt>0</asrwt>
<pdfrwt beam="2">  1        4 0.12068004E-01 0.12500157E+03</pdfrwt>
<pdfrwt beam="1">  1       -4 0.76614114E-02 0.12500157E+03</pdfrwt>
<totfact> 0.10381914E+04</totfact>
</mgrwt>
</event>
<event>
 5    1  0.3398872E-002  0.1249950E+03  0.7818608E-02  0.1235077E+00
          4   -1    0    0  501    0  0.00000000000E+00  0.00000000000E+00  0.69772882353E+02  0.69784439611E+02  0.12700000000E+01 0. -1.
         -4   -1    0    0    0  501 -0.00000000000E+00 -0.00000000000E+00 -0.55957303654E+02  0.55971713679E+02  0.12700000000E+01 0. -1.
         25    2    1    2    0    0  0.00000000000E+00  0.00000000000E+00  0.13815578699E+02  0.12575615329E+03  0.12499495940E+03 0.  0.
    9000005    1    3    3    0    0  0.45013697094E+02 -0.28256821229E+02 -0.26159584516E+02  0.59245292928E+02  0.10000000000E+01 0.  0.
    9000005    1    3    3    0    0 -0.45013697094E+02  0.28256821229E+02  0.39975163216E+02  0.66510860362E+02  0.10000000000E+01 0.  0.
<mgrwt>
<rscale>  0 0.12499496E+03</rscale>
<asrwt>0</asrwt>
<pdfrwt beam="1">  1        4 0.10736287E-01 0.12499496E+03</pdfrwt>
<pdfrwt beam="2">  1       -4 0.86108135E-02 0.12499496E+03</pdfrwt>
<totfact> 0.10437496E+04</totfact>
</mgrwt>
</event>
<event>
 5    1  0.3398872E-002  0.1250006E+03  0.7818608E-02  0.1235068E+00
         -4   -1    0    0    0  501 -0.00000000000E+00  0.00000000000E+00  0.15503310371E+02  0.15555241318E+02  0.12700000000E+01 0.  1.
          4   -1    0    0  501    0  0.00000000000E+00 -0.00000000000E+00 -0.25148977128E+03  0.25149297795E+03  0.12700000000E+01 0.  1.
         25    2    1    2    0    0  0.00000000000E+00  0.00000000000E+00 -0.23598646091E+03  0.26704821927E+03  0.12500056673E+03 0.  0.
    9000005    1    3    3    0    0 -0.29698424017E+02  0.44763428475E+02 -0.18620770502E+03  0.19380420616E+03  0.10000000000E+01 0.  0.
    9000005    1    3    3    0    0  0.29698424017E+02 -0.44763428475E+02 -0.49778755893E+02  0.73244013108E+02  0.10000000000E+01 0.  0.
<mgrwt>
<rscale>  0 0.12500057E+03</rscale>
<asrwt>0</asrwt>
<pdfrwt beam="2">  1        4 0.38694972E-01 0.12500057E+03</pdfrwt>
<pdfrwt beam="1">  1       -4 0.23893662E-02 0.12500057E+03</pdfrwt>
<totfact> 0.79926000E+03</totfact>
</mgrwt>
</event>
<event>
 5    1  0.3398872E-002  0.1249915E+03  0.7818608E-02  0.1235082E+00
         -4   -1    0    0    0  501 -0.00000000000E+00  0.00000000000E+00  0.57970650325E+01  0.59345482550E+01  0.12700000000E+01 0.  1.
          4   -1    0    0  501    0  0.00000000000E+00 -0.00000000000E+00 -0.66570750754E+03  0.66570871895E+03  0.12700000000E+01 0.  1.
         25    2    1    2    0    0  0.00000000000E+00  0.00000000000E+00 -0.65991044251E+03  0.67164326721E+03  0.12499154476E+03 0.  0.
    9000005    1    3    3    0    0 -0.32439240655E+02  0.15080231270E+02 -0.54644576869E+02  0.65320345151E+02  0.10000000000E+01 0.  0.
    9000005    1    3    3    0    0  0.32439240655E+02 -0.15080231270E+02 -0.60526586564E+03  0.60632292206E+03  0.10000000000E+01 0.  0.
<mgrwt>
<rscale>  0 0.12499154E+03</rscale>
<asrwt>0</asrwt>
<pdfrwt beam="2">  1        4 0.10242715E+00 0.12499154E+03</pdfrwt>
<pdfrwt beam="1">  1       -4 0.90252550E-03 0.12499154E+03</pdfrwt>
<totfact> 0.44634745E+03</totfact>
</mgrwt>
</event>
<event>
 5    1  0.3398872E-002  0.1250006E+03  0.7818608E-02  0.1235068E+00
          4   -1    0    0  501    0  0.00000000000E+00  0.00000000000E+00  0.18694965702E+03  0.18695397070E+03  0.12700000000E+01 0.  1.
         -4   -1    0    0    0  501 -0.00000000000E+00 -0.00000000000E+00 -0.20871020783E+02  0.20909624782E+02  0.12700000000E+01 0.  1.
         25    2    1    2    0    0  0.00000000000E+00  0.00000000000E+00  0.16607863624E+03  0.20786359548E+03  0.12500064364E+03 0.  0.
    9000005    1    3    3    0    0 -0.54296374647E+02 -0.11378686222E+01  0.31626402762E+02  0.62853960865E+02  0.10000000000E+01 0.  0.
    9000005    1    3    3    0    0  0.54296374647E+02  0.11378686222E+01  0.13445223347E+03  0.14500963461E+03  0.10000000000E+01 0.  0.
<mgrwt>
<rscale>  0 0.12500064E+03</rscale>
<asrwt>0</asrwt>
<pdfrwt beam="1">  1        4 0.28764786E-01 0.12500064E+03</pdfrwt>
<pdfrwt beam="2">  1       -4 0.32142277E-02 0.12500064E+03</pdfrwt>
<totfact> 0.88824698E+03</totfact>
</mgrwt>
</event>
<event>
 5    1  0.3398872E-002  0.1249998E+03  0.7818608E-02  0.1235070E+00
          4   -1    0    0  501    0  0.00000000000E+00  0.00000000000E+00  0.52414393484E+02  0.52429777267E+02  0.12700000000E+01 0.  1.
         -4   -1    0    0    0  501 -0.00000000000E+00 -0.00000000000E+00 -0.74494347733E+02  0.74505172600E+02  0.12700000000E+01 0.  1.
         25    2    1    2    0    0  0.00000000000E+00  0.00000000000E+00 -0.22079954249E+02  0.12693494987E+03  0.12499982847E+03 0.  0.
    9000005    1    3    3    0    0 -0.13980360492E+02 -0.52152096048E+02 -0.42990496288E+02  0.69025172023E+02  0.10000000000E+01 0.  0.
    9000005    1    3    3    0    0  0.13980360492E+02  0.52152096048E+02  0.20910542039E+02  0.57909777845E+02  0.10000000000E+01 0.  0.
<mgrwt>
<rscale>  0 0.12499983E+03</rscale>
<asrwt>0</asrwt>
<pdfrwt beam="1">  1        4 0.80657689E-02 0.12499983E+03</pdfrwt>
<pdfrwt beam="2">  1       -4 0.11462685E-01 0.12499983E+03</pdfrwt>
<totfact> 0.10410600E+04</totfact>
</mgrwt>
</event>
<event>
 5    1  0.3398872E-002  0.1250021E+03  0.7818608E-02  0.1235066E+00
         -4   -1    0    0    0  501 -0.00000000000E+00  0.00000000000E+00  0.13488591628E+03  0.13489189490E+03  0.12700000000E+01 0. -1.
          4   -1    0    0  501    0  0.00000000000E+00 -0.00000000000E+00 -0.28940095423E+02  0.28967948203E+02  0.12700000000E+01 0. -1.
         25    2    1    2    0    0  0.00000000000E+00  0.00000000000E+00  0.10594582085E+03  0.16385984310E+03  0.12500212489E+03 0.  0.
    9000005    1    3    3    0    0  0.22649934056E+01  0.50335759538E+02  0.45143939081E+01  0.50598405467E+02  0.10000000000E+01 0.  0.
    9000005    1    3    3    0    0 -0.22649934056E+01 -0.50335759538E+02  0.10143142695E+03  0.11326143764E+03  0.10000000000E+01 0.  0.
<mgrwt>
<rscale>  0 0.12500212E+03</rscale>
<asrwt>0</asrwt>
<pdfrwt beam="2">  1        4 0.44549248E-02 0.12500212E+03</pdfrwt>
<pdfrwt beam="1">  1       -4 0.20754282E-01 0.12500212E+03</pdfrwt>
<totfact> 0.96599145E+03</totfact>
</mgrwt>
</event>
<event>
 5    1  0.3398872E-002  0.1249783E+03  0.7818608E-02  0.1235103E+00
          4   -1    0    0  501    0  0.00000000000E+00  0.00000000000E+00  0.30253813133E+02  0.30280457544E+02  0.12700000000E+01 0. -1.
         -4   -1    0    0    0  501 -0.00000000000E+00 -0.00000000000E+00 -0.12898449326E+03  0.12899074541E+03  0.12700000000E+01 0. -1.
         25    2    1    2    0    0  0.00000000000E+00  0.00000000000E+00 -0.98730680131E+02  0.15927120296E+03  0.12497827368E+03 0.  0.
    9000005    1    3    3    0    0  0.30056243922E+02 -0.15042419235E+02 -0.11648886533E+03  0.12124482637E+03  0.10000000000E+01 0.  0.
    9000005    1    3    3    0    0 -0.30056243922E+02  0.15042419235E+02  0.17758185198E+02  0.38026376591E+02  0.10000000000E+01 0.  0.
<mgrwt>
<rscale>  0 0.12497827E+03</rscale>
<asrwt>0</asrwt>
<pdfrwt beam="1">  1        4 0.46569634E-02 0.12497827E+03</pdfrwt>
<pdfrwt beam="2">  1       -4 0.19846298E-01 0.12497827E+03</pdfrwt>
<totfact> 0.97531101E+03</totfact>
</mgrwt>
</event>
<event>
 5    1  0.3398872E-002  0.1250220E+03  0.7818608E-02  0.1235035E+00
         -4   -1    0    0    0  501 -0.00000000000E+00  0.00000000000E+00  0.26323452685E+02  0.26354071057E+02  0.12700000000E+01 0.  1.
          4   -1    0    0  501    0  0.00000000000E+00 -0.00000000000E+00 -0.14832680602E+03  0.14833224290E+03  0.12700000000E+01 0.  1.
         25    2    1    2    0    0  0.00000000000E+00  0.00000000000E+00 -0.12200335333E+03  0.17468631396E+03  0.12502195831E+03 0.  0.
    9000005    1    3    3    0    0  0.14309083563E+02 -0.40600709887E+02  0.23145723607E+01  0.43122207283E+02  0.10000000000E+01 0.  0.
    9000005    1    3    3    0    0 -0.14309083563E+02  0.40600709887E+02 -0.12431792569E+03  0.13156410667E+03  0.10000000000E+01 0.  0.
<mgrwt>
<rscale>  0 0.12502196E+03</rscale>
<asrwt>0</asrwt>
<pdfrwt beam="2">  1        4 0.22822282E-01 0.12502196E+03</pdfrwt>
<pdfrwt beam="1">  1       -4 0.40525355E-02 0.12502196E+03</pdfrwt>
<totfact> 0.94535745E+03</totfact>
</mgrwt>
</event>
<event>
 5    1  0.3398872E-002  0.1250034E+03  0.7818608E-02  0.1235064E+00
          4   -1    0    0  501    0  0.00000000000E+00  0.00000000000E+00  0.79184531348E+02  0.79194715132E+02  0.12700000000E+01 0.  1.
         -4   -1    0    0    0  501 -0.00000000000E+00 -0.00000000000E+00 -0.49312113093E+02  0.49328464376E+02  0.12700000000E+01 0.  1.
         25    2    1    2    0    0  0.00000000000E+00  0.00000000000E+00  0.29872418255E+02  0.12852317951E+03  0.12500338515E+03 0.  0.
    9000005    1    3    3    0    0  0.56807951641E+02  0.24986141164E+02  0.73800583810E+01  0.62505326826E+02  0.10000000000E+01 0.  0.
    9000005    1    3    3    0    0 -0.56807951641E+02 -0.24986141164E+02  0.22492359874E+02  0.66017852681E+02  0.10000000000E+01 0.  0.
<mgrwt>
<rscale>  0 0.12500339E+03</rscale>
<asrwt>0</asrwt>
<pdfrwt beam="1">  1        4 0.12184277E-01 0.12500339E+03</pdfrwt>
<pdfrwt beam="2">  1       -4 0.75885202E-02 0.12500339E+03</pdfrwt>
<totfact> 0.10375412E+04</totfact>
</mgrwt>
</event>
<event>
 5    1  0.3398872E-002  0.1249980E+03  0.7818608E-02  0.1235072E+00
          4   -1    0    0  501    0  0.00000000000E+00  0.00000000000E+00  0.42344556549E+01  0.44208047563E+01  0.12700000000E+01 0. -1.
         -4   -1    0    0    0  501 -0.00000000000E+00 -0.00000000000E+00 -0.90241501010E+03  0.90241590376E+03  0.12700000000E+01 0. -1.
         25    2    1    2    0    0  0.00000000000E+00  0.00000000000E+00 -0.89818055445E+03  0.90683670852E+03  0.12499803008E+03 0.  0.
    9000005    1    3    3    0    0  0.22200866485E+02  0.29585445042E+02 -0.81450148546E+03  0.81534155227E+03  0.10000000000E+01 0.  0.
    9000005    1    3    3    0    0 -0.22200866485E+02 -0.29585445042E+02 -0.83679068986E+02  0.91495156251E+02  0.10000000000E+01 0.  0.
<mgrwt>
<rscale>  0 0.12499803E+03</rscale>
<asrwt>0</asrwt>
<pdfrwt beam="1">  1        4 0.66585873E-03 0.12499803E+03</pdfrwt>
<pdfrwt beam="2">  1       -4 0.13884733E+00 0.12499803E+03</pdfrwt>
<totfact> 0.33900976E+03</totfact>
</mgrwt>
</event>
<event>
 5    1  0.3398872E-002  0.1249970E+03  0.7818608E-02  0.1235074E+00
         -4   -1    0    0    0  501 -0.00000000000E+00  0.00000000000E+00  0.81229449823E+02  0.81239377266E+02  0.12700000000E+01 0. -1.
          4   -1    0    0  501    0  0.00000000000E+00 -0.00000000000E+00 -0.48065521496E+02  0.48082296707E+02  0.12700000000E+01 0. -1.
         25    2    1    2    0    0  0.00000000000E+00  0.00000000000E+00  0.33163928328E+02  0.12932167397E+03  0.12499699683E+03 0.  0.
    9000005    1    3    3    0    0 -0.16633392343E+02 -0.58304919841E+02  0.32235845455E+02  0.68675200405E+02  0.10000000000E+01 0.  0.
    9000005    1    3    3    0    0  0.16633392343E+02  0.58304919841E+02  0.92808287295E+00  0.60646473569E+02  0.10000000000E+01 0.  0.
<mgrwt>
<rscale>  0 0.12499700E+03</rscale>
<asrwt>0</asrwt>
<pdfrwt beam="2">  1        4 0.73967497E-02 0.12499700E+03</pdfrwt>
<pdfrwt beam="1">  1       -4 0.12498892E-01 0.12499700E+03</pdfrwt>
<totfact> 0.10359742E+04</totfact>
</mgrwt>
</event>
<event>
 5    1  0.3398872E-002  0.1249863E+03  0.7818608E-02  0.1235091E+00
         -4   -1    0    0    0  501 -0.00000000000E+00  0.00000000000E+00  0.17839687944E+02  0.17884836201E+02  0.12700000000E+01 0. -1.
          4   -1    0    0  501    0  0.00000000000E+00 -0.00000000000E+00 -0.21859241550E+03  0.21859610476E+03  0.12700000000E+01 0. -1.
         25    2    1    2    0    0  0.00000000000E+00  0.00000000000E+00 -0.20075272756E+03  0.23648094096E+03  0.12498631051E+03 0.  0.
    9000005    1    3    3    0    0 -0.49326148633E+02  0.37501680951E+02 -0.85128064643E+02  0.10529592776E+03  0.10000000000E+01 0.  0.
    9000005    1    3    3    0    0  0.49326148633E+02 -0.37501680951E+02 -0.11562466291E+03  0.13118501320E+03  0.10000000000E+01 0.  0.
<mgrwt>
<rscale>  0 0.12498631E+03</rscale>
<asrwt>0</asrwt>
<pdfrwt beam="2">  1        4 0.33633357E-01 0.12498631E+03</pdfrwt>
<pdfrwt beam="1">  1       -4 0.27483243E-02 0.12498631E+03</pdfrwt>
<totfact> 0.84350024E+03</totfact>
</mgrwt>
</event>
<event>
 5    1  0.3398872E-002  0.1250058E+03  0.7818608E-02  0.1235060E+00
         -4   -1    0    0    0  501 -0.00000000000E+00  0.00000000000E+00  0.54269432771E+03  0.54269581372E+03  0.12700000000E+01 0. -1.
          4   -1    0    0  501    0  0.00000000000E+00 -0.00000000000E+00 -0.71410284546E+01  0.72530812342E+01  0.12700000000E+01 0. -1.
         25    2    1    2    0    0  0.00000000000E+00  0.00000000000E+00  0.53555329925E+03  0.54994889495E+03  0.12500580273E+03 0.  0.
    9000005    1    3    3    0    0 -0.94936869901E+01 -0.51365618221E+02  0.11684139361E+03  0.12799010933E+03  0.10000000000E+01 0.  0.
    9000005    1    3    3    0    0  0.94936869901E+01  0.51365618221E+02  0.41871190565E+03  0.42195878562E+03  0.10000000000E+01 0.  0.
<mgrwt>
<rscale>  0 0.12500580E+03</rscale>
<asrwt>0</asrwt>
<pdfrwt beam="2">  1        4 0.11073532E-02 0.12500580E+03</pdfrwt>
<pdfrwt beam="1">  1       -4 0.83500191E-01 0.12500580E+03</pdfrwt>
<totfact> 0.52180833E+03</totfact>
</mgrwt>
</event>
<event>
 5    1  0.3398872E-002  0.1249982E+03  0.7818608E-02  0.1235072E+00
          4   -1    0    0  501    0  0.00000000000E+00  0.00000000000E+00  0.11084134095E+02  0.11156654007E+02  0.12700000000E+01 0.  1.
         -4   -1    0    0    0  501 -0.00000000000E+00 -0.00000000000E+00 -0.35118542399E+03  0.35118772035E+03  0.12700000000E+01 0.  1.
         25    2    1    2    0    0  0.00000000000E+00  0.00000000000E+00 -0.34010128989E+03  0.36234437435E+03  0.12499823294E+03 0.  0.
    9000005    1    3    3    0    0 -0.51936362144E+02  0.26284626725E+02 -0.23595426265E+03  0.24303020672E+03  0.10000000000E+01 0.  0.
    9000005    1    3    3    0    0  0.51936362144E+02 -0.26284626725E+02 -0.10414702724E+03  0.11931416763E+03  0.10000000000E+01 0.  0.
<mgrwt>
<rscale>  0 0.12499823E+03</rscale>
<asrwt>0</asrwt>
<pdfrwt beam="1">  1        4 0.17110068E-02 0.12499823E+03</pdfrwt>
<pdfrwt beam="2">  1       -4 0.54034273E-01 0.12499823E+03</pdfrwt>
<totfact> 0.68390214E+03</totfact>
</mgrwt>
</event>
<event>
 5    1  0.3398872E-002  0.1249786E+03  0.7818608E-02  0.1235103E+00
          4   -1    0    0  501    0  0.00000000000E+00  0.00000000000E+00  0.16594751622E+03  0.16595237582E+03  0.12700000000E+01 0. -1.
         -4   -1    0    0    0  501 -0.00000000000E+00 -0.00000000000E+00 -0.23508669448E+02  0.23542948822E+02  0.12700000000E+01 0. -1.
         25    2    1    2    0    0  0.00000000000E+00  0.00000000000E+00  0.14243884678E+03  0.18949532464E+03  0.12497861013E+03 0.  0.
    9000005    1    3    3    0    0  0.25062838504E+02 -0.40966221952E+02  0.13182158843E+03  0.14030077830E+03  0.10000000000E+01 0.  0.
    9000005    1    3    3    0    0 -0.25062838504E+02  0.40966221952E+02  0.10617258341E+02  0.49194546340E+02  0.10000000000E+01 0.  0.
<mgrwt>
<rscale>  0 0.12497861E+03</rscale>
<asrwt>0</asrwt>
<pdfrwt beam="1">  1        4 0.25533398E-01 0.12497861E+03</pdfrwt>
<pdfrwt beam="2">  1       -4 0.36197291E-02 0.12497861E+03</pdfrwt>
<totfact> 0.91979265E+03</totfact>
</mgrwt>
</event>
<event>
 5    1  0.3398872E-002  0.1249938E+03  0.7818608E-02  0.1235079E+00
         -4   -1    0    0    0  501 -0.00000000000E+00  0.00000000000E+00  0.11544301083E+04  0.11544308068E+04  0.12700000000E+01 0. -1.
          4   -1    0    0  501    0  0.00000000000E+00 -0.00000000000E+00 -0.32634643291E+01  0.35018708468E+01  0.12700000000E+01 0. -1.
         25    2    1    2    0    0  0.00000000000E+00  0.00000000000E+00  0.11511666439E+04  0.11579326777E+04  0.12499377557E+03 0.  0.
    9000005    1    3    3    0    0 -0.85210840583E+01 -0.23810441595E+02  0.11049510527E+04  0.11052408674E+04  0.10000000000E+01 0.  0.
    9000005    1    3    3    0    0  0.85210840583E+01  0.23810441595E+02  0.46215591236E+02  0.52691810329E+02  0.10000000000E+01 0.  0.
<mgrwt>
<rscale>  0 0.12499378E+03</rscale>
<asrwt>0</asrwt>
<pdfrwt beam="2">  1        4 0.52046362E-03 0.12499378E+03</pdfrwt>
<pdfrwt beam="1">  1       -4 0.17762320E+00 0.12499378E+03</pdfrwt>
<totfact> 0.25844630E+03</totfact>
</mgrwt>
</event>
<event>
 5    1  0.3398872E-002  0.1249950E+03  0.7818608E-02  0.1235077E+00
         -4   -1    0    0    0  501 -0.00000000000E+00  0.00000000000E+00  0.54202033990E+03  0.54202182775E+03  0.12700000000E+01 0.  1.
          4   -1    0    0  501    0  0.00000000000E+00 -0.00000000000E+00 -0.71487896548E+01  0.72607226588E+01  0.12700000000E+01 0.  1.
         25    2    1    2    0    0  0.00000000000E+00  0.00000000000E+00  0.53487155024E+03  0.54928255041E+03  0.12499497962E+03 0.  0.
    9000005    1    3    3    0    0  0.52680659456E+02  0.10429131863E+02  0.12702560372E+03  0.13791491098E+03  0.10000000000E+01 0.  0.
    9000005    1    3    3    0    0 -0.52680659456E+02 -0.10429131863E+02  0.40784594653E+03  0.41136763943E+03  0.10000000000E+01 0.  0.
<mgrwt>
<rscale>  0 0.12499498E+03</rscale>
<asrwt>0</asrwt>
<pdfrwt beam="2">  1        4 0.11085384E-02 0.12499498E+03</pdfrwt>
<pdfrwt beam="1">  1       -4 0.83396473E-01 0.12499498E+03</pdfrwt>
<totfact> 0.52239728E+03</totfact>
</mgrwt>
</event>
<event>
 5    1  0.3398872E-002  0.1250019E+03  0.7818608E-02  0.1235066E+00
          4   -1    0    0  501    0  0.00000000000E+00  0.00000000000E+00  0.13983798929E+03  0.13984375620E+03  0.12700000000E+01 0. -1.
         -4   -1    0    0    0  501 -0.00000000000E+00 -0.00000000000E+00 -0.27914199520E+02  0.27943074900E+02  0.12700000000E+01 0. -1.
         25    2    1    2    0    0  0.00000000000E+00  0.00000000000E+00  0.11192378977E+03  0.16778683110E+03  0.12500194388E+03 0.  0.
    9000005    1    3    3    0    0 -0.18982098249E+02  0.14472849663E+02  0.13348431293E+03  0.13560547640E+03  0.10000000000E+01 0.  0.
    9000005    1    3    3    0    0  0.18982098249E+02 -0.14472849663E+02 -0.21560523162E+02  0.32181354700E+02  0.10000000000E+01 0.  0.
<mgrwt>
<rscale>  0 0.12500194E+03</rscale>
<asrwt>0</asrwt>
<pdfrwt beam="1">  1        4 0.21516202E-01 0.12500194E+03</pdfrwt>
<pdfrwt beam="2">  1       -4 0.42971570E-02 0.12500194E+03</pdfrwt>
<totfact> 0.95858014E+03</totfact>
</mgrwt>
</event>
<event>
 5    1  0.3398872E-002  0.1249969E+03  0.7818608E-02  0.1235074E+00
         -4   -1    0    0    0  501 -0.00000000000E+00  0.00000000000E+00  0.22917311624E+02  0.22952474204E+02  0.12700000000E+01 0. -1.
          4   -1    0    0  501    0  0.00000000000E+00 -0.00000000000E+00 -0.17027322776E+03  0.17027796391E+03  0.12700000000E+01 0. -1.
         25    2    1    2    0    0  0.00000000000E+00  0.00000000000E+00 -0.14735591614E+03  0.19323043811E+03  0.12499694473E+03 0.  0.
    9000005    1    3    3    0    0  0.55479717059E+02 -0.15886765148E+02 -0.36619641931E+02  0.68354857084E+02  0.10000000000E+01 0.  0.
    9000005    1    3    3    0    0 -0.55479717059E+02  0.15886765148E+02 -0.11073627421E+03  0.12487558103E+03  0.10000000000E+01 0.  0.
<mgrwt>
<rscale>  0 0.12499694E+03</rscale>
<asrwt>0</asrwt>
<pdfrwt beam="2">  1        4 0.26198950E-01 0.12499694E+03</pdfrwt>
<pdfrwt beam="1">  1       -4 0.35288095E-02 0.12499694E+03</pdfrwt>
<totfact> 0.91294494E+03</totfact>
</mgrwt>
</event>
<event>
 5    1  0.3398872E-002  0.1250024E+03  0.7818608E-02  0.1235066E+00
         -4   -1    0    0    0  501 -0.00000000000E+00  0.00000000000E+00  0.10783746419E+03  0.10784494232E+03  0.12700000000E+01 0.  1.
          4   -1    0    0  501    0  0.00000000000E+00 -0.00000000000E+00 -0.36205030127E+02  0.36227297809E+02  0.12700000000E+01 0.  1.
         25    2    1    2    0    0  0.00000000000E+00  0.00000000000E+00  0.71632434065E+02  0.14407224013E+03  0.12500241904E+03 0.  0.
    9000005    1    3    3    0    0 -0.11983418479E+02  0.61264530221E+02  0.39167798340E+02  0.73702519689E+02  0.10000000000E+01 0.  0.
    9000005    1    3    3    0    0  0.11983418479E+02 -0.61264530221E+02  0.32464635725E+02  0.70369720437E+02  0.10000000000E+01 0.  0.
<mgrwt>
<rscale>  0 0.12500242E+03</rscale>
<asrwt>0</asrwt>
<pdfrwt beam="2">  1        4 0.55722928E-02 0.12500242E+03</pdfrwt>
<pdfrwt beam="1">  1       -4 0.16592667E-01 0.12500242E+03</pdfrwt>
<totfact> 0.10049325E+04</totfact>
</mgrwt>
</event>
<event>
 5    1  0.3398872E-002  0.1249997E+03  0.7818608E-02  0.1235070E+00
          4   -1    0    0  501    0  0.00000000000E+00  0.00000000000E+00  0.15054759982E+03  0.15055295650E+03  0.12700000000E+01 0. -1.
         -4   -1    0    0    0  501 -0.00000000000E+00 -0.00000000000E+00 -0.25925454994E+02  0.25956542849E+02  0.12700000000E+01 0. -1.
         25    2    1    2    0    0  0.00000000000E+00  0.00000000000E+00  0.12462214482E+03  0.17650949935E+03  0.12499969752E+03 0.  0.
    9000005    1    3    3    0    0  0.31892563902E+02  0.52463821543E+02  0.78756972259E+02  0.99866154840E+02  0.10000000000E+01 0.  0.
    9000005    1    3    3    0    0 -0.31892563902E+02 -0.52463821543E+02  0.45865172564E+02  0.76643344508E+02  0.10000000000E+01 0.  0.
<mgrwt>
<rscale>  0 0.12499970E+03</rscale>
<asrwt>0</asrwt>
<pdfrwt beam="1">  1        4 0.23163973E-01 0.12499970E+03</pdfrwt>
<pdfrwt beam="2">  1       -4 0.39913349E-02 0.12499970E+03</pdfrwt>
<totfact> 0.94249743E+03</totfact>
</mgrwt>
</event>
<event>
 5    1  0.3398872E-002  0.1249994E+03  0.7818608E-02  0.1235070E+00
          4   -1    0    0  501    0  0.00000000000E+00  0.00000000000E+00  0.16192999324E+03  0.16193497340E+03  0.12700000000E+01 0. -1.
         -4   -1    0    0    0  501 -0.00000000000E+00 -0.00000000000E+00 -0.24100775896E+02  0.24134214277E+02  0.12700000000E+01 0. -1.
         25    2    1    2    0    0  0.00000000000E+00  0.00000000000E+00  0.13782921734E+03  0.18606918767E+03  0.12499939780E+03 0.  0.
    9000005    1    3    3    0    0  0.54826578844E+02 -0.17714656383E+01  0.24354139687E+02  0.60026793669E+02  0.10000000000E+01 0.  0.
    9000005    1    3    3    0    0 -0.54826578844E+02  0.17714656383E+01  0.11347507765E+03  0.12604239401E+03  0.10000000000E+01 0.  0.
<mgrwt>
<rscale>  0 0.12499940E+03</rscale>
<asrwt>0</asrwt>
<pdfrwt beam="1">  1        4 0.24915262E-01 0.12499940E+03</pdfrwt>
<pdfrwt beam="2">  1       -4 0.37107670E-02 0.12499940E+03</pdfrwt>
<totfact> 0.92537046E+03</totfact>
</mgrwt>
</event>
<event>
 5    1  0.3398872E-002  0.1249981E+03  0.7818608E-02  0.1235072E+00
         -4   -1    0    0    0  501 -0.00000000000E+00  0.00000000000E+00  0.23612456393E+02  0.23646585312E+02  0.12700000000E+01 0.  1.
          4   -1    0    0  501    0  0.00000000000E+00 -0.00000000000E+00 -0.16527066285E+03  0.16527554235E+03  0.12700000000E+01 0.  1.
         25    2    1    2    0    0  0.00000000000E+00  0.00000000000E+00 -0.14165820646E+03  0.18892212766E+03  0.12499809144E+03 0.  0.
    9000005    1    3    3    0    0 -0.49338725718E+02  0.38122728282E+02 -0.64510357348E+02  0.89723121169E+02  0.10000000000E+01 0.  0.
    9000005    1    3    3    0    0  0.49338725718E+02 -0.38122728282E+02 -0.77147849112E+02  0.99199006496E+02  0.10000000000E+01 0.  0.
<mgrwt>
<rscale>  0 0.12499809E+03</rscale>
<asrwt>0</asrwt>
<pdfrwt beam="2">  1        4 0.25429256E-01 0.12499809E+03</pdfrwt>
<pdfrwt beam="1">  1       -4 0.36356864E-02 0.12499809E+03</pdfrwt>
<totfact> 0.92039135E+03</totfact>
</mgrwt>
</event>
<event>
 5    1  0.3398872E-002  0.1249994E+03  0.7818608E-02  0.1235070E+00
          4   -1    0    0  501    0  0.00000000000E+00  0.00000000000E+00  0.89495661400E+02  0.89504671997E+02  0.12700000000E+01 0.  1.
         -4   -1    0    0    0  501 -0.00000000000E+00 -0.00000000000E+00 -0.43626493923E+02  0.43644975335E+02  0.12700000000E+01 0.  1.
         25    2    1    2    0    0  0.00000000000E+00  0.00000000000E+00  0.45869167477E+02  0.13314964733E+03  0.12499939224E+03 0.  0.
    9000005    1    3    3    0    0  0.37822520462E+02 -0.10733353464E+02 -0.28806891199E+02  0.48750229858E+02  0.10000000000E+01 0.  0.
    9000005    1    3    3    0    0 -0.37822520462E+02  0.10733353464E+02  0.74676058675E+02  0.84399417474E+02  0.10000000000E+01 0.  0.
<mgrwt>
<rscale>  0 0.12499939E+03</rscale>
<asrwt>0</asrwt>
<pdfrwt beam="1">  1        4 0.13770678E-01 0.12499939E+03</pdfrwt>
<pdfrwt beam="2">  1       -4 0.67138831E-02 0.12499939E+03</pdfrwt>
<totfact> 0.10277361E+04</totfact>
</mgrwt>
</event>
<event>
 5    1  0.3398872E-002  0.1250106E+03  0.7818608E-02  0.1235053E+00
          4   -1    0    0  501    0  0.00000000000E+00  0.00000000000E+00  0.16405367720E+03  0.16405859290E+03  0.12700000000E+01 0. -1.
         -4   -1    0    0    0  501 -0.00000000000E+00 -0.00000000000E+00 -0.23792650403E+02  0.23826521215E+02  0.12700000000E+01 0. -1.
         25    2    1    2    0    0  0.00000000000E+00  0.00000000000E+00  0.14026102680E+03  0.18788511411E+03  0.12501064141E+03 0.  0.
    9000005    1    3    3    0    0 -0.41789452651E+02  0.10296576306E+02  0.13823828723E+03  0.14478674626E+03  0.10000000000E+01 0.  0.
    9000005    1    3    3    0    0  0.41789452651E+02 -0.10296576306E+02  0.20227395739E+01  0.43098367856E+02  0.10000000000E+01 0.  0.
<mgrwt>
<rscale>  0 0.12501064E+03</rscale>
<asrwt>0</asrwt>
<pdfrwt beam="1">  1        4 0.25242012E-01 0.12501064E+03</pdfrwt>
<pdfrwt beam="2">  1       -4 0.36633912E-02 0.12501064E+03</pdfrwt>
<totfact> 0.92194622E+03</totfact>
</mgrwt>
</event>
<event>
 5    1  0.3398872E-002  0.1249865E+03  0.7818608E-02  0.1235090E+00
         -4   -1    0    0    0  501 -0.00000000000E+00  0.00000000000E+00  0.32019894797E+02  0.32045070803E+02  0.12700000000E+01 0.  1.
          4   -1    0    0  501    0  0.00000000000E+00 -0.00000000000E+00 -0.12189165985E+03  0.12189827579E+03  0.12700000000E+01 0.  1.
         25    2    1    2    0    0  0.00000000000E+00  0.00000000000E+00 -0.89871765049E+02  0.15394334659E+03  0.12498647849E+03 0.  0.
    9000005    1    3    3    0    0 -0.61795229960E+02 -0.36179345289E+01 -0.55435191022E+02  0.83101144996E+02  0.10000000000E+01 0.  0.
    9000005    1    3    3    0    0  0.61795229960E+02  0.36179345289E+01 -0.34436574027E+02  0.70842201594E+02  0.10000000000E+01 0.  0.
<mgrwt>
<rscale>  0 0.12498648E+03</rscale>
<asrwt>0</asrwt>
<pdfrwt beam="2">  1        4 0.18755008E-01 0.12498648E+03</pdfrwt>
<pdfrwt beam="1">  1       -4 0.49285833E-02 0.12498648E+03</pdfrwt>
<totfact> 0.98553303E+03</totfact>
</mgrwt>
</event>
<event>
 5    1  0.3398872E-002  0.1249994E+03  0.7818608E-02  0.1235070E+00
          4   -1    0    0  501    0  0.00000000000E+00  0.00000000000E+00  0.15393194183E+02  0.15445495368E+02  0.12700000000E+01 0. -1.
         -4   -1    0    0    0  501 -0.00000000000E+00 -0.00000000000E+00 -0.25327820957E+03  0.25328139360E+03  0.12700000000E+01 0. -1.
         25    2    1    2    0    0  0.00000000000E+00  0.00000000000E+00 -0.23788501539E+03  0.26872688896E+03  0.12499944123E+03 0.  0.
    9000005    1    3    3    0    0 -0.55471950094E+02 -0.78213713968E+01 -0.17847767087E+03  0.18706573737E+03  0.10000000000E+01 0.  0.
    9000005    1    3    3    0    0  0.55471950094E+02  0.78213713968E+01 -0.59407344515E+02  0.81661151596E+02  0.10000000000E+01 0.  0.
<mgrwt>
<rscale>  0 0.12499944E+03</rscale>
<asrwt>0</asrwt>
<pdfrwt beam="1">  1        4 0.23724520E-02 0.12499944E+03</pdfrwt>
<pdfrwt beam="2">  1       -4 0.38970143E-01 0.12499944E+03</pdfrwt>
<totfact> 0.79697745E+03</totfact>
</mgrwt>
</event>
<event>
 5    1  0.3398872E-002  0.1250019E+03  0.7818608E-02  0.1235066E+00
         -4   -1    0    0    0  501 -0.00000000000E+00  0.00000000000E+00  0.33006560820E+01  0.35365563154E+01  0.12700000000E+01 0. -1.
          4   -1    0    0  501    0  0.00000000000E+00 -0.00000000000E+00 -0.11424431501E+04  0.11424438560E+04  0.12700000000E+01 0. -1.
         25    2    1    2    0    0  0.00000000000E+00  0.00000000000E+00 -0.11391424940E+04  0.11459804123E+04  0.12500193491E+03 0.  0.
    9000005    1    3    3    0    0  0.23600242897E+02 -0.34665651398E+02 -0.99433293312E+03  0.99521739371E+03  0.10000000000E+01 0.  0.
    9000005    1    3    3    0    0 -0.23600242897E+02  0.34665651398E+02 -0.14480956087E+03  0.15076301858E+03  0.10000000000E+01 0.  0.
<mgrwt>
<rscale>  0 0.12500193E+03</rscale>
<asrwt>0</asrwt>
<pdfrwt beam="2">  1        4 0.17577838E+00 0.12500193E+03</pdfrwt>
<pdfrwt beam="1">  1       -4 0.52599463E-03 0.12500193E+03</pdfrwt>
<totfact> 0.26170974E+03</totfact>
</mgrwt>
</event>
<event>
 5    1  0.3398872E-002  0.1249984E+03  0.7818608E-02  0.1235072E+00
          4   -1    0    0  501    0  0.00000000000E+00  0.00000000000E+00  0.13912590882E+02  0.13970436108E+02  0.12700000000E+01 0. -1.
         -4   -1    0    0    0  501 -0.00000000000E+00 -0.00000000000E+00 -0.28012190059E+03  0.28012477950E+03  0.12700000000E+01 0. -1.
         25    2    1    2    0    0  0.00000000000E+00  0.00000000000E+00 -0.26620930970E+03  0.29409521561E+03  0.12499839706E+03 0.  0.
    9000005    1    3    3    0    0  0.93901499333E+00 -0.39944377208E+02 -0.20055151477E+02  0.44717380519E+02  0.10000000000E+01 0.  0.
    9000005    1    3    3    0    0 -0.93901499333E+00  0.39944377208E+02 -0.24615415823E+03  0.24937783509E+03  0.10000000000E+01 0.  0.
<mgrwt>
<rscale>  0 0.12499840E+03</rscale>
<asrwt>0</asrwt>
<pdfrwt beam="1">  1        4 0.21450699E-02 0.12499840E+03</pdfrwt>
<pdfrwt beam="2">  1       -4 0.43100344E-01 0.12499840E+03</pdfrwt>
<totfact> 0.76348264E+03</totfact>
</mgrwt>
</event>
<event>
 5    1  0.3398872E-002  0.1249981E+03  0.7818608E-02  0.1235072E+00
          4   -1    0    0  501    0  0.00000000000E+00  0.00000000000E+00  0.16586709326E+03  0.16587195521E+03  0.12700000000E+01 0.  1.
         -4   -1    0    0    0  501 -0.00000000000E+00 -0.00000000000E+00 -0.23527442081E+02  0.23561694143E+02  0.12700000000E+01 0.  1.
         25    2    1    2    0    0  0.00000000000E+00  0.00000000000E+00  0.14233965117E+03  0.18943364935E+03  0.12499812483E+03 0.  0.
    9000005    1    3    3    0    0  0.18505984697E+02  0.58704318896E+02  0.54814846492E+02  0.82427761844E+02  0.10000000000E+01 0.  0.
    9000005    1    3    3    0    0 -0.18505984697E+02 -0.58704318896E+02  0.87524804682E+02  0.10700588751E+03  0.10000000000E+01 0.  0.
<mgrwt>
<rscale>  0 0.12499812E+03</rscale>
<asrwt>0</asrwt>
<pdfrwt beam="1">  1        4 0.25521023E-01 0.12499812E+03</pdfrwt>
<pdfrwt beam="2">  1       -4 0.36226152E-02 0.12499812E+03</pdfrwt>
<totfact> 0.91949813E+03</totfact>
</mgrwt>
</event>
<event>
 5    1  0.3398872E-002  0.1249473E+03  0.7818608E-02  0.1235152E+00
         -4   -1    0    0    0  501 -0.00000000000E+00  0.00000000000E+00  0.89698268355E+02  0.89707258602E+02  0.12700000000E+01 0.  1.
          4   -1    0    0  501    0  0.00000000000E+00 -0.00000000000E+00 -0.43491598040E+02  0.43510136751E+02  0.12700000000E+01 0.  1.
         25    2    1    2    0    0  0.00000000000E+00  0.00000000000E+00  0.46206670315E+02  0.13321739535E+03  0.12494726105E+03 0.  0.
    9000005    1    3    3    0    0 -0.45794131721E+02 -0.41998945708E+02  0.29925326131E+02  0.68974916345E+02  0.10000000000E+01 0.  0.
    9000005    1    3    3    0    0  0.45794131721E+02  0.41998945708E+02  0.16281344184E+02  0.64242479008E+02  0.10000000000E+01 0.  0.
<mgrwt>
<rscale>  0 0.12494726E+03</rscale>
<asrwt>0</asrwt>
<pdfrwt beam="2">  1        4 0.66931327E-02 0.12494726E+03</pdfrwt>
<pdfrwt beam="1">  1       -4 0.13801851E-01 0.12494726E+03</pdfrwt>
<totfact> 0.10288015E+04</totfact>
</mgrwt>
</event>
<event>
 5    1  0.3398872E-002  0.1250016E+03  0.7818608E-02  0.1235067E+00
         -4   -1    0    0    0  501 -0.00000000000E+00  0.00000000000E+00  0.72419513508E+02  0.72430648463E+02  0.12700000000E+01 0. -1.
          4   -1    0    0  501    0  0.00000000000E+00 -0.00000000000E+00 -0.53917822943E+02  0.53932777890E+02  0.12700000000E+01 0. -1.
         25    2    1    2    0    0  0.00000000000E+00  0.00000000000E+00  0.18501690565E+02  0.12636342635E+03  0.12500161185E+03 0.  0.
    9000005    1    3    3    0    0  0.15953354424E+02 -0.49249887042E+02  0.44636334009E+02  0.68362732572E+02  0.10000000000E+01 0.  0.
    9000005    1    3    3    0    0 -0.15953354424E+02  0.49249887042E+02 -0.26134643444E+02  0.58000693780E+02  0.10000000000E+01 0.  0.
<mgrwt>
<rscale>  0 0.12500161E+03</rscale>
<asrwt>0</asrwt>
<pdfrwt beam="2">  1        4 0.82970566E-02 0.12500161E+03</pdfrwt>
<pdfrwt beam="1">  1       -4 0.11143471E-01 0.12500161E+03</pdfrwt>
<totfact> 0.10422629E+04</totfact>
</mgrwt>
</event>
<event>
 5    1  0.3398872E-002  0.1249966E+03  0.7818608E-02  0.1235075E+00
          4   -1    0    0  501    0  0.00000000000E+00  0.00000000000E+00  0.11018770157E+04  0.11018777476E+04  0.12700000000E+01 0.  1.
         -4   -1    0    0    0  501 -0.00000000000E+00 -0.00000000000E+00 -0.34303893265E+01  0.36579326034E+01  0.12700000000E+01 0.  1.
         25    2    1    2    0    0  0.00000000000E+00  0.00000000000E+00  0.10984466264E+04  0.11055356802E+04  0.12499659669E+03 0.  0.
    9000005    1    3    3    0    0  0.54522107155E+02 -0.46123250312E+01  0.28225577738E+03  0.28751218682E+03  0.10000000000E+01 0.  0.
    9000005    1    3    3    0    0 -0.54522107155E+02  0.46123250312E+01  0.81619084899E+03  0.81802349336E+03  0.10000000000E+01 0.  0.
<mgrwt>
<rscale>  0 0.12499660E+03</rscale>
<asrwt>0</asrwt>
<pdfrwt beam="1">  1        4 0.16953753E+00 0.12499660E+03</pdfrwt>
<pdfrwt beam="2">  1       -4 0.54531044E-03 0.12499660E+03</pdfrwt>
<totfact> 0.27323887E+03</totfact>
</mgrwt>
</event>
<event>
 5    1  0.3398872E-002  0.1249977E+03  0.7818608E-02  0.1235073E+00
         -4   -1    0    0    0  501 -0.00000000000E+00  0.00000000000E+00  0.85358715935E+02  0.85368163187E+02  0.12700000000E+01 0.  1.
          4   -1    0    0  501    0  0.00000000000E+00 -0.00000000000E+00 -0.45740275820E+02  0.45757903493E+02  0.12700000000E+01 0.  1.
         25    2    1    2    0    0  0.00000000000E+00  0.00000000000E+00  0.39618440114E+02  0.13112606668E+03  0.12499769824E+03 0.  0.
    9000005    1    3    3    0    0 -0.95904422589E+01  0.20403422585E+02 -0.41330566532E+02  0.47090253405E+02  0.10000000000E+01 0.  0.
    9000005    1    3    3    0    0  0.95904422589E+01 -0.20403422585E+02  0.80949006646E+02  0.84035813276E+02  0.10000000000E+01 0.  0.
<mgrwt>
<rscale>  0 0.12499770E+03</rscale>
<asrwt>0</asrwt>
<pdfrwt beam="2">  1        4 0.70390482E-02 0.12499770E+03</pdfrwt>
<pdfrwt beam="1">  1       -4 0.13134193E-01 0.12499770E+03</pdfrwt>
<totfact> 0.10320923E+04</totfact>
</mgrwt>
</event>
<event>
 5    1  0.3398872E-002  0.1250004E+03  0.7818608E-02  0.1235069E+00
          4   -1    0    0  501    0  0.00000000000E+00  0.00000000000E+00  0.12429229636E+03  0.12429878453E+03  0.12700000000E+01 0. -1.
         -4   -1    0    0    0  501 -0.00000000000E+00 -0.00000000000E+00 -0.31407987219E+02  0.31433653321E+02  0.12700000000E+01 0. -1.
         25    2    1    2    0    0  0.00000000000E+00  0.00000000000E+00  0.92884309144E+02  0.15573243785E+03  0.12500038925E+03 0.  0.
    9000005    1    3    3    0    0  0.50305697194E+02 -0.58124771850E+01  0.92062017011E+02  0.10507551112E+03  0.10000000000E+01 0.  0.
    9000005    1    3    3    0    0 -0.50305697194E+02  0.58124771850E+01  0.82229213315E+00  0.50656926728E+02  0.10000000000E+01 0.  0.
<mgrwt>
<rscale>  0 0.12500039E+03</rscale>
<asrwt>0</asrwt>
<pdfrwt beam="1">  1        4 0.19124366E-01 0.12500039E+03</pdfrwt>
<pdfrwt beam="2">  1       -4 0.48344713E-02 0.12500039E+03</pdfrwt>
<totfact> 0.98171044E+03</totfact>
</mgrwt>
</event>
<event>
 5    1  0.3398872E-002  0.1250008E+03  0.7818608E-02  0.1235068E+00
         -4   -1    0    0    0  501 -0.00000000000E+00  0.00000000000E+00  0.19580803700E+03  0.19581215553E+03  0.12700000000E+01 0.  1.
          4   -1    0    0  501    0  0.00000000000E+00 -0.00000000000E+00 -0.19925087126E+02  0.19965520203E+02  0.12700000000E+01 0.  1.
         25    2    1    2    0    0  0.00000000000E+00  0.00000000000E+00  0.17588294988E+03  0.21577767574E+03  0.12500077315E+03 0.  0.
    9000005    1    3    3    0    0 -0.35136425015E+02  0.48239834119E+02  0.11994154665E+03  0.13397247692E+03  0.10000000000E+01 0.  0.
    9000005    1    3    3    0    0  0.35136425015E+02 -0.48239834119E+02  0.55941403223E+02  0.81805198815E+02  0.10000000000E+01 0.  0.
<mgrwt>
<rscale>  0 0.12500077E+03</rscale>
<asrwt>0</asrwt>
<pdfrwt beam="2">  1        4 0.30688251E-02 0.12500077E+03</pdfrwt>
<pdfrwt beam="1">  1       -4 0.30127740E-01 0.12500077E+03</pdfrwt>
<totfact> 0.87539405E+03</totfact>
</mgrwt>
</event>
<event>
 5    1  0.3398872E-002  0.1249992E+03  0.7818608E-02  0.1235071E+00
          4   -1    0    0  501    0  0.00000000000E+00  0.00000000000E+00  0.17748890673E+03  0.17749345033E+03  0.12700000000E+01 0.  1.
         -4   -1    0    0    0  501 -0.00000000000E+00 -0.00000000000E+00 -0.21984979142E+02  0.22021630454E+02  0.12700000000E+01 0.  1.
         25    2    1    2    0    0  0.00000000000E+00  0.00000000000E+00  0.15550392758E+03  0.19951508079E+03  0.12499918387E+03 0.  0.
    9000005    1    3    3    0    0  0.29054558909E+02  0.52869496654E+02  0.51727296514E+02  0.79473670322E+02  0.10000000000E+01 0.  0.
    9000005    1    3    3    0    0 -0.29054558909E+02 -0.52869496654E+02  0.10377663107E+03  0.12004141046E+03  0.10000000000E+01 0.  0.
<mgrwt>
<rscale>  0 0.12499918E+03</rscale>
<asrwt>0</asrwt>
<pdfrwt beam="1">  1        4 0.27309155E-01 0.12499918E+03</pdfrwt>
<pdfrwt beam="2">  1       -4 0.33854733E-02 0.12499918E+03</pdfrwt>
<totfact> 0.90219003E+03</totfact>
</mgrwt>
</event>
<event>
 5    1  0.3398872E-002  0.1249991E+03  0.7818608E-02  0.1235071E+00
         -4   -1    0    0    0  501 -0.00000000000E+00  0.00000000000E+00  0.30069732892E+03  0.30070001084E+03  0.12700000000E+01 0.  1.
          4   -1    0    0  501    0  0.00000000000E+00 -0.00000000000E+00 -0.12956668338E+02  0.13018761632E+02  0.12700000000E+01 0.  1.
         25    2    1    2    0    0  0.00000000000E+00  0.00000000000E+00  0.28774066058E+03  0.31371877247E+03  0.12499912180E+03 0.  0.
    9000005    1    3    3    0    0 -0.32132294754E+02  0.35971527985E+01  0.96559061963E+01  0.33758856599E+02  0.10000000000E+01 0.  0.
    9000005    1    3    3    0    0  0.32132294754E+02 -0.35971527985E+01  0.27808475439E+03  0.27995991588E+03  0.10000000000E+01 0.  0.
<mgrwt>
<rscale>  0 0.12499912E+03</rscale>
<asrwt>0</asrwt>
<pdfrwt beam="2">  1        4 0.19983163E-02 0.12499912E+03</pdfrwt>
<pdfrwt beam="1">  1       -4 0.46266110E-01 0.12499912E+03</pdfrwt>
<totfact> 0.73910913E+03</totfact>
</mgrwt>
</event>
<event>
 5    1  0.3398872E-002  0.1249963E+03  0.7818608E-02  0.1235075E+00
          4   -1    0    0  501    0  0.00000000000E+00  0.00000000000E+00  0.86461167305E+01  0.87388920647E+01  0.12700000000E+01 0. -1.
         -4   -1    0    0    0  501 -0.00000000000E+00 -0.00000000000E+00 -0.44926112454E+03  0.44926291960E+03  0.12700000000E+01 0. -1.
         25    2    1    2    0    0  0.00000000000E+00  0.00000000000E+00 -0.44061500781E+03  0.45800181166E+03  0.12499629745E+03 0.  0.
    9000005    1    3    3    0    0  0.33789389757E+02 -0.43355849229E+02 -0.11139203576E+03  0.12422011976E+03  0.10000000000E+01 0.  0.
    9000005    1    3    3    0    0 -0.33789389757E+02  0.43355849229E+02 -0.32922297205E+03  0.33378169190E+03  0.10000000000E+01 0.  0.
<mgrwt>
<rscale>  0 0.12499630E+03</rscale>
<asrwt>0</asrwt>
<pdfrwt beam="1">  1        4 0.13374468E-02 0.12499630E+03</pdfrwt>
<pdfrwt beam="2">  1       -4 0.69124353E-01 0.12499630E+03</pdfrwt>
<totfact> 0.59281654E+03</totfact>
</mgrwt>
</event>
<event>
 5    1  0.3398872E-002  0.1249998E+03  0.7818608E-02  0.1235070E+00
          4   -1    0    0  501    0  0.00000000000E+00  0.00000000000E+00  0.70445666802E+01  0.71581296238E+01  0.12700000000E+01 0. -1.
         -4   -1    0    0    0  501 -0.00000000000E+00 -0.00000000000E+00 -0.54995537262E+03  0.54995683901E+03  0.12700000000E+01 0. -1.
         25    2    1    2    0    0  0.00000000000E+00  0.00000000000E+00 -0.54291080594E+03  0.55711496863E+03  0.12499978028E+03 0.  0.
    9000005    1    3    3    0    0 -0.15496481174E+02  0.17043611536E+01 -0.17398173608E+01  0.15718547649E+02  0.10000000000E+01 0.  0.
    9000005    1    3    3    0    0  0.15496481174E+02 -0.17043611536E+01 -0.54117098858E+03  0.54139642098E+03  0.10000000000E+01 0.  0.
<mgrwt>
<rscale>  0 0.12499978E+03</rscale>
<asrwt>0</asrwt>
<pdfrwt beam="1">  1        4 0.10926283E-02 0.12499978E+03</pdfrwt>
<pdfrwt beam="2">  1       -4 0.84617334E-01 0.12499978E+03</pdfrwt>
<totfact> 0.51691848E+03</totfact>
</mgrwt>
</event>
<event>
 5    1  0.3398872E-002  0.1250011E+03  0.7818608E-02  0.1235068E+00
          4   -1    0    0  501    0  0.00000000000E+00  0.00000000000E+00  0.27306122246E+02  0.27335639962E+02  0.12700000000E+01 0. -1.
         -4   -1    0    0    0  501 -0.00000000000E+00 -0.00000000000E+00 -0.14294693634E+03  0.14295257783E+03  0.12700000000E+01 0. -1.
         25    2    1    2    0    0  0.00000000000E+00  0.00000000000E+00 -0.11564081409E+03  0.17028821779E+03  0.12500111693E+03 0.  0.
    9000005    1    3    3    0    0 -0.44280834327E+02  0.19478307291E+02 -0.39258443403E+01  0.48544917318E+02  0.10000000000E+01 0.  0.
    9000005    1    3    3    0    0  0.44280834327E+02 -0.19478307291E+02 -0.11171496975E+03  0.12174330047E+03  0.10000000000E+01 0.  0.
<mgrwt>
<rscale>  0 0.12500112E+03</rscale>
<asrwt>0</asrwt>
<pdfrwt beam="1">  1        4 0.42036465E-02 0.12500112E+03</pdfrwt>
<pdfrwt beam="2">  1       -4 0.21994540E-01 0.12500112E+03</pdfrwt>
<totfact> 0.95392553E+03</totfact>
</mgrwt>
</event>
<event>
 5    1  0.3398872E-002  0.1249976E+03  0.7818608E-02  0.1235073E+00
         -4   -1    0    0    0  501 -0.00000000000E+00  0.00000000000E+00  0.61452745257E+02  0.61465866947E+02  0.12700000000E+01 0.  1.
          4   -1    0    0  501    0  0.00000000000E+00 -0.00000000000E+00 -0.63536387888E+02  0.63549079347E+02  0.12700000000E+01 0.  1.
         25    2    1    2    0    0  0.00000000000E+00  0.00000000000E+00 -0.20836426309E+01  0.12501494629E+03  0.12499758090E+03 0.  0.
    9000005    1    3    3    0    0 -0.50036533433E+02 -0.16961185036E+02 -0.34419535648E+02  0.63063784457E+02  0.10000000000E+01 0.  0.
    9000005    1    3    3    0    0  0.50036533433E+02  0.16961185036E+02  0.32335893017E+02  0.61951161837E+02  0.10000000000E+01 0.  0.
<mgrwt>
<rscale>  0 0.12499758E+03</rscale>
<asrwt>0</asrwt>
<pdfrwt beam="2">  1        4 0.97768146E-02 0.12499758E+03</pdfrwt>
<pdfrwt beam="1">  1       -4 0.94562541E-02 0.12499758E+03</pdfrwt>
<totfact> 0.10453109E+04</totfact>
</mgrwt>
</event>
<event>
 4    1  0.3398872E-002  0.1248727E+03  0.7818608E-02  0.1235268E+00
         -4   -1    0    0    0  501 -0.00000000000E+00  0.00000000000E+00  0.16992424226E+04  0.16992428972E+04  0.12700000000E+01 0. -1.
          4   -1    0    0  501    0  0.00000000000E+00 -0.00000000000E+00 -0.21178624305E+01  0.24694617378E+01  0.12700000000E+01 0. -1.
    9000005    1    1    2    0    0 -0.16716861910E+02  0.29662443788E+02  0.15616353208E+04  0.15620067828E+04  0.10000000000E+01 0.  0.
    9000005    1    1    2    0    0  0.16716861910E+02 -0.29662443788E+02  0.13548923930E+03  0.13970557616E+03  0.10000000000E+01 0.  0.
<mgrwt>
<rscale>  0 0.12487265E+03</rscale>
<asrwt>0</asrwt>
<pdfrwt beam="2">  1        4 0.35290806E-03 0.12487265E+03</pdfrwt>
<pdfrwt beam="1">  1       -4 0.26144865E+00 0.12487265E+03</pdfrwt>
<totfact> 0.14319323E+03</totfact>
</mgrwt>
</event>
<event>
 5    1  0.3398872E-002  0.1250056E+03  0.7818608E-02  0.1235060E+00
         -4   -1    0    0    0  501 -0.00000000000E+00  0.00000000000E+00  0.57647797971E+02  0.57661785533E+02  0.12700000000E+01 0.  1.
          4   -1    0    0  501    0  0.00000000000E+00 -0.00000000000E+00 -0.67738551461E+02  0.67750455748E+02  0.12700000000E+01 0.  1.
         25    2    1    2    0    0  0.00000000000E+00  0.00000000000E+00 -0.10090753490E+02  0.12541224128E+03  0.12500562770E+03 0.  0.
    9000005    1    3    3    0    0 -0.33875520257E+01  0.55665853219E+02 -0.33340644547E+02  0.64982776966E+02  0.10000000000E+01 0.  0.
    9000005    1    3    3    0    0  0.33875520257E+01 -0.55665853219E+02  0.23249891057E+02  0.60429464316E+02  0.10000000000E+01 0.  0.
<mgrwt>
<rscale>  0 0.12500563E+03</rscale>
<asrwt>0</asrwt>
<pdfrwt beam="2">  1        4 0.10423307E-01 0.12500563E+03</pdfrwt>
<pdfrwt beam="1">  1       -4 0.88708837E-02 0.12500563E+03</pdfrwt>
<totfact> 0.10442570E+04</totfact>
</mgrwt>
</event>
<event>
 5    1  0.3398872E-002  0.1250155E+03  0.7818608E-02  0.1235045E+00
         -4   -1    0    0    0  501 -0.00000000000E+00  0.00000000000E+00  0.26579361912E+02  0.26609685824E+02  0.12700000000E+01 0.  1.
          4   -1    0    0  501    0  0.00000000000E+00 -0.00000000000E+00 -0.14688511463E+03  0.14689060487E+03  0.12700000000E+01 0.  1.
         25    2    1    2    0    0  0.00000000000E+00  0.00000000000E+00 -0.12030575272E+03  0.17350029070E+03  0.12501550598E+03 0.  0.
    9000005    1    3    3    0    0 -0.28149992897E+02  0.55404795104E+02 -0.69369757660E+02  0.93141165434E+02  0.10000000000E+01 0.  0.
    9000005    1    3    3    0    0  0.28149992897E+02 -0.55404795104E+02 -0.50935995060E+02  0.80359125265E+02  0.10000000000E+01 0.  0.
<mgrwt>
<rscale>  0 0.12501551E+03</rscale>
<asrwt>0</asrwt>
<pdfrwt beam="2">  1        4 0.22600464E-01 0.12501551E+03</pdfrwt>
<pdfrwt beam="1">  1       -4 0.40918876E-02 0.12501551E+03</pdfrwt>
<totfact> 0.94767255E+03</totfact>
</mgrwt>
</event>
<event>
 5    1  0.3398872E-002  0.1249983E+03  0.7818608E-02  0.1235072E+00
          4   -1    0    0  501    0  0.00000000000E+00  0.00000000000E+00  0.73004718234E+01  0.74101139563E+01  0.12700000000E+01 0. -1.
         -4   -1    0    0    0  501 -0.00000000000E+00 -0.00000000000E+00 -0.53095546597E+03  0.53095698484E+03  0.12700000000E+01 0. -1.
         25    2    1    2    0    0  0.00000000000E+00  0.00000000000E+00 -0.52365499415E+03  0.53836709879E+03  0.12499832065E+03 0.  0.
    9000005    1    3    3    0    0  0.37828447434E+02  0.17752884521E+02 -0.61703339368E+02  0.74528239166E+02  0.10000000000E+01 0.  0.
    9000005    1    3    3    0    0 -0.37828447434E+02 -0.17752884521E+02 -0.46195165478E+03  0.46383885963E+03  0.10000000000E+01 0.  0.
<mgrwt>
<rscale>  0 0.12499832E+03</rscale>
<asrwt>0</asrwt>
<pdfrwt beam="1">  1        4 0.11317008E-02 0.12499832E+03</pdfrwt>
<pdfrwt beam="2">  1       -4 0.81693977E-01 0.12499832E+03</pdfrwt>
<totfact> 0.53007740E+03</totfact>
</mgrwt>
</event>
<event>
 5    1  0.3398872E-002  0.1249966E+03  0.7818608E-02  0.1235075E+00
         -4   -1    0    0    0  501 -0.00000000000E+00  0.00000000000E+00  0.89430351993E+02  0.89439369171E+02  0.12700000000E+01 0.  1.
          4   -1    0    0  501    0  0.00000000000E+00 -0.00000000000E+00 -0.43656383240E+02  0.43674852005E+02  0.12700000000E+01 0.  1.
         25    2    1    2    0    0  0.00000000000E+00  0.00000000000E+00  0.45773968753E+02  0.13311422118E+03  0.12499655861E+03 0.  0.
    9000005    1    3    3    0    0 -0.35846576279E+02 -0.10047856100E+02 -0.30563170952E+02  0.48177213096E+02  0.10000000000E+01 0.  0.
    9000005    1    3    3    0    0  0.35846576279E+02  0.10047856100E+02  0.76337139704E+02  0.84937008079E+02  0.10000000000E+01 0.  0.
<mgrwt>
<rscale>  0 0.12499656E+03</rscale>
<asrwt>0</asrwt>
<pdfrwt beam="2">  1        4 0.67184810E-02 0.12499656E+03</pdfrwt>
<pdfrwt beam="1">  1       -4 0.13760630E-01 0.12499656E+03</pdfrwt>
<totfact> 0.10278771E+04</totfact>
</mgrwt>
</event>
<event>
 5    1  0.3398872E-002  0.1249921E+03  0.7818608E-02  0.1235082E+00
          4   -1    0    0  501    0  0.00000000000E+00  0.00000000000E+00  0.83612885981E+02  0.83622530469E+02  0.12700000000E+01 0. -1.
         -4   -1    0    0    0  501 -0.00000000000E+00 -0.00000000000E+00 -0.46691426869E+02  0.46708695583E+02  0.12700000000E+01 0. -1.
         25    2    1    2    0    0  0.00000000000E+00  0.00000000000E+00  0.36921459112E+02  0.13033122605E+03  0.12499213712E+03 0.  0.
    9000005    1    3    3    0    0 -0.54039337417E+01  0.73138527019E+01  0.82924357627E+02  0.83427477663E+02  0.10000000000E+01 0.  0.
    9000005    1    3    3    0    0  0.54039337417E+01 -0.73138527019E+01 -0.46002898516E+02  0.46903748390E+02  0.10000000000E+01 0.  0.
<mgrwt>
<rscale>  0 0.12499214E+03</rscale>
<asrwt>0</asrwt>
<pdfrwt beam="1">  1        4 0.12865591E-01 0.12499214E+03</pdfrwt>
<pdfrwt beam="2">  1       -4 0.71853667E-02 0.12499214E+03</pdfrwt>
<totfact> 0.10339262E+04</totfact>
</mgrwt>
</event>
<event>
 5    1  0.3398872E-002  0.1249980E+03  0.7818608E-02  0.1235072E+00
          4   -1    0    0  501    0  0.00000000000E+00  0.00000000000E+00  0.65375908801E+02  0.65388243221E+02  0.12700000000E+01 0.  1.
         -4   -1    0    0    0  501 -0.00000000000E+00 -0.00000000000E+00 -0.59723930622E+02  0.59737432058E+02  0.12700000000E+01 0.  1.
         25    2    1    2    0    0  0.00000000000E+00  0.00000000000E+00  0.56519781795E+01  0.12512567528E+03  0.12499795901E+03 0.  0.
    9000005    1    3    3    0    0 -0.22601646443E+02  0.55967413949E+02  0.19026980798E+02  0.63294643094E+02  0.10000000000E+01 0.  0.
    9000005    1    3    3    0    0  0.22601646443E+02 -0.55967413949E+02 -0.13375002619E+02  0.61831032186E+02  0.10000000000E+01 0.  0.
<mgrwt>
<rscale>  0 0.12499796E+03</rscale>
<asrwt>0</asrwt>
<pdfrwt beam="1">  1        4 0.10059819E-01 0.12499796E+03</pdfrwt>
<pdfrwt beam="2">  1       -4 0.91902844E-02 0.12499796E+03</pdfrwt>
<totfact> 0.10450616E+04</totfact>
</mgrwt>
</event>
<event>
 5    1  0.3398872E-002  0.1249979E+03  0.7818608E-02  0.1235073E+00
         -4   -1    0    0    0  501 -0.00000000000E+00  0.00000000000E+00  0.90843705592E+02  0.90852582493E+02  0.12700000000E+01 0.  1.
          4   -1    0    0  501    0  0.00000000000E+00 -0.00000000000E+00 -0.42977844843E+02  0.42996605068E+02  0.12700000000E+01 0.  1.
         25    2    1    2    0    0  0.00000000000E+00  0.00000000000E+00  0.47865860749E+02  0.13384918756E+03  0.12499785752E+03 0.  0.
    9000005    1    3    3    0    0  0.77820933898E+01 -0.58625372212E+02  0.23136434024E+01  0.59193312041E+02  0.10000000000E+01 0.  0.
    9000005    1    3    3    0    0 -0.77820933898E+01  0.58625372212E+02  0.45552217346E+02  0.74655875520E+02  0.10000000000E+01 0.  0.
<mgrwt>
<rscale>  0 0.12499786E+03</rscale>
<asrwt>0</asrwt>
<pdfrwt beam="2">  1        4 0.66141021E-02 0.12499786E+03</pdfrwt>
<pdfrwt beam="1">  1       -4 0.13978081E-01 0.12499786E+03</pdfrwt>
<totfact> 0.10262880E+04</totfact>
</mgrwt>
</event>
<event>
 5    1  0.3398872E-002  0.1249922E+03  0.7818608E-02  0.1235082E+00
          4   -1    0    0  501    0  0.00000000000E+00  0.00000000000E+00  0.19326060252E+02  0.19367743928E+02  0.12700000000E+01 0. -1.
         -4   -1    0    0    0  501 -0.00000000000E+00 -0.00000000000E+00 -0.20183670730E+03  0.20184070282E+03  0.12700000000E+01 0. -1.
         25    2    1    2    0    0  0.00000000000E+00  0.00000000000E+00 -0.18251064705E+03  0.22120844674E+03  0.12499216226E+03 0.  0.
    9000005    1    3    3    0    0  0.19929910922E+02 -0.27870109622E+02  0.12283620348E+01  0.34299464034E+02  0.10000000000E+01 0.  0.
    9000005    1    3    3    0    0 -0.19929910922E+02  0.27870109622E+02 -0.18373900908E+03  0.18690898271E+03  0.10000000000E+01 0.  0.
<mgrwt>
<rscale>  0 0.12499216E+03</rscale>
<asrwt>0</asrwt>
<pdfrwt beam="1">  1        4 0.29767540E-02 0.12499216E+03</pdfrwt>
<pdfrwt beam="2">  1       -4 0.31055313E-01 0.12499216E+03</pdfrwt>
<totfact> 0.86692665E+03</totfact>
</mgrwt>
</event>
<event>
 5    1  0.3398872E-002  0.1250007E+03  0.7818608E-02  0.1235068E+00
          4   -1    0    0  501    0  0.00000000000E+00  0.00000000000E+00  0.13260611660E+02  0.13321288286E+02  0.12700000000E+01 0. -1.
         -4   -1    0    0    0  501 -0.00000000000E+00 -0.00000000000E+00 -0.29384403970E+03  0.29384678417E+03  0.12700000000E+01 0. -1.
         25    2    1    2    0    0  0.00000000000E+00  0.00000000000E+00 -0.28058342804E+03  0.30716807245E+03  0.12500065858E+03 0.  0.
    9000005    1    3    3    0    0 -0.34012321942E+02  0.13971186179E+02 -0.26446015072E+03  0.26700599882E+03  0.10000000000E+01 0.  0.
    9000005    1    3    3    0    0  0.34012321942E+02 -0.13971186179E+02 -0.16123277319E+02  0.40162073634E+02  0.10000000000E+01 0.  0.
<mgrwt>
<rscale>  0 0.12500066E+03</rscale>
<asrwt>0</asrwt>
<pdfrwt beam="1">  1        4 0.20449729E-02 0.12500066E+03</pdfrwt>
<pdfrwt beam="2">  1       -4 0.45211649E-01 0.12500066E+03</pdfrwt>
<totfact> 0.74707307E+03</totfact>
</mgrwt>
</event>
<event>
 5    1  0.3398872E-002  0.1250013E+03  0.7818608E-02  0.1235067E+00
         -4   -1    0    0    0  501 -0.00000000000E+00  0.00000000000E+00  0.43132397488E+03  0.43132584459E+03  0.12700000000E+01 0. -1.
          4   -1    0    0  501    0  0.00000000000E+00 -0.00000000000E+00 -0.90101897259E+01  0.90992537550E+01  0.12700000000E+01 0. -1.
         25    2    1    2    0    0  0.00000000000E+00  0.00000000000E+00  0.42231378516E+03  0.44042509834E+03  0.12500133646E+03 0.  0.
    9000005    1    3    3    0    0 -0.14158174261E+02  0.55448280359E+02  0.29961841848E+03  0.30503632961E+03  0.10000000000E+01 0.  0.
    9000005    1    3    3    0    0  0.14158174261E+02 -0.55448280359E+02  0.12269536668E+03  0.13538876873E+03  0.10000000000E+01 0.  0.
<mgrwt>
<rscale>  0 0.12500134E+03</rscale>
<asrwt>0</asrwt>
<pdfrwt beam="2">  1        4 0.13931780E-02 0.12500134E+03</pdfrwt>
<pdfrwt beam="1">  1       -4 0.66364525E-01 0.12500134E+03</pdfrwt>
<totfact> 0.60800465E+03</totfact>
</mgrwt>
</event>
<event>
 5    1  0.3398872E-002  0.1250007E+03  0.7818608E-02  0.1235068E+00
         -4   -1    0    0    0  501 -0.00000000000E+00  0.00000000000E+00  0.15232593305E+02  0.15285444017E+02  0.12700000000E+01 0.  1.
          4   -1    0    0  501    0  0.00000000000E+00 -0.00000000000E+00 -0.25594457758E+03  0.25594772844E+03  0.12700000000E+01 0.  1.
         25    2    1    2    0    0  0.00000000000E+00  0.00000000000E+00 -0.24071198427E+03  0.27123317245E+03  0.12500069786E+03 0.  0.
    9000005    1    3    3    0    0 -0.38428539655E+02  0.49222114245E+02 -0.11516445059E+03  0.13100923582E+03  0.10000000000E+01 0.  0.
    9000005    1    3    3    0    0  0.38428539655E+02 -0.49222114245E+02 -0.12554753369E+03  0.14022393664E+03  0.10000000000E+01 0.  0.
<mgrwt>
<rscale>  0 0.12500070E+03</rscale>
<asrwt>0</asrwt>
<pdfrwt beam="2">  1        4 0.39380393E-01 0.12500070E+03</pdfrwt>
<pdfrwt beam="1">  1       -4 0.23477839E-02 0.12500070E+03</pdfrwt>
<totfact> 0.79353810E+03</totfact>
</mgrwt>
</event>
<event>
 5    1  0.3398872E-002  0.1249975E+03  0.7818608E-02  0.1235073E+00
         -4   -1    0    0    0  501 -0.00000000000E+00  0.00000000000E+00  0.95244148206E+02  0.95252615016E+02  0.12700000000E+01 0. -1.
          4   -1    0    0  501    0  0.00000000000E+00 -0.00000000000E+00 -0.40991221153E+02  0.41010890158E+02  0.12700000000E+01 0. -1.
         25    2    1    2    0    0  0.00000000000E+00  0.00000000000E+00  0.54252927053E+02  0.13626350517E+03  0.12499745097E+03 0.  0.
    9000005    1    3    3    0    0 -0.20234568172E+02  0.49842845517E+02  0.61794383388E+02  0.81934686285E+02  0.10000000000E+01 0.  0.
    9000005    1    3    3    0    0  0.20234568172E+02 -0.49842845517E+02 -0.75414563349E+01  0.54328818890E+02  0.10000000000E+01 0.  0.
<mgrwt>
<rscale>  0 0.12499745E+03</rscale>
<asrwt>0</asrwt>
<pdfrwt beam="2">  1        4 0.63085061E-02 0.12499745E+03</pdfrwt>
<pdfrwt beam="1">  1       -4 0.14655110E-01 0.12499745E+03</pdfrwt>
<totfact> 0.10212095E+04</totfact>
</mgrwt>
</event>
<event>
 4    1  0.3398872E-002  0.1249321E+03  0.7818608E-02  0.1235175E+00
          4   -1    0    0  501    0  0.00000000000E+00  0.00000000000E+00  0.45467049999E+03  0.45467227369E+03  0.12700000000E+01 0.  1.
         -4   -1    0    0    0  501 -0.00000000000E+00 -0.00000000000E+00 -0.85332717390E+01  0.86272606644E+01  0.12700000000E+01 0.  1.
    9000005    1    1    2    0    0 -0.31026831898E+02  0.44750980818E+02  0.33650557483E+03  0.34088460874E+03  0.10000000000E+01 0.  0.
    9000005    1    1    2    0    0  0.31026831898E+02 -0.44750980818E+02  0.10963165342E+03  0.12241492561E+03  0.10000000000E+01 0.  0.
<mgrwt>
<rscale>  0 0.12493211E+03</rscale>
<asrwt>0</asrwt>
<pdfrwt beam="1">  1        4 0.69956692E-01 0.12493211E+03</pdfrwt>
<pdfrwt beam="2">  1       -4 0.13201770E-02 0.12493211E+03</pdfrwt>
<totfact> 0.58916732E+03</totfact>
</mgrwt>
</event>
<event>
 5    1  0.3398872E-002  0.1249969E+03  0.7818608E-02  0.1235074E+00
         -4   -1    0    0    0  501 -0.00000000000E+00  0.00000000000E+00  0.10160796205E+03  0.10161589862E+03  0.12700000000E+01 0.  1.
          4   -1    0    0  501    0  0.00000000000E+00 -0.00000000000E+00 -0.38422512752E+02  0.38443496019E+02  0.12700000000E+01 0.  1.
         25    2    1    2    0    0  0.00000000000E+00  0.00000000000E+00  0.63185449302E+02  0.14005939464E+03  0.12499693206E+03 0.  0.
    9000005    1    3    3    0    0  0.33854733864E+02 -0.47947030247E+02  0.75606841969E+01  0.59188044908E+02  0.10000000000E+01 0.  0.
    9000005    1    3    3    0    0 -0.33854733864E+02  0.47947030247E+02  0.55624765105E+02  0.80871349732E+02  0.10000000000E+01 0.  0.
<mgrwt>
<rscale>  0 0.12499693E+03</rscale>
<asrwt>0</asrwt>
<pdfrwt beam="2">  1        4 0.59133804E-02 0.12499693E+03</pdfrwt>
<pdfrwt beam="1">  1       -4 0.15634219E-01 0.12499693E+03</pdfrwt>
<totfact> 0.10133055E+04</totfact>
</mgrwt>
</event>
<event>
 5    1  0.3398872E-002  0.1249633E+03  0.7818608E-02  0.1235127E+00
         -4   -1    0    0    0  501 -0.00000000000E+00  0.00000000000E+00  0.21230347975E+01  0.24738990989E+01  0.12700000000E+01 0.  1.
          4   -1    0    0  501    0  0.00000000000E+00 -0.00000000000E+00 -0.16981542853E+04  0.16981547602E+04  0.12700000000E+01 0.  1.
         25    2    1    2    0    0  0.00000000000E+00  0.00000000000E+00 -0.16960312505E+04  0.17006286593E+04  0.12496333119E+03 0.  0.
    9000005    1    3    3    0    0  0.21223856925E+02  0.57521272664E+02 -0.10112158959E+04  0.10130734115E+04  0.10000000000E+01 0.  0.
    9000005    1    3    3    0    0 -0.21223856925E+02 -0.57521272664E+02 -0.68481535465E+03  0.68755524787E+03  0.10000000000E+01 0.  0.
<mgrwt>
<rscale>  0 0.12496333E+03</rscale>
<asrwt>0</asrwt>
<pdfrwt beam="2">  1        4 0.26128053E+00 0.12496333E+03</pdfrwt>
<pdfrwt beam="1">  1       -4 0.35364819E-03 0.12496333E+03</pdfrwt>
<totfact> 0.14309033E+03</totfact>
</mgrwt>
</event>
<event>
 5    1  0.3398872E-002  0.1250001E+03  0.7818608E-02  0.1235069E+00
         -4   -1    0    0    0  501 -0.00000000000E+00  0.00000000000E+00  0.16982939267E+03  0.16983414119E+03  0.12700000000E+01 0. -1.
          4   -1    0    0  501    0  0.00000000000E+00 -0.00000000000E+00 -0.22978450079E+02  0.23013519244E+02  0.12700000000E+01 0. -1.
         25    2    1    2    0    0  0.00000000000E+00  0.00000000000E+00  0.14685094259E+03  0.19284766044E+03  0.12500008318E+03 0.  0.
    9000005    1    3    3    0    0 -0.21953516284E+02  0.53806503505E+02  0.10888118323E+03  0.12342288588E+03  0.10000000000E+01 0.  0.
    9000005    1    3    3    0    0  0.21953516284E+02 -0.53806503505E+02  0.37969759359E+02  0.69424774558E+02  0.10000000000E+01 0.  0.
<mgrwt>
<rscale>  0 0.12500008E+03</rscale>
<asrwt>0</asrwt>
<pdfrwt beam="2">  1        4 0.35382091E-02 0.12500008E+03</pdfrwt>
<pdfrwt beam="1">  1       -4 0.26130661E-01 0.12500008E+03</pdfrwt>
<totfact> 0.91354008E+03</totfact>
</mgrwt>
</event>
<event>
 5    1  0.3398872E-002  0.1249987E+03  0.7818608E-02  0.1235071E+00
         -4   -1    0    0    0  501 -0.00000000000E+00  0.00000000000E+00  0.27299384498E+03  0.27299679905E+03  0.12700000000E+01 0. -1.
          4   -1    0    0  501    0  0.00000000000E+00 -0.00000000000E+00 -0.14277419080E+02  0.14333792087E+02  0.12700000000E+01 0. -1.
         25    2    1    2    0    0  0.00000000000E+00  0.00000000000E+00  0.25871642589E+03  0.28733059114E+03  0.12499871831E+03 0.  0.
    9000005    1    3    3    0    0 -0.35638098134E+02 -0.19927170490E+02  0.23810256494E+03  0.24158020944E+03  0.10000000000E+01 0.  0.
    9000005    1    3    3    0    0  0.35638098134E+02  0.19927170490E+02  0.20613860956E+02  0.45750381702E+02  0.10000000000E+01 0.  0.
<mgrwt>
<rscale>  0 0.12499872E+03</rscale>
<asrwt>0</asrwt>
<pdfrwt beam="2">  1        4 0.22010896E-02 0.12499872E+03</pdfrwt>
<pdfrwt beam="1">  1       -4 0.42003618E-01 0.12499872E+03</pdfrwt>
<totfact> 0.77218252E+03</totfact>
</mgrwt>
</event>
<event>
 5    1  0.3398872E-002  0.1249963E+03  0.7818608E-02  0.1235075E+00
         -4   -1    0    0    0  501 -0.00000000000E+00  0.00000000000E+00  0.22405652084E+03  0.22406012013E+03  0.12700000000E+01 0. -1.
          4   -1    0    0  501    0  0.00000000000E+00 -0.00000000000E+00 -0.17406320601E+02  0.17452589976E+02  0.12700000000E+01 0. -1.
         25    2    1    2    0    0  0.00000000000E+00  0.00000000000E+00  0.20665020024E+03  0.24151271011E+03  0.12499633548E+03 0.  0.
    9000005    1    3    3    0    0  0.41213267725E+02 -0.42261517327E+02  0.63706350937E+02  0.86856596947E+02  0.10000000000E+01 0.  0.
    9000005    1    3    3    0    0 -0.41213267725E+02  0.42261517327E+02  0.14294384931E+03  0.15465611316E+03  0.10000000000E+01 0.  0.
<mgrwt>
<rscale>  0 0.12499634E+03</rscale>
<asrwt>0</asrwt>
<pdfrwt beam="2">  1        4 0.26817316E-02 0.12499634E+03</pdfrwt>
<pdfrwt beam="1">  1       -4 0.34474069E-01 0.12499634E+03</pdfrwt>
<totfact> 0.83579418E+03</totfact>
</mgrwt>
</event>
<event>
 5    1  0.3398872E-002  0.1249996E+03  0.7818608E-02  0.1235070E+00
          4   -1    0    0  501    0  0.00000000000E+00  0.00000000000E+00  0.83151172123E+02  0.83160870158E+02  0.12700000000E+01 0.  1.
         -4   -1    0    0    0  501 -0.00000000000E+00 -0.00000000000E+00 -0.46956394623E+02  0.46973565928E+02  0.12700000000E+01 0.  1.
         25    2    1    2    0    0  0.00000000000E+00  0.00000000000E+00  0.36194777500E+02  0.13013443609E+03  0.12499963815E+03 0.  0.
    9000005    1    3    3    0    0  0.51399179050E+02 -0.33212409702E+02  0.49168407354E+01  0.61401262919E+02  0.10000000000E+01 0.  0.
    9000005    1    3    3    0    0 -0.51399179050E+02  0.33212409702E+02  0.31277936765E+02  0.68733173166E+02  0.10000000000E+01 0.  0.
<mgrwt>
<rscale>  0 0.12499964E+03</rscale>
<asrwt>0</asrwt>
<pdfrwt beam="1">  1        4 0.12794555E-01 0.12499964E+03</pdfrwt>
<pdfrwt beam="2">  1       -4 0.72261277E-02 0.12499964E+03</pdfrwt>
<totfact> 0.10341717E+04</totfact>
</mgrwt>
</event>
<event>
 5    1  0.3398872E-002  0.1249981E+03  0.7818608E-02  0.1235072E+00
         -4   -1    0    0    0  501 -0.00000000000E+00  0.00000000000E+00  0.21954849213E+02  0.21991550741E+02  0.12700000000E+01 0. -1.
          4   -1    0    0  501    0  0.00000000000E+00 -0.00000000000E+00 -0.17772908032E+03  0.17773361779E+03  0.12700000000E+01 0. -1.
         25    2    1    2    0    0  0.00000000000E+00  0.00000000000E+00 -0.15577423111E+03  0.19972516853E+03  0.12499812745E+03 0.  0.
    9000005    1    3    3    0    0  0.76207830892E+00  0.43359105445E+02 -0.14978108938E+03  0.15593578013E+03  0.10000000000E+01 0.  0.
    9000005    1    3    3    0    0 -0.76207830892E+00 -0.43359105445E+02 -0.59931417235E+01  0.43789388396E+02  0.10000000000E+01 0.  0.
<mgrwt>
<rscale>  0 0.12499813E+03</rscale>
<asrwt>0</asrwt>
<pdfrwt beam="2">  1        4 0.27346107E-01 0.12499813E+03</pdfrwt>
<pdfrwt beam="1">  1       -4 0.33808415E-02 0.12499813E+03</pdfrwt>
<totfact> 0.90185659E+03</totfact>
</mgrwt>
</event>
<event>
 5    1  0.3398872E-002  0.1250003E+03  0.7818608E-02  0.1235069E+00
         -4   -1    0    0    0  501 -0.00000000000E+00  0.00000000000E+00  0.32237643282E+02  0.32262649370E+02  0.12700000000E+01 0.  1.
          4   -1    0    0  501    0  0.00000000000E+00 -0.00000000000E+00 -0.12109563601E+03  0.12110229544E+03  0.12700000000E+01 0.  1.
         25    2    1    2    0    0  0.00000000000E+00  0.00000000000E+00 -0.88857992728E+02  0.15336494481E+03  0.12500025370E+03 0.  0.
    9000005    1    3    3    0    0  0.34718788602E+02  0.48259865359E+02 -0.68056532219E+02  0.90372011509E+02  0.10000000000E+01 0.  0.
    9000005    1    3    3    0    0 -0.34718788602E+02 -0.48259865359E+02 -0.20801460509E+02  0.62992933301E+02  0.10000000000E+01 0.  0.
<mgrwt>
<rscale>  0 0.12500025E+03</rscale>
<asrwt>0</asrwt>
<pdfrwt beam="2">  1        4 0.18632533E-01 0.12500025E+03</pdfrwt>
<pdfrwt beam="1">  1       -4 0.49620733E-02 0.12500025E+03</pdfrwt>
<totfact> 0.98636563E+03</totfact>
</mgrwt>
</event>
<event>
 5    1  0.3398872E-002  0.1249963E+03  0.7818608E-02  0.1235075E+00
         -4   -1    0    0    0  501 -0.00000000000E+00  0.00000000000E+00  0.14596137062E+03  0.14596689560E+03  0.12700000000E+01 0. -1.
          4   -1    0    0  501    0  0.00000000000E+00 -0.00000000000E+00 -0.26739526863E+02  0.26769669346E+02  0.12700000000E+01 0. -1.
         25    2    1    2    0    0  0.00000000000E+00  0.00000000000E+00  0.11922184375E+03  0.17273656495E+03  0.12499629132E+03 0.  0.
    9000005    1    3    3    0    0 -0.10834122032E+02 -0.51131815084E+02  0.12277378878E+02  0.53698926862E+02  0.10000000000E+01 0.  0.
    9000005    1    3    3    0    0  0.10834122032E+02  0.51131815084E+02  0.10694446487E+03  0.11903763809E+03  0.10000000000E+01 0.  0.
<mgrwt>
<rscale>  0 0.12499629E+03</rscale>
<asrwt>0</asrwt>
<pdfrwt beam="2">  1        4 0.41165170E-02 0.12499629E+03</pdfrwt>
<pdfrwt beam="1">  1       -4 0.22458339E-01 0.12499629E+03</pdfrwt>
<totfact> 0.94948927E+03</totfact>
</mgrwt>
</event>
<event>
 5    1  0.3398872E-002  0.1250024E+03  0.7818608E-02  0.1235066E+00
          4   -1    0    0  501    0  0.00000000000E+00  0.00000000000E+00  0.14828867743E+04  0.14828873182E+04  0.12700000000E+01 0. -1.
         -4   -1    0    0    0  501 -0.00000000000E+00 -0.00000000000E+00 -0.24806790159E+01  0.27868743029E+01  0.12700000000E+01 0. -1.
         25    2    1    2    0    0  0.00000000000E+00  0.00000000000E+00  0.14804060953E+04  0.14856741925E+04  0.12500239650E+03 0.  0.
    9000005    1    3    3    0    0 -0.27664316259E+02 -0.43310090517E+01  0.76192578464E+02  0.81181161894E+02  0.10000000000E+01 0.  0.
    9000005    1    3    3    0    0  0.27664316259E+02  0.43310090517E+01  0.14042135169E+04  0.14044930306E+04  0.10000000000E+01 0.  0.
<mgrwt>
<rscale>  0 0.12500240E+03</rscale>
<asrwt>0</asrwt>
<pdfrwt beam="1">  1        4 0.22816033E+00 0.12500240E+03</pdfrwt>
<pdfrwt beam="2">  1       -4 0.40523770E-03 0.12500240E+03</pdfrwt>
<totfact> 0.18212685E+03</totfact>
</mgrwt>
</event>
<event>
 5    1  0.3398872E-002  0.1249999E+03  0.7818608E-02  0.1235069E+00
          4   -1    0    0  501    0  0.00000000000E+00  0.00000000000E+00  0.10409201356E+03  0.10409976075E+03  0.12700000000E+01 0.  1.
         -4   -1    0    0    0  501 -0.00000000000E+00 -0.00000000000E+00 -0.37506951910E+02  0.37528447098E+02  0.12700000000E+01 0.  1.
         25    2    1    2    0    0  0.00000000000E+00  0.00000000000E+00  0.66585061652E+02  0.14162820784E+03  0.12499991529E+03 0.  0.
    9000005    1    3    3    0    0  0.14757748297E+02 -0.28428528670E+02  0.94089427644E+02  0.99397146697E+02  0.10000000000E+01 0.  0.
    9000005    1    3    3    0    0 -0.14757748297E+02  0.28428528670E+02 -0.27504365991E+02  0.42231061148E+02  0.10000000000E+01 0.  0.
<mgrwt>
<rscale>  0 0.12499992E+03</rscale>
<asrwt>0</asrwt>
<pdfrwt beam="1">  1        4 0.16016405E-01 0.12499992E+03</pdfrwt>
<pdfrwt beam="2">  1       -4 0.57725497E-02 0.12499992E+03</pdfrwt>
<totfact> 0.10099970E+04</totfact>
</mgrwt>
</event>
<event>
 5    1  0.3398872E-002  0.1250010E+03  0.7818608E-02  0.1235068E+00
          4   -1    0    0  501    0  0.00000000000E+00  0.00000000000E+00  0.24012474909E+03  0.24012810753E+03  0.12700000000E+01 0.  1.
         -4   -1    0    0    0  501 -0.00000000000E+00 -0.00000000000E+00 -0.16239576282E+02  0.16289160133E+02  0.12700000000E+01 0.  1.
         25    2    1    2    0    0  0.00000000000E+00  0.00000000000E+00  0.22388517280E+03  0.25641726766E+03  0.12500097820E+03 0.  0.
    9000005    1    3    3    0    0  0.54842127321E+02 -0.16099320776E+02  0.60110094234E+02  0.82952218098E+02  0.10000000000E+01 0.  0.
    9000005    1    3    3    0    0 -0.54842127321E+02  0.16099320776E+02  0.16377507857E+03  0.17346504956E+03  0.10000000000E+01 0.  0.
<mgrwt>
<rscale>  0 0.12500098E+03</rscale>
<asrwt>0</asrwt>
<pdfrwt beam="1">  1        4 0.36946340E-01 0.12500098E+03</pdfrwt>
<pdfrwt beam="2">  1       -4 0.25024689E-02 0.12500098E+03</pdfrwt>
<totfact> 0.81409717E+03</totfact>
</mgrwt>
</event>
<event>
 5    1  0.3398872E-002  0.1250004E+03  0.7818608E-02  0.1235069E+00
          4   -1    0    0  501    0  0.00000000000E+00  0.00000000000E+00  0.82986159324E+02  0.82995876641E+02  0.12700000000E+01 0. -1.
         -4   -1    0    0    0  501 -0.00000000000E+00 -0.00000000000E+00 -0.47050362133E+02  0.47067499156E+02  0.12700000000E+01 0. -1.
         25    2    1    2    0    0  0.00000000000E+00  0.00000000000E+00  0.35935797191E+02  0.13006337580E+03  0.12500040081E+03 0.  0.
    9000005    1    3    3    0    0  0.57171382079E+02 -0.54984468206E+01 -0.76562911279E+01  0.57951864855E+02  0.10000000000E+01 0.  0.
    9000005    1    3    3    0    0 -0.57171382079E+02  0.54984468206E+01  0.43592088319E+02  0.72111510942E+02  0.10000000000E+01 0.  0.
<mgrwt>
<rscale>  0 0.12500040E+03</rscale>
<asrwt>0</asrwt>
<pdfrwt beam="1">  1        4 0.12769167E-01 0.12500040E+03</pdfrwt>
<pdfrwt beam="2">  1       -4 0.72405830E-02 0.12500040E+03</pdfrwt>
<totfact> 0.10343058E+04</totfact>
</mgrwt>
</event>
<event>
 5    1  0.3398872E-002  0.1249617E+03  0.7818608E-02  0.1235129E+00
          4   -1    0    0  501    0  0.00000000000E+00  0.00000000000E+00  0.10468176630E+03  0.10468946984E+03  0.12700000000E+01 0. -1.
         -4   -1    0    0    0  501 -0.00000000000E+00 -0.00000000000E+00 -0.37272742207E+02  0.37294372386E+02  0.12700000000E+01 0. -1.
         25    2    1    2    0    0  0.00000000000E+00  0.00000000000E+00  0.67409024090E+02  0.14198384222E+03  0.12496173384E+03 0.  0.
    9000005    1    3    3    0    0  0.51414983313E+01 -0.10036615815E+01 -0.37028323397E+02  0.37410413995E+02  0.10000000000E+01 0.  0.
    9000005    1    3    3    0    0 -0.51414983313E+01  0.10036615815E+01  0.10443734749E+03  0.10457342823E+03  0.10000000000E+01 0.  0.
<mgrwt>
<rscale>  0 0.12496173E+03</rscale>
<asrwt>0</asrwt>
<pdfrwt beam="1">  1        4 0.16107144E-01 0.12496173E+03</pdfrwt>
<pdfrwt beam="2">  1       -4 0.57365244E-02 0.12496173E+03</pdfrwt>
<totfact> 0.10101338E+04</totfact>
</mgrwt>
</event>
<event>
 5    1  0.3398872E-002  0.1250016E+03  0.7818608E-02  0.1235067E+00
          4   -1    0    0  501    0  0.00000000000E+00  0.00000000000E+00  0.20974701522E+04  0.20974705366E+04  0.12700000000E+01 0. -1.
         -4   -1    0    0    0  501 -0.00000000000E+00 -0.00000000000E+00 -0.16454738261E+01  0.20785774251E+01  0.12700000000E+01 0. -1.
         25    2    1    2    0    0  0.00000000000E+00  0.00000000000E+00  0.20958246783E+04  0.20995491141E+04  0.12500160034E+03 0.  0.
    9000005    1    3    3    0    0  0.37996525130E+02 -0.26856477624E+02  0.34721901594E+03  0.35032420890E+03  0.10000000000E+01 0.  0.
    9000005    1    3    3    0    0 -0.37996525130E+02  0.26856477624E+02  0.17486056624E+04  0.17492249052E+04  0.10000000000E+01 0.  0.
<mgrwt>
<rscale>  0 0.12500160E+03</rscale>
<asrwt>0</asrwt>
<pdfrwt beam="1">  1        4 0.32272146E+00 0.12500160E+03</pdfrwt>
<pdfrwt beam="2">  1       -4 0.28649471E-03 0.12500160E+03</pdfrwt>
<totfact> 0.86169564E+02</totfact>
</mgrwt>
</event>
<event>
 5    1  0.3398872E-002  0.1250003E+03  0.7818608E-02  0.1235069E+00
         -4   -1    0    0    0  501 -0.00000000000E+00  0.00000000000E+00  0.44866533910E+02  0.44884504733E+02  0.12700000000E+01 0. -1.
          4   -1    0    0  501    0  0.00000000000E+00 -0.00000000000E+00 -0.87024097426E+02  0.87033363906E+02  0.12700000000E+01 0. -1.
         25    2    1    2    0    0  0.00000000000E+00  0.00000000000E+00 -0.42157563516E+02  0.13191786864E+03  0.12500025562E+03 0.  0.
    9000005    1    3    3    0    0  0.27505109806E+02  0.12125498365E+02 -0.78898622121E+02  0.84436670639E+02  0.10000000000E+01 0.  0.
    9000005    1    3    3    0    0 -0.27505109806E+02 -0.12125498365E+02  0.36741058605E+02  0.47481198000E+02  0.10000000000E+01 0.  0.
<mgrwt>
<rscale>  0 0.12500026E+03</rscale>
<asrwt>0</asrwt>
<pdfrwt beam="2">  1        4 0.13390418E-01 0.12500026E+03</pdfrwt>
<pdfrwt beam="1">  1       -4 0.69046389E-02 0.12500026E+03</pdfrwt>
<totfact> 0.10303392E+04</totfact>
</mgrwt>
</event>
<event>
 5    1  0.3398872E-002  0.1249963E+03  0.7818608E-02  0.1235075E+00
          4   -1    0    0  501    0  0.00000000000E+00  0.00000000000E+00  0.50449570818E+03  0.50449730670E+03  0.12700000000E+01 0.  1.
         -4   -1    0    0    0  501 -0.00000000000E+00 -0.00000000000E+00 -0.76887148990E+01  0.77928965602E+01  0.12700000000E+01 0.  1.
         25    2    1    2    0    0  0.00000000000E+00  0.00000000000E+00  0.49680699328E+03  0.51229020326E+03  0.12499625510E+03 0.  0.
    9000005    1    3    3    0    0 -0.23847341238E+02  0.12413183877E+02  0.47960201439E+03  0.48035598781E+03  0.10000000000E+01 0.  0.
    9000005    1    3    3    0    0  0.23847341238E+02 -0.12413183877E+02  0.17204978893E+02  0.31934215457E+02  0.10000000000E+01 0.  0.
<mgrwt>
<rscale>  0 0.12499626E+03</rscale>
<asrwt>0</asrwt>
<pdfrwt beam="1">  1        4 0.77622890E-01 0.12499626E+03</pdfrwt>
<pdfrwt beam="2">  1       -4 0.11910157E-02 0.12499626E+03</pdfrwt>
<totfact> 0.54927756E+03</totfact>
</mgrwt>
</event>
<event>
 4    1  0.3398872E-002  0.1267572E+03  0.7818608E-02  0.1232348E+00
         -4   -1    0    0    0  501 -0.00000000000E+00  0.00000000000E+00  0.41884746234E+02  0.41903995837E+02  0.12700000000E+01 0.  1.
          4   -1    0    0  501    0  0.00000000000E+00 -0.00000000000E+00 -0.95856954176E+02  0.95865366864E+02  0.12700000000E+01 0.  1.
    9000005    1    1    2    0    0  0.34505632621E+02 -0.20029208235E+02  0.26525739394E+02  0.47921004951E+02  0.10000000000E+01 0.  0.
    9000005    1    1    2    0    0 -0.34505632621E+02  0.20029208235E+02 -0.80497947336E+02  0.89848357750E+02  0.10000000000E+01 0.  0.
<mgrwt>
<rscale>  0 0.12675724E+03</rscale>
<asrwt>0</asrwt>
<pdfrwt beam="2">  1        4 0.14749352E-01 0.12675724E+03</pdfrwt>
<pdfrwt beam="1">  1       -4 0.64459350E-02 0.12675724E+03</pdfrwt>
<totfact> 0.97869840E+03</totfact>
</mgrwt>
</event>
<event>
 5    1  0.3398872E-002  0.1250037E+03  0.7818608E-02  0.1235064E+00
          4   -1    0    0  501    0  0.00000000000E+00  0.00000000000E+00  0.37404819893E+03  0.37405035493E+03  0.12700000000E+01 0.  1.
         -4   -1    0    0    0  501 -0.00000000000E+00 -0.00000000000E+00 -0.10402980506E+02  0.10480214855E+02  0.12700000000E+01 0.  1.
         25    2    1    2    0    0  0.00000000000E+00  0.00000000000E+00  0.36364521842E+03  0.38453056978E+03  0.12500365681E+03 0.  0.
    9000005    1    3    3    0    0 -0.51286866183E+02  0.42476722545E+00  0.29166138005E+03  0.29613828473E+03  0.10000000000E+01 0.  0.
    9000005    1    3    3    0    0  0.51286866183E+02 -0.42476722545E+00  0.71983838369E+02  0.88392285050E+02  0.10000000000E+01 0.  0.
<mgrwt>
<rscale>  0 0.12500366E+03</rscale>
<asrwt>0</asrwt>
<pdfrwt beam="1">  1        4 0.57551987E-01 0.12500366E+03</pdfrwt>
<pdfrwt beam="2">  1       -4 0.16065654E-02 0.12500366E+03</pdfrwt>
<totfact> 0.66080316E+03</totfact>
</mgrwt>
</event>
<event>
 5    1  0.3398872E-002  0.1250016E+03  0.7818608E-02  0.1235067E+00
          4   -1    0    0  501    0  0.00000000000E+00  0.00000000000E+00  0.15993723881E+03  0.15994228102E+03  0.12700000000E+01 0. -1.
         -4   -1    0    0    0  501 -0.00000000000E+00 -0.00000000000E+00 -0.24402310596E+02  0.24435336348E+02  0.12700000000E+01 0. -1.
         25    2    1    2    0    0  0.00000000000E+00  0.00000000000E+00  0.13553492821E+03  0.18437761737E+03  0.12500155607E+03 0.  0.
    9000005    1    3    3    0    0 -0.44504598268E+02 -0.14317402382E+02  0.66001906875E+01  0.47225097089E+02  0.10000000000E+01 0.  0.
    9000005    1    3    3    0    0  0.44504598268E+02  0.14317402382E+02  0.12893473752E+03  0.13715252028E+03  0.10000000000E+01 0.  0.
<mgrwt>
<rscale>  0 0.12500156E+03</rscale>
<asrwt>0</asrwt>
<pdfrwt beam="1">  1        4 0.24608658E-01 0.12500156E+03</pdfrwt>
<pdfrwt beam="2">  1       -4 0.37571298E-02 0.12500156E+03</pdfrwt>
<totfact> 0.92831661E+03</totfact>
</mgrwt>
</event>
<event>
 5    1  0.3398872E-002  0.1249950E+03  0.7818608E-02  0.1235077E+00
         -4   -1    0    0    0  501 -0.00000000000E+00  0.00000000000E+00  0.74492458747E+03  0.74492567006E+03  0.12700000000E+01 0. -1.
          4   -1    0    0  501    0  0.00000000000E+00 -0.00000000000E+00 -0.51653980444E+01  0.53192327414E+01  0.12700000000E+01 0. -1.
         25    2    1    2    0    0  0.00000000000E+00  0.00000000000E+00  0.73975918942E+03  0.75024490280E+03  0.12499502327E+03 0.  0.
    9000005    1    3    3    0    0 -0.30524623156E+02 -0.17471970296E+02  0.59854780406E+02  0.69430663992E+02  0.10000000000E+01 0.  0.
    9000005    1    3    3    0    0  0.30524623156E+02  0.17471970296E+02  0.67990440902E+03  0.68081423881E+03  0.10000000000E+01 0.  0.
<mgrwt>
<rscale>  0 0.12499502E+03</rscale>
<asrwt>0</asrwt>
<pdfrwt beam="2">  1        4 0.80659344E-03 0.12499502E+03</pdfrwt>
<pdfrwt beam="1">  1       -4 0.11461569E+00 0.12499502E+03</pdfrwt>
<totfact> 0.40566841E+03</totfact>
</mgrwt>
</event>
<event>
 5    1  0.3398872E-002  0.1249947E+03  0.7818608E-02  0.1235078E+00
         -4   -1    0    0    0  501 -0.00000000000E+00  0.00000000000E+00  0.17649843201E+03  0.17650300111E+03  0.12700000000E+01 0.  1.
          4   -1    0    0  501    0  0.00000000000E+00 -0.00000000000E+00 -0.22106957657E+02  0.22143407074E+02  0.12700000000E+01 0.  1.
         25    2    1    2    0    0  0.00000000000E+00  0.00000000000E+00  0.15439147435E+03  0.19864640818E+03  0.12499467242E+03 0.  0.
    9000005    1    3    3    0    0 -0.92456417517E+01  0.26292045935E+01 -0.20932820958E+02  0.23055966721E+02  0.10000000000E+01 0.  0.
    9000005    1    3    3    0    0  0.92456417517E+01 -0.26292045935E+01  0.17532429531E+03  0.17559044146E+03  0.10000000000E+01 0.  0.
<mgrwt>
<rscale>  0 0.12499467E+03</rscale>
<asrwt>0</asrwt>
<pdfrwt beam="2">  1        4 0.34042257E-02 0.12499467E+03</pdfrwt>
<pdfrwt beam="1">  1       -4 0.27156760E-01 0.12499467E+03</pdfrwt>
<totfact> 0.90375027E+03</totfact>
</mgrwt>
</event>
<event>
 5    1  0.3398872E-002  0.1249976E+03  0.7818608E-02  0.1235073E+00
          4   -1    0    0  501    0  0.00000000000E+00  0.00000000000E+00  0.46732576471E+01  0.48427509782E+01  0.12700000000E+01 0.  1.
         -4   -1    0    0    0  501 -0.00000000000E+00 -0.00000000000E+00 -0.82078298483E+03  0.82078396737E+03  0.12700000000E+01 0.  1.
         25    2    1    2    0    0  0.00000000000E+00  0.00000000000E+00 -0.81610972719E+03  0.82562671835E+03  0.12499756495E+03 0.  0.
    9000005    1    3    3    0    0  0.55509363795E+02  0.10598298129E+02 -0.58423822146E+03  0.58696585318E+03  0.10000000000E+01 0.  0.
    9000005    1    3    3    0    0 -0.55509363795E+02 -0.10598298129E+02 -0.23187150573E+03  0.23866086516E+03  0.10000000000E+01 0.  0.
<mgrwt>
<rscale>  0 0.12499756E+03</rscale>
<asrwt>0</asrwt>
<pdfrwt beam="1">  1        4 0.73207690E-03 0.12499756E+03</pdfrwt>
<pdfrwt beam="2">  1       -4 0.12628731E+00 0.12499756E+03</pdfrwt>
<totfact> 0.37147968E+03</totfact>
</mgrwt>
</event>
<event>
 5    1  0.3398872E-002  0.1249983E+03  0.7818608E-02  0.1235072E+00
          4   -1    0    0  501    0  0.00000000000E+00  0.00000000000E+00  0.22546093579E+02  0.22581834196E+02  0.12700000000E+01 0.  1.
         -4   -1    0    0    0  501 -0.00000000000E+00 -0.00000000000E+00 -0.17307630694E+03  0.17308096638E+03  0.12700000000E+01 0.  1.
         25    2    1    2    0    0  0.00000000000E+00  0.00000000000E+00 -0.15053021336E+03  0.19566280058E+03  0.12499834557E+03 0.  0.
    9000005    1    3    3    0    0  0.20377609630E+02  0.48941812855E+02 -0.12705338110E+03  0.13767392515E+03  0.10000000000E+01 0.  0.
    9000005    1    3    3    0    0 -0.20377609630E+02 -0.48941812855E+02 -0.23476832266E+02  0.57988875424E+02  0.10000000000E+01 0.  0.
<mgrwt>
<rscale>  0 0.12499835E+03</rscale>
<asrwt>0</asrwt>
<pdfrwt beam="1">  1        4 0.34717376E-02 0.12499835E+03</pdfrwt>
<pdfrwt beam="2">  1       -4 0.26630231E-01 0.12499835E+03</pdfrwt>
<totfact> 0.90874601E+03</totfact>
</mgrwt>
</event>
<event>
 5    1  0.3398872E-002  0.1249996E+03  0.7818608E-02  0.1235070E+00
         -4   -1    0    0    0  501 -0.00000000000E+00  0.00000000000E+00  0.35309566258E+03  0.35309794652E+03  0.12700000000E+01 0. -1.
          4   -1    0    0  501    0  0.00000000000E+00 -0.00000000000E+00 -0.11024015561E+02  0.11096928363E+02  0.12700000000E+01 0. -1.
         25    2    1    2    0    0  0.00000000000E+00  0.00000000000E+00  0.34207164702E+03  0.36419487488E+03  0.12499958077E+03 0.  0.
    9000005    1    3    3    0    0  0.61176744007E+02 -0.98546335925E+01  0.14745283064E+03  0.15994700708E+03  0.10000000000E+01 0.  0.
    9000005    1    3    3    0    0 -0.61176744007E+02  0.98546335925E+01  0.19461881638E+03  0.20424786780E+03  0.10000000000E+01 0.  0.
<mgrwt>
<rscale>  0 0.12499958E+03</rscale>
<asrwt>0</asrwt>
<pdfrwt beam="2">  1        4 0.17017867E-02 0.12499958E+03</pdfrwt>
<pdfrwt beam="1">  1       -4 0.54328196E-01 0.12499958E+03</pdfrwt>
<totfact> 0.68191296E+03</totfact>
</mgrwt>
</event>
<event>
 5    1  0.3398872E-002  0.1250019E+03  0.7818608E-02  0.1235066E+00
          4   -1    0    0  501    0  0.00000000000E+00  0.00000000000E+00  0.65101436778E+02  0.65113823191E+02  0.12700000000E+01 0. -1.
         -4   -1    0    0    0  501 -0.00000000000E+00 -0.00000000000E+00 -0.59979480341E+02  0.59992924266E+02  0.12700000000E+01 0. -1.
         25    2    1    2    0    0  0.00000000000E+00  0.00000000000E+00  0.51219564369E+01  0.12510674746E+03  0.12500185527E+03 0.  0.
    9000005    1    3    3    0    0  0.40002367088E+02  0.47291186799E+02 -0.57357447471E+01  0.62213700174E+02  0.10000000000E+01 0.  0.
    9000005    1    3    3    0    0 -0.40002367088E+02 -0.47291186799E+02  0.10857701184E+02  0.62893047283E+02  0.10000000000E+01 0.  0.
<mgrwt>
<rscale>  0 0.12500186E+03</rscale>
<asrwt>0</asrwt>
<pdfrwt beam="1">  1        4 0.10017593E-01 0.12500186E+03</pdfrwt>
<pdfrwt beam="2">  1       -4 0.92295994E-02 0.12500186E+03</pdfrwt>
<totfact> 0.10450106E+04</totfact>
</mgrwt>
</event>
<event>
 5    1  0.3398872E-002  0.1250116E+03  0.7818608E-02  0.1235051E+00
         -4   -1    0    0    0  501 -0.00000000000E+00  0.00000000000E+00  0.56056353605E+02  0.56070738175E+02  0.12700000000E+01 0.  1.
          4   -1    0    0  501    0  0.00000000000E+00 -0.00000000000E+00 -0.69668160374E+02  0.69679735002E+02  0.12700000000E+01 0.  1.
         25    2    1    2    0    0  0.00000000000E+00  0.00000000000E+00 -0.13611806769E+02  0.12575047318E+03  0.12501160034E+03 0.  0.
    9000005    1    3    3    0    0  0.28347883394E+02 -0.55619180309E+02 -0.98033382333E+01  0.63199692655E+02  0.10000000000E+01 0.  0.
    9000005    1    3    3    0    0 -0.28347883394E+02  0.55619180309E+02 -0.38084685361E+01  0.62550780521E+02  0.10000000000E+01 0.  0.
<mgrwt>
<rscale>  0 0.12501160E+03</rscale>
<asrwt>0</asrwt>
<pdfrwt beam="2">  1        4 0.10720175E-01 0.12501160E+03</pdfrwt>
<pdfrwt beam="1">  1       -4 0.86260513E-02 0.12501160E+03</pdfrwt>
<totfact> 0.10433703E+04</totfact>
</mgrwt>
</event>
<event>
 5    1  0.3398872E-002  0.1250005E+03  0.7818608E-02  0.1235068E+00
          4   -1    0    0  501    0  0.00000000000E+00  0.00000000000E+00  0.17326953309E+03  0.17327418733E+03  0.12700000000E+01 0.  1.
         -4   -1    0    0    0  501 -0.00000000000E+00 -0.00000000000E+00 -0.22521704529E+02  0.22557483789E+02  0.12700000000E+01 0.  1.
         25    2    1    2    0    0  0.00000000000E+00  0.00000000000E+00  0.15074782856E+03  0.19583167112E+03  0.12500054240E+03 0.  0.
    9000005    1    3    3    0    0  0.41259863065E+02  0.25953750409E+02  0.13663982011E+03  0.14507726873E+03  0.10000000000E+01 0.  0.
    9000005    1    3    3    0    0 -0.41259863065E+02 -0.25953750409E+02  0.14108008445E+02  0.50754402397E+02  0.10000000000E+01 0.  0.
<mgrwt>
<rscale>  0 0.12500054E+03</rscale>
<asrwt>0</asrwt>
<pdfrwt beam="1">  1        4 0.26659961E-01 0.12500054E+03</pdfrwt>
<pdfrwt beam="2">  1       -4 0.34679879E-02 0.12500054E+03</pdfrwt>
<totfact> 0.90841304E+03</totfact>
</mgrwt>
</event>
<event>
 5    1  0.3398872E-002  0.1250014E+03  0.7818608E-02  0.1235067E+00
         -4   -1    0    0    0  501 -0.00000000000E+00  0.00000000000E+00  0.39219354481E+02  0.39239911645E+02  0.12700000000E+01 0. -1.
          4   -1    0    0  501    0  0.00000000000E+00 -0.00000000000E+00 -0.99551517103E+02  0.99559617604E+02  0.12700000000E+01 0. -1.
         25    2    1    2    0    0  0.00000000000E+00  0.00000000000E+00 -0.60332162622E+02  0.13879952925E+03  0.12500135789E+03 0.  0.
    9000005    1    3    3    0    0 -0.64766742701E+01 -0.54401380689E+02  0.32171223013E+01  0.54889046324E+02  0.10000000000E+01 0.  0.
    9000005    1    3    3    0    0  0.64766742701E+01  0.54401380689E+02 -0.63549284923E+02  0.83910482925E+02  0.10000000000E+01 0.  0.
<mgrwt>
<rscale>  0 0.12500136E+03</rscale>
<asrwt>0</asrwt>
<pdfrwt beam="2">  1        4 0.15317822E-01 0.12500136E+03</pdfrwt>
<pdfrwt beam="1">  1       -4 0.60359513E-02 0.12500136E+03</pdfrwt>
<totfact> 0.10158216E+04</totfact>
</mgrwt>
</event>
<event>
 5    1  0.3398872E-002  0.1250095E+03  0.7818608E-02  0.1235054E+00
         -4   -1    0    0    0  501 -0.00000000000E+00  0.00000000000E+00  0.36499108857E+02  0.36521197233E+02  0.12700000000E+01 0.  1.
          4   -1    0    0  501    0  0.00000000000E+00 -0.00000000000E+00 -0.10698116740E+03  0.10698870538E+03  0.12700000000E+01 0.  1.
         25    2    1    2    0    0  0.00000000000E+00  0.00000000000E+00 -0.70482058545E+02  0.14350990261E+03  0.12500948592E+03 0.  0.
    9000005    1    3    3    0    0  0.53191187726E+02  0.42052286713E+01 -0.72596778604E+02  0.90101490907E+02  0.10000000000E+01 0.  0.
    9000005    1    3    3    0    0 -0.53191187726E+02 -0.42052286713E+01  0.21147200593E+01  0.53408411705E+02  0.10000000000E+01 0.  0.
<mgrwt>
<rscale>  0 0.12500949E+03</rscale>
<asrwt>0</asrwt>
<pdfrwt beam="2">  1        4 0.16460920E-01 0.12500949E+03</pdfrwt>
<pdfrwt beam="1">  1       -4 0.56175265E-02 0.12500949E+03</pdfrwt>
<totfact> 0.10059203E+04</totfact>
</mgrwt>
</event>
<event>
 5    1  0.3398872E-002  0.1250018E+03  0.7818608E-02  0.1235066E+00
         -4   -1    0    0    0  501 -0.00000000000E+00  0.00000000000E+00  0.42673969347E+01  0.44523675273E+01  0.12700000000E+01 0. -1.
          4   -1    0    0  501    0  0.00000000000E+00 -0.00000000000E+00 -0.89579380155E+03  0.89579470181E+03  0.12700000000E+01 0. -1.
         25    2    1    2    0    0  0.00000000000E+00  0.00000000000E+00 -0.89152640461E+03  0.90024706934E+03  0.12500182290E+03 0.  0.
    9000005    1    3    3    0    0  0.21212603226E+01 -0.62154215498E+02 -0.40153310747E+03  0.40632189535E+03  0.10000000000E+01 0.  0.
    9000005    1    3    3    0    0 -0.21212603226E+01  0.62154215498E+02 -0.48999329715E+03  0.49392517399E+03  0.10000000000E+01 0.  0.
<mgrwt>
<rscale>  0 0.12500182E+03</rscale>
<asrwt>0</asrwt>
<pdfrwt beam="2">  1        4 0.13782858E+00 0.12500182E+03</pdfrwt>
<pdfrwt beam="1">  1       -4 0.67082107E-03 0.12500182E+03</pdfrwt>
<totfact> 0.34149134E+03</totfact>
</mgrwt>
</event>
<event>
 5    1  0.3398872E-002  0.1250014E+03  0.7818608E-02  0.1235067E+00
          4   -1    0    0  501    0  0.00000000000E+00  0.00000000000E+00  0.10187783957E+03  0.10188575512E+03  0.12700000000E+01 0. -1.
         -4   -1    0    0    0  501 -0.00000000000E+00 -0.00000000000E+00 -0.38323395495E+02  0.38344433002E+02  0.12700000000E+01 0. -1.
         25    2    1    2    0    0  0.00000000000E+00  0.00000000000E+00  0.63554444080E+02  0.14023018812E+03  0.12500135319E+03 0.  0.
    9000005    1    3    3    0    0 -0.33222143067E+02 -0.16477791521E+02  0.88205419211E+02  0.95689207237E+02  0.10000000000E+01 0.  0.
    9000005    1    3    3    0    0  0.33222143067E+02  0.16477791521E+02 -0.24650975131E+02  0.44540980886E+02  0.10000000000E+01 0.  0.
<mgrwt>
<rscale>  0 0.12500135E+03</rscale>
<asrwt>0</asrwt>
<pdfrwt beam="1">  1        4 0.15675741E-01 0.12500135E+03</pdfrwt>
<pdfrwt beam="2">  1       -4 0.58981341E-02 0.12500135E+03</pdfrwt>
<totfact> 0.10128508E+04</totfact>
</mgrwt>
</event>
<event>
 5    1  0.3398872E-002  0.1250009E+03  0.7818608E-02  0.1235068E+00
          4   -1    0    0  501    0  0.00000000000E+00  0.00000000000E+00  0.43960244612E+02  0.43978585771E+02  0.12700000000E+01 0. -1.
         -4   -1    0    0    0  501 -0.00000000000E+00 -0.00000000000E+00 -0.88818559969E+02  0.88827639252E+02  0.12700000000E+01 0. -1.
         25    2    1    2    0    0  0.00000000000E+00  0.00000000000E+00 -0.44858315357E+02  0.13280622502E+03  0.12500089979E+03 0.  0.
    9000005    1    3    3    0    0 -0.50370493479E+02 -0.57752171623E+01 -0.61244903968E+02  0.79514011399E+02  0.10000000000E+01 0.  0.
    9000005    1    3    3    0    0  0.50370493479E+02  0.57752171623E+01  0.16386588611E+02  0.53292213624E+02  0.10000000000E+01 0.  0.
<mgrwt>
<rscale>  0 0.12500090E+03</rscale>
<asrwt>0</asrwt>
<pdfrwt beam="1">  1        4 0.67652238E-02 0.12500090E+03</pdfrwt>
<pdfrwt beam="2">  1       -4 0.13666503E-01 0.12500090E+03</pdfrwt>
<totfact> 0.10284311E+04</totfact>
</mgrwt>
</event>
<event>
 5    1  0.3398872E-002  0.1249979E+03  0.7818608E-02  0.1235073E+00
          4   -1    0    0  501    0  0.00000000000E+00  0.00000000000E+00  0.43396160232E+03  0.43396346066E+03  0.12700000000E+01 0. -1.
         -4   -1    0    0    0  501 -0.00000000000E+00 -0.00000000000E+00 -0.89543809675E+01  0.90439946103E+01  0.12700000000E+01 0. -1.
         25    2    1    2    0    0  0.00000000000E+00  0.00000000000E+00  0.42500722135E+03  0.44300745527E+03  0.12499786888E+03 0.  0.
    9000005    1    3    3    0    0 -0.51518193641E+02  0.35365869279E+02  0.21426792767E+03  0.22319635708E+03  0.10000000000E+01 0.  0.
    9000005    1    3    3    0    0  0.51518193641E+02 -0.35365869279E+02  0.21073929368E+03  0.21981109819E+03  0.10000000000E+01 0.  0.
<mgrwt>
<rscale>  0 0.12499787E+03</rscale>
<asrwt>0</asrwt>
<pdfrwt beam="1">  1        4 0.66770365E-01 0.12499787E+03</pdfrwt>
<pdfrwt beam="2">  1       -4 0.13846333E-02 0.12499787E+03</pdfrwt>
<totfact> 0.60577222E+03</totfact>
</mgrwt>
</event>
<event>
 5    1  0.3398872E-002  0.1250104E+03  0.7818608E-02  0.1235053E+00
          4   -1    0    0  501    0  0.00000000000E+00  0.00000000000E+00  0.53704300788E+02  0.53719315177E+02  0.12700000000E+01 0. -1.
         -4   -1    0    0    0  501 -0.00000000000E+00 -0.00000000000E+00 -0.72717656009E+02  0.72728745318E+02  0.12700000000E+01 0. -1.
         25    2    1    2    0    0  0.00000000000E+00  0.00000000000E+00 -0.19013355221E+02  0.12644806050E+03  0.12501041687E+03 0.  0.
    9000005    1    3    3    0    0  0.12866842930E+02 -0.74583243629E+01  0.51893290553E+02  0.53991627626E+02  0.10000000000E+01 0.  0.
    9000005    1    3    3    0    0 -0.12866842930E+02  0.74583243629E+01 -0.70906645774E+02  0.72456432870E+02  0.10000000000E+01 0.  0.
<mgrwt>
<rscale>  0 0.12501042E+03</rscale>
<asrwt>0</asrwt>
<pdfrwt beam="1">  1        4 0.82642081E-02 0.12501042E+03</pdfrwt>
<pdfrwt beam="2">  1       -4 0.11189340E-01 0.12501042E+03</pdfrwt>
<totfact> 0.10418711E+04</totfact>
</mgrwt>
</event>
<event>
 5    1  0.3398872E-002  0.1250042E+03  0.7818608E-02  0.1235063E+00
          4   -1    0    0  501    0  0.00000000000E+00  0.00000000000E+00  0.14507336924E+02  0.14562819940E+02  0.12700000000E+01 0.  1.
         -4   -1    0    0    0  501 -0.00000000000E+00 -0.00000000000E+00 -0.26870750541E+03  0.26871050662E+03  0.12700000000E+01 0.  1.
         25    2    1    2    0    0  0.00000000000E+00  0.00000000000E+00 -0.25420016849E+03  0.28327332656E+03  0.12500420744E+03 0.  0.
    9000005    1    3    3    0    0 -0.15955860376E+02  0.21982447004E+02 -0.25464195018E+03  0.25608853986E+03  0.10000000000E+01 0.  0.
    9000005    1    3    3    0    0  0.15955860376E+02 -0.21982447004E+02  0.44178168940E+00  0.27184786696E+02  0.10000000000E+01 0.  0.
<mgrwt>
<rscale>  0 0.12500421E+03</rscale>
<asrwt>0</asrwt>
<pdfrwt beam="1">  1        4 0.22363970E-02 0.12500421E+03</pdfrwt>
<pdfrwt beam="2">  1       -4 0.41344112E-01 0.12500421E+03</pdfrwt>
<totfact> 0.77738811E+03</totfact>
</mgrwt>
</event>
<event>
 5    1  0.3398872E-002  0.1250014E+03  0.7818608E-02  0.1235067E+00
          4   -1    0    0  501    0  0.00000000000E+00  0.00000000000E+00  0.26277571304E+02  0.26308243074E+02  0.12700000000E+01 0.  1.
         -4   -1    0    0    0  501 -0.00000000000E+00 -0.00000000000E+00 -0.14853665058E+03  0.14854207978E+03  0.12700000000E+01 0.  1.
         25    2    1    2    0    0  0.00000000000E+00  0.00000000000E+00 -0.12225907928E+03  0.17485032286E+03  0.12500141174E+03 0.  0.
    9000005    1    3    3    0    0 -0.31629380294E+02  0.30899001583E+02  0.64194016779E+00  0.44233223756E+02  0.10000000000E+01 0.  0.
    9000005    1    3    3    0    0  0.31629380294E+02 -0.30899001583E+02 -0.12290101945E+03  0.13061709910E+03  0.10000000000E+01 0.  0.
<mgrwt>
<rscale>  0 0.12500141E+03</rscale>
<asrwt>0</asrwt>
<pdfrwt beam="1">  1        4 0.40454804E-02 0.12500141E+03</pdfrwt>
<pdfrwt beam="2">  1       -4 0.22854569E-01 0.12500141E+03</pdfrwt>
<totfact> 0.94549266E+03</totfact>
</mgrwt>
</event>
<event>
 5    1  0.3398872E-002  0.1249992E+03  0.7818608E-02  0.1235071E+00
          4   -1    0    0  501    0  0.00000000000E+00  0.00000000000E+00  0.17133696489E+03  0.17134167163E+03  0.12700000000E+01 0. -1.
         -4   -1    0    0    0  501 -0.00000000000E+00 -0.00000000000E+00 -0.22775645833E+02  0.22811026788E+02  0.12700000000E+01 0. -1.
         25    2    1    2    0    0  0.00000000000E+00  0.00000000000E+00  0.14856131906E+03  0.19415269842E+03  0.12499921913E+03 0.  0.
    9000005    1    3    3    0    0  0.35908252077E+02  0.18638945424E+02  0.14825733912E+03  0.15368165621E+03  0.10000000000E+01 0.  0.
    9000005    1    3    3    0    0 -0.35908252077E+02 -0.18638945424E+02  0.30397994146E+00  0.40471042210E+02  0.10000000000E+01 0.  0.
<mgrwt>
<rscale>  0 0.12499922E+03</rscale>
<asrwt>0</asrwt>
<pdfrwt beam="1">  1        4 0.26362617E-01 0.12499922E+03</pdfrwt>
<pdfrwt beam="2">  1       -4 0.35070291E-02 0.12499922E+03</pdfrwt>
<totfact> 0.91131330E+03</totfact>
</mgrwt>
</event>
<event>
 5    1  0.3398872E-002  0.1250072E+03  0.7818608E-02  0.1235058E+00
         -4   -1    0    0    0  501 -0.00000000000E+00  0.00000000000E+00  0.25774270703E+01  0.28733308725E+01  0.12700000000E+01 0.  1.
          4   -1    0    0  501    0  0.00000000000E+00 -0.00000000000E+00 -0.14331568472E+04  0.14331574100E+04  0.12700000000E+01 0.  1.
         25    2    1    2    0    0  0.00000000000E+00  0.00000000000E+00 -0.14305794202E+04  0.14360307408E+04  0.12500724447E+03 0.  0.
    9000005    1    3    3    0    0 -0.28145001565E+02 -0.55464883692E+02 -0.78536240157E+03  0.78782205874E+03  0.10000000000E+01 0.  0.
    9000005    1    3    3    0    0  0.28145001565E+02  0.55464883692E+02 -0.64521701861E+03  0.64820868209E+03  0.10000000000E+01 0.  0.
<mgrwt>
<rscale>  0 0.12500724E+03</rscale>
<asrwt>0</asrwt>
<pdfrwt beam="2">  1        4 0.22050787E+00 0.12500724E+03</pdfrwt>
<pdfrwt beam="1">  1       -4 0.41933350E-03 0.12500724E+03</pdfrwt>
<totfact> 0.19217727E+03</totfact>
</mgrwt>
</event>
<event>
 5    1  0.3398872E-002  0.1250054E+03  0.7818608E-02  0.1235061E+00
         -4   -1    0    0    0  501 -0.00000000000E+00  0.00000000000E+00  0.43741132246E+03  0.43741316614E+03  0.12700000000E+01 0. -1.
          4   -1    0    0  501    0  0.00000000000E+00 -0.00000000000E+00 -0.88841305282E+01  0.89744456788E+01  0.12700000000E+01 0. -1.
         25    2    1    2    0    0  0.00000000000E+00  0.00000000000E+00  0.42852719193E+03  0.44638761182E+03  0.12500538294E+03 0.  0.
    9000005    1    3    3    0    0 -0.21794289869E+02  0.58458152448E+02  0.22725702694E+03  0.23566735657E+03  0.10000000000E+01 0.  0.
    9000005    1    3    3    0    0  0.21794289869E+02 -0.58458152448E+02  0.20127016499E+03  0.21072025525E+03  0.10000000000E+01 0.  0.
<mgrwt>
<rscale>  0 0.12500538E+03</rscale>
<asrwt>0</asrwt>
<pdfrwt beam="2">  1        4 0.13738785E-02 0.12500538E+03</pdfrwt>
<pdfrwt beam="1">  1       -4 0.67301137E-01 0.12500538E+03</pdfrwt>
<totfact> 0.60270869E+03</totfact>
</mgrwt>
</event>
<event>
 5    1  0.3398872E-002  0.1249973E+03  0.7818608E-02  0.1235074E+00
         -4   -1    0    0    0  501 -0.00000000000E+00  0.00000000000E+00  0.22761160076E+02  0.22796563513E+02  0.12700000000E+01 0.  1.
          4   -1    0    0  501    0  0.00000000000E+00 -0.00000000000E+00 -0.17144056237E+03  0.17144526627E+03  0.12700000000E+01 0.  1.
         25    2    1    2    0    0  0.00000000000E+00  0.00000000000E+00 -0.14867940229E+03  0.19424182978E+03  0.12499729505E+03 0.  0.
    9000005    1    3    3    0    0  0.15653229376E+02 -0.33893177026E+02 -0.15221366841E+03  0.15672833786E+03  0.10000000000E+01 0.  0.
    9000005    1    3    3    0    0 -0.15653229376E+02  0.33893177026E+02  0.35342661167E+01  0.37513491916E+02  0.10000000000E+01 0.  0.
<mgrwt>
<rscale>  0 0.12499730E+03</rscale>
<asrwt>0</asrwt>
<pdfrwt beam="2">  1        4 0.26378556E-01 0.12499730E+03</pdfrwt>
<pdfrwt beam="1">  1       -4 0.35048022E-02 0.12499730E+03</pdfrwt>
<totfact> 0.91119963E+03</totfact>
</mgrwt>
</event>
<event>
 5    1  0.3398872E-002  0.1250035E+03  0.7818608E-02  0.1235064E+00
         -4   -1    0    0    0  501 -0.00000000000E+00  0.00000000000E+00  0.19292638063E+02  0.19334393796E+02  0.12700000000E+01 0. -1.
          4   -1    0    0  501    0  0.00000000000E+00 -0.00000000000E+00 -0.20222229520E+03  0.20222628310E+03  0.12700000000E+01 0. -1.
         25    2    1    2    0    0  0.00000000000E+00  0.00000000000E+00 -0.18292965714E+03  0.22156067689E+03  0.12500349629E+03 0.  0.
    9000005    1    3    3    0    0  0.24669959140E+02  0.32519245094E+02 -0.75898322905E+01  0.41529673002E+02  0.10000000000E+01 0.  0.
    9000005    1    3    3    0    0 -0.24669959140E+02 -0.32519245094E+02 -0.17533982485E+03  0.18003100389E+03  0.10000000000E+01 0.  0.
<mgrwt>
<rscale>  0 0.12500350E+03</rscale>
<asrwt>0</asrwt>
<pdfrwt beam="2">  1        4 0.31114640E-01 0.12500350E+03</pdfrwt>
<pdfrwt beam="1">  1       -4 0.29716171E-02 0.12500350E+03</pdfrwt>
<totfact> 0.86615231E+03</totfact>
</mgrwt>
</event>
<event>
 5    1  0.3398872E-002  0.1249997E+03  0.7818608E-02  0.1235070E+00
          4   -1    0    0  501    0  0.00000000000E+00  0.00000000000E+00  0.14506373040E+03  0.14506928958E+03  0.12700000000E+01 0.  1.
         -4   -1    0    0    0  501 -0.00000000000E+00 -0.00000000000E+00 -0.26906654779E+02  0.26936610244E+02  0.12700000000E+01 0.  1.
         25    2    1    2    0    0  0.00000000000E+00  0.00000000000E+00  0.11815707562E+03  0.17200589982E+03  0.12499974021E+03 0.  0.
    9000005    1    3    3    0    0 -0.55537728224E+02  0.18048490122E+02  0.89695157198E+02  0.10703461345E+03  0.10000000000E+01 0.  0.
    9000005    1    3    3    0    0  0.55537728224E+02 -0.18048490122E+02  0.28461918425E+02  0.64971286368E+02  0.10000000000E+01 0.  0.
<mgrwt>
<rscale>  0 0.12499974E+03</rscale>
<asrwt>0</asrwt>
<pdfrwt beam="1">  1        4 0.22320228E-01 0.12499974E+03</pdfrwt>
<pdfrwt beam="2">  1       -4 0.41422173E-02 0.12499974E+03</pdfrwt>
<totfact> 0.95076635E+03</totfact>
</mgrwt>
</event>
<event>
 5    1  0.3398872E-002  0.1250035E+03  0.7818608E-02  0.1235064E+00
         -4   -1    0    0    0  501 -0.00000000000E+00  0.00000000000E+00  0.12193673405E+04  0.12193680019E+04  0.12700000000E+01 0. -1.
          4   -1    0    0  501    0  0.00000000000E+00 -0.00000000000E+00 -0.30771360797E+01  0.33289137046E+01  0.12700000000E+01 0. -1.
         25    2    1    2    0    0  0.00000000000E+00  0.00000000000E+00  0.12162902044E+04  0.12226969156E+04  0.12500354387E+03 0.  0.
    9000005    1    3    3    0    0 -0.13250207337E+02  0.50568525512E+02  0.27318345156E+03  0.27814194573E+03  0.10000000000E+01 0.  0.
    9000005    1    3    3    0    0  0.13250207337E+02 -0.50568525512E+02  0.94310675288E+03  0.94455496987E+03  0.10000000000E+01 0.  0.
<mgrwt>
<rscale>  0 0.12500354E+03</rscale>
<asrwt>0</asrwt>
<pdfrwt beam="2">  1        4 0.49282349E-03 0.12500354E+03</pdfrwt>
<pdfrwt beam="1">  1       -4 0.18761456E+00 0.12500354E+03</pdfrwt>
<totfact> 0.24124383E+03</totfact>
</mgrwt>
</event>
<event>
 5    1  0.3398872E-002  0.1250034E+03  0.7818608E-02  0.1235064E+00
          4   -1    0    0  501    0  0.00000000000E+00  0.00000000000E+00  0.69466094694E+02  0.69477702985E+02  0.12700000000E+01 0.  1.
         -4   -1    0    0    0  501 -0.00000000000E+00 -0.00000000000E+00 -0.56212009833E+02  0.56226354581E+02  0.12700000000E+01 0.  1.
         25    2    1    2    0    0  0.00000000000E+00  0.00000000000E+00  0.13254084861E+02  0.12570405757E+03  0.12500335725E+03 0.  0.
    9000005    1    3    3    0    0 -0.54258250425E+02 -0.31003526006E+02  0.71624427927E+01  0.62908480754E+02  0.10000000000E+01 0.  0.
    9000005    1    3    3    0    0  0.54258250425E+02  0.31003526006E+02  0.60916420683E+01  0.62795576812E+02  0.10000000000E+01 0.  0.
<mgrwt>
<rscale>  0 0.12500336E+03</rscale>
<asrwt>0</asrwt>
<pdfrwt beam="1">  1        4 0.10689088E-01 0.12500336E+03</pdfrwt>
<pdfrwt beam="2">  1       -4 0.86499979E-02 0.12500336E+03</pdfrwt>
<totfact> 0.10436664E+04</totfact>
</mgrwt>
</event>
<event>
 5    1  0.3398872E-002  0.1249941E+03  0.7818608E-02  0.1235078E+00
          4   -1    0    0  501    0  0.00000000000E+00  0.00000000000E+00  0.76576729267E+02  0.76587259810E+02  0.12700000000E+01 0. -1.
         -4   -1    0    0    0  501 -0.00000000000E+00 -0.00000000000E+00 -0.50984195137E+02  0.51000010331E+02  0.12700000000E+01 0. -1.
         25    2    1    2    0    0  0.00000000000E+00  0.00000000000E+00  0.25592534130E+02  0.12758727014E+03  0.12499413466E+03 0.  0.
    9000005    1    3    3    0    0  0.52133666980E+02  0.27754876039E+02 -0.80387339838E+01  0.59614374280E+02  0.10000000000E+01 0.  0.
    9000005    1    3    3    0    0 -0.52133666980E+02 -0.27754876039E+02  0.33631268114E+02  0.67972895861E+02  0.10000000000E+01 0.  0.
<mgrwt>
<rscale>  0 0.12499413E+03</rscale>
<asrwt>0</asrwt>
<pdfrwt beam="1">  1        4 0.11783062E-01 0.12499413E+03</pdfrwt>
<pdfrwt beam="2">  1       -4 0.78457490E-02 0.12499413E+03</pdfrwt>
<totfact> 0.10397788E+04</totfact>
</mgrwt>
</event>
<event>
 4    1  0.3398872E-002  0.1249335E+03  0.7818608E-02  0.1235173E+00
          4   -1    0    0  501    0  0.00000000000E+00  0.00000000000E+00  0.98419877495E+02  0.98428071128E+02  0.12700000000E+01 0.  1.
         -4   -1    0    0    0  501 -0.00000000000E+00 -0.00000000000E+00 -0.39627424467E+02  0.39647770049E+02  0.12700000000E+01 0.  1.
    9000005    1    1    2    0    0 -0.60588604888E+02 -0.15077723357E+01  0.12713868551E+02  0.61934601583E+02  0.10000000000E+01 0.  0.
    9000005    1    1    2    0    0  0.60588604888E+02  0.15077723357E+01  0.46078584477E+02  0.76141239595E+02  0.10000000000E+01 0.  0.
<mgrwt>
<rscale>  0 0.12493352E+03</rscale>
<asrwt>0</asrwt>
<pdfrwt beam="1">  1        4 0.15143715E-01 0.12493352E+03</pdfrwt>
<pdfrwt beam="2">  1       -4 0.60987223E-02 0.12493352E+03</pdfrwt>
<totfact> 0.10188876E+04</totfact>
</mgrwt>
</event>
<event>
 5    1  0.3398872E-002  0.1250004E+03  0.7818608E-02  0.1235069E+00
          4   -1    0    0  501    0  0.00000000000E+00  0.00000000000E+00  0.28297075799E+02  0.28325560874E+02  0.12700000000E+01 0. -1.
         -4   -1    0    0    0  501 -0.00000000000E+00 -0.00000000000E+00 -0.13794434532E+03  0.13795019139E+03  0.12700000000E+01 0. -1.
         25    2    1    2    0    0  0.00000000000E+00  0.00000000000E+00 -0.10964726952E+03  0.16627575227E+03  0.12500040831E+03 0.  0.
    9000005    1    3    3    0    0  0.41547914545E+02  0.45598533545E+02 -0.68113677955E+02  0.91901733330E+02  0.10000000000E+01 0.  0.
    9000005    1    3    3    0    0 -0.41547914545E+02 -0.45598533545E+02 -0.41533591564E+02  0.74374018937E+02  0.10000000000E+01 0.  0.
<mgrwt>
<rscale>  0 0.12500041E+03</rscale>
<asrwt>0</asrwt>
<pdfrwt beam="1">  1        4 0.43560372E-02 0.12500041E+03</pdfrwt>
<pdfrwt beam="2">  1       -4 0.21224847E-01 0.12500041E+03</pdfrwt>
<totfact> 0.96145448E+03</totfact>
</mgrwt>
</event>
<event>
 5    1  0.3398872E-002  0.1250034E+03  0.7818608E-02  0.1235064E+00
          4   -1    0    0  501    0  0.00000000000E+00  0.00000000000E+00  0.81567050097E+02  0.81576936456E+02  0.12700000000E+01 0.  1.
         -4   -1    0    0    0  501 -0.00000000000E+00 -0.00000000000E+00 -0.47871439903E+02  0.47888283101E+02  0.12700000000E+01 0.  1.
         25    2    1    2    0    0  0.00000000000E+00  0.00000000000E+00  0.33695610194E+02  0.12946521956E+03  0.12500339567E+03 0.  0.
    9000005    1    3    3    0    0 -0.23237049106E+02 -0.12352388302E+02  0.75553641066E+02  0.80011840538E+02  0.10000000000E+01 0.  0.
    9000005    1    3    3    0    0  0.23237049106E+02  0.12352388302E+02 -0.41858030872E+02  0.49453379019E+02  0.10000000000E+01 0.  0.
<mgrwt>
<rscale>  0 0.12500340E+03</rscale>
<asrwt>0</asrwt>
<pdfrwt beam="1">  1        4 0.12550833E-01 0.12500340E+03</pdfrwt>
<pdfrwt beam="2">  1       -4 0.73668930E-02 0.12500340E+03</pdfrwt>
<totfact> 0.10355167E+04</totfact>
</mgrwt>
</event>
<event>
 5    1  0.3398872E-002  0.1250013E+03  0.7818608E-02  0.1235067E+00
          4   -1    0    0  501    0  0.00000000000E+00  0.00000000000E+00  0.76685645208E+02  0.76696160796E+02  0.12700000000E+01 0. -1.
         -4   -1    0    0    0  501 -0.00000000000E+00 -0.00000000000E+00 -0.50917587222E+02  0.50933423098E+02  0.12700000000E+01 0. -1.
         25    2    1    2    0    0  0.00000000000E+00  0.00000000000E+00  0.25768057985E+02  0.12762958389E+03  0.12500127148E+03 0.  0.
    9000005    1    3    3    0    0  0.49432949168E+02  0.33117453453E+02  0.32389300020E+02  0.67752851914E+02  0.10000000000E+01 0.  0.
    9000005    1    3    3    0    0 -0.49432949168E+02 -0.33117453453E+02 -0.66212420350E+01  0.59876731981E+02  0.10000000000E+01 0.  0.
<mgrwt>
<rscale>  0 0.12500127E+03</rscale>
<asrwt>0</asrwt>
<pdfrwt beam="1">  1        4 0.11799819E-01 0.12500127E+03</pdfrwt>
<pdfrwt beam="2">  1       -4 0.78355020E-02 0.12500127E+03</pdfrwt>
<totfact> 0.10395197E+04</totfact>
</mgrwt>
</event>
<event>
 5    1  0.3398872E-002  0.1250004E+03  0.7818608E-02  0.1235069E+00
         -4   -1    0    0    0  501 -0.00000000000E+00  0.00000000000E+00  0.48878661909E+02  0.48895158145E+02  0.12700000000E+01 0. -1.
          4   -1    0    0  501    0  0.00000000000E+00 -0.00000000000E+00 -0.79882809964E+02  0.79892904740E+02  0.12700000000E+01 0. -1.
         25    2    1    2    0    0  0.00000000000E+00  0.00000000000E+00 -0.31004148055E+02  0.12878806288E+03  0.12500043178E+03 0.  0.
    9000005    1    3    3    0    0  0.28703601657E+02  0.29722730574E+02  0.32800688245E+02  0.52765733296E+02  0.10000000000E+01 0.  0.
    9000005    1    3    3    0    0 -0.28703601657E+02 -0.29722730574E+02 -0.63804836300E+02  0.76022329589E+02  0.10000000000E+01 0.  0.
<mgrwt>
<rscale>  0 0.12500043E+03</rscale>
<asrwt>0</asrwt>
<pdfrwt beam="2">  1        4 0.12291709E-01 0.12500043E+03</pdfrwt>
<pdfrwt beam="1">  1       -4 0.75218396E-02 0.12500043E+03</pdfrwt>
<totfact> 0.10370402E+04</totfact>
</mgrwt>
</event>
<event>
 5    1  0.3398872E-002  0.1250044E+03  0.7818608E-02  0.1235062E+00
          4   -1    0    0  501    0  0.00000000000E+00  0.00000000000E+00  0.10232339833E+04  0.10232347714E+04  0.12700000000E+01 0.  1.
         -4   -1    0    0    0  501 -0.00000000000E+00 -0.00000000000E+00 -0.37113962096E+01  0.39226727909E+01  0.12700000000E+01 0.  1.
         25    2    1    2    0    0  0.00000000000E+00  0.00000000000E+00  0.10195225871E+04  0.10271574442E+04  0.12500443851E+03 0.  0.
    9000005    1    3    3    0    0  0.25297085411E+02  0.41823549623E+02  0.82973550319E+03  0.83117456475E+03  0.10000000000E+01 0.  0.
    9000005    1    3    3    0    0 -0.25297085411E+02 -0.41823549623E+02  0.18978708390E+03  0.19598287947E+03  0.10000000000E+01 0.  0.
<mgrwt>
<rscale>  0 0.12500444E+03</rscale>
<asrwt>0</asrwt>
<pdfrwt beam="1">  1        4 0.15743669E+00 0.12500444E+03</pdfrwt>
<pdfrwt beam="2">  1       -4 0.58729757E-03 0.12500444E+03</pdfrwt>
<totfact> 0.29716023E+03</totfact>
</mgrwt>
</event>
<event>
 5    1  0.3398872E-002  0.1250020E+03  0.7818608E-02  0.1235066E+00
          4   -1    0    0  501    0  0.00000000000E+00  0.00000000000E+00  0.32601550982E+01  0.34987871134E+01  0.12700000000E+01 0.  1.
         -4   -1    0    0    0  501 -0.00000000000E+00 -0.00000000000E+00 -0.11556749464E+04  0.11556756442E+04  0.12700000000E+01 0.  1.
         25    2    1    2    0    0  0.00000000000E+00  0.00000000000E+00 -0.11524147913E+04  0.11591744314E+04  0.12500204414E+03 0.  0.
    9000005    1    3    3    0    0  0.77396410815E+01 -0.58236761825E+02 -0.37862956271E+03  0.38316154326E+03  0.10000000000E+01 0.  0.
    9000005    1    3    3    0    0 -0.77396410815E+01  0.58236761825E+02 -0.77378522862E+03  0.77601288810E+03  0.10000000000E+01 0.  0.
<mgrwt>
<rscale>  0 0.12500204E+03</rscale>
<asrwt>0</asrwt>
<pdfrwt beam="1">  1        4 0.51997323E-03 0.12500204E+03</pdfrwt>
<pdfrwt beam="2">  1       -4 0.17781424E+00 0.12500204E+03</pdfrwt>
<totfact> 0.25805949E+03</totfact>
</mgrwt>
</event>
<event>
 5    1  0.3398872E-002  0.1250035E+03  0.7818608E-02  0.1235064E+00
          4   -1    0    0  501    0  0.00000000000E+00  0.00000000000E+00  0.46708922187E+02  0.46726184435E+02  0.12700000000E+01 0. -1.
         -4   -1    0    0    0  501 -0.00000000000E+00 -0.00000000000E+00 -0.83596732619E+02  0.83606378970E+02  0.12700000000E+01 0. -1.
         25    2    1    2    0    0  0.00000000000E+00  0.00000000000E+00 -0.36887810432E+02  0.13033256341E+03  0.12500346605E+03 0.  0.
    9000005    1    3    3    0    0 -0.52601554370E+02  0.19491274779E+02 -0.47161418973E+02  0.73294152251E+02  0.10000000000E+01 0.  0.
    9000005    1    3    3    0    0  0.52601554370E+02 -0.19491274779E+02  0.10273608541E+02  0.57038411155E+02  0.10000000000E+01 0.  0.
<mgrwt>
<rscale>  0 0.12500347E+03</rscale>
<asrwt>0</asrwt>
<pdfrwt beam="1">  1        4 0.71880579E-02 0.12500347E+03</pdfrwt>
<pdfrwt beam="2">  1       -4 0.12863106E-01 0.12500347E+03</pdfrwt>
<totfact> 0.10336590E+04</totfact>
</mgrwt>
</event>
<event>
 5    1  0.3398872E-002  0.1249796E+03  0.7818608E-02  0.1235101E+00
         -4   -1    0    0    0  501 -0.00000000000E+00  0.00000000000E+00  0.24452095498E+03  0.24452425304E+03  0.12700000000E+01 0.  1.
          4   -1    0    0  501    0  0.00000000000E+00 -0.00000000000E+00 -0.15941242978E+02  0.15991751865E+02  0.12700000000E+01 0.  1.
         25    2    1    2    0    0  0.00000000000E+00  0.00000000000E+00  0.22857971200E+03  0.26051600491E+03  0.12497961463E+03 0.  0.
    9000005    1    3    3    0    0 -0.54886447630E+02  0.29698702544E+02  0.12069461985E+03  0.13587761525E+03  0.10000000000E+01 0.  0.
    9000005    1    3    3    0    0  0.54886447630E+02 -0.29698702544E+02  0.10788509216E+03  0.12463838965E+03  0.10000000000E+01 0.  0.
<mgrwt>
<rscale>  0 0.12497961E+03</rscale>
<asrwt>0</asrwt>
<pdfrwt beam="2">  1        4 0.24566380E-02 0.12497961E+03</pdfrwt>
<pdfrwt beam="1">  1       -4 0.37622746E-01 0.12497961E+03</pdfrwt>
<totfact> 0.80870391E+03</totfact>
</mgrwt>
</event>
<event>
 5    1  0.3398872E-002  0.1250105E+03  0.7818608E-02  0.1235053E+00
         -4   -1    0    0    0  501 -0.00000000000E+00  0.00000000000E+00  0.27800420652E+02  0.27829414087E+02  0.12700000000E+01 0.  1.
          4   -1    0    0  501    0  0.00000000000E+00 -0.00000000000E+00 -0.14042900908E+03  0.14043475172E+03  0.12700000000E+01 0.  1.
         25    2    1    2    0    0  0.00000000000E+00  0.00000000000E+00 -0.11262858843E+03  0.16826416581E+03  0.12501052181E+03 0.  0.
    9000005    1    3    3    0    0  0.43498035201E+02  0.19525210613E+00  0.40878293473E+01  0.43701573638E+02  0.10000000000E+01 0.  0.
    9000005    1    3    3    0    0 -0.43498035201E+02 -0.19525210613E+00 -0.11671641777E+03  0.12456259217E+03  0.10000000000E+01 0.  0.
<mgrwt>
<rscale>  0 0.12501052E+03</rscale>
<asrwt>0</asrwt>
<pdfrwt beam="2">  1        4 0.21607135E-01 0.12501052E+03</pdfrwt>
<pdfrwt beam="1">  1       -4 0.42796599E-02 0.12501052E+03</pdfrwt>
<totfact> 0.95750132E+03</totfact>
</mgrwt>
</event>
<event>
 5    1  0.3398872E-002  0.1250036E+03  0.7818608E-02  0.1235064E+00
         -4   -1    0    0    0  501 -0.00000000000E+00  0.00000000000E+00  0.83915203066E+01  0.84870791829E+01  0.12700000000E+01 0. -1.
          4   -1    0    0  501    0  0.00000000000E+00 -0.00000000000E+00 -0.46279410710E+03  0.46279584966E+03  0.12700000000E+01 0. -1.
         25    2    1    2    0    0  0.00000000000E+00  0.00000000000E+00 -0.45440258679E+03  0.47128292884E+03  0.12500355250E+03 0.  0.
    9000005    1    3    3    0    0  0.27555137415E+02 -0.55417043251E+02 -0.19452081109E+03  0.20413152678E+03  0.10000000000E+01 0.  0.
    9000005    1    3    3    0    0 -0.27555137415E+02  0.55417043251E+02 -0.25988177570E+03  0.26715140206E+03  0.10000000000E+01 0.  0.
<mgrwt>
<rscale>  0 0.12500355E+03</rscale>
<asrwt>0</asrwt>
<pdfrwt beam="2">  1        4 0.71206558E-01 0.12500355E+03</pdfrwt>
<pdfrwt beam="1">  1       -4 0.12984882E-02 0.12500355E+03</pdfrwt>
<totfact> 0.58158857E+03</totfact>
</mgrwt>
</event>
<event>
 5    1  0.3398872E-002  0.1249937E+03  0.7818608E-02  0.1235079E+00
         -4   -1    0    0    0  501 -0.00000000000E+00  0.00000000000E+00  0.17100215366E+03  0.17100686962E+03  0.12700000000E+01 0.  1.
          4   -1    0    0  501    0  0.00000000000E+00 -0.00000000000E+00 -0.22818273347E+02  0.22853588308E+02  0.12700000000E+01 0.  1.
         25    2    1    2    0    0  0.00000000000E+00  0.00000000000E+00  0.14818388032E+03  0.19386045793E+03  0.12499365889E+03 0.  0.
    9000005    1    3    3    0    0  0.97952368118E+01 -0.31932646911E+02 -0.78190357536E+01  0.34318769253E+02  0.10000000000E+01 0.  0.
    9000005    1    3    3    0    0 -0.97952368118E+01  0.31932646911E+02  0.15600291607E+03  0.15954168868E+03  0.10000000000E+01 0.  0.
<mgrwt>
<rscale>  0 0.12499366E+03</rscale>
<asrwt>0</asrwt>
<pdfrwt beam="2">  1        4 0.35135829E-02 0.12499366E+03</pdfrwt>
<pdfrwt beam="1">  1       -4 0.26311103E-01 0.12499366E+03</pdfrwt>
<totfact> 0.91192860E+03</totfact>
</mgrwt>
</event>
<event>
 5    1  0.3398872E-002  0.1250014E+03  0.7818608E-02  0.1235067E+00
          4   -1    0    0  501    0  0.00000000000E+00  0.00000000000E+00  0.34499795737E+03  0.34500029491E+03  0.12700000000E+01 0. -1.
         -4   -1    0    0    0  501 -0.00000000000E+00 -0.00000000000E+00 -0.11284791904E+02  0.11356030482E+02  0.12700000000E+01 0. -1.
         25    2    1    2    0    0  0.00000000000E+00  0.00000000000E+00  0.33371316547E+03  0.35635632540E+03  0.12500141537E+03 0.  0.
    9000005    1    3    3    0    0 -0.31474444139E+02  0.53851765843E+02  0.15593190525E+03  0.16794764778E+03  0.10000000000E+01 0.  0.
    9000005    1    3    3    0    0  0.31474444139E+02 -0.53851765843E+02  0.17778126021E+03  0.18840867762E+03  0.10000000000E+01 0.  0.
<mgrwt>
<rscale>  0 0.12500142E+03</rscale>
<asrwt>0</asrwt>
<pdfrwt beam="1">  1        4 0.53082258E-01 0.12500142E+03</pdfrwt>
<pdfrwt beam="2">  1       -4 0.17417819E-02 0.12500142E+03</pdfrwt>
<totfact> 0.69028741E+03</totfact>
</mgrwt>
</event>
<event>
 5    1  0.3398872E-002  0.1250010E+03  0.7818608E-02  0.1235068E+00
          4   -1    0    0  501    0  0.00000000000E+00  0.00000000000E+00  0.23571882018E+03  0.23572224140E+03  0.12700000000E+01 0. -1.
         -4   -1    0    0    0  501 -0.00000000000E+00 -0.00000000000E+00 -0.16544033261E+02  0.16592707331E+02  0.12700000000E+01 0. -1.
         25    2    1    2    0    0  0.00000000000E+00  0.00000000000E+00  0.21917478692E+03  0.25231494873E+03  0.12500098451E+03 0.  0.
    9000005    1    3    3    0    0  0.99122988674E+01 -0.56768870287E+02  0.15838148902E+03  0.16854273751E+03  0.10000000000E+01 0.  0.
    9000005    1    3    3    0    0 -0.99122988674E+01  0.56768870287E+02  0.60793297897E+02  0.83772211214E+02  0.10000000000E+01 0.  0.
<mgrwt>
<rscale>  0 0.12500098E+03</rscale>
<asrwt>0</asrwt>
<pdfrwt beam="1">  1        4 0.36268442E-01 0.12500098E+03</pdfrwt>
<pdfrwt beam="2">  1       -4 0.25492431E-02 0.12500098E+03</pdfrwt>
<totfact> 0.81994993E+03</totfact>
</mgrwt>
</event>
<event>
 5    1  0.3398872E-002  0.1250023E+03  0.7818608E-02  0.1235066E+00
         -4   -1    0    0    0  501 -0.00000000000E+00  0.00000000000E+00  0.25894695012E+03  0.25895006444E+03  0.12700000000E+01 0. -1.
          4   -1    0    0  501    0  0.00000000000E+00 -0.00000000000E+00 -0.15055754720E+02  0.15109224010E+02  0.12700000000E+01 0. -1.
         25    2    1    2    0    0  0.00000000000E+00  0.00000000000E+00  0.24389119540E+03  0.27405928845E+03  0.12500231356E+03 0.  0.
    9000005    1    3    3    0    0 -0.99017028417E+01 -0.17713428834E+02  0.25153281129E+03  0.25235206446E+03  0.10000000000E+01 0.  0.
    9000005    1    3    3    0    0  0.99017028417E+01  0.17713428834E+02 -0.76416158922E+01  0.21707223997E+02  0.10000000000E+01 0.  0.
<mgrwt>
<rscale>  0 0.12500231E+03</rscale>
<asrwt>0</asrwt>
<pdfrwt beam="2">  1        4 0.23206227E-02 0.12500231E+03</pdfrwt>
<pdfrwt beam="1">  1       -4 0.39842343E-01 0.12500231E+03</pdfrwt>
<totfact> 0.78968390E+03</totfact>
</mgrwt>
</event>
<event>
 5    1  0.3398872E-002  0.1249976E+03  0.7818608E-02  0.1235073E+00
          4   -1    0    0  501    0  0.00000000000E+00  0.00000000000E+00  0.13659891019E+02  0.13718801793E+02  0.12700000000E+01 0. -1.
         -4   -1    0    0    0  501 -0.00000000000E+00 -0.00000000000E+00 -0.28527816360E+03  0.28528099047E+03  0.12700000000E+01 0. -1.
         25    2    1    2    0    0  0.00000000000E+00  0.00000000000E+00 -0.27161827258E+03  0.29899979227E+03  0.12499755908E+03 0.  0.
    9000005    1    3    3    0    0  0.86263680964E+00 -0.36584404048E+02 -0.14639960785E+02  0.39427036581E+02  0.10000000000E+01 0.  0.
    9000005    1    3    3    0    0 -0.86263680964E+00  0.36584404048E+02 -0.25697831179E+03  0.25957275569E+03  0.10000000000E+01 0.  0.
<mgrwt>
<rscale>  0 0.12499756E+03</rscale>
<asrwt>0</asrwt>
<pdfrwt beam="1">  1        4 0.21062710E-02 0.12499756E+03</pdfrwt>
<pdfrwt beam="2">  1       -4 0.43893693E-01 0.12499756E+03</pdfrwt>
<totfact> 0.75728580E+03</totfact>
</mgrwt>
</event>
<event>
 5    1  0.3398872E-002  0.1250049E+03  0.7818608E-02  0.1235062E+00
         -4   -1    0    0    0  501 -0.00000000000E+00  0.00000000000E+00  0.31832617350E+01  0.34272518544E+01  0.12700000000E+01 0. -1.
          4   -1    0    0  501    0  0.00000000000E+00 -0.00000000000E+00 -0.11816776649E+04  0.11816783474E+04  0.12700000000E+01 0. -1.
         25    2    1    2    0    0  0.00000000000E+00  0.00000000000E+00 -0.11784944032E+04  0.11851055992E+04  0.12500489191E+03 0.  0.
    9000005    1    3    3    0    0  0.68258845213E+01 -0.60039103232E+02 -0.43807328559E+03  0.44222221808E+03  0.10000000000E+01 0.  0.
    9000005    1    3    3    0    0 -0.68258845213E+01  0.60039103232E+02 -0.74042111758E+03  0.74288338114E+03  0.10000000000E+01 0.  0.
<mgrwt>
<rscale>  0 0.12500489E+03</rscale>
<asrwt>0</asrwt>
<pdfrwt beam="2">  1        4 0.18181505E+00 0.12500489E+03</pdfrwt>
<pdfrwt beam="1">  1       -4 0.50855449E-03 0.12500489E+03</pdfrwt>
<totfact> 0.25103350E+03</totfact>
</mgrwt>
</event>
<event>
 5    1  0.3398872E-002  0.1249960E+03  0.7818608E-02  0.1235075E+00
         -4   -1    0    0    0  501 -0.00000000000E+00  0.00000000000E+00  0.29464985158E+03  0.29465258855E+03  0.12700000000E+01 0.  1.
          4   -1    0    0  501    0  0.00000000000E+00 -0.00000000000E+00 -0.13223200507E+02  0.13284048014E+02  0.12700000000E+01 0.  1.
         25    2    1    2    0    0  0.00000000000E+00  0.00000000000E+00  0.28142665108E+03  0.30793663656E+03  0.12499604874E+03 0.  0.
    9000005    1    3    3    0    0 -0.42651454206E+02 -0.45298345387E+02  0.15506062005E+03  0.16708046723E+03  0.10000000000E+01 0.  0.
    9000005    1    3    3    0    0  0.42651454206E+02  0.45298345387E+02  0.12636603103E+03  0.14085616933E+03  0.10000000000E+01 0.  0.
<mgrwt>
<rscale>  0 0.12499605E+03</rscale>
<asrwt>0</asrwt>
<pdfrwt beam="2">  1        4 0.20392298E-02 0.12499605E+03</pdfrwt>
<pdfrwt beam="1">  1       -4 0.45335634E-01 0.12499605E+03</pdfrwt>
<totfact> 0.74620488E+03</totfact>
</mgrwt>
</event>
<event>
 5    1  0.3398872E-002  0.1249990E+03  0.7818608E-02  0.1235071E+00
          4   -1    0    0  501    0  0.00000000000E+00  0.00000000000E+00  0.24159437741E+02  0.24192795043E+02  0.12700000000E+01 0. -1.
         -4   -1    0    0    0  501 -0.00000000000E+00 -0.00000000000E+00 -0.16153624878E+03  0.16154124108E+03  0.12700000000E+01 0. -1.
         25    2    1    2    0    0  0.00000000000E+00  0.00000000000E+00 -0.13737681104E+03  0.18573403612E+03  0.12499897585E+03 0.  0.
    9000005    1    3    3    0    0  0.13071815618E+02 -0.57272617758E+02 -0.10035416467E+03  0.11628836345E+03  0.10000000000E+01 0.  0.
    9000005    1    3    3    0    0 -0.13071815618E+02  0.57272617758E+02 -0.37022646371E+02  0.69445672670E+02  0.10000000000E+01 0.  0.
<mgrwt>
<rscale>  0 0.12499898E+03</rscale>
<asrwt>0</asrwt>
<pdfrwt beam="1">  1        4 0.37197866E-02 0.12499898E+03</pdfrwt>
<pdfrwt beam="2">  1       -4 0.24854680E-01 0.12499898E+03</pdfrwt>
<totfact> 0.92597048E+03</totfact>
</mgrwt>
</event>
<event>
 5    1  0.3398872E-002  0.1250049E+03  0.7818608E-02  0.1235062E+00
          4   -1    0    0  501    0  0.00000000000E+00  0.00000000000E+00  0.12250085447E+03  0.12250743751E+03  0.12700000000E+01 0. -1.
         -4   -1    0    0    0  501 -0.00000000000E+00 -0.00000000000E+00 -0.31869930981E+02  0.31895225359E+02  0.12700000000E+01 0. -1.
         25    2    1    2    0    0  0.00000000000E+00  0.00000000000E+00  0.90630923489E+02  0.15440266287E+03  0.12500487194E+03 0.  0.
    9000005    1    3    3    0    0  0.40795146715E+02  0.15957435035E+02  0.10036970506E+03  0.10951694582E+03  0.10000000000E+01 0.  0.
    9000005    1    3    3    0    0 -0.40795146715E+02 -0.15957435035E+02 -0.97387815720E+01  0.44885717048E+02  0.10000000000E+01 0.  0.
<mgrwt>
<rscale>  0 0.12500487E+03</rscale>
<asrwt>0</asrwt>
<pdfrwt beam="1">  1        4 0.18848737E-01 0.12500487E+03</pdfrwt>
<pdfrwt beam="2">  1       -4 0.49055184E-02 0.12500487E+03</pdfrwt>
<totfact> 0.98422106E+03</totfact>
</mgrwt>
</event>
<event>
 5    1  0.3398872E-002  0.1250021E+03  0.7818608E-02  0.1235066E+00
         -4   -1    0    0    0  501 -0.00000000000E+00  0.00000000000E+00  0.54315319244E+02  0.54330164776E+02  0.12700000000E+01 0.  1.
          4   -1    0    0  501    0  0.00000000000E+00 -0.00000000000E+00 -0.71890180925E+02  0.71901397855E+02  0.12700000000E+01 0.  1.
         25    2    1    2    0    0  0.00000000000E+00  0.00000000000E+00 -0.17574861682E+02  0.12623156263E+03  0.12500212655E+03 0.  0.
    9000005    1    3    3    0    0  0.28662749194E+02 -0.44483559105E+02 -0.42356560750E+02  0.67789515860E+02  0.10000000000E+01 0.  0.
    9000005    1    3    3    0    0 -0.28662749194E+02  0.44483559105E+02  0.24781699068E+02  0.58442046770E+02  0.10000000000E+01 0.  0.
<mgrwt>
<rscale>  0 0.12500213E+03</rscale>
<asrwt>0</asrwt>
<pdfrwt beam="2">  1        4 0.11062033E-01 0.12500213E+03</pdfrwt>
<pdfrwt beam="1">  1       -4 0.83582078E-02 0.12500213E+03</pdfrwt>
<totfact> 0.10425388E+04</totfact>
</mgrwt>
</event>
<event>
 5    1  0.3398872E-002  0.1249988E+03  0.7818608E-02  0.1235071E+00
          4   -1    0    0  501    0  0.00000000000E+00  0.00000000000E+00  0.66198317309E+01  0.67405542906E+01  0.12700000000E+01 0. -1.
         -4   -1    0    0    0  501 -0.00000000000E+00 -0.00000000000E+00 -0.58461831892E+03  0.58461969837E+03  0.12700000000E+01 0. -1.
         25    2    1    2    0    0  0.00000000000E+00  0.00000000000E+00 -0.57799848719E+03  0.59136025266E+03  0.12499878891E+03 0.  0.
    9000005    1    3    3    0    0 -0.31669287098E+02 -0.48258272850E+02 -0.17571652025E+03  0.18495702240E+03  0.10000000000E+01 0.  0.
    9000005    1    3    3    0    0  0.31669287098E+02  0.48258272850E+02 -0.40228196694E+03  0.40640323026E+03  0.10000000000E+01 0.  0.
<mgrwt>
<rscale>  0 0.12499879E+03</rscale>
<asrwt>0</asrwt>
<pdfrwt beam="1">  1        4 0.10278286E-02 0.12499879E+03</pdfrwt>
<pdfrwt beam="2">  1       -4 0.89950632E-01 0.12499879E+03</pdfrwt>
<totfact> 0.49418886E+03</totfact>
</mgrwt>
</event>
<event>
 5    1  0.3398872E-002  0.1249997E+03  0.7818608E-02  0.1235070E+00
          4   -1    0    0  501    0  0.00000000000E+00  0.00000000000E+00  0.25251251367E+02  0.25283168227E+02  0.12700000000E+01 0. -1.
         -4   -1    0    0    0  501 -0.00000000000E+00 -0.00000000000E+00 -0.15456225907E+03  0.15456747662E+03  0.12700000000E+01 0. -1.
         25    2    1    2    0    0  0.00000000000E+00  0.00000000000E+00 -0.12931100770E+03  0.17985064485E+03  0.12499967096E+03 0.  0.
    9000005    1    3    3    0    0 -0.39895748977E+02 -0.28778994272E+02 -0.92038717047E+01  0.50056094056E+02  0.10000000000E+01 0.  0.
    9000005    1    3    3    0    0  0.39895748977E+02  0.28778994272E+02 -0.12010713600E+03  0.12979455079E+03  0.10000000000E+01 0.  0.
<mgrwt>
<rscale>  0 0.12499967E+03</rscale>
<asrwt>0</asrwt>
<pdfrwt beam="1">  1        4 0.38876645E-02 0.12499967E+03</pdfrwt>
<pdfrwt beam="2">  1       -4 0.23781665E-01 0.12499967E+03</pdfrwt>
<totfact> 0.93644586E+03</totfact>
</mgrwt>
</event>
<event>
 5    1  0.3398872E-002  0.1249983E+03  0.7818608E-02  0.1235072E+00
          4   -1    0    0  501    0  0.00000000000E+00  0.00000000000E+00  0.14101995758E+04  0.14102001477E+04  0.12700000000E+01 0. -1.
         -4   -1    0    0    0  501 -0.00000000000E+00 -0.00000000000E+00 -0.26237468668E+01  0.29149524218E+01  0.12700000000E+01 0. -1.
         25    2    1    2    0    0  0.00000000000E+00  0.00000000000E+00  0.14075758289E+04  0.14131151001E+04  0.12499828762E+03 0.  0.
    9000005    1    3    3    0    0 -0.47935165540E+02 -0.35794785794E+02  0.90793648207E+03  0.90990587549E+03  0.10000000000E+01 0.  0.
    9000005    1    3    3    0    0  0.47935165540E+02  0.35794785794E+02  0.49963934687E+03  0.50320922460E+03  0.10000000000E+01 0.  0.
<mgrwt>
<rscale>  0 0.12499829E+03</rscale>
<asrwt>0</asrwt>
<pdfrwt beam="1">  1        4 0.21697584E+00 0.12499829E+03</pdfrwt>
<pdfrwt beam="2">  1       -4 0.42609854E-03 0.12499829E+03</pdfrwt>
<totfact> 0.19702009E+03</totfact>
</mgrwt>
</event>
<event>
 5    1  0.3398872E-002  0.1250022E+03  0.7818608E-02  0.1235066E+00
          4   -1    0    0  501    0  0.00000000000E+00  0.00000000000E+00  0.11784497950E+04  0.11784504794E+04  0.12700000000E+01 0. -1.
         -4   -1    0    0    0  501 -0.00000000000E+00 -0.00000000000E+00 -0.31925000824E+01  0.34358342183E+01  0.12700000000E+01 0. -1.
         25    2    1    2    0    0  0.00000000000E+00  0.00000000000E+00  0.11752572950E+04  0.11818863136E+04  0.12500219558E+03 0.  0.
    9000005    1    3    3    0    0 -0.58810395645E+02 -0.61951064254E+01  0.39656774983E+03  0.40095389035E+03  0.10000000000E+01 0.  0.
    9000005    1    3    3    0    0  0.58810395645E+02  0.61951064254E+01  0.77868954513E+03  0.78093242324E+03  0.10000000000E+01 0.  0.
<mgrwt>
<rscale>  0 0.12500220E+03</rscale>
<asrwt>0</asrwt>
<pdfrwt beam="1">  1        4 0.18131886E+00 0.12500220E+03</pdfrwt>
<pdfrwt beam="2">  1       -4 0.50992416E-03 0.12500220E+03</pdfrwt>
<totfact> 0.25190629E+03</totfact>
</mgrwt>
</event>
<event>
 5    1  0.3398872E-002  0.1250015E+03  0.7818608E-02  0.1235067E+00
          4   -1    0    0  501    0  0.00000000000E+00  0.00000000000E+00  0.32555154975E+03  0.32555402692E+03  0.12700000000E+01 0.  1.
         -4   -1    0    0    0  501 -0.00000000000E+00 -0.00000000000E+00 -0.11963011922E+02  0.12030235004E+02  0.12700000000E+01 0.  1.
         25    2    1    2    0    0  0.00000000000E+00  0.00000000000E+00  0.31358853783E+03  0.33758426193E+03  0.12500145136E+03 0.  0.
    9000005    1    3    3    0    0 -0.54566944697E+02  0.24251920190E+02  0.20656482304E+03  0.21502495949E+03  0.10000000000E+01 0.  0.
    9000005    1    3    3    0    0  0.54566944697E+02 -0.24251920190E+02  0.10702371479E+03  0.12255930244E+03  0.10000000000E+01 0.  0.
<mgrwt>
<rscale>  0 0.12500145E+03</rscale>
<asrwt>0</asrwt>
<pdfrwt beam="1">  1        4 0.50090214E-01 0.12500145E+03</pdfrwt>
<pdfrwt beam="2">  1       -4 0.18458250E-02 0.12500145E+03</pdfrwt>
<totfact> 0.71110102E+03</totfact>
</mgrwt>
</event>
<event>
 5    1  0.3398872E-002  0.1249978E+03  0.7818608E-02  0.1235073E+00
          4   -1    0    0  501    0  0.00000000000E+00  0.00000000000E+00  0.49151607321E+02  0.49168011982E+02  0.12700000000E+01 0.  1.
         -4   -1    0    0    0  501 -0.00000000000E+00 -0.00000000000E+00 -0.79436005490E+02  0.79446157039E+02  0.12700000000E+01 0.  1.
         25    2    1    2    0    0  0.00000000000E+00  0.00000000000E+00 -0.30284398169E+02  0.12861416902E+03  0.12499783878E+03 0.  0.
    9000005    1    3    3    0    0  0.62080700681E+02 -0.70741716728E+01 -0.16200360193E+02  0.64556246578E+02  0.10000000000E+01 0.  0.
    9000005    1    3    3    0    0 -0.62080700681E+02  0.70741716728E+01 -0.14084037976E+02  0.64057922442E+02  0.10000000000E+01 0.  0.
<mgrwt>
<rscale>  0 0.12499784E+03</rscale>
<asrwt>0</asrwt>
<pdfrwt beam="1">  1        4 0.75638285E-02 0.12499784E+03</pdfrwt>
<pdfrwt beam="2">  1       -4 0.12222967E-01 0.12499784E+03</pdfrwt>
<totfact> 0.10374751E+04</totfact>
</mgrwt>
</event>
<event>
 4    1  0.3398872E-002  0.1245222E+03  0.7818608E-02  0.1235818E+00
         -4   -1    0    0    0  501 -0.00000000000E+00  0.00000000000E+00  0.29706020513E+02  0.29733155815E+02  0.12700000000E+01 0.  1.
          4   -1    0    0  501    0  0.00000000000E+00 -0.00000000000E+00 -0.13040385643E+03  0.13041004053E+03  0.12700000000E+01 0.  1.
    9000005    1    1    2    0    0 -0.10451167382E+01  0.62179301744E+02 -0.54006729523E+02  0.82371625382E+02  0.10000000000E+01 0.  0.
    9000005    1    1    2    0    0  0.10451167382E+01 -0.62179301744E+02 -0.46691106394E+02  0.77771570967E+02  0.10000000000E+01 0.  0.
<mgrwt>
<rscale>  0 0.12452224E+03</rscale>
<asrwt>0</asrwt>
<pdfrwt beam="2">  1        4 0.20064694E-01 0.12452224E+03</pdfrwt>
<pdfrwt beam="1">  1       -4 0.45727201E-02 0.12452224E+03</pdfrwt>
<totfact> 0.98367620E+03</totfact>
</mgrwt>
</event>
<event>
 4    1  0.3398872E-002  0.1241223E+03  0.7818608E-02  0.1236447E+00
         -4   -1    0    0    0  501 -0.00000000000E+00  0.00000000000E+00  0.40874319895E+01  0.42801869432E+01  0.12700000000E+01 0.  1.
          4   -1    0    0  501    0  0.00000000000E+00 -0.00000000000E+00 -0.92040001748E+03  0.92040089367E+03  0.12700000000E+01 0.  1.
    9000005    1    1    2    0    0 -0.34551131928E+02 -0.11400352762E+02 -0.83263819093E+03  0.83343332412E+03  0.10000000000E+01 0.  0.
    9000005    1    1    2    0    0  0.34551131928E+02  0.11400352762E+02 -0.83674394559E+02  0.91247756495E+02  0.10000000000E+01 0.  0.
<mgrwt>
<rscale>  0 0.12412230E+03</rscale>
<asrwt>0</asrwt>
<pdfrwt beam="2">  1        4 0.14161474E+00 0.12412230E+03</pdfrwt>
<pdfrwt beam="1">  1       -4 0.64373113E-03 0.12412230E+03</pdfrwt>
<totfact> 0.33876951E+03</totfact>
</mgrwt>
</event>
<event>
 5    1  0.3398872E-002  0.1249981E+03  0.7818608E-02  0.1235072E+00
          4   -1    0    0  501    0  0.00000000000E+00  0.00000000000E+00  0.40314460631E+03  0.40314660670E+03  0.12700000000E+01 0.  1.
         -4   -1    0    0    0  501 -0.00000000000E+00 -0.00000000000E+00 -0.96455106970E+01  0.97287602810E+01  0.12700000000E+01 0.  1.
         25    2    1    2    0    0  0.00000000000E+00  0.00000000000E+00  0.39349909561E+03  0.41287536698E+03  0.12499812164E+03 0.  0.
    9000005    1    3    3    0    0  0.45057659661E+02 -0.64424813742E+01  0.33818170546E+03  0.34123241957E+03  0.10000000000E+01 0.  0.
    9000005    1    3    3    0    0 -0.45057659661E+02  0.64424813742E+01  0.55317390153E+02  0.71642947411E+02  0.10000000000E+01 0.  0.
<mgrwt>
<rscale>  0 0.12499812E+03</rscale>
<asrwt>0</asrwt>
<pdfrwt beam="1">  1        4 0.62028801E-01 0.12499812E+03</pdfrwt>
<pdfrwt beam="2">  1       -4 0.14904825E-02 0.12499812E+03</pdfrwt>
<totfact> 0.63322143E+03</totfact>
</mgrwt>
</event>
<event>
 5    1  0.3398872E-002  0.1250005E+03  0.7818608E-02  0.1235068E+00
          4   -1    0    0  501    0  0.00000000000E+00  0.00000000000E+00  0.16694165776E+03  0.16694648842E+03  0.12700000000E+01 0.  1.
         -4   -1    0    0    0  501 -0.00000000000E+00 -0.00000000000E+00 -0.23376676360E+02  0.23411149003E+02  0.12700000000E+01 0.  1.
         25    2    1    2    0    0  0.00000000000E+00  0.00000000000E+00  0.14356498140E+03  0.19035763742E+03  0.12500050496E+03 0.  0.
    9000005    1    3    3    0    0  0.15069671528E+02  0.16808382398E+02  0.16052280194E+03  0.16210548004E+03  0.10000000000E+01 0.  0.
    9000005    1    3    3    0    0 -0.15069671528E+02 -0.16808382398E+02 -0.16957820541E+02  0.28252157374E+02  0.10000000000E+01 0.  0.
<mgrwt>
<rscale>  0 0.12500050E+03</rscale>
<asrwt>0</asrwt>
<pdfrwt beam="1">  1        4 0.25686355E-01 0.12500050E+03</pdfrwt>
<pdfrwt beam="2">  1       -4 0.35994351E-02 0.12500050E+03</pdfrwt>
<totfact> 0.91784085E+03</totfact>
</mgrwt>
</event>
<event>
 5    1  0.3398872E-002  0.1250071E+03  0.7818608E-02  0.1235058E+00
         -4   -1    0    0    0  501 -0.00000000000E+00  0.00000000000E+00  0.30074418194E+03  0.30074686344E+03  0.12700000000E+01 0.  1.
          4   -1    0    0  501    0  0.00000000000E+00 -0.00000000000E+00 -0.12956297533E+02  0.13018392595E+02  0.12700000000E+01 0.  1.
         25    2    1    2    0    0  0.00000000000E+00  0.00000000000E+00  0.28778788441E+03  0.31376525604E+03  0.12500707774E+03 0.  0.
    9000005    1    3    3    0    0 -0.57143878601E+02 -0.21788365305E+02  0.17618760645E+03  0.18650262301E+03  0.10000000000E+01 0.  0.
    9000005    1    3    3    0    0  0.57143878601E+02  0.21788365305E+02  0.11160027796E+03  0.12726263303E+03  0.10000000000E+01 0.  0.
<mgrwt>
<rscale>  0 0.12500708E+03</rscale>
<asrwt>0</asrwt>
<pdfrwt beam="2">  1        4 0.19982596E-02 0.12500708E+03</pdfrwt>
<pdfrwt beam="1">  1       -4 0.46273313E-01 0.12500708E+03</pdfrwt>
<totfact> 0.73892257E+03</totfact>
</mgrwt>
</event>
<event>
 5    1  0.3398872E-002  0.1249976E+03  0.7818608E-02  0.1235073E+00
          4   -1    0    0  501    0  0.00000000000E+00  0.00000000000E+00  0.15085569350E+03  0.15086103924E+03  0.12700000000E+01 0. -1.
         -4   -1    0    0    0  501 -0.00000000000E+00 -0.00000000000E+00 -0.25871557517E+02  0.25902710058E+02  0.12700000000E+01 0. -1.
         25    2    1    2    0    0  0.00000000000E+00  0.00000000000E+00  0.12498413598E+03  0.17676374930E+03  0.12499755525E+03 0.  0.
    9000005    1    3    3    0    0 -0.30148354527E+02  0.52063634848E+02  0.38595574679E+02  0.71485409275E+02  0.10000000000E+01 0.  0.
    9000005    1    3    3    0    0  0.30148354527E+02 -0.52063634848E+02  0.86388561299E+02  0.10527834002E+03  0.10000000000E+01 0.  0.
<mgrwt>
<rscale>  0 0.12499756E+03</rscale>
<asrwt>0</asrwt>
<pdfrwt beam="1">  1        4 0.23211376E-01 0.12499756E+03</pdfrwt>
<pdfrwt beam="2">  1       -4 0.39830472E-02 0.12499756E+03</pdfrwt>
<totfact> 0.94207969E+03</totfact>
</mgrwt>
</event>
<event>
 5    1  0.3398872E-002  0.1250024E+03  0.7818608E-02  0.1235066E+00
         -4   -1    0    0    0  501 -0.00000000000E+00  0.00000000000E+00  0.31814361744E+02  0.31839700268E+02  0.12700000000E+01 0.  1.
          4   -1    0    0  501    0  0.00000000000E+00 -0.00000000000E+00 -0.12270982679E+03  0.12271639863E+03  0.12700000000E+01 0.  1.
         25    2    1    2    0    0  0.00000000000E+00  0.00000000000E+00 -0.90895465050E+02  0.15455609889E+03  0.12500240853E+03 0.  0.
    9000005    1    3    3    0    0  0.34114573990E+02  0.48648428956E+02 -0.21506804998E+02  0.63198231460E+02  0.10000000000E+01 0.  0.
    9000005    1    3    3    0    0 -0.34114573990E+02 -0.48648428956E+02 -0.69388660052E+02  0.91357867435E+02  0.10000000000E+01 0.  0.
<mgrwt>
<rscale>  0 0.12500241E+03</rscale>
<asrwt>0</asrwt>
<pdfrwt beam="2">  1        4 0.18880889E-01 0.12500241E+03</pdfrwt>
<pdfrwt beam="1">  1       -4 0.48969719E-02 0.12500241E+03</pdfrwt>
<totfact> 0.98397382E+03</totfact>
</mgrwt>
</event>
<event>
 5    1  0.3398872E-002  0.1249999E+03  0.7818608E-02  0.1235069E+00
         -4   -1    0    0    0  501 -0.00000000000E+00  0.00000000000E+00  0.34524632180E+03  0.34524865767E+03  0.12700000000E+01 0. -1.
          4   -1    0    0  501    0  0.00000000000E+00 -0.00000000000E+00 -0.11276350187E+02  0.11347641761E+02  0.12700000000E+01 0. -1.
         25    2    1    2    0    0  0.00000000000E+00  0.00000000000E+00  0.33396997162E+03  0.35659629943E+03  0.12499991529E+03 0.  0.
    9000005    1    3    3    0    0  0.13567208934E+02  0.51981621509E+02  0.25805442307E+03  0.26358915645E+03  0.10000000000E+01 0.  0.
    9000005    1    3    3    0    0 -0.13567208934E+02 -0.51981621509E+02  0.75915548545E+02  0.93007142972E+02  0.10000000000E+01 0.  0.
<mgrwt>
<rscale>  0 0.12499992E+03</rscale>
<asrwt>0</asrwt>
<pdfrwt beam="2">  1        4 0.17404864E-02 0.12499992E+03</pdfrwt>
<pdfrwt beam="1">  1       -4 0.53120495E-01 0.12499992E+03</pdfrwt>
<totfact> 0.69005046E+03</totfact>
</mgrwt>
</event>
<event>
 5    1  0.3398872E-002  0.1250014E+03  0.7818608E-02  0.1235067E+00
         -4   -1    0    0    0  501 -0.00000000000E+00  0.00000000000E+00  0.10689244900E+02  0.10764425509E+02  0.12700000000E+01 0.  1.
          4   -1    0    0  501    0  0.00000000000E+00 -0.00000000000E+00 -0.36408862789E+03  0.36409084287E+03  0.12700000000E+01 0.  1.
         25    2    1    2    0    0  0.00000000000E+00  0.00000000000E+00 -0.35339938299E+03  0.37485526838E+03  0.12500139331E+03 0.  0.
    9000005    1    3    3    0    0  0.55139594635E+02 -0.23800088724E+02 -0.12488725689E+03  0.13858082859E+03  0.10000000000E+01 0.  0.
    9000005    1    3    3    0    0 -0.55139594635E+02  0.23800088724E+02 -0.22851212610E+03  0.23627443979E+03  0.10000000000E+01 0.  0.
<mgrwt>
<rscale>  0 0.12500139E+03</rscale>
<asrwt>0</asrwt>
<pdfrwt beam="2">  1        4 0.56019579E-01 0.12500139E+03</pdfrwt>
<pdfrwt beam="1">  1       -4 0.16504530E-02 0.12500139E+03</pdfrwt>
<totfact> 0.67071965E+03</totfact>
</mgrwt>
</event>
<event>
 4    1  0.3398872E-002  0.1249362E+03  0.7818608E-02  0.1235169E+00
         -4   -1    0    0    0  501 -0.00000000000E+00  0.00000000000E+00  0.24100014998E+03  0.24100349622E+03  0.12700000000E+01 0. -1.
          4   -1    0    0  501    0  0.00000000000E+00 -0.00000000000E+00 -0.16163580677E+02  0.16213396939E+02  0.12700000000E+01 0. -1.
    9000005    1    1    2    0    0  0.45870705925E+02 -0.10725834562E+01  0.25168731190E+02  0.52342498288E+02  0.10000000000E+01 0.  0.
    9000005    1    1    2    0    0 -0.45870705925E+02  0.10725834562E+01  0.19966783811E+03  0.20487439487E+03  0.10000000000E+01 0.  0.
<mgrwt>
<rscale>  0 0.12493617E+03</rscale>
<asrwt>0</asrwt>
<pdfrwt beam="2">  1        4 0.24907941E-02 0.12493617E+03</pdfrwt>
<pdfrwt beam="1">  1       -4 0.37081036E-01 0.12493617E+03</pdfrwt>
<totfact> 0.81413861E+03</totfact>
</mgrwt>
</event>
<event>
 5    1  0.3398872E-002  0.1250048E+03  0.7818608E-02  0.1235062E+00
         -4   -1    0    0    0  501 -0.00000000000E+00  0.00000000000E+00  0.37574706596E+01  0.39662937054E+01  0.12700000000E+01 0.  1.
          4   -1    0    0  501    0  0.00000000000E+00 -0.00000000000E+00 -0.10113571969E+04  0.10113579943E+04  0.12700000000E+01 0.  1.
         25    2    1    2    0    0  0.00000000000E+00  0.00000000000E+00 -0.10075997262E+04  0.10153242880E+04  0.12500480583E+03 0.  0.
    9000005    1    3    3    0    0 -0.48838893771E+02 -0.24675132929E+02 -0.74901351351E+03  0.75101021508E+03  0.10000000000E+01 0.  0.
    9000005    1    3    3    0    0  0.48838893771E+02  0.24675132929E+02 -0.25858621270E+03  0.26431407289E+03  0.10000000000E+01 0.  0.
<mgrwt>
<rscale>  0 0.12500481E+03</rscale>
<asrwt>0</asrwt>
<pdfrwt beam="2">  1        4 0.15560933E+00 0.12500481E+03</pdfrwt>
<pdfrwt beam="1">  1       -4 0.59419787E-03 0.12500481E+03</pdfrwt>
<totfact> 0.30099514E+03</totfact>
</mgrwt>
</event>
<event>
 5    1  0.3398872E-002  0.1249969E+03  0.7818608E-02  0.1235074E+00
          4   -1    0    0  501    0  0.00000000000E+00  0.00000000000E+00  0.12730881010E+03  0.12731514454E+03  0.12700000000E+01 0. -1.
         -4   -1    0    0    0  501 -0.00000000000E+00 -0.00000000000E+00 -0.30661487920E+02  0.30687778372E+02  0.12700000000E+01 0. -1.
         25    2    1    2    0    0  0.00000000000E+00  0.00000000000E+00  0.96647322185E+02  0.15800292292E+03  0.12499687502E+03 0.  0.
    9000005    1    3    3    0    0  0.27083742987E+02 -0.46403548785E+02  0.79879018975E+01  0.54328860202E+02  0.10000000000E+01 0.  0.
    9000005    1    3    3    0    0 -0.27083742987E+02  0.46403548785E+02  0.88659420287E+02  0.10367406271E+03  0.10000000000E+01 0.  0.
<mgrwt>
<rscale>  0 0.12499688E+03</rscale>
<asrwt>0</asrwt>
<pdfrwt beam="1">  1        4 0.19588480E-01 0.12499688E+03</pdfrwt>
<pdfrwt beam="2">  1       -4 0.47196616E-02 0.12499688E+03</pdfrwt>
<totfact> 0.97736059E+03</totfact>
</mgrwt>
</event>
<event>
 5    1  0.3398872E-002  0.1250024E+03  0.7818608E-02  0.1235066E+00
          4   -1    0    0  501    0  0.00000000000E+00  0.00000000000E+00  0.53690130904E+02  0.53705149254E+02  0.12700000000E+01 0.  1.
         -4   -1    0    0    0  501 -0.00000000000E+00 -0.00000000000E+00 -0.72727533408E+02  0.72738621210E+02  0.12700000000E+01 0.  1.
         25    2    1    2    0    0  0.00000000000E+00  0.00000000000E+00 -0.19037402504E+02  0.12644377046E+03  0.12500241756E+03 0.  0.
    9000005    1    3    3    0    0 -0.52156144338E+02  0.94973265843E+01  0.23952699491E+02  0.58182423612E+02  0.10000000000E+01 0.  0.
    9000005    1    3    3    0    0  0.52156144338E+02 -0.94973265843E+01 -0.42990101996E+02  0.68261346852E+02  0.10000000000E+01 0.  0.
<mgrwt>
<rscale>  0 0.12500242E+03</rscale>
<asrwt>0</asrwt>
<pdfrwt beam="1">  1        4 0.82620282E-02 0.12500242E+03</pdfrwt>
<pdfrwt beam="2">  1       -4 0.11190860E-01 0.12500242E+03</pdfrwt>
<totfact> 0.10420686E+04</totfact>
</mgrwt>
</event>
<event>
 5    1  0.3398872E-002  0.1249915E+03  0.7818608E-02  0.1235083E+00
         -4   -1    0    0    0  501 -0.00000000000E+00  0.00000000000E+00  0.11294425719E+02  0.11365603914E+02  0.12700000000E+01 0. -1.
          4   -1    0    0  501    0  0.00000000000E+00 -0.00000000000E+00 -0.34465068712E+03  0.34465302702E+03  0.12700000000E+01 0. -1.
         25    2    1    2    0    0  0.00000000000E+00  0.00000000000E+00 -0.33335626140E+03  0.35601863093E+03  0.12499147393E+03 0.  0.
    9000005    1    3    3    0    0  0.17873185179E+02  0.19498460294E+02 -0.32793251524E+03  0.32899905053E+03  0.10000000000E+01 0.  0.
    9000005    1    3    3    0    0 -0.17873185179E+02 -0.19498460294E+02 -0.54237461617E+01  0.27019580395E+02  0.10000000000E+01 0.  0.
<mgrwt>
<rscale>  0 0.12499147E+03</rscale>
<asrwt>0</asrwt>
<pdfrwt beam="2">  1        4 0.53028830E-01 0.12499147E+03</pdfrwt>
<pdfrwt beam="1">  1       -4 0.17432595E-02 0.12499147E+03</pdfrwt>
<totfact> 0.69080502E+03</totfact>
</mgrwt>
</event>
<event>
 4    1  0.3398872E-002  0.1249154E+03  0.7818608E-02  0.1235202E+00
          4   -1    0    0  501    0  0.00000000000E+00  0.00000000000E+00  0.95535689623E+03  0.95535774037E+03  0.12700000000E+01 0. -1.
         -4   -1    0    0    0  501 -0.00000000000E+00 -0.00000000000E+00 -0.39836376883E+01  0.41811803635E+01  0.12700000000E+01 0. -1.
    9000005    1    1    2    0    0  0.45157936097E+02  0.11759058834E+02  0.79448785782E+03  0.79585769512E+03  0.10000000000E+01 0.  0.
    9000005    1    1    2    0    0 -0.45157936097E+02 -0.11759058834E+02  0.15688540073E+03  0.16368122561E+03  0.10000000000E+01 0.  0.
<mgrwt>
<rscale>  0 0.12491542E+03</rscale>
<asrwt>0</asrwt>
<pdfrwt beam="1">  1        4 0.14699334E+00 0.12491542E+03</pdfrwt>
<pdfrwt beam="2">  1       -4 0.62812744E-03 0.12491542E+03</pdfrwt>
<totfact> 0.32038760E+03</totfact>
</mgrwt>
</event>
<event>
 5    1  0.3398872E-002  0.1249725E+03  0.7818608E-02  0.1235112E+00
         -4   -1    0    0    0  501 -0.00000000000E+00  0.00000000000E+00  0.16281952320E+02  0.16331407513E+02  0.12700000000E+01 0.  1.
          4   -1    0    0  501    0  0.00000000000E+00 -0.00000000000E+00 -0.23939270888E+03  0.23939607759E+03  0.12700000000E+01 0.  1.
         25    2    1    2    0    0  0.00000000000E+00  0.00000000000E+00 -0.22311075656E+03  0.25572748510E+03  0.12497254476E+03 0.  0.
    9000005    1    3    3    0    0 -0.59856261396E+02  0.17826879959E+02 -0.11507862312E+03  0.13093761559E+03  0.10000000000E+01 0.  0.
    9000005    1    3    3    0    0  0.59856261396E+02 -0.17826879959E+02 -0.10803213345E+03  0.12478986952E+03  0.10000000000E+01 0.  0.
<mgrwt>
<rscale>  0 0.12497254E+03</rscale>
<asrwt>0</asrwt>
<pdfrwt beam="2">  1        4 0.36833708E-01 0.12497254E+03</pdfrwt>
<pdfrwt beam="1">  1       -4 0.25089793E-02 0.12497254E+03</pdfrwt>
<totfact> 0.81559263E+03</totfact>
</mgrwt>
</event>
<event>
 5    1  0.3398872E-002  0.1249962E+03  0.7818608E-02  0.1235075E+00
          4   -1    0    0  501    0  0.00000000000E+00  0.00000000000E+00  0.73626228719E+01  0.74713529936E+01  0.12700000000E+01 0.  1.
         -4   -1    0    0    0  501 -0.00000000000E+00 -0.00000000000E+00 -0.52652144381E+03  0.52652297547E+03  0.12700000000E+01 0.  1.
         25    2    1    2    0    0  0.00000000000E+00  0.00000000000E+00 -0.51915882094E+03  0.53399432846E+03  0.12499624581E+03 0.  0.
    9000005    1    3    3    0    0  0.59557628995E+02  0.17283624222E+02 -0.29244406692E+03  0.29894877005E+03  0.10000000000E+01 0.  0.
    9000005    1    3    3    0    0 -0.59557628995E+02 -0.17283624222E+02 -0.22671475403E+03  0.23504555842E+03  0.10000000000E+01 0.  0.
<mgrwt>
<rscale>  0 0.12499625E+03</rscale>
<asrwt>0</asrwt>
<pdfrwt beam="1">  1        4 0.11411933E-02 0.12499625E+03</pdfrwt>
<pdfrwt beam="2">  1       -4 0.81011751E-01 0.12499625E+03</pdfrwt>
<totfact> 0.53324445E+03</totfact>
</mgrwt>
</event>
<event>
 5    1  0.3398872E-002  0.1249992E+03  0.7818608E-02  0.1235071E+00
          4   -1    0    0  501    0  0.00000000000E+00  0.00000000000E+00  0.30209937672E+02  0.30236620746E+02  0.12700000000E+01 0. -1.
         -4   -1    0    0    0  501 -0.00000000000E+00 -0.00000000000E+00 -0.12921485221E+03  0.12922109322E+03  0.12700000000E+01 0. -1.
         25    2    1    2    0    0  0.00000000000E+00  0.00000000000E+00 -0.99004914542E+02  0.15945771396E+03  0.12499915775E+03 0.  0.
    9000005    1    3    3    0    0 -0.57769961006E+02 -0.18394761553E+02 -0.30178611520E+02  0.67730969582E+02  0.10000000000E+01 0.  0.
    9000005    1    3    3    0    0  0.57769961006E+02  0.18394761553E+02 -0.68826303022E+02  0.91726744382E+02  0.10000000000E+01 0.  0.
<mgrwt>
<rscale>  0 0.12499916E+03</rscale>
<asrwt>0</asrwt>
<pdfrwt beam="1">  1        4 0.46502154E-02 0.12499916E+03</pdfrwt>
<pdfrwt beam="2">  1       -4 0.19881740E-01 0.12499916E+03</pdfrwt>
<totfact> 0.97449280E+03</totfact>
</mgrwt>
</event>
<event>
 5    1  0.3398872E-002  0.1249961E+03  0.7818608E-02  0.1235075E+00
         -4   -1    0    0    0  501 -0.00000000000E+00  0.00000000000E+00  0.73633519314E+01  0.74720714441E+01  0.12700000000E+01 0.  1.
          4   -1    0    0  501    0  0.00000000000E+00 -0.00000000000E+00 -0.52646890400E+03  0.52647043581E+03  0.12700000000E+01 0.  1.
         25    2    1    2    0    0  0.00000000000E+00  0.00000000000E+00 -0.51910555207E+03  0.53394250725E+03  0.12499610738E+03 0.  0.
    9000005    1    3    3    0    0  0.11269866757E+02 -0.52026439814E+02 -0.11974134161E+03  0.13104483671E+03  0.10000000000E+01 0.  0.
    9000005    1    3    3    0    0 -0.11269866757E+02  0.52026439814E+02 -0.39936421046E+03  0.40289767054E+03  0.10000000000E+01 0.  0.
<mgrwt>
<rscale>  0 0.12499611E+03</rscale>
<asrwt>0</asrwt>
<pdfrwt beam="2">  1        4 0.81003668E-01 0.12499611E+03</pdfrwt>
<pdfrwt beam="1">  1       -4 0.11413047E-02 0.12499611E+03</pdfrwt>
<totfact> 0.53328349E+03</totfact>
</mgrwt>
</event>
<event>
 5    1  0.3398872E-002  0.1250011E+03  0.7818608E-02  0.1235068E+00
         -4   -1    0    0    0  501 -0.00000000000E+00  0.00000000000E+00  0.20428827417E+02  0.20468265428E+02  0.12700000000E+01 0.  1.
          4   -1    0    0  501    0  0.00000000000E+00 -0.00000000000E+00 -0.19099003122E+03  0.19099425364E+03  0.12700000000E+01 0.  1.
         25    2    1    2    0    0  0.00000000000E+00  0.00000000000E+00 -0.17056120380E+03  0.21146251907E+03  0.12500109091E+03 0.  0.
    9000005    1    3    3    0    0 -0.36601498131E+01  0.29145225009E+02 -0.17859169452E+03  0.18099401700E+03  0.10000000000E+01 0.  0.
    9000005    1    3    3    0    0  0.36601498131E+01 -0.29145225009E+02  0.80304907176E+01  0.30468502074E+02  0.10000000000E+01 0.  0.
<mgrwt>
<rscale>  0 0.12500109E+03</rscale>
<asrwt>0</asrwt>
<pdfrwt beam="2">  1        4 0.29386439E-01 0.12500109E+03</pdfrwt>
<pdfrwt beam="1">  1       -4 0.31462551E-02 0.12500109E+03</pdfrwt>
<totfact> 0.88235437E+03</totfact>
</mgrwt>
</event>
<event>
 5    1  0.3398872E-002  0.1250015E+03  0.7818608E-02  0.1235067E+00
         -4   -1    0    0    0  501 -0.00000000000E+00  0.00000000000E+00  0.18310244540E+02  0.18354235345E+02  0.12700000000E+01 0.  1.
          4   -1    0    0  501    0  0.00000000000E+00 -0.00000000000E+00 -0.21304012921E+03  0.21304391461E+03  0.12700000000E+01 0.  1.
         25    2    1    2    0    0  0.00000000000E+00  0.00000000000E+00 -0.19472988467E+03  0.23139814996E+03  0.12500150327E+03 0.  0.
    9000005    1    3    3    0    0  0.36841224316E+02  0.48141291655E+02 -0.12546875300E+03  0.13934944475E+03  0.10000000000E+01 0.  0.
    9000005    1    3    3    0    0 -0.36841224316E+02 -0.48141291655E+02 -0.69261131667E+02  0.92048705211E+02  0.10000000000E+01 0.  0.
<mgrwt>
<rscale>  0 0.12500150E+03</rscale>
<asrwt>0</asrwt>
<pdfrwt beam="2">  1        4 0.32779078E-01 0.12500150E+03</pdfrwt>
<pdfrwt beam="1">  1       -4 0.28206359E-02 0.12500150E+03</pdfrwt>
<totfact> 0.85092518E+03</totfact>
</mgrwt>
</event>
<event>
 5    1  0.3398872E-002  0.1250020E+03  0.7818608E-02  0.1235066E+00
         -4   -1    0    0    0  501 -0.00000000000E+00  0.00000000000E+00  0.15514817778E+02  0.15566710336E+02  0.12700000000E+01 0.  1.
          4   -1    0    0  501    0  0.00000000000E+00 -0.00000000000E+00 -0.25130946122E+03  0.25131267019E+03  0.12700000000E+01 0.  1.
         25    2    1    2    0    0  0.00000000000E+00  0.00000000000E+00 -0.23579464344E+03  0.26687938053E+03  0.12500195948E+03 0.  0.
    9000005    1    3    3    0    0  0.27881094153E+02  0.16009456571E+02 -0.23230859523E+03  0.23452492731E+03  0.10000000000E+01 0.  0.
    9000005    1    3    3    0    0 -0.27881094153E+02 -0.16009456571E+02 -0.34860482093E+01  0.32354453217E+02  0.10000000000E+01 0.  0.
<mgrwt>
<rscale>  0 0.12500196E+03</rscale>
<asrwt>0</asrwt>
<pdfrwt beam="2">  1        4 0.38667230E-01 0.12500196E+03</pdfrwt>
<pdfrwt beam="1">  1       -4 0.23911338E-02 0.12500196E+03</pdfrwt>
<totfact> 0.79946743E+03</totfact>
</mgrwt>
</event>
<event>
 5    1  0.3398872E-002  0.1250174E+03  0.7818608E-02  0.1235042E+00
         -4   -1    0    0    0  501 -0.00000000000E+00  0.00000000000E+00  0.77270993321E+02  0.77281429262E+02  0.12700000000E+01 0.  1.
          4   -1    0    0  501    0  0.00000000000E+00 -0.00000000000E+00 -0.50544882165E+02  0.50560834774E+02  0.12700000000E+01 0.  1.
         25    2    1    2    0    0  0.00000000000E+00  0.00000000000E+00  0.26726111156E+02  0.12784226404E+03  0.12501743661E+03 0.  0.
    9000005    1    3    3    0    0  0.55228569722E+02 -0.23580431575E+02  0.31078122304E+02  0.67624561757E+02  0.10000000000E+01 0.  0.
    9000005    1    3    3    0    0 -0.55228569722E+02  0.23580431575E+02 -0.43520111481E+01  0.60217702280E+02  0.10000000000E+01 0.  0.
<mgrwt>
<rscale>  0 0.12501744E+03</rscale>
<asrwt>0</asrwt>
<pdfrwt beam="2">  1        4 0.77781656E-02 0.12501744E+03</pdfrwt>
<pdfrwt beam="1">  1       -4 0.11889875E-01 0.12501744E+03</pdfrwt>
<totfact> 0.10386806E+04</totfact>
</mgrwt>
</event>
<event>
 5    1  0.3398872E-002  0.1249981E+03  0.7818608E-02  0.1235072E+00
          4   -1    0    0  501    0  0.00000000000E+00  0.00000000000E+00  0.15726329482E+03  0.15726842277E+03  0.12700000000E+01 0. -1.
         -4   -1    0    0    0  501 -0.00000000000E+00 -0.00000000000E+00 -0.24816407436E+02  0.24848882832E+02  0.12700000000E+01 0. -1.
         25    2    1    2    0    0  0.00000000000E+00  0.00000000000E+00  0.13244688739E+03  0.18211730560E+03  0.12499814006E+03 0.  0.
    9000005    1    3    3    0    0 -0.24096088646E+02 -0.25371639767E+02 -0.92126581251E+01  0.36196887466E+02  0.10000000000E+01 0.  0.
    9000005    1    3    3    0    0  0.24096088646E+02  0.25371639767E+02  0.14165954551E+03  0.14592041813E+03  0.10000000000E+01 0.  0.
<mgrwt>
<rscale>  0 0.12499814E+03</rscale>
<asrwt>0</asrwt>
<pdfrwt beam="1">  1        4 0.24197246E-01 0.12499814E+03</pdfrwt>
<pdfrwt beam="2">  1       -4 0.38208013E-02 0.12499814E+03</pdfrwt>
<totfact> 0.93241151E+03</totfact>
</mgrwt>
</event>
<event>
 5    1  0.3398872E-002  0.1250001E+03  0.7818608E-02  0.1235069E+00
         -4   -1    0    0    0  501 -0.00000000000E+00  0.00000000000E+00  0.80110468729E+02  0.80120534821E+02  0.12700000000E+01 0.  1.
          4   -1    0    0  501    0  0.00000000000E+00 -0.00000000000E+00 -0.48739473559E+02  0.48756016888E+02  0.12700000000E+01 0.  1.
         25    2    1    2    0    0  0.00000000000E+00  0.00000000000E+00  0.31370995170E+02  0.12887655171E+03  0.12500010497E+03 0.  0.
    9000005    1    3    3    0    0  0.50285609378E+02  0.95662553006E+01  0.52645511685E+02  0.73435043757E+02  0.10000000000E+01 0.  0.
    9000005    1    3    3    0    0 -0.50285609378E+02 -0.95662553006E+01 -0.21274516516E+02  0.55441507952E+02  0.10000000000E+01 0.  0.
<mgrwt>
<rscale>  0 0.12500010E+03</rscale>
<asrwt>0</asrwt>
<pdfrwt beam="2">  1        4 0.75004275E-02 0.12500010E+03</pdfrwt>
<pdfrwt beam="1">  1       -4 0.12326734E-01 0.12500010E+03</pdfrwt>
<totfact> 0.10368576E+04</totfact>
</mgrwt>
</event>
<event>
 5    1  0.3398872E-002  0.1250048E+03  0.7818608E-02  0.1235062E+00
          4   -1    0    0  501    0  0.00000000000E+00  0.00000000000E+00  0.12632580774E+03  0.12633219146E+03  0.12700000000E+01 0.  1.
         -4   -1    0    0    0  501 -0.00000000000E+00 -0.00000000000E+00 -0.30904196500E+02  0.30930280654E+02  0.12700000000E+01 0.  1.
         25    2    1    2    0    0  0.00000000000E+00  0.00000000000E+00  0.95421611236E+02  0.15726247212E+03  0.12500480489E+03 0.  0.
    9000005    1    3    3    0    0  0.24959918300E+02 -0.46160032244E+02  0.90406858055E+02  0.10453777347E+03  0.10000000000E+01 0.  0.
    9000005    1    3    3    0    0 -0.24959918300E+02  0.46160032244E+02  0.50147531816E+01  0.52724698651E+02  0.10000000000E+01 0.  0.
<mgrwt>
<rscale>  0 0.12500480E+03</rscale>
<asrwt>0</asrwt>
<pdfrwt beam="1">  1        4 0.19437237E-01 0.12500480E+03</pdfrwt>
<pdfrwt beam="2">  1       -4 0.47569892E-02 0.12500480E+03</pdfrwt>
<totfact> 0.97862596E+03</totfact>
</mgrwt>
</event>
<event>
 5    1  0.3398872E-002  0.1250006E+03  0.7818608E-02  0.1235068E+00
          4   -1    0    0  501    0  0.00000000000E+00  0.00000000000E+00  0.70706926279E+02  0.70718330890E+02  0.12700000000E+01 0.  1.
         -4   -1    0    0    0  501 -0.00000000000E+00 -0.00000000000E+00 -0.55223056719E+02  0.55237658290E+02  0.12700000000E+01 0.  1.
         25    2    1    2    0    0  0.00000000000E+00  0.00000000000E+00  0.15483869560E+02  0.12595598918E+03  0.12500064397E+03 0.  0.
    9000005    1    3    3    0    0 -0.40611804321E+02  0.35466037807E+02 -0.24092746785E+02  0.59064531959E+02  0.10000000000E+01 0.  0.
    9000005    1    3    3    0    0  0.40611804321E+02 -0.35466037807E+02  0.39576616345E+02  0.66891457221E+02  0.10000000000E+01 0.  0.
<mgrwt>
<rscale>  0 0.12500064E+03</rscale>
<asrwt>0</asrwt>
<pdfrwt beam="1">  1        4 0.10879989E-01 0.12500064E+03</pdfrwt>
<pdfrwt beam="2">  1       -4 0.84978554E-02 0.12500064E+03</pdfrwt>
<totfact> 0.10431770E+04</totfact>
</mgrwt>
</event>
<event>
 4    1  0.3398872E-002  0.1250623E+03  0.7818608E-02  0.1234972E+00
         -4   -1    0    0    0  501 -0.00000000000E+00  0.00000000000E+00  0.86681325142E+02  0.86690628262E+02  0.12700000000E+01 0. -1.
          4   -1    0    0  501    0  0.00000000000E+00 -0.00000000000E+00 -0.45088794126E+02  0.45106676399E+02  0.12700000000E+01 0. -1.
    9000005    1    1    2    0    0 -0.35665625148E+02  0.42562510127E+02 -0.94833228803E+01  0.56343034160E+02  0.10000000000E+01 0.  0.
    9000005    1    1    2    0    0  0.35665625148E+02 -0.42562510127E+02  0.51075853896E+02  0.75454270500E+02  0.10000000000E+01 0.  0.
<mgrwt>
<rscale>  0 0.12506235E+03</rscale>
<asrwt>0</asrwt>
<pdfrwt beam="2">  1        4 0.69388289E-02 0.12506235E+03</pdfrwt>
<pdfrwt beam="1">  1       -4 0.13337679E-01 0.12506235E+03</pdfrwt>
<totfact> 0.10291544E+04</totfact>
</mgrwt>
</event>
<event>
 5    1  0.3398872E-002  0.1250033E+03  0.7818608E-02  0.1235064E+00
          4   -1    0    0  501    0  0.00000000000E+00  0.00000000000E+00  0.75890188670E+01  0.76945504978E+01  0.12700000000E+01 0. -1.
         -4   -1    0    0    0  501 -0.00000000000E+00 -0.00000000000E+00 -0.51109090178E+03  0.51109247967E+03  0.12700000000E+01 0. -1.
         25    2    1    2    0    0  0.00000000000E+00  0.00000000000E+00 -0.50350188291E+03  0.51878703017E+03  0.12500334628E+03 0.  0.
    9000005    1    3    3    0    0  0.29891125954E+02 -0.51053507134E+02 -0.16817656373E+03  0.17828150939E+03  0.10000000000E+01 0.  0.
    9000005    1    3    3    0    0 -0.29891125954E+02  0.51053507134E+02 -0.33532531917E+03  0.34050552078E+03  0.10000000000E+01 0.  0.
<mgrwt>
<rscale>  0 0.12500335E+03</rscale>
<asrwt>0</asrwt>
<pdfrwt beam="1">  1        4 0.11757810E-02 0.12500335E+03</pdfrwt>
<pdfrwt beam="2">  1       -4 0.78637581E-01 0.12500335E+03</pdfrwt>
<totfact> 0.54431638E+03</totfact>
</mgrwt>
</event>
<event>
 5    1  0.3398872E-002  0.1249948E+03  0.7818608E-02  0.1235077E+00
          4   -1    0    0  501    0  0.00000000000E+00  0.00000000000E+00  0.10538287473E+03  0.10539052703E+03  0.12700000000E+01 0. -1.
         -4   -1    0    0    0  501 -0.00000000000E+00 -0.00000000000E+00 -0.37044231909E+02  0.37065995437E+02  0.12700000000E+01 0. -1.
         25    2    1    2    0    0  0.00000000000E+00  0.00000000000E+00  0.68338642826E+02  0.14245652247E+03  0.12499476265E+03 0.  0.
    9000005    1    3    3    0    0 -0.57451881179E+02 -0.13939270191E+02  0.57243693322E+02  0.82297401719E+02  0.10000000000E+01 0.  0.
    9000005    1    3    3    0    0  0.57451881179E+02  0.13939270191E+02  0.11094949505E+02  0.60159120747E+02  0.10000000000E+01 0.  0.
<mgrwt>
<rscale>  0 0.12499476E+03</rscale>
<asrwt>0</asrwt>
<pdfrwt beam="1">  1        4 0.16215013E-01 0.12499476E+03</pdfrwt>
<pdfrwt beam="2">  1       -4 0.57013754E-02 0.12499476E+03</pdfrwt>
<totfact> 0.10084114E+04</totfact>
</mgrwt>
</event>
<event>
 5    1  0.3398872E-002  0.1250031E+03  0.7818608E-02  0.1235064E+00
          4   -1    0    0  501    0  0.00000000000E+00  0.00000000000E+00  0.48387258546E+02  0.48403922254E+02  0.12700000000E+01 0.  1.
         -4   -1    0    0    0  501 -0.00000000000E+00 -0.00000000000E+00 -0.80697390186E+02  0.80707383075E+02  0.12700000000E+01 0.  1.
         25    2    1    2    0    0  0.00000000000E+00  0.00000000000E+00 -0.32310131640E+02  0.12911130533E+03  0.12500313819E+03 0.  0.
    9000005    1    3    3    0    0  0.34257778814E+02  0.51246909696E+02 -0.26769223823E+02  0.67211847964E+02  0.10000000000E+01 0.  0.
    9000005    1    3    3    0    0 -0.34257778814E+02 -0.51246909696E+02 -0.55409078162E+01  0.61899457365E+02  0.10000000000E+01 0.  0.
<mgrwt>
<rscale>  0 0.12500314E+03</rscale>
<asrwt>0</asrwt>
<pdfrwt beam="1">  1        4 0.74462441E-02 0.12500314E+03</pdfrwt>
<pdfrwt beam="2">  1       -4 0.12417034E-01 0.12500314E+03</pdfrwt>
<totfact> 0.10362821E+04</totfact>
</mgrwt>
</event>
<event>
 5    1  0.3398872E-002  0.1249845E+03  0.7818608E-02  0.1235094E+00
         -4   -1    0    0    0  501 -0.00000000000E+00  0.00000000000E+00  0.14158338633E+03  0.14158908215E+03  0.12700000000E+01 0. -1.
          4   -1    0    0  501    0  0.00000000000E+00 -0.00000000000E+00 -0.27562022689E+02  0.27591266638E+02  0.12700000000E+01 0. -1.
         25    2    1    2    0    0  0.00000000000E+00  0.00000000000E+00  0.11402136364E+03  0.16918034879E+03  0.12498447524E+03 0.  0.
    9000005    1    3    3    0    0  0.14374566835E+02 -0.54667548618E+02  0.20965197103E+02  0.60296836842E+02  0.10000000000E+01 0.  0.
    9000005    1    3    3    0    0 -0.14374566835E+02  0.54667548618E+02  0.93056166538E+02  0.10888351195E+03  0.10000000000E+01 0.  0.
<mgrwt>
<rscale>  0 0.12498448E+03</rscale>
<asrwt>0</asrwt>
<pdfrwt beam="2">  1        4 0.42429989E-02 0.12498448E+03</pdfrwt>
<pdfrwt beam="1">  1       -4 0.21784747E-01 0.12498448E+03</pdfrwt>
<totfact> 0.95634839E+03</totfact>
</mgrwt>
</event>
<event>
 5    1  0.3398872E-002  0.1249997E+03  0.7818608E-02  0.1235070E+00
          4   -1    0    0  501    0  0.00000000000E+00  0.00000000000E+00  0.29962465995E+02  0.29989369259E+02  0.12700000000E+01 0. -1.
         -4   -1    0    0    0  501 -0.00000000000E+00 -0.00000000000E+00 -0.13028238262E+03  0.13028857249E+03  0.12700000000E+01 0. -1.
         25    2    1    2    0    0  0.00000000000E+00  0.00000000000E+00 -0.10031991662E+03  0.16027794175E+03  0.12499973176E+03 0.  0.
    9000005    1    3    3    0    0  0.31684378586E+02  0.10921838998E+02  0.17471210503E+02  0.37807798269E+02  0.10000000000E+01 0.  0.
    9000005    1    3    3    0    0 -0.31684378586E+02 -0.10921838998E+02 -0.11779112713E+03  0.12247014348E+03  0.10000000000E+01 0.  0.
<mgrwt>
<rscale>  0 0.12499973E+03</rscale>
<asrwt>0</asrwt>
<pdfrwt beam="1">  1        4 0.46121558E-02 0.12499973E+03</pdfrwt>
<pdfrwt beam="2">  1       -4 0.20045989E-01 0.12499973E+03</pdfrwt>
<totfact> 0.97289813E+03</totfact>
</mgrwt>
</event>
<event>
 5    1  0.3398872E-002  0.1249984E+03  0.7818608E-02  0.1235072E+00
         -4   -1    0    0    0  501 -0.00000000000E+00  0.00000000000E+00  0.23464622782E+02  0.23498966410E+02  0.12700000000E+01 0. -1.
          4   -1    0    0  501    0  0.00000000000E+00 -0.00000000000E+00 -0.16631113984E+03  0.16631598881E+03  0.12700000000E+01 0. -1.
         25    2    1    2    0    0  0.00000000000E+00  0.00000000000E+00 -0.14284651705E+03  0.18981495522E+03  0.12499835915E+03 0.  0.
    9000005    1    3    3    0    0  0.49735530488E+01 -0.34602206316E+02 -0.15008153496E+03  0.15410229085E+03  0.10000000000E+01 0.  0.
    9000005    1    3    3    0    0 -0.49735530488E+01  0.34602206316E+02  0.72350179036E+01  0.35712664363E+02  0.10000000000E+01 0.  0.
<mgrwt>
<rscale>  0 0.12499836E+03</rscale>
<asrwt>0</asrwt>
<pdfrwt beam="2">  1        4 0.25589343E-01 0.12499836E+03</pdfrwt>
<pdfrwt beam="1">  1       -4 0.36129569E-02 0.12499836E+03</pdfrwt>
<totfact> 0.91882899E+03</totfact>
</mgrwt>
</event>
<event>
 5    1  0.3398872E-002  0.1249733E+03  0.7818608E-02  0.1235111E+00
          4   -1    0    0  501    0  0.00000000000E+00  0.00000000000E+00  0.76625535998E+02  0.76636059835E+02  0.12700000000E+01 0.  1.
         -4   -1    0    0    0  501 -0.00000000000E+00 -0.00000000000E+00 -0.50934726621E+02  0.50950557171E+02  0.12700000000E+01 0.  1.
         25    2    1    2    0    0  0.00000000000E+00  0.00000000000E+00  0.25690809377E+02  0.12758661701E+03  0.12497330576E+03 0.  0.
    9000005    1    3    3    0    0 -0.53074732449E+02 -0.28125257592E+02  0.30398674911E+02  0.67327830616E+02  0.10000000000E+01 0.  0.
    9000005    1    3    3    0    0  0.53074732449E+02  0.28125257592E+02 -0.47078655339E+01  0.60258786389E+02  0.10000000000E+01 0.  0.
<mgrwt>
<rscale>  0 0.12497331E+03</rscale>
<asrwt>0</asrwt>
<pdfrwt beam="1">  1        4 0.11790571E-01 0.12497331E+03</pdfrwt>
<pdfrwt beam="2">  1       -4 0.78381390E-02 0.12497331E+03</pdfrwt>
<totfact> 0.10402693E+04</totfact>
</mgrwt>
</event>
<event>
 5    1  0.3398872E-002  0.1249994E+03  0.7818608E-02  0.1235070E+00
         -4   -1    0    0    0  501 -0.00000000000E+00  0.00000000000E+00  0.45348637898E+03  0.45348815731E+03  0.12700000000E+01 0.  1.
          4   -1    0    0  501    0  0.00000000000E+00 -0.00000000000E+00 -0.85651248616E+01  0.86587680356E+01  0.12700000000E+01 0.  1.
         25    2    1    2    0    0  0.00000000000E+00  0.00000000000E+00  0.44492125412E+03  0.46214692535E+03  0.12499943296E+03 0.  0.
    9000005    1    3    3    0    0  0.49834565055E+02  0.26431236629E+01  0.36152345122E+03  0.36495297746E+03  0.10000000000E+01 0.  0.
    9000005    1    3    3    0    0 -0.49834565055E+02 -0.26431236629E+01  0.83397802905E+02  0.97193947889E+02  0.10000000000E+01 0.  0.
<mgrwt>
<rscale>  0 0.12499943E+03</rscale>
<asrwt>0</asrwt>
<pdfrwt beam="2">  1        4 0.13250517E-02 0.12499943E+03</pdfrwt>
<pdfrwt beam="1">  1       -4 0.69774469E-01 0.12499943E+03</pdfrwt>
<totfact> 0.58926502E+03</totfact>
</mgrwt>
</event>
<event>
 5    1  0.3398872E-002  0.1250001E+03  0.7818608E-02  0.1235069E+00
          4   -1    0    0  501    0  0.00000000000E+00  0.00000000000E+00  0.16597275607E+01  0.20898793209E+01  0.12700000000E+01 0.  1.
         -4   -1    0    0    0  501 -0.00000000000E+00 -0.00000000000E+00 -0.20831250499E+04  0.20831254371E+04  0.12700000000E+01 0.  1.
         25    2    1    2    0    0  0.00000000000E+00  0.00000000000E+00 -0.20814653224E+04  0.20852153164E+04  0.12500010985E+03 0.  0.
    9000005    1    3    3    0    0  0.92147089151E+01  0.60675171154E+02 -0.84415049299E+03  0.84637901798E+03  0.10000000000E+01 0.  0.
    9000005    1    3    3    0    0 -0.92147089151E+01 -0.60675171154E+02 -0.12373148294E+04  0.12388362984E+04  0.10000000000E+01 0.  0.
<mgrwt>
<rscale>  0 0.12500011E+03</rscale>
<asrwt>0</asrwt>
<pdfrwt beam="1">  1        4 0.28846274E-03 0.12500011E+03</pdfrwt>
<pdfrwt beam="2">  1       -4 0.32051204E+00 0.12500011E+03</pdfrwt>
<totfact> 0.87898407E+02</totfact>
</mgrwt>
</event>
<event>
 5    1  0.3398872E-002  0.1249998E+03  0.7818608E-02  0.1235070E+00
          4   -1    0    0  501    0  0.00000000000E+00  0.00000000000E+00  0.17302035691E+03  0.17302501786E+03  0.12700000000E+01 0.  1.
         -4   -1    0    0    0  501 -0.00000000000E+00 -0.00000000000E+00 -0.22553926979E+02  0.22589655202E+02  0.12700000000E+01 0.  1.
         25    2    1    2    0    0  0.00000000000E+00  0.00000000000E+00  0.15046642993E+03  0.19561467306E+03  0.12499981512E+03 0.  0.
    9000005    1    3    3    0    0  0.24415374816E+02 -0.55119843856E+02  0.49474678024E+02  0.77993919505E+02  0.10000000000E+01 0.  0.
    9000005    1    3    3    0    0 -0.24415374816E+02  0.55119843856E+02  0.10099175191E+03  0.11762075356E+03  0.10000000000E+01 0.  0.
<mgrwt>
<rscale>  0 0.12499982E+03</rscale>
<asrwt>0</asrwt>
<pdfrwt beam="1">  1        4 0.26621624E-01 0.12499982E+03</pdfrwt>
<pdfrwt beam="2">  1       -4 0.34729417E-02 0.12499982E+03</pdfrwt>
<totfact> 0.90879829E+03</totfact>
</mgrwt>
</event>
<event>
 5    1  0.3398872E-002  0.1249918E+03  0.7818608E-02  0.1235082E+00
          4   -1    0    0  501    0  0.00000000000E+00  0.00000000000E+00  0.26693796338E+03  0.26694098448E+03  0.12700000000E+01 0.  1.
         -4   -1    0    0    0  501 -0.00000000000E+00 -0.00000000000E+00 -0.14600959725E+02  0.14656088322E+02  0.12700000000E+01 0.  1.
         25    2    1    2    0    0  0.00000000000E+00  0.00000000000E+00  0.25233700365E+03  0.28159707280E+03  0.12499179171E+03 0.  0.
    9000005    1    3    3    0    0 -0.40262881548E+02 -0.21487033687E+02  0.30004120013E+02  0.54626362363E+02  0.10000000000E+01 0.  0.
    9000005    1    3    3    0    0  0.40262881548E+02  0.21487033687E+02  0.22233288364E+03  0.22697071044E+03  0.10000000000E+01 0.  0.
<mgrwt>
<rscale>  0 0.12499179E+03</rscale>
<asrwt>0</asrwt>
<pdfrwt beam="1">  1        4 0.41071853E-01 0.12499179E+03</pdfrwt>
<pdfrwt beam="2">  1       -4 0.22507745E-02 0.12499179E+03</pdfrwt>
<totfact> 0.77981044E+03</totfact>
</mgrwt>
</event>
<event>
 5    1  0.3398872E-002  0.1249928E+03  0.7818608E-02  0.1235081E+00
         -4   -1    0    0    0  501 -0.00000000000E+00  0.00000000000E+00  0.13229704384E+03  0.13230313945E+03  0.12700000000E+01 0. -1.
          4   -1    0    0  501    0  0.00000000000E+00 -0.00000000000E+00 -0.29502519978E+02  0.29529842279E+02  0.12700000000E+01 0. -1.
         25    2    1    2    0    0  0.00000000000E+00  0.00000000000E+00  0.10279452386E+03  0.16183298173E+03  0.12499279915E+03 0.  0.
    9000005    1    3    3    0    0 -0.15891397080E+01 -0.30536704473E+02 -0.19160450770E+02  0.36099010496E+02  0.10000000000E+01 0.  0.
    9000005    1    3    3    0    0  0.15891397080E+01  0.30536704473E+02  0.12195497463E+03  0.12573397123E+03  0.10000000000E+01 0.  0.
<mgrwt>
<rscale>  0 0.12499280E+03</rscale>
<asrwt>0</asrwt>
<pdfrwt beam="2">  1        4 0.45414199E-02 0.12499280E+03</pdfrwt>
<pdfrwt beam="1">  1       -4 0.20355962E-01 0.12499280E+03</pdfrwt>
<totfact> 0.97006257E+03</totfact>
</mgrwt>
</event>
<event>
 5    1  0.3398872E-002  0.1249979E+03  0.7818608E-02  0.1235072E+00
         -4   -1    0    0    0  501 -0.00000000000E+00  0.00000000000E+00  0.13330655148E+03  0.13331260093E+03  0.12700000000E+01 0. -1.
          4   -1    0    0  501    0  0.00000000000E+00 -0.00000000000E+00 -0.29281317010E+02  0.29308845523E+02  0.12700000000E+01 0. -1.
         25    2    1    2    0    0  0.00000000000E+00  0.00000000000E+00  0.10402523447E+03  0.16262144646E+03  0.12499794175E+03 0.  0.
    9000005    1    3    3    0    0 -0.26813839782E+01  0.89251598678E+01  0.13240380578E+03  0.13273513507E+03  0.10000000000E+01 0.  0.
    9000005    1    3    3    0    0  0.26813839782E+01 -0.89251598678E+01 -0.28378571306E+02  0.29886311383E+02  0.10000000000E+01 0.  0.
<mgrwt>
<rscale>  0 0.12499794E+03</rscale>
<asrwt>0</asrwt>
<pdfrwt beam="2">  1        4 0.45074009E-02 0.12499794E+03</pdfrwt>
<pdfrwt beam="1">  1       -4 0.20511283E-01 0.12499794E+03</pdfrwt>
<totfact> 0.96844237E+03</totfact>
</mgrwt>
</event>
<event>
 5    1  0.3398872E-002  0.1250098E+03  0.7818608E-02  0.1235054E+00
          4   -1    0    0  501    0  0.00000000000E+00  0.00000000000E+00  0.57601312207E+02  0.57615311055E+02  0.12700000000E+01 0.  1.
         -4   -1    0    0    0  501 -0.00000000000E+00 -0.00000000000E+00 -0.67797738457E+02  0.67809632354E+02  0.12700000000E+01 0.  1.
         25    2    1    2    0    0  0.00000000000E+00  0.00000000000E+00 -0.10196426250E+02  0.12542494341E+03  0.12500979690E+03 0.  0.
    9000005    1    3    3    0    0 -0.21682160760E+02 -0.56735672191E+02 -0.19871572227E+02  0.63913472578E+02  0.10000000000E+01 0.  0.
    9000005    1    3    3    0    0  0.21682160760E+02  0.56735672191E+02  0.96751459770E+01  0.61511470831E+02  0.10000000000E+01 0.  0.
<mgrwt>
<rscale>  0 0.12500980E+03</rscale>
<asrwt>0</asrwt>
<pdfrwt beam="1">  1        4 0.88637320E-02 0.12500980E+03</pdfrwt>
<pdfrwt beam="2">  1       -4 0.10432413E-01 0.12500980E+03</pdfrwt>
<totfact> 0.10441307E+04</totfact>
</mgrwt>
</event>
<event>
 5    1  0.3398872E-002  0.1250011E+03  0.7818608E-02  0.1235068E+00
          4   -1    0    0  501    0  0.00000000000E+00  0.00000000000E+00  0.80020012092E+03  0.80020112873E+03  0.12700000000E+01 0. -1.
         -4   -1    0    0    0  501 -0.00000000000E+00 -0.00000000000E+00 -0.47980476258E+01  0.49632812755E+01  0.12700000000E+01 0. -1.
         25    2    1    2    0    0  0.00000000000E+00  0.00000000000E+00  0.79540207329E+03  0.80516441000E+03  0.12500107575E+03 0.  0.
    9000005    1    3    3    0    0  0.72240926357E+01 -0.39054322451E+02  0.70848028436E+03  0.70959336310E+03  0.10000000000E+01 0.  0.
    9000005    1    3    3    0    0 -0.72240926357E+01  0.39054322451E+02  0.86921788926E+02  0.95571046905E+02  0.10000000000E+01 0.  0.
<mgrwt>
<rscale>  0 0.12500108E+03</rscale>
<asrwt>0</asrwt>
<pdfrwt beam="1">  1        4 0.12312062E+00 0.12500108E+03</pdfrwt>
<pdfrwt beam="2">  1       -4 0.75094826E-03 0.12500108E+03</pdfrwt>
<totfact> 0.38034281E+03</totfact>
</mgrwt>
</event>
<event>
 5    1  0.3398872E-002  0.1250005E+03  0.7818608E-02  0.1235069E+00
         -4   -1    0    0    0  501 -0.00000000000E+00  0.00000000000E+00  0.40510647008E+02  0.40530549232E+02  0.12700000000E+01 0.  1.
          4   -1    0    0  501    0  0.00000000000E+00 -0.00000000000E+00 -0.96378243743E+02  0.96386610932E+02  0.12700000000E+01 0.  1.
         25    2    1    2    0    0  0.00000000000E+00  0.00000000000E+00 -0.55867596735E+02  0.13691716016E+03  0.12500048153E+03 0.  0.
    9000005    1    3    3    0    0  0.45480692500E+02 -0.22127652779E+02 -0.68136456503E+02  0.84862848836E+02  0.10000000000E+01 0.  0.
    9000005    1    3    3    0    0 -0.45480692500E+02  0.22127652779E+02  0.12268859769E+02  0.52054311327E+02  0.10000000000E+01 0.  0.
<mgrwt>
<rscale>  0 0.12500048E+03</rscale>
<asrwt>0</asrwt>
<pdfrwt beam="2">  1        4 0.14829597E-01 0.12500048E+03</pdfrwt>
<pdfrwt beam="1">  1       -4 0.62345818E-02 0.12500048E+03</pdfrwt>
<totfact> 0.10197707E+04</totfact>
</mgrwt>
</event>
<event>
 5    1  0.3398872E-002  0.1250020E+03  0.7818608E-02  0.1235066E+00
          4   -1    0    0  501    0  0.00000000000E+00  0.00000000000E+00  0.96962566232E+02  0.96970883003E+02  0.12700000000E+01 0. -1.
         -4   -1    0    0    0  501 -0.00000000000E+00 -0.00000000000E+00 -0.40267409472E+02  0.40287431856E+02  0.12700000000E+01 0. -1.
         25    2    1    2    0    0  0.00000000000E+00  0.00000000000E+00  0.56695156760E+02  0.13725831486E+03  0.12500201678E+03 0.  0.
    9000005    1    3    3    0    0 -0.10728714585E+02 -0.55706031712E+02 -0.43531087147E+00  0.56740257148E+02  0.10000000000E+01 0.  0.
    9000005    1    3    3    0    0  0.10728714585E+02  0.55706031712E+02  0.57130467632E+02  0.80518057711E+02  0.10000000000E+01 0.  0.
<mgrwt>
<rscale>  0 0.12500202E+03</rscale>
<asrwt>0</asrwt>
<pdfrwt beam="1">  1        4 0.14919498E-01 0.12500202E+03</pdfrwt>
<pdfrwt beam="2">  1       -4 0.61971660E-02 0.12500202E+03</pdfrwt>
<totfact> 0.10190224E+04</totfact>
</mgrwt>
</event>
<event>
 5    1  0.3398872E-002  0.1249955E+03  0.7818608E-02  0.1235076E+00
          4   -1    0    0  501    0  0.00000000000E+00  0.00000000000E+00  0.19432818921E+02  0.19474274087E+02  0.12700000000E+01 0.  1.
         -4   -1    0    0    0  501 -0.00000000000E+00 -0.00000000000E+00 -0.20074078828E+03  0.20074480561E+03  0.12700000000E+01 0.  1.
         25    2    1    2    0    0  0.00000000000E+00  0.00000000000E+00 -0.18130796936E+03  0.22021907970E+03  0.12499545315E+03 0.  0.
    9000005    1    3    3    0    0  0.34333257778E+02  0.33650140598E+02 -0.16099133234E+03  0.16801878955E+03  0.10000000000E+01 0.  0.
    9000005    1    3    3    0    0 -0.34333257778E+02 -0.33650140598E+02 -0.20316637019E+02  0.52200290150E+02  0.10000000000E+01 0.  0.
<mgrwt>
<rscale>  0 0.12499545E+03</rscale>
<asrwt>0</asrwt>
<pdfrwt beam="1">  1        4 0.29931625E-02 0.12499545E+03</pdfrwt>
<pdfrwt beam="2">  1       -4 0.30886695E-01 0.12499545E+03</pdfrwt>
<totfact> 0.86842515E+03</totfact>
</mgrwt>
</event>
<event>
 5    1  0.3398872E-002  0.1250026E+03  0.7818608E-02  0.1235065E+00
          4   -1    0    0  501    0  0.00000000000E+00  0.00000000000E+00  0.41235071780E+02  0.41254624525E+02  0.12700000000E+01 0.  1.
         -4   -1    0    0    0  501 -0.00000000000E+00 -0.00000000000E+00 -0.94688933048E+02  0.94697449500E+02  0.12700000000E+01 0.  1.
         25    2    1    2    0    0  0.00000000000E+00  0.00000000000E+00 -0.53453861268E+02  0.13595207403E+03  0.12500260456E+03 0.  0.
    9000005    1    3    3    0    0 -0.48485677997E+02  0.39320978955E+02 -0.29881408671E+02  0.69216319904E+02  0.10000000000E+01 0.  0.
    9000005    1    3    3    0    0  0.48485677997E+02 -0.39320978955E+02 -0.23572452596E+02  0.66735754122E+02  0.10000000000E+01 0.  0.
<mgrwt>
<rscale>  0 0.12500260E+03</rscale>
<asrwt>0</asrwt>
<pdfrwt beam="1">  1        4 0.63460164E-02 0.12500260E+03</pdfrwt>
<pdfrwt beam="2">  1       -4 0.14569687E-01 0.12500260E+03</pdfrwt>
<totfact> 0.10217442E+04</totfact>
</mgrwt>
</event>
<event>
 5    1  0.3398872E-002  0.1250029E+03  0.7818608E-02  0.1235065E+00
         -4   -1    0    0    0  501 -0.00000000000E+00  0.00000000000E+00  0.64316969878E+01  0.65558848482E+01  0.12700000000E+01 0.  1.
          4   -1    0    0  501    0  0.00000000000E+00 -0.00000000000E+00 -0.60143923460E+03  0.60144057547E+03  0.12700000000E+01 0.  1.
         25    2    1    2    0    0  0.00000000000E+00  0.00000000000E+00 -0.59500753761E+03  0.60799646031E+03  0.12500290372E+03 0.  0.
    9000005    1    3    3    0    0  0.32955160491E+02 -0.16657234204E+02 -0.52280118770E+02  0.64013411665E+02  0.10000000000E+01 0.  0.
    9000005    1    3    3    0    0 -0.32955160491E+02  0.16657234204E+02 -0.54272741884E+03  0.54398304865E+03  0.10000000000E+01 0.  0.
<mgrwt>
<rscale>  0 0.12500290E+03</rscale>
<asrwt>0</asrwt>
<pdfrwt beam="2">  1        4 0.92538725E-01 0.12500290E+03</pdfrwt>
<pdfrwt beam="1">  1       -4 0.99914838E-03 0.12500290E+03</pdfrwt>
<totfact> 0.48363648E+03</totfact>
</mgrwt>
</event>
<event>
 5    1  0.3398872E-002  0.1250027E+03  0.7818608E-02  0.1235065E+00
         -4   -1    0    0    0  501 -0.00000000000E+00  0.00000000000E+00  0.11798198843E+02  0.11866355630E+02  0.12700000000E+01 0.  1.
          4   -1    0    0  501    0  0.00000000000E+00 -0.00000000000E+00 -0.33007989608E+03  0.33008233926E+03  0.12700000000E+01 0.  1.
         25    2    1    2    0    0  0.00000000000E+00  0.00000000000E+00 -0.31828169723E+03  0.34194869489E+03  0.12500268455E+03 0.  0.
    9000005    1    3    3    0    0 -0.16441536150E+02 -0.27326768094E+02 -0.30615727934E+03  0.30781545780E+03  0.10000000000E+01 0.  0.
    9000005    1    3    3    0    0  0.16441536150E+02  0.27326768094E+02 -0.12124417893E+02  0.34133237096E+02  0.10000000000E+01 0.  0.
<mgrwt>
<rscale>  0 0.12500268E+03</rscale>
<asrwt>0</asrwt>
<pdfrwt beam="2">  1        4 0.50786946E-01 0.12500268E+03</pdfrwt>
<pdfrwt beam="1">  1       -4 0.18205385E-02 0.12500268E+03</pdfrwt>
<totfact> 0.70615281E+03</totfact>
</mgrwt>
</event>
<event>
 5    1  0.3398872E-002  0.1249991E+03  0.7818608E-02  0.1235071E+00
         -4   -1    0    0    0  501 -0.00000000000E+00  0.00000000000E+00  0.56384542309E+02  0.56398843175E+02  0.12700000000E+01 0. -1.
          4   -1    0    0  501    0  0.00000000000E+00 -0.00000000000E+00 -0.69248883870E+02  0.69260528566E+02  0.12700000000E+01 0. -1.
         25    2    1    2    0    0  0.00000000000E+00  0.00000000000E+00 -0.12864341560E+02  0.12565937174E+03  0.12499914569E+03 0.  0.
    9000005    1    3    3    0    0 -0.54892088087E+02 -0.26136979461E+02 -0.20962356670E+02  0.64317209416E+02  0.10000000000E+01 0.  0.
    9000005    1    3    3    0    0  0.54892088087E+02  0.26136979461E+02  0.80980151095E+01  0.61342162324E+02  0.10000000000E+01 0.  0.
<mgrwt>
<rscale>  0 0.12499915E+03</rscale>
<asrwt>0</asrwt>
<pdfrwt beam="2">  1        4 0.10655670E-01 0.12499915E+03</pdfrwt>
<pdfrwt beam="1">  1       -4 0.86765408E-02 0.12499915E+03</pdfrwt>
<totfact> 0.10438640E+04</totfact>
</mgrwt>
</event>
<event>
 5    1  0.3398872E-002  0.1250235E+03  0.7818608E-02  0.1235033E+00
         -4   -1    0    0    0  501 -0.00000000000E+00  0.00000000000E+00  0.18269033230E+01  0.22249664608E+01  0.12700000000E+01 0.  1.
          4   -1    0    0  501    0  0.00000000000E+00 -0.00000000000E+00 -0.19284487945E+04  0.19284492127E+04  0.12700000000E+01 0.  1.
         25    2    1    2    0    0  0.00000000000E+00  0.00000000000E+00 -0.19266218912E+04  0.19306741791E+04  0.12502349564E+03 0.  0.
    9000005    1    3    3    0    0  0.40833656686E+02  0.38713385115E+02 -0.13835637732E+04  0.13847078494E+04  0.10000000000E+01 0.  0.
    9000005    1    3    3    0    0 -0.40833656686E+02 -0.38713385115E+02 -0.54305811794E+03  0.54596632970E+03  0.10000000000E+01 0.  0.
<mgrwt>
<rscale>  0 0.12502350E+03</rscale>
<asrwt>0</asrwt>
<pdfrwt beam="2">  1        4 0.29671361E+00 0.12502350E+03</pdfrwt>
<pdfrwt beam="1">  1       -4 0.31171600E-03 0.12502350E+03</pdfrwt>
<totfact> 0.10787911E+03</totfact>
</mgrwt>
</event>
<event>
 5    1  0.3398872E-002  0.1249985E+03  0.7818608E-02  0.1235072E+00
          4   -1    0    0  501    0  0.00000000000E+00  0.00000000000E+00  0.51272367713E+02  0.51288094046E+02  0.12700000000E+01 0. -1.
         -4   -1    0    0    0  501 -0.00000000000E+00 -0.00000000000E+00 -0.76151776761E+02  0.76162366060E+02  0.12700000000E+01 0. -1.
         25    2    1    2    0    0  0.00000000000E+00  0.00000000000E+00 -0.24879409049E+02  0.12745046011E+03  0.12499853914E+03 0.  0.
    9000005    1    3    3    0    0  0.58606055843E+02  0.56018108835E+01 -0.33805666763E+02  0.67896046807E+02  0.10000000000E+01 0.  0.
    9000005    1    3    3    0    0 -0.58606055843E+02 -0.56018108835E+01  0.89262577146E+01  0.59554413299E+02  0.10000000000E+01 0.  0.
<mgrwt>
<rscale>  0 0.12499854E+03</rscale>
<asrwt>0</asrwt>
<pdfrwt beam="1">  1        4 0.78900809E-02 0.12499854E+03</pdfrwt>
<pdfrwt beam="2">  1       -4 0.11717682E-01 0.12499854E+03</pdfrwt>
<totfact> 0.10399716E+04</totfact>
</mgrwt>
</event>
<event>
 5    1  0.3398872E-002  0.1250000E+03  0.7818608E-02  0.1235069E+00
         -4   -1    0    0    0  501 -0.00000000000E+00  0.00000000000E+00  0.67884188515E+02  0.67896067268E+02  0.12700000000E+01 0. -1.
          4   -1    0    0  501    0  0.00000000000E+00 -0.00000000000E+00 -0.57518896070E+02  0.57532914972E+02  0.12700000000E+01 0. -1.
         25    2    1    2    0    0  0.00000000000E+00  0.00000000000E+00  0.10365292445E+02  0.12542898224E+03  0.12499996119E+03 0.  0.
    9000005    1    3    3    0    0 -0.25939558699E+02 -0.58398699290E+01  0.61930109251E+02  0.67404029688E+02  0.10000000000E+01 0.  0.
    9000005    1    3    3    0    0  0.25939558699E+02  0.58398699290E+01 -0.51564816806E+02  0.58024952551E+02  0.10000000000E+01 0.  0.
<mgrwt>
<rscale>  0 0.12499996E+03</rscale>
<asrwt>0</asrwt>
<pdfrwt beam="2">  1        4 0.88510531E-02 0.12499996E+03</pdfrwt>
<pdfrwt beam="1">  1       -4 0.10445713E-01 0.12499996E+03</pdfrwt>
<totfact> 0.10443534E+04</totfact>
</mgrwt>
</event>
<event>
 5    1  0.3398872E-002  0.1249927E+03  0.7818608E-02  0.1235081E+00
         -4   -1    0    0    0  501 -0.00000000000E+00  0.00000000000E+00  0.13610848047E+03  0.13611440539E+03  0.12700000000E+01 0.  1.
          4   -1    0    0  501    0  0.00000000000E+00 -0.00000000000E+00 -0.28675592320E+02  0.28703701763E+02  0.12700000000E+01 0.  1.
         25    2    1    2    0    0  0.00000000000E+00  0.00000000000E+00  0.10743288815E+03  0.16481810715E+03  0.12499273175E+03 0.  0.
    9000005    1    3    3    0    0 -0.18936033913E+02 -0.19295346138E+01 -0.24766456750E+02  0.31251781775E+02  0.10000000000E+01 0.  0.
    9000005    1    3    3    0    0  0.18936033913E+02  0.19295346138E+01  0.13219934489E+03  0.13356632538E+03  0.10000000000E+01 0.  0.
<mgrwt>
<rscale>  0 0.12499273E+03</rscale>
<asrwt>0</asrwt>
<pdfrwt beam="2">  1        4 0.44142477E-02 0.12499273E+03</pdfrwt>
<pdfrwt beam="1">  1       -4 0.20942384E-01 0.12499273E+03</pdfrwt>
<totfact> 0.96437597E+03</totfact>
</mgrwt>
</event>
<event>
 4    1  0.3398872E-002  0.1249221E+03  0.7818608E-02  0.1235191E+00
          4   -1    0    0  501    0  0.00000000000E+00  0.00000000000E+00  0.18610130115E+03  0.18610563449E+03  0.12700000000E+01 0.  1.
         -4   -1    0    0    0  501 -0.00000000000E+00 -0.00000000000E+00 -0.20939939383E+02  0.20978416560E+02  0.12700000000E+01 0.  1.
    9000005    1    1    2    0    0 -0.15269765651E+02  0.27893964343E+02 -0.65222402697E+01  0.32477355310E+02  0.10000000000E+01 0.  0.
    9000005    1    1    2    0    0  0.15269765651E+02 -0.27893964343E+02  0.17168360204E+03  0.17460669574E+03  0.10000000000E+01 0.  0.
<mgrwt>
<rscale>  0 0.12492209E+03</rscale>
<asrwt>0</asrwt>
<pdfrwt beam="1">  1        4 0.28634261E-01 0.12492209E+03</pdfrwt>
<pdfrwt beam="2">  1       -4 0.32248224E-02 0.12492209E+03</pdfrwt>
<totfact> 0.89109478E+03</totfact>
</mgrwt>
</event>
<event>
 5    1  0.3398872E-002  0.1249992E+03  0.7818608E-02  0.1235070E+00
         -4   -1    0    0    0  501 -0.00000000000E+00  0.00000000000E+00  0.28369684287E+01  0.31082615504E+01  0.12700000000E+01 0.  1.
          4   -1    0    0  501    0  0.00000000000E+00 -0.00000000000E+00 -0.13137911955E+04  0.13137918093E+04  0.12700000000E+01 0.  1.
         25    2    1    2    0    0  0.00000000000E+00  0.00000000000E+00 -0.13109542271E+04  0.13169000709E+04  0.12499924487E+03 0.  0.
    9000005    1    3    3    0    0  0.51957656781E+02  0.74372486744E+01 -0.10127906659E+04  0.10141503062E+04  0.10000000000E+01 0.  0.
    9000005    1    3    3    0    0 -0.51957656781E+02 -0.74372486744E+01 -0.29816356118E+03  0.30274976462E+03  0.10000000000E+01 0.  0.
<mgrwt>
<rscale>  0 0.12499924E+03</rscale>
<asrwt>0</asrwt>
<pdfrwt beam="2">  1        4 0.20214217E+00 0.12499924E+03</pdfrwt>
<pdfrwt beam="1">  1       -4 0.45737365E-03 0.12499924E+03</pdfrwt>
<totfact> 0.21833558E+03</totfact>
</mgrwt>
</event>
<event>
 5    1  0.3398872E-002  0.1250114E+03  0.7818608E-02  0.1235051E+00
          4   -1    0    0  501    0  0.00000000000E+00  0.00000000000E+00  0.28329985014E+02  0.28358437032E+02  0.12700000000E+01 0.  1.
         -4   -1    0    0    0  501 -0.00000000000E+00 -0.00000000000E+00 -0.13780849114E+03  0.13781434298E+03  0.12700000000E+01 0.  1.
         25    2    1    2    0    0  0.00000000000E+00  0.00000000000E+00 -0.10947850613E+03  0.16617278001E+03  0.12501139753E+03 0.  0.
    9000005    1    3    3    0    0  0.75344351042E+00  0.59527863112E+02 -0.29454338547E+02  0.66428098143E+02  0.10000000000E+01 0.  0.
    9000005    1    3    3    0    0 -0.75344351042E+00 -0.59527863112E+02 -0.80024167581E+02  0.99744681867E+02  0.10000000000E+01 0.  0.
<mgrwt>
<rscale>  0 0.12501140E+03</rscale>
<asrwt>0</asrwt>
<pdfrwt beam="1">  1        4 0.43610981E-02 0.12501140E+03</pdfrwt>
<pdfrwt beam="2">  1       -4 0.21203945E-01 0.12501140E+03</pdfrwt>
<totfact> 0.96141131E+03</totfact>
</mgrwt>
</event>
<event>
 5    1  0.3398872E-002  0.1249918E+03  0.7818608E-02  0.1235082E+00
         -4   -1    0    0    0  501 -0.00000000000E+00  0.00000000000E+00  0.64536908813E+02  0.64549403554E+02  0.12700000000E+01 0. -1.
          4   -1    0    0  501    0  0.00000000000E+00 -0.00000000000E+00 -0.60494447677E+02  0.60507777184E+02  0.12700000000E+01 0. -1.
         25    2    1    2    0    0  0.00000000000E+00  0.00000000000E+00  0.40424611357E+01  0.12505718074E+03  0.12499182758E+03 0.  0.
    9000005    1    3    3    0    0 -0.14092573305E+01 -0.41289838053E+02  0.48927536080E+02  0.64044832107E+02  0.10000000000E+01 0.  0.
    9000005    1    3    3    0    0  0.14092573305E+01  0.41289838053E+02 -0.44885074944E+02  0.61012348631E+02  0.10000000000E+01 0.  0.
<mgrwt>
<rscale>  0 0.12499183E+03</rscale>
<asrwt>0</asrwt>
<pdfrwt beam="2">  1        4 0.93088246E-02 0.12499183E+03</pdfrwt>
<pdfrwt beam="1">  1       -4 0.99307417E-02 0.12499183E+03</pdfrwt>
<totfact> 0.10453551E+04</totfact>
</mgrwt>
</event>
<event>
 5    1  0.3398872E-002  0.1249976E+03  0.7818608E-02  0.1235073E+00
         -4   -1    0    0    0  501 -0.00000000000E+00  0.00000000000E+00  0.37003114530E+03  0.37003332471E+03  0.12700000000E+01 0.  1.
          4   -1    0    0  501    0  0.00000000000E+00 -0.00000000000E+00 -0.10515717445E+02  0.10592129785E+02  0.12700000000E+01 0.  1.
         25    2    1    2    0    0  0.00000000000E+00  0.00000000000E+00  0.35951542786E+03  0.38062545449E+03  0.12499757493E+03 0.  0.
    9000005    1    3    3    0    0 -0.36539149931E+02 -0.49758481113E+02  0.20929364727E+03  0.21821055590E+03  0.10000000000E+01 0.  0.
    9000005    1    3    3    0    0  0.36539149931E+02  0.49758481113E+02  0.15022178059E+03  0.16241489859E+03  0.10000000000E+01 0.  0.
<mgrwt>
<rscale>  0 0.12499757E+03</rscale>
<asrwt>0</asrwt>
<pdfrwt beam="2">  1        4 0.16238485E-02 0.12499757E+03</pdfrwt>
<pdfrwt beam="1">  1       -4 0.56933904E-01 0.12499757E+03</pdfrwt>
<totfact> 0.66485341E+03</totfact>
</mgrwt>
</event>
<event>
 5    1  0.3398872E-002  0.1250106E+03  0.7818608E-02  0.1235053E+00
         -4   -1    0    0    0  501 -0.00000000000E+00  0.00000000000E+00  0.33177271019E+03  0.33177514091E+03  0.12700000000E+01 0. -1.
          4   -1    0    0  501    0  0.00000000000E+00 -0.00000000000E+00 -0.11739139097E+02  0.11807636797E+02  0.12700000000E+01 0. -1.
         25    2    1    2    0    0  0.00000000000E+00  0.00000000000E+00  0.32003357110E+03  0.34358277771E+03  0.12501055360E+03 0.  0.
    9000005    1    3    3    0    0 -0.51890185736E+02  0.40823868541E+01  0.64941265283E+02  0.83232356657E+02  0.10000000000E+01 0.  0.
    9000005    1    3    3    0    0  0.51890185736E+02 -0.40823868541E+01  0.25509230581E+03  0.26035042105E+03  0.10000000000E+01 0.  0.
<mgrwt>
<rscale>  0 0.12501055E+03</rscale>
<asrwt>0</asrwt>
<pdfrwt beam="2">  1        4 0.18114775E-02 0.12501055E+03</pdfrwt>
<pdfrwt beam="1">  1       -4 0.51047408E-01 0.12501055E+03</pdfrwt>
<totfact> 0.70419893E+03</totfact>
</mgrwt>
</event>
<event>
 5    1  0.3398872E-002  0.1249994E+03  0.7818608E-02  0.1235070E+00
          4   -1    0    0  501    0  0.00000000000E+00  0.00000000000E+00  0.97389728550E+02  0.97398008845E+02  0.12700000000E+01 0.  1.
         -4   -1    0    0    0  501 -0.00000000000E+00 -0.00000000000E+00 -0.40089038711E+02  0.40109150137E+02  0.12700000000E+01 0.  1.
         25    2    1    2    0    0  0.00000000000E+00  0.00000000000E+00  0.57300689839E+02  0.13750715898E+03  0.12499939886E+03 0.  0.
    9000005    1    3    3    0    0 -0.47885074121E+02  0.36251576757E+02  0.96585592486E+01  0.60839501212E+02  0.10000000000E+01 0.  0.
    9000005    1    3    3    0    0  0.47885074121E+02 -0.36251576757E+02  0.47642130591E+02  0.76667657771E+02  0.10000000000E+01 0.  0.
<mgrwt>
<rscale>  0 0.12499940E+03</rscale>
<asrwt>0</asrwt>
<pdfrwt beam="1">  1        4 0.14985219E-01 0.12499940E+03</pdfrwt>
<pdfrwt beam="2">  1       -4 0.61697285E-02 0.12499940E+03</pdfrwt>
<totfact> 0.10185630E+04</totfact>
</mgrwt>
</event>
<event>
 5    1  0.3398872E-002  0.1250014E+03  0.7818608E-02  0.1235067E+00
          4   -1    0    0  501    0  0.00000000000E+00  0.00000000000E+00  0.27790385426E+02  0.27819389320E+02  0.12700000000E+01 0. -1.
         -4   -1    0    0    0  501 -0.00000000000E+00 -0.00000000000E+00 -0.14045923150E+03  0.14046497291E+03  0.12700000000E+01 0. -1.
         25    2    1    2    0    0  0.00000000000E+00  0.00000000000E+00 -0.11266884607E+03  0.16828436223E+03  0.12500143077E+03 0.  0.
    9000005    1    3    3    0    0  0.35798081933E+02 -0.38302521310E+02 -0.10546682850E+02  0.53486618214E+02  0.10000000000E+01 0.  0.
    9000005    1    3    3    0    0 -0.35798081933E+02  0.38302521310E+02 -0.10212216322E+03  0.11479774401E+03  0.10000000000E+01 0.  0.
<mgrwt>
<rscale>  0 0.12500143E+03</rscale>
<asrwt>0</asrwt>
<pdfrwt beam="1">  1        4 0.42781167E-02 0.12500143E+03</pdfrwt>
<pdfrwt beam="2">  1       -4 0.21611785E-01 0.12500143E+03</pdfrwt>
<totfact> 0.95765900E+03</totfact>
</mgrwt>
</event>
<event>
 5    1  0.3398872E-002  0.1249998E+03  0.7818608E-02  0.1235070E+00
         -4   -1    0    0    0  501 -0.00000000000E+00  0.00000000000E+00  0.52939050309E+02  0.52954281674E+02  0.12700000000E+01 0. -1.
          4   -1    0    0  501    0  0.00000000000E+00 -0.00000000000E+00 -0.73756078950E+02  0.73767012154E+02  0.12700000000E+01 0. -1.
         25    2    1    2    0    0  0.00000000000E+00  0.00000000000E+00 -0.20817028641E+02  0.12672129383E+03  0.12499975051E+03 0.  0.
    9000005    1    3    3    0    0 -0.26097528719E+02 -0.46268030933E+01 -0.67780741230E+02  0.72785418826E+02  0.10000000000E+01 0.  0.
    9000005    1    3    3    0    0  0.26097528719E+02  0.46268030933E+01  0.46963712589E+02  0.53935875002E+02  0.10000000000E+01 0.  0.
<mgrwt>
<rscale>  0 0.12499975E+03</rscale>
<asrwt>0</asrwt>
<pdfrwt beam="2">  1        4 0.11349102E-01 0.12499975E+03</pdfrwt>
<pdfrwt beam="1">  1       -4 0.81464819E-02 0.12499975E+03</pdfrwt>
<totfact> 0.10415265E+04</totfact>
</mgrwt>
</event>
<event>
 5    1  0.3398872E-002  0.1250004E+03  0.7818608E-02  0.1235069E+00
         -4   -1    0    0    0  501 -0.00000000000E+00  0.00000000000E+00  0.15939645635E+04  0.15939650694E+04  0.12700000000E+01 0. -1.
          4   -1    0    0  501    0  0.00000000000E+00 -0.00000000000E+00 -0.22855893622E+01  0.26147311014E+01  0.12700000000E+01 0. -1.
         25    2    1    2    0    0  0.00000000000E+00  0.00000000000E+00  0.15916789741E+04  0.15965798005E+04  0.12500041113E+03 0.  0.
    9000005    1    3    3    0    0  0.53959086451E+02  0.40379762862E+01  0.39652730081E+03  0.40020343396E+03  0.10000000000E+01 0.  0.
    9000005    1    3    3    0    0 -0.53959086451E+02 -0.40379762862E+01  0.11951516733E+04  0.11963763665E+04  0.10000000000E+01 0.  0.
<mgrwt>
<rscale>  0 0.12500041E+03</rscale>
<asrwt>0</asrwt>
<pdfrwt beam="2">  1        4 0.37698660E-03 0.12500041E+03</pdfrwt>
<pdfrwt beam="1">  1       -4 0.24525070E+00 0.12500041E+03</pdfrwt>
<totfact> 0.16107832E+03</totfact>
</mgrwt>
</event>
<event>
 5    1  0.3398872E-002  0.1250045E+03  0.7818608E-02  0.1235062E+00
          4   -1    0    0  501    0  0.00000000000E+00  0.00000000000E+00  0.32497891220E+01  0.34891301692E+01  0.12700000000E+01 0.  1.
         -4   -1    0    0    0  501 -0.00000000000E+00 -0.00000000000E+00 -0.11591538546E+04  0.11591545504E+04  0.12700000000E+01 0.  1.
         25    2    1    2    0    0  0.00000000000E+00  0.00000000000E+00 -0.11559040655E+04  0.11626436805E+04  0.12500447672E+03 0.  0.
    9000005    1    3    3    0    0  0.70741039161E+01 -0.51456658330E+02 -0.90117368975E+03  0.90266984536E+03  0.10000000000E+01 0.  0.
    9000005    1    3    3    0    0 -0.70741039161E+01  0.51456658330E+02 -0.25473037576E+03  0.25997383516E+03  0.10000000000E+01 0.  0.
<mgrwt>
<rscale>  0 0.12500448E+03</rscale>
<asrwt>0</asrwt>
<pdfrwt beam="1">  1        4 0.51843285E-03 0.12500448E+03</pdfrwt>
<pdfrwt beam="2">  1       -4 0.17834951E+00 0.12500448E+03</pdfrwt>
<totfact> 0.25709557E+03</totfact>
</mgrwt>
</event>
<event>
 5    1  0.3398872E-002  0.1250032E+03  0.7818608E-02  0.1235064E+00
         -4   -1    0    0    0  501 -0.00000000000E+00  0.00000000000E+00  0.39464949143E+03  0.39465153488E+03  0.12700000000E+01 0. -1.
          4   -1    0    0  501    0  0.00000000000E+00 -0.00000000000E+00 -0.98557114791E+01  0.99372002475E+01  0.12700000000E+01 0. -1.
         25    2    1    2    0    0  0.00000000000E+00  0.00000000000E+00  0.38479377995E+03  0.40458873513E+03  0.12500316598E+03 0.  0.
    9000005    1    3    3    0    0 -0.30409021641E+02 -0.28005157094E+02  0.34408567743E+03  0.34656161189E+03  0.10000000000E+01 0.  0.
    9000005    1    3    3    0    0  0.30409021641E+02  0.28005157094E+02  0.40708102516E+02  0.58027123240E+02  0.10000000000E+01 0.  0.
<mgrwt>
<rscale>  0 0.12500317E+03</rscale>
<asrwt>0</asrwt>
<pdfrwt beam="2">  1        4 0.15226887E-02 0.12500317E+03</pdfrwt>
<pdfrwt beam="1">  1       -4 0.60721740E-01 0.12500317E+03</pdfrwt>
<totfact> 0.64104441E+03</totfact>
</mgrwt>
</event>
<event>
 5    1  0.3398872E-002  0.1250014E+03  0.7818608E-02  0.1235067E+00
         -4   -1    0    0    0  501 -0.00000000000E+00  0.00000000000E+00  0.26397712181E+02  0.26428244520E+02  0.12700000000E+01 0. -1.
          4   -1    0    0  501    0  0.00000000000E+00 -0.00000000000E+00 -0.14786136719E+03  0.14786682119E+03  0.12700000000E+01 0. -1.
         25    2    1    2    0    0  0.00000000000E+00  0.00000000000E+00 -0.12146365501E+03  0.17429506571E+03  0.12500140176E+03 0.  0.
    9000005    1    3    3    0    0 -0.22778686612E+02  0.29950420264E+02  0.88380375048E+01  0.38665322250E+02  0.10000000000E+01 0.  0.
    9000005    1    3    3    0    0  0.22778686612E+02 -0.29950420264E+02 -0.13030169252E+03  0.13562974346E+03  0.10000000000E+01 0.  0.
<mgrwt>
<rscale>  0 0.12500140E+03</rscale>
<asrwt>0</asrwt>
<pdfrwt beam="2">  1        4 0.22750670E-01 0.12500140E+03</pdfrwt>
<pdfrwt beam="1">  1       -4 0.40639547E-02 0.12500140E+03</pdfrwt>
<totfact> 0.94651130E+03</totfact>
</mgrwt>
</event>
<event>
 5    1  0.3398872E-002  0.1249814E+03  0.7818608E-02  0.1235098E+00
         -4   -1    0    0    0  501 -0.00000000000E+00  0.00000000000E+00  0.21540656969E+02  0.21578062996E+02  0.12700000000E+01 0. -1.
          4   -1    0    0  501    0  0.00000000000E+00 -0.00000000000E+00 -0.18109237993E+03  0.18109683312E+03  0.12700000000E+01 0. -1.
         25    2    1    2    0    0  0.00000000000E+00  0.00000000000E+00 -0.15955172296E+03  0.20267489612E+03  0.12498144349E+03 0.  0.
    9000005    1    3    3    0    0  0.15266041260E+02 -0.58672928678E+02 -0.10429030134E+03  0.12063594626E+03  0.10000000000E+01 0.  0.
    9000005    1    3    3    0    0 -0.15266041260E+02  0.58672928678E+02 -0.55261421616E+02  0.82038949862E+02  0.10000000000E+01 0.  0.
<mgrwt>
<rscale>  0 0.12498144E+03</rscale>
<asrwt>0</asrwt>
<pdfrwt beam="2">  1        4 0.27863585E-01 0.12498144E+03</pdfrwt>
<pdfrwt beam="1">  1       -4 0.33171673E-02 0.12498144E+03</pdfrwt>
<totfact> 0.89723559E+03</totfact>
</mgrwt>
</event>
<event>
 5    1  0.3398872E-002  0.1249930E+03  0.7818608E-02  0.1235080E+00
          4   -1    0    0  501    0  0.00000000000E+00  0.00000000000E+00  0.21768138110E+01  0.25202020490E+01  0.12700000000E+01 0. -1.
         -4   -1    0    0    0  501 -0.00000000000E+00 -0.00000000000E+00 -0.16627597479E+04  0.16627602329E+04  0.12700000000E+01 0. -1.
         25    2    1    2    0    0  0.00000000000E+00  0.00000000000E+00 -0.16605829341E+04  0.16652804349E+04  0.12499298404E+03 0.  0.
    9000005    1    3    3    0    0 -0.30197284090E+02  0.11569526031E+02 -0.15426768827E+04  0.15430161030E+04  0.10000000000E+01 0.  0.
    9000005    1    3    3    0    0  0.30197284090E+02 -0.11569526031E+02 -0.11790605142E+03  0.12226433193E+03  0.10000000000E+01 0.  0.
<mgrwt>
<rscale>  0 0.12499298E+03</rscale>
<asrwt>0</asrwt>
<pdfrwt beam="1">  1        4 0.36134755E-03 0.12499298E+03</pdfrwt>
<pdfrwt beam="2">  1       -4 0.25583470E+00 0.12499298E+03</pdfrwt>
<totfact> 0.14897869E+03</totfact>
</mgrwt>
</event>
<event>
 4    1  0.3398872E-002  0.1252775E+03  0.7818608E-02  0.1234636E+00
         -4   -1    0    0    0  501 -0.00000000000E+00  0.00000000000E+00  0.13554202028E+02  0.13613570165E+02  0.12700000000E+01 0. -1.
          4   -1    0    0  501    0  0.00000000000E+00 -0.00000000000E+00 -0.28878230865E+03  0.28878510123E+03  0.12700000000E+01 0. -1.
    9000005    1    1    2    0    0  0.43452278830E+01  0.43519344126E+02 -0.24582794037E+03  0.24969018921E+03  0.10000000000E+01 0.  0.
    9000005    1    1    2    0    0 -0.43452278830E+01 -0.43519344126E+02 -0.29400166251E+02  0.52708482184E+02  0.10000000000E+01 0.  0.
<mgrwt>
<rscale>  0 0.12527748E+03</rscale>
<asrwt>0</asrwt>
<pdfrwt beam="2">  1        4 0.44432824E-01 0.12527748E+03</pdfrwt>
<pdfrwt beam="1">  1       -4 0.20900437E-02 0.12527748E+03</pdfrwt>
<totfact> 0.74837065E+03</totfact>
</mgrwt>
</event>
<event>
 5    1  0.3398872E-002  0.1249983E+03  0.7818608E-02  0.1235072E+00
          4   -1    0    0  501    0  0.00000000000E+00  0.00000000000E+00  0.53083643066E+01  0.54581710867E+01  0.12700000000E+01 0.  1.
         -4   -1    0    0    0  501 -0.00000000000E+00 -0.00000000000E+00 -0.72545848125E+03  0.72545959289E+03  0.12700000000E+01 0.  1.
         25    2    1    2    0    0  0.00000000000E+00  0.00000000000E+00 -0.72015011695E+03  0.73091776398E+03  0.12499834705E+03 0.  0.
    9000005    1    3    3    0    0 -0.21139532724E+02  0.49535717707E+02 -0.17474972517E+03  0.18286370230E+03  0.10000000000E+01 0.  0.
    9000005    1    3    3    0    0  0.21139532724E+02 -0.49535717707E+02 -0.54540039178E+03  0.54805406168E+03  0.10000000000E+01 0.  0.
<mgrwt>
<rscale>  0 0.12499835E+03</rscale>
<asrwt>0</asrwt>
<pdfrwt beam="1">  1        4 0.82828112E-03 0.12499835E+03</pdfrwt>
<pdfrwt beam="2">  1       -4 0.11162053E+00 0.12499835E+03</pdfrwt>
<totfact> 0.41505416E+03</totfact>
</mgrwt>
</event>
<event>
 5    1  0.3398872E-002  0.1249968E+03  0.7818608E-02  0.1235074E+00
         -4   -1    0    0    0  501 -0.00000000000E+00  0.00000000000E+00  0.11345980110E+03  0.11346690868E+03  0.12700000000E+01 0.  1.
          4   -1    0    0  501    0  0.00000000000E+00 -0.00000000000E+00 -0.34406854507E+02  0.34430285173E+02  0.12700000000E+01 0.  1.
         25    2    1    2    0    0  0.00000000000E+00  0.00000000000E+00  0.79052946588E+02  0.14789719385E+03  0.12499684630E+03 0.  0.
    9000005    1    3    3    0    0  0.32719267713E+00 -0.39723506808E+02  0.96603064674E+02  0.10445676691E+03  0.10000000000E+01 0.  0.
    9000005    1    3    3    0    0 -0.32719267713E+00  0.39723506808E+02 -0.17550118086E+02  0.43440426943E+02  0.10000000000E+01 0.  0.
<mgrwt>
<rscale>  0 0.12499685E+03</rscale>
<asrwt>0</asrwt>
<pdfrwt beam="2">  1        4 0.52957113E-02 0.12499685E+03</pdfrwt>
<pdfrwt beam="1">  1       -4 0.17457703E-01 0.12499685E+03</pdfrwt>
<totfact> 0.99731604E+03</totfact>
</mgrwt>
</event>
<event>
 5    1  0.3398872E-002  0.1249973E+03  0.7818608E-02  0.1235074E+00
          4   -1    0    0  501    0  0.00000000000E+00  0.00000000000E+00  0.29185135901E+02  0.29212755049E+02  0.12700000000E+01 0. -1.
         -4   -1    0    0    0  501 -0.00000000000E+00 -0.00000000000E+00 -0.13374403191E+03  0.13375006158E+03  0.12700000000E+01 0. -1.
         25    2    1    2    0    0  0.00000000000E+00  0.00000000000E+00 -0.10455889601E+03  0.16296281663E+03  0.12499726744E+03 0.  0.
    9000005    1    3    3    0    0  0.33655372913E+02  0.17920916985E+02  0.12268219168E+02  0.40066851549E+02  0.10000000000E+01 0.  0.
    9000005    1    3    3    0    0 -0.33655372913E+02 -0.17920916985E+02 -0.11682711518E+03  0.12289596508E+03  0.10000000000E+01 0.  0.
<mgrwt>
<rscale>  0 0.12499727E+03</rscale>
<asrwt>0</asrwt>
<pdfrwt beam="1">  1        4 0.44926093E-02 0.12499727E+03</pdfrwt>
<pdfrwt beam="2">  1       -4 0.20578593E-01 0.12499727E+03</pdfrwt>
<totfact> 0.96780542E+03</totfact>
</mgrwt>
</event>
<event>
 5    1  0.3398872E-002  0.1249920E+03  0.7818608E-02  0.1235082E+00
         -4   -1    0    0    0  501 -0.00000000000E+00  0.00000000000E+00  0.19615605548E+02  0.19656675228E+02  0.12700000000E+01 0.  1.
          4   -1    0    0  501    0  0.00000000000E+00 -0.00000000000E+00 -0.19886302338E+03  0.19886707864E+03  0.12700000000E+01 0.  1.
         25    2    1    2    0    0  0.00000000000E+00  0.00000000000E+00 -0.17924741783E+03  0.21852375387E+03  0.12499197657E+03 0.  0.
    9000005    1    3    3    0    0 -0.18343436131E+02  0.13694074748E+02  0.12029794855E+02  0.25879051307E+02  0.10000000000E+01 0.  0.
    9000005    1    3    3    0    0  0.18343436131E+02 -0.13694074748E+02 -0.19127721269E+03  0.19264470256E+03  0.10000000000E+01 0.  0.
<mgrwt>
<rscale>  0 0.12499198E+03</rscale>
<asrwt>0</asrwt>
<pdfrwt beam="2">  1        4 0.30597781E-01 0.12499198E+03</pdfrwt>
<pdfrwt beam="1">  1       -4 0.30212568E-02 0.12499198E+03</pdfrwt>
<totfact> 0.87118101E+03</totfact>
</mgrwt>
</event>
<event>
 5    1  0.3398872E-002  0.1250003E+03  0.7818608E-02  0.1235069E+00
          4   -1    0    0  501    0  0.00000000000E+00  0.00000000000E+00  0.22302038822E+02  0.22338169925E+02  0.12700000000E+01 0.  1.
         -4   -1    0    0    0  501 -0.00000000000E+00 -0.00000000000E+00 -0.17497280126E+03  0.17497741020E+03  0.12700000000E+01 0.  1.
         25    2    1    2    0    0  0.00000000000E+00  0.00000000000E+00 -0.15267076243E+03  0.19731558012E+03  0.12500030583E+03 0.  0.
    9000005    1    3    3    0    0  0.59503330535E+02  0.40997647684E+01 -0.46896298858E+02  0.75879623500E+02  0.10000000000E+01 0.  0.
    9000005    1    3    3    0    0 -0.59503330535E+02 -0.40997647684E+01 -0.10577446358E+03  0.12143595662E+03  0.10000000000E+01 0.  0.
<mgrwt>
<rscale>  0 0.12500031E+03</rscale>
<asrwt>0</asrwt>
<pdfrwt beam="1">  1        4 0.34342169E-02 0.12500031E+03</pdfrwt>
<pdfrwt beam="2">  1       -4 0.26922025E-01 0.12500031E+03</pdfrwt>
<totfact> 0.90589158E+03</totfact>
</mgrwt>
</event>
<event>
 5    1  0.3398872E-002  0.1249969E+03  0.7818608E-02  0.1235074E+00
          4   -1    0    0  501    0  0.00000000000E+00  0.00000000000E+00  0.72724004083E+01  0.73824594613E+01  0.12700000000E+01 0.  1.
         -4   -1    0    0    0  501 -0.00000000000E+00 -0.00000000000E+00 -0.53296207979E+03  0.53296359293E+03  0.12700000000E+01 0.  1.
         25    2    1    2    0    0  0.00000000000E+00  0.00000000000E+00 -0.52568967938E+03  0.54034605239E+03  0.12499686929E+03 0.  0.
    9000005    1    3    3    0    0  0.16638111141E+02 -0.59284295850E+02 -0.21677022224E+03  0.22534813895E+03  0.10000000000E+01 0.  0.
    9000005    1    3    3    0    0 -0.16638111141E+02  0.59284295850E+02 -0.30891945713E+03  0.31499791344E+03  0.10000000000E+01 0.  0.
<mgrwt>
<rscale>  0 0.12499687E+03</rscale>
<asrwt>0</asrwt>
<pdfrwt beam="1">  1        4 0.11274137E-02 0.12499687E+03</pdfrwt>
<pdfrwt beam="2">  1       -4 0.82002718E-01 0.12499687E+03</pdfrwt>
<totfact> 0.52868133E+03</totfact>
</mgrwt>
</event>
<event>
 5    1  0.3398872E-002  0.1250016E+03  0.7818608E-02  0.1235067E+00
         -4   -1    0    0    0  501 -0.00000000000E+00  0.00000000000E+00  0.66407852028E+02  0.66419994813E+02  0.12700000000E+01 0.  1.
          4   -1    0    0  501    0  0.00000000000E+00 -0.00000000000E+00 -0.58799255151E+02  0.58812968862E+02  0.12700000000E+01 0.  1.
         25    2    1    2    0    0  0.00000000000E+00  0.00000000000E+00  0.76085968765E+01  0.12523296367E+03  0.12500161777E+03 0.  0.
    9000005    1    3    3    0    0 -0.32368901324E+02  0.52655554090E+02 -0.54321982795E+01  0.62055313451E+02  0.10000000000E+01 0.  0.
    9000005    1    3    3    0    0  0.32368901324E+02 -0.52655554090E+02  0.13040795156E+02  0.63177650223E+02  0.10000000000E+01 0.  0.
<mgrwt>
<rscale>  0 0.12500162E+03</rscale>
<asrwt>0</asrwt>
<pdfrwt beam="2">  1        4 0.90480282E-02 0.12500162E+03</pdfrwt>
<pdfrwt beam="1">  1       -4 0.10218582E-01 0.12500162E+03</pdfrwt>
<totfact> 0.10447423E+04</totfact>
</mgrwt>
</event>
<event>
 5    1  0.3398872E-002  0.1249971E+03  0.7818608E-02  0.1235074E+00
         -4   -1    0    0    0  501 -0.00000000000E+00  0.00000000000E+00  0.19586204364E+02  0.19627335565E+02  0.12700000000E+01 0. -1.
          4   -1    0    0  501    0  0.00000000000E+00 -0.00000000000E+00 -0.19917730434E+03  0.19918135320E+03  0.12700000000E+01 0. -1.
         25    2    1    2    0    0  0.00000000000E+00  0.00000000000E+00 -0.17959109998E+03  0.21880868877E+03  0.12499711633E+03 0.  0.
    9000005    1    3    3    0    0 -0.61448610985E+02 -0.93230269534E+01 -0.78421390683E+02  0.10006880203E+03  0.10000000000E+01 0.  0.
    9000005    1    3    3    0    0  0.61448610985E+02  0.93230269534E+01 -0.10116970929E+03  0.11873988674E+03  0.10000000000E+01 0.  0.
<mgrwt>
<rscale>  0 0.12499712E+03</rscale>
<asrwt>0</asrwt>
<pdfrwt beam="2">  1        4 0.30646136E-01 0.12499712E+03</pdfrwt>
<pdfrwt beam="1">  1       -4 0.30167377E-02 0.12499712E+03</pdfrwt>
<totfact> 0.87062820E+03</totfact>
</mgrwt>
</event>
<event>
 5    1  0.3398872E-002  0.1249993E+03  0.7818608E-02  0.1235070E+00
         -4   -1    0    0    0  501 -0.00000000000E+00  0.00000000000E+00  0.65143625584E+03  0.65143749380E+03  0.12700000000E+01 0.  1.
          4   -1    0    0  501    0  0.00000000000E+00 -0.00000000000E+00 -0.59277939412E+01  0.60623131731E+01  0.12700000000E+01 0.  1.
         25    2    1    2    0    0  0.00000000000E+00  0.00000000000E+00  0.64550846190E+03  0.65749980697E+03  0.12499928712E+03 0.  0.
    9000005    1    3    3    0    0  0.20740074963E+02 -0.28178358943E+02  0.59511171955E+03  0.59614019272E+03  0.10000000000E+01 0.  0.
    9000005    1    3    3    0    0 -0.20740074963E+02  0.28178358943E+02  0.50396742346E+02  0.61359614253E+02  0.10000000000E+01 0.  0.
<mgrwt>
<rscale>  0 0.12499929E+03</rscale>
<asrwt>0</asrwt>
<pdfrwt beam="2">  1        4 0.92241179E-03 0.12499929E+03</pdfrwt>
<pdfrwt beam="1">  1       -4 0.10023134E+00 0.12499929E+03</pdfrwt>
<totfact> 0.45427675E+03</totfact>
</mgrwt>
</event>
<event>
 5    1  0.3398872E-002  0.1250138E+03  0.7818608E-02  0.1235048E+00
          4   -1    0    0  501    0  0.00000000000E+00  0.00000000000E+00  0.49393095274E+03  0.49393258545E+03  0.12700000000E+01 0.  1.
         -4   -1    0    0    0  501 -0.00000000000E+00 -0.00000000000E+00 -0.78576092206E+01  0.79595805583E+01  0.12700000000E+01 0.  1.
         25    2    1    2    0    0  0.00000000000E+00  0.00000000000E+00  0.48607334351E+03  0.50189216601E+03  0.12501380334E+03 0.  0.
    9000005    1    3    3    0    0 -0.22642796754E+02 -0.57771133270E+02  0.27305645648E+03  0.28001969308E+03  0.10000000000E+01 0.  0.
    9000005    1    3    3    0    0  0.22642796754E+02  0.57771133270E+02  0.21301688703E+03  0.22187247293E+03  0.10000000000E+01 0.  0.
<mgrwt>
<rscale>  0 0.12501380E+03</rscale>
<asrwt>0</asrwt>
<pdfrwt beam="1">  1        4 0.75997388E-01 0.12501380E+03</pdfrwt>
<pdfrwt beam="2">  1       -4 0.12168318E-02 0.12501380E+03</pdfrwt>
<totfact> 0.55700928E+03</totfact>
</mgrwt>
</event>
<event>
 5    1  0.3398872E-002  0.1249866E+03  0.7818608E-02  0.1235090E+00
          4   -1    0    0  501    0  0.00000000000E+00  0.00000000000E+00  0.78351881599E+03  0.78351984526E+03  0.12700000000E+01 0. -1.
         -4   -1    0    0    0  501 -0.00000000000E+00 -0.00000000000E+00 -0.49025102989E+01  0.50643368007E+01  0.12700000000E+01 0. -1.
         25    2    1    2    0    0  0.00000000000E+00  0.00000000000E+00  0.77861630569E+03  0.78858418206E+03  0.12498664210E+03 0.  0.
    9000005    1    3    3    0    0 -0.49850821972E+02 -0.15895485136E+02  0.17380497018E+03  0.18151291568E+03  0.10000000000E+01 0.  0.
    9000005    1    3    3    0    0  0.49850821972E+02  0.15895485136E+02  0.60481133551E+03  0.60707126638E+03  0.10000000000E+01 0.  0.
<mgrwt>
<rscale>  0 0.12498664E+03</rscale>
<asrwt>0</asrwt>
<pdfrwt beam="1">  1        4 0.12055399E+00 0.12498664E+03</pdfrwt>
<pdfrwt beam="2">  1       -4 0.76675903E-03 0.12498664E+03</pdfrwt>
<totfact> 0.38790757E+03</totfact>
</mgrwt>
</event>
<event>
 5    1  0.3398872E-002  0.1249892E+03  0.7818608E-02  0.1235086E+00
         -4   -1    0    0    0  501 -0.00000000000E+00  0.00000000000E+00  0.67247500873E+02  0.67259492072E+02  0.12700000000E+01 0.  1.
          4   -1    0    0  501    0  0.00000000000E+00 -0.00000000000E+00 -0.58053498528E+02  0.58067388363E+02  0.12700000000E+01 0.  1.
         25    2    1    2    0    0  0.00000000000E+00  0.00000000000E+00  0.91940023457E+01  0.12532688043E+03  0.12498918865E+03 0.  0.
    9000005    1    3    3    0    0 -0.54198312233E+02 -0.10249517043E+01 -0.26568588399E+02  0.60377126997E+02  0.10000000000E+01 0.  0.
    9000005    1    3    3    0    0  0.54198312233E+02  0.10249517043E+01  0.35762590745E+02  0.64949753438E+02  0.10000000000E+01 0.  0.
<mgrwt>
<rscale>  0 0.12498919E+03</rscale>
<asrwt>0</asrwt>
<pdfrwt beam="2">  1        4 0.89332983E-02 0.12498919E+03</pdfrwt>
<pdfrwt beam="1">  1       -4 0.10347760E-01 0.12498919E+03</pdfrwt>
<totfact> 0.10448319E+04</totfact>
</mgrwt>
</event>
<event>
 5    1  0.3398872E-002  0.1250030E+03  0.7818608E-02  0.1235065E+00
          4   -1    0    0  501    0  0.00000000000E+00  0.00000000000E+00  0.27292180720E+03  0.27292476206E+03  0.12700000000E+01 0.  1.
         -4   -1    0    0    0  501 -0.00000000000E+00 -0.00000000000E+00 -0.14282190719E+02  0.14338544966E+02  0.12700000000E+01 0.  1.
         25    2    1    2    0    0  0.00000000000E+00  0.00000000000E+00  0.25863961648E+03  0.28726330703E+03  0.12500302536E+03 0.  0.
    9000005    1    3    3    0    0 -0.93134143905E+01  0.10531456847E+02 -0.10612200428E+02  0.17642847527E+02  0.10000000000E+01 0.  0.
    9000005    1    3    3    0    0  0.93134143905E+01 -0.10531456847E+02  0.26925181691E+03  0.26962045950E+03  0.10000000000E+01 0.  0.
<mgrwt>
<rscale>  0 0.12500303E+03</rscale>
<asrwt>0</asrwt>
<pdfrwt beam="1">  1        4 0.41992529E-01 0.12500303E+03</pdfrwt>
<pdfrwt beam="2">  1       -4 0.22018226E-02 0.12500303E+03</pdfrwt>
<totfact> 0.77219607E+03</totfact>
</mgrwt>
</event>
<event>
 5    1  0.3398872E-002  0.1249999E+03  0.7818608E-02  0.1235069E+00
         -4   -1    0    0    0  501 -0.00000000000E+00  0.00000000000E+00  0.13198822655E+03  0.13199433643E+03  0.12700000000E+01 0.  1.
          4   -1    0    0  501    0  0.00000000000E+00 -0.00000000000E+00 -0.29574991467E+02  0.29602246879E+02  0.12700000000E+01 0.  1.
         25    2    1    2    0    0  0.00000000000E+00  0.00000000000E+00  0.10241323509E+03  0.16159658331E+03  0.12499994006E+03 0.  0.
    9000005    1    3    3    0    0 -0.56883287349E+02  0.69139714828E+01  0.83441417763E+02  0.10122737564E+03  0.10000000000E+01 0.  0.
    9000005    1    3    3    0    0  0.56883287349E+02 -0.69139714828E+01  0.18971817325E+02  0.60369207664E+02  0.10000000000E+01 0.  0.
<mgrwt>
<rscale>  0 0.12499994E+03</rscale>
<asrwt>0</asrwt>
<pdfrwt beam="2">  1        4 0.45525652E-02 0.12499994E+03</pdfrwt>
<pdfrwt beam="1">  1       -4 0.20308448E-01 0.12499994E+03</pdfrwt>
<totfact> 0.97035987E+03</totfact>
</mgrwt>
</event>
<event>
 5    1  0.3398872E-002  0.1249958E+03  0.7818608E-02  0.1235076E+00
          4   -1    0    0  501    0  0.00000000000E+00  0.00000000000E+00  0.41251035912E+03  0.41251231410E+03  0.12700000000E+01 0.  1.
         -4   -1    0    0    0  501 -0.00000000000E+00 -0.00000000000E+00 -0.94242510255E+01  0.95094378063E+01  0.12700000000E+01 0.  1.
         25    2    1    2    0    0  0.00000000000E+00  0.00000000000E+00  0.40308610809E+03  0.42202175190E+03  0.12499579409E+03 0.  0.
    9000005    1    3    3    0    0 -0.57877793101E+02 -0.84831414428E+01  0.27575877977E+03  0.28189662510E+03  0.10000000000E+01 0.  0.
    9000005    1    3    3    0    0  0.57877793101E+02  0.84831414428E+01  0.12732732832E+03  0.14012512680E+03  0.10000000000E+01 0.  0.
<mgrwt>
<rscale>  0 0.12499579E+03</rscale>
<asrwt>0</asrwt>
<pdfrwt beam="1">  1        4 0.63469835E-01 0.12499579E+03</pdfrwt>
<pdfrwt beam="2">  1       -4 0.14565880E-02 0.12499579E+03</pdfrwt>
<totfact> 0.62471682E+03</totfact>
</mgrwt>
</event>
<event>
 5    1  0.3398872E-002  0.1250007E+03  0.7818608E-02  0.1235068E+00
         -4   -1    0    0    0  501 -0.00000000000E+00  0.00000000000E+00  0.41404745137E+02  0.41424217794E+02  0.12700000000E+01 0. -1.
          4   -1    0    0  501    0  0.00000000000E+00 -0.00000000000E+00 -0.94298144593E+02  0.94306696335E+02  0.12700000000E+01 0. -1.
         25    2    1    2    0    0  0.00000000000E+00  0.00000000000E+00 -0.52893399456E+02  0.13573091413E+03  0.12500067738E+03 0.  0.
    9000005    1    3    3    0    0 -0.30400838698E+02 -0.21564670389E+02 -0.80912730214E+02  0.89090492833E+02  0.10000000000E+01 0.  0.
    9000005    1    3    3    0    0  0.30400838698E+02  0.21564670389E+02  0.28019330758E+02  0.46640421296E+02  0.10000000000E+01 0.  0.
<mgrwt>
<rscale>  0 0.12500068E+03</rscale>
<asrwt>0</asrwt>
<pdfrwt beam="2">  1        4 0.14509563E-01 0.12500068E+03</pdfrwt>
<pdfrwt beam="1">  1       -4 0.63721165E-02 0.12500068E+03</pdfrwt>
<totfact> 0.10222532E+04</totfact>
</mgrwt>
</event>
<event>
 5    1  0.3398872E-002  0.1250004E+03  0.7818608E-02  0.1235069E+00
         -4   -1    0    0    0  501 -0.00000000000E+00  0.00000000000E+00  0.68538152171E+02  0.68549917600E+02  0.12700000000E+01 0.  1.
          4   -1    0    0  501    0  0.00000000000E+00 -0.00000000000E+00 -0.56970461114E+02  0.56984614937E+02  0.12700000000E+01 0.  1.
         25    2    1    2    0    0  0.00000000000E+00  0.00000000000E+00  0.11567691057E+02  0.12553453254E+03  0.12500042953E+03 0.  0.
    9000005    1    3    3    0    0  0.80559070233E+01  0.54687917335E+02 -0.23488784477E+02  0.60069867127E+02  0.10000000000E+01 0.  0.
    9000005    1    3    3    0    0 -0.80559070233E+01 -0.54687917335E+02  0.35056475533E+02  0.65464665410E+02  0.10000000000E+01 0.  0.
<mgrwt>
<rscale>  0 0.12500043E+03</rscale>
<asrwt>0</asrwt>
<pdfrwt beam="2">  1        4 0.87666801E-02 0.12500043E+03</pdfrwt>
<pdfrwt beam="1">  1       -4 0.10546325E-01 0.12500043E+03</pdfrwt>
<totfact> 0.10441090E+04</totfact>
</mgrwt>
</event>
<event>
 5    1  0.3398872E-002  0.1249995E+03  0.7818608E-02  0.1235070E+00
          4   -1    0    0  501    0  0.00000000000E+00  0.00000000000E+00  0.69357409843E+03  0.69357526117E+03  0.12700000000E+01 0. -1.
         -4   -1    0    0    0  501 -0.00000000000E+00 -0.00000000000E+00 -0.55592396519E+01  0.57024596015E+01  0.12700000000E+01 0. -1.
         25    2    1    2    0    0  0.00000000000E+00  0.00000000000E+00  0.68801485878E+03  0.69927772077E+03  0.12499953949E+03 0.  0.
    9000005    1    3    3    0    0  0.32197495218E+02 -0.25336020427E+02  0.80030988494E+02  0.89914135423E+02  0.10000000000E+01 0.  0.
    9000005    1    3    3    0    0 -0.32197495218E+02  0.25336020427E+02  0.60798387028E+03  0.60936358535E+03  0.10000000000E+01 0.  0.
<mgrwt>
<rscale>  0 0.12499954E+03</rscale>
<asrwt>0</asrwt>
<pdfrwt beam="1">  1        4 0.10671483E+00 0.12499954E+03</pdfrwt>
<pdfrwt beam="2">  1       -4 0.86637383E-03 0.12499954E+03</pdfrwt>
<totfact> 0.43125271E+03</totfact>
</mgrwt>
</event>
<event>
 5    1  0.3398872E-002  0.1250011E+03  0.7818608E-02  0.1235068E+00
          4   -1    0    0  501    0  0.00000000000E+00  0.00000000000E+00  0.49632871982E+01  0.51231942977E+01  0.12700000000E+01 0. -1.
         -4   -1    0    0    0  501 -0.00000000000E+00 -0.00000000000E+00 -0.77440454109E+03  0.77440558247E+03  0.12700000000E+01 0. -1.
         25    2    1    2    0    0  0.00000000000E+00  0.00000000000E+00 -0.76944125389E+03  0.77952877676E+03  0.12500108247E+03 0.  0.
    9000005    1    3    3    0    0  0.61349596079E+02 -0.68531439261E+01 -0.44536856563E+03  0.44962751003E+03  0.10000000000E+01 0.  0.
    9000005    1    3    3    0    0 -0.61349596079E+02  0.68531439261E+01 -0.32407268826E+03  0.32990126674E+03  0.10000000000E+01 0.  0.
<mgrwt>
<rscale>  0 0.12500108E+03</rscale>
<asrwt>0</asrwt>
<pdfrwt beam="1">  1        4 0.77596391E-03 0.12500108E+03</pdfrwt>
<pdfrwt beam="2">  1       -4 0.11915145E+00 0.12500108E+03</pdfrwt>
<totfact> 0.39194209E+03</totfact>
</mgrwt>
</event>
<event>
 4    1  0.3398872E-002  0.1250710E+03  0.7818608E-02  0.1234958E+00
          4   -1    0    0  501    0  0.00000000000E+00  0.00000000000E+00  0.19583160662E+03  0.19583572466E+03  0.12700000000E+01 0. -1.
         -4   -1    0    0    0  501 -0.00000000000E+00 -0.00000000000E+00 -0.19945126767E+02  0.19985519302E+02  0.12700000000E+01 0. -1.
    9000005    1    1    2    0    0  0.41850852267E+02  0.29029722117E+01  0.79352537364E+01  0.42707017398E+02  0.10000000000E+01 0.  0.
    9000005    1    1    2    0    0 -0.41850852267E+02 -0.29029722117E+01  0.16795122612E+03  0.17311422656E+03  0.10000000000E+01 0.  0.
<mgrwt>
<rscale>  0 0.12507100E+03</rscale>
<asrwt>0</asrwt>
<pdfrwt beam="1">  1        4 0.30131364E-01 0.12507100E+03</pdfrwt>
<pdfrwt beam="2">  1       -4 0.30719048E-02 0.12507100E+03</pdfrwt>
<totfact> 0.87395201E+03</totfact>
</mgrwt>
</event>
<event>
 5    1  0.3398872E-002  0.1249979E+03  0.7818608E-02  0.1235073E+00
         -4   -1    0    0    0  501 -0.00000000000E+00  0.00000000000E+00  0.13564666206E+03  0.13565260716E+03  0.12700000000E+01 0. -1.
          4   -1    0    0  501    0  0.00000000000E+00 -0.00000000000E+00 -0.28775711299E+02  0.28803723036E+02  0.12700000000E+01 0. -1.
         25    2    1    2    0    0  0.00000000000E+00  0.00000000000E+00  0.10687095076E+03  0.16445633019E+03  0.12499793768E+03 0.  0.
    9000005    1    3    3    0    0 -0.28271687548E+02  0.55544629128E+02  0.59410853661E+02  0.86111228505E+02  0.10000000000E+01 0.  0.
    9000005    1    3    3    0    0  0.28271687548E+02 -0.55544629128E+02  0.47460097103E+02  0.78345101690E+02  0.10000000000E+01 0.  0.
<mgrwt>
<rscale>  0 0.12499794E+03</rscale>
<asrwt>0</asrwt>
<pdfrwt beam="2">  1        4 0.44296446E-02 0.12499794E+03</pdfrwt>
<pdfrwt beam="1">  1       -4 0.20871329E-01 0.12499794E+03</pdfrwt>
<totfact> 0.96494925E+03</totfact>
</mgrwt>
</event>
<event>
 5    1  0.3398872E-002  0.1249943E+03  0.7818608E-02  0.1235078E+00
         -4   -1    0    0    0  501 -0.00000000000E+00  0.00000000000E+00  0.16381241558E+03  0.16381733852E+03  0.12700000000E+01 0. -1.
          4   -1    0    0  501    0  0.00000000000E+00 -0.00000000000E+00 -0.23821512142E+02  0.23855341975E+02  0.12700000000E+01 0. -1.
         25    2    1    2    0    0  0.00000000000E+00  0.00000000000E+00  0.13999090344E+03  0.18767268049E+03  0.12499432770E+03 0.  0.
    9000005    1    3    3    0    0  0.50249328582E+02 -0.26541154325E+02  0.30973138460E+02  0.64728380188E+02  0.10000000000E+01 0.  0.
    9000005    1    3    3    0    0 -0.50249328582E+02  0.26541154325E+02  0.10901776498E+03  0.12294430031E+03  0.10000000000E+01 0.  0.
<mgrwt>
<rscale>  0 0.12499433E+03</rscale>
<asrwt>0</asrwt>
<pdfrwt beam="2">  1        4 0.36678292E-02 0.12499433E+03</pdfrwt>
<pdfrwt beam="1">  1       -4 0.25204890E-01 0.12499433E+03</pdfrwt>
<totfact> 0.92265570E+03</totfact>
</mgrwt>
</event>
<event>
 5    1  0.3398872E-002  0.1249780E+03  0.7818608E-02  0.1235104E+00
          4   -1    0    0  501    0  0.00000000000E+00  0.00000000000E+00  0.14463244520E+03  0.14463802095E+03  0.12700000000E+01 0.  1.
         -4   -1    0    0    0  501 -0.00000000000E+00 -0.00000000000E+00 -0.26977562612E+02  0.27007439428E+02  0.12700000000E+01 0.  1.
         25    2    1    2    0    0  0.00000000000E+00  0.00000000000E+00  0.11765488259E+03  0.17164546038E+03  0.12497796875E+03 0.  0.
    9000005    1    3    3    0    0  0.17264321755E+02  0.46869130698E+02  0.11038233714E+03  0.12116118426E+03  0.10000000000E+01 0.  0.
    9000005    1    3    3    0    0 -0.17264321755E+02 -0.46869130698E+02  0.72725454455E+01  0.50484276120E+02  0.10000000000E+01 0.  0.
<mgrwt>
<rscale>  0 0.12497797E+03</rscale>
<asrwt>0</asrwt>
<pdfrwt beam="1">  1        4 0.22253873E-01 0.12497797E+03</pdfrwt>
<pdfrwt beam="2">  1       -4 0.41531213E-02 0.12497797E+03</pdfrwt>
<totfact> 0.95189886E+03</totfact>
</mgrwt>
</event>
<event>
 5    1  0.3398872E-002  0.1250003E+03  0.7818608E-02  0.1235069E+00
         -4   -1    0    0    0  501 -0.00000000000E+00  0.00000000000E+00  0.14166743663E+03  0.14167312907E+03  0.12700000000E+01 0. -1.
          4   -1    0    0  501    0  0.00000000000E+00 -0.00000000000E+00 -0.27552650222E+02  0.27581904109E+02  0.12700000000E+01 0. -1.
         25    2    1    2    0    0  0.00000000000E+00  0.00000000000E+00  0.11411478640E+03  0.16925503318E+03  0.12500032712E+03 0.  0.
    9000005    1    3    3    0    0 -0.28862921242E+02 -0.15829839708E+02 -0.14867558989E+02  0.36134420683E+02  0.10000000000E+01 0.  0.
    9000005    1    3    3    0    0  0.28862921242E+02  0.15829839708E+02  0.12898234539E+03  0.13312061249E+03  0.10000000000E+01 0.  0.
<mgrwt>
<rscale>  0 0.12500033E+03</rscale>
<asrwt>0</asrwt>
<pdfrwt beam="2">  1        4 0.42415575E-02 0.12500033E+03</pdfrwt>
<pdfrwt beam="1">  1       -4 0.21797678E-01 0.12500033E+03</pdfrwt>
<totfact> 0.95586868E+03</totfact>
</mgrwt>
</event>
<event>
 5    1  0.3398872E-002  0.1249988E+03  0.7818608E-02  0.1235071E+00
          4   -1    0    0  501    0  0.00000000000E+00  0.00000000000E+00  0.11526013900E+02  0.11595770627E+02  0.12700000000E+01 0. -1.
         -4   -1    0    0    0  501 -0.00000000000E+00 -0.00000000000E+00 -0.33780719159E+03  0.33780957889E+03  0.12700000000E+01 0. -1.
         25    2    1    2    0    0  0.00000000000E+00  0.00000000000E+00 -0.32628117769E+03  0.34940534952E+03  0.12499876542E+03 0.  0.
    9000005    1    3    3    0    0  0.21341792839E+02  0.47033934281E+02 -0.64807849057E+02  0.82877743664E+02  0.10000000000E+01 0.  0.
    9000005    1    3    3    0    0 -0.21341792839E+02 -0.47033934281E+02 -0.26147332864E+03  0.26652760586E+03  0.10000000000E+01 0.  0.
<mgrwt>
<rscale>  0 0.12499877E+03</rscale>
<asrwt>0</asrwt>
<pdfrwt beam="1">  1        4 0.17787827E-02 0.12499877E+03</pdfrwt>
<pdfrwt beam="2">  1       -4 0.51975879E-01 0.12499877E+03</pdfrwt>
<totfact> 0.69791934E+03</totfact>
</mgrwt>
</event>
<event>
 5    1  0.3398872E-002  0.1250000E+03  0.7818608E-02  0.1235069E+00
         -4   -1    0    0    0  501 -0.00000000000E+00  0.00000000000E+00  0.69180309698E+02  0.69191965935E+02  0.12700000000E+01 0.  1.
          4   -1    0    0  501    0  0.00000000000E+00 -0.00000000000E+00 -0.56441205982E+02  0.56455492493E+02  0.12700000000E+01 0.  1.
         25    2    1    2    0    0  0.00000000000E+00  0.00000000000E+00  0.12739103716E+02  0.12564745843E+03  0.12499999618E+03 0.  0.
    9000005    1    3    3    0    0  0.60559739491E+02  0.69455757106E+00  0.21853408055E+02  0.64393601398E+02  0.10000000000E+01 0.  0.
    9000005    1    3    3    0    0 -0.60559739491E+02 -0.69455757106E+00 -0.91143043389E+01  0.61253857030E+02  0.10000000000E+01 0.  0.
<mgrwt>
<rscale>  0 0.12500000E+03</rscale>
<asrwt>0</asrwt>
<pdfrwt beam="2">  1        4 0.86852580E-02 0.12500000E+03</pdfrwt>
<pdfrwt beam="1">  1       -4 0.10645120E-01 0.12500000E+03</pdfrwt>
<totfact> 0.10438702E+04</totfact>
</mgrwt>
</event>
<event>
 5    1  0.3398872E-002  0.1249975E+03  0.7818608E-02  0.1235073E+00
          4   -1    0    0  501    0  0.00000000000E+00  0.00000000000E+00  0.81066016638E+01  0.82054792996E+01  0.12700000000E+01 0.  1.
         -4   -1    0    0    0  501 -0.00000000000E+00 -0.00000000000E+00 -0.47882032828E+03  0.47882201252E+03  0.12700000000E+01 0.  1.
         25    2    1    2    0    0  0.00000000000E+00  0.00000000000E+00 -0.47071372661E+03  0.48702749182E+03  0.12499746143E+03 0.  0.
    9000005    1    3    3    0    0  0.56897269872E+02 -0.71772810692E+01 -0.13863139339E+03  0.15002825040E+03  0.10000000000E+01 0.  0.
    9000005    1    3    3    0    0 -0.56897269872E+02  0.71772810692E+01 -0.33208233322E+03  0.33699924142E+03  0.10000000000E+01 0.  0.
<mgrwt>
<rscale>  0 0.12499746E+03</rscale>
<asrwt>0</asrwt>
<pdfrwt beam="1">  1        4 0.12549054E-02 0.12499746E+03</pdfrwt>
<pdfrwt beam="2">  1       -4 0.73672379E-01 0.12499746E+03</pdfrwt>
<totfact> 0.56888297E+03</totfact>
</mgrwt>
</event>
<event>
 5    1  0.3398872E-002  0.1249984E+03  0.7818608E-02  0.1235072E+00
          4   -1    0    0  501    0  0.00000000000E+00  0.00000000000E+00  0.41361582367E+03  0.41361777342E+03  0.12700000000E+01 0. -1.
         -4   -1    0    0    0  501 -0.00000000000E+00 -0.00000000000E+00 -0.93992299872E+01  0.94846414984E+01  0.12700000000E+01 0. -1.
         25    2    1    2    0    0  0.00000000000E+00  0.00000000000E+00  0.40421659369E+03  0.42310241492E+03  0.12499839560E+03 0.  0.
    9000005    1    3    3    0    0 -0.22282829289E+02  0.41863552989E+02  0.64361924190E+02  0.79953354123E+02  0.10000000000E+01 0.  0.
    9000005    1    3    3    0    0  0.22282829289E+02 -0.41863552989E+02  0.33985466950E+03  0.34314906080E+03  0.10000000000E+01 0.  0.
<mgrwt>
<rscale>  0 0.12499840E+03</rscale>
<asrwt>0</asrwt>
<pdfrwt beam="1">  1        4 0.63639930E-01 0.12499840E+03</pdfrwt>
<pdfrwt beam="2">  1       -4 0.14527553E-02 0.12499840E+03</pdfrwt>
<totfact> 0.62368431E+03</totfact>
</mgrwt>
</event>
<event>
 5    1  0.3398872E-002  0.1250010E+03  0.7818608E-02  0.1235068E+00
         -4   -1    0    0    0  501 -0.00000000000E+00  0.00000000000E+00  0.13970950254E+04  0.13970956026E+04  0.12700000000E+01 0.  1.
          4   -1    0    0  501    0  0.00000000000E+00 -0.00000000000E+00 -0.26512034847E+01  0.29396904458E+01  0.12700000000E+01 0.  1.
         25    2    1    2    0    0  0.00000000000E+00  0.00000000000E+00  0.13944438219E+04  0.14000352930E+04  0.12500099755E+03 0.  0.
    9000005    1    3    3    0    0  0.18955509033E+02 -0.59184886477E+02  0.62364914238E+03  0.62673871343E+03  0.10000000000E+01 0.  0.
    9000005    1    3    3    0    0 -0.18955509033E+02  0.59184886477E+02  0.77079467950E+03  0.77329657962E+03  0.10000000000E+01 0.  0.
<mgrwt>
<rscale>  0 0.12500100E+03</rscale>
<asrwt>0</asrwt>
<pdfrwt beam="2">  1        4 0.43011270E-03 0.12500100E+03</pdfrwt>
<pdfrwt beam="1">  1       -4 0.21496017E+00 0.12500100E+03</pdfrwt>
<totfact> 0.19979699E+03</totfact>
</mgrwt>
</event>
<event>
 5    1  0.3398872E-002  0.1250005E+03  0.7818608E-02  0.1235068E+00
          4   -1    0    0  501    0  0.00000000000E+00  0.00000000000E+00  0.24123518365E+03  0.24123852663E+03  0.12700000000E+01 0. -1.
         -4   -1    0    0    0  501 -0.00000000000E+00 -0.00000000000E+00 -0.16164480389E+02  0.16214293886E+02  0.12700000000E+01 0. -1.
         25    2    1    2    0    0  0.00000000000E+00  0.00000000000E+00  0.22507070326E+03  0.25745282051E+03  0.12500053330E+03 0.  0.
    9000005    1    3    3    0    0  0.49917700943E+01 -0.38086472688E+02  0.11011095689E+02  0.39971757514E+02  0.10000000000E+01 0.  0.
    9000005    1    3    3    0    0 -0.49917700943E+01  0.38086472688E+02  0.21405960757E+03  0.21748106300E+03  0.10000000000E+01 0.  0.
<mgrwt>
<rscale>  0 0.12500053E+03</rscale>
<asrwt>0</asrwt>
<pdfrwt beam="1">  1        4 0.37117195E-01 0.12500053E+03</pdfrwt>
<pdfrwt beam="2">  1       -4 0.24909320E-02 0.12500053E+03</pdfrwt>
<totfact> 0.81263889E+03</totfact>
</mgrwt>
</event>
<event>
 4    1  0.3398872E-002  0.1251095E+03  0.7818608E-02  0.1234898E+00
         -4   -1    0    0    0  501 -0.00000000000E+00  0.00000000000E+00  0.12832086384E+03  0.12832714832E+03  0.12700000000E+01 0.  1.
          4   -1    0    0  501    0  0.00000000000E+00 -0.00000000000E+00 -0.30474389470E+02  0.30500841195E+02  0.12700000000E+01 0.  1.
    9000005    1    1    2    0    0  0.54359945986E+02  0.20943686298E+02  0.77829587878E+02  0.97221841541E+02  0.10000000000E+01 0.  0.
    9000005    1    1    2    0    0 -0.54359945986E+02 -0.20943686298E+02  0.20016886488E+02  0.61606147973E+02  0.10000000000E+01 0.  0.
<mgrwt>
<rscale>  0 0.12510954E+03</rscale>
<asrwt>0</asrwt>
<pdfrwt beam="2">  1        4 0.46908858E-02 0.12510954E+03</pdfrwt>
<pdfrwt beam="1">  1       -4 0.19744189E-01 0.12510954E+03</pdfrwt>
<totfact> 0.97329335E+03</totfact>
</mgrwt>
</event>
