<event>
 5    1  0.3183609E-002  0.1250011E+03  0.7818608E-02  0.1235068E+00
         -4   -1    0    0    0  501 -0.00000000000E+00  0.00000000000E+00  0.30723394552E+02  0.30749632076E+02  0.12700000000E+01 0.  1.
          4   -1    0    0  501    0  0.00000000000E+00 -0.00000000000E+00 -0.12706103682E+03  0.12706738361E+03  0.12700000000E+01 0.  1.
         25    2    1    2    0    0  0.00000000000E+00  0.00000000000E+00 -0.96337642265E+02  0.15781701568E+03  0.12500107648E+03 0.  0.
    9000005    1    3    3    0    0 -0.25674280597E+02  0.47649689716E+02 -0.87604412620E+02  0.10298152613E+03  0.10000000000E+01 0.  0.
    9000005    1    3    3    0    0  0.25674280597E+02 -0.47649689716E+02 -0.87332296452E+01  0.54835489550E+02  0.10000000000E+01 0.  0.
<mgrwt>
<rscale>  0 0.12500108E+03</rscale>
<asrwt>0</asrwt>
<pdfrwt beam="2">  1        4 0.19550358E-01 0.12500108E+03</pdfrwt>
<pdfrwt beam="1">  1       -4 0.47291826E-02 0.12500108E+03</pdfrwt>
<totfact> 0.97762939E+03</totfact>
</mgrwt>
</event>
<event>
 5    1  0.3183609E-002  0.1250042E+03  0.7818608E-02  0.1235063E+00
          4   -1    0    0  501    0  0.00000000000E+00  0.00000000000E+00  0.55417447535E+02  0.55431997901E+02  0.12700000000E+01 0. -1.
         -4   -1    0    0    0  501 -0.00000000000E+00 -0.00000000000E+00 -0.70462902332E+02  0.70474346432E+02  0.12700000000E+01 0. -1.
         25    2    1    2    0    0  0.00000000000E+00  0.00000000000E+00 -0.15045454797E+02  0.12590634433E+03  0.12500416726E+03 0.  0.
    9000005    1    3    3    0    0 -0.26304475255E+02 -0.48814436078E+02  0.21507778543E+02  0.59484108179E+02  0.10000000000E+01 0.  0.
    9000005    1    3    3    0    0  0.26304475255E+02  0.48814436078E+02 -0.36553233341E+02  0.66422236154E+02  0.10000000000E+01 0.  0.
<mgrwt>
<rscale>  0 0.12500417E+03</rscale>
<asrwt>0</asrwt>
<pdfrwt beam="1">  1        4 0.85277607E-02 0.12500417E+03</pdfrwt>
<pdfrwt beam="2">  1       -4 0.10842446E-01 0.12500417E+03</pdfrwt>
<totfact> 0.10432029E+04</totfact>
</mgrwt>
</event>
<event>
 5    1  0.3183609E-002  0.1250009E+03  0.7818608E-02  0.1235068E+00
          4   -1    0    0  501    0  0.00000000000E+00  0.00000000000E+00  0.40376886481E+02  0.40396854604E+02  0.12700000000E+01 0. -1.
         -4   -1    0    0    0  501 -0.00000000000E+00 -0.00000000000E+00 -0.96698114474E+02  0.96706453988E+02  0.12700000000E+01 0. -1.
         25    2    1    2    0    0  0.00000000000E+00  0.00000000000E+00 -0.56321227994E+02  0.13710330859E+03  0.12500094601E+03 0.  0.
    9000005    1    3    3    0    0 -0.34946733667E+01 -0.54860029733E+02  0.44404222449E+01  0.55159341493E+02  0.10000000000E+01 0.  0.
    9000005    1    3    3    0    0  0.34946733667E+01  0.54860029733E+02 -0.60761650238E+02  0.81943967099E+02  0.10000000000E+01 0.  0.
<mgrwt>
<rscale>  0 0.12500095E+03</rscale>
<asrwt>0</asrwt>
<pdfrwt beam="1">  1        4 0.62140062E-02 0.12500095E+03</pdfrwt>
<pdfrwt beam="2">  1       -4 0.14878810E-01 0.12500095E+03</pdfrwt>
<totfact> 0.10193709E+04</totfact>
</mgrwt>
</event>
<event>
 5    1  0.3183609E-002  0.1250022E+03  0.7818608E-02  0.1235066E+00
          4   -1    0    0  501    0  0.00000000000E+00  0.00000000000E+00  0.89215283150E+02  0.89224322063E+02  0.12700000000E+01 0. -1.
         -4   -1    0    0    0  501 -0.00000000000E+00 -0.00000000000E+00 -0.43765611296E+02  0.43784033987E+02  0.12700000000E+01 0. -1.
         25    2    1    2    0    0  0.00000000000E+00  0.00000000000E+00  0.45449671853E+02  0.13300835605E+03  0.12500220041E+03 0.  0.
    9000005    1    3    3    0    0  0.37654066792E+02 -0.71603739069E+01 -0.29795266614E+02  0.48557776031E+02  0.10000000000E+01 0.  0.
    9000005    1    3    3    0    0 -0.37654066792E+02  0.71603739069E+01  0.75244938468E+02  0.84450580018E+02  0.10000000000E+01 0.  0.
<mgrwt>
<rscale>  0 0.12500220E+03</rscale>
<asrwt>0</asrwt>
<pdfrwt beam="1">  1        4 0.13727540E-01 0.12500220E+03</pdfrwt>
<pdfrwt beam="2">  1       -4 0.67352835E-02 0.12500220E+03</pdfrwt>
<totfact> 0.10279712E+04</totfact>
</mgrwt>
</event>
<event>
 5    1  0.3183609E-002  0.1249966E+03  0.7818608E-02  0.1235075E+00
          4   -1    0    0  501    0  0.00000000000E+00  0.00000000000E+00  0.15155210387E+02  0.15208330016E+02  0.12700000000E+01 0.  1.
         -4   -1    0    0    0  501 -0.00000000000E+00 -0.00000000000E+00 -0.25723012148E+03  0.25723325659E+03  0.12700000000E+01 0.  1.
         25    2    1    2    0    0  0.00000000000E+00  0.00000000000E+00 -0.24207491109E+03  0.27244158661E+03  0.12499662208E+03 0.  0.
    9000005    1    3    3    0    0 -0.49186312566E+02  0.16751599496E+02 -0.45372989017E+02  0.68989981606E+02  0.10000000000E+01 0.  0.
    9000005    1    3    3    0    0  0.49186312566E+02 -0.16751599496E+02 -0.19670192207E+03  0.20345160500E+03  0.10000000000E+01 0.  0.
<mgrwt>
<rscale>  0 0.12499662E+03</rscale>
<asrwt>0</asrwt>
<pdfrwt beam="1">  1        4 0.23358983E-02 0.12499662E+03</pdfrwt>
<pdfrwt beam="2">  1       -4 0.39578189E-01 0.12499662E+03</pdfrwt>
<totfact> 0.79197040E+03</totfact>
</mgrwt>
</event>
<event>
 5    1  0.3183609E-002  0.1250009E+03  0.7818608E-02  0.1235068E+00
         -4   -1    0    0    0  501 -0.00000000000E+00  0.00000000000E+00  0.21878022050E+03  0.21878390659E+03  0.12700000000E+01 0. -1.
          4   -1    0    0  501    0  0.00000000000E+00 -0.00000000000E+00 -0.17828498234E+02  0.17873674756E+02  0.12700000000E+01 0. -1.
         25    2    1    2    0    0  0.00000000000E+00  0.00000000000E+00  0.20095172227E+03  0.23665758134E+03  0.12500086450E+03 0.  0.
    9000005    1    3    3    0    0  0.48524507888E+02  0.33073034307E+02  0.60009468653E+02  0.83967790206E+02  0.10000000000E+01 0.  0.
    9000005    1    3    3    0    0 -0.48524507888E+02 -0.33073034307E+02  0.14094225361E+03  0.15268979114E+03  0.10000000000E+01 0.  0.
<mgrwt>
<rscale>  0 0.12500086E+03</rscale>
<asrwt>0</asrwt>
<pdfrwt beam="2">  1        4 0.27466045E-02 0.12500086E+03</pdfrwt>
<pdfrwt beam="1">  1       -4 0.33662254E-01 0.12500086E+03</pdfrwt>
<totfact> 0.84296067E+03</totfact>
</mgrwt>
</event>
<event>
 5    1  0.3183609E-002  0.1250038E+03  0.7818608E-02  0.1235063E+00
         -4   -1    0    0    0  501 -0.00000000000E+00  0.00000000000E+00  0.67797362316E+01  0.68976607172E+01  0.12700000000E+01 0. -1.
          4   -1    0    0  501    0  0.00000000000E+00 -0.00000000000E+00 -0.57111401144E+03  0.57111542350E+03  0.12700000000E+01 0. -1.
         25    2    1    2    0    0  0.00000000000E+00  0.00000000000E+00 -0.56433427521E+03  0.57801308422E+03  0.12500380536E+03 0.  0.
    9000005    1    3    3    0    0 -0.33803685470E+02  0.13585236549E+02 -0.47379022428E+02  0.59774740231E+02  0.10000000000E+01 0.  0.
    9000005    1    3    3    0    0  0.33803685470E+02 -0.13585236549E+02 -0.51695525278E+03  0.51823834399E+03  0.10000000000E+01 0.  0.
<mgrwt>
<rscale>  0 0.12500381E+03</rscale>
<asrwt>0</asrwt>
<pdfrwt beam="2">  1        4 0.87872836E-01 0.12500381E+03</pdfrwt>
<pdfrwt beam="1">  1       -4 0.10522165E-02 0.12500381E+03</pdfrwt>
<totfact> 0.50281383E+03</totfact>
</mgrwt>
</event>
<event>
 5    1  0.3183609E-002  0.1249824E+03  0.7818608E-02  0.1235097E+00
          4   -1    0    0  501    0  0.00000000000E+00  0.00000000000E+00  0.35502894269E+02  0.35525602057E+02  0.12700000000E+01 0.  1.
         -4   -1    0    0    0  501 -0.00000000000E+00 -0.00000000000E+00 -0.10993373696E+03  0.10994107250E+03  0.12700000000E+01 0.  1.
         25    2    1    2    0    0  0.00000000000E+00  0.00000000000E+00 -0.74430842692E+02  0.14546667456E+03  0.12498241101E+03 0.  0.
    9000005    1    3    3    0    0  0.33087882538E+02 -0.15938847258E+02  0.21619505141E+02  0.42629307118E+02  0.10000000000E+01 0.  0.
    9000005    1    3    3    0    0 -0.33087882538E+02  0.15938847258E+02 -0.96050347833E+02  0.10283736744E+03  0.10000000000E+01 0.  0.
<mgrwt>
<rscale>  0 0.12498241E+03</rscale>
<asrwt>0</asrwt>
<pdfrwt beam="1">  1        4 0.54642948E-02 0.12498241E+03</pdfrwt>
<pdfrwt beam="2">  1       -4 0.16915193E-01 0.12498241E+03</pdfrwt>
<totfact> 0.10025485E+04</totfact>
</mgrwt>
</event>
<event>
 5    1  0.3183609E-002  0.1250050E+03  0.7818608E-02  0.1235061E+00
         -4   -1    0    0    0  501 -0.00000000000E+00  0.00000000000E+00  0.44317693002E+03  0.44317874971E+03  0.12700000000E+01 0.  1.
          4   -1    0    0  501    0  0.00000000000E+00 -0.00000000000E+00 -0.87673163881E+01  0.88588225318E+01  0.12700000000E+01 0.  1.
         25    2    1    2    0    0  0.00000000000E+00  0.00000000000E+00  0.43440961363E+03  0.45203757225E+03  0.12500501714E+03 0.  0.
    9000005    1    3    3    0    0  0.28907414462E+02  0.20805239452E+02  0.31506617100E+02  0.47562206852E+02  0.10000000000E+01 0.  0.
    9000005    1    3    3    0    0 -0.28907414462E+02 -0.20805239452E+02  0.40290299653E+03  0.40447536539E+03  0.10000000000E+01 0.  0.
<mgrwt>
<rscale>  0 0.12500502E+03</rscale>
<asrwt>0</asrwt>
<pdfrwt beam="2">  1        4 0.13559967E-02 0.12500502E+03</pdfrwt>
<pdfrwt beam="1">  1       -4 0.68188253E-01 0.12500502E+03</pdfrwt>
<totfact> 0.59781073E+03</totfact>
</mgrwt>
</event>
<event>
 5    1  0.3183609E-002  0.1250035E+03  0.7818608E-02  0.1235064E+00
          4   -1    0    0  501    0  0.00000000000E+00  0.00000000000E+00  0.70319692094E+02  0.70331159497E+02  0.12700000000E+01 0. -1.
         -4   -1    0    0    0  501 -0.00000000000E+00 -0.00000000000E+00 -0.55529745776E+02  0.55544266724E+02  0.12700000000E+01 0. -1.
         25    2    1    2    0    0  0.00000000000E+00  0.00000000000E+00  0.14789946319E+02  0.12587542622E+03  0.12500352161E+03 0.  0.
    9000005    1    3    3    0    0 -0.56110959789E+02  0.19958107326E+02 -0.11676619636E+02  0.60696864026E+02  0.10000000000E+01 0.  0.
    9000005    1    3    3    0    0  0.56110959789E+02 -0.19958107326E+02  0.26466565954E+02  0.65178562195E+02  0.10000000000E+01 0.  0.
<mgrwt>
<rscale>  0 0.12500352E+03</rscale>
<asrwt>0</asrwt>
<pdfrwt beam="1">  1        4 0.10820413E-01 0.12500352E+03</pdfrwt>
<pdfrwt beam="2">  1       -4 0.85450369E-02 0.12500352E+03</pdfrwt>
<totfact> 0.10432860E+04</totfact>
</mgrwt>
</event>
<event>
 5    1  0.3183609E-002  0.1249974E+03  0.7818608E-02  0.1235073E+00
         -4   -1    0    0    0  501 -0.00000000000E+00  0.00000000000E+00  0.10258670882E+04  0.10258678743E+04  0.12700000000E+01 0.  1.
          4   -1    0    0  501    0  0.00000000000E+00 -0.00000000000E+00 -0.37008875565E+01  0.39127316169E+01  0.12700000000E+01 0.  1.
         25    2    1    2    0    0  0.00000000000E+00  0.00000000000E+00  0.10221662006E+04  0.10297806059E+04  0.12499741844E+03 0.  0.
    9000005    1    3    3    0    0 -0.53641644589E+02 -0.31988342747E+02  0.52838092340E+03  0.53206022245E+03  0.10000000000E+01 0.  0.
    9000005    1    3    3    0    0  0.53641644589E+02  0.31988342747E+02  0.49378527725E+03  0.49772038348E+03  0.10000000000E+01 0.  0.
<mgrwt>
<rscale>  0 0.12499742E+03</rscale>
<asrwt>0</asrwt>
<pdfrwt beam="2">  1        4 0.58572397E-03 0.12499742E+03</pdfrwt>
<pdfrwt beam="1">  1       -4 0.15784193E+00 0.12499742E+03</pdfrwt>
<totfact> 0.29636282E+03</totfact>
</mgrwt>
</event>
<event>
 5    1  0.3183609E-002  0.1249994E+03  0.7818608E-02  0.1235070E+00
         -4   -1    0    0    0  501 -0.00000000000E+00  0.00000000000E+00  0.15310022678E+02  0.15362607018E+02  0.12700000000E+01 0. -1.
          4   -1    0    0  501    0  0.00000000000E+00 -0.00000000000E+00 -0.25464938957E+03  0.25465255645E+03  0.12700000000E+01 0. -1.
         25    2    1    2    0    0  0.00000000000E+00  0.00000000000E+00 -0.23933936689E+03  0.27001516347E+03  0.12499942384E+03 0.  0.
    9000005    1    3    3    0    0 -0.33464196605E+02 -0.43771946631E+02 -0.55977736959E+02  0.78551529593E+02  0.10000000000E+01 0.  0.
    9000005    1    3    3    0    0  0.33464196605E+02  0.43771946631E+02 -0.18336162993E+03  0.19146363388E+03  0.10000000000E+01 0.  0.
<mgrwt>
<rscale>  0 0.12499942E+03</rscale>
<asrwt>0</asrwt>
<pdfrwt beam="2">  1        4 0.39181115E-01 0.12499942E+03</pdfrwt>
<pdfrwt beam="1">  1       -4 0.23596769E-02 0.12499942E+03</pdfrwt>
<totfact> 0.79521820E+03</totfact>
</mgrwt>
</event>
<event>
 5    1  0.3183609E-002  0.1249997E+03  0.7818608E-02  0.1235070E+00
          4   -1    0    0  501    0  0.00000000000E+00  0.00000000000E+00  0.35832145232E+03  0.35832370295E+03  0.12700000000E+01 0.  1.
         -4   -1    0    0    0  501 -0.00000000000E+00 -0.00000000000E+00 -0.10862192710E+02  0.10936184456E+02  0.12700000000E+01 0.  1.
         25    2    1    2    0    0  0.00000000000E+00  0.00000000000E+00  0.34745925961E+03  0.36925988741E+03  0.12499970942E+03 0.  0.
    9000005    1    3    3    0    0  0.62627423933E+01  0.35157237622E+02  0.22234304566E+02  0.42078707193E+02  0.10000000000E+01 0.  0.
    9000005    1    3    3    0    0 -0.62627423933E+01 -0.35157237622E+02  0.32522495505E+03  0.32718118021E+03  0.10000000000E+01 0.  0.
<mgrwt>
<rscale>  0 0.12499971E+03</rscale>
<asrwt>0</asrwt>
<pdfrwt beam="1">  1        4 0.55132251E-01 0.12499971E+03</pdfrwt>
<pdfrwt beam="2">  1       -4 0.16769711E-02 0.12499971E+03</pdfrwt>
<totfact> 0.67656865E+03</totfact>
</mgrwt>
</event>
<event>
 5    1  0.3183609E-002  0.1249959E+03  0.7818608E-02  0.1235076E+00
         -4   -1    0    0    0  501 -0.00000000000E+00  0.00000000000E+00  0.25943415797E+02  0.25974482155E+02  0.12700000000E+01 0. -1.
          4   -1    0    0  501    0  0.00000000000E+00 -0.00000000000E+00 -0.15043434503E+03  0.15043970574E+03  0.12700000000E+01 0. -1.
         25    2    1    2    0    0  0.00000000000E+00  0.00000000000E+00 -0.12449092923E+03  0.17641418790E+03  0.12499589686E+03 0.  0.
    9000005    1    3    3    0    0  0.41041706842E+02  0.45260482464E+02 -0.43732394344E+02  0.75142899122E+02  0.10000000000E+01 0.  0.
    9000005    1    3    3    0    0 -0.41041706842E+02 -0.45260482464E+02 -0.80758534887E+02  0.10127128878E+03  0.10000000000E+01 0.  0.
<mgrwt>
<rscale>  0 0.12499590E+03</rscale>
<asrwt>0</asrwt>
<pdfrwt beam="2">  1        4 0.23146547E-01 0.12499590E+03</pdfrwt>
<pdfrwt beam="1">  1       -4 0.39940969E-02 0.12499590E+03</pdfrwt>
<totfact> 0.94275148E+03</totfact>
</mgrwt>
</event>
<event>
 5    1  0.3183609E-002  0.1250012E+03  0.7818608E-02  0.1235067E+00
         -4   -1    0    0    0  501 -0.00000000000E+00  0.00000000000E+00  0.12111289823E+02  0.12177694411E+02  0.12700000000E+01 0.  1.
          4   -1    0    0  501    0  0.00000000000E+00 -0.00000000000E+00 -0.32158614600E+03  0.32158865371E+03  0.12700000000E+01 0.  1.
         25    2    1    2    0    0  0.00000000000E+00  0.00000000000E+00 -0.30947485617E+03  0.33376634812E+03  0.12500115414E+03 0.  0.
    9000005    1    3    3    0    0  0.61385631218E+02 -0.46920219360E+01 -0.18338498472E+03  0.19344576348E+03  0.10000000000E+01 0.  0.
    9000005    1    3    3    0    0 -0.61385631218E+02  0.46920219360E+01 -0.12608987145E+03  0.14032058464E+03  0.10000000000E+01 0.  0.
<mgrwt>
<rscale>  0 0.12500115E+03</rscale>
<asrwt>0</asrwt>
<pdfrwt beam="2">  1        4 0.49480086E-01 0.12500115E+03</pdfrwt>
<pdfrwt beam="1">  1       -4 0.18685765E-02 0.12500115E+03</pdfrwt>
<totfact> 0.71546345E+03</totfact>
</mgrwt>
</event>
<event>
 5    1  0.3183609E-002  0.1249997E+03  0.7818608E-02  0.1235070E+00
         -4   -1    0    0    0  501 -0.00000000000E+00  0.00000000000E+00  0.73748652828E+01  0.74834175308E+01  0.12700000000E+01 0. -1.
          4   -1    0    0  501    0  0.00000000000E+00 -0.00000000000E+00 -0.52568908747E+03  0.52569062155E+03  0.12700000000E+01 0. -1.
         25    2    1    2    0    0  0.00000000000E+00  0.00000000000E+00 -0.51831422219E+03  0.53317403908E+03  0.12499969211E+03 0.  0.
    9000005    1    3    3    0    0  0.44890486466E+02 -0.12603002079E+01 -0.73796689614E+02  0.86392682154E+02  0.10000000000E+01 0.  0.
    9000005    1    3    3    0    0 -0.44890486466E+02  0.12603002079E+01 -0.44451753258E+03  0.44678135693E+03  0.10000000000E+01 0.  0.
<mgrwt>
<rscale>  0 0.12499969E+03</rscale>
<asrwt>0</asrwt>
<pdfrwt beam="2">  1        4 0.80883683E-01 0.12499969E+03</pdfrwt>
<pdfrwt beam="1">  1       -4 0.11430632E-02 0.12499969E+03</pdfrwt>
<totfact> 0.53379681E+03</totfact>
</mgrwt>
</event>
<event>
 5    1  0.3183609E-002  0.1250066E+03  0.7818608E-02  0.1235059E+00
         -4   -1    0    0    0  501 -0.00000000000E+00  0.00000000000E+00  0.13244842385E+03  0.13245451250E+03  0.12700000000E+01 0.  1.
          4   -1    0    0  501    0  0.00000000000E+00 -0.00000000000E+00 -0.29475265164E+02  0.29502612706E+02  0.12700000000E+01 0.  1.
         25    2    1    2    0    0  0.00000000000E+00  0.00000000000E+00  0.10297315869E+03  0.16195712520E+03  0.12500655580E+03 0.  0.
    9000005    1    3    3    0    0 -0.13584860494E+02  0.29240211059E+02 -0.17874294887E+02  0.36878568236E+02  0.10000000000E+01 0.  0.
    9000005    1    3    3    0    0  0.13584860494E+02 -0.29240211059E+02  0.12084745358E+03  0.12507855697E+03  0.10000000000E+01 0.  0.
<mgrwt>
<rscale>  0 0.12500656E+03</rscale>
<asrwt>0</asrwt>
<pdfrwt beam="2">  1        4 0.45372282E-02 0.12500656E+03</pdfrwt>
<pdfrwt beam="1">  1       -4 0.20379253E-01 0.12500656E+03</pdfrwt>
<totfact> 0.96952504E+03</totfact>
</mgrwt>
</event>
<event>
 5    1  0.3183609E-002  0.1250000E+03  0.7818608E-02  0.1235069E+00
          4   -1    0    0  501    0  0.00000000000E+00  0.00000000000E+00  0.33316598426E+02  0.33340795292E+02  0.12700000000E+01 0. -1.
         -4   -1    0    0    0  501 -0.00000000000E+00 -0.00000000000E+00 -0.11717615172E+03  0.11718303389E+03  0.12700000000E+01 0. -1.
         25    2    1    2    0    0  0.00000000000E+00  0.00000000000E+00 -0.83859553297E+02  0.15052382919E+03  0.12499999390E+03 0.  0.
    9000005    1    3    3    0    0 -0.41403264925E+02  0.13317010783E+02 -0.95966638091E+02  0.10536682945E+03  0.10000000000E+01 0.  0.
    9000005    1    3    3    0    0  0.41403264925E+02 -0.13317010783E+02  0.12107084794E+02  0.45156999733E+02  0.10000000000E+01 0.  0.
<mgrwt>
<rscale>  0 0.12499999E+03</rscale>
<asrwt>0</asrwt>
<pdfrwt beam="1">  1        4 0.51280213E-02 0.12499999E+03</pdfrwt>
<pdfrwt beam="2">  1       -4 0.18029491E-01 0.12499999E+03</pdfrwt>
<totfact> 0.99199397E+03</totfact>
</mgrwt>
</event>
<event>
 5    1  0.3183609E-002  0.1249999E+03  0.7818608E-02  0.1235069E+00
          4   -1    0    0  501    0  0.00000000000E+00  0.00000000000E+00  0.36065806156E+03  0.36066029761E+03  0.12700000000E+01 0.  1.
         -4   -1    0    0    0  501 -0.00000000000E+00 -0.00000000000E+00 -0.10791375706E+02  0.10865849696E+02  0.12700000000E+01 0.  1.
         25    2    1    2    0    0  0.00000000000E+00  0.00000000000E+00  0.34986668586E+03  0.37152614730E+03  0.12499992103E+03 0.  0.
    9000005    1    3    3    0    0  0.30180349698E+02 -0.40051910433E+02  0.28575481501E+03  0.29012380692E+03  0.10000000000E+01 0.  0.
    9000005    1    3    3    0    0 -0.30180349698E+02  0.40051910433E+02  0.64111870845E+02  0.81402340387E+02  0.10000000000E+01 0.  0.
<mgrwt>
<rscale>  0 0.12499992E+03</rscale>
<asrwt>0</asrwt>
<pdfrwt beam="1">  1        4 0.55491750E-01 0.12499992E+03</pdfrwt>
<pdfrwt beam="2">  1       -4 0.16661126E-02 0.12499992E+03</pdfrwt>
<totfact> 0.67419695E+03</totfact>
</mgrwt>
</event>
<event>
 5    1  0.3183609E-002  0.1250017E+03  0.7818608E-02  0.1235067E+00
         -4   -1    0    0    0  501 -0.00000000000E+00  0.00000000000E+00  0.11702711152E+02  0.11771420828E+02  0.12700000000E+01 0.  1.
          4   -1    0    0  501    0  0.00000000000E+00 -0.00000000000E+00 -0.33275246799E+03  0.33275489155E+03  0.12700000000E+01 0.  1.
         25    2    1    2    0    0  0.00000000000E+00  0.00000000000E+00 -0.32104975684E+03  0.34452631238E+03  0.12500173422E+03 0.  0.
    9000005    1    3    3    0    0  0.48384095751E+02  0.39420623328E+02 -0.16939278470E+03  0.18052678962E+03  0.10000000000E+01 0.  0.
    9000005    1    3    3    0    0 -0.48384095751E+02 -0.39420623328E+02 -0.15165697214E+03  0.16399952276E+03  0.10000000000E+01 0.  0.
<mgrwt>
<rscale>  0 0.12500173E+03</rscale>
<asrwt>0</asrwt>
<pdfrwt beam="2">  1        4 0.51198152E-01 0.12500173E+03</pdfrwt>
<pdfrwt beam="1">  1       -4 0.18058891E-02 0.12500173E+03</pdfrwt>
<totfact> 0.70328259E+03</totfact>
</mgrwt>
</event>
<event>
 5    1  0.3183609E-002  0.1249938E+03  0.7818608E-02  0.1235079E+00
         -4   -1    0    0    0  501 -0.00000000000E+00  0.00000000000E+00  0.33185373385E+02  0.33209665862E+02  0.12700000000E+01 0. -1.
          4   -1    0    0  501    0  0.00000000000E+00 -0.00000000000E+00 -0.11762746932E+03  0.11763432509E+03  0.12700000000E+01 0. -1.
         25    2    1    2    0    0  0.00000000000E+00  0.00000000000E+00 -0.84442095937E+02  0.15084399095E+03  0.12499376800E+03 0.  0.
    9000005    1    3    3    0    0  0.93504823959E+01  0.22808796291E+02 -0.11151757926E+03  0.11421402363E+03  0.10000000000E+01 0.  0.
    9000005    1    3    3    0    0 -0.93504823959E+01 -0.22808796291E+02  0.27075483320E+02  0.36629967326E+02  0.10000000000E+01 0.  0.
<mgrwt>
<rscale>  0 0.12499377E+03</rscale>
<asrwt>0</asrwt>
<pdfrwt beam="2">  1        4 0.18098930E-01 0.12499377E+03</pdfrwt>
<pdfrwt beam="1">  1       -4 0.51078381E-02 0.12499377E+03</pdfrwt>
<totfact> 0.99149631E+03</totfact>
</mgrwt>
</event>
<event>
 5    1  0.3183609E-002  0.1249995E+03  0.7818608E-02  0.1235070E+00
         -4   -1    0    0    0  501 -0.00000000000E+00  0.00000000000E+00  0.13193338643E+02  0.13254323240E+02  0.12700000000E+01 0.  1.
          4   -1    0    0  501    0  0.00000000000E+00 -0.00000000000E+00 -0.29532978061E+03  0.29533251127E+03  0.12700000000E+01 0.  1.
         25    2    1    2    0    0  0.00000000000E+00  0.00000000000E+00 -0.28213644196E+03  0.30858683451E+03  0.12499945019E+03 0.  0.
    9000005    1    3    3    0    0  0.53335911109E+02 -0.32133265212E+02 -0.15411959499E+03  0.16622609816E+03  0.10000000000E+01 0.  0.
    9000005    1    3    3    0    0 -0.53335911109E+02  0.32133265212E+02 -0.12801684697E+03  0.14236073635E+03  0.10000000000E+01 0.  0.
<mgrwt>
<rscale>  0 0.12499945E+03</rscale>
<asrwt>0</asrwt>
<pdfrwt beam="2">  1        4 0.45440247E-01 0.12499945E+03</pdfrwt>
<pdfrwt beam="1">  1       -4 0.20346458E-02 0.12499945E+03</pdfrwt>
<totfact> 0.74535105E+03</totfact>
</mgrwt>
</event>
<event>
 5    1  0.3183609E-002  0.1249978E+03  0.7818608E-02  0.1235073E+00
         -4   -1    0    0    0  501 -0.00000000000E+00  0.00000000000E+00  0.60752431728E+03  0.60752564472E+03  0.12700000000E+01 0.  1.
          4   -1    0    0  501    0  0.00000000000E+00 -0.00000000000E+00 -0.63654972187E+01  0.64909517670E+01  0.12700000000E+01 0.  1.
         25    2    1    2    0    0  0.00000000000E+00  0.00000000000E+00  0.60115882007E+03  0.61401659649E+03  0.12499781525E+03 0.  0.
    9000005    1    3    3    0    0  0.57324416932E+02 -0.58627704659E+00  0.17839633190E+03  0.18738378727E+03  0.10000000000E+01 0.  0.
    9000005    1    3    3    0    0 -0.57324416932E+02  0.58627704659E+00  0.42276248816E+03  0.42663280921E+03  0.10000000000E+01 0.  0.
<mgrwt>
<rscale>  0 0.12499782E+03</rscale>
<asrwt>0</asrwt>
<pdfrwt beam="2">  1        4 0.98905965E-03 0.12499782E+03</pdfrwt>
<pdfrwt beam="1">  1       -4 0.93475039E-01 0.12499782E+03</pdfrwt>
<totfact> 0.47996924E+03</totfact>
</mgrwt>
</event>
<event>
 5    1  0.3183609E-002  0.1250069E+03  0.7818608E-02  0.1235059E+00
          4   -1    0    0  501    0  0.00000000000E+00  0.00000000000E+00  0.56879427470E+02  0.56893603940E+02  0.12700000000E+01 0.  1.
         -4   -1    0    0    0  501 -0.00000000000E+00 -0.00000000000E+00 -0.68654919000E+02  0.68666664422E+02  0.12700000000E+01 0.  1.
         25    2    1    2    0    0  0.00000000000E+00  0.00000000000E+00 -0.11775491530E+02  0.12556026836E+03  0.12500687497E+03 0.  0.
    9000005    1    3    3    0    0 -0.16152043084E+02 -0.50373921566E+02 -0.39310558142E+02  0.65914645195E+02  0.10000000000E+01 0.  0.
    9000005    1    3    3    0    0  0.16152043084E+02  0.50373921566E+02  0.27535066612E+02  0.59645623167E+02  0.10000000000E+01 0.  0.
<mgrwt>
<rscale>  0 0.12500687E+03</rscale>
<asrwt>0</asrwt>
<pdfrwt beam="1">  1        4 0.87526752E-02 0.12500687E+03</pdfrwt>
<pdfrwt beam="2">  1       -4 0.10564289E-01 0.12500687E+03</pdfrwt>
<totfact> 0.10439004E+04</totfact>
</mgrwt>
</event>
<event>
 5    1  0.3183609E-002  0.1250012E+03  0.7818608E-02  0.1235067E+00
          4   -1    0    0  501    0  0.00000000000E+00  0.00000000000E+00  0.22559745743E+02  0.22595464766E+02  0.12700000000E+01 0.  1.
         -4   -1    0    0    0  501 -0.00000000000E+00 -0.00000000000E+00 -0.17297949776E+03  0.17298415981E+03  0.12700000000E+01 0.  1.
         25    2    1    2    0    0  0.00000000000E+00  0.00000000000E+00 -0.15041975202E+03  0.19557962458E+03  0.12500115101E+03 0.  0.
    9000005    1    3    3    0    0 -0.13955864199E+02  0.57597090808E+02 -0.44187275576E+02  0.73930415513E+02  0.10000000000E+01 0.  0.
    9000005    1    3    3    0    0  0.13955864199E+02 -0.57597090808E+02 -0.10623247645E+03  0.12164920907E+03  0.10000000000E+01 0.  0.
<mgrwt>
<rscale>  0 0.12500115E+03</rscale>
<asrwt>0</asrwt>
<pdfrwt beam="1">  1        4 0.34738365E-02 0.12500115E+03</pdfrwt>
<pdfrwt beam="2">  1       -4 0.26615336E-01 0.12500115E+03</pdfrwt>
<totfact> 0.90883098E+03</totfact>
</mgrwt>
</event>
<event>
 5    1  0.3183609E-002  0.1250005E+03  0.7818608E-02  0.1235069E+00
          4   -1    0    0  501    0  0.00000000000E+00  0.00000000000E+00  0.25894756297E+04  0.25894759412E+04  0.12700000000E+01 0. -1.
         -4   -1    0    0    0  501 -0.00000000000E+00 -0.00000000000E+00 -0.12408569908E+01  0.17755635927E+01  0.12700000000E+01 0. -1.
         25    2    1    2    0    0  0.00000000000E+00  0.00000000000E+00  0.25882347727E+04  0.25912515047E+04  0.12500048834E+03 0.  0.
    9000005    1    3    3    0    0  0.46623152006E+02 -0.27943334825E+02  0.65493180120E+03  0.65718430633E+03  0.10000000000E+01 0.  0.
    9000005    1    3    3    0    0 -0.46623152006E+02  0.27943334825E+02  0.19333029715E+04  0.19340671984E+04  0.10000000000E+01 0.  0.
<mgrwt>
<rscale>  0 0.12500049E+03</rscale>
<asrwt>0</asrwt>
<pdfrwt beam="1">  1        4 0.39841923E+00 0.12500049E+03</pdfrwt>
<pdfrwt beam="2">  1       -4 0.23205793E-03 0.12500049E+03</pdfrwt>
<totfact> 0.39915268E+02</totfact>
</mgrwt>
</event>
<event>
 5    1  0.3183609E-002  0.1249994E+03  0.7818608E-02  0.1235070E+00
         -4   -1    0    0    0  501 -0.00000000000E+00  0.00000000000E+00  0.80137759520E+02  0.80147822185E+02  0.12700000000E+01 0. -1.
          4   -1    0    0  501    0  0.00000000000E+00 -0.00000000000E+00 -0.48722332629E+02  0.48738881777E+02  0.12700000000E+01 0. -1.
         25    2    1    2    0    0  0.00000000000E+00  0.00000000000E+00  0.31415426891E+02  0.12888670396E+03  0.12499941364E+03 0.  0.
    9000005    1    3    3    0    0  0.34979825276E+02 -0.50461894709E+02  0.27697857352E+02  0.67365883768E+02  0.10000000000E+01 0.  0.
    9000005    1    3    3    0    0 -0.34979825276E+02  0.50461894709E+02  0.37175695395E+01  0.61520820193E+02  0.10000000000E+01 0.  0.
<mgrwt>
<rscale>  0 0.12499941E+03</rscale>
<asrwt>0</asrwt>
<pdfrwt beam="2">  1        4 0.74977906E-02 0.12499941E+03</pdfrwt>
<pdfrwt beam="1">  1       -4 0.12330933E-01 0.12499941E+03</pdfrwt>
<totfact> 0.10368519E+04</totfact>
</mgrwt>
</event>
<event>
 5    1  0.3183609E-002  0.1249996E+03  0.7818608E-02  0.1235070E+00
          4   -1    0    0  501    0  0.00000000000E+00  0.00000000000E+00  0.10322292712E+03  0.10323073953E+03  0.12700000000E+01 0. -1.
         -4   -1    0    0    0  501 -0.00000000000E+00 -0.00000000000E+00 -0.37822710983E+02  0.37844026822E+02  0.12700000000E+01 0. -1.
         25    2    1    2    0    0  0.00000000000E+00  0.00000000000E+00  0.65400216141E+02  0.14107476635E+03  0.12499960572E+03 0.  0.
    9000005    1    3    3    0    0  0.22315613182E+01 -0.29304102473E+01 -0.37705627578E+02  0.37898304991E+02  0.10000000000E+01 0.  0.
    9000005    1    3    3    0    0 -0.22315613182E+01  0.29304102473E+01  0.10310584372E+03  0.10317646136E+03  0.10000000000E+01 0.  0.
<mgrwt>
<rscale>  0 0.12499961E+03</rscale>
<asrwt>0</asrwt>
<pdfrwt beam="1">  1        4 0.15882691E-01 0.12499961E+03</pdfrwt>
<pdfrwt beam="2">  1       -4 0.58211193E-02 0.12499961E+03</pdfrwt>
<totfact> 0.10111449E+04</totfact>
</mgrwt>
</event>
<event>
 5    1  0.3183609E-002  0.1250021E+03  0.7818608E-02  0.1235066E+00
         -4   -1    0    0    0  501 -0.00000000000E+00  0.00000000000E+00  0.11359266917E+02  0.11430041333E+02  0.12700000000E+01 0.  1.
          4   -1    0    0  501    0  0.00000000000E+00 -0.00000000000E+00 -0.34275371356E+03  0.34275606641E+03  0.12700000000E+01 0.  1.
         25    2    1    2    0    0  0.00000000000E+00  0.00000000000E+00 -0.33139444664E+03  0.35418610774E+03  0.12500207858E+03 0.  0.
    9000005    1    3    3    0    0 -0.54243481668E+02  0.21941241409E+02 -0.10351582651E+03  0.11891299221E+03  0.10000000000E+01 0.  0.
    9000005    1    3    3    0    0  0.54243481668E+02 -0.21941241409E+02 -0.22787862013E+03  0.23527311553E+03  0.10000000000E+01 0.  0.
<mgrwt>
<rscale>  0 0.12500208E+03</rscale>
<asrwt>0</asrwt>
<pdfrwt beam="2">  1        4 0.52736958E-01 0.12500208E+03</pdfrwt>
<pdfrwt beam="1">  1       -4 0.17532050E-02 0.12500208E+03</pdfrwt>
<totfact> 0.69263293E+03</totfact>
</mgrwt>
</event>
<event>
 5    1  0.3183609E-002  0.1250179E+03  0.7818608E-02  0.1235041E+00
          4   -1    0    0  501    0  0.00000000000E+00  0.00000000000E+00  0.57798970477E+01  0.59177791343E+01  0.12700000000E+01 0.  1.
         -4   -1    0    0    0  501 -0.00000000000E+00 -0.00000000000E+00 -0.66792101235E+03  0.66792221975E+03  0.12700000000E+01 0.  1.
         25    2    1    2    0    0  0.00000000000E+00  0.00000000000E+00 -0.66214111530E+03  0.67383999889E+03  0.12501794881E+03 0.  0.
    9000005    1    3    3    0    0  0.50477464856E+02  0.27263981130E+02 -0.19739633622E+03  0.20556656508E+03  0.10000000000E+01 0.  0.
    9000005    1    3    3    0    0 -0.50477464856E+02 -0.27263981130E+02 -0.46474477909E+03  0.46827343381E+03  0.10000000000E+01 0.  0.
<mgrwt>
<rscale>  0 0.12501795E+03</rscale>
<asrwt>0</asrwt>
<pdfrwt beam="1">  1        4 0.89991465E-03 0.12501795E+03</pdfrwt>
<pdfrwt beam="2">  1       -4 0.10276772E+00 0.12501795E+03</pdfrwt>
<totfact> 0.44486628E+03</totfact>
</mgrwt>
</event>
<event>
 5    1  0.3183609E-002  0.1249943E+03  0.7818608E-02  0.1235078E+00
         -4   -1    0    0    0  501 -0.00000000000E+00  0.00000000000E+00  0.57040121445E+02  0.57054257987E+02  0.12700000000E+01 0.  1.
          4   -1    0    0  501    0  0.00000000000E+00 -0.00000000000E+00 -0.68447770725E+02  0.68459551687E+02  0.12700000000E+01 0.  1.
         25    2    1    2    0    0  0.00000000000E+00  0.00000000000E+00 -0.11407649280E+02  0.12551380967E+03  0.12499432770E+03 0.  0.
    9000005    1    3    3    0    0 -0.16572191035E+02  0.57535044137E+02  0.12258409938E+02  0.61124360395E+02  0.10000000000E+01 0.  0.
    9000005    1    3    3    0    0  0.16572191035E+02 -0.57535044137E+02 -0.23666059217E+02  0.64389449279E+02  0.10000000000E+01 0.  0.
<mgrwt>
<rscale>  0 0.12499433E+03</rscale>
<asrwt>0</asrwt>
<pdfrwt beam="2">  1        4 0.10532420E-01 0.12499433E+03</pdfrwt>
<pdfrwt beam="1">  1       -4 0.87773970E-02 0.12499433E+03</pdfrwt>
<totfact> 0.10442985E+04</totfact>
</mgrwt>
</event>
<event>
 5    1  0.3183609E-002  0.1250036E+03  0.7818608E-02  0.1235064E+00
          4   -1    0    0  501    0  0.00000000000E+00  0.00000000000E+00  0.96517560353E+02  0.96525915466E+02  0.12700000000E+01 0.  1.
         -4   -1    0    0    0  501 -0.00000000000E+00 -0.00000000000E+00 -0.40454193180E+02  0.40474123164E+02  0.12700000000E+01 0.  1.
         25    2    1    2    0    0  0.00000000000E+00  0.00000000000E+00  0.56063367173E+02  0.13700003863E+03  0.12500363773E+03 0.  0.
    9000005    1    3    3    0    0  0.21815290680E+02 -0.38052383670E+02 -0.20755366701E+02  0.48535307327E+02  0.10000000000E+01 0.  0.
    9000005    1    3    3    0    0 -0.21815290680E+02  0.38052383670E+02  0.76818733874E+02  0.88464731303E+02  0.10000000000E+01 0.  0.
<mgrwt>
<rscale>  0 0.12500364E+03</rscale>
<asrwt>0</asrwt>
<pdfrwt beam="1">  1        4 0.14851031E-01 0.12500364E+03</pdfrwt>
<pdfrwt beam="2">  1       -4 0.62258979E-02 0.12500364E+03</pdfrwt>
<totfact> 0.10195249E+04</totfact>
</mgrwt>
</event>
<event>
 5    1  0.3183609E-002  0.1250011E+03  0.7818608E-02  0.1235068E+00
         -4   -1    0    0    0  501 -0.00000000000E+00  0.00000000000E+00  0.15927371700E+03  0.15927878022E+03  0.12700000000E+01 0.  1.
          4   -1    0    0  501    0  0.00000000000E+00 -0.00000000000E+00 -0.24503936088E+02  0.24536825056E+02  0.12700000000E+01 0.  1.
         25    2    1    2    0    0  0.00000000000E+00  0.00000000000E+00  0.13476978092E+03  0.18381560528E+03  0.12500113157E+03 0.  0.
    9000005    1    3    3    0    0 -0.58009443988E+02 -0.89816185882E+01  0.98908612795E+02  0.11502034059E+03  0.10000000000E+01 0.  0.
    9000005    1    3    3    0    0  0.58009443988E+02  0.89816185882E+01  0.35861168120E+02  0.68795264686E+02  0.10000000000E+01 0.  0.
<mgrwt>
<rscale>  0 0.12500113E+03</rscale>
<asrwt>0</asrwt>
<pdfrwt beam="2">  1        4 0.37727558E-02 0.12500113E+03</pdfrwt>
<pdfrwt beam="1">  1       -4 0.24506568E-01 0.12500113E+03</pdfrwt>
<totfact> 0.92932299E+03</totfact>
</mgrwt>
</event>
<event>
 5    1  0.3183609E-002  0.1250017E+03  0.7818608E-02  0.1235067E+00
         -4   -1    0    0    0  501 -0.00000000000E+00  0.00000000000E+00  0.87483499756E+01  0.88400524487E+01  0.12700000000E+01 0.  1.
          4   -1    0    0  501    0  0.00000000000E+00 -0.00000000000E+00 -0.44410454012E+03  0.44410635602E+03  0.12700000000E+01 0.  1.
         25    2    1    2    0    0  0.00000000000E+00  0.00000000000E+00 -0.43535619014E+03  0.45294640847E+03  0.12500174657E+03 0.  0.
    9000005    1    3    3    0    0  0.50100501965E+02 -0.35137779805E+02 -0.26360331304E+03  0.27061491185E+03  0.10000000000E+01 0.  0.
    9000005    1    3    3    0    0 -0.50100501965E+02  0.35137779805E+02 -0.17175287710E+03  0.18233149662E+03  0.10000000000E+01 0.  0.
<mgrwt>
<rscale>  0 0.12500175E+03</rscale>
<asrwt>0</asrwt>
<pdfrwt beam="2">  1        4 0.68330952E-01 0.12500175E+03</pdfrwt>
<pdfrwt beam="1">  1       -4 0.13530941E-02 0.12500175E+03</pdfrwt>
<totfact> 0.59707106E+03</totfact>
</mgrwt>
</event>
<event>
 5    1  0.3183609E-002  0.1250004E+03  0.7818608E-02  0.1235069E+00
          4   -1    0    0  501    0  0.00000000000E+00  0.00000000000E+00  0.79270438723E+02  0.79280611471E+02  0.12700000000E+01 0. -1.
         -4   -1    0    0    0  501 -0.00000000000E+00 -0.00000000000E+00 -0.49256316938E+02  0.49272686737E+02  0.12700000000E+01 0. -1.
         25    2    1    2    0    0  0.00000000000E+00  0.00000000000E+00  0.30014121785E+02  0.12855329821E+03  0.12500041189E+03 0.  0.
    9000005    1    3    3    0    0  0.29121169991E+02  0.72631823857E+01  0.71378145843E+02  0.77437949766E+02  0.10000000000E+01 0.  0.
    9000005    1    3    3    0    0 -0.29121169991E+02 -0.72631823857E+01 -0.41364024058E+02  0.51115348442E+02  0.10000000000E+01 0.  0.
<mgrwt>
<rscale>  0 0.12500041E+03</rscale>
<asrwt>0</asrwt>
<pdfrwt beam="1">  1        4 0.12197494E-01 0.12500041E+03</pdfrwt>
<pdfrwt beam="2">  1       -4 0.75799366E-02 0.12500041E+03</pdfrwt>
<totfact> 0.10375459E+04</totfact>
</mgrwt>
</event>
<event>
 5    1  0.3183609E-002  0.1249985E+03  0.7818608E-02  0.1235072E+00
          4   -1    0    0  501    0  0.00000000000E+00  0.00000000000E+00  0.97285145271E+02  0.97293434467E+02  0.12700000000E+01 0.  1.
         -4   -1    0    0    0  501 -0.00000000000E+00 -0.00000000000E+00 -0.40131583256E+02  0.40151673373E+02  0.12700000000E+01 0.  1.
         25    2    1    2    0    0  0.00000000000E+00  0.00000000000E+00  0.57153562015E+02  0.13744510784E+03  0.12499851206E+03 0.  0.
    9000005    1    3    3    0    0 -0.11956303820E+02  0.28191289891E+02  0.88475359006E+02  0.93630076247E+02  0.10000000000E+01 0.  0.
    9000005    1    3    3    0    0  0.11956303820E+02 -0.28191289891E+02 -0.31321796991E+02  0.43815031593E+02  0.10000000000E+01 0.  0.
<mgrwt>
<rscale>  0 0.12499851E+03</rscale>
<asrwt>0</asrwt>
<pdfrwt beam="1">  1        4 0.14969128E-01 0.12499851E+03</pdfrwt>
<pdfrwt beam="2">  1       -4 0.61762728E-02 0.12499851E+03</pdfrwt>
<totfact> 0.10187129E+04</totfact>
</mgrwt>
</event>
<event>
 5    1  0.3183609E-002  0.1250064E+03  0.7818608E-02  0.1235059E+00
         -4   -1    0    0    0  501 -0.00000000000E+00  0.00000000000E+00  0.10353025987E+04  0.10353033777E+04  0.12700000000E+01 0. -1.
          4   -1    0    0  501    0  0.00000000000E+00 -0.00000000000E+00 -0.36657794567E+01  0.38795410844E+01  0.12700000000E+01 0. -1.
         25    2    1    2    0    0  0.00000000000E+00  0.00000000000E+00  0.10316368192E+04  0.10391829187E+04  0.12500644692E+03 0.  0.
    9000005    1    3    3    0    0 -0.41368164728E+02 -0.22668704488E+02  0.85659784907E+03  0.85789630506E+03  0.10000000000E+01 0.  0.
    9000005    1    3    3    0    0  0.41368164728E+02  0.22668704488E+02  0.17503897018E+03  0.18128661368E+03  0.10000000000E+01 0.  0.
<mgrwt>
<rscale>  0 0.12500645E+03</rscale>
<asrwt>0</asrwt>
<pdfrwt beam="2">  1        4 0.58046915E-03 0.12500645E+03</pdfrwt>
<pdfrwt beam="1">  1       -4 0.15929384E+00 0.12500645E+03</pdfrwt>
<totfact> 0.29330809E+03</totfact>
</mgrwt>
</event>
<event>
 5    1  0.3183609E-002  0.1249979E+03  0.7818608E-02  0.1235073E+00
         -4   -1    0    0    0  501 -0.00000000000E+00  0.00000000000E+00  0.32381013302E+02  0.32405908759E+02  0.12700000000E+01 0. -1.
          4   -1    0    0  501    0  0.00000000000E+00 -0.00000000000E+00 -0.12055526979E+03  0.12056195907E+03  0.12700000000E+01 0. -1.
         25    2    1    2    0    0  0.00000000000E+00  0.00000000000E+00 -0.88174256490E+02  0.15296786783E+03  0.12499787630E+03 0.  0.
    9000005    1    3    3    0    0  0.49354359653E+02 -0.28581313663E+02 -0.12830253273E+02  0.58466740173E+02  0.10000000000E+01 0.  0.
    9000005    1    3    3    0    0 -0.49354359653E+02  0.28581313663E+02 -0.75344003217E+02  0.94501127656E+02  0.10000000000E+01 0.  0.
<mgrwt>
<rscale>  0 0.12499788E+03</rscale>
<asrwt>0</asrwt>
<pdfrwt beam="2">  1        4 0.18549394E-01 0.12499788E+03</pdfrwt>
<pdfrwt beam="1">  1       -4 0.49841240E-02 0.12499788E+03</pdfrwt>
<totfact> 0.98720071E+03</totfact>
</mgrwt>
</event>
<event>
 5    1  0.3183609E-002  0.1249962E+03  0.7818608E-02  0.1235075E+00
         -4   -1    0    0    0  501 -0.00000000000E+00  0.00000000000E+00  0.44474856492E+03  0.44475037818E+03  0.12700000000E+01 0. -1.
          4   -1    0    0  501    0  0.00000000000E+00 -0.00000000000E+00 -0.87347596857E+01  0.88266033539E+01  0.12700000000E+01 0. -1.
         25    2    1    2    0    0  0.00000000000E+00  0.00000000000E+00  0.43601380523E+03  0.45357698154E+03  0.12499615926E+03 0.  0.
    9000005    1    3    3    0    0 -0.21746767951E+02  0.13834638569E+02  0.42457970302E+03  0.42536248466E+03  0.10000000000E+01 0.  0.
    9000005    1    3    3    0    0  0.21746767951E+02 -0.13834638569E+02  0.11434102211E+02  0.28214496877E+02  0.10000000000E+01 0.  0.
<mgrwt>
<rscale>  0 0.12499616E+03</rscale>
<asrwt>0</asrwt>
<pdfrwt beam="2">  1        4 0.13510141E-02 0.12499616E+03</pdfrwt>
<pdfrwt beam="1">  1       -4 0.68430032E-01 0.12499616E+03</pdfrwt>
<totfact> 0.59660229E+03</totfact>
</mgrwt>
</event>
<event>
 5    1  0.3183609E-002  0.1250003E+03  0.7818608E-02  0.1235069E+00
          4   -1    0    0  501    0  0.00000000000E+00  0.00000000000E+00  0.53542129782E+03  0.53542280402E+03  0.12700000000E+01 0.  1.
         -4   -1    0    0    0  501 -0.00000000000E+00 -0.00000000000E+00 -0.72388891179E+01  0.73494500244E+01  0.12700000000E+01 0.  1.
         25    2    1    2    0    0  0.00000000000E+00  0.00000000000E+00  0.52818240870E+03  0.54277225404E+03  0.12500025157E+03 0.  0.
    9000005    1    3    3    0    0  0.67041905120E+01  0.55418903302E+02  0.14211838514E+03  0.15269196577E+03  0.10000000000E+01 0.  0.
    9000005    1    3    3    0    0 -0.67041905120E+01 -0.55418903302E+02  0.38606402356E+03  0.39008028827E+03  0.10000000000E+01 0.  0.
<mgrwt>
<rscale>  0 0.12500025E+03</rscale>
<asrwt>0</asrwt>
<pdfrwt beam="1">  1        4 0.82381173E-01 0.12500025E+03</pdfrwt>
<pdfrwt beam="2">  1       -4 0.11222952E-02 0.12500025E+03</pdfrwt>
<totfact> 0.52691744E+03</totfact>
</mgrwt>
</event>
<event>
 5    1  0.3183609E-002  0.1250080E+03  0.7818608E-02  0.1235057E+00
         -4   -1    0    0    0  501 -0.00000000000E+00  0.00000000000E+00  0.22435825273E+03  0.22436184718E+03  0.12700000000E+01 0.  1.
          4   -1    0    0  501    0  0.00000000000E+00 -0.00000000000E+00 -0.17386111388E+02  0.17432434403E+02  0.12700000000E+01 0.  1.
         25    2    1    2    0    0  0.00000000000E+00  0.00000000000E+00  0.20697214134E+03  0.24179428158E+03  0.12500802899E+03 0.  0.
    9000005    1    3    3    0    0 -0.15330932872E+02 -0.60299508547E+02  0.11487728876E+03  0.13064784616E+03  0.10000000000E+01 0.  0.
    9000005    1    3    3    0    0  0.15330932872E+02  0.60299508547E+02  0.92094852581E+02  0.11114643542E+03  0.10000000000E+01 0.  0.
<mgrwt>
<rscale>  0 0.12500803E+03</rscale>
<asrwt>0</asrwt>
<pdfrwt beam="2">  1        4 0.26786262E-02 0.12500803E+03</pdfrwt>
<pdfrwt beam="1">  1       -4 0.34520494E-01 0.12500803E+03</pdfrwt>
<totfact> 0.83515916E+03</totfact>
</mgrwt>
</event>
<event>
 5    1  0.3183609E-002  0.1250029E+03  0.7818608E-02  0.1235065E+00
         -4   -1    0    0    0  501 -0.00000000000E+00  0.00000000000E+00  0.10650963917E+03  0.10651721051E+03  0.12700000000E+01 0.  1.
          4   -1    0    0  501    0  0.00000000000E+00 -0.00000000000E+00 -0.36656915655E+02  0.36678908999E+02  0.12700000000E+01 0.  1.
         25    2    1    2    0    0  0.00000000000E+00  0.00000000000E+00  0.69852723510E+02  0.14319611951E+03  0.12500290261E+03 0.  0.
    9000005    1    3    3    0    0  0.25082771823E+02  0.15882335504E+02  0.97921165893E+02  0.10232765390E+03  0.10000000000E+01 0.  0.
    9000005    1    3    3    0    0 -0.25082771823E+02 -0.15882335504E+02 -0.28068442383E+02  0.40868465608E+02  0.10000000000E+01 0.  0.
<mgrwt>
<rscale>  0 0.12500290E+03</rscale>
<asrwt>0</asrwt>
<pdfrwt beam="2">  1        4 0.56417998E-02 0.12500290E+03</pdfrwt>
<pdfrwt beam="1">  1       -4 0.16388372E-01 0.12500290E+03</pdfrwt>
<totfact> 0.10067111E+04</totfact>
</mgrwt>
</event>
<event>
 5    1  0.3183609E-002  0.1250017E+03  0.7818608E-02  0.1235067E+00
          4   -1    0    0  501    0  0.00000000000E+00  0.00000000000E+00  0.14243709549E+03  0.14244275718E+03  0.12700000000E+01 0.  1.
         -4   -1    0    0    0  501 -0.00000000000E+00 -0.00000000000E+00 -0.27404226017E+02  0.27433638176E+02  0.12700000000E+01 0.  1.
         25    2    1    2    0    0  0.00000000000E+00  0.00000000000E+00  0.11503286948E+03  0.16987639536E+03  0.12500171454E+03 0.  0.
    9000005    1    3    3    0    0  0.21470503270E+02 -0.44533802159E+02  0.55695768184E+01  0.49762056140E+02  0.10000000000E+01 0.  0.
    9000005    1    3    3    0    0 -0.21470503270E+02  0.44533802159E+02  0.10946329266E+03  0.12011433921E+03  0.10000000000E+01 0.  0.
<mgrwt>
<rscale>  0 0.12500171E+03</rscale>
<asrwt>0</asrwt>
<pdfrwt beam="1">  1        4 0.21916097E-01 0.12500171E+03</pdfrwt>
<pdfrwt beam="2">  1       -4 0.42187328E-02 0.12500171E+03</pdfrwt>
<totfact> 0.95468006E+03</totfact>
</mgrwt>
</event>
<event>
 5    1  0.3183609E-002  0.1250009E+03  0.7818608E-02  0.1235068E+00
          4   -1    0    0  501    0  0.00000000000E+00  0.00000000000E+00  0.92752503298E+01  0.93617930270E+01  0.12700000000E+01 0. -1.
         -4   -1    0    0    0  501 -0.00000000000E+00 -0.00000000000E+00 -0.41911085909E+03  0.41911278328E+03  0.12700000000E+01 0. -1.
         25    2    1    2    0    0  0.00000000000E+00  0.00000000000E+00 -0.40983560876E+03  0.42847457631E+03  0.12500094532E+03 0.  0.
    9000005    1    3    3    0    0 -0.10748337973E+02  0.56181735639E+02 -0.29118566734E+03  0.29675243395E+03  0.10000000000E+01 0.  0.
    9000005    1    3    3    0    0  0.10748337973E+02 -0.56181735639E+02 -0.11864994142E+03  0.13172214236E+03  0.10000000000E+01 0.  0.
<mgrwt>
<rscale>  0 0.12500095E+03</rscale>
<asrwt>0</asrwt>
<pdfrwt beam="1">  1        4 0.14337671E-02 0.12500095E+03</pdfrwt>
<pdfrwt beam="2">  1       -4 0.64485384E-01 0.12500095E+03</pdfrwt>
<totfact> 0.61873222E+03</totfact>
</mgrwt>
</event>
<event>
 5    1  0.3183609E-002  0.1250002E+03  0.7818608E-02  0.1235069E+00
          4   -1    0    0  501    0  0.00000000000E+00  0.00000000000E+00  0.72103654823E+01  0.73213571412E+01  0.12700000000E+01 0. -1.
         -4   -1    0    0    0  501 -0.00000000000E+00 -0.00000000000E+00 -0.53750701555E+03  0.53750851590E+03  0.12700000000E+01 0. -1.
         25    2    1    2    0    0  0.00000000000E+00  0.00000000000E+00 -0.53029665007E+03  0.54482987304E+03  0.12500021394E+03 0.  0.
    9000005    1    3    3    0    0  0.11997766891E+02 -0.60622972613E+02 -0.22468760321E+03  0.23303349599E+03  0.10000000000E+01 0.  0.
    9000005    1    3    3    0    0 -0.11997766891E+02  0.60622972613E+02 -0.30560904686E+03  0.31179637705E+03  0.10000000000E+01 0.  0.
<mgrwt>
<rscale>  0 0.12500021E+03</rscale>
<asrwt>0</asrwt>
<pdfrwt beam="1">  1        4 0.11179406E-02 0.12500021E+03</pdfrwt>
<pdfrwt beam="2">  1       -4 0.82702009E-01 0.12500021E+03</pdfrwt>
<totfact> 0.52546267E+03</totfact>
</mgrwt>
</event>
<event>
 5    1  0.3183609E-002  0.1249977E+03  0.7818608E-02  0.1235073E+00
         -4   -1    0    0    0  501 -0.00000000000E+00  0.00000000000E+00  0.64624289061E+03  0.64624413852E+03  0.12700000000E+01 0. -1.
          4   -1    0    0  501    0  0.00000000000E+00 -0.00000000000E+00 -0.59763534946E+01  0.61098036869E+01  0.12700000000E+01 0. -1.
         25    2    1    2    0    0  0.00000000000E+00  0.00000000000E+00  0.64026653712E+03  0.65235394220E+03  0.12499770940E+03 0.  0.
    9000005    1    3    3    0    0  0.25516610749E+02  0.22232474456E+02  0.59429968662E+03  0.59526338528E+03  0.10000000000E+01 0.  0.
    9000005    1    3    3    0    0 -0.25516610749E+02 -0.22232474456E+02  0.45966850499E+02  0.57090556919E+02  0.10000000000E+01 0.  0.
<mgrwt>
<rscale>  0 0.12499771E+03</rscale>
<asrwt>0</asrwt>
<pdfrwt beam="2">  1        4 0.92980029E-03 0.12499771E+03</pdfrwt>
<pdfrwt beam="1">  1       -4 0.99432355E-01 0.12499771E+03</pdfrwt>
<totfact> 0.45723372E+03</totfact>
</mgrwt>
</event>
<event>
 5    1  0.3183609E-002  0.1249998E+03  0.7818608E-02  0.1235070E+00
         -4   -1    0    0    0  501 -0.00000000000E+00  0.00000000000E+00  0.14887601606E+01  0.19568614708E+01  0.12700000000E+01 0.  1.
          4   -1    0    0  501    0  0.00000000000E+00 -0.00000000000E+00 -0.22668942321E+04  0.22668945878E+04  0.12700000000E+01 0.  1.
         25    2    1    2    0    0  0.00000000000E+00  0.00000000000E+00 -0.22654054719E+04  0.22688514493E+04  0.12499978719E+03 0.  0.
    9000005    1    3    3    0    0  0.61816550695E+02 -0.67117864023E+01 -0.12459131980E+04  0.12474642404E+04  0.10000000000E+01 0.  0.
    9000005    1    3    3    0    0 -0.61816550695E+02  0.67117864023E+01 -0.10194922739E+04  0.10213872089E+04  0.10000000000E+01 0.  0.
<mgrwt>
<rscale>  0 0.12499979E+03</rscale>
<asrwt>0</asrwt>
<pdfrwt beam="2">  1        4 0.34878661E+00 0.12499979E+03</pdfrwt>
<pdfrwt beam="1">  1       -4 0.26507700E-03 0.12499979E+03</pdfrwt>
<totfact> 0.67477682E+02</totfact>
</mgrwt>
</event>
<event>
 5    1  0.3183609E-002  0.1250006E+03  0.7818608E-02  0.1235068E+00
         -4   -1    0    0    0  501 -0.00000000000E+00  0.00000000000E+00  0.45802360801E+02  0.45819964589E+02  0.12700000000E+01 0.  1.
          4   -1    0    0  501    0  0.00000000000E+00 -0.00000000000E+00 -0.85247006823E+02  0.85256466454E+02  0.12700000000E+01 0.  1.
         25    2    1    2    0    0  0.00000000000E+00  0.00000000000E+00 -0.39444646022E+02  0.13107643104E+03  0.12500060270E+03 0.  0.
    9000005    1    3    3    0    0 -0.18852781066E+02  0.56582414025E+02 -0.39291991270E+02  0.71427288264E+02  0.10000000000E+01 0.  0.
    9000005    1    3    3    0    0  0.18852781066E+02 -0.56582414025E+02 -0.15265475129E+00  0.59649142779E+02  0.10000000000E+01 0.  0.
<mgrwt>
<rscale>  0 0.12500060E+03</rscale>
<asrwt>0</asrwt>
<pdfrwt beam="2">  1        4 0.13117006E-01 0.12500060E+03</pdfrwt>
<pdfrwt beam="1">  1       -4 0.70485989E-02 0.12500060E+03</pdfrwt>
<totfact> 0.10321311E+04</totfact>
</mgrwt>
</event>
<event>
 5    1  0.3183609E-002  0.1249981E+03  0.7818608E-02  0.1235072E+00
         -4   -1    0    0    0  501 -0.00000000000E+00  0.00000000000E+00  0.65477471132E+02  0.65489786424E+02  0.12700000000E+01 0.  1.
          4   -1    0    0  501    0  0.00000000000E+00 -0.00000000000E+00 -0.59631408457E+02  0.59644930837E+02  0.12700000000E+01 0.  1.
         25    2    1    2    0    0  0.00000000000E+00  0.00000000000E+00  0.58460626748E+01  0.12513471726E+03  0.12499808405E+03 0.  0.
    9000005    1    3    3    0    0 -0.43860201577E+02 -0.33051912929E+02  0.32771457611E+02  0.63961821930E+02  0.10000000000E+01 0.  0.
    9000005    1    3    3    0    0  0.43860201577E+02  0.33051912929E+02 -0.26925394936E+02  0.61172895331E+02  0.10000000000E+01 0.  0.
<mgrwt>
<rscale>  0 0.12499808E+03</rscale>
<asrwt>0</asrwt>
<pdfrwt beam="2">  1        4 0.91760504E-02 0.12499808E+03</pdfrwt>
<pdfrwt beam="1">  1       -4 0.10075445E-01 0.12499808E+03</pdfrwt>
<totfact> 0.10450390E+04</totfact>
</mgrwt>
</event>
<event>
 5    1  0.3183609E-002  0.1249960E+03  0.7818608E-02  0.1235075E+00
          4   -1    0    0  501    0  0.00000000000E+00  0.00000000000E+00  0.39955460629E+02  0.39975639258E+02  0.12700000000E+01 0.  1.
         -4   -1    0    0    0  501 -0.00000000000E+00 -0.00000000000E+00 -0.97709929530E+02  0.97718182692E+02  0.12700000000E+01 0.  1.
         25    2    1    2    0    0  0.00000000000E+00  0.00000000000E+00 -0.57754468900E+02  0.13769382195E+03  0.12499603964E+03 0.  0.
    9000005    1    3    3    0    0  0.28647763354E+02  0.50774254982E+02 -0.53663719591E+02  0.79243385304E+02  0.10000000000E+01 0.  0.
    9000005    1    3    3    0    0 -0.28647763354E+02 -0.50774254982E+02 -0.40907493099E+01  0.58450436646E+02  0.10000000000E+01 0.  0.
<mgrwt>
<rscale>  0 0.12499604E+03</rscale>
<asrwt>0</asrwt>
<pdfrwt beam="1">  1        4 0.61491810E-02 0.12499604E+03</pdfrwt>
<pdfrwt beam="2">  1       -4 0.15034484E-01 0.12499604E+03</pdfrwt>
<totfact> 0.10182508E+04</totfact>
</mgrwt>
</event>
<event>
 5    1  0.3183609E-002  0.1249995E+03  0.7818608E-02  0.1235070E+00
          4   -1    0    0  501    0  0.00000000000E+00  0.00000000000E+00  0.22152867992E+03  0.22153232028E+03  0.12700000000E+01 0.  1.
         -4   -1    0    0    0  501 -0.00000000000E+00 -0.00000000000E+00 -0.17606365950E+02  0.17652110978E+02  0.12700000000E+01 0.  1.
         25    2    1    2    0    0  0.00000000000E+00  0.00000000000E+00  0.20392231397E+03  0.23918443126E+03  0.12499952808E+03 0.  0.
    9000005    1    3    3    0    0 -0.61669659353E+02  0.17742317155E+01  0.12099292558E+03  0.13581819769E+03  0.10000000000E+01 0.  0.
    9000005    1    3    3    0    0  0.61669659353E+02 -0.17742317155E+01  0.82929388390E+02  0.10336623357E+03  0.10000000000E+01 0.  0.
<mgrwt>
<rscale>  0 0.12499953E+03</rscale>
<asrwt>0</asrwt>
<pdfrwt beam="1">  1        4 0.34085134E-01 0.12499953E+03</pdfrwt>
<pdfrwt beam="2">  1       -4 0.27124706E-02 0.12499953E+03</pdfrwt>
<totfact> 0.83919865E+03</totfact>
</mgrwt>
</event>
<event>
 5    1  0.3183609E-002  0.1250040E+03  0.7818608E-02  0.1235063E+00
         -4   -1    0    0    0  501 -0.00000000000E+00  0.00000000000E+00  0.69584056173E+03  0.69584172069E+03  0.12700000000E+01 0. -1.
          4   -1    0    0  501    0  0.00000000000E+00 -0.00000000000E+00 -0.55410694713E+01  0.56847472139E+01  0.12700000000E+01 0. -1.
         25    2    1    2    0    0  0.00000000000E+00  0.00000000000E+00  0.69029949226E+03  0.70152646790E+03  0.12500398455E+03 0.  0.
    9000005    1    3    3    0    0 -0.53172680428E+02  0.67654727263E+01  0.16483018995E+03  0.17332944667E+03  0.10000000000E+01 0.  0.
    9000005    1    3    3    0    0  0.53172680428E+02 -0.67654727263E+01  0.52546930231E+03  0.52819702123E+03  0.10000000000E+01 0.  0.
<mgrwt>
<rscale>  0 0.12500398E+03</rscale>
<asrwt>0</asrwt>
<pdfrwt beam="2">  1        4 0.86361400E-03 0.12500398E+03</pdfrwt>
<pdfrwt beam="1">  1       -4 0.10706348E+00 0.12500398E+03</pdfrwt>
<totfact> 0.43002504E+03</totfact>
</mgrwt>
</event>
<event>
 4    1  0.3183609E-002  0.1251673E+03  0.7818608E-02  0.1234808E+00
         -4   -1    0    0    0  501 -0.00000000000E+00  0.00000000000E+00  0.14952702668E+02  0.15006539144E+02  0.12700000000E+01 0. -1.
          4   -1    0    0  501    0  0.00000000000E+00 -0.00000000000E+00 -0.26141393695E+03  0.26141702188E+03  0.12700000000E+01 0. -1.
    9000005    1    1    2    0    0 -0.32103759536E+00  0.26678499335E+02  0.17726737504E+01  0.26757947681E+02  0.10000000000E+01 0.  0.
    9000005    1    1    2    0    0  0.32103759536E+00 -0.26678499335E+02 -0.24823390803E+03  0.24966561335E+03  0.10000000000E+01 0.  0.
<mgrwt>
<rscale>  0 0.12516727E+03</rscale>
<asrwt>0</asrwt>
<pdfrwt beam="2">  1        4 0.40221904E-01 0.12516727E+03</pdfrwt>
<pdfrwt beam="1">  1       -4 0.23047946E-02 0.12516727E+03</pdfrwt>
<totfact> 0.78362916E+03</totfact>
</mgrwt>
</event>
<event>
 5    1  0.3183609E-002  0.1250003E+03  0.7818608E-02  0.1235069E+00
         -4   -1    0    0    0  501 -0.00000000000E+00  0.00000000000E+00  0.11124931864E+02  0.11197187548E+02  0.12700000000E+01 0.  1.
          4   -1    0    0  501    0  0.00000000000E+00 -0.00000000000E+00 -0.34991731957E+03  0.34991962425E+03  0.12700000000E+01 0.  1.
         25    2    1    2    0    0  0.00000000000E+00  0.00000000000E+00 -0.33879238770E+03  0.36111681179E+03  0.12500027918E+03 0.  0.
    9000005    1    3    3    0    0 -0.72315618380E+01 -0.54858529837E+02 -0.25330021713E+03  0.25927543999E+03  0.10000000000E+01 0.  0.
    9000005    1    3    3    0    0  0.72315618380E+01  0.54858529837E+02 -0.85492170572E+02  0.10184137181E+03  0.10000000000E+01 0.  0.
<mgrwt>
<rscale>  0 0.12500028E+03</rscale>
<asrwt>0</asrwt>
<pdfrwt beam="2">  1        4 0.53839161E-01 0.12500028E+03</pdfrwt>
<pdfrwt beam="1">  1       -4 0.17172637E-02 0.12500028E+03</pdfrwt>
<totfact> 0.68518220E+03</totfact>
</mgrwt>
</event>
<event>
 5    1  0.3183609E-002  0.1250000E+03  0.7818608E-02  0.1235069E+00
         -4   -1    0    0    0  501 -0.00000000000E+00  0.00000000000E+00  0.39626654446E+02  0.39647000423E+02  0.12700000000E+01 0.  1.
          4   -1    0    0  501    0  0.00000000000E+00 -0.00000000000E+00 -0.98526596333E+02  0.98534781093E+02  0.12700000000E+01 0.  1.
         25    2    1    2    0    0  0.00000000000E+00  0.00000000000E+00 -0.58899941887E+02  0.13818178152E+03  0.12500000635E+03 0.  0.
    9000005    1    3    3    0    0 -0.62293696357E+01  0.58248151681E+02 -0.53507208870E+02  0.79345281028E+02  0.10000000000E+01 0.  0.
    9000005    1    3    3    0    0  0.62293696357E+01 -0.58248151681E+02 -0.53927330173E+01  0.58836500488E+02  0.10000000000E+01 0.  0.
<mgrwt>
<rscale>  0 0.12500001E+03</rscale>
<asrwt>0</asrwt>
<pdfrwt beam="2">  1        4 0.15160132E-01 0.12500001E+03</pdfrwt>
<pdfrwt beam="1">  1       -4 0.60986031E-02 0.12500001E+03</pdfrwt>
<totfact> 0.10171408E+04</totfact>
</mgrwt>
</event>
<event>
 5    1  0.3183609E-002  0.1250021E+03  0.7818608E-02  0.1235066E+00
         -4   -1    0    0    0  501 -0.00000000000E+00  0.00000000000E+00  0.71530977248E+01  0.72649643537E+01  0.12700000000E+01 0. -1.
          4   -1    0    0  501    0  0.00000000000E+00 -0.00000000000E+00 -0.54176083376E+03  0.54176232233E+03  0.12700000000E+01 0. -1.
         25    2    1    2    0    0  0.00000000000E+00  0.00000000000E+00 -0.53460773603E+03  0.54902728668E+03  0.12500212036E+03 0.  0.
    9000005    1    3    3    0    0  0.31496026330E+02  0.53728171828E+02 -0.28998468804E+03  0.29659877852E+03  0.10000000000E+01 0.  0.
    9000005    1    3    3    0    0 -0.31496026330E+02 -0.53728171828E+02 -0.24462304800E+03  0.25242850816E+03  0.10000000000E+01 0.  0.
<mgrwt>
<rscale>  0 0.12500212E+03</rscale>
<asrwt>0</asrwt>
<pdfrwt beam="2">  1        4 0.83356508E-01 0.12500212E+03</pdfrwt>
<pdfrwt beam="1">  1       -4 0.11091966E-02 0.12500212E+03</pdfrwt>
<totfact> 0.52249376E+03</totfact>
</mgrwt>
</event>
<event>
 5    1  0.3183609E-002  0.1250051E+03  0.7818608E-02  0.1235061E+00
         -4   -1    0    0    0  501 -0.00000000000E+00  0.00000000000E+00  0.14713352923E+03  0.14713901020E+03  0.12700000000E+01 0.  1.
          4   -1    0    0  501    0  0.00000000000E+00 -0.00000000000E+00 -0.26530023403E+02  0.26560403645E+02  0.12700000000E+01 0.  1.
         25    2    1    2    0    0  0.00000000000E+00  0.00000000000E+00  0.12060350583E+03  0.17369941385E+03  0.12500512291E+03 0.  0.
    9000005    1    3    3    0    0  0.61114729301E+02 -0.13029013718E+02  0.61548357365E+02  0.87715253122E+02  0.10000000000E+01 0.  0.
    9000005    1    3    3    0    0 -0.61114729301E+02  0.13029013718E+02  0.59055148462E+02  0.85984160727E+02  0.10000000000E+01 0.  0.
<mgrwt>
<rscale>  0 0.12500512E+03</rscale>
<asrwt>0</asrwt>
<pdfrwt beam="2">  1        4 0.40843007E-02 0.12500512E+03</pdfrwt>
<pdfrwt beam="1">  1       -4 0.22638686E-01 0.12500512E+03</pdfrwt>
<totfact> 0.94752690E+03</totfact>
</mgrwt>
</event>
<event>
 5    1  0.3183609E-002  0.1249960E+03  0.7818608E-02  0.1235076E+00
         -4   -1    0    0    0  501 -0.00000000000E+00  0.00000000000E+00  0.25283936803E+02  0.25315812455E+02  0.12700000000E+01 0. -1.
          4   -1    0    0  501    0  0.00000000000E+00 -0.00000000000E+00 -0.15435356661E+03  0.15435879122E+03  0.12700000000E+01 0. -1.
         25    2    1    2    0    0  0.00000000000E+00  0.00000000000E+00 -0.12906962981E+03  0.17967460367E+03  0.12499597540E+03 0.  0.
    9000005    1    3    3    0    0  0.58535006956E+02  0.13812369607E+02 -0.40146108050E+02  0.72317622922E+02  0.10000000000E+01 0.  0.
    9000005    1    3    3    0    0 -0.58535006956E+02 -0.13812369607E+02 -0.88923521760E+02  0.10735698075E+03  0.10000000000E+01 0.  0.
<mgrwt>
<rscale>  0 0.12499598E+03</rscale>
<asrwt>0</asrwt>
<pdfrwt beam="2">  1        4 0.23749556E-01 0.12499598E+03</pdfrwt>
<pdfrwt beam="1">  1       -4 0.38926904E-02 0.12499598E+03</pdfrwt>
<totfact> 0.93684063E+03</totfact>
</mgrwt>
</event>
<event>
 5    1  0.3183609E-002  0.1250011E+03  0.7818608E-02  0.1235068E+00
          4   -1    0    0  501    0  0.00000000000E+00  0.00000000000E+00  0.93144261618E+02  0.93152919291E+02  0.12700000000E+01 0. -1.
         -4   -1    0    0    0  501 -0.00000000000E+00 -0.00000000000E+00 -0.41918173924E+02  0.41937408183E+02  0.12700000000E+01 0. -1.
         25    2    1    2    0    0  0.00000000000E+00  0.00000000000E+00  0.51226087694E+02  0.13509032747E+03  0.12500113806E+03 0.  0.
    9000005    1    3    3    0    0 -0.34487884935E+02  0.14581834695E+02 -0.28457998738E+02  0.47041490225E+02  0.10000000000E+01 0.  0.
    9000005    1    3    3    0    0  0.34487884935E+02 -0.14581834695E+02  0.79684086432E+02  0.88048837249E+02  0.10000000000E+01 0.  0.
<mgrwt>
<rscale>  0 0.12500114E+03</rscale>
<asrwt>0</asrwt>
<pdfrwt beam="1">  1        4 0.14332032E-01 0.12500114E+03</pdfrwt>
<pdfrwt beam="2">  1       -4 0.64510955E-02 0.12500114E+03</pdfrwt>
<totfact> 0.10235905E+04</totfact>
</mgrwt>
</event>
<event>
 5    1  0.3183609E-002  0.1249969E+03  0.7818608E-02  0.1235074E+00
         -4   -1    0    0    0  501 -0.00000000000E+00  0.00000000000E+00  0.46098270898E+02  0.46115761729E+02  0.12700000000E+01 0. -1.
          4   -1    0    0  501    0  0.00000000000E+00 -0.00000000000E+00 -0.84694900442E+02  0.84704421731E+02  0.12700000000E+01 0. -1.
         25    2    1    2    0    0  0.00000000000E+00  0.00000000000E+00 -0.38596629543E+02  0.13082018346E+03  0.12499688231E+03 0.  0.
    9000005    1    3    3    0    0  0.10569581002E+02  0.11104366601E+02  0.44104787350E+02  0.46703910621E+02  0.10000000000E+01 0.  0.
    9000005    1    3    3    0    0 -0.10569581002E+02 -0.11104366601E+02 -0.82701416893E+02  0.84116272838E+02  0.10000000000E+01 0.  0.
<mgrwt>
<rscale>  0 0.12499688E+03</rscale>
<asrwt>0</asrwt>
<pdfrwt beam="2">  1        4 0.13032062E-01 0.12499688E+03</pdfrwt>
<pdfrwt beam="1">  1       -4 0.70941196E-02 0.12499688E+03</pdfrwt>
<totfact> 0.10327672E+04</totfact>
</mgrwt>
</event>
<event>
 5    1  0.3183609E-002  0.1250085E+03  0.7818608E-02  0.1235056E+00
         -4   -1    0    0    0  501 -0.00000000000E+00  0.00000000000E+00  0.89957134443E+02  0.89966098821E+02  0.12700000000E+01 0. -1.
          4   -1    0    0  501    0  0.00000000000E+00 -0.00000000000E+00 -0.43408948598E+02  0.43427522591E+02  0.12700000000E+01 0. -1.
         25    2    1    2    0    0  0.00000000000E+00  0.00000000000E+00  0.46548185845E+02  0.13339362141E+03  0.12500849822E+03 0.  0.
    9000005    1    3    3    0    0 -0.41617056561E+02  0.45596631942E+02  0.33660913979E+02  0.70321329418E+02  0.10000000000E+01 0.  0.
    9000005    1    3    3    0    0  0.41617056561E+02 -0.45596631942E+02  0.12887271866E+02  0.63072291994E+02  0.10000000000E+01 0.  0.
<mgrwt>
<rscale>  0 0.12500850E+03</rscale>
<asrwt>0</asrwt>
<pdfrwt beam="2">  1        4 0.66804182E-02 0.12500850E+03</pdfrwt>
<pdfrwt beam="1">  1       -4 0.13841677E-01 0.12500850E+03</pdfrwt>
<totfact> 0.10270073E+04</totfact>
</mgrwt>
</event>
<event>
 5    1  0.3183609E-002  0.1250077E+03  0.7818608E-02  0.1235057E+00
         -4   -1    0    0    0  501 -0.00000000000E+00  0.00000000000E+00  0.59513868057E+02  0.59527417138E+02  0.12700000000E+01 0.  1.
          4   -1    0    0  501    0  0.00000000000E+00 -0.00000000000E+00 -0.65616929059E+02  0.65629218182E+02  0.12700000000E+01 0.  1.
         25    2    1    2    0    0  0.00000000000E+00  0.00000000000E+00 -0.61030610016E+01  0.12515663532E+03  0.12500774380E+03 0.  0.
    9000005    1    3    3    0    0  0.37962413733E+02 -0.44452048416E+01 -0.52555637776E+02  0.64992305426E+02  0.10000000000E+01 0.  0.
    9000005    1    3    3    0    0 -0.37962413733E+02  0.44452048416E+01  0.46452576775E+02  0.60164329894E+02  0.10000000000E+01 0.  0.
<mgrwt>
<rscale>  0 0.12500774E+03</rscale>
<asrwt>0</asrwt>
<pdfrwt beam="2">  1        4 0.10096900E-01 0.12500774E+03</pdfrwt>
<pdfrwt beam="1">  1       -4 0.91579672E-02 0.12500774E+03</pdfrwt>
<totfact> 0.10447633E+04</totfact>
</mgrwt>
</event>
<event>
 5    1  0.3183609E-002  0.1250046E+03  0.7818608E-02  0.1235062E+00
          4   -1    0    0  501    0  0.00000000000E+00  0.00000000000E+00  0.20426072762E+03  0.20426467572E+03  0.12700000000E+01 0. -1.
         -4   -1    0    0    0  501 -0.00000000000E+00 -0.00000000000E+00 -0.19100017402E+02  0.19142193311E+02  0.12700000000E+01 0. -1.
         25    2    1    2    0    0  0.00000000000E+00  0.00000000000E+00  0.18516071022E+03  0.22340686903E+03  0.12500456201E+03 0.  0.
    9000005    1    3    3    0    0  0.23111948774E+02  0.37204682731E+02  0.17224942720E+03  0.17773355273E+03  0.10000000000E+01 0.  0.
    9000005    1    3    3    0    0 -0.23111948774E+02 -0.37204682731E+02  0.12911283015E+02  0.45673316306E+02  0.10000000000E+01 0.  0.
<mgrwt>
<rscale>  0 0.12500456E+03</rscale>
<asrwt>0</asrwt>
<pdfrwt beam="1">  1        4 0.31428272E-01 0.12500456E+03</pdfrwt>
<pdfrwt beam="2">  1       -4 0.29420125E-02 0.12500456E+03</pdfrwt>
<totfact> 0.86323320E+03</totfact>
</mgrwt>
</event>
<event>
 5    1  0.3183609E-002  0.1249973E+03  0.7818608E-02  0.1235073E+00
          4   -1    0    0  501    0  0.00000000000E+00  0.00000000000E+00  0.15854658648E+03  0.15855167292E+03  0.12700000000E+01 0. -1.
         -4   -1    0    0    0  501 -0.00000000000E+00 -0.00000000000E+00 -0.24614956620E+02  0.24647697447E+02  0.12700000000E+01 0. -1.
         25    2    1    2    0    0  0.00000000000E+00  0.00000000000E+00  0.13393162986E+03  0.18319937037E+03  0.12499731127E+03 0.  0.
    9000005    1    3    3    0    0 -0.57592426993E+02  0.24113568155E+02  0.63163611443E+02  0.88820006905E+02  0.10000000000E+01 0.  0.
    9000005    1    3    3    0    0  0.57592426993E+02 -0.24113568155E+02  0.70768018419E+02  0.94379363460E+02  0.10000000000E+01 0.  0.
<mgrwt>
<rscale>  0 0.12499731E+03</rscale>
<asrwt>0</asrwt>
<pdfrwt beam="1">  1        4 0.24394693E-01 0.12499731E+03</pdfrwt>
<pdfrwt beam="2">  1       -4 0.37898261E-02 0.12499731E+03</pdfrwt>
<totfact> 0.93049862E+03</totfact>
</mgrwt>
</event>
<event>
 5    1  0.3183609E-002  0.1250016E+03  0.7818608E-02  0.1235067E+00
          4   -1    0    0  501    0  0.00000000000E+00  0.00000000000E+00  0.22311951683E+02  0.22348066760E+02  0.12700000000E+01 0.  1.
         -4   -1    0    0    0  501 -0.00000000000E+00 -0.00000000000E+00 -0.17489889785E+03  0.17490350873E+03  0.12700000000E+01 0.  1.
         25    2    1    2    0    0  0.00000000000E+00  0.00000000000E+00 -0.15258694616E+03  0.19725157550E+03  0.12500163157E+03 0.  0.
    9000005    1    3    3    0    0  0.75230685469E+01 -0.52522252357E+02 -0.24191808594E+02  0.58321755426E+02  0.10000000000E+01 0.  0.
    9000005    1    3    3    0    0 -0.75230685469E+01  0.52522252357E+02 -0.12839513757E+03  0.13892982007E+03  0.10000000000E+01 0.  0.
<mgrwt>
<rscale>  0 0.12500163E+03</rscale>
<asrwt>0</asrwt>
<pdfrwt beam="1">  1        4 0.34357408E-02 0.12500163E+03</pdfrwt>
<pdfrwt beam="2">  1       -4 0.26910655E-01 0.12500163E+03</pdfrwt>
<totfact> 0.90597340E+03</totfact>
</mgrwt>
</event>
<event>
 5    1  0.3183609E-002  0.1250029E+03  0.7818608E-02  0.1235065E+00
          4   -1    0    0  501    0  0.00000000000E+00  0.00000000000E+00  0.19342480937E+02  0.19384129302E+02  0.12700000000E+01 0.  1.
         -4   -1    0    0    0  501 -0.00000000000E+00 -0.00000000000E+00 -0.20170045091E+03  0.20170444912E+03  0.12700000000E+01 0.  1.
         25    2    1    2    0    0  0.00000000000E+00  0.00000000000E+00 -0.18235796997E+03  0.22108857842E+03  0.12500292116E+03 0.  0.
    9000005    1    3    3    0    0 -0.23054035003E+02  0.46043331444E+01  0.11231955060E+02  0.26073841837E+02  0.10000000000E+01 0.  0.
    9000005    1    3    3    0    0  0.23054035003E+02 -0.46043331444E+01 -0.19358992503E+03  0.19501473659E+03  0.10000000000E+01 0.  0.
<mgrwt>
<rscale>  0 0.12500292E+03</rscale>
<asrwt>0</asrwt>
<pdfrwt beam="1">  1        4 0.29792777E-02 0.12500292E+03</pdfrwt>
<pdfrwt beam="2">  1       -4 0.31034348E-01 0.12500292E+03</pdfrwt>
<totfact> 0.86690734E+03</totfact>
</mgrwt>
</event>
<event>
 5    1  0.3183609E-002  0.1250004E+03  0.7818608E-02  0.1235069E+00
         -4   -1    0    0    0  501 -0.00000000000E+00  0.00000000000E+00  0.27599447238E+02  0.27628651575E+02  0.12700000000E+01 0. -1.
          4   -1    0    0  501    0  0.00000000000E+00 -0.00000000000E+00 -0.14142771430E+03  0.14143341639E+03  0.12700000000E+01 0. -1.
         25    2    1    2    0    0  0.00000000000E+00  0.00000000000E+00 -0.11382826706E+03  0.16906206797E+03  0.12500043377E+03 0.  0.
    9000005    1    3    3    0    0 -0.42258476310E+02 -0.32263973045E+02 -0.10133138126E+03  0.11443684548E+03  0.10000000000E+01 0.  0.
    9000005    1    3    3    0    0  0.42258476310E+02  0.32263973045E+02 -0.12496885806E+02  0.54625222485E+02  0.10000000000E+01 0.  0.
<mgrwt>
<rscale>  0 0.12500043E+03</rscale>
<asrwt>0</asrwt>
<pdfrwt beam="2">  1        4 0.21760795E-01 0.12500043E+03</pdfrwt>
<pdfrwt beam="1">  1       -4 0.42487540E-02 0.12500043E+03</pdfrwt>
<totfact> 0.95622652E+03</totfact>
</mgrwt>
</event>
<event>
 5    1  0.3183609E-002  0.1250002E+03  0.7818608E-02  0.1235069E+00
         -4   -1    0    0    0  501 -0.00000000000E+00  0.00000000000E+00  0.29794993936E+03  0.29795264601E+03  0.12700000000E+01 0. -1.
          4   -1    0    0  501    0  0.00000000000E+00 -0.00000000000E+00 -0.13076927457E+02  0.13138452410E+02  0.12700000000E+01 0. -1.
         25    2    1    2    0    0  0.00000000000E+00  0.00000000000E+00  0.28487301191E+03  0.31109109842E+03  0.12500015442E+03 0.  0.
    9000005    1    3    3    0    0  0.33427177404E+02  0.26333299947E+02  0.28539822765E+02  0.51247832722E+02  0.10000000000E+01 0.  0.
    9000005    1    3    3    0    0 -0.33427177404E+02 -0.26333299947E+02  0.25633318914E+03  0.25984326570E+03  0.10000000000E+01 0.  0.
<mgrwt>
<rscale>  0 0.12500015E+03</rscale>
<asrwt>0</asrwt>
<pdfrwt beam="2">  1        4 0.20167762E-02 0.12500015E+03</pdfrwt>
<pdfrwt beam="1">  1       -4 0.45843387E-01 0.12500015E+03</pdfrwt>
<totfact> 0.74228074E+03</totfact>
</mgrwt>
</event>
<event>
 5    1  0.3183609E-002  0.1250022E+03  0.7818608E-02  0.1235066E+00
         -4   -1    0    0    0  501 -0.00000000000E+00  0.00000000000E+00  0.55772336343E+02  0.55786794147E+02  0.12700000000E+01 0. -1.
          4   -1    0    0  501    0  0.00000000000E+00 -0.00000000000E+00 -0.70012332550E+02  0.70023850287E+02  0.12700000000E+01 0. -1.
         25    2    1    2    0    0  0.00000000000E+00  0.00000000000E+00 -0.14239996207E+02  0.12581064443E+03  0.12500216303E+03 0.  0.
    9000005    1    3    3    0    0 -0.39290468845E+02  0.16522547281E+02 -0.53117332098E+02  0.68111573759E+02  0.10000000000E+01 0.  0.
    9000005    1    3    3    0    0  0.39290468845E+02 -0.16522547281E+02  0.38877335891E+02  0.57699070675E+02  0.10000000000E+01 0.  0.
<mgrwt>
<rscale>  0 0.12500216E+03</rscale>
<asrwt>0</asrwt>
<pdfrwt beam="2">  1        4 0.10773126E-01 0.12500216E+03</pdfrwt>
<pdfrwt beam="1">  1       -4 0.85823576E-02 0.12500216E+03</pdfrwt>
<totfact> 0.10434602E+04</totfact>
</mgrwt>
</event>
<event>
 5    1  0.3183609E-002  0.1250015E+03  0.7818608E-02  0.1235067E+00
         -4   -1    0    0    0  501 -0.00000000000E+00  0.00000000000E+00  0.12312180602E+04  0.12312187152E+04  0.12700000000E+01 0.  1.
          4   -1    0    0  501    0  0.00000000000E+00 -0.00000000000E+00 -0.30449726883E+01  0.32992057639E+01  0.12700000000E+01 0.  1.
         25    2    1    2    0    0  0.00000000000E+00  0.00000000000E+00  0.12281730875E+04  0.12345179210E+04  0.12500145718E+03 0.  0.
    9000005    1    3    3    0    0  0.21979853739E+02 -0.58471061673E+02  0.59597796136E+03  0.59924344756E+03  0.10000000000E+01 0.  0.
    9000005    1    3    3    0    0 -0.21979853739E+02  0.58471061673E+02  0.63219512617E+03  0.63527447342E+03  0.10000000000E+01 0.  0.
<mgrwt>
<rscale>  0 0.12500146E+03</rscale>
<asrwt>0</asrwt>
<pdfrwt beam="2">  1        4 0.48806467E-03 0.12500146E+03</pdfrwt>
<pdfrwt beam="1">  1       -4 0.18943755E+00 0.12500146E+03</pdfrwt>
<totfact> 0.23825983E+03</totfact>
</mgrwt>
</event>
<event>
 5    1  0.3183609E-002  0.1250007E+03  0.7818608E-02  0.1235068E+00
         -4   -1    0    0    0  501 -0.00000000000E+00  0.00000000000E+00  0.45364058506E+02  0.45381832314E+02  0.12700000000E+01 0.  1.
          4   -1    0    0  501    0  0.00000000000E+00 -0.00000000000E+00 -0.86070579317E+02  0.86079948443E+02  0.12700000000E+01 0.  1.
         25    2    1    2    0    0  0.00000000000E+00  0.00000000000E+00 -0.40706520811E+02  0.13146178076E+03  0.12500071585E+03 0.  0.
    9000005    1    3    3    0    0 -0.74015444967E+01 -0.18931190744E+02 -0.82501911678E+02  0.84974927328E+02  0.10000000000E+01 0.  0.
    9000005    1    3    3    0    0  0.74015444967E+01  0.18931190744E+02  0.41795390867E+02  0.46486853428E+02  0.10000000000E+01 0.  0.
<mgrwt>
<rscale>  0 0.12500072E+03</rscale>
<asrwt>0</asrwt>
<pdfrwt beam="2">  1        4 0.13243715E-01 0.12500072E+03</pdfrwt>
<pdfrwt beam="1">  1       -4 0.69811739E-02 0.12500072E+03</pdfrwt>
<totfact> 0.10313033E+04</totfact>
</mgrwt>
</event>
<event>
 5    1  0.3183609E-002  0.1249931E+03  0.7818608E-02  0.1235080E+00
         -4   -1    0    0    0  501 -0.00000000000E+00  0.00000000000E+00  0.25123080728E+02  0.25155160212E+02  0.12700000000E+01 0.  1.
          4   -1    0    0  501    0  0.00000000000E+00 -0.00000000000E+00 -0.15533335361E+03  0.15533854526E+03  0.12700000000E+01 0.  1.
         25    2    1    2    0    0  0.00000000000E+00  0.00000000000E+00 -0.13021027288E+03  0.18049370547E+03  0.12499305001E+03 0.  0.
    9000005    1    3    3    0    0  0.38089727550E+02 -0.44417640527E+02 -0.33433062892E+02  0.67398247968E+02  0.10000000000E+01 0.  0.
    9000005    1    3    3    0    0 -0.38089727550E+02  0.44417640527E+02 -0.96777209987E+02  0.11309545750E+03  0.10000000000E+01 0.  0.
<mgrwt>
<rscale>  0 0.12499305E+03</rscale>
<asrwt>0</asrwt>
<pdfrwt beam="2">  1        4 0.23900305E-01 0.12499305E+03</pdfrwt>
<pdfrwt beam="1">  1       -4 0.38679564E-02 0.12499305E+03</pdfrwt>
<totfact> 0.93542786E+03</totfact>
</mgrwt>
</event>
<event>
 5    1  0.3183609E-002  0.1250065E+03  0.7818608E-02  0.1235059E+00
          4   -1    0    0  501    0  0.00000000000E+00  0.00000000000E+00  0.24470392458E+02  0.24503326449E+02  0.12700000000E+01 0.  1.
         -4   -1    0    0    0  501 -0.00000000000E+00 -0.00000000000E+00 -0.15950552470E+03  0.15951058055E+03  0.12700000000E+01 0.  1.
         25    2    1    2    0    0  0.00000000000E+00  0.00000000000E+00 -0.13503513224E+03  0.18401390700E+03  0.12500652396E+03 0.  0.
    9000005    1    3    3    0    0 -0.34763531312E+02 -0.27463859337E+02 -0.13240225022E+03  0.13962135417E+03  0.10000000000E+01 0.  0.
    9000005    1    3    3    0    0  0.34763531312E+02  0.27463859337E+02 -0.26328820217E+01  0.44392552829E+02  0.10000000000E+01 0.  0.
<mgrwt>
<rscale>  0 0.12500652E+03</rscale>
<asrwt>0</asrwt>
<pdfrwt beam="1">  1        4 0.37675982E-02 0.12500652E+03</pdfrwt>
<pdfrwt beam="2">  1       -4 0.24542233E-01 0.12500652E+03</pdfrwt>
<totfact> 0.92885854E+03</totfact>
</mgrwt>
</event>
<event>
 5    1  0.3183609E-002  0.1249999E+03  0.7818608E-02  0.1235069E+00
         -4   -1    0    0    0  501 -0.00000000000E+00  0.00000000000E+00  0.47301949763E+01  0.48977182967E+01  0.12700000000E+01 0. -1.
          4   -1    0    0  501    0  0.00000000000E+00 -0.00000000000E+00 -0.81127310776E+03  0.81127410181E+03  0.12700000000E+01 0. -1.
         25    2    1    2    0    0  0.00000000000E+00  0.00000000000E+00 -0.80654291278E+03  0.81617182011E+03  0.12499987913E+03 0.  0.
    9000005    1    3    3    0    0  0.60480050095E+02  0.51093051502E+01 -0.50040375761E+03  0.50407227863E+03  0.10000000000E+01 0.  0.
    9000005    1    3    3    0    0 -0.60480050095E+02 -0.51093051502E+01 -0.30613915518E+03  0.31209954148E+03  0.10000000000E+01 0.  0.
<mgrwt>
<rscale>  0 0.12499988E+03</rscale>
<asrwt>0</asrwt>
<pdfrwt beam="2">  1        4 0.12482410E+00 0.12499988E+03</pdfrwt>
<pdfrwt beam="1">  1       -4 0.74068582E-03 0.12499988E+03</pdfrwt>
<totfact> 0.37553022E+03</totfact>
</mgrwt>
</event>
<event>
 5    1  0.3183609E-002  0.1250015E+03  0.7818608E-02  0.1235067E+00
          4   -1    0    0  501    0  0.00000000000E+00  0.00000000000E+00  0.14995735820E+02  0.15049418354E+02  0.12700000000E+01 0.  1.
         -4   -1    0    0    0  501 -0.00000000000E+00 -0.00000000000E+00 -0.25997639819E+03  0.25997950019E+03  0.12700000000E+01 0.  1.
         25    2    1    2    0    0  0.00000000000E+00  0.00000000000E+00 -0.24498066237E+03  0.27502891854E+03  0.12500152438E+03 0.  0.
    9000005    1    3    3    0    0  0.60286817272E+02  0.13014981764E+01 -0.86394164537E+02  0.10536197559E+03  0.10000000000E+01 0.  0.
    9000005    1    3    3    0    0 -0.60286817272E+02 -0.13014981764E+01 -0.15858649783E+03  0.16966694295E+03  0.10000000000E+01 0.  0.
<mgrwt>
<rscale>  0 0.12500152E+03</rscale>
<asrwt>0</asrwt>
<pdfrwt beam="1">  1        4 0.23114045E-02 0.12500152E+03</pdfrwt>
<pdfrwt beam="2">  1       -4 0.40000734E-01 0.12500152E+03</pdfrwt>
<totfact> 0.78839214E+03</totfact>
</mgrwt>
</event>
<event>
 5    1  0.3183609E-002  0.1249963E+03  0.7818608E-02  0.1235075E+00
          4   -1    0    0  501    0  0.00000000000E+00  0.00000000000E+00  0.51615816997E+02  0.51631438720E+02  0.12700000000E+01 0.  1.
         -4   -1    0    0    0  501 -0.00000000000E+00 -0.00000000000E+00 -0.75642479854E+02  0.75653140441E+02  0.12700000000E+01 0.  1.
         25    2    1    2    0    0  0.00000000000E+00  0.00000000000E+00 -0.24026662857E+02  0.12728457916E+03  0.12499633420E+03 0.  0.
    9000005    1    3    3    0    0  0.48860072359E+02  0.23823420215E+02 -0.43402269832E+02  0.69567370572E+02  0.10000000000E+01 0.  0.
    9000005    1    3    3    0    0 -0.48860072359E+02 -0.23823420215E+02  0.19375606975E+02  0.57717208589E+02  0.10000000000E+01 0.  0.
<mgrwt>
<rscale>  0 0.12499633E+03</rscale>
<asrwt>0</asrwt>
<pdfrwt beam="1">  1        4 0.79429167E-02 0.12499633E+03</pdfrwt>
<pdfrwt beam="2">  1       -4 0.11639326E-01 0.12499633E+03</pdfrwt>
<totfact> 0.10403830E+04</totfact>
</mgrwt>
</event>
<event>
 5    1  0.3183609E-002  0.1250015E+03  0.7818608E-02  0.1235067E+00
          4   -1    0    0  501    0  0.00000000000E+00  0.00000000000E+00  0.98345873764E+03  0.98345955765E+03  0.12700000000E+01 0.  1.
         -4   -1    0    0    0  501 -0.00000000000E+00 -0.00000000000E+00 -0.38696898044E+01  0.40727630894E+01  0.12700000000E+01 0.  1.
         25    2    1    2    0    0  0.00000000000E+00  0.00000000000E+00  0.97958904783E+03  0.98753232074E+03  0.12500152748E+03 0.  0.
    9000005    1    3    3    0    0  0.55129494643E+02 -0.25529202814E+02  0.37413224168E+03  0.37903421434E+03  0.10000000000E+01 0.  0.
    9000005    1    3    3    0    0 -0.55129494643E+02  0.25529202814E+02  0.60545680615E+03  0.60849810640E+03  0.10000000000E+01 0.  0.
<mgrwt>
<rscale>  0 0.12500153E+03</rscale>
<asrwt>0</asrwt>
<pdfrwt beam="1">  1        4 0.15131721E+00 0.12500153E+03</pdfrwt>
<pdfrwt beam="2">  1       -4 0.61102028E-03 0.12500153E+03</pdfrwt>
<totfact> 0.31018679E+03</totfact>
</mgrwt>
</event>
<event>
 5    1  0.3183609E-002  0.1250114E+03  0.7818608E-02  0.1235051E+00
         -4   -1    0    0    0  501 -0.00000000000E+00  0.00000000000E+00  0.49045001253E+01  0.50662630684E+01  0.12700000000E+01 0.  1.
          4   -1    0    0  501    0  0.00000000000E+00 -0.00000000000E+00 -0.78352136886E+03  0.78352239812E+03  0.12700000000E+01 0.  1.
         25    2    1    2    0    0  0.00000000000E+00  0.00000000000E+00 -0.77861686873E+03  0.78858866119E+03  0.12501139261E+03 0.  0.
    9000005    1    3    3    0    0 -0.34276714120E+02 -0.13541934157E+02 -0.70770897507E+03  0.70866866059E+03  0.10000000000E+01 0.  0.
    9000005    1    3    3    0    0  0.34276714120E+02  0.13541934157E+02 -0.70907893659E+02  0.79920000593E+02  0.10000000000E+01 0.  0.
<mgrwt>
<rscale>  0 0.12501139E+03</rscale>
<asrwt>0</asrwt>
<pdfrwt beam="2">  1        4 0.12055417E+00 0.12501139E+03</pdfrwt>
<pdfrwt beam="1">  1       -4 0.76706158E-03 0.12501139E+03</pdfrwt>
<totfact> 0.38769641E+03</totfact>
</mgrwt>
</event>
<event>
 5    1  0.3183609E-002  0.1249975E+03  0.7818608E-02  0.1235073E+00
          4   -1    0    0  501    0  0.00000000000E+00  0.00000000000E+00  0.67006536069E+02  0.67018570382E+02  0.12700000000E+01 0. -1.
         -4   -1    0    0    0  501 -0.00000000000E+00 -0.00000000000E+00 -0.58270022646E+02  0.58283860880E+02  0.12700000000E+01 0. -1.
         25    2    1    2    0    0  0.00000000000E+00  0.00000000000E+00  0.87365134235E+01  0.12530243126E+03  0.12499749043E+03 0.  0.
    9000005    1    3    3    0    0 -0.19495140287E+02  0.16315908779E+02  0.61593631053E+02  0.66641164158E+02  0.10000000000E+01 0.  0.
    9000005    1    3    3    0    0  0.19495140287E+02 -0.16315908779E+02 -0.52857117629E+02  0.58661267104E+02  0.10000000000E+01 0.  0.
<mgrwt>
<rscale>  0 0.12499749E+03</rscale>
<asrwt>0</asrwt>
<pdfrwt beam="1">  1        4 0.10310688E-01 0.12499749E+03</pdfrwt>
<pdfrwt beam="2">  1       -4 0.89666090E-02 0.12499749E+03</pdfrwt>
<totfact> 0.10446890E+04</totfact>
</mgrwt>
</event>
<event>
 5    1  0.3183609E-002  0.1249985E+03  0.7818608E-02  0.1235072E+00
         -4   -1    0    0    0  501 -0.00000000000E+00  0.00000000000E+00  0.84602056127E+01  0.85549973121E+01  0.12700000000E+01 0.  1.
          4   -1    0    0  501    0  0.00000000000E+00 -0.00000000000E+00 -0.45904118903E+03  0.45904294584E+03  0.12700000000E+01 0.  1.
         25    2    1    2    0    0  0.00000000000E+00  0.00000000000E+00 -0.45058098342E+03  0.46759794315E+03  0.12499845528E+03 0.  0.
    9000005    1    3    3    0    0 -0.67956758094E+01 -0.15962420586E+02 -0.44987033948E+03  0.45020584450E+03  0.10000000000E+01 0.  0.
    9000005    1    3    3    0    0  0.67956758094E+01  0.15962420586E+02 -0.71064393853E+00  0.17392098651E+02  0.10000000000E+01 0.  0.
<mgrwt>
<rscale>  0 0.12499846E+03</rscale>
<asrwt>0</asrwt>
<pdfrwt beam="2">  1        4 0.70629129E-01 0.12499846E+03</pdfrwt>
<pdfrwt beam="1">  1       -4 0.13089973E-02 0.12499846E+03</pdfrwt>
<totfact> 0.58471031E+03</totfact>
</mgrwt>
</event>
<event>
 5    1  0.3183609E-002  0.1250185E+03  0.7818608E-02  0.1235040E+00
          4   -1    0    0  501    0  0.00000000000E+00  0.00000000000E+00  0.97343753579E+02  0.97352037785E+02  0.12700000000E+01 0.  1.
         -4   -1    0    0    0  501 -0.00000000000E+00 -0.00000000000E+00 -0.40120234824E+02  0.40140330620E+02  0.12700000000E+01 0.  1.
         25    2    1    2    0    0  0.00000000000E+00  0.00000000000E+00  0.57223518755E+02  0.13749236841E+03  0.12501847972E+03 0.  0.
    9000005    1    3    3    0    0 -0.26379907574E+02 -0.56646457077E+02  0.30039116900E+02  0.69340242047E+02  0.10000000000E+01 0.  0.
    9000005    1    3    3    0    0  0.26379907574E+02  0.56646457077E+02  0.27184401855E+02  0.68152126359E+02  0.10000000000E+01 0.  0.
<mgrwt>
<rscale>  0 0.12501848E+03</rscale>
<asrwt>0</asrwt>
<pdfrwt beam="1">  1        4 0.14978145E-01 0.12501848E+03</pdfrwt>
<pdfrwt beam="2">  1       -4 0.61745270E-02 0.12501848E+03</pdfrwt>
<totfact> 0.10181558E+04</totfact>
</mgrwt>
</event>
<event>
 5    1  0.3183609E-002  0.1250023E+03  0.7818608E-02  0.1235066E+00
          4   -1    0    0  501    0  0.00000000000E+00  0.00000000000E+00  0.99887188690E+02  0.99895261972E+02  0.12700000000E+01 0.  1.
         -4   -1    0    0    0  501 -0.00000000000E+00 -0.00000000000E+00 -0.39088060795E+02  0.39108686972E+02  0.12700000000E+01 0.  1.
         25    2    1    2    0    0  0.00000000000E+00  0.00000000000E+00  0.60799127895E+02  0.13900394894E+03  0.12500225546E+03 0.  0.
    9000005    1    3    3    0    0 -0.38871155939E+02  0.28846662449E+02  0.74352785160E+02  0.88726734187E+02  0.10000000000E+01 0.  0.
    9000005    1    3    3    0    0  0.38871155939E+02 -0.28846662449E+02 -0.13553657264E+02  0.50277214757E+02  0.10000000000E+01 0.  0.
<mgrwt>
<rscale>  0 0.12500226E+03</rscale>
<asrwt>0</asrwt>
<pdfrwt beam="1">  1        4 0.15369467E-01 0.12500226E+03</pdfrwt>
<pdfrwt beam="2">  1       -4 0.60157555E-02 0.12500226E+03</pdfrwt>
<totfact> 0.10153755E+04</totfact>
</mgrwt>
</event>
<event>
 5    1  0.3183609E-002  0.1250000E+03  0.7818608E-02  0.1235069E+00
         -4   -1    0    0    0  501 -0.00000000000E+00  0.00000000000E+00  0.78923182994E+03  0.78923285176E+03  0.12700000000E+01 0. -1.
          4   -1    0    0  501    0  0.00000000000E+00 -0.00000000000E+00 -0.48669215369E+01  0.50298931645E+01  0.12700000000E+01 0. -1.
         25    2    1    2    0    0  0.00000000000E+00  0.00000000000E+00  0.78436490840E+03  0.79426274492E+03  0.12499999374E+03 0.  0.
    9000005    1    3    3    0    0  0.45554773464E+02 -0.15500580378E+02  0.13883425018E+03  0.14694030897E+03  0.10000000000E+01 0.  0.
    9000005    1    3    3    0    0 -0.45554773464E+02  0.15500580378E+02  0.64553065822E+03  0.64732243595E+03  0.10000000000E+01 0.  0.
<mgrwt>
<rscale>  0 0.12499999E+03</rscale>
<asrwt>0</asrwt>
<pdfrwt beam="2">  1        4 0.76137213E-03 0.12499999E+03</pdfrwt>
<pdfrwt beam="1">  1       -4 0.12143288E+00 0.12499999E+03</pdfrwt>
<totfact> 0.38522148E+03</totfact>
</mgrwt>
</event>
<event>
 5    1  0.3183609E-002  0.1250000E+03  0.7818608E-02  0.1235069E+00
         -4   -1    0    0    0  501 -0.00000000000E+00  0.00000000000E+00  0.15511638636E+03  0.15512158527E+03  0.12700000000E+01 0.  1.
          4   -1    0    0  501    0  0.00000000000E+00 -0.00000000000E+00 -0.25161052179E+02  0.25193083312E+02  0.12700000000E+01 0.  1.
         25    2    1    2    0    0  0.00000000000E+00  0.00000000000E+00  0.12995533418E+03  0.18031466858E+03  0.12499996330E+03 0.  0.
    9000005    1    3    3    0    0  0.37935401529E+02  0.17828375801E+02 -0.18827131640E+01  0.41970111768E+02  0.10000000000E+01 0.  0.
    9000005    1    3    3    0    0 -0.37935401529E+02 -0.17828375801E+02  0.13183804734E+03  0.13834455681E+03  0.10000000000E+01 0.  0.
<mgrwt>
<rscale>  0 0.12499996E+03</rscale>
<asrwt>0</asrwt>
<pdfrwt beam="2">  1        4 0.38737949E-02 0.12499996E+03</pdfrwt>
<pdfrwt beam="1">  1       -4 0.23866923E-01 0.12499996E+03</pdfrwt>
<totfact> 0.93560469E+03</totfact>
</mgrwt>
</event>
<event>
 5    1  0.3183609E-002  0.1249990E+03  0.7818608E-02  0.1235071E+00
          4   -1    0    0  501    0  0.00000000000E+00  0.00000000000E+00  0.36198458310E+03  0.36198681095E+03  0.12700000000E+01 0.  1.
         -4   -1    0    0    0  501 -0.00000000000E+00 -0.00000000000E+00 -0.10751399140E+02  0.10826148136E+02  0.12700000000E+01 0.  1.
         25    2    1    2    0    0  0.00000000000E+00  0.00000000000E+00  0.35123318396E+03  0.37281295909E+03  0.12499901179E+03 0.  0.
    9000005    1    3    3    0    0  0.31120971200E+02 -0.38971648090E+02  0.28792306194E+03  0.29221224102E+03  0.10000000000E+01 0.  0.
    9000005    1    3    3    0    0 -0.31120971200E+02  0.38971648090E+02  0.63310122024E+02  0.80600718073E+02  0.10000000000E+01 0.  0.
<mgrwt>
<rscale>  0 0.12499901E+03</rscale>
<asrwt>0</asrwt>
<pdfrwt beam="1">  1        4 0.55695865E-01 0.12499901E+03</pdfrwt>
<pdfrwt beam="2">  1       -4 0.16599825E-02 0.12499901E+03</pdfrwt>
<totfact> 0.67287135E+03</totfact>
</mgrwt>
</event>
<event>
 5    1  0.3183609E-002  0.1250066E+03  0.7818608E-02  0.1235059E+00
         -4   -1    0    0    0  501 -0.00000000000E+00  0.00000000000E+00  0.27224544666E+02  0.27254150735E+02  0.12700000000E+01 0.  1.
          4   -1    0    0  501    0  0.00000000000E+00 -0.00000000000E+00 -0.14338742400E+03  0.14339304816E+03  0.12700000000E+01 0.  1.
         25    2    1    2    0    0  0.00000000000E+00  0.00000000000E+00 -0.11616287934E+03  0.17064719890E+03  0.12500660765E+03 0.  0.
    9000005    1    3    3    0    0  0.68198790313E+01 -0.39604604347E+02  0.72531900996E+01  0.40849041630E+02  0.10000000000E+01 0.  0.
    9000005    1    3    3    0    0 -0.68198790313E+01  0.39604604347E+02 -0.12341606944E+03  0.12979815727E+03  0.10000000000E+01 0.  0.
<mgrwt>
<rscale>  0 0.12500661E+03</rscale>
<asrwt>0</asrwt>
<pdfrwt beam="2">  1        4 0.22062313E-01 0.12500661E+03</pdfrwt>
<pdfrwt beam="1">  1       -4 0.41911016E-02 0.12500661E+03</pdfrwt>
<totfact> 0.95314009E+03</totfact>
</mgrwt>
</event>
<event>
 5    1  0.3183609E-002  0.1249995E+03  0.7818608E-02  0.1235070E+00
         -4   -1    0    0    0  501 -0.00000000000E+00  0.00000000000E+00  0.38456895232E+02  0.38477859749E+02  0.12700000000E+01 0. -1.
          4   -1    0    0  501    0  0.00000000000E+00 -0.00000000000E+00 -0.10152133693E+03  0.10152928027E+03  0.12700000000E+01 0. -1.
         25    2    1    2    0    0  0.00000000000E+00  0.00000000000E+00 -0.63064441701E+02  0.14000714002E+03  0.12499950180E+03 0.  0.
    9000005    1    3    3    0    0 -0.56524724539E+02 -0.88964251202E+01 -0.59668471011E+02  0.82677187282E+02  0.10000000000E+01 0.  0.
    9000005    1    3    3    0    0  0.56524724539E+02  0.88964251202E+01 -0.33959706906E+01  0.57329952739E+02  0.10000000000E+01 0.  0.
<mgrwt>
<rscale>  0 0.12499950E+03</rscale>
<asrwt>0</asrwt>
<pdfrwt beam="2">  1        4 0.15620891E-01 0.12499950E+03</pdfrwt>
<pdfrwt beam="1">  1       -4 0.59186691E-02 0.12499950E+03</pdfrwt>
<totfact> 0.10133552E+04</totfact>
</mgrwt>
</event>
<event>
 5    1  0.3183609E-002  0.1249996E+03  0.7818608E-02  0.1235070E+00
         -4   -1    0    0    0  501 -0.00000000000E+00  0.00000000000E+00  0.14387956089E+03  0.14388516582E+03  0.12700000000E+01 0.  1.
          4   -1    0    0  501    0  0.00000000000E+00 -0.00000000000E+00 -0.27128297693E+02  0.27158008685E+02  0.12700000000E+01 0.  1.
         25    2    1    2    0    0  0.00000000000E+00  0.00000000000E+00  0.11675126320E+03  0.17104317450E+03  0.12499964034E+03 0.  0.
    9000005    1    3    3    0    0  0.49475926530E+02  0.36594001357E+02  0.43496490126E+02  0.75365329527E+02  0.10000000000E+01 0.  0.
    9000005    1    3    3    0    0 -0.49475926530E+02 -0.36594001357E+02  0.73254773075E+02  0.95677844978E+02  0.10000000000E+01 0.  0.
<mgrwt>
<rscale>  0 0.12499964E+03</rscale>
<asrwt>0</asrwt>
<pdfrwt beam="2">  1        4 0.41763009E-02 0.12499964E+03</pdfrwt>
<pdfrwt beam="1">  1       -4 0.22138034E-01 0.12499964E+03</pdfrwt>
<totfact> 0.95255328E+03</totfact>
</mgrwt>
</event>
<event>
 5    1  0.3183609E-002  0.1250002E+03  0.7818608E-02  0.1235069E+00
          4   -1    0    0  501    0  0.00000000000E+00  0.00000000000E+00  0.10473842835E+03  0.10474612773E+03  0.12700000000E+01 0.  1.
         -4   -1    0    0    0  501 -0.00000000000E+00 -0.00000000000E+00 -0.37275515699E+02  0.37297144269E+02  0.12700000000E+01 0.  1.
         25    2    1    2    0    0  0.00000000000E+00  0.00000000000E+00  0.67462912654E+02  0.14204327200E+03  0.12500018614E+03 0.  0.
    9000005    1    3    3    0    0  0.36790883579E+02 -0.49610370045E+02  0.44541891667E+02  0.76156011212E+02  0.10000000000E+01 0.  0.
    9000005    1    3    3    0    0 -0.36790883579E+02  0.49610370045E+02  0.22921020987E+02  0.65887260784E+02  0.10000000000E+01 0.  0.
<mgrwt>
<rscale>  0 0.12500019E+03</rscale>
<asrwt>0</asrwt>
<pdfrwt beam="1">  1        4 0.16115860E-01 0.12500019E+03</pdfrwt>
<pdfrwt beam="2">  1       -4 0.57369507E-02 0.12500019E+03</pdfrwt>
<totfact> 0.10091370E+04</totfact>
</mgrwt>
</event>
<event>
 5    1  0.3183609E-002  0.1249991E+03  0.7818608E-02  0.1235071E+00
         -4   -1    0    0    0  501 -0.00000000000E+00  0.00000000000E+00  0.73984632945E+02  0.73995532379E+02  0.12700000000E+01 0. -1.
          4   -1    0    0  501    0  0.00000000000E+00 -0.00000000000E+00 -0.52774914861E+02  0.52790193583E+02  0.12700000000E+01 0. -1.
         25    2    1    2    0    0  0.00000000000E+00  0.00000000000E+00  0.21209718084E+02  0.12678572596E+03  0.12499907266E+03 0.  0.
    9000005    1    3    3    0    0 -0.48231980208E+02  0.39704519522E+02  0.90272313726E+01  0.63128944958E+02  0.10000000000E+01 0.  0.
    9000005    1    3    3    0    0  0.48231980208E+02 -0.39704519522E+02  0.12182486712E+02  0.63656781004E+02  0.10000000000E+01 0.  0.
<mgrwt>
<rscale>  0 0.12499907E+03</rscale>
<asrwt>0</asrwt>
<pdfrwt beam="2">  1        4 0.81212314E-02 0.12499907E+03</pdfrwt>
<pdfrwt beam="1">  1       -4 0.11384265E-01 0.12499907E+03</pdfrwt>
<totfact> 0.10414022E+04</totfact>
</mgrwt>
</event>
<event>
 5    1  0.3183609E-002  0.1250062E+03  0.7818608E-02  0.1235060E+00
          4   -1    0    0  501    0  0.00000000000E+00  0.00000000000E+00  0.55392241845E+02  0.55406798830E+02  0.12700000000E+01 0.  1.
         -4   -1    0    0    0  501 -0.00000000000E+00 -0.00000000000E+00 -0.70497264001E+02  0.70508702524E+02  0.12700000000E+01 0.  1.
         25    2    1    2    0    0  0.00000000000E+00  0.00000000000E+00 -0.15105022156E+02  0.12591550135E+03  0.12500620699E+03 0.  0.
    9000005    1    3    3    0    0  0.17283482317E+02 -0.20366887964E+02 -0.64462235382E+02  0.69784730971E+02  0.10000000000E+01 0.  0.
    9000005    1    3    3    0    0 -0.17283482317E+02  0.20366887964E+02  0.49357213225E+02  0.56130770383E+02  0.10000000000E+01 0.  0.
<mgrwt>
<rscale>  0 0.12500621E+03</rscale>
<asrwt>0</asrwt>
<pdfrwt beam="1">  1        4 0.85238830E-02 0.12500621E+03</pdfrwt>
<pdfrwt beam="2">  1       -4 0.10847733E-01 0.12500621E+03</pdfrwt>
<totfact> 0.10431348E+04</totfact>
</mgrwt>
</event>
<event>
 5    1  0.3183609E-002  0.1250016E+03  0.7818608E-02  0.1235067E+00
          4   -1    0    0  501    0  0.00000000000E+00  0.00000000000E+00  0.16019560864E+03  0.16020064272E+03  0.12700000000E+01 0.  1.
         -4   -1    0    0    0  501 -0.00000000000E+00 -0.00000000000E+00 -0.24362905866E+02  0.24395984962E+02  0.12700000000E+01 0.  1.
         25    2    1    2    0    0  0.00000000000E+00  0.00000000000E+00  0.13583270277E+03  0.18459662768E+03  0.12500156722E+03 0.  0.
    9000005    1    3    3    0    0 -0.23546608619E+02 -0.53891084736E+02  0.99126437645E+02  0.11526379497E+03  0.10000000000E+01 0.  0.
    9000005    1    3    3    0    0  0.23546608619E+02  0.53891084736E+02  0.36706265128E+02  0.69332832706E+02  0.10000000000E+01 0.  0.
<mgrwt>
<rscale>  0 0.12500157E+03</rscale>
<asrwt>0</asrwt>
<pdfrwt beam="1">  1        4 0.24648410E-01 0.12500157E+03</pdfrwt>
<pdfrwt beam="2">  1       -4 0.37510712E-02 0.12500157E+03</pdfrwt>
<totfact> 0.92792819E+03</totfact>
</mgrwt>
</event>
<event>
 5    1  0.3183609E-002  0.1250042E+03  0.7818608E-02  0.1235063E+00
         -4   -1    0    0    0  501 -0.00000000000E+00  0.00000000000E+00  0.13848688205E+02  0.13906799237E+02  0.12700000000E+01 0. -1.
          4   -1    0    0  501    0  0.00000000000E+00 -0.00000000000E+00 -0.28143532702E+03  0.28143819250E+03  0.12700000000E+01 0. -1.
         25    2    1    2    0    0  0.00000000000E+00  0.00000000000E+00 -0.26758663881E+03  0.29534499173E+03  0.12500421940E+03 0.  0.
    9000005    1    3    3    0    0  0.10041342940E+02  0.39753170151E+02 -0.22361681894E+02  0.46713894317E+02  0.10000000000E+01 0.  0.
    9000005    1    3    3    0    0 -0.10041342940E+02 -0.39753170151E+02 -0.24522495692E+03  0.24863109741E+03  0.10000000000E+01 0.  0.
<mgrwt>
<rscale>  0 0.12500422E+03</rscale>
<asrwt>0</asrwt>
<pdfrwt beam="2">  1        4 0.43302429E-01 0.12500422E+03</pdfrwt>
<pdfrwt beam="1">  1       -4 0.21352581E-02 0.12500422E+03</pdfrwt>
<totfact> 0.76179353E+03</totfact>
</mgrwt>
</event>
<event>
 5    1  0.3183609E-002  0.1249982E+03  0.7818608E-02  0.1235072E+00
         -4   -1    0    0    0  501 -0.00000000000E+00  0.00000000000E+00  0.19266621766E+03  0.19267040335E+03  0.12700000000E+01 0.  1.
          4   -1    0    0  501    0  0.00000000000E+00 -0.00000000000E+00 -0.20249815408E+02  0.20289601377E+02  0.12700000000E+01 0.  1.
         25    2    1    2    0    0  0.00000000000E+00  0.00000000000E+00  0.17241640226E+03  0.21296000473E+03  0.12499819138E+03 0.  0.
    9000005    1    3    3    0    0  0.34139703099E+02  0.44202967642E+02  0.13396408856E+03  0.14514406188E+03  0.10000000000E+01 0.  0.
    9000005    1    3    3    0    0 -0.34139703099E+02 -0.44202967642E+02  0.38452313696E+02  0.67815942850E+02  0.10000000000E+01 0.  0.
<mgrwt>
<rscale>  0 0.12499819E+03</rscale>
<asrwt>0</asrwt>
<pdfrwt beam="2">  1        4 0.31187385E-02 0.12499819E+03</pdfrwt>
<pdfrwt beam="1">  1       -4 0.29644341E-01 0.12499819E+03</pdfrwt>
<totfact> 0.87998298E+03</totfact>
</mgrwt>
</event>
<event>
 5    1  0.3183609E-002  0.1249999E+03  0.7818608E-02  0.1235069E+00
         -4   -1    0    0    0  501 -0.00000000000E+00  0.00000000000E+00  0.28885211124E+03  0.28885490314E+03  0.12700000000E+01 0.  1.
          4   -1    0    0  501    0  0.00000000000E+00 -0.00000000000E+00 -0.13490653609E+02  0.13550300174E+02  0.12700000000E+01 0.  1.
         25    2    1    2    0    0  0.00000000000E+00  0.00000000000E+00  0.27536145763E+03  0.30240520331E+03  0.12499989857E+03 0.  0.
    9000005    1    3    3    0    0 -0.47362610680E+02  0.92760069226E+01  0.41640034831E+02  0.63750715255E+02  0.10000000000E+01 0.  0.
    9000005    1    3    3    0    0  0.47362610680E+02 -0.92760069226E+01  0.23372142280E+03  0.23865448806E+03  0.10000000000E+01 0.  0.
<mgrwt>
<rscale>  0 0.12499990E+03</rscale>
<asrwt>0</asrwt>
<pdfrwt beam="2">  1        4 0.20802881E-02 0.12499990E+03</pdfrwt>
<pdfrwt beam="1">  1       -4 0.44443590E-01 0.12499990E+03</pdfrwt>
<totfact> 0.75298289E+03</totfact>
</mgrwt>
</event>
<event>
 5    1  0.3183609E-002  0.1249985E+03  0.7818608E-02  0.1235072E+00
         -4   -1    0    0    0  501 -0.00000000000E+00  0.00000000000E+00  0.13774631567E+01  0.18735807290E+01  0.12700000000E+01 0.  1.
          4   -1    0    0  501    0  0.00000000000E+00 -0.00000000000E+00 -0.24025217272E+04  0.24025220628E+04  0.12700000000E+01 0.  1.
         25    2    1    2    0    0  0.00000000000E+00  0.00000000000E+00 -0.24011442640E+04  0.24043956436E+04  0.12499853679E+03 0.  0.
    9000005    1    3    3    0    0 -0.60185508688E+02  0.15309617851E+02 -0.13345016992E+04  0.13359462807E+04  0.10000000000E+01 0.  0.
    9000005    1    3    3    0    0  0.60185508688E+02 -0.15309617851E+02 -0.10666425649E+04  0.10684493629E+04  0.10000000000E+01 0.  0.
<mgrwt>
<rscale>  0 0.12499854E+03</rscale>
<asrwt>0</asrwt>
<pdfrwt beam="2">  1        4 0.36965408E+00 0.12499854E+03</pdfrwt>
<pdfrwt beam="1">  1       -4 0.25010804E-03 0.12499854E+03</pdfrwt>
<totfact> 0.54649151E+02</totfact>
</mgrwt>
</event>
<event>
 5    1  0.3183609E-002  0.1250015E+03  0.7818608E-02  0.1235067E+00
         -4   -1    0    0    0  501 -0.00000000000E+00  0.00000000000E+00  0.39342982417E+01  0.41341991552E+01  0.12700000000E+01 0. -1.
          4   -1    0    0  501    0  0.00000000000E+00 -0.00000000000E+00 -0.96809541794E+03  0.96809625097E+03  0.12700000000E+01 0. -1.
         25    2    1    2    0    0  0.00000000000E+00  0.00000000000E+00 -0.96416111970E+03  0.97223045013E+03  0.12500153362E+03 0.  0.
    9000005    1    3    3    0    0 -0.84138474353E+01 -0.61808161538E+02 -0.51149668865E+03  0.51528720551E+03  0.10000000000E+01 0.  0.
    9000005    1    3    3    0    0  0.84138474353E+01  0.61808161538E+02 -0.45266443105E+03  0.45694324461E+03  0.10000000000E+01 0.  0.
<mgrwt>
<rscale>  0 0.12500153E+03</rscale>
<asrwt>0</asrwt>
<pdfrwt beam="2">  1        4 0.14895301E+00 0.12500153E+03</pdfrwt>
<pdfrwt beam="1">  1       -4 0.62071849E-03 0.12500153E+03</pdfrwt>
<totfact> 0.31538604E+03</totfact>
</mgrwt>
</event>
<event>
 5    1  0.3183609E-002  0.1250038E+03  0.7818608E-02  0.1235063E+00
         -4   -1    0    0    0  501 -0.00000000000E+00  0.00000000000E+00  0.73360213546E+02  0.73371205739E+02  0.12700000000E+01 0. -1.
          4   -1    0    0  501    0  0.00000000000E+00 -0.00000000000E+00 -0.53228218903E+02  0.53243367546E+02  0.12700000000E+01 0. -1.
         25    2    1    2    0    0  0.00000000000E+00  0.00000000000E+00  0.20131994643E+02  0.12661457328E+03  0.12500381178E+03 0.  0.
    9000005    1    3    3    0    0 -0.45952726093E+02 -0.14320381252E+02  0.50438887984E+02  0.69726664740E+02  0.10000000000E+01 0.  0.
    9000005    1    3    3    0    0  0.45952726093E+02  0.14320381252E+02 -0.30306893341E+02  0.56887908545E+02  0.10000000000E+01 0.  0.
<mgrwt>
<rscale>  0 0.12500381E+03</rscale>
<asrwt>0</asrwt>
<pdfrwt beam="2">  1        4 0.81909675E-02 0.12500381E+03</pdfrwt>
<pdfrwt beam="1">  1       -4 0.11288198E-01 0.12500381E+03</pdfrwt>
<totfact> 0.10416634E+04</totfact>
</mgrwt>
</event>
<event>
 5    1  0.3183609E-002  0.1249989E+03  0.7818608E-02  0.1235071E+00
          4   -1    0    0  501    0  0.00000000000E+00  0.00000000000E+00  0.33944915169E+02  0.33968664470E+02  0.12700000000E+01 0. -1.
         -4   -1    0    0    0  501 -0.00000000000E+00 -0.00000000000E+00 -0.11500668057E+03  0.11501369256E+03  0.12700000000E+01 0. -1.
         25    2    1    2    0    0  0.00000000000E+00  0.00000000000E+00 -0.81061765403E+02  0.14898235703E+03  0.12499893158E+03 0.  0.
    9000005    1    3    3    0    0  0.60841055523E+02  0.13992935380E+02 -0.43848251920E+02  0.76296169460E+02  0.10000000000E+01 0.  0.
    9000005    1    3    3    0    0 -0.60841055523E+02 -0.13992935380E+02 -0.37213513483E+02  0.72686187570E+02  0.10000000000E+01 0.  0.
<mgrwt>
<rscale>  0 0.12499893E+03</rscale>
<asrwt>0</asrwt>
<pdfrwt beam="1">  1        4 0.52246610E-02 0.12499893E+03</pdfrwt>
<pdfrwt beam="2">  1       -4 0.17695702E-01 0.12499893E+03</pdfrwt>
<totfact> 0.99509331E+03</totfact>
</mgrwt>
</event>
<event>
 5    1  0.3183609E-002  0.1250002E+03  0.7818608E-02  0.1235069E+00
         -4   -1    0    0    0  501 -0.00000000000E+00  0.00000000000E+00  0.92652545508E+01  0.93518897497E+01  0.12700000000E+01 0.  1.
          4   -1    0    0  501    0  0.00000000000E+00 -0.00000000000E+00 -0.41955367022E+03  0.41955559238E+03  0.12700000000E+01 0.  1.
         25    2    1    2    0    0  0.00000000000E+00  0.00000000000E+00 -0.41028841567E+03  0.42890748213E+03  0.12500017677E+03 0.  0.
    9000005    1    3    3    0    0 -0.24391209934E+02 -0.26931355489E+02 -0.30688188579E+02  0.47570935967E+02  0.10000000000E+01 0.  0.
    9000005    1    3    3    0    0  0.24391209934E+02  0.26931355489E+02 -0.37960022709E+03  0.38133654616E+03  0.10000000000E+01 0.  0.
<mgrwt>
<rscale>  0 0.12500018E+03</rscale>
<asrwt>0</asrwt>
<pdfrwt beam="2">  1        4 0.64553516E-01 0.12500018E+03</pdfrwt>
<pdfrwt beam="1">  1       -4 0.14322362E-02 0.12500018E+03</pdfrwt>
<totfact> 0.61834912E+03</totfact>
</mgrwt>
</event>
<event>
 5    1  0.3183609E-002  0.1249997E+03  0.7818608E-02  0.1235070E+00
         -4   -1    0    0    0  501 -0.00000000000E+00  0.00000000000E+00  0.34422738846E+02  0.34446158707E+02  0.12700000000E+01 0.  1.
          4   -1    0    0  501    0  0.00000000000E+00 -0.00000000000E+00 -0.11341266563E+03  0.11341977616E+03  0.12700000000E+01 0.  1.
         25    2    1    2    0    0  0.00000000000E+00  0.00000000000E+00 -0.78989926782E+02  0.14786593487E+03  0.12499970465E+03 0.  0.
    9000005    1    3    3    0    0  0.32507979006E+02 -0.51835438357E+02 -0.54530289727E+02  0.81964833108E+02  0.10000000000E+01 0.  0.
    9000005    1    3    3    0    0 -0.32507979006E+02  0.51835438357E+02 -0.24459637055E+02  0.65901101763E+02  0.10000000000E+01 0.  0.
<mgrwt>
<rscale>  0 0.12499970E+03</rscale>
<asrwt>0</asrwt>
<pdfrwt beam="2">  1        4 0.17450451E-01 0.12499970E+03</pdfrwt>
<pdfrwt beam="1">  1       -4 0.52981545E-02 0.12499970E+03</pdfrwt>
<totfact> 0.99731468E+03</totfact>
</mgrwt>
</event>
<event>
 5    1  0.3183609E-002  0.1249993E+03  0.7818608E-02  0.1235070E+00
         -4   -1    0    0    0  501 -0.00000000000E+00  0.00000000000E+00  0.46640982357E+03  0.46641155263E+03  0.12700000000E+01 0. -1.
          4   -1    0    0  501    0  0.00000000000E+00 -0.00000000000E+00 -0.83251550738E+01  0.84214670339E+01  0.12700000000E+01 0. -1.
         25    2    1    2    0    0  0.00000000000E+00  0.00000000000E+00  0.45808466850E+03  0.47483301966E+03  0.12499933219E+03 0.  0.
    9000005    1    3    3    0    0 -0.54121412861E+02 -0.28408278011E+02  0.17965203354E+03  0.18976830806E+03  0.10000000000E+01 0.  0.
    9000005    1    3    3    0    0  0.54121412861E+02  0.28408278011E+02  0.27843263495E+03  0.28506471160E+03  0.10000000000E+01 0.  0.
<mgrwt>
<rscale>  0 0.12499933E+03</rscale>
<asrwt>0</asrwt>
<pdfrwt beam="2">  1        4 0.12883344E-02 0.12499933E+03</pdfrwt>
<pdfrwt beam="1">  1       -4 0.71762918E-01 0.12499933E+03</pdfrwt>
<totfact> 0.57872131E+03</totfact>
</mgrwt>
</event>
<event>
 5    1  0.3183609E-002  0.1249989E+03  0.7818608E-02  0.1235071E+00
         -4   -1    0    0    0  501 -0.00000000000E+00  0.00000000000E+00  0.10823778873E+03  0.10824523920E+03  0.12700000000E+01 0. -1.
          4   -1    0    0  501    0  0.00000000000E+00 -0.00000000000E+00 -0.36069033924E+02  0.36091385512E+02  0.12700000000E+01 0. -1.
         25    2    1    2    0    0  0.00000000000E+00  0.00000000000E+00  0.72168754811E+02  0.14433662472E+03  0.12499892825E+03 0.  0.
    9000005    1    3    3    0    0 -0.33299556037E+02 -0.25754220537E+02  0.89414186785E+02  0.98833380526E+02  0.10000000000E+01 0.  0.
    9000005    1    3    3    0    0  0.33299556037E+02  0.25754220537E+02 -0.17245431975E+02  0.45503244189E+02  0.10000000000E+01 0.  0.
<mgrwt>
<rscale>  0 0.12499893E+03</rscale>
<asrwt>0</asrwt>
<pdfrwt beam="2">  1        4 0.55513748E-02 0.12499893E+03</pdfrwt>
<pdfrwt beam="1">  1       -4 0.16654259E-01 0.12499893E+03</pdfrwt>
<totfact> 0.10044727E+04</totfact>
</mgrwt>
</event>
<event>
 5    1  0.3183609E-002  0.1249989E+03  0.7818608E-02  0.1235071E+00
         -4   -1    0    0    0  501 -0.00000000000E+00  0.00000000000E+00  0.10337418140E+03  0.10338198237E+03  0.12700000000E+01 0. -1.
          4   -1    0    0  501    0  0.00000000000E+00 -0.00000000000E+00 -0.37766932084E+02  0.37788279387E+02  0.12700000000E+01 0. -1.
         25    2    1    2    0    0  0.00000000000E+00  0.00000000000E+00  0.65607249313E+02  0.14117026176E+03  0.12499892657E+03 0.  0.
    9000005    1    3    3    0    0  0.53242837073E+02 -0.29152531335E+02  0.49574439393E+02  0.78379173407E+02  0.10000000000E+01 0.  0.
    9000005    1    3    3    0    0 -0.53242837073E+02  0.29152531335E+02  0.16032809921E+02  0.62791088355E+02  0.10000000000E+01 0.  0.
<mgrwt>
<rscale>  0 0.12499893E+03</rscale>
<asrwt>0</asrwt>
<pdfrwt beam="2">  1        4 0.58125396E-02 0.12499893E+03</pdfrwt>
<pdfrwt beam="1">  1       -4 0.15905962E-01 0.12499893E+03</pdfrwt>
<totfact> 0.10109633E+04</totfact>
</mgrwt>
</event>
<event>
 5    1  0.3183609E-002  0.1249992E+03  0.7818608E-02  0.1235070E+00
         -4   -1    0    0    0  501 -0.00000000000E+00  0.00000000000E+00  0.20855609840E+02  0.20894242312E+02  0.12700000000E+01 0.  1.
          4   -1    0    0  501    0  0.00000000000E+00 -0.00000000000E+00 -0.18708330490E+03  0.18708761550E+03  0.12700000000E+01 0.  1.
         25    2    1    2    0    0  0.00000000000E+00  0.00000000000E+00 -0.16622769506E+03  0.20798185781E+03  0.12499922629E+03 0.  0.
    9000005    1    3    3    0    0 -0.43663242526E+02 -0.44137087229E+02 -0.71273435798E+02  0.94527582575E+02  0.10000000000E+01 0.  0.
    9000005    1    3    3    0    0  0.43663242526E+02  0.44137087229E+02 -0.94954259263E+02  0.11345427524E+03  0.10000000000E+01 0.  0.
<mgrwt>
<rscale>  0 0.12499923E+03</rscale>
<asrwt>0</asrwt>
<pdfrwt beam="2">  1        4 0.28785349E-01 0.12499923E+03</pdfrwt>
<pdfrwt beam="1">  1       -4 0.32118588E-02 0.12499923E+03</pdfrwt>
<totfact> 0.88808071E+03</totfact>
</mgrwt>
</event>
<event>
 5    1  0.3183609E-002  0.1250034E+03  0.7818608E-02  0.1235064E+00
         -4   -1    0    0    0  501 -0.00000000000E+00  0.00000000000E+00  0.17425876055E+03  0.17426338838E+03  0.12700000000E+01 0.  1.
          4   -1    0    0  501    0  0.00000000000E+00 -0.00000000000E+00 -0.22394662348E+02  0.22430644254E+02  0.12700000000E+01 0.  1.
         25    2    1    2    0    0  0.00000000000E+00  0.00000000000E+00  0.15186409820E+03  0.19669403263E+03  0.12500335255E+03 0.  0.
    9000005    1    3    3    0    0 -0.17829218402E+02 -0.12324460554E+02 -0.16298812883E+02  0.27137145358E+02  0.10000000000E+01 0.  0.
    9000005    1    3    3    0    0  0.17829218402E+02  0.12324460554E+02  0.16816291109E+03  0.16955688727E+03  0.10000000000E+01 0.  0.
<mgrwt>
<rscale>  0 0.12500335E+03</rscale>
<asrwt>0</asrwt>
<pdfrwt beam="2">  1        4 0.34484565E-02 0.12500335E+03</pdfrwt>
<pdfrwt beam="1">  1       -4 0.26812164E-01 0.12500335E+03</pdfrwt>
<totfact> 0.90688637E+03</totfact>
</mgrwt>
</event>
<event>
 5    1  0.3183609E-002  0.1250129E+03  0.7818608E-02  0.1235049E+00
          4   -1    0    0  501    0  0.00000000000E+00  0.00000000000E+00  0.11054862983E+02  0.11127573661E+02  0.12700000000E+01 0.  1.
         -4   -1    0    0    0  501 -0.00000000000E+00 -0.00000000000E+00 -0.35219190793E+03  0.35219419773E+03  0.12700000000E+01 0.  1.
         25    2    1    2    0    0  0.00000000000E+00  0.00000000000E+00 -0.34113704495E+03  0.36332177139E+03  0.12501290385E+03 0.  0.
    9000005    1    3    3    0    0  0.35203234981E+02  0.16500970871E+02 -0.28353782514E+02  0.48129894823E+02  0.10000000000E+01 0.  0.
    9000005    1    3    3    0    0 -0.35203234981E+02 -0.16500970871E+02 -0.31278326244E+03  0.31519187657E+03  0.10000000000E+01 0.  0.
<mgrwt>
<rscale>  0 0.12501290E+03</rscale>
<asrwt>0</asrwt>
<pdfrwt beam="1">  1        4 0.17065177E-02 0.12501290E+03</pdfrwt>
<pdfrwt beam="2">  1       -4 0.54189131E-01 0.12501290E+03</pdfrwt>
<totfact> 0.68263962E+03</totfact>
</mgrwt>
</event>
<event>
 5    1  0.3183609E-002  0.1250034E+03  0.7818608E-02  0.1235064E+00
         -4   -1    0    0    0  501 -0.00000000000E+00  0.00000000000E+00  0.68313677106E+02  0.68325481190E+02  0.12700000000E+01 0. -1.
          4   -1    0    0  501    0  0.00000000000E+00 -0.00000000000E+00 -0.57160400024E+02  0.57174506827E+02  0.12700000000E+01 0. -1.
         25    2    1    2    0    0  0.00000000000E+00  0.00000000000E+00  0.11153277082E+02  0.12549998802E+03  0.12500340556E+03 0.  0.
    9000005    1    3    3    0    0  0.45129862058E+02 -0.35273234639E+02 -0.19513784886E+02  0.60520189456E+02  0.10000000000E+01 0.  0.
    9000005    1    3    3    0    0 -0.45129862058E+02  0.35273234639E+02  0.30667061968E+02  0.64979798561E+02  0.10000000000E+01 0.  0.
<mgrwt>
<rscale>  0 0.12500341E+03</rscale>
<asrwt>0</asrwt>
<pdfrwt beam="2">  1        4 0.87959009E-02 0.12500341E+03</pdfrwt>
<pdfrwt beam="1">  1       -4 0.10511790E-01 0.12500341E+03</pdfrwt>
<totfact> 0.10441152E+04</totfact>
</mgrwt>
</event>
<event>
 5    1  0.3183609E-002  0.1250014E+03  0.7818608E-02  0.1235067E+00
         -4   -1    0    0    0  501 -0.00000000000E+00  0.00000000000E+00  0.59236010261E+03  0.59236146403E+03  0.12700000000E+01 0. -1.
          4   -1    0    0  501    0  0.00000000000E+00 -0.00000000000E+00 -0.65320019943E+01  0.66543181509E+01  0.12700000000E+01 0. -1.
         25    2    1    2    0    0  0.00000000000E+00  0.00000000000E+00  0.58582810062E+03  0.59901578218E+03  0.12500137530E+03 0.  0.
    9000005    1    3    3    0    0 -0.22330187843E+02  0.57222863771E+02  0.34802133944E+03  0.35340196113E+03  0.10000000000E+01 0.  0.
    9000005    1    3    3    0    0  0.22330187843E+02 -0.57222863771E+02  0.23780676118E+03  0.24561382104E+03  0.10000000000E+01 0.  0.
<mgrwt>
<rscale>  0 0.12500138E+03</rscale>
<asrwt>0</asrwt>
<pdfrwt beam="2">  1        4 0.10144370E-02 0.12500138E+03</pdfrwt>
<pdfrwt beam="1">  1       -4 0.91141841E-01 0.12500138E+03</pdfrwt>
<totfact> 0.48928318E+03</totfact>
</mgrwt>
</event>
<event>
 5    1  0.3183609E-002  0.1250039E+03  0.7818608E-02  0.1235063E+00
          4   -1    0    0  501    0  0.00000000000E+00  0.00000000000E+00  0.49785964583E+02  0.49802160289E+02  0.12700000000E+01 0.  1.
         -4   -1    0    0    0  501 -0.00000000000E+00 -0.00000000000E+00 -0.78431636578E+02  0.78441918107E+02  0.12700000000E+01 0.  1.
         25    2    1    2    0    0  0.00000000000E+00  0.00000000000E+00 -0.28645671995E+02  0.12824407840E+03  0.12500387642E+03 0.  0.
    9000005    1    3    3    0    0 -0.44574057141E+02  0.30045413608E+02 -0.47022504150E+02  0.71426111090E+02  0.10000000000E+01 0.  0.
    9000005    1    3    3    0    0  0.44574057141E+02 -0.30045413608E+02  0.18376832155E+02  0.56817967307E+02  0.10000000000E+01 0.  0.
<mgrwt>
<rscale>  0 0.12500388E+03</rscale>
<asrwt>0</asrwt>
<pdfrwt beam="1">  1        4 0.76614159E-02 0.12500388E+03</pdfrwt>
<pdfrwt beam="2">  1       -4 0.12068442E-01 0.12500388E+03</pdfrwt>
<totfact> 0.10381311E+04</totfact>
</mgrwt>
</event>
<event>
 5    1  0.3183609E-002  0.1250026E+03  0.7818608E-02  0.1235065E+00
         -4   -1    0    0    0  501 -0.00000000000E+00  0.00000000000E+00  0.70629431280E+03  0.70629545461E+03  0.12700000000E+01 0. -1.
          4   -1    0    0  501    0  0.00000000000E+00 -0.00000000000E+00 -0.54567916078E+01  0.56026310472E+01  0.12700000000E+01 0. -1.
         25    2    1    2    0    0  0.00000000000E+00  0.00000000000E+00  0.70083752120E+03  0.71189808565E+03  0.12500261294E+03 0.  0.
    9000005    1    3    3    0    0  0.14094388720E+02  0.38093367287E+02  0.62089882004E+03  0.62222672809E+03  0.10000000000E+01 0.  0.
    9000005    1    3    3    0    0 -0.14094388720E+02 -0.38093367287E+02  0.79938701158E+02  0.89671357565E+02  0.10000000000E+01 0.  0.
<mgrwt>
<rscale>  0 0.12500261E+03</rscale>
<asrwt>0</asrwt>
<pdfrwt beam="2">  1        4 0.85081271E-03 0.12500261E+03</pdfrwt>
<pdfrwt beam="1">  1       -4 0.10867196E+00 0.12500261E+03</pdfrwt>
<totfact> 0.42463587E+03</totfact>
</mgrwt>
</event>
<event>
 5    1  0.3183609E-002  0.1250028E+03  0.7818608E-02  0.1235065E+00
         -4   -1    0    0    0  501 -0.00000000000E+00  0.00000000000E+00  0.88823739662E+01  0.89727067976E+01  0.12700000000E+01 0.  1.
          4   -1    0    0  501    0  0.00000000000E+00 -0.00000000000E+00 -0.43747865102E+03  0.43748049442E+03  0.12700000000E+01 0.  1.
         25    2    1    2    0    0  0.00000000000E+00  0.00000000000E+00 -0.42859627705E+03  0.44645320122E+03  0.12500276866E+03 0.  0.
    9000005    1    3    3    0    0  0.27616267973E+02 -0.29369263517E+02 -0.38484504309E+03  0.38695208888E+03  0.10000000000E+01 0.  0.
    9000005    1    3    3    0    0 -0.27616267973E+02  0.29369263517E+02 -0.43751233963E+02  0.59501112339E+02  0.10000000000E+01 0.  0.
<mgrwt>
<rscale>  0 0.12500277E+03</rscale>
<asrwt>0</asrwt>
<pdfrwt beam="2">  1        4 0.67311482E-01 0.12500277E+03</pdfrwt>
<pdfrwt beam="1">  1       -4 0.13736099E-02 0.12500277E+03</pdfrwt>
<totfact> 0.60268621E+03</totfact>
</mgrwt>
</event>
<event>
 5    1  0.3183609E-002  0.1249984E+03  0.7818608E-02  0.1235072E+00
          4   -1    0    0  501    0  0.00000000000E+00  0.00000000000E+00  0.63087089984E+01  0.64352707190E+01  0.12700000000E+01 0. -1.
         -4   -1    0    0    0  501 -0.00000000000E+00 -0.00000000000E+00 -0.61289195035E+03  0.61289326615E+03  0.12700000000E+01 0. -1.
         25    2    1    2    0    0  0.00000000000E+00  0.00000000000E+00 -0.60658324135E+03  0.61932853687E+03  0.12499843160E+03 0.  0.
    9000005    1    3    3    0    0  0.51253564748E+02 -0.26838605072E+02 -0.42032234854E+03  0.42428659572E+03  0.10000000000E+01 0.  0.
    9000005    1    3    3    0    0 -0.51253564748E+02  0.26838605072E+02 -0.18626089281E+03  0.19504194116E+03  0.10000000000E+01 0.  0.
<mgrwt>
<rscale>  0 0.12499843E+03</rscale>
<asrwt>0</asrwt>
<pdfrwt beam="1">  1        4 0.98040783E-03 0.12499843E+03</pdfrwt>
<pdfrwt beam="2">  1       -4 0.94300859E-01 0.12499843E+03</pdfrwt>
<totfact> 0.47671489E+03</totfact>
</mgrwt>
</event>
<event>
 5    1  0.3183609E-002  0.1250004E+03  0.7818608E-02  0.1235069E+00
         -4   -1    0    0    0  501 -0.00000000000E+00  0.00000000000E+00  0.12262006211E+02  0.12327598968E+02  0.12700000000E+01 0. -1.
          4   -1    0    0  501    0  0.00000000000E+00 -0.00000000000E+00 -0.31765049859E+03  0.31765303738E+03  0.12700000000E+01 0. -1.
         25    2    1    2    0    0  0.00000000000E+00  0.00000000000E+00 -0.30538849238E+03  0.32998063635E+03  0.12500035634E+03 0.  0.
    9000005    1    3    3    0    0  0.98237643201E+01 -0.39608450035E+02 -0.27756096793E+02  0.49363311971E+02  0.10000000000E+01 0.  0.
    9000005    1    3    3    0    0 -0.98237643201E+01  0.39608450035E+02 -0.27763239559E+03  0.28061732438E+03  0.10000000000E+01 0.  0.
<mgrwt>
<rscale>  0 0.12500036E+03</rscale>
<asrwt>0</asrwt>
<pdfrwt beam="2">  1        4 0.48874542E-01 0.12500036E+03</pdfrwt>
<pdfrwt beam="1">  1       -4 0.18917036E-02 0.12500036E+03</pdfrwt>
<totfact> 0.71984011E+03</totfact>
</mgrwt>
</event>
<event>
 5    1  0.3183609E-002  0.1250003E+03  0.7818608E-02  0.1235069E+00
          4   -1    0    0  501    0  0.00000000000E+00  0.00000000000E+00  0.51021140368E+02  0.51036944114E+02  0.12700000000E+01 0.  1.
         -4   -1    0    0    0  501 -0.00000000000E+00 -0.00000000000E+00 -0.76528894069E+02  0.76539431194E+02  0.12700000000E+01 0.  1.
         25    2    1    2    0    0  0.00000000000E+00  0.00000000000E+00 -0.25507753701E+02  0.12757637531E+03  0.12500034415E+03 0.  0.
    9000005    1    3    3    0    0  0.53500784330E+02  0.31666927943E+02 -0.19220318605E+02  0.65081094771E+02  0.10000000000E+01 0.  0.
    9000005    1    3    3    0    0 -0.53500784330E+02 -0.31666927943E+02 -0.62874350957E+01  0.62495280537E+02  0.10000000000E+01 0.  0.
<mgrwt>
<rscale>  0 0.12500034E+03</rscale>
<asrwt>0</asrwt>
<pdfrwt beam="1">  1        4 0.78514324E-02 0.12500034E+03</pdfrwt>
<pdfrwt beam="2">  1       -4 0.11775702E-01 0.12500034E+03</pdfrwt>
<totfact> 0.10396566E+04</totfact>
</mgrwt>
</event>
<event>
 5    1  0.3183609E-002  0.1250108E+03  0.7818608E-02  0.1235052E+00
          4   -1    0    0  501    0  0.00000000000E+00  0.00000000000E+00  0.14708159675E+02  0.14762887963E+02  0.12700000000E+01 0. -1.
         -4   -1    0    0    0  501 -0.00000000000E+00 -0.00000000000E+00 -0.26508008943E+03  0.26508313170E+03  0.12700000000E+01 0. -1.
         25    2    1    2    0    0  0.00000000000E+00  0.00000000000E+00 -0.25037192976E+03  0.27984601967E+03  0.12501076559E+03 0.  0.
    9000005    1    3    3    0    0  0.55300078594E+02 -0.28627832758E+02 -0.13708865705E+03  0.15057208039E+03  0.10000000000E+01 0.  0.
    9000005    1    3    3    0    0 -0.55300078594E+02  0.28627832758E+02 -0.11328327270E+03  0.12927393927E+03  0.10000000000E+01 0.  0.
<mgrwt>
<rscale>  0 0.12501077E+03</rscale>
<asrwt>0</asrwt>
<pdfrwt beam="1">  1        4 0.22672379E-02 0.12501077E+03</pdfrwt>
<pdfrwt beam="2">  1       -4 0.40785993E-01 0.12501077E+03</pdfrwt>
<totfact> 0.78179817E+03</totfact>
</mgrwt>
</event>
<event>
 4    1  0.3183609E-002  0.1250794E+03  0.7818608E-02  0.1234945E+00
         -4   -1    0    0    0  501 -0.00000000000E+00  0.00000000000E+00  0.28031611221E+02  0.28060365779E+02  0.12700000000E+01 0. -1.
          4   -1    0    0  501    0  0.00000000000E+00 -0.00000000000E+00 -0.13942562086E+03  0.13943140482E+03  0.12700000000E+01 0. -1.
    9000005    1    1    2    0    0 -0.11137432329E+01 -0.57445641907E+02 -0.22651897153E+02  0.61768524693E+02  0.10000000000E+01 0.  0.
    9000005    1    1    2    0    0  0.11137432329E+01  0.57445641907E+02 -0.88742112482E+02  0.10572324591E+03  0.10000000000E+01 0.  0.
<mgrwt>
<rscale>  0 0.12507945E+03</rscale>
<asrwt>0</asrwt>
<pdfrwt beam="2">  1        4 0.21452752E-01 0.12507945E+03</pdfrwt>
<pdfrwt beam="1">  1       -4 0.43152125E-02 0.12507945E+03</pdfrwt>
<totfact> 0.95746621E+03</totfact>
</mgrwt>
</event>
<event>
 5    1  0.3183609E-002  0.1249952E+03  0.7818608E-02  0.1235077E+00
          4   -1    0    0  501    0  0.00000000000E+00  0.00000000000E+00  0.50014824342E+03  0.50014985584E+03  0.12700000000E+01 0.  1.
         -4   -1    0    0    0  501 -0.00000000000E+00 -0.00000000000E+00 -0.77563202706E+01  0.78596058514E+01  0.12700000000E+01 0.  1.
         25    2    1    2    0    0  0.00000000000E+00  0.00000000000E+00  0.49239192315E+03  0.50800946169E+03  0.12499522865E+03 0.  0.
    9000005    1    3    3    0    0  0.45158867595E+02 -0.23029930929E+02  0.97684565078E+02  0.11005896281E+03  0.10000000000E+01 0.  0.
    9000005    1    3    3    0    0 -0.45158867595E+02  0.23029930929E+02  0.39470735807E+03  0.39795049887E+03  0.10000000000E+01 0.  0.
<mgrwt>
<rscale>  0 0.12499523E+03</rscale>
<asrwt>0</asrwt>
<pdfrwt beam="1">  1        4 0.76953957E-01 0.12499523E+03</pdfrwt>
<pdfrwt beam="2">  1       -4 0.12013491E-02 0.12499523E+03</pdfrwt>
<totfact> 0.55254034E+03</totfact>
</mgrwt>
</event>
<event>
 5    1  0.3183609E-002  0.1250180E+03  0.7818608E-02  0.1235041E+00
         -4   -1    0    0    0  501 -0.00000000000E+00  0.00000000000E+00  0.34503240206E+03  0.34503473936E+03  0.12700000000E+01 0.  1.
          4   -1    0    0  501    0  0.00000000000E+00 -0.00000000000E+00 -0.11286666195E+02  0.11357893018E+02  0.12700000000E+01 0.  1.
         25    2    1    2    0    0  0.00000000000E+00  0.00000000000E+00  0.33374573586E+03  0.35639263238E+03  0.12501796755E+03 0.  0.
    9000005    1    3    3    0    0  0.54878077531E+02  0.13364684014E+02  0.90584247534E+02  0.10675544049E+03  0.10000000000E+01 0.  0.
    9000005    1    3    3    0    0 -0.54878077531E+02 -0.13364684014E+02  0.24316148833E+03  0.24963719189E+03  0.10000000000E+01 0.  0.
<mgrwt>
<rscale>  0 0.12501797E+03</rscale>
<asrwt>0</asrwt>
<pdfrwt beam="2">  1        4 0.17420691E-02 0.12501797E+03</pdfrwt>
<pdfrwt beam="1">  1       -4 0.53087563E-01 0.12501797E+03</pdfrwt>
<totfact> 0.68999537E+03</totfact>
</mgrwt>
</event>
<event>
 5    1  0.3183609E-002  0.1250021E+03  0.7818608E-02  0.1235066E+00
          4   -1    0    0  501    0  0.00000000000E+00  0.00000000000E+00  0.21624655129E+02  0.21661916108E+02  0.12700000000E+01 0. -1.
         -4   -1    0    0    0  501 -0.00000000000E+00 -0.00000000000E+00 -0.18044974494E+03  0.18045421400E+03  0.12700000000E+01 0. -1.
         25    2    1    2    0    0  0.00000000000E+00  0.00000000000E+00 -0.15882508981E+03  0.20211613011E+03  0.12500208356E+03 0.  0.
    9000005    1    3    3    0    0  0.35629679780E+02 -0.19715354724E+02 -0.15606139461E+03  0.16128957864E+03  0.10000000000E+01 0.  0.
    9000005    1    3    3    0    0 -0.35629679780E+02  0.19715354724E+02 -0.27636952089E+01  0.40826551463E+02  0.10000000000E+01 0.  0.
<mgrwt>
<rscale>  0 0.12500208E+03</rscale>
<asrwt>0</asrwt>
<pdfrwt beam="1">  1        4 0.33300801E-02 0.12500208E+03</pdfrwt>
<pdfrwt beam="2">  1       -4 0.27764708E-01 0.12500208E+03</pdfrwt>
<totfact> 0.89775643E+03</totfact>
</mgrwt>
</event>
<event>
 5    1  0.3183609E-002  0.1250019E+03  0.7818608E-02  0.1235066E+00
          4   -1    0    0  501    0  0.00000000000E+00  0.00000000000E+00  0.14790054897E+02  0.14844481260E+02  0.12700000000E+01 0. -1.
         -4   -1    0    0    0  501 -0.00000000000E+00 -0.00000000000E+00 -0.26358022195E+03  0.26358328153E+03  0.12700000000E+01 0. -1.
         25    2    1    2    0    0  0.00000000000E+00  0.00000000000E+00 -0.24879016705E+03  0.27842776279E+03  0.12500188747E+03 0.  0.
    9000005    1    3    3    0    0  0.42059329125E+02 -0.38793921598E+02 -0.68425440503E+02  0.89201997890E+02  0.10000000000E+01 0.  0.
    9000005    1    3    3    0    0 -0.42059329125E+02  0.38793921598E+02 -0.18036472655E+03  0.18922576490E+03  0.10000000000E+01 0.  0.
<mgrwt>
<rscale>  0 0.12500189E+03</rscale>
<asrwt>0</asrwt>
<pdfrwt beam="1">  1        4 0.22798153E-02 0.12500189E+03</pdfrwt>
<pdfrwt beam="2">  1       -4 0.40555222E-01 0.12500189E+03</pdfrwt>
<totfact> 0.78383748E+03</totfact>
</mgrwt>
</event>
<event>
 4    1  0.3183609E-002  0.1172578E+03  0.7818608E-02  0.1247691E+00
          4   -1    0    0  501    0  0.00000000000E+00  0.00000000000E+00  0.36081984233E+03  0.36082207737E+03  0.12700000000E+01 0.  1.
         -4   -1    0    0    0  501 -0.00000000000E+00 -0.00000000000E+00 -0.94818924648E+01  0.95665659833E+01  0.12700000000E+01 0.  1.
    9000005    1    1    2    0    0 -0.42550394271E+02 -0.39975270358E+02  0.19232065722E+03  0.20098953576E+03  0.10000000000E+01 0.  0.
    9000005    1    1    2    0    0  0.42550394271E+02  0.39975270358E+02  0.15901729265E+03  0.16939910760E+03  0.10000000000E+01 0.  0.
<mgrwt>
<rscale>  0 0.11725780E+03</rscale>
<asrwt>0</asrwt>
<pdfrwt beam="1">  1        4 0.55517432E-01 0.11725780E+03</pdfrwt>
<pdfrwt beam="2">  1       -4 0.14654379E-02 0.11725780E+03</pdfrwt>
<totfact> 0.80538609E+03</totfact>
</mgrwt>
</event>
<event>
 5    1  0.3183609E-002  0.1250021E+03  0.7818608E-02  0.1235066E+00
          4   -1    0    0  501    0  0.00000000000E+00  0.00000000000E+00  0.89774864330E+02  0.89783846907E+02  0.12700000000E+01 0. -1.
         -4   -1    0    0    0  501 -0.00000000000E+00 -0.00000000000E+00 -0.43492629826E+02  0.43511168097E+02  0.12700000000E+01 0. -1.
         25    2    1    2    0    0  0.00000000000E+00  0.00000000000E+00  0.46282234504E+02  0.13329501500E+03  0.12500206316E+03 0.  0.
    9000005    1    3    3    0    0  0.23350875516E+01  0.56559536198E+02 -0.50906947618E+01  0.56844955290E+02  0.10000000000E+01 0.  0.
    9000005    1    3    3    0    0 -0.23350875516E+01 -0.56559536198E+02  0.51372929266E+02  0.76450059713E+02  0.10000000000E+01 0.  0.
<mgrwt>
<rscale>  0 0.12500206E+03</rscale>
<asrwt>0</asrwt>
<pdfrwt beam="1">  1        4 0.13813634E-01 0.12500206E+03</pdfrwt>
<pdfrwt beam="2">  1       -4 0.66932909E-02 0.12500206E+03</pdfrwt>
<totfact> 0.10273656E+04</totfact>
</mgrwt>
</event>
<event>
 5    1  0.3183609E-002  0.1249998E+03  0.7818608E-02  0.1235070E+00
          4   -1    0    0  501    0  0.00000000000E+00  0.00000000000E+00  0.53626354765E+02  0.53641390972E+02  0.12700000000E+01 0.  1.
         -4   -1    0    0    0  501 -0.00000000000E+00 -0.00000000000E+00 -0.72811008155E+02  0.72822083247E+02  0.12700000000E+01 0.  1.
         25    2    1    2    0    0  0.00000000000E+00  0.00000000000E+00 -0.19184653390E+02  0.12646347422E+03  0.12499983754E+03 0.  0.
    9000005    1    3    3    0    0  0.46466521569E+02 -0.18711493068E+02 -0.47392658123E+02  0.68966090534E+02  0.10000000000E+01 0.  0.
    9000005    1    3    3    0    0 -0.46466521569E+02  0.18711493068E+02  0.28208004733E+02  0.57497383685E+02  0.10000000000E+01 0.  0.
<mgrwt>
<rscale>  0 0.12499984E+03</rscale>
<asrwt>0</asrwt>
<pdfrwt beam="1">  1        4 0.82522170E-02 0.12499984E+03</pdfrwt>
<pdfrwt beam="2">  1       -4 0.11203702E-01 0.12499984E+03</pdfrwt>
<totfact> 0.10420863E+04</totfact>
</mgrwt>
</event>
<event>
 5    1  0.3183609E-002  0.1250001E+03  0.7818608E-02  0.1235069E+00
          4   -1    0    0  501    0  0.00000000000E+00  0.00000000000E+00  0.19319294855E+03  0.19319712282E+03  0.12700000000E+01 0. -1.
         -4   -1    0    0    0  501 -0.00000000000E+00 -0.00000000000E+00 -0.20195127774E+02  0.20235021270E+02  0.12700000000E+01 0. -1.
         25    2    1    2    0    0  0.00000000000E+00  0.00000000000E+00  0.17299782077E+03  0.21343214409E+03  0.12500013656E+03 0.  0.
    9000005    1    3    3    0    0 -0.20479658408E+02 -0.39964513484E+02  0.16070311361E+03  0.16686242678E+03  0.10000000000E+01 0.  0.
    9000005    1    3    3    0    0  0.20479658408E+02  0.39964513484E+02  0.12294707160E+02  0.46569717313E+02  0.10000000000E+01 0.  0.
<mgrwt>
<rscale>  0 0.12500014E+03</rscale>
<asrwt>0</asrwt>
<pdfrwt beam="1">  1        4 0.29725383E-01 0.12500014E+03</pdfrwt>
<pdfrwt beam="2">  1       -4 0.31103325E-02 0.12500014E+03</pdfrwt>
<totfact> 0.87918147E+03</totfact>
</mgrwt>
</event>
<event>
 5    1  0.3183609E-002  0.1249984E+03  0.7818608E-02  0.1235072E+00
         -4   -1    0    0    0  501 -0.00000000000E+00  0.00000000000E+00  0.46937063325E+03  0.46937235140E+03  0.12700000000E+01 0. -1.
          4   -1    0    0  501    0  0.00000000000E+00 -0.00000000000E+00 -0.82719108094E+01  0.83688355486E+01  0.12700000000E+01 0. -1.
         25    2    1    2    0    0  0.00000000000E+00  0.00000000000E+00  0.46109872244E+03  0.47774118694E+03  0.12499843947E+03 0.  0.
    9000005    1    3    3    0    0 -0.23136686344E+02  0.27418161830E+02  0.42610954196E+03  0.42761829194E+03  0.10000000000E+01 0.  0.
    9000005    1    3    3    0    0  0.23136686344E+02 -0.27418161830E+02  0.34989180481E+02  0.50122895007E+02  0.10000000000E+01 0.  0.
<mgrwt>
<rscale>  0 0.12499844E+03</rscale>
<asrwt>0</asrwt>
<pdfrwt beam="2">  1        4 0.12801897E-02 0.12499844E+03</pdfrwt>
<pdfrwt beam="1">  1       -4 0.72218446E-01 0.12499844E+03</pdfrwt>
<totfact> 0.57635686E+03</totfact>
</mgrwt>
</event>
<event>
 5    1  0.3183609E-002  0.1249945E+03  0.7818608E-02  0.1235078E+00
         -4   -1    0    0    0  501 -0.00000000000E+00  0.00000000000E+00  0.41028187129E+03  0.41028383689E+03  0.12700000000E+01 0. -1.
          4   -1    0    0  501    0  0.00000000000E+00 -0.00000000000E+00 -0.94757019505E+01  0.95604302965E+01  0.12700000000E+01 0. -1.
         25    2    1    2    0    0  0.00000000000E+00  0.00000000000E+00  0.40080616934E+03  0.41984426718E+03  0.12499449310E+03 0.  0.
    9000005    1    3    3    0    0 -0.13152600646E+02 -0.60947671594E+02  0.21437234214E+03  0.22325794644E+03  0.10000000000E+01 0.  0.
    9000005    1    3    3    0    0  0.13152600646E+02  0.60947671594E+02  0.18643382721E+03  0.19658632074E+03  0.10000000000E+01 0.  0.
<mgrwt>
<rscale>  0 0.12499449E+03</rscale>
<asrwt>0</asrwt>
<pdfrwt beam="2">  1        4 0.14644689E-02 0.12499449E+03</pdfrwt>
<pdfrwt beam="1">  1       -4 0.63126966E-01 0.12499449E+03</pdfrwt>
<totfact> 0.62675065E+03</totfact>
</mgrwt>
</event>
<event>
 5    1  0.3183609E-002  0.1250044E+03  0.7818608E-02  0.1235062E+00
          4   -1    0    0  501    0  0.00000000000E+00  0.00000000000E+00  0.71056705522E+03  0.71056819016E+03  0.12700000000E+01 0. -1.
         -4   -1    0    0    0  501 -0.00000000000E+00 -0.00000000000E+00 -0.54232545152E+01  0.55699721307E+01  0.12700000000E+01 0. -1.
         25    2    1    2    0    0  0.00000000000E+00  0.00000000000E+00  0.70514380070E+03  0.71613816229E+03  0.12500435118E+03 0.  0.
    9000005    1    3    3    0    0 -0.34526320741E+02  0.48921851225E+02  0.45507091284E+03  0.45899449895E+03  0.10000000000E+01 0.  0.
    9000005    1    3    3    0    0  0.34526320741E+02 -0.48921851225E+02  0.25007288786E+03  0.25714366334E+03  0.10000000000E+01 0.  0.
<mgrwt>
<rscale>  0 0.12500435E+03</rscale>
<asrwt>0</asrwt>
<pdfrwt beam="1">  1        4 0.10932936E+00 0.12500435E+03</pdfrwt>
<pdfrwt beam="2">  1       -4 0.84572030E-03 0.12500435E+03</pdfrwt>
<totfact> 0.42244349E+03</totfact>
</mgrwt>
</event>
<event>
 5    1  0.3183609E-002  0.1249888E+03  0.7818608E-02  0.1235087E+00
          4   -1    0    0  501    0  0.00000000000E+00  0.00000000000E+00  0.12860810434E+03  0.12861437479E+03  0.12700000000E+01 0. -1.
         -4   -1    0    0    0  501 -0.00000000000E+00 -0.00000000000E+00 -0.30347532181E+02  0.30374094381E+02  0.12700000000E+01 0. -1.
         25    2    1    2    0    0  0.00000000000E+00  0.00000000000E+00  0.98260572164E+02  0.15898846917E+03  0.12498877265E+03 0.  0.
    9000005    1    3    3    0    0  0.19130134027E+02  0.58501691342E+02  0.62838552981E+02  0.87966434840E+02  0.10000000000E+01 0.  0.
    9000005    1    3    3    0    0 -0.19130134027E+02 -0.58501691342E+02  0.35422019183E+02  0.71022034333E+02  0.10000000000E+01 0.  0.
<mgrwt>
<rscale>  0 0.12498877E+03</rscale>
<asrwt>0</asrwt>
<pdfrwt beam="1">  1        4 0.19788388E-01 0.12498877E+03</pdfrwt>
<pdfrwt beam="2">  1       -4 0.46713766E-02 0.12498877E+03</pdfrwt>
<totfact> 0.97562776E+03</totfact>
</mgrwt>
</event>
<event>
 5    1  0.3183609E-002  0.1249966E+03  0.7818608E-02  0.1235075E+00
          4   -1    0    0  501    0  0.00000000000E+00  0.00000000000E+00  0.40790144350E+01  0.42721491969E+01  0.12700000000E+01 0.  1.
         -4   -1    0    0    0  501 -0.00000000000E+00 -0.00000000000E+00 -0.93525343812E+03  0.93525430040E+03  0.12700000000E+01 0.  1.
         25    2    1    2    0    0  0.00000000000E+00  0.00000000000E+00 -0.93117442369E+03  0.93952644960E+03  0.12499656862E+03 0.  0.
    9000005    1    3    3    0    0  0.96060072463E+01  0.61094768371E+02 -0.39827877250E+03  0.40305313139E+03  0.10000000000E+01 0.  0.
    9000005    1    3    3    0    0 -0.96060072463E+01 -0.61094768371E+02 -0.53289565118E+03  0.53647331821E+03  0.10000000000E+01 0.  0.
<mgrwt>
<rscale>  0 0.12499657E+03</rscale>
<asrwt>0</asrwt>
<pdfrwt beam="1">  1        4 0.64246428E-03 0.12499657E+03</pdfrwt>
<pdfrwt beam="2">  1       -4 0.14389990E+00 0.12499657E+03</pdfrwt>
<totfact> 0.32693254E+03</totfact>
</mgrwt>
</event>
<event>
 5    1  0.3183609E-002  0.1250027E+03  0.7818608E-02  0.1235065E+00
          4   -1    0    0  501    0  0.00000000000E+00  0.00000000000E+00  0.86484022167E+03  0.86484115416E+03  0.12700000000E+01 0.  1.
         -4   -1    0    0    0  501 -0.00000000000E+00 -0.00000000000E+00 -0.44267042411E+01  0.46052807122E+01  0.12700000000E+01 0.  1.
         25    2    1    2    0    0  0.00000000000E+00  0.00000000000E+00  0.86041351743E+03  0.86944643487E+03  0.12500272848E+03 0.  0.
    9000005    1    3    3    0    0  0.36557935565E+02 -0.49549664842E+02  0.35601861033E+03  0.36130583006E+03  0.10000000000E+01 0.  0.
    9000005    1    3    3    0    0 -0.36557935565E+02  0.49549664842E+02  0.50439490711E+03  0.50814060481E+03  0.10000000000E+01 0.  0.
<mgrwt>
<rscale>  0 0.12500273E+03</rscale>
<asrwt>0</asrwt>
<pdfrwt beam="1">  1        4 0.13306616E+00 0.12500273E+03</pdfrwt>
<pdfrwt beam="2">  1       -4 0.69483976E-03 0.12500273E+03</pdfrwt>
<totfact> 0.35342398E+03</totfact>
</mgrwt>
</event>
<event>
 5    1  0.3183609E-002  0.1250010E+03  0.7818608E-02  0.1235068E+00
         -4   -1    0    0    0  501 -0.00000000000E+00  0.00000000000E+00  0.35495242208E+02  0.35517954888E+02  0.12700000000E+01 0.  1.
          4   -1    0    0  501    0  0.00000000000E+00 -0.00000000000E+00 -0.10999020719E+03  0.10999753896E+03  0.12700000000E+01 0.  1.
         25    2    1    2    0    0  0.00000000000E+00  0.00000000000E+00 -0.74494964979E+02  0.14551549385E+03  0.12500103656E+03 0.  0.
    9000005    1    3    3    0    0 -0.37834746923E+02 -0.19293357227E+02 -0.90614385961E+02  0.10007831259E+03  0.10000000000E+01 0.  0.
    9000005    1    3    3    0    0  0.37834746923E+02  0.19293357227E+02  0.16119420981E+02  0.45437181257E+02  0.10000000000E+01 0.  0.
<mgrwt>
<rscale>  0 0.12500104E+03</rscale>
<asrwt>0</asrwt>
<pdfrwt beam="2">  1        4 0.16923881E-01 0.12500104E+03</pdfrwt>
<pdfrwt beam="1">  1       -4 0.54631177E-02 0.12500104E+03</pdfrwt>
<totfact> 0.10020291E+04</totfact>
</mgrwt>
</event>
<event>
 5    1  0.3183609E-002  0.1250005E+03  0.7818608E-02  0.1235069E+00
          4   -1    0    0  501    0  0.00000000000E+00  0.00000000000E+00  0.13692328696E+02  0.13751100506E+02  0.12700000000E+01 0. -1.
         -4   -1    0    0    0  501 -0.00000000000E+00 -0.00000000000E+00 -0.28461847085E+03  0.28462130428E+03  0.12700000000E+01 0. -1.
         25    2    1    2    0    0  0.00000000000E+00  0.00000000000E+00 -0.27092614215E+03  0.29837240478E+03  0.12500046974E+03 0.  0.
    9000005    1    3    3    0    0 -0.40783947578E+02  0.43719038288E+02 -0.17886359108E+03  0.18859445618E+03  0.10000000000E+01 0.  0.
    9000005    1    3    3    0    0  0.40783947578E+02 -0.43719038288E+02 -0.92062551072E+02  0.10977794860E+03  0.10000000000E+01 0.  0.
<mgrwt>
<rscale>  0 0.12500047E+03</rscale>
<asrwt>0</asrwt>
<pdfrwt beam="1">  1        4 0.21112512E-02 0.12500047E+03</pdfrwt>
<pdfrwt beam="2">  1       -4 0.43792191E-01 0.12500047E+03</pdfrwt>
<totfact> 0.75802667E+03</totfact>
</mgrwt>
</event>
<event>
 5    1  0.3183609E-002  0.1249968E+03  0.7818608E-02  0.1235074E+00
          4   -1    0    0  501    0  0.00000000000E+00  0.00000000000E+00  0.58906417078E+03  0.58906553982E+03  0.12700000000E+01 0.  1.
         -4   -1    0    0    0  501 -0.00000000000E+00 -0.00000000000E+00 -0.65687383410E+01  0.66903829033E+01  0.12700000000E+01 0.  1.
         25    2    1    2    0    0  0.00000000000E+00  0.00000000000E+00  0.58249543244E+03  0.59575592272E+03  0.12499676252E+03 0.  0.
    9000005    1    3    3    0    0 -0.38331188720E+02 -0.47086625083E+02  0.36171895997E+03  0.36678063784E+03  0.10000000000E+01 0.  0.
    9000005    1    3    3    0    0  0.38331188720E+02  0.47086625083E+02  0.22077647247E+03  0.22897528488E+03  0.10000000000E+01 0.  0.
<mgrwt>
<rscale>  0 0.12499676E+03</rscale>
<asrwt>0</asrwt>
<pdfrwt beam="1">  1        4 0.90634682E-01 0.12499676E+03</pdfrwt>
<pdfrwt beam="2">  1       -4 0.10200381E-02 0.12499676E+03</pdfrwt>
<totfact> 0.49140113E+03</totfact>
</mgrwt>
</event>
<event>
 5    1  0.3183609E-002  0.1249997E+03  0.7818608E-02  0.1235070E+00
         -4   -1    0    0    0  501 -0.00000000000E+00  0.00000000000E+00  0.81535301590E+03  0.81535400498E+03  0.12700000000E+01 0. -1.
          4   -1    0    0  501    0  0.00000000000E+00 -0.00000000000E+00 -0.47056706094E+01  0.48740369187E+01  0.12700000000E+01 0. -1.
         25    2    1    2    0    0  0.00000000000E+00  0.00000000000E+00  0.81064734529E+03  0.82022804190E+03  0.12499968916E+03 0.  0.
    9000005    1    3    3    0    0  0.54988772851E+01 -0.61384519465E+02  0.33746850011E+03  0.34305143265E+03  0.10000000000E+01 0.  0.
    9000005    1    3    3    0    0 -0.54988772851E+01  0.61384519465E+02  0.47317884518E+03  0.47717660925E+03  0.10000000000E+01 0.  0.
<mgrwt>
<rscale>  0 0.12499969E+03</rscale>
<asrwt>0</asrwt>
<pdfrwt beam="2">  1        4 0.73697642E-03 0.12499969E+03</pdfrwt>
<pdfrwt beam="1">  1       -4 0.12545199E+00 0.12499969E+03</pdfrwt>
<totfact> 0.37377734E+03</totfact>
</mgrwt>
</event>
<event>
 5    1  0.3183609E-002  0.1249984E+03  0.7818608E-02  0.1235072E+00
         -4   -1    0    0    0  501 -0.00000000000E+00  0.00000000000E+00  0.77652795375E+01  0.78684475149E+01  0.12700000000E+01 0.  1.
          4   -1    0    0  501    0  0.00000000000E+00 -0.00000000000E+00 -0.49960439972E+03  0.49960601390E+03  0.12700000000E+01 0.  1.
         25    2    1    2    0    0  0.00000000000E+00  0.00000000000E+00 -0.49183912019E+03  0.50747446141E+03  0.12499843535E+03 0.  0.
    9000005    1    3    3    0    0  0.20226155866E+01 -0.60233609414E+02 -0.31299598160E+03  0.31874702066E+03  0.10000000000E+01 0.  0.
    9000005    1    3    3    0    0 -0.20226155866E+01  0.60233609414E+02 -0.17884313858E+03  0.18872744076E+03  0.10000000000E+01 0.  0.
<mgrwt>
<rscale>  0 0.12499844E+03</rscale>
<asrwt>0</asrwt>
<pdfrwt beam="2">  1        4 0.76870250E-01 0.12499844E+03</pdfrwt>
<pdfrwt beam="1">  1       -4 0.12027189E-02 0.12499844E+03</pdfrwt>
<totfact> 0.55290981E+03</totfact>
</mgrwt>
</event>
<event>
 5    1  0.3183609E-002  0.1250032E+03  0.7818608E-02  0.1235064E+00
          4   -1    0    0  501    0  0.00000000000E+00  0.00000000000E+00  0.18539375216E+02  0.18582823612E+02  0.12700000000E+01 0. -1.
         -4   -1    0    0    0  501 -0.00000000000E+00 -0.00000000000E+00 -0.21041906713E+03  0.21042289968E+03  0.12700000000E+01 0. -1.
         25    2    1    2    0    0  0.00000000000E+00  0.00000000000E+00 -0.19187969191E+03  0.22900572329E+03  0.12500322049E+03 0.  0.
    9000005    1    3    3    0    0 -0.15631375115E+01  0.18048781880E+02 -0.20551188447E+03  0.20631126141E+03  0.10000000000E+01 0.  0.
    9000005    1    3    3    0    0  0.15631375115E+01 -0.18048781880E+02  0.13632192559E+02  0.22694461884E+02  0.10000000000E+01 0.  0.
<mgrwt>
<rscale>  0 0.12500322E+03</rscale>
<asrwt>0</asrwt>
<pdfrwt beam="1">  1        4 0.28558487E-02 0.12500322E+03</pdfrwt>
<pdfrwt beam="2">  1       -4 0.32375800E-01 0.12500322E+03</pdfrwt>
<totfact> 0.85456363E+03</totfact>
</mgrwt>
</event>
<event>
 5    1  0.3183609E-002  0.1249972E+03  0.7818608E-02  0.1235074E+00
         -4   -1    0    0    0  501 -0.00000000000E+00  0.00000000000E+00  0.16077239648E+03  0.16077741249E+03  0.12700000000E+01 0. -1.
          4   -1    0    0  501    0  0.00000000000E+00 -0.00000000000E+00 -0.24273703846E+02  0.24306904336E+02  0.12700000000E+01 0. -1.
         25    2    1    2    0    0  0.00000000000E+00  0.00000000000E+00  0.13649869263E+03  0.18508431683E+03  0.12499724496E+03 0.  0.
    9000005    1    3    3    0    0  0.27673376690E+02 -0.55247821797E+02  0.54442974993E+02  0.82360033492E+02  0.10000000000E+01 0.  0.
    9000005    1    3    3    0    0 -0.27673376690E+02  0.55247821797E+02  0.82055717636E+02  0.10272428334E+03  0.10000000000E+01 0.  0.
<mgrwt>
<rscale>  0 0.12499724E+03</rscale>
<asrwt>0</asrwt>
<pdfrwt beam="2">  1        4 0.37373556E-02 0.12499724E+03</pdfrwt>
<pdfrwt beam="1">  1       -4 0.24737155E-01 0.12499724E+03</pdfrwt>
<totfact> 0.92715456E+03</totfact>
</mgrwt>
</event>
<event>
 5    1  0.3183609E-002  0.1249997E+03  0.7818608E-02  0.1235070E+00
         -4   -1    0    0    0  501 -0.00000000000E+00  0.00000000000E+00  0.59904443359E+03  0.59904577982E+03  0.12700000000E+01 0. -1.
          4   -1    0    0  501    0  0.00000000000E+00 -0.00000000000E+00 -0.64575636746E+01  0.65812634510E+01  0.12700000000E+01 0. -1.
         25    2    1    2    0    0  0.00000000000E+00  0.00000000000E+00  0.59258686991E+03  0.60562704327E+03  0.12499966856E+03 0.  0.
    9000005    1    3    3    0    0  0.10767210129E+02 -0.11061463225E+02  0.29013929253E+01  0.15738705905E+02  0.10000000000E+01 0.  0.
    9000005    1    3    3    0    0 -0.10767210129E+02  0.11061463225E+02  0.58968547699E+03  0.58988833736E+03  0.10000000000E+01 0.  0.
<mgrwt>
<rscale>  0 0.12499967E+03</rscale>
<asrwt>0</asrwt>
<pdfrwt beam="2">  1        4 0.10030901E-02 0.12499967E+03</pdfrwt>
<pdfrwt beam="1">  1       -4 0.92170313E-01 0.12499967E+03</pdfrwt>
<totfact> 0.48514678E+03</totfact>
</mgrwt>
</event>
<event>
 5    1  0.3183609E-002  0.1250051E+03  0.7818608E-02  0.1235061E+00
          4   -1    0    0  501    0  0.00000000000E+00  0.00000000000E+00  0.78879317763E+02  0.78889540946E+02  0.12700000000E+01 0. -1.
         -4   -1    0    0    0  501 -0.00000000000E+00 -0.00000000000E+00 -0.49504350695E+02  0.49520638502E+02  0.12700000000E+01 0. -1.
         25    2    1    2    0    0  0.00000000000E+00  0.00000000000E+00  0.29374967068E+02  0.12841017945E+03  0.12500514188E+03 0.  0.
    9000005    1    3    3    0    0  0.23893260338E+02 -0.27459488118E+02 -0.37496468992E+02  0.52267547907E+02  0.10000000000E+01 0.  0.
    9000005    1    3    3    0    0 -0.23893260338E+02  0.27459488118E+02  0.66871436061E+02  0.76142631542E+02  0.10000000000E+01 0.  0.
<mgrwt>
<rscale>  0 0.12500514E+03</rscale>
<asrwt>0</asrwt>
<pdfrwt beam="1">  1        4 0.12137319E-01 0.12500514E+03</pdfrwt>
<pdfrwt beam="2">  1       -4 0.76180933E-02 0.12500514E+03</pdfrwt>
<totfact> 0.10377434E+04</totfact>
</mgrwt>
</event>
<event>
 5    1  0.3183609E-002  0.1250033E+03  0.7818608E-02  0.1235064E+00
         -4   -1    0    0    0  501 -0.00000000000E+00  0.00000000000E+00  0.48341703734E+02  0.48358383140E+02  0.12700000000E+01 0. -1.
          4   -1    0    0  501    0  0.00000000000E+00 -0.00000000000E+00 -0.80773565004E+02  0.80783548470E+02  0.12700000000E+01 0. -1.
         25    2    1    2    0    0  0.00000000000E+00  0.00000000000E+00 -0.32431861269E+02  0.12914193161E+03  0.12500325146E+03 0.  0.
    9000005    1    3    3    0    0  0.24467049513E+02  0.57358241888E+02 -0.20456560644E+02  0.65635929930E+02  0.10000000000E+01 0.  0.
    9000005    1    3    3    0    0 -0.24467049513E+02 -0.57358241888E+02 -0.11975300626E+02  0.63506001680E+02  0.10000000000E+01 0.  0.
<mgrwt>
<rscale>  0 0.12500325E+03</rscale>
<asrwt>0</asrwt>
<pdfrwt beam="2">  1        4 0.12428753E-01 0.12500325E+03</pdfrwt>
<pdfrwt beam="1">  1       -4 0.74392362E-02 0.12500325E+03</pdfrwt>
<totfact> 0.10362137E+04</totfact>
</mgrwt>
</event>
<event>
 5    1  0.3183609E-002  0.1249999E+03  0.7818608E-02  0.1235069E+00
          4   -1    0    0  501    0  0.00000000000E+00  0.00000000000E+00  0.27630982026E+02  0.27660153067E+02  0.12700000000E+01 0. -1.
         -4   -1    0    0    0  501 -0.00000000000E+00 -0.00000000000E+00 -0.14126533799E+03  0.14127104663E+03  0.12700000000E+01 0. -1.
         25    2    1    2    0    0  0.00000000000E+00  0.00000000000E+00 -0.11363435596E+03  0.16893119970E+03  0.12499993351E+03 0.  0.
    9000005    1    3    3    0    0  0.40055413915E+02 -0.19971204628E+02  0.21215620750E+01  0.44819484868E+02  0.10000000000E+01 0.  0.
    9000005    1    3    3    0    0 -0.40055413915E+02  0.19971204628E+02 -0.11575591804E+03  0.12411171483E+03  0.10000000000E+01 0.  0.
<mgrwt>
<rscale>  0 0.12499993E+03</rscale>
<asrwt>0</asrwt>
<pdfrwt beam="1">  1        4 0.42536034E-02 0.12499993E+03</pdfrwt>
<pdfrwt beam="2">  1       -4 0.21735812E-01 0.12499993E+03</pdfrwt>
<totfact> 0.95648165E+03</totfact>
</mgrwt>
</event>
<event>
 5    1  0.3183609E-002  0.1249999E+03  0.7818608E-02  0.1235069E+00
         -4   -1    0    0    0  501 -0.00000000000E+00  0.00000000000E+00  0.16653403271E+03  0.16653887520E+03  0.12700000000E+01 0. -1.
          4   -1    0    0  501    0  0.00000000000E+00 -0.00000000000E+00 -0.23433748789E+02  0.23468137598E+02  0.12700000000E+01 0. -1.
         25    2    1    2    0    0  0.00000000000E+00  0.00000000000E+00  0.14310028392E+03  0.19000701279E+03  0.12499989461E+03 0.  0.
    9000005    1    3    3    0    0  0.24910215877E+02  0.11792094741E+02  0.15680450947E+03  0.15921126388E+03  0.10000000000E+01 0.  0.
    9000005    1    3    3    0    0 -0.24910215877E+02 -0.11792094741E+02 -0.13704225551E+02  0.30795748917E+02  0.10000000000E+01 0.  0.
<mgrwt>
<rscale>  0 0.12499989E+03</rscale>
<asrwt>0</asrwt>
<pdfrwt beam="2">  1        4 0.36082100E-02 0.12499989E+03</pdfrwt>
<pdfrwt beam="1">  1       -4 0.25623637E-01 0.12499989E+03</pdfrwt>
<totfact> 0.91846312E+03</totfact>
</mgrwt>
</event>
<event>
 5    1  0.3183609E-002  0.1250009E+03  0.7818608E-02  0.1235068E+00
         -4   -1    0    0    0  501 -0.00000000000E+00  0.00000000000E+00  0.18035659363E+03  0.18036106499E+03  0.12700000000E+01 0.  1.
          4   -1    0    0  501    0  0.00000000000E+00 -0.00000000000E+00 -0.21635442435E+02  0.21672684868E+02  0.12700000000E+01 0.  1.
         25    2    1    2    0    0  0.00000000000E+00  0.00000000000E+00  0.15872115119E+03  0.20203374986E+03  0.12500092898E+03 0.  0.
    9000005    1    3    3    0    0 -0.98802991595E+01 -0.60688254858E+02  0.97403652826E+02  0.11519182338E+03  0.10000000000E+01 0.  0.
    9000005    1    3    3    0    0  0.98802991595E+01  0.60688254858E+02  0.61317498368E+02  0.86841926484E+02  0.10000000000E+01 0.  0.
<mgrwt>
<rscale>  0 0.12500093E+03</rscale>
<asrwt>0</asrwt>
<pdfrwt beam="2">  1        4 0.33317384E-02 0.12500093E+03</pdfrwt>
<pdfrwt beam="1">  1       -4 0.27750377E-01 0.12500093E+03</pdfrwt>
<totfact> 0.89791762E+03</totfact>
</mgrwt>
</event>
<event>
 5    1  0.3183609E-002  0.1250006E+03  0.7818608E-02  0.1235068E+00
         -4   -1    0    0    0  501 -0.00000000000E+00  0.00000000000E+00  0.57297649921E+01  0.58688249986E+01  0.12700000000E+01 0. -1.
          4   -1    0    0  501    0  0.00000000000E+00 -0.00000000000E+00 -0.67343969426E+03  0.67344089177E+03  0.12700000000E+01 0. -1.
         25    2    1    2    0    0  0.00000000000E+00  0.00000000000E+00 -0.66770992927E+03  0.67930971677E+03  0.12500056660E+03 0.  0.
    9000005    1    3    3    0    0 -0.25937895528E+02 -0.47572267773E+02 -0.16465308389E+03  0.17334224275E+03  0.10000000000E+01 0.  0.
    9000005    1    3    3    0    0  0.25937895528E+02  0.47572267773E+02 -0.50305684538E+03  0.50596747402E+03  0.10000000000E+01 0.  0.
<mgrwt>
<rscale>  0 0.12500057E+03</rscale>
<asrwt>0</asrwt>
<pdfrwt beam="2">  1        4 0.10361683E+00 0.12500057E+03</pdfrwt>
<pdfrwt beam="1">  1       -4 0.89229188E-03 0.12500057E+03</pdfrwt>
<totfact> 0.44201120E+03</totfact>
</mgrwt>
</event>
<event>
 5    1  0.3183609E-002  0.1249976E+03  0.7818608E-02  0.1235073E+00
          4   -1    0    0  501    0  0.00000000000E+00  0.00000000000E+00  0.42351917510E+02  0.42370954872E+02  0.12700000000E+01 0. -1.
         -4   -1    0    0    0  501 -0.00000000000E+00 -0.00000000000E+00 -0.92185485327E+02  0.92194233035E+02  0.12700000000E+01 0. -1.
         25    2    1    2    0    0  0.00000000000E+00  0.00000000000E+00 -0.49833567817E+02  0.13456518791E+03  0.12499762124E+03 0.  0.
    9000005    1    3    3    0    0  0.10293323752E+02 -0.59081495684E+02 -0.43826135409E+02  0.74285299966E+02  0.10000000000E+01 0.  0.
    9000005    1    3    3    0    0 -0.10293323752E+02  0.59081495684E+02 -0.60074324080E+01  0.60279887941E+02  0.10000000000E+01 0.  0.
<mgrwt>
<rscale>  0 0.12499762E+03</rscale>
<asrwt>0</asrwt>
<pdfrwt beam="1">  1        4 0.65178170E-02 0.12499762E+03</pdfrwt>
<pdfrwt beam="2">  1       -4 0.14184520E-01 0.12499762E+03</pdfrwt>
<totfact> 0.10247794E+04</totfact>
</mgrwt>
</event>
<event>
 5    1  0.3183609E-002  0.1250132E+03  0.7818608E-02  0.1235049E+00
          4   -1    0    0  501    0  0.00000000000E+00  0.00000000000E+00  0.30911510921E+02  0.30937588907E+02  0.12700000000E+01 0. -1.
         -4   -1    0    0    0  501 -0.00000000000E+00 -0.00000000000E+00 -0.12631285424E+03  0.12631923862E+03  0.12700000000E+01 0. -1.
         25    2    1    2    0    0  0.00000000000E+00  0.00000000000E+00 -0.95401343317E+02  0.15725682753E+03  0.12501317330E+03 0.  0.
    9000005    1    3    3    0    0 -0.17997186356E+02 -0.40086313242E+02 -0.10360766047E+03  0.11254491785E+03  0.10000000000E+01 0.  0.
    9000005    1    3    3    0    0  0.17997186356E+02  0.40086313242E+02  0.82063171497E+01  0.44711909680E+02  0.10000000000E+01 0.  0.
<mgrwt>
<rscale>  0 0.12501317E+03</rscale>
<asrwt>0</asrwt>
<pdfrwt beam="1">  1        4 0.47581142E-02 0.12501317E+03</pdfrwt>
<pdfrwt beam="2">  1       -4 0.19435244E-01 0.12501317E+03</pdfrwt>
<totfact> 0.97845285E+03</totfact>
</mgrwt>
</event>
<event>
 5    1  0.3183609E-002  0.1250000E+03  0.7818608E-02  0.1235069E+00
         -4   -1    0    0    0  501 -0.00000000000E+00  0.00000000000E+00  0.81881056873E+02  0.81890905323E+02  0.12700000000E+01 0.  1.
          4   -1    0    0  501    0  0.00000000000E+00 -0.00000000000E+00 -0.47685188921E+02  0.47702097883E+02  0.12700000000E+01 0.  1.
         25    2    1    2    0    0  0.00000000000E+00  0.00000000000E+00  0.34195867951E+02  0.12959300321E+03  0.12499995638E+03 0.  0.
    9000005    1    3    3    0    0 -0.59632671733E+02  0.10677048918E+02  0.11984400935E+01  0.60601082253E+02  0.10000000000E+01 0.  0.
    9000005    1    3    3    0    0  0.59632671733E+02 -0.10677048918E+02  0.32997427858E+02  0.68991920953E+02  0.10000000000E+01 0.  0.
<mgrwt>
<rscale>  0 0.12499996E+03</rscale>
<asrwt>0</asrwt>
<pdfrwt beam="2">  1        4 0.73382412E-02 0.12499996E+03</pdfrwt>
<pdfrwt beam="1">  1       -4 0.12599144E-01 0.12499996E+03</pdfrwt>
<totfact> 0.10353232E+04</totfact>
</mgrwt>
</event>
<event>
 5    1  0.3183609E-002  0.1250015E+03  0.7818608E-02  0.1235067E+00
          4   -1    0    0  501    0  0.00000000000E+00  0.00000000000E+00  0.37548382134E+02  0.37569853618E+02  0.12700000000E+01 0.  1.
         -4   -1    0    0    0  501 -0.00000000000E+00 -0.00000000000E+00 -0.10397979045E+03  0.10398754599E+03  0.12700000000E+01 0.  1.
         25    2    1    2    0    0  0.00000000000E+00  0.00000000000E+00 -0.66431408311E+02  0.14155739961E+03  0.12500146149E+03 0.  0.
    9000005    1    3    3    0    0 -0.43519651194E+02 -0.16492263986E+02 -0.80445442212E+02  0.92943122307E+02  0.10000000000E+01 0.  0.
    9000005    1    3    3    0    0  0.43519651194E+02  0.16492263986E+02  0.14014033901E+02  0.48614277302E+02  0.10000000000E+01 0.  0.
<mgrwt>
<rscale>  0 0.12500146E+03</rscale>
<asrwt>0</asrwt>
<pdfrwt beam="1">  1        4 0.57789225E-02 0.12500146E+03</pdfrwt>
<pdfrwt beam="2">  1       -4 0.15999139E-01 0.12500146E+03</pdfrwt>
<totfact> 0.10101077E+04</totfact>
</mgrwt>
</event>
<event>
 5    1  0.3183609E-002  0.1249992E+03  0.7818608E-02  0.1235070E+00
         -4   -1    0    0    0  501 -0.00000000000E+00  0.00000000000E+00  0.95245839600E+01  0.96088812882E+01  0.12700000000E+01 0.  1.
          4   -1    0    0  501    0  0.00000000000E+00 -0.00000000000E+00 -0.40822566623E+03  0.40822764172E+03  0.12700000000E+01 0.  1.
         25    2    1    2    0    0  0.00000000000E+00  0.00000000000E+00 -0.39870108227E+03  0.41783652301E+03  0.12499922784E+03 0.  0.
    9000005    1    3    3    0    0  0.13614429688E+02  0.91372935753E+01 -0.40092357831E+03  0.40125996371E+03  0.10000000000E+01 0.  0.
    9000005    1    3    3    0    0 -0.13614429688E+02 -0.91372935753E+01  0.22224960448E+01  0.16576559302E+02  0.10000000000E+01 0.  0.
<mgrwt>
<rscale>  0 0.12499923E+03</rscale>
<asrwt>0</asrwt>
<pdfrwt beam="2">  1        4 0.62810572E-01 0.12499923E+03</pdfrwt>
<pdfrwt beam="1">  1       -4 0.14719573E-02 0.12499923E+03</pdfrwt>
<totfact> 0.62855304E+03</totfact>
</mgrwt>
</event>
<event>
 5    1  0.3183609E-002  0.1249961E+03  0.7818608E-02  0.1235075E+00
         -4   -1    0    0    0  501 -0.00000000000E+00  0.00000000000E+00  0.10034344177E+03  0.10035147835E+03  0.12700000000E+01 0.  1.
          4   -1    0    0  501    0  0.00000000000E+00 -0.00000000000E+00 -0.38906432850E+02  0.38927155266E+02  0.12700000000E+01 0.  1.
         25    2    1    2    0    0  0.00000000000E+00  0.00000000000E+00  0.61437008922E+02  0.13927863361E+03  0.12499612681E+03 0.  0.
    9000005    1    3    3    0    0 -0.46006614589E+02  0.14737948464E+02  0.74885982453E+02  0.89121973041E+02  0.10000000000E+01 0.  0.
    9000005    1    3    3    0    0  0.46006614589E+02 -0.14737948464E+02 -0.13448973531E+02  0.50156660574E+02  0.10000000000E+01 0.  0.
<mgrwt>
<rscale>  0 0.12499613E+03</rscale>
<asrwt>0</asrwt>
<pdfrwt beam="2">  1        4 0.59878173E-02 0.12499613E+03</pdfrwt>
<pdfrwt beam="1">  1       -4 0.15439665E-01 0.12499613E+03</pdfrwt>
<totfact> 0.10149444E+04</totfact>
</mgrwt>
</event>
<event>
 5    1  0.3183609E-002  0.1249989E+03  0.7818608E-02  0.1235071E+00
         -4   -1    0    0    0  501 -0.00000000000E+00  0.00000000000E+00  0.56607495656E+03  0.56607638120E+03  0.12700000000E+01 0. -1.
          4   -1    0    0  501    0  0.00000000000E+00 -0.00000000000E+00 -0.68405859365E+01  0.69574791380E+01  0.12700000000E+01 0. -1.
         25    2    1    2    0    0  0.00000000000E+00  0.00000000000E+00  0.55923437063E+03  0.57303386033E+03  0.12499889519E+03 0.  0.
    9000005    1    3    3    0    0 -0.50665731631E+02 -0.10893535932E+02  0.43970718544E+03  0.44275172999E+03  0.10000000000E+01 0.  0.
    9000005    1    3    3    0    0  0.50665731631E+02  0.10893535932E+02  0.11952718519E+03  0.13028213034E+03  0.10000000000E+01 0.  0.
<mgrwt>
<rscale>  0 0.12499890E+03</rscale>
<asrwt>0</asrwt>
<pdfrwt beam="2">  1        4 0.10614988E-02 0.12499890E+03</pdfrwt>
<pdfrwt beam="1">  1       -4 0.87097594E-01 0.12499890E+03</pdfrwt>
<totfact> 0.50616478E+03</totfact>
</mgrwt>
</event>
<event>
 5    1  0.3183609E-002  0.1249968E+03  0.7818608E-02  0.1235074E+00
          4   -1    0    0  501    0  0.00000000000E+00  0.00000000000E+00  0.38204117920E+02  0.38225221073E+02  0.12700000000E+01 0. -1.
         -4   -1    0    0    0  501 -0.00000000000E+00 -0.00000000000E+00 -0.10218830003E+03  0.10219619153E+03  0.12700000000E+01 0. -1.
         25    2    1    2    0    0  0.00000000000E+00  0.00000000000E+00 -0.63984182110E+02  0.14042141260E+03  0.12499679019E+03 0.  0.
    9000005    1    3    3    0    0 -0.86719497690E+01  0.61278050579E+02 -0.41711105717E+02  0.74639255997E+02  0.10000000000E+01 0.  0.
    9000005    1    3    3    0    0  0.86719497690E+01 -0.61278050579E+02 -0.22273076392E+02  0.65782156605E+02  0.10000000000E+01 0.  0.
<mgrwt>
<rscale>  0 0.12499679E+03</rscale>
<asrwt>0</asrwt>
<pdfrwt beam="1">  1        4 0.58797870E-02 0.12499679E+03</pdfrwt>
<pdfrwt beam="2">  1       -4 0.15723507E-01 0.12499679E+03</pdfrwt>
<totfact> 0.10125591E+04</totfact>
</mgrwt>
</event>
<event>
 5    1  0.3183609E-002  0.1250077E+03  0.7818608E-02  0.1235057E+00
          4   -1    0    0  501    0  0.00000000000E+00  0.00000000000E+00  0.25844536708E+02  0.25875721781E+02  0.12700000000E+01 0. -1.
         -4   -1    0    0    0  501 -0.00000000000E+00 -0.00000000000E+00 -0.15103770842E+03  0.15104304772E+03  0.12700000000E+01 0. -1.
         25    2    1    2    0    0  0.00000000000E+00  0.00000000000E+00 -0.12519317171E+03  0.17691876950E+03  0.12500768280E+03 0.  0.
    9000005    1    3    3    0    0 -0.55751662441E+02  0.24891966673E+02 -0.43721393344E+02  0.75102717033E+02  0.10000000000E+01 0.  0.
    9000005    1    3    3    0    0  0.55751662441E+02 -0.24891966673E+02 -0.81471778367E+02  0.10181605247E+03  0.10000000000E+01 0.  0.
<mgrwt>
<rscale>  0 0.12500768E+03</rscale>
<asrwt>0</asrwt>
<pdfrwt beam="1">  1        4 0.39788922E-02 0.12500768E+03</pdfrwt>
<pdfrwt beam="2">  1       -4 0.23239379E-01 0.12500768E+03</pdfrwt>
<totfact> 0.94158368E+03</totfact>
</mgrwt>
</event>
<event>
 5    1  0.3183609E-002  0.1249978E+03  0.7818608E-02  0.1235073E+00
         -4   -1    0    0    0  501 -0.00000000000E+00  0.00000000000E+00  0.18013861454E+02  0.18058574265E+02  0.12700000000E+01 0. -1.
          4   -1    0    0  501    0  0.00000000000E+00 -0.00000000000E+00 -0.21652388725E+03  0.21652761175E+03  0.12700000000E+01 0. -1.
         25    2    1    2    0    0  0.00000000000E+00  0.00000000000E+00 -0.19851002579E+03  0.23458618601E+03  0.12499779329E+03 0.  0.
    9000005    1    3    3    0    0 -0.15041560253E+02  0.15280398275E+02  0.10903536869E+02  0.24075427775E+02  0.10000000000E+01 0.  0.
    9000005    1    3    3    0    0  0.15041560253E+02 -0.15280398275E+02 -0.20941356266E+03  0.21051075824E+03  0.10000000000E+01 0.  0.
<mgrwt>
<rscale>  0 0.12499779E+03</rscale>
<asrwt>0</asrwt>
<pdfrwt beam="2">  1        4 0.33315092E-01 0.12499779E+03</pdfrwt>
<pdfrwt beam="1">  1       -4 0.27750894E-02 0.12499779E+03</pdfrwt>
<totfact> 0.84614488E+03</totfact>
</mgrwt>
</event>
<event>
 5    1  0.3183609E-002  0.1249924E+03  0.7818608E-02  0.1235081E+00
          4   -1    0    0  501    0  0.00000000000E+00  0.00000000000E+00  0.76859126277E+02  0.76869618134E+02  0.12700000000E+01 0. -1.
         -4   -1    0    0    0  501 -0.00000000000E+00 -0.00000000000E+00 -0.50795447988E+02  0.50811321930E+02  0.12700000000E+01 0. -1.
         25    2    1    2    0    0  0.00000000000E+00  0.00000000000E+00  0.26063678290E+02  0.12768094006E+03  0.12499242829E+03 0.  0.
    9000005    1    3    3    0    0 -0.43065753255E+02 -0.44860559917E+02  0.67640783276E+01  0.62561023770E+02  0.10000000000E+01 0.  0.
    9000005    1    3    3    0    0  0.43065753255E+02  0.44860559917E+02  0.19299599962E+02  0.65119916294E+02  0.10000000000E+01 0.  0.
<mgrwt>
<rscale>  0 0.12499243E+03</rscale>
<asrwt>0</asrwt>
<pdfrwt beam="1">  1        4 0.11826509E-01 0.12499243E+03</pdfrwt>
<pdfrwt beam="2">  1       -4 0.78167125E-02 0.12499243E+03</pdfrwt>
<totfact> 0.10396161E+04</totfact>
</mgrwt>
</event>
<event>
 5    1  0.3183609E-002  0.1249941E+03  0.7818608E-02  0.1235078E+00
         -4   -1    0    0    0  501 -0.00000000000E+00  0.00000000000E+00  0.27618306894E+03  0.27618598891E+03  0.12700000000E+01 0.  1.
          4   -1    0    0  501    0  0.00000000000E+00 -0.00000000000E+00 -0.14110852776E+02  0.14167888554E+02  0.12700000000E+01 0.  1.
         25    2    1    2    0    0  0.00000000000E+00  0.00000000000E+00  0.26207221617E+03  0.29035387747E+03  0.12499411055E+03 0.  0.
    9000005    1    3    3    0    0  0.39340928788E+01 -0.24296508075E+02 -0.23881513779E+01  0.24748750644E+02  0.10000000000E+01 0.  0.
    9000005    1    3    3    0    0 -0.39340928788E+01  0.24296508075E+02  0.26446036755E+03  0.26560512682E+03  0.10000000000E+01 0.  0.
<mgrwt>
<rscale>  0 0.12499411E+03</rscale>
<asrwt>0</asrwt>
<pdfrwt beam="2">  1        4 0.21755124E-02 0.12499411E+03</pdfrwt>
<pdfrwt beam="1">  1       -4 0.42494315E-01 0.12499411E+03</pdfrwt>
<totfact> 0.76835034E+03</totfact>
</mgrwt>
</event>
<event>
 5    1  0.3183609E-002  0.1249619E+03  0.7818608E-02  0.1235129E+00
         -4   -1    0    0    0  501 -0.00000000000E+00  0.00000000000E+00  0.15356025912E+03  0.15356551071E+03  0.12700000000E+01 0.  1.
          4   -1    0    0  501    0  0.00000000000E+00 -0.00000000000E+00 -0.25400829327E+02  0.25432558474E+02  0.12700000000E+01 0.  1.
         25    2    1    2    0    0  0.00000000000E+00  0.00000000000E+00  0.12815942979E+03  0.17899806919E+03  0.12496187150E+03 0.  0.
    9000005    1    3    3    0    0  0.53550614235E+02 -0.17191524357E+02  0.10303659010E+03  0.11739146346E+03  0.10000000000E+01 0.  0.
    9000005    1    3    3    0    0 -0.53550614235E+02  0.17191524357E+02  0.25122839692E+02  0.61606605724E+02  0.10000000000E+01 0.  0.
<mgrwt>
<rscale>  0 0.12496187E+03</rscale>
<asrwt>0</asrwt>
<pdfrwt beam="2">  1        4 0.39106645E-02 0.12496187E+03</pdfrwt>
<pdfrwt beam="1">  1       -4 0.23627500E-01 0.12496187E+03</pdfrwt>
<totfact> 0.93877907E+03</totfact>
</mgrwt>
</event>
<event>
 5    1  0.3183609E-002  0.1250450E+03  0.7818608E-02  0.1234999E+00
          4   -1    0    0  501    0  0.00000000000E+00  0.00000000000E+00  0.23386724203E+03  0.23387069033E+03  0.12700000000E+01 0.  1.
         -4   -1    0    0    0  501 -0.00000000000E+00 -0.00000000000E+00 -0.16687180675E+02  0.16735438413E+02  0.12700000000E+01 0.  1.
         25    2    1    2    0    0  0.00000000000E+00  0.00000000000E+00  0.21718006135E+03  0.25060612874E+03  0.12504500275E+03 0.  0.
    9000005    1    3    3    0    0  0.38393441442E+02 -0.42547658087E+02  0.58538832218E+02  0.81927739087E+02  0.10000000000E+01 0.  0.
    9000005    1    3    3    0    0 -0.38393441442E+02  0.42547658087E+02  0.15864122914E+03  0.16867838965E+03  0.10000000000E+01 0.  0.
<mgrwt>
<rscale>  0 0.12504500E+03</rscale>
<asrwt>0</asrwt>
<pdfrwt beam="1">  1        4 0.35983550E-01 0.12504500E+03</pdfrwt>
<pdfrwt beam="2">  1       -4 0.25712362E-02 0.12504500E+03</pdfrwt>
<totfact> 0.82160314E+03</totfact>
</mgrwt>
</event>
<event>
 5    1  0.3183609E-002  0.1249997E+03  0.7818608E-02  0.1235070E+00
         -4   -1    0    0    0  501 -0.00000000000E+00  0.00000000000E+00  0.12842574686E+03  0.12843202621E+03  0.12700000000E+01 0.  1.
          4   -1    0    0  501    0  0.00000000000E+00 -0.00000000000E+00 -0.30395963767E+02  0.30422483682E+02  0.12700000000E+01 0.  1.
         25    2    1    2    0    0  0.00000000000E+00  0.00000000000E+00  0.98029783094E+02  0.15885450989E+03  0.12499966776E+03 0.  0.
    9000005    1    3    3    0    0  0.14659794831E+02  0.48694216267E+02  0.28571180580E+01  0.50943099689E+02  0.10000000000E+01 0.  0.
    9000005    1    3    3    0    0 -0.14659794831E+02 -0.48694216267E+02  0.95172665036E+02  0.10791141020E+03  0.10000000000E+01 0.  0.
<mgrwt>
<rscale>  0 0.12499967E+03</rscale>
<asrwt>0</asrwt>
<pdfrwt beam="2">  1        4 0.46788251E-02 0.12499967E+03</pdfrwt>
<pdfrwt beam="1">  1       -4 0.19760330E-01 0.12499967E+03</pdfrwt>
<totfact> 0.97564810E+03</totfact>
</mgrwt>
</event>
<event>
 5    1  0.3183609E-002  0.1250003E+03  0.7818608E-02  0.1235069E+00
          4   -1    0    0  501    0  0.00000000000E+00  0.00000000000E+00  0.38383468816E+02  0.38404473416E+02  0.12700000000E+01 0.  1.
         -4   -1    0    0    0  501 -0.00000000000E+00 -0.00000000000E+00 -0.10171671399E+03  0.10172464208E+03  0.12700000000E+01 0.  1.
         25    2    1    2    0    0  0.00000000000E+00  0.00000000000E+00 -0.63333245179E+02  0.14012911549E+03  0.12500027626E+03 0.  0.
    9000005    1    3    3    0    0  0.47480099813E+02  0.40615967833E+02 -0.30412999380E+02  0.69497965816E+02  0.10000000000E+01 0.  0.
    9000005    1    3    3    0    0 -0.47480099813E+02 -0.40615967833E+02 -0.32920245799E+02  0.70631149677E+02  0.10000000000E+01 0.  0.
<mgrwt>
<rscale>  0 0.12500028E+03</rscale>
<asrwt>0</asrwt>
<pdfrwt beam="1">  1        4 0.59073747E-02 0.12500028E+03</pdfrwt>
<pdfrwt beam="2">  1       -4 0.15650951E-01 0.12500028E+03</pdfrwt>
<totfact> 0.10130847E+04</totfact>
</mgrwt>
</event>
<event>
 5    1  0.3183609E-002  0.1249555E+03  0.7818608E-02  0.1235139E+00
          4   -1    0    0  501    0  0.00000000000E+00  0.00000000000E+00  0.34129360150E+02  0.34152981192E+02  0.12700000000E+01 0.  1.
         -4   -1    0    0    0  501 -0.00000000000E+00 -0.00000000000E+00 -0.11430607143E+03  0.11431312640E+03  0.12700000000E+01 0.  1.
         25    2    1    2    0    0  0.00000000000E+00  0.00000000000E+00 -0.80176711285E+02  0.14846610759E+03  0.12495551236E+03 0.  0.
    9000005    1    3    3    0    0 -0.28298904484E+00  0.15402201689E+02 -0.11201975307E+03  0.11307843728E+03  0.10000000000E+01 0.  0.
    9000005    1    3    3    0    0  0.28298904484E+00 -0.15402201689E+02  0.31843041787E+02  0.35387670309E+02  0.10000000000E+01 0.  0.
<mgrwt>
<rscale>  0 0.12495551E+03</rscale>
<asrwt>0</asrwt>
<pdfrwt beam="1">  1        4 0.52530306E-02 0.12495551E+03</pdfrwt>
<pdfrwt beam="2">  1       -4 0.17587909E-01 0.12495551E+03</pdfrwt>
<totfact> 0.99710154E+03</totfact>
</mgrwt>
</event>
<event>
 5    1  0.3183609E-002  0.1250024E+03  0.7818608E-02  0.1235066E+00
          4   -1    0    0  501    0  0.00000000000E+00  0.00000000000E+00  0.15427533707E+04  0.15427538935E+04  0.12700000000E+01 0.  1.
         -4   -1    0    0    0  501 -0.00000000000E+00 -0.00000000000E+00 -0.23722945996E+01  0.26908514762E+01  0.12700000000E+01 0.  1.
         25    2    1    2    0    0  0.00000000000E+00  0.00000000000E+00  0.15403810761E+04  0.15454447449E+04  0.12500239983E+03 0.  0.
    9000005    1    3    3    0    0  0.18438386372E+02 -0.52787783461E+02  0.42515070027E+03  0.42881306197E+03  0.10000000000E+01 0.  0.
    9000005    1    3    3    0    0 -0.18438386372E+02  0.52787783461E+02  0.11152303759E+04  0.11166316830E+04  0.10000000000E+01 0.  0.
<mgrwt>
<rscale>  0 0.12500240E+03</rscale>
<asrwt>0</asrwt>
<pdfrwt beam="1">  1        4 0.23737101E+00 0.12500240E+03</pdfrwt>
<pdfrwt beam="2">  1       -4 0.38951333E-03 0.12500240E+03</pdfrwt>
<totfact> 0.17053325E+03</totfact>
</mgrwt>
</event>
<event>
 5    1  0.3183609E-002  0.1250029E+03  0.7818608E-02  0.1235065E+00
          4   -1    0    0  501    0  0.00000000000E+00  0.00000000000E+00  0.11423918387E+04  0.11423925447E+04  0.12700000000E+01 0.  1.
         -4   -1    0    0    0  501 -0.00000000000E+00 -0.00000000000E+00 -0.33008682239E+01  0.35367543075E+01  0.12700000000E+01 0.  1.
         25    2    1    2    0    0  0.00000000000E+00  0.00000000000E+00  0.11390909705E+04  0.11459292990E+04  0.12500287655E+03 0.  0.
    9000005    1    3    3    0    0 -0.34394284508E+02 -0.51748267093E+02  0.63075332228E+03  0.63380722899E+03  0.10000000000E+01 0.  0.
    9000005    1    3    3    0    0  0.34394284508E+02  0.51748267093E+02  0.50833764824E+03  0.51212206999E+03  0.10000000000E+01 0.  0.
<mgrwt>
<rscale>  0 0.12500288E+03</rscale>
<asrwt>0</asrwt>
<pdfrwt beam="1">  1        4 0.17577075E+00 0.12500288E+03</pdfrwt>
<pdfrwt beam="2">  1       -4 0.52602537E-03 0.12500288E+03</pdfrwt>
<totfact> 0.26171813E+03</totfact>
</mgrwt>
</event>
<event>
 5    1  0.3183609E-002  0.1250029E+03  0.7818608E-02  0.1235065E+00
         -4   -1    0    0    0  501 -0.00000000000E+00  0.00000000000E+00  0.81248324251E+03  0.81248423509E+03  0.12700000000E+01 0. -1.
          4   -1    0    0  501    0  0.00000000000E+00 -0.00000000000E+00 -0.47231340075E+01  0.48908991866E+01  0.12700000000E+01 0. -1.
         25    2    1    2    0    0  0.00000000000E+00  0.00000000000E+00  0.80776010850E+03  0.81737513427E+03  0.12500286891E+03 0.  0.
    9000005    1    3    3    0    0 -0.19487754287E+02 -0.33417939756E+02  0.72481030151E+03  0.72584261686E+03  0.10000000000E+01 0.  0.
    9000005    1    3    3    0    0  0.19487754287E+02  0.33417939756E+02  0.82949806991E+02  0.91532517416E+02  0.10000000000E+01 0.  0.
<mgrwt>
<rscale>  0 0.12500287E+03</rscale>
<asrwt>0</asrwt>
<pdfrwt beam="2">  1        4 0.73961783E-03 0.12500287E+03</pdfrwt>
<pdfrwt beam="1">  1       -4 0.12501032E+00 0.12500287E+03</pdfrwt>
<totfact> 0.37498400E+03</totfact>
</mgrwt>
</event>
<event>
 5    1  0.3183609E-002  0.1249996E+03  0.7818608E-02  0.1235070E+00
          4   -1    0    0  501    0  0.00000000000E+00  0.00000000000E+00  0.14390369791E+03  0.14390930190E+03  0.12700000000E+01 0. -1.
         -4   -1    0    0    0  501 -0.00000000000E+00 -0.00000000000E+00 -0.27123710543E+02  0.27153426554E+02  0.12700000000E+01 0. -1.
         25    2    1    2    0    0  0.00000000000E+00  0.00000000000E+00  0.11677998737E+03  0.17106272845E+03  0.12499956646E+03 0.  0.
    9000005    1    3    3    0    0  0.25399361808E+02 -0.42035538917E+02  0.55098514851E+01  0.49431493764E+02  0.10000000000E+01 0.  0.
    9000005    1    3    3    0    0 -0.25399361808E+02  0.42035538917E+02  0.11127013588E+03  0.12163123469E+03  0.10000000000E+01 0.  0.
<mgrwt>
<rscale>  0 0.12499957E+03</rscale>
<asrwt>0</asrwt>
<pdfrwt beam="1">  1        4 0.22141748E-01 0.12499957E+03</pdfrwt>
<pdfrwt beam="2">  1       -4 0.41755954E-02 0.12499957E+03</pdfrwt>
<totfact> 0.95251855E+03</totfact>
</mgrwt>
</event>
<event>
 5    1  0.3183609E-002  0.1249984E+03  0.7818608E-02  0.1235072E+00
          4   -1    0    0  501    0  0.00000000000E+00  0.00000000000E+00  0.77248305073E+03  0.77248409470E+03  0.12700000000E+01 0. -1.
         -4   -1    0    0    0  501 -0.00000000000E+00 -0.00000000000E+00 -0.49758065210E+01  0.51353238003E+01  0.12700000000E+01 0. -1.
         25    2    1    2    0    0  0.00000000000E+00  0.00000000000E+00  0.76750724421E+03  0.77761941850E+03  0.12499836045E+03 0.  0.
    9000005    1    3    3    0    0  0.21697849023E+02 -0.58073018560E+02  0.43268886660E+03  0.43710859911E+03  0.10000000000E+01 0.  0.
    9000005    1    3    3    0    0 -0.21697849023E+02  0.58073018560E+02  0.33481837761E+03  0.34051081939E+03  0.10000000000E+01 0.  0.
<mgrwt>
<rscale>  0 0.12499836E+03</rscale>
<asrwt>0</asrwt>
<pdfrwt beam="1">  1        4 0.11885579E+00 0.12499836E+03</pdfrwt>
<pdfrwt beam="2">  1       -4 0.77786024E-03 0.12499836E+03</pdfrwt>
<totfact> 0.39285019E+03</totfact>
</mgrwt>
</event>
<event>
 5    1  0.3183609E-002  0.1250015E+03  0.7818608E-02  0.1235067E+00
         -4   -1    0    0    0  501 -0.00000000000E+00  0.00000000000E+00  0.15485631252E+03  0.15486152016E+03  0.12700000000E+01 0. -1.
          4   -1    0    0  501    0  0.00000000000E+00 -0.00000000000E+00 -0.25203964058E+02  0.25235940724E+02  0.12700000000E+01 0. -1.
         25    2    1    2    0    0  0.00000000000E+00  0.00000000000E+00  0.12965234846E+03  0.18009746088E+03  0.12500145582E+03 0.  0.
    9000005    1    3    3    0    0  0.32895724692E+02  0.32619329777E+02  0.12525568685E+03  0.13355199911E+03  0.10000000000E+01 0.  0.
    9000005    1    3    3    0    0 -0.32895724692E+02 -0.32619329777E+02  0.43966616048E+01  0.46545461770E+02  0.10000000000E+01 0.  0.
<mgrwt>
<rscale>  0 0.12500146E+03</rscale>
<asrwt>0</asrwt>
<pdfrwt beam="2">  1        4 0.38803932E-02 0.12500146E+03</pdfrwt>
<pdfrwt beam="1">  1       -4 0.23826909E-01 0.12500146E+03</pdfrwt>
<totfact> 0.93596407E+03</totfact>
</mgrwt>
</event>
<event>
 5    1  0.3183609E-002  0.1249981E+03  0.7818608E-02  0.1235072E+00
          4   -1    0    0  501    0  0.00000000000E+00  0.00000000000E+00  0.87240728502E+02  0.87249971975E+02  0.12700000000E+01 0. -1.
         -4   -1    0    0    0  501 -0.00000000000E+00 -0.00000000000E+00 -0.44753577037E+02  0.44771593199E+02  0.12700000000E+01 0. -1.
         25    2    1    2    0    0  0.00000000000E+00  0.00000000000E+00  0.42487151465E+02  0.13202156517E+03  0.12499814251E+03 0.  0.
    9000005    1    3    3    0    0  0.11303939482E+02  0.39030604350E+02 -0.28899973843E+02  0.49873596340E+02  0.10000000000E+01 0.  0.
    9000005    1    3    3    0    0 -0.11303939482E+02 -0.39030604350E+02  0.71387125309E+02  0.82147968834E+02  0.10000000000E+01 0.  0.
<mgrwt>
<rscale>  0 0.12499814E+03</rscale>
<asrwt>0</asrwt>
<pdfrwt beam="1">  1        4 0.13423747E-01 0.12499814E+03</pdfrwt>
<pdfrwt beam="2">  1       -4 0.68872627E-02 0.12499814E+03</pdfrwt>
<totfact> 0.10301670E+04</totfact>
</mgrwt>
</event>
<event>
 5    1  0.3183609E-002  0.1249969E+03  0.7818608E-02  0.1235074E+00
         -4   -1    0    0    0  501 -0.00000000000E+00  0.00000000000E+00  0.20778303734E+03  0.20778691852E+03  0.12700000000E+01 0. -1.
          4   -1    0    0  501    0  0.00000000000E+00 -0.00000000000E+00 -0.18773202038E+02  0.18816110511E+02  0.12700000000E+01 0. -1.
         25    2    1    2    0    0  0.00000000000E+00  0.00000000000E+00  0.18900983530E+03  0.22660302903E+03  0.12499685965E+03 0.  0.
    9000005    1    3    3    0    0 -0.39633076130E+02 -0.46944875553E+02  0.11521068951E+03  0.13057222155E+03  0.10000000000E+01 0.  0.
    9000005    1    3    3    0    0  0.39633076130E+02  0.46944875553E+02  0.73799145794E+02  0.96030807474E+02  0.10000000000E+01 0.  0.
<mgrwt>
<rscale>  0 0.12499686E+03</rscale>
<asrwt>0</asrwt>
<pdfrwt beam="2">  1        4 0.28917843E-02 0.12499686E+03</pdfrwt>
<pdfrwt beam="1">  1       -4 0.31970218E-01 0.12499686E+03</pdfrwt>
<totfact> 0.85839966E+03</totfact>
</mgrwt>
</event>
<event>
 5    1  0.3183609E-002  0.1249971E+03  0.7818608E-02  0.1235074E+00
          4   -1    0    0  501    0  0.00000000000E+00  0.00000000000E+00  0.30655014548E+02  0.30681310548E+02  0.12700000000E+01 0.  1.
         -4   -1    0    0    0  501 -0.00000000000E+00 -0.00000000000E+00 -0.12733610907E+03  0.12734244215E+03  0.12700000000E+01 0.  1.
         25    2    1    2    0    0  0.00000000000E+00  0.00000000000E+00 -0.96681094520E+02  0.15802375270E+03  0.12499708948E+03 0.  0.
    9000005    1    3    3    0    0  0.43834796419E+02  0.43395302835E+02 -0.35671427595E+02  0.71260735555E+02  0.10000000000E+01 0.  0.
    9000005    1    3    3    0    0 -0.43834796419E+02 -0.43395302835E+02 -0.61009666925E+02  0.86763017142E+02  0.10000000000E+01 0.  0.
<mgrwt>
<rscale>  0 0.12499709E+03</rscale>
<asrwt>0</asrwt>
<pdfrwt beam="1">  1        4 0.47186661E-02 0.12499709E+03</pdfrwt>
<pdfrwt beam="2">  1       -4 0.19592680E-01 0.12499709E+03</pdfrwt>
<totfact> 0.97731543E+03</totfact>
</mgrwt>
</event>
<event>
 5    1  0.3183609E-002  0.1250021E+03  0.7818608E-02  0.1235066E+00
          4   -1    0    0  501    0  0.00000000000E+00  0.00000000000E+00  0.41352425483E+01  0.43258676509E+01  0.12700000000E+01 0.  1.
         -4   -1    0    0    0  501 -0.00000000000E+00 -0.00000000000E+00 -0.92318246987E+03  0.92318334342E+03  0.12700000000E+01 0.  1.
         25    2    1    2    0    0  0.00000000000E+00  0.00000000000E+00 -0.91904722732E+03  0.92750921107E+03  0.12500212231E+03 0.  0.
    9000005    1    3    3    0    0  0.32051280634E+01  0.50490712475E+02 -0.18732196949E+03  0.19403635007E+03  0.10000000000E+01 0.  0.
    9000005    1    3    3    0    0 -0.32051280634E+01 -0.50490712475E+02 -0.73172525782E+03  0.73347286100E+03  0.10000000000E+01 0.  0.
<mgrwt>
<rscale>  0 0.12500212E+03</rscale>
<asrwt>0</asrwt>
<pdfrwt beam="1">  1        4 0.65092256E-03 0.12500212E+03</pdfrwt>
<pdfrwt beam="2">  1       -4 0.14204264E+00 0.12500212E+03</pdfrwt>
<totfact> 0.33126681E+03</totfact>
</mgrwt>
</event>
<event>
 5    1  0.3183609E-002  0.1249997E+03  0.7818608E-02  0.1235070E+00
          4   -1    0    0  501    0  0.00000000000E+00  0.00000000000E+00  0.11192360910E+02  0.11264184069E+02  0.12700000000E+01 0. -1.
         -4   -1    0    0    0  501 -0.00000000000E+00 -0.00000000000E+00 -0.34781920222E+03  0.34782152080E+03  0.12700000000E+01 0. -1.
         25    2    1    2    0    0  0.00000000000E+00  0.00000000000E+00 -0.33662684131E+03  0.35908570487E+03  0.12499965261E+03 0.  0.
    9000005    1    3    3    0    0  0.44485554969E+01  0.61963502030E+02 -0.14883768960E+03  0.16128522274E+03  0.10000000000E+01 0.  0.
    9000005    1    3    3    0    0 -0.44485554969E+01 -0.61963502030E+02 -0.18778915172E+03  0.19780048213E+03  0.10000000000E+01 0.  0.
<mgrwt>
<rscale>  0 0.12499965E+03</rscale>
<asrwt>0</asrwt>
<pdfrwt beam="1">  1        4 0.17276052E-02 0.12499965E+03</pdfrwt>
<pdfrwt beam="2">  1       -4 0.53516341E-01 0.12499965E+03</pdfrwt>
<totfact> 0.68736980E+03</totfact>
</mgrwt>
</event>
<event>
 5    1  0.3183609E-002  0.1250009E+03  0.7818608E-02  0.1235068E+00
          4   -1    0    0  501    0  0.00000000000E+00  0.00000000000E+00  0.97161714701E+01  0.97988207472E+01  0.12700000000E+01 0.  1.
         -4   -1    0    0    0  501 -0.00000000000E+00 -0.00000000000E+00 -0.40025559517E+03  0.40025761000E+03  0.12700000000E+01 0.  1.
         25    2    1    2    0    0  0.00000000000E+00  0.00000000000E+00 -0.39053942370E+03  0.41005643075E+03  0.12500093974E+03 0.  0.
    9000005    1    3    3    0    0  0.69025007861E+01  0.57717833048E+02 -0.27052787620E+03  0.27670439926E+03  0.10000000000E+01 0.  0.
    9000005    1    3    3    0    0 -0.69025007861E+01 -0.57717833048E+02 -0.12001154750E+03  0.13335203149E+03  0.10000000000E+01 0.  0.
<mgrwt>
<rscale>  0 0.12500094E+03</rscale>
<asrwt>0</asrwt>
<pdfrwt beam="1">  1        4 0.15013085E-02 0.12500094E+03</pdfrwt>
<pdfrwt beam="2">  1       -4 0.61584284E-01 0.12500094E+03</pdfrwt>
<totfact> 0.63585012E+03</totfact>
</mgrwt>
</event>
<event>
 5    1  0.3183609E-002  0.1250025E+03  0.7818608E-02  0.1235065E+00
          4   -1    0    0  501    0  0.00000000000E+00  0.00000000000E+00  0.25465094372E+02  0.25496743545E+02  0.12700000000E+01 0. -1.
         -4   -1    0    0    0  501 -0.00000000000E+00 -0.00000000000E+00 -0.15327287192E+03  0.15327813336E+03  0.12700000000E+01 0. -1.
         25    2    1    2    0    0  0.00000000000E+00  0.00000000000E+00 -0.12780777755E+03  0.17877487691E+03  0.12500251442E+03 0.  0.
    9000005    1    3    3    0    0 -0.55410280254E+02  0.27606428302E+02 -0.76122692165E+02  0.98122771587E+02  0.10000000000E+01 0.  0.
    9000005    1    3    3    0    0  0.55410280254E+02 -0.27606428302E+02 -0.51685085384E+02  0.80652105321E+02  0.10000000000E+01 0.  0.
<mgrwt>
<rscale>  0 0.12500251E+03</rscale>
<asrwt>0</asrwt>
<pdfrwt beam="1">  1        4 0.39205462E-02 0.12500251E+03</pdfrwt>
<pdfrwt beam="2">  1       -4 0.23583281E-01 0.12500251E+03</pdfrwt>
<totfact> 0.93832705E+03</totfact>
</mgrwt>
</event>
<event>
 5    1  0.3183609E-002  0.1249985E+03  0.7818608E-02  0.1235072E+00
          4   -1    0    0  501    0  0.00000000000E+00  0.00000000000E+00  0.29406416301E+03  0.29406690542E+03  0.12700000000E+01 0. -1.
         -4   -1    0    0    0  501 -0.00000000000E+00 -0.00000000000E+00 -0.13250172681E+02  0.13310896892E+02  0.12700000000E+01 0. -1.
         25    2    1    2    0    0  0.00000000000E+00  0.00000000000E+00  0.28081399033E+03  0.30737780232E+03  0.12499846476E+03 0.  0.
    9000005    1    3    3    0    0 -0.23840501296E+02  0.54327766888E+02  0.18867452699E+03  0.19778511798E+03  0.10000000000E+01 0.  0.
    9000005    1    3    3    0    0  0.23840501296E+02 -0.54327766888E+02  0.92139463332E+02  0.10959268434E+03  0.10000000000E+01 0.  0.
<mgrwt>
<rscale>  0 0.12499846E+03</rscale>
<asrwt>0</asrwt>
<pdfrwt beam="1">  1        4 0.45245520E-01 0.12499846E+03</pdfrwt>
<pdfrwt beam="2">  1       -4 0.20433703E-02 0.12499846E+03</pdfrwt>
<totfact> 0.74685148E+03</totfact>
</mgrwt>
</event>
<event>
 5    1  0.3183609E-002  0.1249971E+03  0.7818608E-02  0.1235074E+00
          4   -1    0    0  501    0  0.00000000000E+00  0.00000000000E+00  0.11683281704E+02  0.11752104977E+02  0.12700000000E+01 0.  1.
         -4   -1    0    0    0  501 -0.00000000000E+00 -0.00000000000E+00 -0.33327805132E+03  0.33328047107E+03  0.12700000000E+01 0.  1.
         25    2    1    2    0    0  0.00000000000E+00  0.00000000000E+00 -0.32159476962E+03  0.34503257604E+03  0.12499713070E+03 0.  0.
    9000005    1    3    3    0    0 -0.30002384026E+02  0.74174409040E+01 -0.31071904419E+03  0.31225388051E+03  0.10000000000E+01 0.  0.
    9000005    1    3    3    0    0  0.30002384026E+02 -0.74174409040E+01 -0.10875725434E+02  0.32778695528E+02  0.10000000000E+01 0.  0.
<mgrwt>
<rscale>  0 0.12499713E+03</rscale>
<asrwt>0</asrwt>
<pdfrwt beam="1">  1        4 0.18029084E-02 0.12499713E+03</pdfrwt>
<pdfrwt beam="2">  1       -4 0.51279019E-01 0.12499713E+03</pdfrwt>
<totfact> 0.70278979E+03</totfact>
</mgrwt>
</event>
<event>
 5    1  0.3183609E-002  0.1249996E+03  0.7818608E-02  0.1235070E+00
         -4   -1    0    0    0  501 -0.00000000000E+00  0.00000000000E+00  0.52567027952E+03  0.52567181365E+03  0.12700000000E+01 0.  1.
          4   -1    0    0  501    0  0.00000000000E+00 -0.00000000000E+00 -0.73751246597E+01  0.74836731453E+01  0.12700000000E+01 0.  1.
         25    2    1    2    0    0  0.00000000000E+00  0.00000000000E+00  0.51829515486E+03  0.53315548680E+03  0.12499962221E+03 0.  0.
    9000005    1    3    3    0    0 -0.45635747999E+02 -0.28214503609E+02  0.39580541166E+03  0.39942659352E+03  0.10000000000E+01 0.  0.
    9000005    1    3    3    0    0  0.45635747999E+02  0.28214503609E+02  0.12248974320E+03  0.13372889328E+03  0.10000000000E+01 0.  0.
<mgrwt>
<rscale>  0 0.12499962E+03</rscale>
<asrwt>0</asrwt>
<pdfrwt beam="2">  1        4 0.11431023E-02 0.12499962E+03</pdfrwt>
<pdfrwt beam="1">  1       -4 0.80880829E-01 0.12499962E+03</pdfrwt>
<totfact> 0.53381086E+03</totfact>
</mgrwt>
</event>
<event>
 5    1  0.3183609E-002  0.1250143E+03  0.7818608E-02  0.1235047E+00
          4   -1    0    0  501    0  0.00000000000E+00  0.00000000000E+00  0.25852464353E+02  0.25883639874E+02  0.12700000000E+01 0. -1.
         -4   -1    0    0    0  501 -0.00000000000E+00 -0.00000000000E+00 -0.15100734502E+03  0.15101268539E+03  0.12700000000E+01 0. -1.
         25    2    1    2    0    0  0.00000000000E+00  0.00000000000E+00 -0.12515488066E+03  0.17689632526E+03  0.12501426214E+03 0.  0.
    9000005    1    3    3    0    0  0.16236008588E+01  0.58122720839E+02 -0.30147644578E+02  0.65503948210E+02  0.10000000000E+01 0.  0.
    9000005    1    3    3    0    0 -0.16236008588E+01 -0.58122720839E+02 -0.95007236084E+02  0.11139237705E+03  0.10000000000E+01 0.  0.
<mgrwt>
<rscale>  0 0.12501426E+03</rscale>
<asrwt>0</asrwt>
<pdfrwt beam="1">  1        4 0.39801112E-02 0.12501426E+03</pdfrwt>
<pdfrwt beam="2">  1       -4 0.23234708E-01 0.12501426E+03</pdfrwt>
<totfact> 0.94148557E+03</totfact>
</mgrwt>
</event>
<event>
 5    1  0.3183609E-002  0.1250031E+03  0.7818608E-02  0.1235064E+00
         -4   -1    0    0    0  501 -0.00000000000E+00  0.00000000000E+00  0.50210053026E+02  0.50226111982E+02  0.12700000000E+01 0. -1.
          4   -1    0    0  501    0  0.00000000000E+00 -0.00000000000E+00 -0.77768374341E+02  0.77778743546E+02  0.12700000000E+01 0. -1.
         25    2    1    2    0    0  0.00000000000E+00  0.00000000000E+00 -0.27558321316E+02  0.12800485553E+03  0.12500312782E+03 0.  0.
    9000005    1    3    3    0    0 -0.26035030825E+02 -0.40032763471E+02  0.27500138439E+02  0.55115357164E+02  0.10000000000E+01 0.  0.
    9000005    1    3    3    0    0  0.26035030825E+02  0.40032763471E+02 -0.55058459755E+02  0.72889498364E+02  0.10000000000E+01 0.  0.
<mgrwt>
<rscale>  0 0.12500313E+03</rscale>
<asrwt>0</asrwt>
<pdfrwt beam="2">  1        4 0.11966398E-01 0.12500313E+03</pdfrwt>
<pdfrwt beam="1">  1       -4 0.77266565E-02 0.12500313E+03</pdfrwt>
<totfact> 0.10386649E+04</totfact>
</mgrwt>
</event>
<event>
 5    1  0.3183609E-002  0.1249771E+03  0.7818608E-02  0.1235105E+00
         -4   -1    0    0    0  501 -0.00000000000E+00  0.00000000000E+00  0.10638929769E+04  0.10638937349E+04  0.12700000000E+01 0.  1.
          4   -1    0    0  501    0  0.00000000000E+00 -0.00000000000E+00 -0.35596655512E+01  0.37794336661E+01  0.12700000000E+01 0.  1.
         25    2    1    2    0    0  0.00000000000E+00  0.00000000000E+00  0.10603333113E+04  0.10676731686E+04  0.12497705292E+03 0.  0.
    9000005    1    3    3    0    0 -0.20429163728E+02  0.37843559934E+02  0.91737363121E+03  0.91838165542E+03  0.10000000000E+01 0.  0.
    9000005    1    3    3    0    0  0.20429163728E+02 -0.37843559934E+02  0.14295968011E+03  0.14929151314E+03  0.10000000000E+01 0.  0.
<mgrwt>
<rscale>  0 0.12497705E+03</rscale>
<asrwt>0</asrwt>
<pdfrwt beam="2">  1        4 0.56460424E-03 0.12497705E+03</pdfrwt>
<pdfrwt beam="1">  1       -4 0.16369285E+00 0.12497705E+03</pdfrwt>
<totfact> 0.28463534E+03</totfact>
</mgrwt>
</event>
<event>
 5    1  0.3183609E-002  0.1249979E+03  0.7818608E-02  0.1235073E+00
          4   -1    0    0  501    0  0.00000000000E+00  0.00000000000E+00  0.49863821233E+03  0.49863982963E+03  0.12700000000E+01 0. -1.
         -4   -1    0    0    0  501 -0.00000000000E+00 -0.00000000000E+00 -0.77804597920E+01  0.78834291127E+01  0.12700000000E+01 0. -1.
         25    2    1    2    0    0  0.00000000000E+00  0.00000000000E+00  0.49085775253E+03  0.50652325874E+03  0.12499791367E+03 0.  0.
    9000005    1    3    3    0    0  0.39593698437E+02 -0.41087242398E+02  0.34868560932E+03  0.35332488816E+03  0.10000000000E+01 0.  0.
    9000005    1    3    3    0    0 -0.39593698437E+02  0.41087242398E+02  0.14217214321E+03  0.15319837059E+03  0.10000000000E+01 0.  0.
<mgrwt>
<rscale>  0 0.12499791E+03</rscale>
<asrwt>0</asrwt>
<pdfrwt beam="1">  1        4 0.76721579E-01 0.12499791E+03</pdfrwt>
<pdfrwt beam="2">  1       -4 0.12050395E-02 0.12499791E+03</pdfrwt>
<totfact> 0.55364327E+03</totfact>
</mgrwt>
</event>
<event>
 5    1  0.3183609E-002  0.1250011E+03  0.7818608E-02  0.1235068E+00
          4   -1    0    0  501    0  0.00000000000E+00  0.00000000000E+00  0.42347324308E+03  0.42347514745E+03  0.12700000000E+01 0.  1.
         -4   -1    0    0    0  501 -0.00000000000E+00 -0.00000000000E+00 -0.91788326109E+01  0.92662758484E+01  0.12700000000E+01 0.  1.
         25    2    1    2    0    0  0.00000000000E+00  0.00000000000E+00  0.41429441047E+03  0.43274142330E+03  0.12500112355E+03 0.  0.
    9000005    1    3    3    0    0  0.65979357747E+01  0.55804405218E+02  0.11248744221E+03  0.12574612938E+03  0.10000000000E+01 0.  0.
    9000005    1    3    3    0    0 -0.65979357747E+01 -0.55804405218E+02  0.30180696826E+03  0.30699529392E+03  0.10000000000E+01 0.  0.
<mgrwt>
<rscale>  0 0.12500112E+03</rscale>
<asrwt>0</asrwt>
<pdfrwt beam="1">  1        4 0.65156590E-01 0.12500112E+03</pdfrwt>
<pdfrwt beam="2">  1       -4 0.14190013E-02 0.12500112E+03</pdfrwt>
<totfact> 0.61486764E+03</totfact>
</mgrwt>
</event>
<event>
 5    1  0.3183609E-002  0.1250007E+03  0.7818608E-02  0.1235068E+00
         -4   -1    0    0    0  501 -0.00000000000E+00  0.00000000000E+00  0.17325710118E+03  0.17326175576E+03  0.12700000000E+01 0.  1.
          4   -1    0    0  501    0  0.00000000000E+00 -0.00000000000E+00 -0.22523368623E+02  0.22559145244E+02  0.12700000000E+01 0.  1.
         25    2    1    2    0    0  0.00000000000E+00  0.00000000000E+00  0.15073373255E+03  0.19582090100E+03  0.12500066855E+03 0.  0.
    9000005    1    3    3    0    0  0.56910597636E+02  0.10954481573E+02  0.38745726573E+02  0.69721217125E+02  0.10000000000E+01 0.  0.
    9000005    1    3    3    0    0 -0.56910597636E+02 -0.10954481573E+02  0.11198800598E+03  0.12609968387E+03  0.10000000000E+01 0.  0.
<mgrwt>
<rscale>  0 0.12500067E+03</rscale>
<asrwt>0</asrwt>
<pdfrwt beam="2">  1        4 0.34682438E-02 0.12500067E+03</pdfrwt>
<pdfrwt beam="1">  1       -4 0.26658048E-01 0.12500067E+03</pdfrwt>
<totfact> 0.90842886E+03</totfact>
</mgrwt>
</event>
<event>
 5    1  0.3183609E-002  0.1250031E+03  0.7818608E-02  0.1235064E+00
         -4   -1    0    0    0  501 -0.00000000000E+00  0.00000000000E+00  0.10807042277E+04  0.10807049739E+04  0.12700000000E+01 0. -1.
          4   -1    0    0  501    0  0.00000000000E+00 -0.00000000000E+00 -0.35023979546E+01  0.37255457899E+01  0.12700000000E+01 0. -1.
         25    2    1    2    0    0  0.00000000000E+00  0.00000000000E+00  0.10772018298E+04  0.10844305197E+04  0.12500308030E+03 0.  0.
    9000005    1    3    3    0    0  0.21399750171E+02 -0.27000147615E+02  0.86282252725E+02  0.92911702244E+02  0.10000000000E+01 0.  0.
    9000005    1    3    3    0    0 -0.21399750171E+02  0.27000147615E+02  0.99091957703E+03  0.99151881749E+03  0.10000000000E+01 0.  0.
<mgrwt>
<rscale>  0 0.12500308E+03</rscale>
<asrwt>0</asrwt>
<pdfrwt beam="2">  1        4 0.55605292E-03 0.12500308E+03</pdfrwt>
<pdfrwt beam="1">  1       -4 0.16627946E+00 0.12500308E+03</pdfrwt>
<totfact> 0.27941700E+03</totfact>
</mgrwt>
</event>
<event>
 5    1  0.3183609E-002  0.1249987E+03  0.7818608E-02  0.1235071E+00
          4   -1    0    0  501    0  0.00000000000E+00  0.00000000000E+00  0.10690467799E+04  0.10690475343E+04  0.12700000000E+01 0. -1.
         -4   -1    0    0    0  501 -0.00000000000E+00 -0.00000000000E+00 -0.35427472923E+01  0.37635034711E+01  0.12700000000E+01 0. -1.
         25    2    1    2    0    0  0.00000000000E+00  0.00000000000E+00  0.10655040327E+04  0.10728110378E+04  0.12499871672E+03 0.  0.
    9000005    1    3    3    0    0  0.26129006364E+02  0.56624139948E+02  0.56724457540E+03  0.57066314628E+03  0.10000000000E+01 0.  0.
    9000005    1    3    3    0    0 -0.26129006364E+02 -0.56624139948E+02  0.49825945726E+03  0.50214789151E+03  0.10000000000E+01 0.  0.
<mgrwt>
<rscale>  0 0.12499872E+03</rscale>
<asrwt>0</asrwt>
<pdfrwt beam="1">  1        4 0.16448617E+00 0.12499872E+03</pdfrwt>
<pdfrwt beam="2">  1       -4 0.56207598E-03 0.12499872E+03</pdfrwt>
<totfact> 0.28293790E+03</totfact>
</mgrwt>
</event>
<event>
 5    1  0.3183609E-002  0.1249968E+03  0.7818608E-02  0.1235074E+00
          4   -1    0    0  501    0  0.00000000000E+00  0.00000000000E+00  0.25328735377E+02  0.25360554722E+02  0.12700000000E+01 0. -1.
         -4   -1    0    0    0  501 -0.00000000000E+00 -0.00000000000E+00 -0.15408294918E+03  0.15408818296E+03  0.12700000000E+01 0. -1.
         25    2    1    2    0    0  0.00000000000E+00  0.00000000000E+00 -0.12875421380E+03  0.17944873768E+03  0.12499680749E+03 0.  0.
    9000005    1    3    3    0    0 -0.59531067243E+02 -0.17069199026E+02 -0.76366518372E+02  0.98326754501E+02  0.10000000000E+01 0.  0.
    9000005    1    3    3    0    0  0.59531067243E+02  0.17069199026E+02 -0.52387695428E+02  0.81121983178E+02  0.10000000000E+01 0.  0.
<mgrwt>
<rscale>  0 0.12499681E+03</rscale>
<asrwt>0</asrwt>
<pdfrwt beam="1">  1        4 0.38995789E-02 0.12499681E+03</pdfrwt>
<pdfrwt beam="2">  1       -4 0.23707919E-01 0.12499681E+03</pdfrwt>
<totfact> 0.93723036E+03</totfact>
</mgrwt>
</event>
<event>
 5    1  0.3183609E-002  0.1249996E+03  0.7818608E-02  0.1235070E+00
          4   -1    0    0  501    0  0.00000000000E+00  0.00000000000E+00  0.66925098763E+02  0.66937147717E+02  0.12700000000E+01 0.  1.
         -4   -1    0    0    0  501 -0.00000000000E+00 -0.00000000000E+00 -0.58342857032E+02  0.58356677995E+02  0.12700000000E+01 0.  1.
         25    2    1    2    0    0  0.00000000000E+00  0.00000000000E+00  0.85822417316E+01  0.12529382571E+03  0.12499955155E+03 0.  0.
    9000005    1    3    3    0    0  0.70919993432E+01 -0.41292540260E+02 -0.42184527814E+02  0.59463473853E+02  0.10000000000E+01 0.  0.
    9000005    1    3    3    0    0 -0.70919993432E+01  0.41292540260E+02  0.50766769546E+02  0.65830351859E+02  0.10000000000E+01 0.  0.
<mgrwt>
<rscale>  0 0.12499955E+03</rscale>
<asrwt>0</asrwt>
<pdfrwt beam="1">  1        4 0.10298159E-01 0.12499955E+03</pdfrwt>
<pdfrwt beam="2">  1       -4 0.89778142E-02 0.12499955E+03</pdfrwt>
<totfact> 0.10446590E+04</totfact>
</mgrwt>
</event>
<event>
 5    1  0.3183609E-002  0.1250014E+03  0.7818608E-02  0.1235067E+00
         -4   -1    0    0    0  501 -0.00000000000E+00  0.00000000000E+00  0.53707814048E+02  0.53722827456E+02  0.12700000000E+01 0.  1.
          4   -1    0    0  501    0  0.00000000000E+00 -0.00000000000E+00 -0.72702355182E+02  0.72713446824E+02  0.12700000000E+01 0.  1.
         25    2    1    2    0    0  0.00000000000E+00  0.00000000000E+00 -0.18994541133E+02  0.12643627428E+03  0.12500135544E+03 0.  0.
    9000005    1    3    3    0    0  0.45395100135E+02  0.31542310898E+02 -0.38981538199E+02  0.67647563248E+02  0.10000000000E+01 0.  0.
    9000005    1    3    3    0    0 -0.45395100135E+02 -0.31542310898E+02  0.19986997066E+02  0.58788711031E+02  0.10000000000E+01 0.  0.
<mgrwt>
<rscale>  0 0.12500136E+03</rscale>
<asrwt>0</asrwt>
<pdfrwt beam="2">  1        4 0.11186986E-01 0.12500136E+03</pdfrwt>
<pdfrwt beam="1">  1       -4 0.82647487E-02 0.12500136E+03</pdfrwt>
<totfact> 0.10421099E+04</totfact>
</mgrwt>
</event>
<event>
 5    1  0.3183609E-002  0.1250006E+03  0.7818608E-02  0.1235068E+00
         -4   -1    0    0    0  501 -0.00000000000E+00  0.00000000000E+00  0.64346280563E+01  0.65587604182E+01  0.12700000000E+01 0. -1.
          4   -1    0    0  501    0  0.00000000000E+00 -0.00000000000E+00 -0.60114787932E+03  0.60114922084E+03  0.12700000000E+01 0. -1.
         25    2    1    2    0    0  0.00000000000E+00  0.00000000000E+00 -0.59471325126E+03  0.60770798125E+03  0.12500055700E+03 0.  0.
    9000005    1    3    3    0    0  0.17889963785E+02 -0.17353766596E+02 -0.57596226849E+03  0.57650215849E+03  0.10000000000E+01 0.  0.
    9000005    1    3    3    0    0 -0.17889963785E+02  0.17353766596E+02 -0.18750982771E+02  0.31205822761E+02  0.10000000000E+01 0.  0.
<mgrwt>
<rscale>  0 0.12500056E+03</rscale>
<asrwt>0</asrwt>
<pdfrwt beam="2">  1        4 0.92493897E-01 0.12500056E+03</pdfrwt>
<pdfrwt beam="1">  1       -4 0.99959509E-03 0.12500056E+03</pdfrwt>
<totfact> 0.48384074E+03</totfact>
</mgrwt>
</event>
<event>
 5    1  0.3183609E-002  0.1249974E+03  0.7818608E-02  0.1235073E+00
          4   -1    0    0  501    0  0.00000000000E+00  0.00000000000E+00  0.93603805088E+02  0.93612420260E+02  0.12700000000E+01 0.  1.
         -4   -1    0    0    0  501 -0.00000000000E+00 -0.00000000000E+00 -0.41709784504E+02  0.41729114816E+02  0.12700000000E+01 0.  1.
         25    2    1    2    0    0  0.00000000000E+00  0.00000000000E+00  0.51894020584E+02  0.13534153508E+03  0.12499736695E+03 0.  0.
    9000005    1    3    3    0    0  0.55474682438E+02 -0.11405009157E+02  0.54544267603E+02  0.78635817245E+02  0.10000000000E+01 0.  0.
    9000005    1    3    3    0    0 -0.55474682438E+02  0.11405009157E+02 -0.26502470190E+01  0.56705717831E+02  0.10000000000E+01 0.  0.
<mgrwt>
<rscale>  0 0.12499737E+03</rscale>
<asrwt>0</asrwt>
<pdfrwt beam="1">  1        4 0.14402735E-01 0.12499737E+03</pdfrwt>
<pdfrwt beam="2">  1       -4 0.64190396E-02 0.12499737E+03</pdfrwt>
<totfact> 0.10231485E+04</totfact>
</mgrwt>
</event>
<event>
 5    1  0.3183609E-002  0.1250017E+03  0.7818608E-02  0.1235067E+00
         -4   -1    0    0    0  501 -0.00000000000E+00  0.00000000000E+00  0.79331884407E+01  0.80342005723E+01  0.12700000000E+01 0.  1.
          4   -1    0    0  501    0  0.00000000000E+00 -0.00000000000E+00 -0.48919004321E+03  0.48919169175E+03  0.12700000000E+01 0.  1.
         25    2    1    2    0    0  0.00000000000E+00  0.00000000000E+00 -0.48125685477E+03  0.49722589232E+03  0.12500171092E+03 0.  0.
    9000005    1    3    3    0    0  0.51221649162E+02 -0.26271485929E+01 -0.98605516127E+02  0.11115128008E+03  0.10000000000E+01 0.  0.
    9000005    1    3    3    0    0 -0.51221649162E+02  0.26271485929E+01 -0.38265133864E+03  0.38607461224E+03  0.10000000000E+01 0.  0.
<mgrwt>
<rscale>  0 0.12500171E+03</rscale>
<asrwt>0</asrwt>
<pdfrwt beam="2">  1        4 0.75267880E-01 0.12500171E+03</pdfrwt>
<pdfrwt beam="1">  1       -4 0.12283879E-02 0.12500171E+03</pdfrwt>
<totfact> 0.56078147E+03</totfact>
</mgrwt>
</event>
<event>
 5    1  0.3183609E-002  0.1250013E+03  0.7818608E-02  0.1235067E+00
         -4   -1    0    0    0  501 -0.00000000000E+00  0.00000000000E+00  0.24346803005E+02  0.24379903949E+02  0.12700000000E+01 0. -1.
          4   -1    0    0  501    0  0.00000000000E+00 -0.00000000000E+00 -0.16030083258E+03  0.16030586335E+03  0.12700000000E+01 0. -1.
         25    2    1    2    0    0  0.00000000000E+00  0.00000000000E+00 -0.13595402957E+03  0.18468576730E+03  0.12500133794E+03 0.  0.
    9000005    1    3    3    0    0 -0.49201116951E+02  0.24222996001E+02 -0.11224766146E+03  0.12493214537E+03  0.10000000000E+01 0.  0.
    9000005    1    3    3    0    0  0.49201116951E+02 -0.24222996001E+02 -0.23706368113E+02  0.59753621928E+02  0.10000000000E+01 0.  0.
<mgrwt>
<rscale>  0 0.12500134E+03</rscale>
<asrwt>0</asrwt>
<pdfrwt beam="2">  1        4 0.24664599E-01 0.12500134E+03</pdfrwt>
<pdfrwt beam="1">  1       -4 0.37485953E-02 0.12500134E+03</pdfrwt>
<totfact> 0.92777503E+03</totfact>
</mgrwt>
</event>
<event>
 5    1  0.3183609E-002  0.1249984E+03  0.7818608E-02  0.1235072E+00
          4   -1    0    0  501    0  0.00000000000E+00  0.00000000000E+00  0.13270048425E+02  0.13330682098E+02  0.12700000000E+01 0.  1.
         -4   -1    0    0    0  501 -0.00000000000E+00 -0.00000000000E+00 -0.29362544671E+03  0.29362819322E+03  0.12700000000E+01 0.  1.
         25    2    1    2    0    0  0.00000000000E+00  0.00000000000E+00 -0.28035539829E+03  0.30695887532E+03  0.12499840715E+03 0.  0.
    9000005    1    3    3    0    0  0.60641451941E+02 -0.53143771751E+01 -0.10549033707E+03  0.12179835596E+03  0.10000000000E+01 0.  0.
    9000005    1    3    3    0    0 -0.60641451941E+02  0.53143771751E+01 -0.17486506121E+03  0.18516051936E+03  0.10000000000E+01 0.  0.
<mgrwt>
<rscale>  0 0.12499841E+03</rscale>
<asrwt>0</asrwt>
<pdfrwt beam="1">  1        4 0.20464215E-02 0.12499841E+03</pdfrwt>
<pdfrwt beam="2">  1       -4 0.45178016E-01 0.12499841E+03</pdfrwt>
<totfact> 0.74736783E+03</totfact>
</mgrwt>
</event>
<event>
 5    1  0.3183609E-002  0.1249994E+03  0.7818608E-02  0.1235070E+00
          4   -1    0    0  501    0  0.00000000000E+00  0.00000000000E+00  0.12740708692E+02  0.12803849342E+02  0.12700000000E+01 0.  1.
         -4   -1    0    0    0  501 -0.00000000000E+00 -0.00000000000E+00 -0.30577067376E+03  0.30577331118E+03  0.12700000000E+01 0.  1.
         25    2    1    2    0    0  0.00000000000E+00  0.00000000000E+00 -0.29302996507E+03  0.31857716052E+03  0.12499938712E+03 0.  0.
    9000005    1    3    3    0    0 -0.53782892308E+02 -0.30050722227E+02 -0.11983747700E+03  0.13475038518E+03  0.10000000000E+01 0.  0.
    9000005    1    3    3    0    0  0.53782892308E+02  0.30050722227E+02 -0.17319248807E+03  0.18382677535E+03  0.10000000000E+01 0.  0.
<mgrwt>
<rscale>  0 0.12499939E+03</rscale>
<asrwt>0</asrwt>
<pdfrwt beam="1">  1        4 0.19651691E-02 0.12499939E+03</pdfrwt>
<pdfrwt beam="2">  1       -4 0.47046696E-01 0.12499939E+03</pdfrwt>
<totfact> 0.73326672E+03</totfact>
</mgrwt>
</event>
<event>
 5    1  0.3183609E-002  0.1250003E+03  0.7818608E-02  0.1235069E+00
          4   -1    0    0  501    0  0.00000000000E+00  0.00000000000E+00  0.84336488721E+02  0.84346050469E+02  0.12700000000E+01 0. -1.
         -4   -1    0    0    0  501 -0.00000000000E+00 -0.00000000000E+00 -0.46296799844E+02  0.46314215699E+02  0.12700000000E+01 0. -1.
         25    2    1    2    0    0  0.00000000000E+00  0.00000000000E+00  0.38039688877E+02  0.13066026617E+03  0.12500034890E+03 0.  0.
    9000005    1    3    3    0    0  0.38336714472E+02  0.35769578729E+02  0.54560957283E+02  0.75677371113E+02  0.10000000000E+01 0.  0.
    9000005    1    3    3    0    0 -0.38336714472E+02 -0.35769578729E+02 -0.16521268406E+02  0.54982895055E+02  0.10000000000E+01 0.  0.
<mgrwt>
<rscale>  0 0.12500035E+03</rscale>
<asrwt>0</asrwt>
<pdfrwt beam="1">  1        4 0.12976919E-01 0.12500035E+03</pdfrwt>
<pdfrwt beam="2">  1       -4 0.71246599E-02 0.12500035E+03</pdfrwt>
<totfact> 0.10330297E+04</totfact>
</mgrwt>
</event>
<event>
 5    1  0.3183609E-002  0.1250126E+03  0.7818608E-02  0.1235050E+00
         -4   -1    0    0    0  501 -0.00000000000E+00  0.00000000000E+00  0.16877090166E+01  0.21121699090E+01  0.12700000000E+01 0.  1.
          4   -1    0    0  501    0  0.00000000000E+00 -0.00000000000E+00 -0.20559776555E+04  0.20559780478E+04  0.12700000000E+01 0.  1.
         25    2    1    2    0    0  0.00000000000E+00  0.00000000000E+00 -0.20542899465E+04  0.20580902177E+04  0.12501263851E+03 0.  0.
    9000005    1    3    3    0    0  0.28247387319E+02  0.40799480415E+02 -0.16526387758E+04  0.16533839347E+04  0.10000000000E+01 0.  0.
    9000005    1    3    3    0    0 -0.28247387319E+02 -0.40799480415E+02 -0.40165117076E+03  0.40470628296E+03  0.10000000000E+01 0.  0.
<mgrwt>
<rscale>  0 0.12501264E+03</rscale>
<asrwt>0</asrwt>
<pdfrwt beam="2">  1        4 0.31633516E+00 0.12501264E+03</pdfrwt>
<pdfrwt beam="1">  1       -4 0.29233020E-03 0.12501264E+03</pdfrwt>
<totfact> 0.91195787E+02</totfact>
</mgrwt>
</event>
<event>
 5    1  0.3183609E-002  0.1250045E+03  0.7818608E-02  0.1235062E+00
          4   -1    0    0  501    0  0.00000000000E+00  0.00000000000E+00  0.17775637286E+02  0.17820947812E+02  0.12700000000E+01 0.  1.
         -4   -1    0    0    0  501 -0.00000000000E+00 -0.00000000000E+00 -0.21944194015E+03  0.21944561512E+03  0.12700000000E+01 0.  1.
         25    2    1    2    0    0  0.00000000000E+00  0.00000000000E+00 -0.20166630286E+03  0.23726656293E+03  0.12500449662E+03 0.  0.
    9000005    1    3    3    0    0 -0.54399828436E+02  0.14089733364E+02 -0.15273294453E+03  0.16274585791E+03  0.10000000000E+01 0.  0.
    9000005    1    3    3    0    0  0.54399828436E+02 -0.14089733364E+02 -0.48933358326E+02  0.74520705024E+02  0.10000000000E+01 0.  0.
<mgrwt>
<rscale>  0 0.12500450E+03</rscale>
<asrwt>0</asrwt>
<pdfrwt beam="1">  1        4 0.27384817E-02 0.12500450E+03</pdfrwt>
<pdfrwt beam="2">  1       -4 0.33764065E-01 0.12500450E+03</pdfrwt>
<totfact> 0.84197714E+03</totfact>
</mgrwt>
</event>
<event>
 5    1  0.3183609E-002  0.1250014E+03  0.7818608E-02  0.1235067E+00
         -4   -1    0    0    0  501 -0.00000000000E+00  0.00000000000E+00  0.65703589088E+01  0.66919740130E+01  0.12700000000E+01 0. -1.
          4   -1    0    0  501    0  0.00000000000E+00 -0.00000000000E+00 -0.58896518861E+03  0.58896655787E+03  0.12700000000E+01 0. -1.
         25    2    1    2    0    0  0.00000000000E+00  0.00000000000E+00 -0.58239482970E+03  0.59565853188E+03  0.12500139578E+03 0.  0.
    9000005    1    3    3    0    0  0.55745980024E+01  0.61195609683E+02 -0.34539499609E+03  0.35082001384E+03  0.10000000000E+01 0.  0.
    9000005    1    3    3    0    0 -0.55745980024E+01 -0.61195609683E+02 -0.23699983361E+03  0.24483851804E+03  0.10000000000E+01 0.  0.
<mgrwt>
<rscale>  0 0.12500140E+03</rscale>
<asrwt>0</asrwt>
<pdfrwt beam="2">  1        4 0.90619449E-01 0.12500140E+03</pdfrwt>
<pdfrwt beam="1">  1       -4 0.10202852E-02 0.12500140E+03</pdfrwt>
<totfact> 0.49141320E+03</totfact>
</mgrwt>
</event>
<event>
 5    1  0.3183609E-002  0.1249989E+03  0.7818608E-02  0.1235071E+00
         -4   -1    0    0    0  501 -0.00000000000E+00  0.00000000000E+00  0.51720930673E+02  0.51736520656E+02  0.12700000000E+01 0.  1.
          4   -1    0    0  501    0  0.00000000000E+00 -0.00000000000E+00 -0.75491898703E+02  0.75502580551E+02  0.12700000000E+01 0.  1.
         25    2    1    2    0    0  0.00000000000E+00  0.00000000000E+00 -0.23770968030E+02  0.12723910121E+03  0.12499891981E+03 0.  0.
    9000005    1    3    3    0    0  0.18868543214E+02  0.50307616931E+02 -0.44368257948E+02  0.69688023057E+02  0.10000000000E+01 0.  0.
    9000005    1    3    3    0    0 -0.18868543214E+02 -0.50307616931E+02  0.20597289918E+02  0.57551078150E+02  0.10000000000E+01 0.  0.
<mgrwt>
<rscale>  0 0.12499892E+03</rscale>
<asrwt>0</asrwt>
<pdfrwt beam="2">  1        4 0.11616159E-01 0.12499892E+03</pdfrwt>
<pdfrwt beam="1">  1       -4 0.79590872E-02 0.12499892E+03</pdfrwt>
<totfact> 0.10404209E+04</totfact>
</mgrwt>
</event>
<event>
 5    1  0.3183609E-002  0.1249892E+03  0.7818608E-02  0.1235086E+00
         -4   -1    0    0    0  501 -0.00000000000E+00  0.00000000000E+00  0.11597884600E+03  0.11598579921E+03  0.12700000000E+01 0.  1.
          4   -1    0    0  501    0  0.00000000000E+00 -0.00000000000E+00 -0.33654925301E+02  0.33678879094E+02  0.12700000000E+01 0.  1.
         25    2    1    2    0    0  0.00000000000E+00  0.00000000000E+00  0.82323920696E+02  0.14966467831E+03  0.12498915158E+03 0.  0.
    9000005    1    3    3    0    0 -0.24442963982E+02  0.38376797112E+02  0.92446483039E+02  0.10304168705E+03  0.10000000000E+01 0.  0.
    9000005    1    3    3    0    0  0.24442963982E+02 -0.38376797112E+02 -0.10122562343E+02  0.46622991251E+02  0.10000000000E+01 0.  0.
<mgrwt>
<rscale>  0 0.12498915E+03</rscale>
<asrwt>0</asrwt>
<pdfrwt beam="2">  1        4 0.51800583E-02 0.12498915E+03</pdfrwt>
<pdfrwt beam="1">  1       -4 0.17845277E-01 0.12498915E+03</pdfrwt>
<totfact> 0.99394847E+03</totfact>
</mgrwt>
</event>
<event>
 5    1  0.3183609E-002  0.1249981E+03  0.7818608E-02  0.1235072E+00
          4   -1    0    0  501    0  0.00000000000E+00  0.00000000000E+00  0.34911944668E+02  0.34935036575E+02  0.12700000000E+01 0. -1.
         -4   -1    0    0    0  501 -0.00000000000E+00 -0.00000000000E+00 -0.11182153698E+03  0.11182874868E+03  0.12700000000E+01 0. -1.
         25    2    1    2    0    0  0.00000000000E+00  0.00000000000E+00 -0.76909592311E+02  0.14676378526E+03  0.12499809308E+03 0.  0.
    9000005    1    3    3    0    0  0.34519929583E+02  0.39140579235E+01 -0.99443782196E+02  0.10534235238E+03  0.10000000000E+01 0.  0.
    9000005    1    3    3    0    0 -0.34519929583E+02 -0.39140579235E+01  0.22534189885E+02  0.41421432877E+02  0.10000000000E+01 0.  0.
<mgrwt>
<rscale>  0 0.12499809E+03</rscale>
<asrwt>0</asrwt>
<pdfrwt beam="1">  1        4 0.53733995E-02 0.12499809E+03</pdfrwt>
<pdfrwt beam="2">  1       -4 0.17205644E-01 0.12499809E+03</pdfrwt>
<totfact> 0.99957037E+03</totfact>
</mgrwt>
</event>
<event>
 5    1  0.3183609E-002  0.1250030E+03  0.7818608E-02  0.1235065E+00
          4   -1    0    0  501    0  0.00000000000E+00  0.00000000000E+00  0.39365243855E+03  0.39365448718E+03  0.12700000000E+01 0.  1.
         -4   -1    0    0    0  501 -0.00000000000E+00 -0.00000000000E+00 -0.98808590023E+01  0.99621420700E+01  0.12700000000E+01 0.  1.
         25    2    1    2    0    0  0.00000000000E+00  0.00000000000E+00  0.38377157954E+03  0.40361662925E+03  0.12500303251E+03 0.  0.
    9000005    1    3    3    0    0  0.43110840375E+01 -0.26788228714E+02  0.37365754533E+03  0.37464270422E+03  0.10000000000E+01 0.  0.
    9000005    1    3    3    0    0 -0.43110840375E+01  0.26788228714E+02  0.10114034211E+02  0.28973925023E+02  0.10000000000E+01 0.  0.
<mgrwt>
<rscale>  0 0.12500303E+03</rscale>
<asrwt>0</asrwt>
<pdfrwt beam="1">  1        4 0.60568317E-01 0.12500303E+03</pdfrwt>
<pdfrwt beam="2">  1       -4 0.15265424E-02 0.12500303E+03</pdfrwt>
<totfact> 0.64198258E+03</totfact>
</mgrwt>
</event>
<event>
 5    1  0.3183609E-002  0.1249973E+03  0.7818608E-02  0.1235074E+00
         -4   -1    0    0    0  501 -0.00000000000E+00  0.00000000000E+00  0.35051120482E+04  0.35051122782E+04  0.12700000000E+01 0. -1.
          4   -1    0    0  501    0  0.00000000000E+00 -0.00000000000E+00 -0.75225754989E+00  0.14760729729E+01  0.12700000000E+01 0. -1.
         25    2    1    2    0    0  0.00000000000E+00  0.00000000000E+00  0.35043597906E+04  0.35065883512E+04  0.12499729119E+03 0.  0.
    9000005    1    3    3    0    0  0.29283280880E+02 -0.53761229500E+02  0.14003367868E+04  0.14016746758E+04  0.10000000000E+01 0.  0.
    9000005    1    3    3    0    0 -0.29283280880E+02  0.53761229500E+02  0.21040230038E+04  0.21049136754E+04  0.10000000000E+01 0.  0.
<mgrwt>
<rscale>  0 0.12499729E+03</rscale>
<asrwt>0</asrwt>
<pdfrwt beam="2">  1        4 0.17142377E-03 0.12499729E+03</pdfrwt>
<pdfrwt beam="1">  1       -4 0.53931620E+00 0.12499729E+03</pdfrwt>
<totfact> 0.56821936E+01</totfact>
</mgrwt>
</event>
<event>
 4    1  0.3183609E-002  0.1239918E+03  0.7818608E-02  0.1236653E+00
         -4   -1    0    0    0  501 -0.00000000000E+00  0.00000000000E+00  0.84731355078E+01  0.85677841554E+01  0.12700000000E+01 0. -1.
          4   -1    0    0  501    0  0.00000000000E+00 -0.00000000000E+00 -0.45099411270E+03  0.45099590086E+03  0.12700000000E+01 0. -1.
    9000005    1    1    2    0    0 -0.27312498657E+02 -0.55202608869E+02 -0.19526521711E+03  0.20475059370E+03  0.10000000000E+01 0.  0.
    9000005    1    1    2    0    0  0.27312498657E+02  0.55202608869E+02 -0.24725576008E+03  0.25481309131E+03  0.10000000000E+01 0.  0.
<mgrwt>
<rscale>  0 0.12399180E+03</rscale>
<asrwt>0</asrwt>
<pdfrwt beam="2">  1        4 0.69391109E-01 0.12399180E+03</pdfrwt>
<pdfrwt beam="1">  1       -4 0.13109779E-02 0.12399180E+03</pdfrwt>
<totfact> 0.60476659E+03</totfact>
</mgrwt>
</event>
<event>
 5    1  0.3183609E-002  0.1249972E+03  0.7818608E-02  0.1235074E+00
         -4   -1    0    0    0  501 -0.00000000000E+00  0.00000000000E+00  0.72648733316E+02  0.72659833143E+02  0.12700000000E+01 0.  1.
          4   -1    0    0  501    0  0.00000000000E+00 -0.00000000000E+00 -0.53743865048E+02  0.53758868387E+02  0.12700000000E+01 0.  1.
         25    2    1    2    0    0  0.00000000000E+00  0.00000000000E+00  0.18904868268E+02  0.12641870153E+03  0.12499717618E+03 0.  0.
    9000005    1    3    3    0    0  0.55035280042E+01 -0.28598610291E+02  0.65370486493E+02  0.71571431698E+02  0.10000000000E+01 0.  0.
    9000005    1    3    3    0    0 -0.55035280042E+01  0.28598610291E+02 -0.46465618224E+02  0.54847269832E+02  0.10000000000E+01 0.  0.
<mgrwt>
<rscale>  0 0.12499718E+03</rscale>
<asrwt>0</asrwt>
<pdfrwt beam="2">  1        4 0.82702948E-02 0.12499718E+03</pdfrwt>
<pdfrwt beam="1">  1       -4 0.11178736E-01 0.12499718E+03</pdfrwt>
<totfact> 0.10422466E+04</totfact>
</mgrwt>
</event>
<event>
 5    1  0.3183609E-002  0.1250068E+03  0.7818608E-02  0.1235059E+00
          4   -1    0    0  501    0  0.00000000000E+00  0.00000000000E+00  0.94996946863E+02  0.95005435704E+02  0.12700000000E+01 0.  1.
         -4   -1    0    0    0  501 -0.00000000000E+00 -0.00000000000E+00 -0.41104105974E+02  0.41123720988E+02  0.12700000000E+01 0.  1.
         25    2    1    2    0    0  0.00000000000E+00  0.00000000000E+00  0.53892840889E+02  0.13612915669E+03  0.12500683582E+03 0.  0.
    9000005    1    3    3    0    0 -0.13137377895E+02 -0.31217791369E+02  0.84141243928E+02  0.90707718116E+02  0.10000000000E+01 0.  0.
    9000005    1    3    3    0    0  0.13137377895E+02  0.31217791369E+02 -0.30248403039E+02  0.45421438576E+02  0.10000000000E+01 0.  0.
<mgrwt>
<rscale>  0 0.12500684E+03</rscale>
<asrwt>0</asrwt>
<pdfrwt beam="1">  1        4 0.14617076E-01 0.12500684E+03</pdfrwt>
<pdfrwt beam="2">  1       -4 0.63258706E-02 0.12500684E+03</pdfrwt>
<totfact> 0.10212751E+04</totfact>
</mgrwt>
</event>
<event>
 5    1  0.3183609E-002  0.1249992E+03  0.7818608E-02  0.1235071E+00
         -4   -1    0    0    0  501 -0.00000000000E+00  0.00000000000E+00  0.96051448880E+01  0.96887413176E+01  0.12700000000E+01 0. -1.
          4   -1    0    0  501    0  0.00000000000E+00 -0.00000000000E+00 -0.40483124384E+03  0.40483323590E+03  0.12700000000E+01 0. -1.
         25    2    1    2    0    0  0.00000000000E+00  0.00000000000E+00 -0.39522609895E+03  0.41452197722E+03  0.12499920121E+03 0.  0.
    9000005    1    3    3    0    0 -0.58454852156E+02  0.21388055278E+02 -0.21601164600E+03  0.22480313578E+03  0.10000000000E+01 0.  0.
    9000005    1    3    3    0    0  0.58454852156E+02 -0.21388055278E+02 -0.17921445295E+03  0.18971884144E+03  0.10000000000E+01 0.  0.
<mgrwt>
<rscale>  0 0.12499920E+03</rscale>
<asrwt>0</asrwt>
<pdfrwt beam="2">  1        4 0.62288301E-01 0.12499920E+03</pdfrwt>
<pdfrwt beam="1">  1       -4 0.14842986E-02 0.12499920E+03</pdfrwt>
<totfact> 0.63165606E+03</totfact>
</mgrwt>
</event>
<event>
 5    1  0.3183609E-002  0.1249998E+03  0.7818608E-02  0.1235070E+00
         -4   -1    0    0    0  501 -0.00000000000E+00  0.00000000000E+00  0.20412800584E+02  0.20452269500E+02  0.12700000000E+01 0. -1.
          4   -1    0    0  501    0  0.00000000000E+00 -0.00000000000E+00 -0.19113580802E+03  0.19114002723E+03  0.12700000000E+01 0. -1.
         25    2    1    2    0    0  0.00000000000E+00  0.00000000000E+00 -0.17072300744E+03  0.21159229673E+03  0.12499981906E+03 0.  0.
    9000005    1    3    3    0    0  0.10175532780E+02  0.29819069558E+01 -0.18961022863E+03  0.18990911521E+03  0.10000000000E+01 0.  0.
    9000005    1    3    3    0    0 -0.10175532780E+02 -0.29819069558E+01  0.18887221193E+02  0.21683181521E+02  0.10000000000E+01 0.  0.
<mgrwt>
<rscale>  0 0.12499982E+03</rscale>
<asrwt>0</asrwt>
<pdfrwt beam="2">  1        4 0.29408868E-01 0.12499982E+03</pdfrwt>
<pdfrwt beam="1">  1       -4 0.31437916E-02 0.12499982E+03</pdfrwt>
<totfact> 0.88216854E+03</totfact>
</mgrwt>
</event>
<event>
 5    1  0.3183609E-002  0.1249988E+03  0.7818608E-02  0.1235071E+00
          4   -1    0    0  501    0  0.00000000000E+00  0.00000000000E+00  0.39959994543E+02  0.39980170883E+02  0.12700000000E+01 0. -1.
         -4   -1    0    0    0  501 -0.00000000000E+00 -0.00000000000E+00 -0.97703124753E+02  0.97711378490E+02  0.12700000000E+01 0. -1.
         25    2    1    2    0    0  0.00000000000E+00  0.00000000000E+00 -0.57743130210E+02  0.13769154937E+03  0.12499877472E+03 0.  0.
    9000005    1    3    3    0    0 -0.12562603531E+02 -0.51202796342E+02  0.80856286045E+01  0.53347190654E+02  0.10000000000E+01 0.  0.
    9000005    1    3    3    0    0  0.12562603531E+02  0.51202796342E+02 -0.65828758814E+02  0.84344358719E+02  0.10000000000E+01 0.  0.
<mgrwt>
<rscale>  0 0.12499877E+03</rscale>
<asrwt>0</asrwt>
<pdfrwt beam="1">  1        4 0.61498784E-02 0.12499877E+03</pdfrwt>
<pdfrwt beam="2">  1       -4 0.15033437E-01 0.12499877E+03</pdfrwt>
<totfact> 0.10181927E+04</totfact>
</mgrwt>
</event>
<event>
 5    1  0.3183609E-002  0.1250040E+03  0.7818608E-02  0.1235063E+00
          4   -1    0    0  501    0  0.00000000000E+00  0.00000000000E+00  0.44176494438E+03  0.44176676989E+03  0.12700000000E+01 0. -1.
         -4   -1    0    0    0  501 -0.00000000000E+00 -0.00000000000E+00 -0.87954803228E+01  0.88866964677E+01  0.12700000000E+01 0. -1.
         25    2    1    2    0    0  0.00000000000E+00  0.00000000000E+00  0.43296946406E+03  0.45065346636E+03  0.12500395969E+03 0.  0.
    9000005    1    3    3    0    0  0.14353498208E+02 -0.97090435704E+01  0.21483434708E-01  0.17357675518E+02  0.10000000000E+01 0.  0.
    9000005    1    3    3    0    0 -0.14353498208E+02  0.97090435704E+01  0.43294798062E+03  0.43329579084E+03  0.10000000000E+01 0.  0.
<mgrwt>
<rscale>  0 0.12500396E+03</rscale>
<asrwt>0</asrwt>
<pdfrwt beam="1">  1        4 0.67971014E-01 0.12500396E+03</pdfrwt>
<pdfrwt beam="2">  1       -4 0.13603075E-02 0.12500396E+03</pdfrwt>
<totfact> 0.59901990E+03</totfact>
</mgrwt>
</event>
<event>
 5    1  0.3183609E-002  0.1249988E+03  0.7818608E-02  0.1235071E+00
         -4   -1    0    0    0  501 -0.00000000000E+00  0.00000000000E+00  0.53288115305E+02  0.53303246925E+02  0.12700000000E+01 0. -1.
          4   -1    0    0  501    0  0.00000000000E+00 -0.00000000000E+00 -0.73271831405E+02  0.73282836854E+02  0.12700000000E+01 0. -1.
         25    2    1    2    0    0  0.00000000000E+00  0.00000000000E+00 -0.19983716100E+02  0.12658608378E+03  0.12499875078E+03 0.  0.
    9000005    1    3    3    0    0 -0.13169158266E+02  0.58504166786E+02 -0.27793699005E+02  0.66103358198E+02  0.10000000000E+01 0.  0.
    9000005    1    3    3    0    0  0.13169158266E+02 -0.58504166786E+02  0.78099829047E+01  0.60482725581E+02  0.10000000000E+01 0.  0.
<mgrwt>
<rscale>  0 0.12499875E+03</rscale>
<asrwt>0</asrwt>
<pdfrwt beam="2">  1        4 0.11274600E-01 0.12499875E+03</pdfrwt>
<pdfrwt beam="1">  1       -4 0.82001821E-02 0.12499875E+03</pdfrwt>
<totfact> 0.10418445E+04</totfact>
</mgrwt>
</event>
<event>
 5    1  0.3183609E-002  0.1249975E+03  0.7818608E-02  0.1235073E+00
         -4   -1    0    0    0  501 -0.00000000000E+00  0.00000000000E+00  0.20281208009E+03  0.20281605639E+03  0.12700000000E+01 0. -1.
          4   -1    0    0  501    0  0.00000000000E+00 -0.00000000000E+00 -0.19234562645E+02  0.19276444178E+02  0.12700000000E+01 0. -1.
         25    2    1    2    0    0  0.00000000000E+00  0.00000000000E+00  0.18357751744E+03  0.22209250057E+03  0.12499749557E+03 0.  0.
    9000005    1    3    3    0    0  0.93785381223E+00 -0.39757088440E+02  0.61417640600E+01  0.40252042392E+02  0.10000000000E+01 0.  0.
    9000005    1    3    3    0    0 -0.93785381223E+00  0.39757088440E+02  0.17743575338E+03  0.18184045817E+03  0.10000000000E+01 0.  0.
<mgrwt>
<rscale>  0 0.12499750E+03</rscale>
<asrwt>0</asrwt>
<pdfrwt beam="2">  1        4 0.29626910E-02 0.12499750E+03</pdfrwt>
<pdfrwt beam="1">  1       -4 0.31205386E-01 0.12499750E+03</pdfrwt>
<totfact> 0.86543158E+03</totfact>
</mgrwt>
</event>
<event>
 5    1  0.3183609E-002  0.1249989E+03  0.7818608E-02  0.1235071E+00
         -4   -1    0    0    0  501 -0.00000000000E+00  0.00000000000E+00  0.26299187442E+01  0.29205089627E+01  0.12700000000E+01 0. -1.
          4   -1    0    0  501    0  0.00000000000E+00 -0.00000000000E+00 -0.14072325403E+04  0.14072331134E+04  0.12700000000E+01 0. -1.
         25    2    1    2    0    0  0.00000000000E+00  0.00000000000E+00 -0.14046026216E+04  0.14101536224E+04  0.12499885644E+03 0.  0.
    9000005    1    3    3    0    0  0.76606582378E+01  0.58795702766E+02 -0.92496353922E+03  0.92686254063E+03  0.10000000000E+01 0.  0.
    9000005    1    3    3    0    0 -0.76606582378E+01 -0.58795702766E+02 -0.47963908236E+03  0.48329108173E+03  0.10000000000E+01 0.  0.
<mgrwt>
<rscale>  0 0.12499886E+03</rscale>
<asrwt>0</asrwt>
<pdfrwt beam="2">  1        4 0.21651914E+00 0.12499886E+03</pdfrwt>
<pdfrwt beam="1">  1       -4 0.42700118E-03 0.12499886E+03</pdfrwt>
<totfact> 0.19764649E+03</totfact>
</mgrwt>
</event>
<event>
 5    1  0.3183609E-002  0.1250007E+03  0.7818608E-02  0.1235068E+00
          4   -1    0    0  501    0  0.00000000000E+00  0.00000000000E+00  0.82502615327E+02  0.82512389589E+02  0.12700000000E+01 0.  1.
         -4   -1    0    0    0  501 -0.00000000000E+00 -0.00000000000E+00 -0.47326428740E+02  0.47343465835E+02  0.12700000000E+01 0.  1.
         25    2    1    2    0    0  0.00000000000E+00  0.00000000000E+00  0.35176186587E+02  0.12985585542E+03  0.12500071634E+03 0.  0.
    9000005    1    3    3    0    0 -0.51025294861E+02  0.12336277757E+02  0.52809706911E+02  0.74468984205E+02  0.10000000000E+01 0.  0.
    9000005    1    3    3    0    0  0.51025294861E+02 -0.12336277757E+02 -0.17633520324E+02  0.55386871220E+02  0.10000000000E+01 0.  0.
<mgrwt>
<rscale>  0 0.12500072E+03</rscale>
<asrwt>0</asrwt>
<pdfrwt beam="1">  1        4 0.12694772E-01 0.12500072E+03</pdfrwt>
<pdfrwt beam="2">  1       -4 0.72830515E-02 0.12500072E+03</pdfrwt>
<totfact> 0.10347425E+04</totfact>
</mgrwt>
</event>
<event>
 5    1  0.3183609E-002  0.1249971E+03  0.7818608E-02  0.1235074E+00
         -4   -1    0    0    0  501 -0.00000000000E+00  0.00000000000E+00  0.15002687914E+02  0.15056345661E+02  0.12700000000E+01 0.  1.
          4   -1    0    0  501    0  0.00000000000E+00 -0.00000000000E+00 -0.25983795376E+03  0.25984105740E+03  0.12700000000E+01 0.  1.
         25    2    1    2    0    0  0.00000000000E+00  0.00000000000E+00 -0.24483526584E+03  0.27489740306E+03  0.12499709921E+03 0.  0.
    9000005    1    3    3    0    0  0.50221641875E+02  0.35714577700E+02 -0.99634166795E+02  0.11715678199E+03  0.10000000000E+01 0.  0.
    9000005    1    3    3    0    0 -0.50221641875E+02 -0.35714577700E+02 -0.14520109905E+03  0.15774062108E+03  0.10000000000E+01 0.  0.
<mgrwt>
<rscale>  0 0.12499710E+03</rscale>
<asrwt>0</asrwt>
<pdfrwt beam="2">  1        4 0.39979433E-01 0.12499710E+03</pdfrwt>
<pdfrwt beam="1">  1       -4 0.23124723E-02 0.12499710E+03</pdfrwt>
<totfact> 0.78864662E+03</totfact>
</mgrwt>
</event>
<event>
 5    1  0.3183609E-002  0.1250026E+03  0.7818608E-02  0.1235065E+00
         -4   -1    0    0    0  501 -0.00000000000E+00  0.00000000000E+00  0.11788583495E+03  0.11789267570E+03  0.12700000000E+01 0. -1.
          4   -1    0    0  501    0  0.00000000000E+00 -0.00000000000E+00 -0.33117279503E+02  0.33141621892E+02  0.12700000000E+01 0. -1.
         25    2    1    2    0    0  0.00000000000E+00  0.00000000000E+00  0.84768555451E+02  0.15103429759E+03  0.12500260419E+03 0.  0.
    9000005    1    3    3    0    0 -0.36119910212E+02 -0.50065692067E+02  0.30657951314E+02  0.68935704933E+02  0.10000000000E+01 0.  0.
    9000005    1    3    3    0    0  0.36119910212E+02  0.50065692067E+02  0.54110604137E+02  0.82098592655E+02  0.10000000000E+01 0.  0.
<mgrwt>
<rscale>  0 0.12500260E+03</rscale>
<asrwt>0</asrwt>
<pdfrwt beam="2">  1        4 0.50973647E-02 0.12500260E+03</pdfrwt>
<pdfrwt beam="1">  1       -4 0.18138681E-01 0.12500260E+03</pdfrwt>
<totfact> 0.99092117E+03</totfact>
</mgrwt>
</event>
<event>
 5    1  0.3183609E-002  0.1250022E+03  0.7818608E-02  0.1235066E+00
         -4   -1    0    0    0  501 -0.00000000000E+00  0.00000000000E+00  0.71040229357E+02  0.71051580468E+02  0.12700000000E+01 0.  1.
          4   -1    0    0  501    0  0.00000000000E+00 -0.00000000000E+00 -0.54965325898E+02  0.54979995918E+02  0.12700000000E+01 0.  1.
         25    2    1    2    0    0  0.00000000000E+00  0.00000000000E+00  0.16074903458E+02  0.12603157639E+03  0.12500222288E+03 0.  0.
    9000005    1    3    3    0    0 -0.50553218045E+02  0.15151103979E+02  0.41782527681E+02  0.67319859075E+02  0.10000000000E+01 0.  0.
    9000005    1    3    3    0    0  0.50553218045E+02 -0.15151103979E+02 -0.25707624223E+02  0.58711717311E+02  0.10000000000E+01 0.  0.
<mgrwt>
<rscale>  0 0.12500222E+03</rscale>
<asrwt>0</asrwt>
<pdfrwt beam="2">  1        4 0.84582056E-02 0.12500222E+03</pdfrwt>
<pdfrwt beam="1">  1       -4 0.10931268E-01 0.12500222E+03</pdfrwt>
<totfact> 0.10429742E+04</totfact>
</mgrwt>
</event>
<event>
 4    1  0.3183609E-002  0.1249175E+03  0.7818608E-02  0.1235198E+00
         -4   -1    0    0    0  501 -0.00000000000E+00  0.00000000000E+00  0.44177498235E+01  0.45966741785E+01  0.12700000000E+01 0.  1.
          4   -1    0    0  501    0  0.00000000000E+00 -0.00000000000E+00 -0.86534300827E+03  0.86534394021E+03  0.12700000000E+01 0.  1.
    9000005    1    1    2    0    0 -0.52906780001E+01 -0.22921225411E+02 -0.83334298668E+03  0.83367554078E+03  0.10000000000E+01 0.  0.
    9000005    1    1    2    0    0  0.52906780001E+01  0.22921225411E+02 -0.27582271762E+02  0.36265073605E+02  0.10000000000E+01 0.  0.
<mgrwt>
<rscale>  0 0.12491746E+03</rscale>
<asrwt>0</asrwt>
<pdfrwt beam="2">  1        4 0.13314340E+00 0.12491746E+03</pdfrwt>
<pdfrwt beam="1">  1       -4 0.69348961E-03 0.12491746E+03</pdfrwt>
<totfact> 0.35388710E+03</totfact>
</mgrwt>
</event>
<event>
 5    1  0.3183609E-002  0.1249871E+03  0.7818608E-02  0.1235089E+00
          4   -1    0    0  501    0  0.00000000000E+00  0.00000000000E+00  0.11278544105E+04  0.11278551255E+04  0.12700000000E+01 0. -1.
         -4   -1    0    0    0  501 -0.00000000000E+00 -0.00000000000E+00 -0.33455311315E+01  0.35784743330E+01  0.12700000000E+01 0. -1.
         25    2    1    2    0    0  0.00000000000E+00  0.00000000000E+00  0.11245088794E+04  0.11314335999E+04  0.12498708382E+03 0.  0.
    9000005    1    3    3    0    0  0.23721060550E+02  0.20700127385E+02  0.10508544473E+04  0.10513264257E+04  0.10000000000E+01 0.  0.
    9000005    1    3    3    0    0 -0.23721060550E+02 -0.20700127385E+02  0.73654432072E+02  0.80107174156E+02  0.10000000000E+01 0.  0.
<mgrwt>
<rscale>  0 0.12498708E+03</rscale>
<asrwt>0</asrwt>
<pdfrwt beam="1">  1        4 0.17353460E+00 0.12498708E+03</pdfrwt>
<pdfrwt beam="2">  1       -4 0.53266908E-03 0.12498708E+03</pdfrwt>
<totfact> 0.26588433E+03</totfact>
</mgrwt>
</event>
<event>
 5    1  0.3183609E-002  0.1249962E+03  0.7818608E-02  0.1235075E+00
          4   -1    0    0  501    0  0.00000000000E+00  0.00000000000E+00  0.33386935925E+03  0.33387177470E+03  0.12700000000E+01 0. -1.
         -4   -1    0    0    0  501 -0.00000000000E+00 -0.00000000000E+00 -0.11662289461E+02  0.11731235888E+02  0.12700000000E+01 0. -1.
         25    2    1    2    0    0  0.00000000000E+00  0.00000000000E+00  0.32220706978E+03  0.34560301059E+03  0.12499618038E+03 0.  0.
    9000005    1    3    3    0    0 -0.13809186374E+02 -0.51825423579E+01  0.32900108895E+03  0.32933306683E+03  0.10000000000E+01 0.  0.
    9000005    1    3    3    0    0  0.13809186374E+02  0.51825423579E+01 -0.67940191684E+01  0.16269943763E+02  0.10000000000E+01 0.  0.
<mgrwt>
<rscale>  0 0.12499618E+03</rscale>
<asrwt>0</asrwt>
<pdfrwt beam="1">  1        4 0.51370004E-01 0.12499618E+03</pdfrwt>
<pdfrwt beam="2">  1       -4 0.17996878E-02 0.12499618E+03</pdfrwt>
<totfact> 0.70216938E+03</totfact>
</mgrwt>
</event>
<event>
 5    1  0.3183609E-002  0.1250004E+03  0.7818608E-02  0.1235069E+00
          4   -1    0    0  501    0  0.00000000000E+00  0.00000000000E+00  0.14406284348E+02  0.14462155051E+02  0.12700000000E+01 0. -1.
         -4   -1    0    0    0  501 -0.00000000000E+00 -0.00000000000E+00 -0.27056845622E+03  0.27057143678E+03  0.12700000000E+01 0. -1.
         25    2    1    2    0    0  0.00000000000E+00  0.00000000000E+00 -0.25616217187E+03  0.28503359183E+03  0.12500036070E+03 0.  0.
    9000005    1    3    3    0    0 -0.52540837971E+01 -0.15298689136E+02 -0.26572314302E+03  0.26621691160E+03  0.10000000000E+01 0.  0.
    9000005    1    3    3    0    0  0.52540837971E+01  0.15298689136E+02  0.95609711441E+01  0.18816680235E+02  0.10000000000E+01 0.  0.
<mgrwt>
<rscale>  0 0.12500036E+03</rscale>
<asrwt>0</asrwt>
<pdfrwt beam="1">  1        4 0.22208787E-02 0.12500036E+03</pdfrwt>
<pdfrwt beam="2">  1       -4 0.41630440E-01 0.12500036E+03</pdfrwt>
<totfact> 0.77514767E+03</totfact>
</mgrwt>
</event>
<event>
 5    1  0.3183609E-002  0.1249985E+03  0.7818608E-02  0.1235072E+00
          4   -1    0    0  501    0  0.00000000000E+00  0.00000000000E+00  0.32130384053E+03  0.32130635045E+03  0.12700000000E+01 0. -1.
         -4   -1    0    0    0  501 -0.00000000000E+00 -0.00000000000E+00 -0.12121464838E+02  0.12187813988E+02  0.12700000000E+01 0. -1.
         25    2    1    2    0    0  0.00000000000E+00  0.00000000000E+00  0.30918237569E+03  0.33349416444E+03  0.12499846509E+03 0.  0.
    9000005    1    3    3    0    0 -0.27124517200E+02 -0.49093692864E+02  0.81077449124E+02  0.98592509192E+02  0.10000000000E+01 0.  0.
    9000005    1    3    3    0    0  0.27124517200E+02  0.49093692864E+02  0.22810492657E+03  0.23490165525E+03  0.10000000000E+01 0.  0.
<mgrwt>
<rscale>  0 0.12499847E+03</rscale>
<asrwt>0</asrwt>
<pdfrwt beam="1">  1        4 0.49436657E-01 0.12499847E+03</pdfrwt>
<pdfrwt beam="2">  1       -4 0.18701376E-02 0.12499847E+03</pdfrwt>
<totfact> 0.71581836E+03</totfact>
</mgrwt>
</event>
<event>
 5    1  0.3183609E-002  0.1250008E+03  0.7818608E-02  0.1235068E+00
         -4   -1    0    0    0  501 -0.00000000000E+00  0.00000000000E+00  0.19247711681E+02  0.19289564664E+02  0.12700000000E+01 0.  1.
          4   -1    0    0  501    0  0.00000000000E+00 -0.00000000000E+00 -0.20268459390E+03  0.20268857270E+03  0.12700000000E+01 0.  1.
         25    2    1    2    0    0  0.00000000000E+00  0.00000000000E+00 -0.18343688222E+03  0.22197813736E+03  0.12500081484E+03 0.  0.
    9000005    1    3    3    0    0 -0.40590977642E+02  0.30667210714E+01 -0.75166238885E+01  0.41406906172E+02  0.10000000000E+01 0.  0.
    9000005    1    3    3    0    0  0.40590977642E+02 -0.30667210714E+01 -0.17592025833E+03  0.18057123119E+03  0.10000000000E+01 0.  0.
<mgrwt>
<rscale>  0 0.12500081E+03</rscale>
<asrwt>0</asrwt>
<pdfrwt beam="2">  1        4 0.31185769E-01 0.12500081E+03</pdfrwt>
<pdfrwt beam="1">  1       -4 0.29647121E-02 0.12500081E+03</pdfrwt>
<totfact> 0.86554726E+03</totfact>
</mgrwt>
</event>
<event>
 5    1  0.3183609E-002  0.1250024E+03  0.7818608E-02  0.1235066E+00
         -4   -1    0    0    0  501 -0.00000000000E+00  0.00000000000E+00  0.55542030842E+02  0.55556548579E+02  0.12700000000E+01 0.  1.
          4   -1    0    0  501    0  0.00000000000E+00 -0.00000000000E+00 -0.70302883769E+02  0.70314353913E+02  0.12700000000E+01 0.  1.
         25    2    1    2    0    0  0.00000000000E+00  0.00000000000E+00 -0.14760852927E+02  0.12587090249E+03  0.12500240524E+03 0.  0.
    9000005    1    3    3    0    0 -0.29606317752E+02  0.53102298818E+02 -0.21938125300E+02  0.64642629373E+02  0.10000000000E+01 0.  0.
    9000005    1    3    3    0    0  0.29606317752E+02 -0.53102298818E+02  0.71772723730E+01  0.61228273120E+02  0.10000000000E+01 0.  0.
<mgrwt>
<rscale>  0 0.12500241E+03</rscale>
<asrwt>0</asrwt>
<pdfrwt beam="2">  1        4 0.10817827E-01 0.12500241E+03</pdfrwt>
<pdfrwt beam="1">  1       -4 0.85469269E-02 0.12500241E+03</pdfrwt>
<totfact> 0.10433222E+04</totfact>
</mgrwt>
</event>
<event>
 5    1  0.3183609E-002  0.1249996E+03  0.7818608E-02  0.1235070E+00
         -4   -1    0    0    0  501 -0.00000000000E+00  0.00000000000E+00  0.69957721329E+03  0.69957836606E+03  0.12700000000E+01 0. -1.
          4   -1    0    0  501    0  0.00000000000E+00 -0.00000000000E+00 -0.55103090155E+01  0.56547683813E+01  0.12700000000E+01 0. -1.
         25    2    1    2    0    0  0.00000000000E+00  0.00000000000E+00  0.69406690427E+03  0.70523313444E+03  0.12499962520E+03 0.  0.
    9000005    1    3    3    0    0  0.53794915115E+02 -0.29835968400E+02  0.28493463500E+03  0.29150098478E+03  0.10000000000E+01 0.  0.
    9000005    1    3    3    0    0 -0.53794915115E+02  0.29835968400E+02  0.40913226927E+03  0.41373214966E+03  0.10000000000E+01 0.  0.
<mgrwt>
<rscale>  0 0.12499963E+03</rscale>
<asrwt>0</asrwt>
<pdfrwt beam="2">  1        4 0.85894110E-03 0.12499963E+03</pdfrwt>
<pdfrwt beam="1">  1       -4 0.10763842E+00 0.12499963E+03</pdfrwt>
<totfact> 0.42812245E+03</totfact>
</mgrwt>
</event>
<event>
 5    1  0.3183609E-002  0.1249978E+03  0.7818608E-02  0.1235073E+00
         -4   -1    0    0    0  501 -0.00000000000E+00  0.00000000000E+00  0.19552343438E+03  0.19552755891E+03  0.12700000000E+01 0. -1.
          4   -1    0    0  501    0  0.00000000000E+00 -0.00000000000E+00 -0.19953195343E+02  0.19993571577E+02  0.12700000000E+01 0. -1.
         25    2    1    2    0    0  0.00000000000E+00  0.00000000000E+00  0.17557023904E+03  0.21552113049E+03  0.12499779538E+03 0.  0.
    9000005    1    3    3    0    0  0.27754435714E+02 -0.27715273082E+02  0.39055690486E+01  0.39429665652E+02  0.10000000000E+01 0.  0.
    9000005    1    3    3    0    0 -0.27754435714E+02  0.27715273082E+02  0.17166466999E+03  0.17609146483E+03  0.10000000000E+01 0.  0.
<mgrwt>
<rscale>  0 0.12499780E+03</rscale>
<asrwt>0</asrwt>
<pdfrwt beam="2">  1        4 0.30731455E-02 0.12499780E+03</pdfrwt>
<pdfrwt beam="1">  1       -4 0.30083952E-01 0.12499780E+03</pdfrwt>
<totfact> 0.87586386E+03</totfact>
</mgrwt>
</event>
<event>
 5    1  0.3183609E-002  0.1250017E+03  0.7818608E-02  0.1235067E+00
          4   -1    0    0  501    0  0.00000000000E+00  0.00000000000E+00  0.30772484583E+02  0.30798680287E+02  0.12700000000E+01 0. -1.
         -4   -1    0    0    0  501 -0.00000000000E+00 -0.00000000000E+00 -0.12685980308E+03  0.12686615994E+03  0.12700000000E+01 0. -1.
         25    2    1    2    0    0  0.00000000000E+00  0.00000000000E+00 -0.96087318499E+02  0.15766484023E+03  0.12500171626E+03 0.  0.
    9000005    1    3    3    0    0  0.24836164497E+02 -0.47434828948E+02 -0.73980536381E+01  0.54061347208E+02  0.10000000000E+01 0.  0.
    9000005    1    3    3    0    0 -0.24836164497E+02  0.47434828948E+02 -0.88689264861E+02  0.10360349302E+03  0.10000000000E+01 0.  0.
<mgrwt>
<rscale>  0 0.12500172E+03</rscale>
<asrwt>0</asrwt>
<pdfrwt beam="1">  1        4 0.47367325E-02 0.12500172E+03</pdfrwt>
<pdfrwt beam="2">  1       -4 0.19519397E-01 0.12500172E+03</pdfrwt>
<totfact> 0.97791110E+03</totfact>
</mgrwt>
</event>
<event>
 5    1  0.3183609E-002  0.1250160E+03  0.7818608E-02  0.1235044E+00
          4   -1    0    0  501    0  0.00000000000E+00  0.00000000000E+00  0.90905963051E+03  0.90906051763E+03  0.12700000000E+01 0.  1.
         -4   -1    0    0    0  501 -0.00000000000E+00 -0.00000000000E+00 -0.42033976214E+01  0.43910649692E+01  0.12700000000E+01 0.  1.
         25    2    1    2    0    0  0.00000000000E+00  0.00000000000E+00  0.90485623289E+03  0.91345158260E+03  0.12501596524E+03 0.  0.
    9000005    1    3    3    0    0  0.15883370462E+02 -0.56918678455E+02  0.30371780655E+03  0.30941480803E+03  0.10000000000E+01 0.  0.
    9000005    1    3    3    0    0 -0.15883370462E+02  0.56918678455E+02  0.60113842634E+03  0.60403677458E+03  0.10000000000E+01 0.  0.
<mgrwt>
<rscale>  0 0.12501597E+03</rscale>
<asrwt>0</asrwt>
<pdfrwt beam="1">  1        4 0.13986998E+00 0.12501597E+03</pdfrwt>
<pdfrwt beam="2">  1       -4 0.66118005E-03 0.12501597E+03</pdfrwt>
<totfact> 0.33638297E+03</totfact>
</mgrwt>
</event>
<event>
 5    1  0.3183609E-002  0.1249752E+03  0.7818608E-02  0.1235108E+00
         -4   -1    0    0    0  501 -0.00000000000E+00  0.00000000000E+00  0.45091311395E+02  0.45109192670E+02  0.12700000000E+01 0. -1.
          4   -1    0    0  501    0  0.00000000000E+00 -0.00000000000E+00 -0.86555633509E+02  0.86564950136E+02  0.12700000000E+01 0. -1.
         25    2    1    2    0    0  0.00000000000E+00  0.00000000000E+00 -0.41464322114E+02  0.13167414281E+03  0.12497515703E+03 0.  0.
    9000005    1    3    3    0    0  0.26941437141E+01 -0.40269599448E+02 -0.70983572842E+02  0.81661292321E+02  0.10000000000E+01 0.  0.
    9000005    1    3    3    0    0 -0.26941437141E+01  0.40269599448E+02  0.29519250729E+02  0.50012850485E+02  0.10000000000E+01 0.  0.
<mgrwt>
<rscale>  0 0.12497516E+03</rscale>
<asrwt>0</asrwt>
<pdfrwt beam="2">  1        4 0.13318343E-01 0.12497516E+03</pdfrwt>
<pdfrwt beam="1">  1       -4 0.69392170E-02 0.12497516E+03</pdfrwt>
<totfact> 0.10314438E+04</totfact>
</mgrwt>
</event>
<event>
 5    1  0.3183609E-002  0.1250081E+03  0.7818608E-02  0.1235057E+00
         -4   -1    0    0    0  501 -0.00000000000E+00  0.00000000000E+00  0.24704503012E+01  0.27777733332E+01  0.12700000000E+01 0. -1.
          4   -1    0    0  501    0  0.00000000000E+00 -0.00000000000E+00 -0.14884846827E+04  0.14884852245E+04  0.12700000000E+01 0. -1.
         25    2    1    2    0    0  0.00000000000E+00  0.00000000000E+00 -0.14860142324E+04  0.14912629978E+04  0.12500811890E+03 0.  0.
    9000005    1    3    3    0    0 -0.47328801736E+02 -0.10719180413E+02 -0.12127926933E+04  0.12137635821E+04  0.10000000000E+01 0.  0.
    9000005    1    3    3    0    0  0.47328801736E+02  0.10719180413E+02 -0.27322153912E+03  0.27749941575E+03  0.10000000000E+01 0.  0.
<mgrwt>
<rscale>  0 0.12500812E+03</rscale>
<asrwt>0</asrwt>
<pdfrwt beam="2">  1        4 0.22902065E+00 0.12500812E+03</pdfrwt>
<pdfrwt beam="1">  1       -4 0.40375238E-03 0.12500812E+03</pdfrwt>
<totfact> 0.18099749E+03</totfact>
</mgrwt>
</event>
<event>
 5    1  0.3183609E-002  0.1249916E+03  0.7818608E-02  0.1235082E+00
          4   -1    0    0  501    0  0.00000000000E+00  0.00000000000E+00  0.52748661600E+02  0.52763947924E+02  0.12700000000E+01 0. -1.
         -4   -1    0    0    0  501 -0.00000000000E+00 -0.00000000000E+00 -0.74012556412E+02  0.74023451734E+02  0.12700000000E+01 0. -1.
         25    2    1    2    0    0  0.00000000000E+00  0.00000000000E+00 -0.21263894812E+02  0.12678739966E+03  0.12499156567E+03 0.  0.
    9000005    1    3    3    0    0 -0.55721889641E+02  0.27290774245E+02 -0.31086808042E+01  0.62131950238E+02  0.10000000000E+01 0.  0.
    9000005    1    3    3    0    0  0.55721889641E+02 -0.27290774245E+02 -0.18155214008E+02  0.64655449420E+02  0.10000000000E+01 0.  0.
<mgrwt>
<rscale>  0 0.12499157E+03</rscale>
<asrwt>0</asrwt>
<pdfrwt beam="1">  1        4 0.81171927E-02 0.12499157E+03</pdfrwt>
<pdfrwt beam="2">  1       -4 0.11388561E-01 0.12499157E+03</pdfrwt>
<totfact> 0.10415751E+04</totfact>
</mgrwt>
</event>
<event>
 5    1  0.3183609E-002  0.1249911E+03  0.7818608E-02  0.1235083E+00
          4   -1    0    0  501    0  0.00000000000E+00  0.00000000000E+00  0.20787185275E+03  0.20787573226E+03  0.12700000000E+01 0. -1.
         -4   -1    0    0    0  501 -0.00000000000E+00 -0.00000000000E+00 -0.18763434048E+02  0.18806364808E+02  0.12700000000E+01 0. -1.
         25    2    1    2    0    0  0.00000000000E+00  0.00000000000E+00  0.18910841870E+03  0.22668209707E+03  0.12499111613E+03 0.  0.
    9000005    1    3    3    0    0  0.17847773686E+02 -0.34178512673E+02  0.53748147829E+01  0.38943579549E+02  0.10000000000E+01 0.  0.
    9000005    1    3    3    0    0 -0.17847773686E+02  0.34178512673E+02  0.18373360392E+03  0.18773851752E+03  0.10000000000E+01 0.  0.
<mgrwt>
<rscale>  0 0.12499112E+03</rscale>
<asrwt>0</asrwt>
<pdfrwt beam="1">  1        4 0.31983886E-01 0.12499112E+03</pdfrwt>
<pdfrwt beam="2">  1       -4 0.28902829E-02 0.12499112E+03</pdfrwt>
<totfact> 0.85838699E+03</totfact>
</mgrwt>
</event>
<event>
 5    1  0.3183609E-002  0.1250079E+03  0.7818608E-02  0.1235057E+00
          4   -1    0    0  501    0  0.00000000000E+00  0.00000000000E+00  0.11867905199E+03  0.11868584701E+03  0.12700000000E+01 0. -1.
         -4   -1    0    0    0  501 -0.00000000000E+00 -0.00000000000E+00 -0.32898546658E+02  0.32923050773E+02  0.12700000000E+01 0. -1.
         25    2    1    2    0    0  0.00000000000E+00  0.00000000000E+00  0.85780505331E+02  0.15160889779E+03  0.12500785092E+03 0.  0.
    9000005    1    3    3    0    0  0.45339272987E+02  0.11783968360E+02 -0.72794447187E+01  0.47418370920E+02  0.10000000000E+01 0.  0.
    9000005    1    3    3    0    0 -0.45339272987E+02 -0.11783968360E+02  0.93059950050E+02  0.10419052687E+03  0.10000000000E+01 0.  0.
<mgrwt>
<rscale>  0 0.12500785E+03</rscale>
<asrwt>0</asrwt>
<pdfrwt beam="1">  1        4 0.18260723E-01 0.12500785E+03</pdfrwt>
<pdfrwt beam="2">  1       -4 0.50637226E-02 0.12500785E+03</pdfrwt>
<totfact> 0.98966466E+03</totfact>
</mgrwt>
</event>
<event>
 5    1  0.3183609E-002  0.1249996E+03  0.7818608E-02  0.1235070E+00
         -4   -1    0    0    0  501 -0.00000000000E+00  0.00000000000E+00  0.59247700352E+03  0.59247836467E+03  0.12700000000E+01 0. -1.
          4   -1    0    0  501    0  0.00000000000E+00 -0.00000000000E+00 -0.65305014728E+01  0.66528452174E+01  0.12700000000E+01 0. -1.
         25    2    1    2    0    0  0.00000000000E+00  0.00000000000E+00  0.58594650205E+03  0.59913120989E+03  0.12499961359E+03 0.  0.
    9000005    1    3    3    0    0 -0.45614901711E+02 -0.17394211435E+00  0.49770367710E+03  0.49979065589E+03  0.10000000000E+01 0.  0.
    9000005    1    3    3    0    0  0.45614901711E+02  0.17394211435E+00  0.88242824947E+02  0.99340553998E+02  0.10000000000E+01 0.  0.
<mgrwt>
<rscale>  0 0.12499961E+03</rscale>
<asrwt>0</asrwt>
<pdfrwt beam="2">  1        4 0.10142081E-02 0.12499961E+03</pdfrwt>
<pdfrwt beam="1">  1       -4 0.91159841E-01 0.12499961E+03</pdfrwt>
<totfact> 0.48922904E+03</totfact>
</mgrwt>
</event>
<event>
 5    1  0.3183609E-002  0.1249973E+03  0.7818608E-02  0.1235074E+00
         -4   -1    0    0    0  501 -0.00000000000E+00  0.00000000000E+00  0.27919457564E+03  0.27919746411E+03  0.12700000000E+01 0. -1.
          4   -1    0    0  501    0  0.00000000000E+00 -0.00000000000E+00 -0.13958736290E+02  0.14016391077E+02  0.12700000000E+01 0. -1.
         25    2    1    2    0    0  0.00000000000E+00  0.00000000000E+00  0.26523583935E+03  0.29321385519E+03  0.12499725757E+03 0.  0.
    9000005    1    3    3    0    0 -0.23415430634E+01 -0.53352891781E+01 -0.13331679797E+02  0.14583614803E+02  0.10000000000E+01 0.  0.
    9000005    1    3    3    0    0  0.23415430634E+01  0.53352891781E+01  0.27856751914E+03  0.27863024038E+03  0.10000000000E+01 0.  0.
<mgrwt>
<rscale>  0 0.12499726E+03</rscale>
<asrwt>0</asrwt>
<pdfrwt beam="2">  1        4 0.21521550E-02 0.12499726E+03</pdfrwt>
<pdfrwt beam="1">  1       -4 0.42957669E-01 0.12499726E+03</pdfrwt>
<totfact> 0.76462697E+03</totfact>
</mgrwt>
</event>
<event>
 5    1  0.3183609E-002  0.1250008E+03  0.7818608E-02  0.1235068E+00
          4   -1    0    0  501    0  0.00000000000E+00  0.00000000000E+00  0.10350431899E+03  0.10351211016E+03  0.12700000000E+01 0.  1.
         -4   -1    0    0    0  501 -0.00000000000E+00 -0.00000000000E+00 -0.37720535351E+02  0.37741908896E+02  0.12700000000E+01 0.  1.
         25    2    1    2    0    0  0.00000000000E+00  0.00000000000E+00  0.65783783638E+02  0.14125401905E+03  0.12500076683E+03 0.  0.
    9000005    1    3    3    0    0 -0.62366985459E+02  0.22756864366E+01  0.29233976750E+02  0.68923472204E+02  0.10000000000E+01 0.  0.
    9000005    1    3    3    0    0  0.62366985459E+02 -0.22756864366E+01  0.36549806888E+02  0.72330546850E+02  0.10000000000E+01 0.  0.
<mgrwt>
<rscale>  0 0.12500077E+03</rscale>
<asrwt>0</asrwt>
<pdfrwt beam="1">  1        4 0.15925985E-01 0.12500077E+03</pdfrwt>
<pdfrwt beam="2">  1       -4 0.58054027E-02 0.12500077E+03</pdfrwt>
<totfact> 0.10107487E+04</totfact>
</mgrwt>
</event>
<event>
 5    1  0.3183609E-002  0.1249989E+03  0.7818608E-02  0.1235071E+00
         -4   -1    0    0    0  501 -0.00000000000E+00  0.00000000000E+00  0.70136344681E+02  0.70147842057E+02  0.12700000000E+01 0. -1.
          4   -1    0    0  501    0  0.00000000000E+00 -0.00000000000E+00 -0.55670823283E+02  0.55685307443E+02  0.12700000000E+01 0. -1.
         25    2    1    2    0    0  0.00000000000E+00  0.00000000000E+00  0.14465521399E+02  0.12583314950E+03  0.12499892081E+03 0.  0.
    9000005    1    3    3    0    0 -0.51003736747E+02 -0.22689798908E+02 -0.21043388406E+02  0.59666006505E+02  0.10000000000E+01 0.  0.
    9000005    1    3    3    0    0  0.51003736747E+02  0.22689798908E+02  0.35508909805E+02  0.66167142995E+02  0.10000000000E+01 0.  0.
<mgrwt>
<rscale>  0 0.12499892E+03</rscale>
<asrwt>0</asrwt>
<pdfrwt beam="2">  1        4 0.85667407E-02 0.12499892E+03</pdfrwt>
<pdfrwt beam="1">  1       -4 0.10792205E-01 0.12499892E+03</pdfrwt>
<totfact> 0.10434871E+04</totfact>
</mgrwt>
</event>
<event>
 5    1  0.3183609E-002  0.1249987E+03  0.7818608E-02  0.1235071E+00
          4   -1    0    0  501    0  0.00000000000E+00  0.00000000000E+00  0.49079738222E+02  0.49096166896E+02  0.12700000000E+01 0. -1.
         -4   -1    0    0    0  501 -0.00000000000E+00 -0.00000000000E+00 -0.79553461515E+02  0.79563598077E+02  0.12700000000E+01 0. -1.
         25    2    1    2    0    0  0.00000000000E+00  0.00000000000E+00 -0.30473723293E+02  0.12865976497E+03  0.12499874924E+03 0.  0.
    9000005    1    3    3    0    0  0.45071690634E+01 -0.62195602205E+02 -0.11047730958E+02  0.63337665460E+02  0.10000000000E+01 0.  0.
    9000005    1    3    3    0    0 -0.45071690634E+01  0.62195602205E+02 -0.19425992336E+02  0.65322099513E+02  0.10000000000E+01 0.  0.
<mgrwt>
<rscale>  0 0.12499875E+03</rscale>
<asrwt>0</asrwt>
<pdfrwt beam="1">  1        4 0.75527724E-02 0.12499875E+03</pdfrwt>
<pdfrwt beam="2">  1       -4 0.12241038E-01 0.12499875E+03</pdfrwt>
<totfact> 0.10373557E+04</totfact>
</mgrwt>
</event>
<event>
 5    1  0.3183609E-002  0.1249997E+03  0.7818608E-02  0.1235070E+00
          4   -1    0    0  501    0  0.00000000000E+00  0.00000000000E+00  0.14558350988E+02  0.14613640323E+02  0.12700000000E+01 0. -1.
         -4   -1    0    0    0  501 -0.00000000000E+00 -0.00000000000E+00 -0.26775009600E+03  0.26775310794E+03  0.12700000000E+01 0. -1.
         25    2    1    2    0    0  0.00000000000E+00  0.00000000000E+00 -0.25319174501E+03  0.28236674826E+03  0.12499968312E+03 0.  0.
    9000005    1    3    3    0    0  0.59937120818E+02  0.16688221971E+02 -0.11337094469E+03  0.12932488664E+03  0.10000000000E+01 0.  0.
    9000005    1    3    3    0    0 -0.59937120818E+02 -0.16688221971E+02 -0.13982080033E+03  0.15304186162E+03  0.10000000000E+01 0.  0.
<mgrwt>
<rscale>  0 0.12499968E+03</rscale>
<asrwt>0</asrwt>
<pdfrwt beam="1">  1        4 0.22442312E-02 0.12499968E+03</pdfrwt>
<pdfrwt beam="2">  1       -4 0.41196804E-01 0.12499968E+03</pdfrwt>
<totfact> 0.77865885E+03</totfact>
</mgrwt>
</event>
<event>
 5    1  0.3183609E-002  0.1249925E+03  0.7818608E-02  0.1235081E+00
         -4   -1    0    0    0  501 -0.00000000000E+00  0.00000000000E+00  0.23711515950E+01  0.26898438406E+01  0.12700000000E+01 0.  1.
          4   -1    0    0  501    0  0.00000000000E+00 -0.00000000000E+00 -0.15431636709E+04  0.15431641935E+04  0.12700000000E+01 0.  1.
         25    2    1    2    0    0  0.00000000000E+00  0.00000000000E+00 -0.15407925193E+04  0.15458540373E+04  0.12499246858E+03 0.  0.
    9000005    1    3    3    0    0  0.38479064023E+02  0.41338682783E+02 -0.11011576883E+04  0.11026054505E+04  0.10000000000E+01 0.  0.
    9000005    1    3    3    0    0 -0.38479064023E+02 -0.41338682783E+02 -0.43963483105E+03  0.44324858684E+03  0.10000000000E+01 0.  0.
<mgrwt>
<rscale>  0 0.12499247E+03</rscale>
<asrwt>0</asrwt>
<pdfrwt beam="2">  1        4 0.23743360E+00 0.12499247E+03</pdfrwt>
<pdfrwt beam="1">  1       -4 0.38934877E-03 0.12499247E+03</pdfrwt>
<totfact> 0.17049357E+03</totfact>
</mgrwt>
</event>
<event>
 5    1  0.3183609E-002  0.1249999E+03  0.7818608E-02  0.1235069E+00
          4   -1    0    0  501    0  0.00000000000E+00  0.00000000000E+00  0.10906006617E+03  0.10906746047E+03  0.12700000000E+01 0. -1.
         -4   -1    0    0    0  501 -0.00000000000E+00 -0.00000000000E+00 -0.35797480129E+02  0.35820001166E+02  0.12700000000E+01 0. -1.
         25    2    1    2    0    0  0.00000000000E+00  0.00000000000E+00  0.73262586040E+02  0.14488746163E+03  0.12499988010E+03 0.  0.
    9000005    1    3    3    0    0 -0.85014075974E+01 -0.50098156407E+02  0.78793627413E+02  0.93763185353E+02  0.10000000000E+01 0.  0.
    9000005    1    3    3    0    0  0.85014075974E+01  0.50098156407E+02 -0.55310413733E+01  0.51124276281E+02  0.10000000000E+01 0.  0.
<mgrwt>
<rscale>  0 0.12499988E+03</rscale>
<asrwt>0</asrwt>
<pdfrwt beam="1">  1        4 0.16780773E-01 0.12499988E+03</pdfrwt>
<pdfrwt beam="2">  1       -4 0.55096058E-02 0.12499988E+03</pdfrwt>
<totfact> 0.10033303E+04</totfact>
</mgrwt>
</event>
<event>
 5    1  0.3183609E-002  0.1250017E+03  0.7818608E-02  0.1235067E+00
          4   -1    0    0  501    0  0.00000000000E+00  0.00000000000E+00  0.31011970986E+03  0.31012231030E+03  0.12700000000E+01 0.  1.
         -4   -1    0    0    0  501 -0.00000000000E+00 -0.00000000000E+00 -0.12561616724E+02  0.12625653042E+02  0.12700000000E+01 0.  1.
         25    2    1    2    0    0  0.00000000000E+00  0.00000000000E+00  0.29755809314E+03  0.32274796334E+03  0.12500171618E+03 0.  0.
    9000005    1    3    3    0    0 -0.47432608300E+02 -0.23068325178E+02  0.23531697441E+03  0.24115778736E+03  0.10000000000E+01 0.  0.
    9000005    1    3    3    0    0  0.47432608300E+02  0.23068325178E+02  0.62241118723E+02  0.81590175980E+02  0.10000000000E+01 0.  0.
<mgrwt>
<rscale>  0 0.12500172E+03</rscale>
<asrwt>0</asrwt>
<pdfrwt beam="1">  1        4 0.47715848E-01 0.12500172E+03</pdfrwt>
<pdfrwt beam="2">  1       -4 0.19376824E-02 0.12500172E+03</pdfrwt>
<totfact> 0.72827709E+03</totfact>
</mgrwt>
</event>
<event>
 5    1  0.3183609E-002  0.1249978E+03  0.7818608E-02  0.1235073E+00
          4   -1    0    0  501    0  0.00000000000E+00  0.00000000000E+00  0.44538293389E+03  0.44538474458E+03  0.12700000000E+01 0. -1.
         -4   -1    0    0    0  501 -0.00000000000E+00 -0.00000000000E+00 -0.87224135820E+01  0.88143858944E+01  0.12700000000E+01 0. -1.
         25    2    1    2    0    0  0.00000000000E+00  0.00000000000E+00  0.43666052031E+03  0.45419913047E+03  0.12499776048E+03 0.  0.
    9000005    1    3    3    0    0  0.53124288561E+02 -0.21900472593E+02  0.30757998304E+03  0.31290296692E+03  0.10000000000E+01 0.  0.
    9000005    1    3    3    0    0 -0.53124288561E+02  0.21900472593E+02  0.12908053727E+03  0.14129616356E+03  0.10000000000E+01 0.  0.
<mgrwt>
<rscale>  0 0.12499776E+03</rscale>
<asrwt>0</asrwt>
<pdfrwt beam="1">  1        4 0.68527658E-01 0.12499776E+03</pdfrwt>
<pdfrwt beam="2">  1       -4 0.13491240E-02 0.12499776E+03</pdfrwt>
<totfact> 0.59604685E+03</totfact>
</mgrwt>
</event>
<event>
 5    1  0.3183609E-002  0.1249968E+03  0.7818608E-02  0.1235074E+00
          4   -1    0    0  501    0  0.00000000000E+00  0.00000000000E+00  0.24501299184E+02  0.24534191687E+02  0.12700000000E+01 0.  1.
         -4   -1    0    0    0  501 -0.00000000000E+00 -0.00000000000E+00 -0.15927974999E+03  0.15928481301E+03  0.12700000000E+01 0.  1.
         25    2    1    2    0    0  0.00000000000E+00  0.00000000000E+00 -0.13477845080E+03  0.18381900470E+03  0.12499678271E+03 0.  0.
    9000005    1    3    3    0    0 -0.58882804087E+02  0.13056732243E+02 -0.91436227788E+02  0.10954107278E+03  0.10000000000E+01 0.  0.
    9000005    1    3    3    0    0  0.58882804087E+02 -0.13056732243E+02 -0.43342223016E+02  0.74277931918E+02  0.10000000000E+01 0.  0.
<mgrwt>
<rscale>  0 0.12499678E+03</rscale>
<asrwt>0</asrwt>
<pdfrwt beam="1">  1        4 0.37723504E-02 0.12499678E+03</pdfrwt>
<pdfrwt beam="2">  1       -4 0.24507496E-01 0.12499678E+03</pdfrwt>
<totfact> 0.92940754E+03</totfact>
</mgrwt>
</event>
<event>
 5    1  0.3183609E-002  0.1250025E+03  0.7818608E-02  0.1235065E+00
          4   -1    0    0  501    0  0.00000000000E+00  0.00000000000E+00  0.20806080671E+02  0.20844804938E+02  0.12700000000E+01 0. -1.
         -4   -1    0    0    0  501 -0.00000000000E+00 -0.00000000000E+00 -0.18753753666E+03  0.18754183682E+03  0.12700000000E+01 0. -1.
         25    2    1    2    0    0  0.00000000000E+00  0.00000000000E+00 -0.16673145599E+03  0.20838664175E+03  0.12500245616E+03 0.  0.
    9000005    1    3    3    0    0 -0.26139493856E+02 -0.51956425602E+02 -0.45253788609E+02  0.73699719700E+02  0.10000000000E+01 0.  0.
    9000005    1    3    3    0    0  0.26139493856E+02  0.51956425602E+02 -0.12147766738E+03  0.13468692205E+03  0.10000000000E+01 0.  0.
<mgrwt>
<rscale>  0 0.12500246E+03</rscale>
<asrwt>0</asrwt>
<pdfrwt beam="1">  1        4 0.32042452E-02 0.12500246E+03</pdfrwt>
<pdfrwt beam="2">  1       -4 0.28855237E-01 0.12500246E+03</pdfrwt>
<totfact> 0.88735170E+03</totfact>
</mgrwt>
</event>
<event>
 5    1  0.3183609E-002  0.1249993E+03  0.7818608E-02  0.1235070E+00
         -4   -1    0    0    0  501 -0.00000000000E+00  0.00000000000E+00  0.53266473289E+03  0.53266624688E+03  0.12700000000E+01 0.  1.
          4   -1    0    0  501    0  0.00000000000E+00 -0.00000000000E+00 -0.72768142675E+01  0.73868075569E+01  0.12700000000E+01 0.  1.
         25    2    1    2    0    0  0.00000000000E+00  0.00000000000E+00  0.52538791862E+03  0.54005305444E+03  0.12499934628E+03 0.  0.
    9000005    1    3    3    0    0 -0.55125712590E+02 -0.12949247383E+02  0.14849334351E+03  0.15892702811E+03  0.10000000000E+01 0.  0.
    9000005    1    3    3    0    0  0.55125712590E+02  0.12949247383E+02  0.37689457511E+03  0.38112602632E+03  0.10000000000E+01 0.  0.
<mgrwt>
<rscale>  0 0.12499935E+03</rscale>
<asrwt>0</asrwt>
<pdfrwt beam="2">  1        4 0.11280872E-02 0.12499935E+03</pdfrwt>
<pdfrwt beam="1">  1       -4 0.81957013E-01 0.12499935E+03</pdfrwt>
<totfact> 0.52886118E+03</totfact>
</mgrwt>
</event>
<event>
 5    1  0.3183609E-002  0.1249990E+03  0.7818608E-02  0.1235071E+00
         -4   -1    0    0    0  501 -0.00000000000E+00  0.00000000000E+00  0.74028653465E+02  0.74039546419E+02  0.12700000000E+01 0.  1.
          4   -1    0    0  501    0  0.00000000000E+00 -0.00000000000E+00 -0.52743461070E+02  0.52758748901E+02  0.12700000000E+01 0.  1.
         25    2    1    2    0    0  0.00000000000E+00  0.00000000000E+00  0.21285192395E+02  0.12679829532E+03  0.12499899312E+03 0.  0.
    9000005    1    3    3    0    0  0.18010058286E+01 -0.55875287056E+02  0.38971200328E+02  0.68154572705E+02  0.10000000000E+01 0.  0.
    9000005    1    3    3    0    0 -0.18010058286E+01  0.55875287056E+02 -0.17686007933E+02  0.58643722615E+02  0.10000000000E+01 0.  0.
<mgrwt>
<rscale>  0 0.12499899E+03</rscale>
<asrwt>0</asrwt>
<pdfrwt beam="2">  1        4 0.81163925E-02 0.12499899E+03</pdfrwt>
<pdfrwt beam="1">  1       -4 0.11391037E-01 0.12499899E+03</pdfrwt>
<totfact> 0.10413768E+04</totfact>
</mgrwt>
</event>
<event>
 5    1  0.3183609E-002  0.1249961E+03  0.7818608E-02  0.1235075E+00
         -4   -1    0    0    0  501 -0.00000000000E+00  0.00000000000E+00  0.14477980573E+03  0.14478537580E+03  0.12700000000E+01 0. -1.
          4   -1    0    0  501    0  0.00000000000E+00 -0.00000000000E+00 -0.26957912597E+02  0.26987811167E+02  0.12700000000E+01 0. -1.
         25    2    1    2    0    0  0.00000000000E+00  0.00000000000E+00  0.11782189313E+03  0.17177318697E+03  0.12499611698E+03 0.  0.
    9000005    1    3    3    0    0  0.97381701195E+01 -0.54826467213E+02  0.19939185967E+02  0.59155258442E+02  0.10000000000E+01 0.  0.
    9000005    1    3    3    0    0 -0.97381701195E+01  0.54826467213E+02  0.97882707164E+02  0.11261792853E+03  0.10000000000E+01 0.  0.
<mgrwt>
<rscale>  0 0.12499612E+03</rscale>
<asrwt>0</asrwt>
<pdfrwt beam="2">  1        4 0.41500995E-02 0.12499612E+03</pdfrwt>
<pdfrwt beam="1">  1       -4 0.22276545E-01 0.12499612E+03</pdfrwt>
<totfact> 0.95127457E+03</totfact>
</mgrwt>
</event>
<event>
 5    1  0.3183609E-002  0.1250000E+03  0.7818608E-02  0.1235069E+00
          4   -1    0    0  501    0  0.00000000000E+00  0.00000000000E+00  0.84375520869E+03  0.84375616448E+03  0.12700000000E+01 0. -1.
         -4   -1    0    0    0  501 -0.00000000000E+00 -0.00000000000E+00 -0.45415264179E+01  0.47157568009E+01  0.12700000000E+01 0. -1.
         25    2    1    2    0    0  0.00000000000E+00  0.00000000000E+00  0.83921368227E+03  0.84847192128E+03  0.12499998673E+03 0.  0.
    9000005    1    3    3    0    0 -0.15442701182E+01 -0.24668602777E+02  0.80919943440E+03  0.80957745113E+03  0.10000000000E+01 0.  0.
    9000005    1    3    3    0    0  0.15442701182E+01  0.24668602777E+02  0.30014247867E+02  0.38894470149E+02  0.10000000000E+01 0.  0.
<mgrwt>
<rscale>  0 0.12499999E+03</rscale>
<asrwt>0</asrwt>
<pdfrwt beam="1">  1        4 0.12982201E+00 0.12499999E+03</pdfrwt>
<pdfrwt beam="2">  1       -4 0.71217203E-03 0.12499999E+03</pdfrwt>
<totfact> 0.36189935E+03</totfact>
</mgrwt>
</event>
<event>
 5    1  0.3183609E-002  0.1250026E+03  0.7818608E-02  0.1235065E+00
         -4   -1    0    0    0  501 -0.00000000000E+00  0.00000000000E+00  0.12288720140E+02  0.12354171064E+02  0.12700000000E+01 0. -1.
          4   -1    0    0  501    0  0.00000000000E+00 -0.00000000000E+00 -0.31697525681E+03  0.31697780101E+03  0.12700000000E+01 0. -1.
         25    2    1    2    0    0  0.00000000000E+00  0.00000000000E+00 -0.30468653667E+03  0.32933197207E+03  0.12500264877E+03 0.  0.
    9000005    1    3    3    0    0 -0.31960134058E+02  0.27234541385E+02 -0.30402406029E+02  0.51850522715E+02  0.10000000000E+01 0.  0.
    9000005    1    3    3    0    0  0.31960134058E+02 -0.27234541385E+02 -0.27428413065E+03  0.27748144936E+03  0.10000000000E+01 0.  0.
<mgrwt>
<rscale>  0 0.12500265E+03</rscale>
<asrwt>0</asrwt>
<pdfrwt beam="2">  1        4 0.48770648E-01 0.12500265E+03</pdfrwt>
<pdfrwt beam="1">  1       -4 0.18958030E-02 0.12500265E+03</pdfrwt>
<totfact> 0.72055561E+03</totfact>
</mgrwt>
</event>
<event>
 5    1  0.3183609E-002  0.1250022E+03  0.7818608E-02  0.1235066E+00
         -4   -1    0    0    0  501 -0.00000000000E+00  0.00000000000E+00  0.47154372588E+02  0.47171471826E+02  0.12700000000E+01 0. -1.
          4   -1    0    0  501    0  0.00000000000E+00 -0.00000000000E+00 -0.82805509398E+02  0.82815247911E+02  0.12700000000E+01 0. -1.
         25    2    1    2    0    0  0.00000000000E+00  0.00000000000E+00 -0.35651136809E+02  0.12998671974E+03  0.12500217499E+03 0.  0.
    9000005    1    3    3    0    0  0.52650633748E+02 -0.12009098289E+02  0.14878120528E+02  0.56023799819E+02  0.10000000000E+01 0.  0.
    9000005    1    3    3    0    0 -0.52650633748E+02  0.12009098289E+02 -0.50529257337E+02  0.73962919918E+02  0.10000000000E+01 0.  0.
<mgrwt>
<rscale>  0 0.12500217E+03</rscale>
<asrwt>0</asrwt>
<pdfrwt beam="2">  1        4 0.12741374E-01 0.12500217E+03</pdfrwt>
<pdfrwt beam="1">  1       -4 0.72565833E-02 0.12500217E+03</pdfrwt>
<totfact> 0.10344284E+04</totfact>
</mgrwt>
</event>
<event>
 5    1  0.3183609E-002  0.1250000E+03  0.7818608E-02  0.1235069E+00
         -4   -1    0    0    0  501 -0.00000000000E+00  0.00000000000E+00  0.18684049178E+03  0.18684480798E+03  0.12700000000E+01 0.  1.
          4   -1    0    0  501    0  0.00000000000E+00 -0.00000000000E+00 -0.20883009375E+02  0.20921591253E+02  0.12700000000E+01 0.  1.
         25    2    1    2    0    0  0.00000000000E+00  0.00000000000E+00  0.16595748241E+03  0.20776639923E+03  0.12499996274E+03 0.  0.
    9000005    1    3    3    0    0 -0.28270653045E+02  0.48494007444E+01  0.17526075303E+03  0.17759526476E+03  0.10000000000E+01 0.  0.
    9000005    1    3    3    0    0  0.28270653045E+02 -0.48494007444E+01 -0.93032706264E+01  0.30171134475E+02  0.10000000000E+01 0.  0.
<mgrwt>
<rscale>  0 0.12499996E+03</rscale>
<asrwt>0</asrwt>
<pdfrwt beam="2">  1        4 0.32160705E-02 0.12499996E+03</pdfrwt>
<pdfrwt beam="1">  1       -4 0.28747991E-01 0.12499996E+03</pdfrwt>
<totfact> 0.88842034E+03</totfact>
</mgrwt>
</event>
<event>
 5    1  0.3183609E-002  0.1249498E+03  0.7818608E-02  0.1235148E+00
          4   -1    0    0  501    0  0.00000000000E+00  0.00000000000E+00  0.58406292472E+01  0.59771105062E+01  0.12700000000E+01 0.  1.
         -4   -1    0    0    0  501 -0.00000000000E+00 -0.00000000000E+00 -0.66041431079E+03  0.66041553191E+03  0.12700000000E+01 0.  1.
         25    2    1    2    0    0  0.00000000000E+00  0.00000000000E+00 -0.65457368154E+03  0.66639264242E+03  0.12494978714E+03 0.  0.
    9000005    1    3    3    0    0  0.58604830682E+02 -0.13044623300E+02 -0.23530912042E+03  0.24284989300E+03  0.10000000000E+01 0.  0.
    9000005    1    3    3    0    0 -0.58604830682E+02  0.13044623300E+02 -0.41926456112E+03  0.42354274942E+03  0.10000000000E+01 0.  0.
<mgrwt>
<rscale>  0 0.12494979E+03</rscale>
<asrwt>0</asrwt>
<pdfrwt beam="1">  1        4 0.90915136E-03 0.12494979E+03</pdfrwt>
<pdfrwt beam="2">  1       -4 0.10161274E+00 0.12494979E+03</pdfrwt>
<totfact> 0.44970528E+03</totfact>
</mgrwt>
</event>
<event>
 5    1  0.3183609E-002  0.1250000E+03  0.7818608E-02  0.1235069E+00
         -4   -1    0    0    0  501 -0.00000000000E+00  0.00000000000E+00  0.89181691405E+03  0.89181781833E+03  0.12700000000E+01 0.  1.
          4   -1    0    0  501    0  0.00000000000E+00 -0.00000000000E+00 -0.42871225305E+01  0.44712771768E+01  0.12700000000E+01 0.  1.
         25    2    1    2    0    0  0.00000000000E+00  0.00000000000E+00  0.88752979152E+03  0.89628909551E+03  0.12500004754E+03 0.  0.
    9000005    1    3    3    0    0  0.14561616146E+02  0.13520594584E+02  0.86859628533E+03  0.86882412146E+03  0.10000000000E+01 0.  0.
    9000005    1    3    3    0    0 -0.14561616146E+02 -0.13520594584E+02  0.18933506196E+02  0.27464974050E+02  0.10000000000E+01 0.  0.
<mgrwt>
<rscale>  0 0.12500005E+03</rscale>
<asrwt>0</asrwt>
<pdfrwt beam="2">  1        4 0.67379236E-03 0.12500005E+03</pdfrwt>
<pdfrwt beam="1">  1       -4 0.13721689E+00 0.12500005E+03</pdfrwt>
<totfact> 0.34302360E+03</totfact>
</mgrwt>
</event>
<event>
 5    1  0.3183609E-002  0.1250106E+03  0.7818608E-02  0.1235053E+00
          4   -1    0    0  501    0  0.00000000000E+00  0.00000000000E+00  0.28236076117E+03  0.28236361725E+03  0.12700000000E+01 0.  1.
         -4   -1    0    0    0  501 -0.00000000000E+00 -0.00000000000E+00 -0.13804514480E+02  0.13862810683E+02  0.12700000000E+01 0.  1.
         25    2    1    2    0    0  0.00000000000E+00  0.00000000000E+00  0.26855624669E+03  0.29622642794E+03  0.12501055544E+03 0.  0.
    9000005    1    3    3    0    0 -0.17885610622E+02  0.12967168916E+02  0.27281159231E+03  0.27370642564E+03  0.10000000000E+01 0.  0.
    9000005    1    3    3    0    0  0.17885610622E+02 -0.12967168916E+02 -0.42553456226E+01  0.22520002296E+02  0.10000000000E+01 0.  0.
<mgrwt>
<rscale>  0 0.12501056E+03</rscale>
<asrwt>0</asrwt>
<pdfrwt beam="1">  1        4 0.43444819E-01 0.12501056E+03</pdfrwt>
<pdfrwt beam="2">  1       -4 0.21284756E-02 0.12501056E+03</pdfrwt>
<totfact> 0.76056812E+03</totfact>
</mgrwt>
</event>
<event>
 5    1  0.3183609E-002  0.1250013E+03  0.7818608E-02  0.1235067E+00
          4   -1    0    0  501    0  0.00000000000E+00  0.00000000000E+00  0.11793115820E+03  0.11793799631E+03  0.12700000000E+01 0.  1.
         -4   -1    0    0    0  501 -0.00000000000E+00 -0.00000000000E+00 -0.33103861205E+02  0.33128213454E+02  0.12700000000E+01 0.  1.
         25    2    1    2    0    0  0.00000000000E+00  0.00000000000E+00  0.84827296993E+02  0.15106620977E+03  0.12500131766E+03 0.  0.
    9000005    1    3    3    0    0  0.60040084706E+02 -0.15332524099E+02  0.52189518806E+02  0.81022490334E+02  0.10000000000E+01 0.  0.
    9000005    1    3    3    0    0 -0.60040084706E+02  0.15332524099E+02  0.32637778187E+02  0.70043719431E+02  0.10000000000E+01 0.  0.
<mgrwt>
<rscale>  0 0.12500132E+03</rscale>
<asrwt>0</asrwt>
<pdfrwt beam="1">  1        4 0.18145655E-01 0.12500132E+03</pdfrwt>
<pdfrwt beam="2">  1       -4 0.50953009E-02 0.12500132E+03</pdfrwt>
<totfact> 0.99088650E+03</totfact>
</mgrwt>
</event>
<event>
 5    1  0.3183609E-002  0.1249946E+03  0.7818608E-02  0.1235078E+00
         -4   -1    0    0    0  501 -0.00000000000E+00  0.00000000000E+00  0.10733071975E+02  0.10807947725E+02  0.12700000000E+01 0.  1.
          4   -1    0    0  501    0  0.00000000000E+00 -0.00000000000E+00 -0.36257268362E+03  0.36257490785E+03  0.12700000000E+01 0.  1.
         25    2    1    2    0    0  0.00000000000E+00  0.00000000000E+00 -0.35183961164E+03  0.37338285558E+03  0.12499457796E+03 0.  0.
    9000005    1    3    3    0    0 -0.38427323360E+02  0.28315987837E+02 -0.29639134587E+03  0.30021206547E+03  0.10000000000E+01 0.  0.
    9000005    1    3    3    0    0  0.38427323360E+02 -0.28315987837E+02 -0.55448265769E+02  0.73170790106E+02  0.10000000000E+01 0.  0.
<mgrwt>
<rscale>  0 0.12499458E+03</rscale>
<asrwt>0</asrwt>
<pdfrwt beam="2">  1        4 0.55786334E-01 0.12499458E+03</pdfrwt>
<pdfrwt beam="1">  1       -4 0.16571729E-02 0.12499458E+03</pdfrwt>
<totfact> 0.67234568E+03</totfact>
</mgrwt>
</event>
<event>
 5    1  0.3183609E-002  0.1250016E+03  0.7818608E-02  0.1235067E+00
          4   -1    0    0  501    0  0.00000000000E+00  0.00000000000E+00  0.16510162920E+02  0.16558936549E+02  0.12700000000E+01 0. -1.
         -4   -1    0    0    0  501 -0.00000000000E+00 -0.00000000000E+00 -0.23620322638E+03  0.23620664057E+03  0.12700000000E+01 0. -1.
         25    2    1    2    0    0  0.00000000000E+00  0.00000000000E+00 -0.21969306346E+03  0.25276557712E+03  0.12500157938E+03 0.  0.
    9000005    1    3    3    0    0  0.90827995570E+01 -0.53579328801E+02 -0.47452175867E+02  0.72152274511E+02  0.10000000000E+01 0.  0.
    9000005    1    3    3    0    0 -0.90827995570E+01  0.53579328801E+02 -0.17224088759E+03  0.18061330261E+03  0.10000000000E+01 0.  0.
<mgrwt>
<rscale>  0 0.12500158E+03</rscale>
<asrwt>0</asrwt>
<pdfrwt beam="1">  1        4 0.25440397E-02 0.12500158E+03</pdfrwt>
<pdfrwt beam="2">  1       -4 0.36342970E-01 0.12500158E+03</pdfrwt>
<totfact> 0.81929271E+03</totfact>
</mgrwt>
</event>
<event>
 5    1  0.3183609E-002  0.1249984E+03  0.7818608E-02  0.1235072E+00
         -4   -1    0    0    0  501 -0.00000000000E+00  0.00000000000E+00  0.26706246359E+03  0.26706548328E+03  0.12700000000E+01 0.  1.
          4   -1    0    0  501    0  0.00000000000E+00 -0.00000000000E+00 -0.14595672350E+02  0.14650820842E+02  0.12700000000E+01 0.  1.
         25    2    1    2    0    0  0.00000000000E+00  0.00000000000E+00  0.25246679124E+03  0.28171630412E+03  0.12499838130E+03 0.  0.
    9000005    1    3    3    0    0 -0.45562997633E+02 -0.18596423344E+02  0.21303489608E+03  0.21864738887E+03  0.10000000000E+01 0.  0.
    9000005    1    3    3    0    0  0.45562997633E+02  0.18596423344E+02  0.39431895167E+02  0.63068915252E+02  0.10000000000E+01 0.  0.
<mgrwt>
<rscale>  0 0.12499838E+03</rscale>
<asrwt>0</asrwt>
<pdfrwt beam="2">  1        4 0.22499626E-02 0.12499838E+03</pdfrwt>
<pdfrwt beam="1">  1       -4 0.41091006E-01 0.12499838E+03</pdfrwt>
<totfact> 0.77953889E+03</totfact>
</mgrwt>
</event>
<event>
 5    1  0.3183609E-002  0.1250025E+03  0.7818608E-02  0.1235065E+00
         -4   -1    0    0    0  501 -0.00000000000E+00  0.00000000000E+00  0.46463893809E+02  0.46481247057E+02  0.12700000000E+01 0.  1.
          4   -1    0    0  501    0  0.00000000000E+00 -0.00000000000E+00 -0.84036198027E+02  0.84045793939E+02  0.12700000000E+01 0.  1.
         25    2    1    2    0    0  0.00000000000E+00  0.00000000000E+00 -0.37572304218E+02  0.13052704100E+03  0.12500252152E+03 0.  0.
    9000005    1    3    3    0    0  0.39781825143E+02 -0.24865217555E+01  0.31472422721E+02  0.50796552974E+02  0.10000000000E+01 0.  0.
    9000005    1    3    3    0    0 -0.39781825143E+02  0.24865217555E+01 -0.69044726939E+02  0.79730488022E+02  0.10000000000E+01 0.  0.
<mgrwt>
<rscale>  0 0.12500252E+03</rscale>
<asrwt>0</asrwt>
<pdfrwt beam="2">  1        4 0.12930719E-01 0.12500252E+03</pdfrwt>
<pdfrwt beam="1">  1       -4 0.71503644E-02 0.12500252E+03</pdfrwt>
<totfact> 0.10332652E+04</totfact>
</mgrwt>
</event>
<event>
 5    1  0.3183609E-002  0.1250022E+03  0.7818608E-02  0.1235066E+00
          4   -1    0    0  501    0  0.00000000000E+00  0.00000000000E+00  0.26886769273E+02  0.26916746868E+02  0.12700000000E+01 0. -1.
         -4   -1    0    0    0  501 -0.00000000000E+00 -0.00000000000E+00 -0.14517658943E+03  0.14518214428E+03  0.12700000000E+01 0. -1.
         25    2    1    2    0    0  0.00000000000E+00  0.00000000000E+00 -0.11828982016E+03  0.17209889115E+03  0.12500218711E+03 0.  0.
    9000005    1    3    3    0    0  0.13781920612E+02  0.60933283913E+02 -0.61356441744E+02  0.87569511633E+02  0.10000000000E+01 0.  0.
    9000005    1    3    3    0    0 -0.13781920612E+02 -0.60933283913E+02 -0.56933378412E+02  0.84529379517E+02  0.10000000000E+01 0.  0.
<mgrwt>
<rscale>  0 0.12500219E+03</rscale>
<asrwt>0</asrwt>
<pdfrwt beam="1">  1        4 0.41391594E-02 0.12500219E+03</pdfrwt>
<pdfrwt beam="2">  1       -4 0.22337593E-01 0.12500219E+03</pdfrwt>
<totfact> 0.95054208E+03</totfact>
</mgrwt>
</event>
<event>
 5    1  0.3183609E-002  0.1249986E+03  0.7818608E-02  0.1235071E+00
          4   -1    0    0  501    0  0.00000000000E+00  0.00000000000E+00  0.13467777776E+04  0.13467783764E+04  0.12700000000E+01 0.  1.
         -4   -1    0    0    0  501 -0.00000000000E+00 -0.00000000000E+00 -0.27607250452E+01  0.30388324691E+01  0.12700000000E+01 0.  1.
         25    2    1    2    0    0  0.00000000000E+00  0.00000000000E+00  0.13440170525E+04  0.13498172088E+04  0.12499863919E+03 0.  0.
    9000005    1    3    3    0    0  0.56393151694E+02 -0.21606201901E+02  0.49850621602E+03  0.50215183255E+03  0.10000000000E+01 0.  0.
    9000005    1    3    3    0    0 -0.56393151694E+02  0.21606201901E+02  0.84551083651E+03  0.84766537629E+03  0.10000000000E+01 0.  0.
<mgrwt>
<rscale>  0 0.12499864E+03</rscale>
<asrwt>0</asrwt>
<pdfrwt beam="1">  1        4 0.20721809E+00 0.12499864E+03</pdfrwt>
<pdfrwt beam="2">  1       -4 0.44616572E-03 0.12499864E+03</pdfrwt>
<totfact> 0.21082967E+03</totfact>
</mgrwt>
</event>
<event>
 5    1  0.3183609E-002  0.1250002E+03  0.7818608E-02  0.1235069E+00
         -4   -1    0    0    0  501 -0.00000000000E+00  0.00000000000E+00  0.20184728689E+03  0.20185128220E+03  0.12700000000E+01 0.  1.
          4   -1    0    0  501    0  0.00000000000E+00 -0.00000000000E+00 -0.19327530165E+02  0.19369210677E+02  0.12700000000E+01 0.  1.
         25    2    1    2    0    0  0.00000000000E+00  0.00000000000E+00  0.18251975672E+03  0.22122049287E+03  0.12500017949E+03 0.  0.
    9000005    1    3    3    0    0 -0.26456707079E+02  0.56220743245E+02  0.10306988986E+03  0.12035419193E+03  0.10000000000E+01 0.  0.
    9000005    1    3    3    0    0  0.26456707079E+02 -0.56220743245E+02  0.79449866867E+02  0.10086630094E+03  0.10000000000E+01 0.  0.
<mgrwt>
<rscale>  0 0.12500018E+03</rscale>
<asrwt>0</asrwt>
<pdfrwt beam="2">  1        4 0.29769798E-02 0.12500018E+03</pdfrwt>
<pdfrwt beam="1">  1       -4 0.31056942E-01 0.12500018E+03</pdfrwt>
<totfact> 0.86675243E+03</totfact>
</mgrwt>
</event>
<event>
 5    1  0.3183609E-002  0.1249953E+03  0.7818608E-02  0.1235077E+00
         -4   -1    0    0    0  501 -0.00000000000E+00  0.00000000000E+00  0.12642319721E+02  0.12705949313E+02  0.12700000000E+01 0.  1.
          4   -1    0    0  501    0  0.00000000000E+00 -0.00000000000E+00 -0.30811845659E+03  0.30812107392E+03  0.12700000000E+01 0.  1.
         25    2    1    2    0    0  0.00000000000E+00  0.00000000000E+00 -0.29547613687E+03  0.32082702323E+03  0.12499532541E+03 0.  0.
    9000005    1    3    3    0    0  0.64082671574E+00 -0.54905866286E+02 -0.71170285260E+02  0.89895908224E+02  0.10000000000E+01 0.  0.
    9000005    1    3    3    0    0 -0.64082671574E+00  0.54905866286E+02 -0.22430585161E+03  0.23093111501E+03  0.10000000000E+01 0.  0.
<mgrwt>
<rscale>  0 0.12499533E+03</rscale>
<asrwt>0</asrwt>
<pdfrwt beam="2">  1        4 0.47407930E-01 0.12499533E+03</pdfrwt>
<pdfrwt beam="1">  1       -4 0.19500684E-02 0.12499533E+03</pdfrwt>
<totfact> 0.73065442E+03</totfact>
</mgrwt>
</event>
<event>
 5    1  0.3183609E-002  0.1250023E+03  0.7818608E-02  0.1235066E+00
          4   -1    0    0  501    0  0.00000000000E+00  0.00000000000E+00  0.38102728822E+01  0.40163515081E+01  0.12700000000E+01 0.  1.
         -4   -1    0    0    0  501 -0.00000000000E+00 -0.00000000000E+00 -0.99802619538E+03  0.99802700343E+03  0.12700000000E+01 0.  1.
         25    2    1    2    0    0  0.00000000000E+00  0.00000000000E+00 -0.99421592250E+03  0.10020433549E+04  0.12500233844E+03 0.  0.
    9000005    1    3    3    0    0 -0.40863863963E+02 -0.44117120659E+02 -0.36078065081E+03  0.36575928384E+03  0.10000000000E+01 0.  0.
    9000005    1    3    3    0    0  0.40863863963E+02  0.44117120659E+02 -0.63343527169E+03  0.63628407110E+03  0.10000000000E+01 0.  0.
<mgrwt>
<rscale>  0 0.12500234E+03</rscale>
<asrwt>0</asrwt>
<pdfrwt beam="1">  1        4 0.60211098E-03 0.12500234E+03</pdfrwt>
<pdfrwt beam="2">  1       -4 0.15355820E+00 0.12500234E+03</pdfrwt>
<totfact> 0.30535595E+03</totfact>
</mgrwt>
</event>
<event>
 5    1  0.3183609E-002  0.1249999E+03  0.7818608E-02  0.1235069E+00
          4   -1    0    0  501    0  0.00000000000E+00  0.00000000000E+00  0.67155030896E+03  0.67155150983E+03  0.12700000000E+01 0.  1.
         -4   -1    0    0    0  501 -0.00000000000E+00 -0.00000000000E+00 -0.57462155395E+01  0.58848868321E+01  0.12700000000E+01 0.  1.
         25    2    1    2    0    0  0.00000000000E+00  0.00000000000E+00  0.66580409342E+03  0.67743639667E+03  0.12499992287E+03 0.  0.
    9000005    1    3    3    0    0  0.25927163447E+02 -0.49902654544E+02  0.48060215920E+03  0.48388214284E+03  0.10000000000E+01 0.  0.
    9000005    1    3    3    0    0 -0.25927163447E+02  0.49902654544E+02  0.18520193422E+03  0.19355425383E+03  0.10000000000E+01 0.  0.
<mgrwt>
<rscale>  0 0.12499992E+03</rscale>
<asrwt>0</asrwt>
<pdfrwt beam="1">  1        4 0.10332617E+00 0.12499992E+03</pdfrwt>
<pdfrwt beam="2">  1       -4 0.89479272E-03 0.12499992E+03</pdfrwt>
<totfact> 0.44304946E+03</totfact>
</mgrwt>
</event>
<event>
 5    1  0.3183609E-002  0.1249996E+03  0.7818608E-02  0.1235070E+00
          4   -1    0    0  501    0  0.00000000000E+00  0.00000000000E+00  0.57407504542E+02  0.57421550638E+02  0.12700000000E+01 0.  1.
         -4   -1    0    0    0  501 -0.00000000000E+00 -0.00000000000E+00 -0.68015560584E+02  0.68027416397E+02  0.12700000000E+01 0.  1.
         25    2    1    2    0    0  0.00000000000E+00  0.00000000000E+00 -0.10608056043E+02  0.12544896703E+03  0.12499964991E+03 0.  0.
    9000005    1    3    3    0    0  0.23924540626E+02 -0.23947674167E+02 -0.58022395611E+02  0.67182387086E+02  0.10000000000E+01 0.  0.
    9000005    1    3    3    0    0 -0.23924540626E+02  0.23947674167E+02  0.47414339569E+02  0.58266579948E+02  0.10000000000E+01 0.  0.
<mgrwt>
<rscale>  0 0.12499965E+03</rscale>
<asrwt>0</asrwt>
<pdfrwt beam="1">  1        4 0.88339162E-02 0.12499965E+03</pdfrwt>
<pdfrwt beam="2">  1       -4 0.10465925E-01 0.12499965E+03</pdfrwt>
<totfact> 0.10443165E+04</totfact>
</mgrwt>
</event>
<event>
 5    1  0.3183609E-002  0.1250008E+03  0.7818608E-02  0.1235068E+00
          4   -1    0    0  501    0  0.00000000000E+00  0.00000000000E+00  0.57143642059E+03  0.57143783186E+03  0.12700000000E+01 0.  1.
         -4   -1    0    0    0  501 -0.00000000000E+00 -0.00000000000E+00 -0.67755133910E+01  0.68935101154E+01  0.12700000000E+01 0.  1.
         25    2    1    2    0    0  0.00000000000E+00  0.00000000000E+00  0.56466090720E+03  0.57833134197E+03  0.12500080395E+03 0.  0.
    9000005    1    3    3    0    0 -0.17688444088E+02 -0.58382323724E+02  0.21958496608E+03  0.22790334378E+03  0.10000000000E+01 0.  0.
    9000005    1    3    3    0    0  0.17688444088E+02  0.58382323724E+02  0.34507594112E+03  0.35042799820E+03  0.10000000000E+01 0.  0.
<mgrwt>
<rscale>  0 0.12500080E+03</rscale>
<asrwt>0</asrwt>
<pdfrwt beam="1">  1        4 0.87922517E-01 0.12500080E+03</pdfrwt>
<pdfrwt beam="2">  1       -4 0.10515715E-02 0.12500080E+03</pdfrwt>
<totfact> 0.50263699E+03</totfact>
</mgrwt>
</event>
<event>
 5    1  0.3183609E-002  0.1249999E+03  0.7818608E-02  0.1235069E+00
         -4   -1    0    0    0  501 -0.00000000000E+00  0.00000000000E+00  0.51210488180E+03  0.51210645657E+03  0.12700000000E+01 0. -1.
          4   -1    0    0  501    0  0.00000000000E+00 -0.00000000000E+00 -0.75733627717E+01  0.76791095624E+01  0.12700000000E+01 0. -1.
         25    2    1    2    0    0  0.00000000000E+00  0.00000000000E+00  0.50453151903E+03  0.51978556614E+03  0.12499992428E+03 0.  0.
    9000005    1    3    3    0    0 -0.21760777321E+02 -0.47464227149E+02  0.10949286583E+03  0.12130981805E+03  0.10000000000E+01 0.  0.
    9000005    1    3    3    0    0  0.21760777321E+02  0.47464227149E+02  0.39503865320E+03  0.39847574808E+03  0.10000000000E+01 0.  0.
<mgrwt>
<rscale>  0 0.12499992E+03</rscale>
<asrwt>0</asrwt>
<pdfrwt beam="2">  1        4 0.11733880E-02 0.12499992E+03</pdfrwt>
<pdfrwt beam="1">  1       -4 0.78793639E-01 0.12499992E+03</pdfrwt>
<totfact> 0.54361358E+03</totfact>
</mgrwt>
</event>
<event>
 5    1  0.3183609E-002  0.1249983E+03  0.7818608E-02  0.1235072E+00
         -4   -1    0    0    0  501 -0.00000000000E+00  0.00000000000E+00  0.23426423727E+03  0.23426767972E+03  0.12700000000E+01 0. -1.
          4   -1    0    0  501    0  0.00000000000E+00 -0.00000000000E+00 -0.16646345315E+02  0.16694721093E+02  0.12700000000E+01 0. -1.
         25    2    1    2    0    0  0.00000000000E+00  0.00000000000E+00  0.21761789195E+03  0.25096240082E+03  0.12499831889E+03 0.  0.
    9000005    1    3    3    0    0  0.39909418844E+02  0.47640049025E+02  0.95672685098E+02  0.11409030922E+03  0.10000000000E+01 0.  0.
    9000005    1    3    3    0    0 -0.39909418844E+02 -0.47640049025E+02  0.12194520686E+03  0.13687209160E+03  0.10000000000E+01 0.  0.
<mgrwt>
<rscale>  0 0.12499832E+03</rscale>
<asrwt>0</asrwt>
<pdfrwt beam="2">  1        4 0.25649623E-02 0.12499832E+03</pdfrwt>
<pdfrwt beam="1">  1       -4 0.36044636E-01 0.12499832E+03</pdfrwt>
<totfact> 0.82194408E+03</totfact>
</mgrwt>
</event>
<event>
 5    1  0.3183609E-002  0.1249997E+03  0.7818608E-02  0.1235070E+00
          4   -1    0    0  501    0  0.00000000000E+00  0.00000000000E+00  0.47544216961E+01  0.49211203668E+01  0.12700000000E+01 0. -1.
         -4   -1    0    0    0  501 -0.00000000000E+00 -0.00000000000E+00 -0.80727723545E+03  0.80727823442E+03  0.12700000000E+01 0. -1.
         25    2    1    2    0    0  0.00000000000E+00  0.00000000000E+00 -0.80252281375E+03  0.81219935479E+03  0.12499970131E+03 0.  0.
    9000005    1    3    3    0    0  0.16177159524E+02  0.60324356192E+02 -0.41504934796E+03  0.41972334899E+03  0.10000000000E+01 0.  0.
    9000005    1    3    3    0    0 -0.16177159524E+02 -0.60324356192E+02 -0.38747346579E+03  0.39247600580E+03  0.10000000000E+01 0.  0.
<mgrwt>
<rscale>  0 0.12499970E+03</rscale>
<asrwt>0</asrwt>
<pdfrwt beam="1">  1        4 0.74434995E-03 0.12499970E+03</pdfrwt>
<pdfrwt beam="2">  1       -4 0.12420929E+00 0.12499970E+03</pdfrwt>
<totfact> 0.37726160E+03</totfact>
</mgrwt>
</event>
<event>
 5    1  0.3183609E-002  0.1249963E+03  0.7818608E-02  0.1235075E+00
         -4   -1    0    0    0  501 -0.00000000000E+00  0.00000000000E+00  0.15274418862E+03  0.15274946827E+03  0.12700000000E+01 0. -1.
          4   -1    0    0  501    0  0.00000000000E+00 -0.00000000000E+00 -0.25550776910E+02  0.25582320080E+02  0.12700000000E+01 0. -1.
         25    2    1    2    0    0  0.00000000000E+00  0.00000000000E+00  0.12719341171E+03  0.17833178835E+03  0.12499625096E+03 0.  0.
    9000005    1    3    3    0    0  0.10984946730E+02  0.60858974329E+02  0.50793589578E+02  0.80034196149E+02  0.10000000000E+01 0.  0.
    9000005    1    3    3    0    0 -0.10984946730E+02 -0.60858974329E+02  0.76399822131E+02  0.98297592202E+02  0.10000000000E+01 0.  0.
<mgrwt>
<rscale>  0 0.12499625E+03</rscale>
<asrwt>0</asrwt>
<pdfrwt beam="2">  1        4 0.39337212E-02 0.12499625E+03</pdfrwt>
<pdfrwt beam="1">  1       -4 0.23501939E-01 0.12499625E+03</pdfrwt>
<totfact> 0.93926047E+03</totfact>
</mgrwt>
</event>
<event>
 5    1  0.3183609E-002  0.1249443E+03  0.7818608E-02  0.1235156E+00
         -4   -1    0    0    0  501 -0.00000000000E+00  0.00000000000E+00  0.23809226573E+03  0.23809565284E+03  0.12700000000E+01 0. -1.
          4   -1    0    0  501    0  0.00000000000E+00 -0.00000000000E+00 -0.16363740696E+02  0.16412949448E+02  0.12700000000E+01 0. -1.
         25    2    1    2    0    0  0.00000000000E+00  0.00000000000E+00  0.22172852504E+03  0.25450860229E+03  0.12494434691E+03 0.  0.
    9000005    1    3    3    0    0 -0.92224713867E+01 -0.48642950584E+02  0.33282976906E+02  0.59665292857E+02  0.10000000000E+01 0.  0.
    9000005    1    3    3    0    0  0.92224713867E+01  0.48642950584E+02  0.18844554813E+03  0.19484330943E+03  0.10000000000E+01 0.  0.
<mgrwt>
<rscale>  0 0.12494435E+03</rscale>
<asrwt>0</asrwt>
<pdfrwt beam="2">  1        4 0.25215446E-02 0.12494435E+03</pdfrwt>
<pdfrwt beam="1">  1       -4 0.36633622E-01 0.12494435E+03</pdfrwt>
<totfact> 0.81784247E+03</totfact>
</mgrwt>
</event>
<event>
 5    1  0.3183609E-002  0.1250012E+03  0.7818608E-02  0.1235067E+00
         -4   -1    0    0    0  501 -0.00000000000E+00  0.00000000000E+00  0.39259001985E+02  0.39279538399E+02  0.12700000000E+01 0. -1.
          4   -1    0    0  501    0  0.00000000000E+00 -0.00000000000E+00 -0.99450722433E+02  0.99458831143E+02  0.12700000000E+01 0. -1.
         25    2    1    2    0    0  0.00000000000E+00  0.00000000000E+00 -0.60191720448E+02  0.13873836954E+03  0.12500116789E+03 0.  0.
    9000005    1    3    3    0    0 -0.56712061257E+02  0.16914785562E+02 -0.52375638297E+02  0.79035279146E+02  0.10000000000E+01 0.  0.
    9000005    1    3    3    0    0  0.56712061257E+02 -0.16914785562E+02 -0.78160821506E+01  0.59703090396E+02  0.10000000000E+01 0.  0.
<mgrwt>
<rscale>  0 0.12500117E+03</rscale>
<asrwt>0</asrwt>
<pdfrwt beam="2">  1        4 0.15302315E-01 0.12500117E+03</pdfrwt>
<pdfrwt beam="1">  1       -4 0.60420500E-02 0.12500117E+03</pdfrwt>
<totfact> 0.10159533E+04</totfact>
</mgrwt>
</event>
<event>
 5    1  0.3183609E-002  0.1249985E+03  0.7818608E-02  0.1235072E+00
          4   -1    0    0  501    0  0.00000000000E+00  0.00000000000E+00  0.27644977843E+03  0.27645269558E+03  0.12700000000E+01 0. -1.
         -4   -1    0    0    0  501 -0.00000000000E+00 -0.00000000000E+00 -0.14098175469E+02  0.14155262328E+02  0.12700000000E+01 0. -1.
         25    2    1    2    0    0  0.00000000000E+00  0.00000000000E+00  0.26235160296E+03  0.29060795790E+03  0.12499848649E+03 0.  0.
    9000005    1    3    3    0    0  0.14608662716E+02 -0.43775265267E+02  0.22913816116E+03  0.23374127529E+03  0.10000000000E+01 0.  0.
    9000005    1    3    3    0    0 -0.14608662716E+02  0.43775265267E+02  0.33213441800E+02  0.56866682616E+02  0.10000000000E+01 0.  0.
<mgrwt>
<rscale>  0 0.12499849E+03</rscale>
<asrwt>0</asrwt>
<pdfrwt beam="1">  1        4 0.42535349E-01 0.12499849E+03</pdfrwt>
<pdfrwt beam="2">  1       -4 0.21735658E-02 0.12499849E+03</pdfrwt>
<totfact> 0.76794849E+03</totfact>
</mgrwt>
</event>
<event>
 5    1  0.3183609E-002  0.1249988E+03  0.7818608E-02  0.1235071E+00
         -4   -1    0    0    0  501 -0.00000000000E+00  0.00000000000E+00  0.60108445982E+02  0.60121861069E+02  0.12700000000E+01 0.  1.
          4   -1    0    0  501    0  0.00000000000E+00 -0.00000000000E+00 -0.64958555236E+02  0.64970968889E+02  0.12700000000E+01 0.  1.
         25    2    1    2    0    0  0.00000000000E+00  0.00000000000E+00 -0.48501092541E+01  0.12509282996E+03  0.12499877018E+03 0.  0.
    9000005    1    3    3    0    0 -0.11285804562E+01 -0.62179824538E+02  0.37089020669E+01  0.62308588717E+02  0.10000000000E+01 0.  0.
    9000005    1    3    3    0    0  0.11285804562E+01  0.62179824538E+02 -0.85590113210E+01  0.62784241241E+02  0.10000000000E+01 0.  0.
<mgrwt>
<rscale>  0 0.12499877E+03</rscale>
<asrwt>0</asrwt>
<pdfrwt beam="2">  1        4 0.99956107E-02 0.12499877E+03</pdfrwt>
<pdfrwt beam="1">  1       -4 0.92494401E-02 0.12499877E+03</pdfrwt>
<totfact> 0.10451137E+04</totfact>
</mgrwt>
</event>
<event>
 5    1  0.3183609E-002  0.1249967E+03  0.7818608E-02  0.1235074E+00
          4   -1    0    0  501    0  0.00000000000E+00  0.00000000000E+00  0.70302508904E+01  0.71440414040E+01  0.12700000000E+01 0.  1.
         -4   -1    0    0    0  501 -0.00000000000E+00 -0.00000000000E+00 -0.55103016108E+03  0.55103162461E+03  0.12700000000E+01 0.  1.
         25    2    1    2    0    0  0.00000000000E+00  0.00000000000E+00 -0.54399991019E+03  0.55817566602E+03  0.12499668733E+03 0.  0.
    9000005    1    3    3    0    0 -0.29997668611E+02 -0.21228924029E+02 -0.49769741812E+03  0.49905335120E+03  0.10000000000E+01 0.  0.
    9000005    1    3    3    0    0  0.29997668611E+02  0.21228924029E+02 -0.46302492074E+02  0.59122314822E+02  0.10000000000E+01 0.  0.
<mgrwt>
<rscale>  0 0.12499669E+03</rscale>
<asrwt>0</asrwt>
<pdfrwt beam="1">  1        4 0.10904432E-02 0.12499669E+03</pdfrwt>
<pdfrwt beam="2">  1       -4 0.84782703E-01 0.12499669E+03</pdfrwt>
<totfact> 0.51622560E+03</totfact>
</mgrwt>
</event>
<event>
 5    1  0.3183609E-002  0.1250032E+03  0.7818608E-02  0.1235064E+00
          4   -1    0    0  501    0  0.00000000000E+00  0.00000000000E+00  0.18476704093E+03  0.18477140556E+03  0.12700000000E+01 0. -1.
         -4   -1    0    0    0  501 -0.00000000000E+00 -0.00000000000E+00 -0.21118895160E+02  0.21157046882E+02  0.12700000000E+01 0. -1.
         25    2    1    2    0    0  0.00000000000E+00  0.00000000000E+00  0.16364814577E+03  0.20592845244E+03  0.12500324761E+03 0.  0.
    9000005    1    3    3    0    0  0.14703800935E+02 -0.16288576246E+02 -0.14571640156E+02  0.26360048841E+02  0.10000000000E+01 0.  0.
    9000005    1    3    3    0    0 -0.14703800935E+02  0.16288576246E+02  0.17821978592E+03  0.17956840360E+03  0.10000000000E+01 0.  0.
<mgrwt>
<rscale>  0 0.12500325E+03</rscale>
<asrwt>0</asrwt>
<pdfrwt beam="1">  1        4 0.28428970E-01 0.12500325E+03</pdfrwt>
<pdfrwt beam="2">  1       -4 0.32523311E-02 0.12500325E+03</pdfrwt>
<totfact> 0.89138689E+03</totfact>
</mgrwt>
</event>
<event>
 5    1  0.3183609E-002  0.1250020E+03  0.7818608E-02  0.1235066E+00
          4   -1    0    0  501    0  0.00000000000E+00  0.00000000000E+00  0.19293390189E+03  0.19293808177E+03  0.12700000000E+01 0. -1.
         -4   -1    0    0    0  501 -0.00000000000E+00 -0.00000000000E+00 -0.20222909415E+02  0.20262748215E+02  0.12700000000E+01 0. -1.
         25    2    1    2    0    0  0.00000000000E+00  0.00000000000E+00  0.17271099247E+03  0.21320082998E+03  0.12500202793E+03 0.  0.
    9000005    1    3    3    0    0  0.17232838066E+02  0.59837994470E+02  0.95351589688E+02  0.11388802372E+03  0.10000000000E+01 0.  0.
    9000005    1    3    3    0    0 -0.17232838066E+02 -0.59837994470E+02  0.77359402783E+02  0.99312806268E+02  0.10000000000E+01 0.  0.
<mgrwt>
<rscale>  0 0.12500203E+03</rscale>
<asrwt>0</asrwt>
<pdfrwt beam="1">  1        4 0.29685525E-01 0.12500203E+03</pdfrwt>
<pdfrwt beam="2">  1       -4 0.31146029E-02 0.12500203E+03</pdfrwt>
<totfact> 0.87951810E+03</totfact>
</mgrwt>
</event>
<event>
 5    1  0.3183609E-002  0.1250012E+03  0.7818608E-02  0.1235067E+00
          4   -1    0    0  501    0  0.00000000000E+00  0.00000000000E+00  0.65036076041E+03  0.65036200041E+03  0.12700000000E+01 0. -1.
         -4   -1    0    0    0  501 -0.00000000000E+00 -0.00000000000E+00 -0.59380075032E+01  0.60723004790E+01  0.12700000000E+01 0. -1.
         25    2    1    2    0    0  0.00000000000E+00  0.00000000000E+00  0.64442275290E+03  0.65643430089E+03  0.12500122769E+03 0.  0.
    9000005    1    3    3    0    0  0.60431914223E+02  0.15035074814E+02  0.34962812893E+03  0.35513222646E+03  0.10000000000E+01 0.  0.
    9000005    1    3    3    0    0 -0.60431914223E+02 -0.15035074814E+02  0.29479462398E+03  0.30130207443E+03  0.10000000000E+01 0.  0.
<mgrwt>
<rscale>  0 0.12500123E+03</rscale>
<asrwt>0</asrwt>
<pdfrwt beam="1">  1        4 0.10006595E+00 0.12500123E+03</pdfrwt>
<pdfrwt beam="2">  1       -4 0.92396506E-03 0.12500123E+03</pdfrwt>
<totfact> 0.45486897E+03</totfact>
</mgrwt>
</event>
<event>
 5    1  0.3183609E-002  0.1250046E+03  0.7818608E-02  0.1235062E+00
         -4   -1    0    0    0  501 -0.00000000000E+00  0.00000000000E+00  0.40188650544E+02  0.40208712147E+02  0.12700000000E+01 0.  1.
          4   -1    0    0  501    0  0.00000000000E+00 -0.00000000000E+00 -0.97156486192E+02  0.97164786364E+02  0.12700000000E+01 0.  1.
         25    2    1    2    0    0  0.00000000000E+00  0.00000000000E+00 -0.56967835649E+02  0.13737349851E+03  0.12500457510E+03 0.  0.
    9000005    1    3    3    0    0  0.21011678684E+02 -0.56866458363E+02 -0.11808450214E+02  0.61771548664E+02  0.10000000000E+01 0.  0.
    9000005    1    3    3    0    0 -0.21011678684E+02  0.56866458363E+02 -0.45159385435E+02  0.75601949848E+02  0.10000000000E+01 0.  0.
<mgrwt>
<rscale>  0 0.12500458E+03</rscale>
<asrwt>0</asrwt>
<pdfrwt beam="2">  1        4 0.14949333E-01 0.12500458E+03</pdfrwt>
<pdfrwt beam="1">  1       -4 0.61850510E-02 0.12500458E+03</pdfrwt>
<totfact> 0.10187231E+04</totfact>
</mgrwt>
</event>
<event>
 5    1  0.3183609E-002  0.1250014E+03  0.7818608E-02  0.1235067E+00
          4   -1    0    0  501    0  0.00000000000E+00  0.00000000000E+00  0.93401199682E+01  0.94260671025E+01  0.12700000000E+01 0. -1.
         -4   -1    0    0    0  501 -0.00000000000E+00 -0.00000000000E+00 -0.41622953017E+03  0.41623146767E+03  0.12700000000E+01 0. -1.
         25    2    1    2    0    0  0.00000000000E+00  0.00000000000E+00 -0.40688941020E+03  0.42565753478E+03  0.12500137912E+03 0.  0.
    9000005    1    3    3    0    0 -0.48376045880E+01 -0.36735611881E+02 -0.32082861666E+02  0.49022623462E+02  0.10000000000E+01 0.  0.
    9000005    1    3    3    0    0  0.48376045880E+01  0.36735611881E+02 -0.37480654853E+03  0.37663491131E+03  0.10000000000E+01 0.  0.
<mgrwt>
<rscale>  0 0.12500138E+03</rscale>
<asrwt>0</asrwt>
<pdfrwt beam="1">  1        4 0.14437022E-02 0.12500138E+03</pdfrwt>
<pdfrwt beam="2">  1       -4 0.64042059E-01 0.12500138E+03</pdfrwt>
<totfact> 0.62129708E+03</totfact>
</mgrwt>
</event>
<event>
 5    1  0.3183609E-002  0.1249981E+03  0.7818608E-02  0.1235072E+00
          4   -1    0    0  501    0  0.00000000000E+00  0.00000000000E+00  0.17514764550E+02  0.17560748197E+02  0.12700000000E+01 0.  1.
         -4   -1    0    0    0  501 -0.00000000000E+00 -0.00000000000E+00 -0.22267924173E+03  0.22268286327E+03  0.12700000000E+01 0.  1.
         25    2    1    2    0    0  0.00000000000E+00  0.00000000000E+00 -0.20516447718E+03  0.24024361147E+03  0.12499812062E+03 0.  0.
    9000005    1    3    3    0    0 -0.87347078818E+01  0.48598397035E+02 -0.28966895735E+02  0.57255395944E+02  0.10000000000E+01 0.  0.
    9000005    1    3    3    0    0  0.87347078818E+01 -0.48598397035E+02 -0.17619758144E+03  0.18298821553E+03  0.10000000000E+01 0.  0.
<mgrwt>
<rscale>  0 0.12499812E+03</rscale>
<asrwt>0</asrwt>
<pdfrwt beam="1">  1        4 0.26983951E-02 0.12499812E+03</pdfrwt>
<pdfrwt beam="2">  1       -4 0.34262159E-01 0.12499812E+03</pdfrwt>
<totfact> 0.83764609E+03</totfact>
</mgrwt>
</event>
<event>
 5    1  0.3183609E-002  0.1249971E+03  0.7818608E-02  0.1235074E+00
         -4   -1    0    0    0  501 -0.00000000000E+00  0.00000000000E+00  0.38821211213E+03  0.38821418947E+03  0.12700000000E+01 0.  1.
          4   -1    0    0  501    0  0.00000000000E+00 -0.00000000000E+00 -0.10019490958E+02  0.10099658363E+02  0.12700000000E+01 0.  1.
         25    2    1    2    0    0  0.00000000000E+00  0.00000000000E+00  0.37819262118E+03  0.39831384784E+03  0.12499705063E+03 0.  0.
    9000005    1    3    3    0    0 -0.53311789883E+02  0.22038096154E+02  0.26565671897E+03  0.27184980588E+03  0.10000000000E+01 0.  0.
    9000005    1    3    3    0    0  0.53311789883E+02 -0.22038096154E+02  0.11253590221E+03  0.12646404196E+03  0.10000000000E+01 0.  0.
<mgrwt>
<rscale>  0 0.12499705E+03</rscale>
<asrwt>0</asrwt>
<pdfrwt beam="2">  1        4 0.15477867E-02 0.12499705E+03</pdfrwt>
<pdfrwt beam="1">  1       -4 0.59731264E-01 0.12499705E+03</pdfrwt>
<totfact> 0.64721327E+03</totfact>
</mgrwt>
</event>
<event>
 5    1  0.3183609E-002  0.1250004E+03  0.7818608E-02  0.1235069E+00
         -4   -1    0    0    0  501 -0.00000000000E+00  0.00000000000E+00  0.57656019492E+02  0.57670005060E+02  0.12700000000E+01 0.  1.
          4   -1    0    0  501    0  0.00000000000E+00 -0.00000000000E+00 -0.67723202832E+02  0.67735109817E+02  0.12700000000E+01 0.  1.
         25    2    1    2    0    0  0.00000000000E+00  0.00000000000E+00 -0.10067183340E+02  0.12540511488E+03  0.12500037863E+03 0.  0.
    9000005    1    3    3    0    0  0.25719787326E+02 -0.55114455194E+02  0.93712775272E+01  0.61546173512E+02  0.10000000000E+01 0.  0.
    9000005    1    3    3    0    0 -0.25719787326E+02  0.55114455194E+02 -0.19438460868E+02  0.63858941366E+02  0.10000000000E+01 0.  0.
<mgrwt>
<rscale>  0 0.12500038E+03</rscale>
<asrwt>0</asrwt>
<pdfrwt beam="2">  1        4 0.10420946E-01 0.12500038E+03</pdfrwt>
<pdfrwt beam="1">  1       -4 0.88721486E-02 0.12500038E+03</pdfrwt>
<totfact> 0.10443964E+04</totfact>
</mgrwt>
</event>
<event>
 5    1  0.3183609E-002  0.1249950E+03  0.7818608E-02  0.1235077E+00
         -4   -1    0    0    0  501 -0.00000000000E+00  0.00000000000E+00  0.48377597253E+02  0.48394264288E+02  0.12700000000E+01 0. -1.
          4   -1    0    0  501    0  0.00000000000E+00 -0.00000000000E+00 -0.80703053312E+02  0.80713045500E+02  0.12700000000E+01 0. -1.
         25    2    1    2    0    0  0.00000000000E+00  0.00000000000E+00 -0.32325456059E+02  0.12910730979E+03  0.12499504923E+03 0.  0.
    9000005    1    3    3    0    0  0.39949353607E+02 -0.18721203755E+02 -0.61873704826E+02  0.75998616254E+02  0.10000000000E+01 0.  0.
    9000005    1    3    3    0    0 -0.39949353607E+02  0.18721203755E+02  0.29548248767E+02  0.53108693534E+02  0.10000000000E+01 0.  0.
<mgrwt>
<rscale>  0 0.12499505E+03</rscale>
<asrwt>0</asrwt>
<pdfrwt beam="2">  1        4 0.12417905E-01 0.12499505E+03</pdfrwt>
<pdfrwt beam="1">  1       -4 0.74447580E-02 0.12499505E+03</pdfrwt>
<totfact> 0.10364800E+04</totfact>
</mgrwt>
</event>
<event>
 5    1  0.3183609E-002  0.1250010E+03  0.7818608E-02  0.1235068E+00
         -4   -1    0    0    0  501 -0.00000000000E+00  0.00000000000E+00  0.18049693543E+02  0.18094317810E+02  0.12700000000E+01 0.  1.
          4   -1    0    0  501    0  0.00000000000E+00 -0.00000000000E+00 -0.21610602354E+03  0.21610975524E+03  0.12700000000E+01 0.  1.
         25    2    1    2    0    0  0.00000000000E+00  0.00000000000E+00 -0.19805632999E+03  0.23420407305E+03  0.12500095192E+03 0.  0.
    9000005    1    3    3    0    0 -0.70686991788E+01 -0.60266992162E+02 -0.71034486278E+02  0.93428984224E+02  0.10000000000E+01 0.  0.
    9000005    1    3    3    0    0  0.70686991788E+01  0.60266992162E+02 -0.12702184372E+03  0.14077508882E+03  0.10000000000E+01 0.  0.
<mgrwt>
<rscale>  0 0.12500095E+03</rscale>
<asrwt>0</asrwt>
<pdfrwt beam="2">  1        4 0.33250798E-01 0.12500095E+03</pdfrwt>
<pdfrwt beam="1">  1       -4 0.27805958E-02 0.12500095E+03</pdfrwt>
<totfact> 0.84666414E+03</totfact>
</mgrwt>
</event>
<event>
 5    1  0.3183609E-002  0.1249960E+03  0.7818608E-02  0.1235076E+00
         -4   -1    0    0    0  501 -0.00000000000E+00  0.00000000000E+00  0.12988331157E+03  0.12988952045E+03  0.12700000000E+01 0.  1.
          4   -1    0    0  501    0  0.00000000000E+00 -0.00000000000E+00 -0.30052802669E+02  0.30079625135E+02  0.12700000000E+01 0.  1.
         25    2    1    2    0    0  0.00000000000E+00  0.00000000000E+00  0.99830508897E+02  0.15996914559E+03  0.12499598807E+03 0.  0.
    9000005    1    3    3    0    0 -0.23127463856E+02 -0.57872338478E+02  0.44062785608E+02  0.76332275093E+02  0.10000000000E+01 0.  0.
    9000005    1    3    3    0    0  0.23127463856E+02  0.57872338478E+02  0.55767723290E+02  0.83636870495E+02  0.10000000000E+01 0.  0.
<mgrwt>
<rscale>  0 0.12499599E+03</rscale>
<asrwt>0</asrwt>
<pdfrwt beam="2">  1        4 0.46260489E-02 0.12499599E+03</pdfrwt>
<pdfrwt beam="1">  1       -4 0.19984589E-01 0.12499599E+03</pdfrwt>
<totfact> 0.97357513E+03</totfact>
</mgrwt>
</event>
<event>
 5    1  0.3183609E-002  0.1249942E+03  0.7818608E-02  0.1235078E+00
         -4   -1    0    0    0  501 -0.00000000000E+00  0.00000000000E+00  0.10791212355E+02  0.10865687465E+02  0.12700000000E+01 0. -1.
          4   -1    0    0  501    0  0.00000000000E+00 -0.00000000000E+00 -0.36063045727E+03  0.36063269349E+03  0.12700000000E+01 0. -1.
         25    2    1    2    0    0  0.00000000000E+00  0.00000000000E+00 -0.34983924492E+03  0.37149838095E+03  0.12499419893E+03 0.  0.
    9000005    1    3    3    0    0  0.18160315721E+02 -0.27047042740E+02 -0.16431274495E+02  0.36501046144E+02  0.10000000000E+01 0.  0.
    9000005    1    3    3    0    0 -0.18160315721E+02  0.27047042740E+02 -0.33340797042E+03  0.33499733481E+03  0.10000000000E+01 0.  0.
<mgrwt>
<rscale>  0 0.12499420E+03</rscale>
<asrwt>0</asrwt>
<pdfrwt beam="2">  1        4 0.55487500E-01 0.12499420E+03</pdfrwt>
<pdfrwt beam="1">  1       -4 0.16660877E-02 0.12499420E+03</pdfrwt>
<totfact> 0.67431120E+03</totfact>
</mgrwt>
</event>
<event>
 5    1  0.3183609E-002  0.1249993E+03  0.7818608E-02  0.1235070E+00
          4   -1    0    0  501    0  0.00000000000E+00  0.00000000000E+00  0.35665067894E+03  0.35665294010E+03  0.12700000000E+01 0.  1.
         -4   -1    0    0    0  501 -0.00000000000E+00 -0.00000000000E+00 -0.10913348443E+02  0.10986995687E+02  0.12700000000E+01 0.  1.
         25    2    1    2    0    0  0.00000000000E+00  0.00000000000E+00  0.34573733049E+03  0.36763993579E+03  0.12499928277E+03 0.  0.
    9000005    1    3    3    0    0 -0.34813133012E+02 -0.37241698333E+02  0.27916976616E+03  0.28378804883E+03  0.10000000000E+01 0.  0.
    9000005    1    3    3    0    0  0.34813133012E+02  0.37241698333E+02  0.66567564337E+02  0.83851886959E+02  0.10000000000E+01 0.  0.
<mgrwt>
<rscale>  0 0.12499928E+03</rscale>
<asrwt>0</asrwt>
<pdfrwt beam="1">  1        4 0.54875173E-01 0.12499928E+03</pdfrwt>
<pdfrwt beam="2">  1       -4 0.16848158E-02 0.12499928E+03</pdfrwt>
<totfact> 0.67827643E+03</totfact>
</mgrwt>
</event>
<event>
 5    1  0.3183609E-002  0.1249985E+03  0.7818608E-02  0.1235072E+00
          4   -1    0    0  501    0  0.00000000000E+00  0.00000000000E+00  0.15056917890E+02  0.15110383065E+02  0.12700000000E+01 0. -1.
         -4   -1    0    0    0  501 -0.00000000000E+00 -0.00000000000E+00 -0.25891105391E+03  0.25891416867E+03  0.12700000000E+01 0. -1.
         25    2    1    2    0    0  0.00000000000E+00  0.00000000000E+00 -0.24385413602E+03  0.27402455173E+03  0.12499846118E+03 0.  0.
    9000005    1    3    3    0    0  0.38342240210E+02 -0.45232222215E+01 -0.22964907367E+03  0.23287396583E+03  0.10000000000E+01 0.  0.
    9000005    1    3    3    0    0 -0.38342240210E+02  0.45232222215E+01 -0.14205062346E+02  0.41150585899E+02  0.10000000000E+01 0.  0.
<mgrwt>
<rscale>  0 0.12499846E+03</rscale>
<asrwt>0</asrwt>
<pdfrwt beam="1">  1        4 0.23208014E-02 0.12499846E+03</pdfrwt>
<pdfrwt beam="2">  1       -4 0.39836819E-01 0.12499846E+03</pdfrwt>
<totfact> 0.78979840E+03</totfact>
</mgrwt>
</event>
<event>
 5    1  0.3183609E-002  0.1249944E+03  0.7818608E-02  0.1235078E+00
         -4   -1    0    0    0  501 -0.00000000000E+00  0.00000000000E+00  0.33295459831E+03  0.33295702041E+03  0.12700000000E+01 0.  1.
          4   -1    0    0  501    0  0.00000000000E+00 -0.00000000000E+00 -0.11694178257E+02  0.11762937775E+02  0.12700000000E+01 0.  1.
         25    2    1    2    0    0  0.00000000000E+00  0.00000000000E+00  0.32126042006E+03  0.34471995818E+03  0.12499436817E+03 0.  0.
    9000005    1    3    3    0    0  0.33141760550E+02  0.15484616523E+02  0.20907297199E+02  0.42145755627E+02  0.10000000000E+01 0.  0.
    9000005    1    3    3    0    0 -0.33141760550E+02 -0.15484616523E+02  0.30035312286E+03  0.30257420255E+03  0.10000000000E+01 0.  0.
<mgrwt>
<rscale>  0 0.12499437E+03</rscale>
<asrwt>0</asrwt>
<pdfrwt beam="2">  1        4 0.18045797E-02 0.12499437E+03</pdfrwt>
<pdfrwt beam="1">  1       -4 0.51229265E-01 0.12499437E+03</pdfrwt>
<totfact> 0.70318118E+03</totfact>
</mgrwt>
</event>
<event>
 5    1  0.3183609E-002  0.1250076E+03  0.7818608E-02  0.1235057E+00
         -4   -1    0    0    0  501 -0.00000000000E+00  0.00000000000E+00  0.16894834887E+03  0.16895312215E+03  0.12700000000E+01 0. -1.
          4   -1    0    0  501    0  0.00000000000E+00 -0.00000000000E+00 -0.23101243325E+02  0.23136126364E+02  0.12700000000E+01 0. -1.
         25    2    1    2    0    0  0.00000000000E+00  0.00000000000E+00  0.14584710554E+03  0.19208924852E+03  0.12500760457E+03 0.  0.
    9000005    1    3    3    0    0 -0.30990058944E+02  0.27620032879E+01 -0.10362311789E+02  0.32808381873E+02  0.10000000000E+01 0.  0.
    9000005    1    3    3    0    0  0.30990058944E+02 -0.27620032879E+01  0.15620941733E+03  0.15928086664E+03  0.10000000000E+01 0.  0.
<mgrwt>
<rscale>  0 0.12500760E+03</rscale>
<asrwt>0</asrwt>
<pdfrwt beam="2">  1        4 0.35570880E-02 0.12500760E+03</pdfrwt>
<pdfrwt beam="1">  1       -4 0.25995104E-01 0.12500760E+03</pdfrwt>
<totfact> 0.91469479E+03</totfact>
</mgrwt>
</event>
<event>
 5    1  0.3183609E-002  0.1249788E+03  0.7818608E-02  0.1235102E+00
          4   -1    0    0  501    0  0.00000000000E+00  0.00000000000E+00  0.30316145411E+02  0.30342735088E+02  0.12700000000E+01 0. -1.
         -4   -1    0    0    0  501 -0.00000000000E+00 -0.00000000000E+00 -0.12872055411E+03  0.12872681908E+03  0.12700000000E+01 0. -1.
         25    2    1    2    0    0  0.00000000000E+00  0.00000000000E+00 -0.98404408696E+02  0.15906955416E+03  0.12497877984E+03 0.  0.
    9000005    1    3    3    0    0  0.33237994346E+02  0.51834950303E+02 -0.62689840761E+02  0.87878566646E+02  0.10000000000E+01 0.  0.
    9000005    1    3    3    0    0 -0.33237994346E+02 -0.51834950303E+02 -0.35714567935E+02  0.71190987519E+02  0.10000000000E+01 0.  0.
<mgrwt>
<rscale>  0 0.12497878E+03</rscale>
<asrwt>0</asrwt>
<pdfrwt beam="1">  1        4 0.46665497E-02 0.12497878E+03</pdfrwt>
<pdfrwt beam="2">  1       -4 0.19805689E-01 0.12497878E+03</pdfrwt>
<totfact> 0.97569003E+03</totfact>
</mgrwt>
</event>
<event>
 5    1  0.3183609E-002  0.1250025E+03  0.7818608E-02  0.1235065E+00
         -4   -1    0    0    0  501 -0.00000000000E+00  0.00000000000E+00  0.51076908036E+01  0.52632124549E+01  0.12700000000E+01 0. -1.
          4   -1    0    0  501    0  0.00000000000E+00 -0.00000000000E+00 -0.75318415666E+03  0.75318522738E+03  0.12700000000E+01 0. -1.
         25    2    1    2    0    0  0.00000000000E+00  0.00000000000E+00 -0.74807646586E+03  0.75844843984E+03  0.12500254845E+03 0.  0.
    9000005    1    3    3    0    0 -0.41409472612E+02 -0.37565324412E+02 -0.54344017761E+03  0.54630955022E+03  0.10000000000E+01 0.  0.
    9000005    1    3    3    0    0  0.41409472612E+02  0.37565324412E+02 -0.20463628825E+03  0.21213888962E+03  0.10000000000E+01 0.  0.
<mgrwt>
<rscale>  0 0.12500255E+03</rscale>
<asrwt>0</asrwt>
<pdfrwt beam="2">  1        4 0.11588644E+00 0.12500255E+03</pdfrwt>
<pdfrwt beam="1">  1       -4 0.79784475E-03 0.12500255E+03</pdfrwt>
<totfact> 0.40171060E+03</totfact>
</mgrwt>
</event>
<event>
 5    1  0.3183609E-002  0.1250007E+03  0.7818608E-02  0.1235068E+00
          4   -1    0    0  501    0  0.00000000000E+00  0.00000000000E+00  0.55908611396E+03  0.55908755640E+03  0.12700000000E+01 0.  1.
         -4   -1    0    0    0  501 -0.00000000000E+00 -0.00000000000E+00 -0.69277562376E+01  0.70432028572E+01  0.12700000000E+01 0.  1.
         25    2    1    2    0    0  0.00000000000E+00  0.00000000000E+00  0.55215835773E+03  0.56613075926E+03  0.12500073830E+03 0.  0.
    9000005    1    3    3    0    0  0.12352411061E+02 -0.57920452622E+02  0.36642548090E+03  0.37118188795E+03  0.10000000000E+01 0.  0.
    9000005    1    3    3    0    0 -0.12352411061E+02  0.57920452622E+02  0.18573287683E+03  0.19494887131E+03  0.10000000000E+01 0.  0.
<mgrwt>
<rscale>  0 0.12500074E+03</rscale>
<asrwt>0</asrwt>
<pdfrwt beam="1">  1        4 0.86022217E-01 0.12500074E+03</pdfrwt>
<pdfrwt beam="2">  1       -4 0.10748004E-02 0.12500074E+03</pdfrwt>
<totfact> 0.51076973E+03</totfact>
</mgrwt>
</event>
<event>
 5    1  0.3183609E-002  0.1250015E+03  0.7818608E-02  0.1235067E+00
         -4   -1    0    0    0  501 -0.00000000000E+00  0.00000000000E+00  0.10742986735E+03  0.10743737384E+03  0.12700000000E+01 0.  1.
          4   -1    0    0  501    0  0.00000000000E+00 -0.00000000000E+00 -0.36341936622E+02  0.36364120468E+02  0.12700000000E+01 0.  1.
         25    2    1    2    0    0  0.00000000000E+00  0.00000000000E+00  0.71087930724E+02  0.14380149431E+03  0.12500150348E+03 0.  0.
    9000005    1    3    3    0    0 -0.83473178925E+01 -0.21924342019E+02  0.10217763690E+03  0.10484094607E+03  0.10000000000E+01 0.  0.
    9000005    1    3    3    0    0  0.83473178925E+01  0.21924342019E+02 -0.31089706180E+02  0.38960548242E+02  0.10000000000E+01 0.  0.
<mgrwt>
<rscale>  0 0.12500150E+03</rscale>
<asrwt>0</asrwt>
<pdfrwt beam="2">  1        4 0.55933512E-02 0.12500150E+03</pdfrwt>
<pdfrwt beam="1">  1       -4 0.16529955E-01 0.12500150E+03</pdfrwt>
<totfact> 0.10055056E+04</totfact>
</mgrwt>
</event>
<event>
 5    1  0.3183609E-002  0.1249981E+03  0.7818608E-02  0.1235072E+00
          4   -1    0    0  501    0  0.00000000000E+00  0.00000000000E+00  0.81214755384E+01  0.82201742634E+01  0.12700000000E+01 0.  1.
         -4   -1    0    0    0  501 -0.00000000000E+00 -0.00000000000E+00 -0.47795851683E+03  0.47796020410E+03  0.12700000000E+01 0.  1.
         25    2    1    2    0    0  0.00000000000E+00  0.00000000000E+00 -0.46983704129E+03  0.48618037837E+03  0.12499805976E+03 0.  0.
    9000005    1    3    3    0    0  0.60507899702E+02  0.15575064861E+02 -0.23041581955E+03  0.23873884994E+03  0.10000000000E+01 0.  0.
    9000005    1    3    3    0    0 -0.60507899702E+02 -0.15575064861E+02 -0.23942122174E+03  0.24744152843E+03  0.10000000000E+01 0.  0.
<mgrwt>
<rscale>  0 0.12499806E+03</rscale>
<asrwt>0</asrwt>
<pdfrwt beam="1">  1        4 0.12571801E-02 0.12499806E+03</pdfrwt>
<pdfrwt beam="2">  1       -4 0.73539780E-01 0.12499806E+03</pdfrwt>
<totfact> 0.56955211E+03</totfact>
</mgrwt>
</event>
<event>
 5    1  0.3183609E-002  0.1250047E+03  0.7818608E-02  0.1235062E+00
          4   -1    0    0  501    0  0.00000000000E+00  0.00000000000E+00  0.45423394068E+01  0.47165397577E+01  0.12700000000E+01 0.  1.
         -4   -1    0    0    0  501 -0.00000000000E+00 -0.00000000000E+00 -0.84367341614E+03  0.84367437202E+03  0.12700000000E+01 0.  1.
         25    2    1    2    0    0  0.00000000000E+00  0.00000000000E+00 -0.83913107674E+03  0.84839091178E+03  0.12500470089E+03 0.  0.
    9000005    1    3    3    0    0 -0.24223661981E+02  0.27502473414E+02 -0.76311616858E+03  0.76399637342E+03  0.10000000000E+01 0.  0.
    9000005    1    3    3    0    0  0.24223661981E+02 -0.27502473414E+02 -0.76014908156E+02  0.84394538364E+02  0.10000000000E+01 0.  0.
<mgrwt>
<rscale>  0 0.12500470E+03</rscale>
<asrwt>0</asrwt>
<pdfrwt beam="1">  1        4 0.71229567E-03 0.12500470E+03</pdfrwt>
<pdfrwt beam="2">  1       -4 0.12980926E+00 0.12500470E+03</pdfrwt>
<totfact> 0.36189575E+03</totfact>
</mgrwt>
</event>
<event>
 5    1  0.3183609E-002  0.1249996E+03  0.7818608E-02  0.1235070E+00
         -4   -1    0    0    0  501 -0.00000000000E+00  0.00000000000E+00  0.30271953867E+03  0.30272220267E+03  0.12700000000E+01 0. -1.
          4   -1    0    0  501    0  0.00000000000E+00 -0.00000000000E+00 -0.12869795780E+02  0.12932306191E+02  0.12700000000E+01 0. -1.
         25    2    1    2    0    0  0.00000000000E+00  0.00000000000E+00  0.28984974289E+03  0.31565450886E+03  0.12499958206E+03 0.  0.
    9000005    1    3    3    0    0  0.55920165859E+01  0.60672444290E+02  0.17998921076E+03  0.19002508291E+03  0.10000000000E+01 0.  0.
    9000005    1    3    3    0    0 -0.55920165859E+01 -0.60672444290E+02  0.10986053213E+03  0.12562942595E+03  0.10000000000E+01 0.  0.
<mgrwt>
<rscale>  0 0.12499958E+03</rscale>
<asrwt>0</asrwt>
<pdfrwt beam="2">  1        4 0.19849821E-02 0.12499958E+03</pdfrwt>
<pdfrwt beam="1">  1       -4 0.46577248E-01 0.12499958E+03</pdfrwt>
<totfact> 0.73676644E+03</totfact>
</mgrwt>
</event>
<event>
 5    1  0.3183609E-002  0.1249854E+03  0.7818608E-02  0.1235092E+00
          4   -1    0    0  501    0  0.00000000000E+00  0.00000000000E+00  0.54727769373E+01  0.56182014386E+01  0.12700000000E+01 0. -1.
         -4   -1    0    0    0  501 -0.00000000000E+00 -0.00000000000E+00 -0.70409129149E+03  0.70409243686E+03  0.12700000000E+01 0. -1.
         25    2    1    2    0    0  0.00000000000E+00  0.00000000000E+00 -0.69861851455E+03  0.70971063830E+03  0.12498544414E+03 0.  0.
    9000005    1    3    3    0    0 -0.22935233346E+02 -0.53658752987E+02 -0.22245779482E+03  0.22998642824E+03  0.10000000000E+01 0.  0.
    9000005    1    3    3    0    0  0.22935233346E+02  0.53658752987E+02 -0.47616071973E+03  0.47972421006E+03  0.10000000000E+01 0.  0.
<mgrwt>
<rscale>  0 0.12498544E+03</rscale>
<asrwt>0</asrwt>
<pdfrwt beam="1">  1        4 0.85324085E-03 0.12498544E+03</pdfrwt>
<pdfrwt beam="2">  1       -4 0.10833294E+00 0.12498544E+03</pdfrwt>
<totfact> 0.42592604E+03</totfact>
</mgrwt>
</event>
<event>
 5    1  0.3183609E-002  0.1250003E+03  0.7818608E-02  0.1235069E+00
         -4   -1    0    0    0  501 -0.00000000000E+00  0.00000000000E+00  0.58343264169E+02  0.58357085036E+02  0.12700000000E+01 0.  1.
          4   -1    0    0  501    0  0.00000000000E+00 -0.00000000000E+00 -0.66925423287E+02  0.66937472182E+02  0.12700000000E+01 0.  1.
         25    2    1    2    0    0  0.00000000000E+00  0.00000000000E+00 -0.85821591177E+01  0.12529455722E+03  0.12500029045E+03 0.  0.
    9000005    1    3    3    0    0  0.38330867121E+01  0.46214297921E+02  0.37698039382E+02  0.59771197573E+02  0.10000000000E+01 0.  0.
    9000005    1    3    3    0    0 -0.38330867121E+01 -0.46214297921E+02 -0.46280198500E+02  0.65523359646E+02  0.10000000000E+01 0.  0.
<mgrwt>
<rscale>  0 0.12500029E+03</rscale>
<asrwt>0</asrwt>
<pdfrwt beam="2">  1        4 0.10298209E-01 0.12500029E+03</pdfrwt>
<pdfrwt beam="1">  1       -4 0.89778767E-02 0.12500029E+03</pdfrwt>
<totfact> 0.10446400E+04</totfact>
</mgrwt>
</event>
<event>
 5    1  0.3183609E-002  0.1250009E+03  0.7818608E-02  0.1235068E+00
         -4   -1    0    0    0  501 -0.00000000000E+00  0.00000000000E+00  0.54277021211E+02  0.54291877215E+02  0.12700000000E+01 0.  1.
          4   -1    0    0  501    0  0.00000000000E+00 -0.00000000000E+00 -0.71939490055E+02  0.71950699298E+02  0.12700000000E+01 0.  1.
         25    2    1    2    0    0  0.00000000000E+00  0.00000000000E+00 -0.17662468844E+02  0.12624257651E+03  0.12500090127E+03 0.  0.
    9000005    1    3    3    0    0 -0.19035372187E+02  0.43129117886E+02 -0.50261158234E+02  0.68917706222E+02  0.10000000000E+01 0.  0.
    9000005    1    3    3    0    0  0.19035372187E+02 -0.43129117886E+02  0.32598689390E+02  0.57324870291E+02  0.10000000000E+01 0.  0.
<mgrwt>
<rscale>  0 0.12500090E+03</rscale>
<asrwt>0</asrwt>
<pdfrwt beam="2">  1        4 0.11069619E-01 0.12500090E+03</pdfrwt>
<pdfrwt beam="1">  1       -4 0.83523159E-02 0.12500090E+03</pdfrwt>
<totfact> 0.10425436E+04</totfact>
</mgrwt>
</event>
<event>
 4    1  0.3183609E-002  0.1255108E+03  0.7818608E-02  0.1234273E+00
         -4   -1    0    0    0  501 -0.00000000000E+00  0.00000000000E+00  0.56157413378E+02  0.56171772068E+02  0.12700000000E+01 0. -1.
          4   -1    0    0  501    0  0.00000000000E+00 -0.00000000000E+00 -0.70099559359E+02  0.70111062767E+02  0.12700000000E+01 0. -1.
    9000005    1    1    2    0    0  0.39271420029E+02 -0.34381784525E+02  0.28069726666E+02  0.59272768565E+02  0.10000000000E+01 0.  0.
    9000005    1    1    2    0    0 -0.39271420029E+02  0.34381784525E+02 -0.42011872647E+02  0.67010066270E+02  0.10000000000E+01 0.  0.
<mgrwt>
<rscale>  0 0.12551084E+03</rscale>
<asrwt>0</asrwt>
<pdfrwt beam="2">  1        4 0.10786537E-01 0.12551084E+03</pdfrwt>
<pdfrwt beam="1">  1       -4 0.86415914E-02 0.12551084E+03</pdfrwt>
<totfact> 0.10305500E+04</totfact>
</mgrwt>
</event>
<event>
 5    1  0.3183609E-002  0.1249992E+03  0.7818608E-02  0.1235071E+00
         -4   -1    0    0    0  501 -0.00000000000E+00  0.00000000000E+00  0.95794797145E+01  0.96632981740E+01  0.12700000000E+01 0. -1.
          4   -1    0    0  501    0  0.00000000000E+00 -0.00000000000E+00 -0.40590630862E+03  0.40590829540E+03  0.12700000000E+01 0. -1.
         25    2    1    2    0    0  0.00000000000E+00  0.00000000000E+00 -0.39632682890E+03  0.41557159357E+03  0.12499917631E+03 0.  0.
    9000005    1    3    3    0    0  0.18680360337E+02  0.34870758286E+02 -0.35899522530E+03  0.36116962419E+03  0.10000000000E+01 0.  0.
    9000005    1    3    3    0    0 -0.18680360337E+02 -0.34870758286E+02 -0.37331603598E+02  0.54401969385E+02  0.10000000000E+01 0.  0.
<mgrwt>
<rscale>  0 0.12499918E+03</rscale>
<asrwt>0</asrwt>
<pdfrwt beam="2">  1        4 0.62453712E-01 0.12499918E+03</pdfrwt>
<pdfrwt beam="1">  1       -4 0.14803668E-02 0.12499918E+03</pdfrwt>
<totfact> 0.63067128E+03</totfact>
</mgrwt>
</event>
<event>
 5    1  0.3183609E-002  0.1250166E+03  0.7818608E-02  0.1235043E+00
         -4   -1    0    0    0  501 -0.00000000000E+00  0.00000000000E+00  0.97009429411E+02  0.97017742164E+02  0.12700000000E+01 0. -1.
          4   -1    0    0  501    0  0.00000000000E+00 -0.00000000000E+00 -0.40257323162E+02  0.40277350561E+02  0.12700000000E+01 0. -1.
         25    2    1    2    0    0  0.00000000000E+00  0.00000000000E+00  0.56752106249E+02  0.13729509272E+03  0.12501656259E+03 0.  0.
    9000005    1    3    3    0    0  0.54898286746E+02 -0.28458779315E+02  0.38354788820E+02  0.72772342502E+02  0.10000000000E+01 0.  0.
    9000005    1    3    3    0    0 -0.54898286746E+02  0.28458779315E+02  0.18397317428E+02  0.64522750223E+02  0.10000000000E+01 0.  0.
<mgrwt>
<rscale>  0 0.12501656E+03</rscale>
<asrwt>0</asrwt>
<pdfrwt beam="2">  1        4 0.61956143E-02 0.12501656E+03</pdfrwt>
<pdfrwt beam="1">  1       -4 0.14926708E-01 0.12501656E+03</pdfrwt>
<totfact> 0.10186115E+04</totfact>
</mgrwt>
</event>
<event>
 5    1  0.3183609E-002  0.1250008E+03  0.7818608E-02  0.1235068E+00
         -4   -1    0    0    0  501 -0.00000000000E+00  0.00000000000E+00  0.14558675813E+02  0.14613963919E+02  0.12700000000E+01 0. -1.
          4   -1    0    0  501    0  0.00000000000E+00 -0.00000000000E+00 -0.26774880959E+03  0.26775182154E+03  0.12700000000E+01 0. -1.
         25    2    1    2    0    0  0.00000000000E+00  0.00000000000E+00 -0.25319013378E+03  0.28236578546E+03  0.12500077181E+03 0.  0.
    9000005    1    3    3    0    0 -0.35109876431E+02  0.19152171574E+02 -0.18125183876E+02  0.43920739857E+02  0.10000000000E+01 0.  0.
    9000005    1    3    3    0    0  0.35109876431E+02 -0.19152171574E+02 -0.23506494990E+03  0.23844504560E+03  0.10000000000E+01 0.  0.
<mgrwt>
<rscale>  0 0.12500077E+03</rscale>
<asrwt>0</asrwt>
<pdfrwt beam="2">  1        4 0.41196606E-01 0.12500077E+03</pdfrwt>
<pdfrwt beam="1">  1       -4 0.22442811E-02 0.12500077E+03</pdfrwt>
<totfact> 0.77864127E+03</totfact>
</mgrwt>
</event>
<event>
 5    1  0.3183609E-002  0.1250129E+03  0.7818608E-02  0.1235049E+00
         -4   -1    0    0    0  501 -0.00000000000E+00  0.00000000000E+00  0.37015858126E+02  0.37037638327E+02  0.12700000000E+01 0.  1.
          4   -1    0    0  501    0  0.00000000000E+00 -0.00000000000E+00 -0.10549426267E+03  0.10550190688E+03  0.12700000000E+01 0.  1.
         25    2    1    2    0    0  0.00000000000E+00  0.00000000000E+00 -0.68478404542E+02  0.14253954521E+03  0.12501291957E+03 0.  0.
    9000005    1    3    3    0    0  0.41798231484E+02  0.35358726698E+02 -0.68610576915E+02  0.87782361403E+02  0.10000000000E+01 0.  0.
    9000005    1    3    3    0    0 -0.41798231484E+02 -0.35358726698E+02  0.13217237290E+00  0.54757183806E+02  0.10000000000E+01 0.  0.
<mgrwt>
<rscale>  0 0.12501292E+03</rscale>
<asrwt>0</asrwt>
<pdfrwt beam="2">  1        4 0.16232150E-01 0.12501292E+03</pdfrwt>
<pdfrwt beam="1">  1       -4 0.56970109E-02 0.12501292E+03</pdfrwt>
<totfact> 0.10078288E+04</totfact>
</mgrwt>
</event>
<event>
 5    1  0.3183609E-002  0.1249803E+03  0.7818608E-02  0.1235100E+00
          4   -1    0    0  501    0  0.00000000000E+00  0.00000000000E+00  0.22510380955E+02  0.22546178185E+02  0.12700000000E+01 0.  1.
         -4   -1    0    0    0  501 -0.00000000000E+00 -0.00000000000E+00 -0.17330052712E+03  0.17330518054E+03  0.12700000000E+01 0.  1.
         25    2    1    2    0    0  0.00000000000E+00  0.00000000000E+00 -0.15079014617E+03  0.19585135872E+03  0.12498034458E+03 0.  0.
    9000005    1    3    3    0    0 -0.36583614497E+02  0.50650274931E+02 -0.74676217785E+02  0.97372217305E+02  0.10000000000E+01 0.  0.
    9000005    1    3    3    0    0  0.36583614497E+02 -0.50650274931E+02 -0.76113928385E+02  0.98479141418E+02  0.10000000000E+01 0.  0.
<mgrwt>
<rscale>  0 0.12498034E+03</rscale>
<asrwt>0</asrwt>
<pdfrwt beam="1">  1        4 0.34662472E-02 0.12498034E+03</pdfrwt>
<pdfrwt beam="2">  1       -4 0.26664730E-01 0.12498034E+03</pdfrwt>
<totfact> 0.90879031E+03</totfact>
</mgrwt>
</event>
<event>
 5    1  0.3183609E-002  0.1250014E+03  0.7818608E-02  0.1235067E+00
          4   -1    0    0  501    0  0.00000000000E+00  0.00000000000E+00  0.21864564417E+02  0.21901417241E+02  0.12700000000E+01 0.  1.
         -4   -1    0    0    0  501 -0.00000000000E+00 -0.00000000000E+00 -0.17847118849E+03  0.17847570708E+03  0.12700000000E+01 0.  1.
         25    2    1    2    0    0  0.00000000000E+00  0.00000000000E+00 -0.15660662407E+03  0.20037712433E+03  0.12500142899E+03 0.  0.
    9000005    1    3    3    0    0  0.36814099511E+02 -0.23479407069E+02 -0.66369213622E+01  0.44177021224E+02  0.10000000000E+01 0.  0.
    9000005    1    3    3    0    0 -0.36814099511E+02  0.23479407069E+02 -0.14996970271E+03  0.15620010310E+03  0.10000000000E+01 0.  0.
<mgrwt>
<rscale>  0 0.12500143E+03</rscale>
<asrwt>0</asrwt>
<pdfrwt beam="1">  1        4 0.33669617E-02 0.12500143E+03</pdfrwt>
<pdfrwt beam="2">  1       -4 0.27460287E-01 0.12500143E+03</pdfrwt>
<totfact> 0.90069061E+03</totfact>
</mgrwt>
</event>
<event>
 5    1  0.3183609E-002  0.1250012E+03  0.7818608E-02  0.1235067E+00
         -4   -1    0    0    0  501 -0.00000000000E+00  0.00000000000E+00  0.25259470843E+03  0.25259790108E+03  0.12700000000E+01 0.  1.
          4   -1    0    0  501    0  0.00000000000E+00 -0.00000000000E+00 -0.15435423169E+02  0.15487581748E+02  0.12700000000E+01 0.  1.
         25    2    1    2    0    0  0.00000000000E+00  0.00000000000E+00  0.23715928527E+03  0.26808548283E+03  0.12500119805E+03 0.  0.
    9000005    1    3    3    0    0 -0.23819319870E+02 -0.45271272847E+02  0.41596185178E+02  0.65940054334E+02  0.10000000000E+01 0.  0.
    9000005    1    3    3    0    0  0.23819319870E+02  0.45271272847E+02  0.19556310009E+03  0.20214542849E+03  0.10000000000E+01 0.  0.
<mgrwt>
<rscale>  0 0.12500120E+03</rscale>
<asrwt>0</asrwt>
<pdfrwt beam="2">  1        4 0.23789384E-02 0.12500120E+03</pdfrwt>
<pdfrwt beam="1">  1       -4 0.38864980E-01 0.12500120E+03</pdfrwt>
<totfact> 0.79782474E+03</totfact>
</mgrwt>
</event>
<event>
 5    1  0.3183609E-002  0.1250026E+03  0.7818608E-02  0.1235065E+00
          4   -1    0    0  501    0  0.00000000000E+00  0.00000000000E+00  0.10409616553E+04  0.10409624301E+04  0.12700000000E+01 0.  1.
         -4   -1    0    0    0  501 -0.00000000000E+00 -0.00000000000E+00 -0.36444454863E+01  0.38593889287E+01  0.12700000000E+01 0.  1.
         25    2    1    2    0    0  0.00000000000E+00  0.00000000000E+00  0.10373172099E+04  0.10448218190E+04  0.12500255825E+03 0.  0.
    9000005    1    3    3    0    0  0.45798188632E+02  0.33631746742E+02  0.73611230238E+03  0.73830270904E+03  0.10000000000E+01 0.  0.
    9000005    1    3    3    0    0 -0.45798188632E+02 -0.33631746742E+02  0.30120490749E+03  0.30651910995E+03  0.10000000000E+01 0.  0.
<mgrwt>
<rscale>  0 0.12500256E+03</rscale>
<asrwt>0</asrwt>
<pdfrwt beam="1">  1        4 0.16016451E+00 0.12500256E+03</pdfrwt>
<pdfrwt beam="2">  1       -4 0.57727772E-03 0.12500256E+03</pdfrwt>
<totfact> 0.29155380E+03</totfact>
</mgrwt>
</event>
<event>
 5    1  0.3183609E-002  0.1249992E+03  0.7818608E-02  0.1235071E+00
          4   -1    0    0  501    0  0.00000000000E+00  0.00000000000E+00  0.76706590141E+02  0.76717102859E+02  0.12700000000E+01 0.  1.
         -4   -1    0    0    0  501 -0.00000000000E+00 -0.00000000000E+00 -0.50902004887E+02  0.50917845610E+02  0.12700000000E+01 0.  1.
         25    2    1    2    0    0  0.00000000000E+00  0.00000000000E+00  0.25804585254E+02  0.12763494847E+03  0.12499921380E+03 0.  0.
    9000005    1    3    3    0    0  0.49241813496E+02  0.37286692199E+02  0.32074989717E+01  0.61857430121E+02  0.10000000000E+01 0.  0.
    9000005    1    3    3    0    0 -0.49241813496E+02 -0.37286692199E+02  0.22597086283E+02  0.65777518348E+02  0.10000000000E+01 0.  0.
<mgrwt>
<rscale>  0 0.12499921E+03</rscale>
<asrwt>0</asrwt>
<pdfrwt beam="1">  1        4 0.11803041E-01 0.12499921E+03</pdfrwt>
<pdfrwt beam="2">  1       -4 0.78331049E-02 0.12499921E+03</pdfrwt>
<totfact> 0.10395564E+04</totfact>
</mgrwt>
</event>
<event>
 5    1  0.3183609E-002  0.1250001E+03  0.7818608E-02  0.1235069E+00
          4   -1    0    0  501    0  0.00000000000E+00  0.00000000000E+00  0.30918720061E+03  0.30918980888E+03  0.12700000000E+01 0.  1.
         -4   -1    0    0    0  501 -0.00000000000E+00 -0.00000000000E+00 -0.12599365417E+02  0.12663210845E+02  0.12700000000E+01 0.  1.
         25    2    1    2    0    0  0.00000000000E+00  0.00000000000E+00  0.29658783519E+03  0.32185301973E+03  0.12500008931E+03 0.  0.
    9000005    1    3    3    0    0 -0.10111666741E+02  0.50056079105E+02  0.55550307335E+02  0.75463193046E+02  0.10000000000E+01 0.  0.
    9000005    1    3    3    0    0  0.10111666741E+02 -0.50056079105E+02  0.24103752785E+03  0.24638982668E+03  0.10000000000E+01 0.  0.
<mgrwt>
<rscale>  0 0.12500009E+03</rscale>
<asrwt>0</asrwt>
<pdfrwt beam="1">  1        4 0.47572369E-01 0.12500009E+03</pdfrwt>
<pdfrwt beam="2">  1       -4 0.19434759E-02 0.12500009E+03</pdfrwt>
<totfact> 0.72936131E+03</totfact>
</mgrwt>
</event>
<event>
 5    1  0.3183609E-002  0.1250202E+03  0.7818608E-02  0.1235038E+00
         -4   -1    0    0    0  501 -0.00000000000E+00  0.00000000000E+00  0.31345457208E+03  0.31345714485E+03  0.12700000000E+01 0. -1.
          4   -1    0    0  501    0  0.00000000000E+00 -0.00000000000E+00 -0.12430980379E+02  0.12495686183E+02  0.12700000000E+01 0. -1.
         25    2    1    2    0    0  0.00000000000E+00  0.00000000000E+00  0.30102359170E+03  0.32595283103E+03  0.12502017956E+03 0.  0.
    9000005    1    3    3    0    0  0.18320324482E+02 -0.51930869699E+02  0.22759250670E+03  0.23416190685E+03  0.10000000000E+01 0.  0.
    9000005    1    3    3    0    0 -0.18320324482E+02  0.51930869699E+02  0.73431085003E+02  0.91790924179E+02  0.10000000000E+01 0.  0.
<mgrwt>
<rscale>  0 0.12502018E+03</rscale>
<asrwt>0</asrwt>
<pdfrwt beam="2">  1        4 0.19176340E-02 0.12502018E+03</pdfrwt>
<pdfrwt beam="1">  1       -4 0.48228952E-01 0.12502018E+03</pdfrwt>
<totfact> 0.72421276E+03</totfact>
</mgrwt>
</event>
<event>
 5    1  0.3183609E-002  0.1250046E+03  0.7818608E-02  0.1235062E+00
         -4   -1    0    0    0  501 -0.00000000000E+00  0.00000000000E+00  0.14243823593E+03  0.14244389757E+03  0.12700000000E+01 0. -1.
          4   -1    0    0  501    0  0.00000000000E+00 -0.00000000000E+00 -0.27405274571E+02  0.27434685606E+02  0.12700000000E+01 0. -1.
         25    2    1    2    0    0  0.00000000000E+00  0.00000000000E+00  0.11503296136E+03  0.16987858318E+03  0.12500460321E+03 0.  0.
    9000005    1    3    3    0    0  0.30107105938E+02 -0.47012762965E+02  0.19346353999E+02  0.59092462486E+02  0.10000000000E+01 0.  0.
    9000005    1    3    3    0    0 -0.30107105938E+02  0.47012762965E+02  0.95686607362E+02  0.11078612069E+03  0.10000000000E+01 0.  0.
<mgrwt>
<rscale>  0 0.12500460E+03</rscale>
<asrwt>0</asrwt>
<pdfrwt beam="2">  1        4 0.42188941E-02 0.12500460E+03</pdfrwt>
<pdfrwt beam="1">  1       -4 0.21916272E-01 0.12500460E+03</pdfrwt>
<totfact> 0.95461408E+03</totfact>
</mgrwt>
</event>
<event>
 5    1  0.3183609E-002  0.1250047E+03  0.7818608E-02  0.1235062E+00
          4   -1    0    0  501    0  0.00000000000E+00  0.00000000000E+00  0.22744107575E+03  0.22744462148E+03  0.12700000000E+01 0. -1.
         -4   -1    0    0    0  501 -0.00000000000E+00 -0.00000000000E+00 -0.17148907639E+02  0.17195869656E+02  0.12700000000E+01 0. -1.
         25    2    1    2    0    0  0.00000000000E+00  0.00000000000E+00  0.21029216811E+03  0.24464049114E+03  0.12500469564E+03 0.  0.
    9000005    1    3    3    0    0 -0.45462077833E+02 -0.18678825222E+02  0.29606867424E+02  0.57386981374E+02  0.10000000000E+01 0.  0.
    9000005    1    3    3    0    0  0.45462077833E+02  0.18678825222E+02  0.18068530069E+03  0.18725350976E+03  0.10000000000E+01 0.  0.
<mgrwt>
<rscale>  0 0.12500470E+03</rscale>
<asrwt>0</asrwt>
<pdfrwt beam="1">  1        4 0.34994821E-01 0.12500470E+03</pdfrwt>
<pdfrwt beam="2">  1       -4 0.26421786E-02 0.12500470E+03</pdfrwt>
<totfact> 0.83102369E+03</totfact>
</mgrwt>
</event>
<event>
 5    1  0.3183609E-002  0.1249997E+03  0.7818608E-02  0.1235070E+00
         -4   -1    0    0    0  501 -0.00000000000E+00  0.00000000000E+00  0.72692146732E+01  0.73793212402E+01  0.12700000000E+01 0.  1.
          4   -1    0    0  501    0  0.00000000000E+00 -0.00000000000E+00 -0.53321662993E+03  0.53321814236E+03  0.12700000000E+01 0.  1.
         25    2    1    2    0    0  0.00000000000E+00  0.00000000000E+00 -0.52594741526E+03  0.54059746360E+03  0.12499973611E+03 0.  0.
    9000005    1    3    3    0    0 -0.89329941357E+01 -0.60489810751E+02 -0.31876481092E+03  0.32457791094E+03  0.10000000000E+01 0.  0.
    9000005    1    3    3    0    0  0.89329941357E+01  0.60489810751E+02 -0.20718260434E+03  0.21601955266E+03  0.10000000000E+01 0.  0.
<mgrwt>
<rscale>  0 0.12499974E+03</rscale>
<asrwt>0</asrwt>
<pdfrwt beam="2">  1        4 0.82041884E-01 0.12499974E+03</pdfrwt>
<pdfrwt beam="1">  1       -4 0.11269272E-02 0.12499974E+03</pdfrwt>
<totfact> 0.52846896E+03</totfact>
</mgrwt>
</event>
<event>
 5    1  0.3183609E-002  0.1250001E+03  0.7818608E-02  0.1235069E+00
         -4   -1    0    0    0  501 -0.00000000000E+00  0.00000000000E+00  0.38580034883E+02  0.38600932522E+02  0.12700000000E+01 0. -1.
          4   -1    0    0  501    0  0.00000000000E+00 -0.00000000000E+00 -0.10119839059E+03  0.10120635927E+03  0.12700000000E+01 0. -1.
         25    2    1    2    0    0  0.00000000000E+00  0.00000000000E+00 -0.62618355702E+02  0.13980729179E+03  0.12500008147E+03 0.  0.
    9000005    1    3    3    0    0  0.46300239886E+02 -0.31619048911E+02 -0.62178985124E+02  0.83729938842E+02  0.10000000000E+01 0.  0.
    9000005    1    3    3    0    0 -0.46300239886E+02  0.31619048911E+02 -0.43937057841E+00  0.56077352951E+02  0.10000000000E+01 0.  0.
<mgrwt>
<rscale>  0 0.12500008E+03</rscale>
<asrwt>0</asrwt>
<pdfrwt beam="2">  1        4 0.15571204E-01 0.12500008E+03</pdfrwt>
<pdfrwt beam="1">  1       -4 0.59376105E-02 0.12500008E+03</pdfrwt>
<totfact> 0.10137563E+04</totfact>
</mgrwt>
</event>
<event>
 4    1  0.3183609E-002  0.1248780E+03  0.7818608E-02  0.1235260E+00
         -4   -1    0    0    0  501 -0.00000000000E+00  0.00000000000E+00  0.71114662943E+01  0.72239776339E+01  0.12700000000E+01 0.  1.
          4   -1    0    0  501    0  0.00000000000E+00 -0.00000000000E+00 -0.54380126774E+03  0.54380275072E+03  0.12700000000E+01 0.  1.
    9000005    1    1    2    0    0 -0.16971829481E+02  0.31548045362E+02 -0.42731459362E+02  0.55770061693E+02  0.10000000000E+01 0.  0.
    9000005    1    1    2    0    0  0.16971829481E+02 -0.31548045362E+02 -0.49395834208E+03  0.49525666666E+03  0.10000000000E+01 0.  0.
<mgrwt>
<rscale>  0 0.12487799E+03</rscale>
<asrwt>0</asrwt>
<pdfrwt beam="2">  1        4 0.83670470E-01 0.12487799E+03</pdfrwt>
<pdfrwt beam="1">  1       -4 0.11028410E-02 0.12487799E+03</pdfrwt>
<totfact> 0.52252298E+03</totfact>
</mgrwt>
</event>
<event>
 5    1  0.3183609E-002  0.1250014E+03  0.7818608E-02  0.1235067E+00
         -4   -1    0    0    0  501 -0.00000000000E+00  0.00000000000E+00  0.80430707320E+01  0.81427198650E+01  0.12700000000E+01 0. -1.
          4   -1    0    0  501    0  0.00000000000E+00 -0.00000000000E+00 -0.48258659666E+03  0.48258826775E+03  0.12700000000E+01 0. -1.
         25    2    1    2    0    0  0.00000000000E+00  0.00000000000E+00 -0.47454352593E+03  0.49073098762E+03  0.12500137684E+03 0.  0.
    9000005    1    3    3    0    0 -0.30875862821E+02 -0.50926883163E+02 -0.16294333905E+03  0.17348889899E+03  0.10000000000E+01 0.  0.
    9000005    1    3    3    0    0  0.30875862821E+02  0.50926883163E+02 -0.31160018688E+03  0.31724208863E+03  0.10000000000E+01 0.  0.
<mgrwt>
<rscale>  0 0.12500138E+03</rscale>
<asrwt>0</asrwt>
<pdfrwt beam="2">  1        4 0.74251863E-01 0.12500138E+03</pdfrwt>
<pdfrwt beam="1">  1       -4 0.12451897E-02 0.12500138E+03</pdfrwt>
<totfact> 0.56589064E+03</totfact>
</mgrwt>
</event>
<event>
 5    1  0.3183609E-002  0.1250021E+03  0.7818608E-02  0.1235066E+00
         -4   -1    0    0    0  501 -0.00000000000E+00  0.00000000000E+00  0.25580624277E+03  0.25580939533E+03  0.12700000000E+01 0. -1.
          4   -1    0    0  501    0  0.00000000000E+00 -0.00000000000E+00 -0.15241212594E+02  0.15294033521E+02  0.12700000000E+01 0. -1.
         25    2    1    2    0    0  0.00000000000E+00  0.00000000000E+00  0.24056503017E+03  0.27110342885E+03  0.12500214155E+03 0.  0.
    9000005    1    3    3    0    0 -0.48376066934E+02  0.37987096942E+02  0.14424941025E+03  0.15681886284E+03  0.10000000000E+01 0.  0.
    9000005    1    3    3    0    0  0.48376066934E+02 -0.37987096942E+02  0.96315619920E+02  0.11428456600E+03  0.10000000000E+01 0.  0.
<mgrwt>
<rscale>  0 0.12500214E+03</rscale>
<asrwt>0</asrwt>
<pdfrwt beam="2">  1        4 0.23491076E-02 0.12500214E+03</pdfrwt>
<pdfrwt beam="1">  1       -4 0.39359113E-01 0.12500214E+03</pdfrwt>
<totfact> 0.79368887E+03</totfact>
</mgrwt>
</event>
<event>
 5    1  0.3183609E-002  0.1249958E+03  0.7818608E-02  0.1235076E+00
         -4   -1    0    0    0  501 -0.00000000000E+00  0.00000000000E+00  0.10245811369E+03  0.10246598441E+03  0.12700000000E+01 0.  1.
          4   -1    0    0  501    0  0.00000000000E+00 -0.00000000000E+00 -0.38102854229E+02  0.38124013435E+02  0.12700000000E+01 0.  1.
         25    2    1    2    0    0  0.00000000000E+00  0.00000000000E+00  0.64355259462E+02  0.14058999785E+03  0.12499579222E+03 0.  0.
    9000005    1    3    3    0    0  0.19598168216E+01  0.53017925009E+02 -0.49606031187E+01  0.53294923188E+02  0.10000000000E+01 0.  0.
    9000005    1    3    3    0    0 -0.19598168216E+01 -0.53017925009E+02  0.69315862581E+02  0.87295074659E+02  0.10000000000E+01 0.  0.
<mgrwt>
<rscale>  0 0.12499579E+03</rscale>
<asrwt>0</asrwt>
<pdfrwt beam="2">  1        4 0.58642107E-02 0.12499579E+03</pdfrwt>
<pdfrwt beam="1">  1       -4 0.15765020E-01 0.12499579E+03</pdfrwt>
<totfact> 0.10122332E+04</totfact>
</mgrwt>
</event>
<event>
 5    1  0.3183609E-002  0.1250092E+03  0.7818608E-02  0.1235055E+00
         -4   -1    0    0    0  501 -0.00000000000E+00  0.00000000000E+00  0.23029693247E+02  0.23064684499E+02  0.12700000000E+01 0.  1.
          4   -1    0    0  501    0  0.00000000000E+00 -0.00000000000E+00 -0.16947684205E+03  0.16948160045E+03  0.12700000000E+01 0.  1.
         25    2    1    2    0    0  0.00000000000E+00  0.00000000000E+00 -0.14644714880E+03  0.19254628495E+03  0.12500921748E+03 0.  0.
    9000005    1    3    3    0    0 -0.49249150894E+02 -0.27912427131E+01 -0.13232923129E+03  0.14122781367E+03  0.10000000000E+01 0.  0.
    9000005    1    3    3    0    0  0.49249150894E+02  0.27912427131E+01 -0.14117917512E+02  0.51318471280E+02  0.10000000000E+01 0.  0.
<mgrwt>
<rscale>  0 0.12500922E+03</rscale>
<asrwt>0</asrwt>
<pdfrwt beam="2">  1        4 0.26076417E-01 0.12500922E+03</pdfrwt>
<pdfrwt beam="1">  1       -4 0.35460875E-02 0.12500922E+03</pdfrwt>
<totfact> 0.91387283E+03</totfact>
</mgrwt>
</event>
<event>
 5    1  0.3183609E-002  0.1249962E+03  0.7818608E-02  0.1235075E+00
         -4   -1    0    0    0  501 -0.00000000000E+00  0.00000000000E+00  0.47572613673E+02  0.47589562634E+02  0.12700000000E+01 0. -1.
          4   -1    0    0  501    0  0.00000000000E+00 -0.00000000000E+00 -0.82069858419E+02  0.82079684215E+02  0.12700000000E+01 0. -1.
         25    2    1    2    0    0  0.00000000000E+00  0.00000000000E+00 -0.34497244746E+02  0.12966924685E+03  0.12499621468E+03 0.  0.
    9000005    1    3    3    0    0  0.52487531625E+02  0.28878343529E+02  0.11956615837E+01  0.59927700671E+02  0.10000000000E+01 0.  0.
    9000005    1    3    3    0    0 -0.52487531625E+02 -0.28878343529E+02 -0.35692906330E+02  0.69741546178E+02  0.10000000000E+01 0.  0.
<mgrwt>
<rscale>  0 0.12499621E+03</rscale>
<asrwt>0</asrwt>
<pdfrwt beam="2">  1        4 0.12628192E-01 0.12499621E+03</pdfrwt>
<pdfrwt beam="1">  1       -4 0.73209233E-02 0.12499621E+03</pdfrwt>
<totfact> 0.10352473E+04</totfact>
</mgrwt>
</event>
<event>
 4    1  0.3183609E-002  0.1253670E+03  0.7818608E-02  0.1234497E+00
         -4   -1    0    0    0  501 -0.00000000000E+00  0.00000000000E+00  0.10892026971E+02  0.10965817413E+02  0.12700000000E+01 0.  1.
          4   -1    0    0  501    0  0.00000000000E+00 -0.00000000000E+00 -0.35945026052E+03  0.35945250408E+03  0.12700000000E+01 0.  1.
    9000005    1    1    2    0    0 -0.33513164285E+02 -0.23280102203E+02 -0.31483972845E+03  0.31747464458E+03  0.10000000000E+01 0.  0.
    9000005    1    1    2    0    0  0.33513164285E+02  0.23280102203E+02 -0.33718505100E+02  0.52943676914E+02  0.10000000000E+01 0.  0.
<mgrwt>
<rscale>  0 0.12536702E+03</rscale>
<asrwt>0</asrwt>
<pdfrwt beam="2">  1        4 0.55305880E-01 0.12536702E+03</pdfrwt>
<pdfrwt beam="1">  1       -4 0.16815455E-02 0.12536702E+03</pdfrwt>
<totfact> 0.66990144E+03</totfact>
</mgrwt>
</event>
<event>
 5    1  0.3183609E-002  0.1249951E+03  0.7818608E-02  0.1235077E+00
         -4   -1    0    0    0  501 -0.00000000000E+00  0.00000000000E+00  0.18495454821E+02  0.18539006150E+02  0.12700000000E+01 0.  1.
          4   -1    0    0  501    0  0.00000000000E+00 -0.00000000000E+00 -0.21089032540E+03  0.21089414939E+03  0.12700000000E+01 0.  1.
         25    2    1    2    0    0  0.00000000000E+00  0.00000000000E+00 -0.19239487058E+03  0.22943315554E+03  0.12499514645E+03 0.  0.
    9000005    1    3    3    0    0  0.22236082778E+02  0.51607963122E+01  0.10577625953E+02  0.25178629166E+02  0.10000000000E+01 0.  0.
    9000005    1    3    3    0    0 -0.22236082778E+02 -0.51607963122E+01 -0.20297249653E+03  0.20425452637E+03  0.10000000000E+01 0.  0.
<mgrwt>
<rscale>  0 0.12499515E+03</rscale>
<asrwt>0</asrwt>
<pdfrwt beam="2">  1        4 0.32448308E-01 0.12499515E+03</pdfrwt>
<pdfrwt beam="1">  1       -4 0.28490990E-02 0.12499515E+03</pdfrwt>
<totfact> 0.85405962E+03</totfact>
</mgrwt>
</event>
<event>
 5    1  0.3183609E-002  0.1249995E+03  0.7818608E-02  0.1235070E+00
         -4   -1    0    0    0  501 -0.00000000000E+00  0.00000000000E+00  0.97577903052E+02  0.97586167380E+02  0.12700000000E+01 0.  1.
          4   -1    0    0  501    0  0.00000000000E+00 -0.00000000000E+00 -0.40011743471E+02  0.40031893730E+02  0.12700000000E+01 0.  1.
         25    2    1    2    0    0  0.00000000000E+00  0.00000000000E+00  0.57566159580E+02  0.13761806111E+03  0.12499947206E+03 0.  0.
    9000005    1    3    3    0    0  0.21678013201E+02 -0.56029400610E+02  0.47724109500E+02  0.76732135488E+02  0.10000000000E+01 0.  0.
    9000005    1    3    3    0    0 -0.21678013201E+02  0.56029400610E+02  0.98420500804E+01  0.60885925622E+02  0.10000000000E+01 0.  0.
<mgrwt>
<rscale>  0 0.12499947E+03</rscale>
<asrwt>0</asrwt>
<pdfrwt beam="2">  1        4 0.61578386E-02 0.12499947E+03</pdfrwt>
<pdfrwt beam="1">  1       -4 0.15014171E-01 0.12499947E+03</pdfrwt>
<totfact> 0.10183300E+04</totfact>
</mgrwt>
</event>
<event>
 5    1  0.3183609E-002  0.1250043E+03  0.7818608E-02  0.1235062E+00
         -4   -1    0    0    0  501 -0.00000000000E+00  0.00000000000E+00  0.75722501583E+02  0.75733150905E+02  0.12700000000E+01 0.  1.
          4   -1    0    0  501    0  0.00000000000E+00 -0.00000000000E+00 -0.51567870411E+02  0.51583506654E+02  0.12700000000E+01 0.  1.
         25    2    1    2    0    0  0.00000000000E+00  0.00000000000E+00  0.24154631173E+02  0.12731665756E+03  0.12500434026E+03 0.  0.
    9000005    1    3    3    0    0 -0.36466774090E+01  0.24912591220E+02 -0.46178501017E+02  0.52605982679E+02  0.10000000000E+01 0.  0.
    9000005    1    3    3    0    0  0.36466774090E+01 -0.24912591220E+02  0.70333132190E+02  0.74710674880E+02  0.10000000000E+01 0.  0.
<mgrwt>
<rscale>  0 0.12500434E+03</rscale>
<asrwt>0</asrwt>
<pdfrwt beam="2">  1        4 0.79355405E-02 0.12500434E+03</pdfrwt>
<pdfrwt beam="1">  1       -4 0.11651638E-01 0.12500434E+03</pdfrwt>
<totfact> 0.10401254E+04</totfact>
</mgrwt>
</event>
<event>
 5    1  0.3183609E-002  0.1249675E+03  0.7818608E-02  0.1235120E+00
          4   -1    0    0  501    0  0.00000000000E+00  0.00000000000E+00  0.22748016907E+02  0.22783440767E+02  0.12700000000E+01 0. -1.
         -4   -1    0    0    0  501 -0.00000000000E+00 -0.00000000000E+00 -0.17145758367E+03  0.17146228711E+03  0.12700000000E+01 0. -1.
         25    2    1    2    0    0  0.00000000000E+00  0.00000000000E+00 -0.14870956677E+03  0.19424572787E+03  0.12496746596E+03 0.  0.
    9000005    1    3    3    0    0  0.54647250910E+02 -0.15819760773E+02 -0.11448735113E+03  0.12784733251E+03  0.10000000000E+01 0.  0.
    9000005    1    3    3    0    0 -0.54647250910E+02  0.15819760773E+02 -0.34222215642E+02  0.66398395360E+02  0.10000000000E+01 0.  0.
<mgrwt>
<rscale>  0 0.12496747E+03</rscale>
<asrwt>0</asrwt>
<pdfrwt beam="1">  1        4 0.35027817E-02 0.12496747E+03</pdfrwt>
<pdfrwt beam="2">  1       -4 0.26381176E-01 0.12496747E+03</pdfrwt>
<totfact> 0.91180180E+03</totfact>
</mgrwt>
</event>
<event>
 5    1  0.3183609E-002  0.1250037E+03  0.7818608E-02  0.1235063E+00
         -4   -1    0    0    0  501 -0.00000000000E+00  0.00000000000E+00  0.22683523034E+02  0.22719047454E+02  0.12700000000E+01 0.  1.
          4   -1    0    0  501    0  0.00000000000E+00 -0.00000000000E+00 -0.17204411286E+03  0.17204880026E+03  0.12700000000E+01 0.  1.
         25    2    1    2    0    0  0.00000000000E+00  0.00000000000E+00 -0.14936058983E+03  0.19476784771E+03  0.12500371478E+03 0.  0.
    9000005    1    3    3    0    0 -0.49810317434E+02  0.11631598648E+02 -0.18737896640E+02  0.54483672605E+02  0.10000000000E+01 0.  0.
    9000005    1    3    3    0    0  0.49810317434E+02 -0.11631598648E+02 -0.13062269319E+03  0.14028417511E+03  0.10000000000E+01 0.  0.
<mgrwt>
<rscale>  0 0.12500371E+03</rscale>
<asrwt>0</asrwt>
<pdfrwt beam="2">  1        4 0.26471417E-01 0.12500371E+03</pdfrwt>
<pdfrwt beam="1">  1       -4 0.34928661E-02 0.12500371E+03</pdfrwt>
<totfact> 0.91016709E+03</totfact>
</mgrwt>
</event>
<event>
 5    1  0.3183609E-002  0.1250020E+03  0.7818608E-02  0.1235066E+00
         -4   -1    0    0    0  501 -0.00000000000E+00  0.00000000000E+00  0.14742529160E+03  0.14743076172E+03  0.12700000000E+01 0. -1.
          4   -1    0    0  501    0  0.00000000000E+00 -0.00000000000E+00 -0.26476128239E+02  0.26506570252E+02  0.12700000000E+01 0. -1.
         25    2    1    2    0    0  0.00000000000E+00  0.00000000000E+00  0.12094916336E+03  0.17393733198E+03  0.12500198134E+03 0.  0.
    9000005    1    3    3    0    0 -0.83583172078E+01  0.13749223084E+02  0.14450031341E+03  0.14539684721E+03  0.10000000000E+01 0.  0.
    9000005    1    3    3    0    0  0.83583172078E+01 -0.13749223084E+02 -0.23551150053E+02  0.28540484768E+02  0.10000000000E+01 0.  0.
<mgrwt>
<rscale>  0 0.12500198E+03</rscale>
<asrwt>0</asrwt>
<pdfrwt beam="2">  1        4 0.40760128E-02 0.12500198E+03</pdfrwt>
<pdfrwt beam="1">  1       -4 0.22683577E-01 0.12500198E+03</pdfrwt>
<totfact> 0.94715615E+03</totfact>
</mgrwt>
</event>
<event>
 5    1  0.3183609E-002  0.1249977E+03  0.7818608E-02  0.1235073E+00
         -4   -1    0    0    0  501 -0.00000000000E+00  0.00000000000E+00  0.23228355728E+03  0.23228702909E+03  0.12700000000E+01 0.  1.
          4   -1    0    0  501    0  0.00000000000E+00 -0.00000000000E+00 -0.16788522412E+02  0.16836489681E+02  0.12700000000E+01 0.  1.
         25    2    1    2    0    0  0.00000000000E+00  0.00000000000E+00  0.21549503487E+03  0.24912351877E+03  0.12499767018E+03 0.  0.
    9000005    1    3    3    0    0  0.11593973684E+02 -0.59633510319E+02  0.78556084120E+02  0.99310795642E+02  0.10000000000E+01 0.  0.
    9000005    1    3    3    0    0 -0.11593973684E+02  0.59633510319E+02  0.13693895074E+03  0.14981272312E+03  0.10000000000E+01 0.  0.
<mgrwt>
<rscale>  0 0.12499767E+03</rscale>
<asrwt>0</asrwt>
<pdfrwt beam="2">  1        4 0.25868065E-02 0.12499767E+03</pdfrwt>
<pdfrwt beam="1">  1       -4 0.35739888E-01 0.12499767E+03</pdfrwt>
<totfact> 0.82461351E+03</totfact>
</mgrwt>
</event>
<event>
 5    1  0.3183609E-002  0.1250002E+03  0.7818608E-02  0.1235069E+00
         -4   -1    0    0    0  501 -0.00000000000E+00  0.00000000000E+00  0.58221218474E+02  0.58235068306E+02  0.12700000000E+01 0. -1.
          4   -1    0    0  501    0  0.00000000000E+00 -0.00000000000E+00 -0.67065616722E+02  0.67077640435E+02  0.12700000000E+01 0. -1.
         25    2    1    2    0    0  0.00000000000E+00  0.00000000000E+00 -0.88443982480E+01  0.12531270874E+03  0.12500020637E+03 0.  0.
    9000005    1    3    3    0    0 -0.50044989465E+02  0.21058087512E+02 -0.35440121103E+02  0.64845556548E+02  0.10000000000E+01 0.  0.
    9000005    1    3    3    0    0  0.50044989465E+02 -0.21058087512E+02  0.26595722855E+02  0.60467152193E+02  0.10000000000E+01 0.  0.
<mgrwt>
<rscale>  0 0.12500021E+03</rscale>
<asrwt>0</asrwt>
<pdfrwt beam="2">  1        4 0.10319778E-01 0.12500021E+03</pdfrwt>
<pdfrwt beam="1">  1       -4 0.89591008E-02 0.12500021E+03</pdfrwt>
<totfact> 0.10446026E+04</totfact>
</mgrwt>
</event>
<event>
 5    1  0.3183609E-002  0.1250024E+03  0.7818608E-02  0.1235066E+00
         -4   -1    0    0    0  501 -0.00000000000E+00  0.00000000000E+00  0.19902122505E+03  0.19902527709E+03  0.12700000000E+01 0.  1.
          4   -1    0    0  501    0  0.00000000000E+00 -0.00000000000E+00 -0.19603250838E+02  0.19644346348E+02  0.12700000000E+01 0.  1.
         25    2    1    2    0    0  0.00000000000E+00  0.00000000000E+00  0.17941797421E+03  0.21866962344E+03  0.12500237895E+03 0.  0.
    9000005    1    3    3    0    0 -0.36730397044E+02  0.45693848605E+02  0.51851228878E+02  0.78272599315E+02  0.10000000000E+01 0.  0.
    9000005    1    3    3    0    0  0.36730397044E+02 -0.45693848605E+02  0.12756674533E+03  0.14039702412E+03  0.10000000000E+01 0.  0.
<mgrwt>
<rscale>  0 0.12500238E+03</rscale>
<asrwt>0</asrwt>
<pdfrwt beam="2">  1        4 0.30193577E-02 0.12500238E+03</pdfrwt>
<pdfrwt beam="1">  1       -4 0.30622122E-01 0.12500238E+03</pdfrwt>
<totfact> 0.87074675E+03</totfact>
</mgrwt>
</event>
<event>
 5    1  0.3183609E-002  0.1249996E+03  0.7818608E-02  0.1235070E+00
          4   -1    0    0  501    0  0.00000000000E+00  0.00000000000E+00  0.14895134883E+03  0.14895676292E+03  0.12700000000E+01 0.  1.
         -4   -1    0    0    0  501 -0.00000000000E+00 -0.00000000000E+00 -0.26203581811E+02  0.26234340086E+02  0.12700000000E+01 0.  1.
         25    2    1    2    0    0  0.00000000000E+00  0.00000000000E+00  0.12274776702E+03  0.17519110300E+03  0.12499963305E+03 0.  0.
    9000005    1    3    3    0    0 -0.17488755188E+01  0.47395323163E+02  0.43424816780E+01  0.47636460515E+02  0.10000000000E+01 0.  0.
    9000005    1    3    3    0    0  0.17488755188E+01 -0.47395323163E+02  0.11840528534E+03  0.12755464249E+03  0.10000000000E+01 0.  0.
<mgrwt>
<rscale>  0 0.12499963E+03</rscale>
<asrwt>0</asrwt>
<pdfrwt beam="1">  1        4 0.22918375E-01 0.12499963E+03</pdfrwt>
<pdfrwt beam="2">  1       -4 0.40341028E-02 0.12499963E+03</pdfrwt>
<totfact> 0.94490630E+03</totfact>
</mgrwt>
</event>
<event>
 5    1  0.3183609E-002  0.1250010E+03  0.7818608E-02  0.1235068E+00
         -4   -1    0    0    0  501 -0.00000000000E+00  0.00000000000E+00  0.82550544059E+02  0.82560312647E+02  0.12700000000E+01 0.  1.
          4   -1    0    0  501    0  0.00000000000E+00 -0.00000000000E+00 -0.47299178518E+02  0.47316225425E+02  0.12700000000E+01 0.  1.
         25    2    1    2    0    0  0.00000000000E+00  0.00000000000E+00  0.35251365541E+02  0.12987653807E+03  0.12500102547E+03 0.  0.
    9000005    1    3    3    0    0  0.48081180232E+02  0.36830725535E+02  0.16300227882E+01  0.60596693063E+02  0.10000000000E+01 0.  0.
    9000005    1    3    3    0    0 -0.48081180232E+02 -0.36830725535E+02  0.33621342753E+02  0.69279845009E+02  0.10000000000E+01 0.  0.
<mgrwt>
<rscale>  0 0.12500103E+03</rscale>
<asrwt>0</asrwt>
<pdfrwt beam="2">  1        4 0.72788594E-02 0.12500103E+03</pdfrwt>
<pdfrwt beam="1">  1       -4 0.12702146E-01 0.12500103E+03</pdfrwt>
<totfact> 0.10346910E+04</totfact>
</mgrwt>
</event>
<event>
 5    1  0.3183609E-002  0.1250003E+03  0.7818608E-02  0.1235069E+00
          4   -1    0    0  501    0  0.00000000000E+00  0.00000000000E+00  0.15417972708E+03  0.15418495757E+03  0.12700000000E+01 0. -1.
         -4   -1    0    0    0  501 -0.00000000000E+00 -0.00000000000E+00 -0.25314233517E+02  0.25346071068E+02  0.12700000000E+01 0. -1.
         25    2    1    2    0    0  0.00000000000E+00  0.00000000000E+00  0.12886549356E+03  0.17953102864E+03  0.12500029926E+03 0.  0.
    9000005    1    3    3    0    0  0.58576404123E+02  0.16550178379E+02  0.44112792269E+02  0.75180063621E+02  0.10000000000E+01 0.  0.
    9000005    1    3    3    0    0 -0.58576404123E+02 -0.16550178379E+02  0.84752701289E+02  0.10435096502E+03  0.10000000000E+01 0.  0.
<mgrwt>
<rscale>  0 0.12500030E+03</rscale>
<asrwt>0</asrwt>
<pdfrwt beam="1">  1        4 0.23722809E-01 0.12500030E+03</pdfrwt>
<pdfrwt beam="2">  1       -4 0.38973489E-02 0.12500030E+03</pdfrwt>
<totfact> 0.93700859E+03</totfact>
</mgrwt>
</event>
<event>
 5    1  0.3183609E-002  0.1250072E+03  0.7818608E-02  0.1235058E+00
          4   -1    0    0  501    0  0.00000000000E+00  0.00000000000E+00  0.54848833546E+02  0.54863534714E+02  0.12700000000E+01 0.  1.
         -4   -1    0    0    0  501 -0.00000000000E+00 -0.00000000000E+00 -0.71196762623E+02  0.71208088782E+02  0.12700000000E+01 0.  1.
         25    2    1    2    0    0  0.00000000000E+00  0.00000000000E+00 -0.16347929077E+02  0.12607162350E+03  0.12500719766E+03 0.  0.
    9000005    1    3    3    0    0  0.43035071231E+02  0.42120504594E+02  0.86880189273E+01  0.60849288706E+02  0.10000000000E+01 0.  0.
    9000005    1    3    3    0    0 -0.43035071231E+02 -0.42120504594E+02 -0.25035948005E+02  0.65222334791E+02  0.10000000000E+01 0.  0.
<mgrwt>
<rscale>  0 0.12500720E+03</rscale>
<asrwt>0</asrwt>
<pdfrwt beam="1">  1        4 0.84402841E-02 0.12500720E+03</pdfrwt>
<pdfrwt beam="2">  1       -4 0.10955350E-01 0.12500720E+03</pdfrwt>
<totfact> 0.10427694E+04</totfact>
</mgrwt>
</event>
<event>
 5    1  0.3183609E-002  0.1249947E+03  0.7818608E-02  0.1235078E+00
          4   -1    0    0  501    0  0.00000000000E+00  0.00000000000E+00  0.24595335398E+03  0.24595663283E+03  0.12700000000E+01 0. -1.
         -4   -1    0    0    0  501 -0.00000000000E+00 -0.00000000000E+00 -0.15851957276E+02  0.15902749746E+02  0.12700000000E+01 0. -1.
         25    2    1    2    0    0  0.00000000000E+00  0.00000000000E+00  0.23010139670E+03  0.26185938258E+03  0.12499473380E+03 0.  0.
    9000005    1    3    3    0    0  0.27664774467E+02  0.13409777520E+02  0.10770113469E+01  0.30778593744E+02  0.10000000000E+01 0.  0.
    9000005    1    3    3    0    0 -0.27664774467E+02 -0.13409777520E+02  0.22902438536E+03  0.23108078883E+03  0.10000000000E+01 0.  0.
<mgrwt>
<rscale>  0 0.12499473E+03</rscale>
<asrwt>0</asrwt>
<pdfrwt beam="1">  1        4 0.37843136E-01 0.12499473E+03</pdfrwt>
<pdfrwt beam="2">  1       -4 0.24429221E-02 0.12499473E+03</pdfrwt>
<totfact> 0.80655282E+03</totfact>
</mgrwt>
</event>
<event>
 5    1  0.3183609E-002  0.1250016E+03  0.7818608E-02  0.1235067E+00
          4   -1    0    0  501    0  0.00000000000E+00  0.00000000000E+00  0.91442563210E+01  0.92320270615E+01  0.12700000000E+01 0. -1.
         -4   -1    0    0    0  501 -0.00000000000E+00 -0.00000000000E+00 -0.42506242064E+03  0.42506431789E+03  0.12700000000E+01 0. -1.
         25    2    1    2    0    0  0.00000000000E+00  0.00000000000E+00 -0.41591816432E+03  0.43429634495E+03  0.12500158329E+03 0.  0.
    9000005    1    3    3    0    0  0.48150717096E+02  0.83862248971E+01 -0.34325851231E+03  0.34672211726E+03  0.10000000000E+01 0.  0.
    9000005    1    3    3    0    0 -0.48150717096E+02 -0.83862248971E+01 -0.72659652011E+02  0.87574227688E+02  0.10000000000E+01 0.  0.
<mgrwt>
<rscale>  0 0.12500158E+03</rscale>
<asrwt>0</asrwt>
<pdfrwt beam="1">  1        4 0.14137065E-02 0.12500158E+03</pdfrwt>
<pdfrwt beam="2">  1       -4 0.65401101E-01 0.12500158E+03</pdfrwt>
<totfact> 0.61346341E+03</totfact>
</mgrwt>
</event>
<event>
 5    1  0.3183609E-002  0.1250011E+03  0.7818608E-02  0.1235067E+00
          4   -1    0    0  501    0  0.00000000000E+00  0.00000000000E+00  0.13246609914E+04  0.13246616002E+04  0.12700000000E+01 0.  1.
         -4   -1    0    0    0  501 -0.00000000000E+00 -0.00000000000E+00 -0.28115475195E+01  0.30850768960E+01  0.12700000000E+01 0.  1.
         25    2    1    2    0    0  0.00000000000E+00  0.00000000000E+00  0.13218494439E+04  0.13277466771E+04  0.12500114497E+03 0.  0.
    9000005    1    3    3    0    0 -0.11903079612E+02 -0.59897098285E+02  0.52001926990E+03  0.52359372299E+03  0.10000000000E+01 0.  0.
    9000005    1    3    3    0    0  0.11903079612E+02  0.59897098285E+02  0.80183017401E+03  0.80415295413E+03  0.10000000000E+01 0.  0.
<mgrwt>
<rscale>  0 0.12500114E+03</rscale>
<asrwt>0</asrwt>
<pdfrwt beam="1">  1        4 0.20381514E+00 0.12500114E+03</pdfrwt>
<pdfrwt beam="2">  1       -4 0.45363320E-03 0.12500114E+03</pdfrwt>
<totfact> 0.21582428E+03</totfact>
</mgrwt>
</event>
<event>
 5    1  0.3183609E-002  0.1250020E+03  0.7818608E-02  0.1235066E+00
         -4   -1    0    0    0  501 -0.00000000000E+00  0.00000000000E+00  0.24365638533E+03  0.24365969510E+03  0.12700000000E+01 0.  1.
          4   -1    0    0  501    0  0.00000000000E+00 -0.00000000000E+00 -0.16003733024E+02  0.16054045306E+02  0.12700000000E+01 0.  1.
         25    2    1    2    0    0  0.00000000000E+00  0.00000000000E+00  0.22765265231E+03  0.25971374040E+03  0.12500198738E+03 0.  0.
    9000005    1    3    3    0    0 -0.95853148903E+01  0.59267956840E+02  0.77791642824E+02  0.98270589002E+02  0.10000000000E+01 0.  0.
    9000005    1    3    3    0    0  0.95853148903E+01 -0.59267956840E+02  0.14986100949E+03  0.16144315140E+03  0.10000000000E+01 0.  0.
<mgrwt>
<rscale>  0 0.12500199E+03</rscale>
<asrwt>0</asrwt>
<pdfrwt beam="2">  1        4 0.24662379E-02 0.12500199E+03</pdfrwt>
<pdfrwt beam="1">  1       -4 0.37489718E-01 0.12500199E+03</pdfrwt>
<totfact> 0.80942672E+03</totfact>
</mgrwt>
</event>
<event>
 5    1  0.3183609E-002  0.1249980E+03  0.7818608E-02  0.1235072E+00
         -4   -1    0    0    0  501 -0.00000000000E+00  0.00000000000E+00  0.11208169010E+03  0.11208888507E+03  0.12700000000E+01 0.  1.
          4   -1    0    0  501    0  0.00000000000E+00 -0.00000000000E+00 -0.34830794604E+02  0.34853940276E+02  0.12700000000E+01 0.  1.
         25    2    1    2    0    0  0.00000000000E+00  0.00000000000E+00  0.77250895496E+02  0.14694282534E+03  0.12499797224E+03 0.  0.
    9000005    1    3    3    0    0  0.61552781937E+02 -0.89985071334E+01  0.31630591900E+02  0.69794071659E+02  0.10000000000E+01 0.  0.
    9000005    1    3    3    0    0 -0.61552781937E+02  0.89985071334E+01  0.45620303596E+02  0.77148753684E+02  0.10000000000E+01 0.  0.
<mgrwt>
<rscale>  0 0.12499797E+03</rscale>
<asrwt>0</asrwt>
<pdfrwt beam="2">  1        4 0.53609177E-02 0.12499797E+03</pdfrwt>
<pdfrwt beam="1">  1       -4 0.17245671E-01 0.12499797E+03</pdfrwt>
<totfact> 0.99921190E+03</totfact>
</mgrwt>
</event>
<event>
 5    1  0.3183609E-002  0.1250022E+03  0.7818608E-02  0.1235066E+00
         -4   -1    0    0    0  501 -0.00000000000E+00  0.00000000000E+00  0.15004924989E+03  0.15005462436E+03  0.12700000000E+01 0. -1.
          4   -1    0    0  501    0  0.00000000000E+00 -0.00000000000E+00 -0.26012722497E+02  0.26043706183E+02  0.12700000000E+01 0. -1.
         25    2    1    2    0    0  0.00000000000E+00  0.00000000000E+00  0.12403652739E+03  0.17609833054E+03  0.12500224755E+03 0.  0.
    9000005    1    3    3    0    0  0.45709176626E+02 -0.11150353793E+02  0.11996154742E+03  0.12886206609E+03  0.10000000000E+01 0.  0.
    9000005    1    3    3    0    0 -0.45709176626E+02  0.11150353793E+02  0.40749799674E+01  0.47236264450E+02  0.10000000000E+01 0.  0.
<mgrwt>
<rscale>  0 0.12500225E+03</rscale>
<asrwt>0</asrwt>
<pdfrwt beam="2">  1        4 0.40047542E-02 0.12500225E+03</pdfrwt>
<pdfrwt beam="1">  1       -4 0.23087296E-01 0.12500225E+03</pdfrwt>
<totfact> 0.94319313E+03</totfact>
</mgrwt>
</event>
<event>
 5    1  0.3183609E-002  0.1250010E+03  0.7818608E-02  0.1235068E+00
          4   -1    0    0  501    0  0.00000000000E+00  0.00000000000E+00  0.75595079568E+03  0.75595186248E+03  0.12700000000E+01 0.  1.
         -4   -1    0    0    0  501 -0.00000000000E+00 -0.00000000000E+00 -0.50882998491E+01  0.52443965672E+01  0.12700000000E+01 0.  1.
         25    2    1    2    0    0  0.00000000000E+00  0.00000000000E+00  0.75086249583E+03  0.76119625905E+03  0.12500102857E+03 0.  0.
    9000005    1    3    3    0    0 -0.51275135880E+02 -0.75785731302E+01  0.16284332759E+03  0.17089623657E+03  0.10000000000E+01 0.  0.
    9000005    1    3    3    0    0  0.51275135880E+02  0.75785731302E+01  0.58801916823E+03  0.59030002248E+03  0.10000000000E+01 0.  0.
<mgrwt>
<rscale>  0 0.12500103E+03</rscale>
<asrwt>0</asrwt>
<pdfrwt beam="1">  1        4 0.11631222E+00 0.12500103E+03</pdfrwt>
<pdfrwt beam="2">  1       -4 0.79490481E-03 0.12500103E+03</pdfrwt>
<totfact> 0.40043358E+03</totfact>
</mgrwt>
</event>
<event>
 5    1  0.3183609E-002  0.1249942E+03  0.7818608E-02  0.1235078E+00
          4   -1    0    0  501    0  0.00000000000E+00  0.00000000000E+00  0.29396677490E+03  0.29396951823E+03  0.12700000000E+01 0.  1.
         -4   -1    0    0    0  501 -0.00000000000E+00 -0.00000000000E+00 -0.13253663737E+02  0.13314372026E+02  0.12700000000E+01 0.  1.
         25    2    1    2    0    0  0.00000000000E+00  0.00000000000E+00  0.28071311117E+03  0.30728389026E+03  0.12499415358E+03 0.  0.
    9000005    1    3    3    0    0  0.21561264594E+02  0.17370059854E+02  0.27807615912E+03  0.27945296094E+03  0.10000000000E+01 0.  0.
    9000005    1    3    3    0    0 -0.21561264594E+02 -0.17370059854E+02  0.26369520483E+01  0.27830929311E+02  0.10000000000E+01 0.  0.
<mgrwt>
<rscale>  0 0.12499415E+03</rscale>
<asrwt>0</asrwt>
<pdfrwt beam="1">  1        4 0.45230536E-01 0.12499415E+03</pdfrwt>
<pdfrwt beam="2">  1       -4 0.20439062E-02 0.12499415E+03</pdfrwt>
<totfact> 0.74703842E+03</totfact>
</mgrwt>
</event>
<event>
 5    1  0.3183609E-002  0.1250029E+03  0.7818608E-02  0.1235065E+00
         -4   -1    0    0    0  501 -0.00000000000E+00  0.00000000000E+00  0.12189957108E+03  0.12190618659E+03  0.12700000000E+01 0.  1.
          4   -1    0    0  501    0  0.00000000000E+00 -0.00000000000E+00 -0.32026253021E+02  0.32051424034E+02  0.12700000000E+01 0.  1.
         25    2    1    2    0    0  0.00000000000E+00  0.00000000000E+00  0.89873318061E+02  0.15395761063E+03  0.12500293025E+03 0.  0.
    9000005    1    3    3    0    0  0.20461538107E+02  0.38128615261E+02 -0.10595705425E+02  0.44561584541E+02  0.10000000000E+01 0.  0.
    9000005    1    3    3    0    0 -0.20461538107E+02 -0.38128615261E+02  0.10046902349E+03  0.10939602609E+03  0.10000000000E+01 0.  0.
<mgrwt>
<rscale>  0 0.12500293E+03</rscale>
<asrwt>0</asrwt>
<pdfrwt beam="2">  1        4 0.49295610E-02 0.12500293E+03</pdfrwt>
<pdfrwt beam="1">  1       -4 0.18756225E-01 0.12500293E+03</pdfrwt>
<totfact> 0.98514029E+03</totfact>
</mgrwt>
</event>
<event>
 5    1  0.3183609E-002  0.1249978E+03  0.7818608E-02  0.1235073E+00
          4   -1    0    0  501    0  0.00000000000E+00  0.00000000000E+00  0.27425398642E+02  0.27454788119E+02  0.12700000000E+01 0. -1.
         -4   -1    0    0    0  501 -0.00000000000E+00 -0.00000000000E+00 -0.14231840651E+03  0.14232407292E+03  0.12700000000E+01 0. -1.
         25    2    1    2    0    0  0.00000000000E+00  0.00000000000E+00 -0.11489300787E+03  0.16977886104E+03  0.12499783357E+03 0.  0.
    9000005    1    3    3    0    0 -0.21605948866E+02 -0.49582058716E+02 -0.14928214724E+02  0.56116389476E+02  0.10000000000E+01 0.  0.
    9000005    1    3    3    0    0  0.21605948866E+02  0.49582058716E+02 -0.99964793143E+02  0.11366247156E+03  0.10000000000E+01 0.  0.
<mgrwt>
<rscale>  0 0.12499783E+03</rscale>
<asrwt>0</asrwt>
<pdfrwt beam="1">  1        4 0.42219888E-02 0.12499783E+03</pdfrwt>
<pdfrwt beam="2">  1       -4 0.21897836E-01 0.12499783E+03</pdfrwt>
<totfact> 0.95494513E+03</totfact>
</mgrwt>
</event>
<event>
 5    1  0.3183609E-002  0.1249887E+03  0.7818608E-02  0.1235087E+00
          4   -1    0    0  501    0  0.00000000000E+00  0.00000000000E+00  0.36723252815E+02  0.36745206453E+02  0.12700000000E+01 0. -1.
         -4   -1    0    0    0  501 -0.00000000000E+00 -0.00000000000E+00 -0.10629317311E+03  0.10630075987E+03  0.12700000000E+01 0. -1.
         25    2    1    2    0    0  0.00000000000E+00  0.00000000000E+00 -0.69569920294E+02  0.14304596633E+03  0.12498869818E+03 0.  0.
    9000005    1    3    3    0    0 -0.52259083154E+02  0.25327043120E+02 -0.83857828227E+01  0.58683832858E+02  0.10000000000E+01 0.  0.
    9000005    1    3    3    0    0  0.52259083154E+02 -0.25327043120E+02 -0.61184137472E+02  0.84362133469E+02  0.10000000000E+01 0.  0.
<mgrwt>
<rscale>  0 0.12498870E+03</rscale>
<asrwt>0</asrwt>
<pdfrwt beam="1">  1        4 0.56520036E-02 0.12498870E+03</pdfrwt>
<pdfrwt beam="2">  1       -4 0.16355068E-01 0.12498870E+03</pdfrwt>
<totfact> 0.10073406E+04</totfact>
</mgrwt>
</event>
<event>
 5    1  0.3183609E-002  0.1249980E+03  0.7818608E-02  0.1235072E+00
          4   -1    0    0  501    0  0.00000000000E+00  0.00000000000E+00  0.13008977671E+02  0.13070822470E+02  0.12700000000E+01 0. -1.
         -4   -1    0    0    0  501 -0.00000000000E+00 -0.00000000000E+00 -0.29948857105E+03  0.29949126379E+03  0.12700000000E+01 0. -1.
         25    2    1    2    0    0  0.00000000000E+00  0.00000000000E+00 -0.28647959338E+03  0.31256208626E+03  0.12499800138E+03 0.  0.
    9000005    1    3    3    0    0  0.29922891862E+02  0.44342129876E+02 -0.22401607793E+03  0.23031675387E+03  0.10000000000E+01 0.  0.
    9000005    1    3    3    0    0 -0.29922891862E+02 -0.44342129876E+02 -0.62463515444E+02  0.82245332396E+02  0.10000000000E+01 0.  0.
<mgrwt>
<rscale>  0 0.12499800E+03</rscale>
<asrwt>0</asrwt>
<pdfrwt beam="1">  1        4 0.20063458E-02 0.12499800E+03</pdfrwt>
<pdfrwt beam="2">  1       -4 0.46080124E-01 0.12499800E+03</pdfrwt>
<totfact> 0.74052872E+03</totfact>
</mgrwt>
</event>
<event>
 5    1  0.3183609E-002  0.1249987E+03  0.7818608E-02  0.1235071E+00
         -4   -1    0    0    0  501 -0.00000000000E+00  0.00000000000E+00  0.12640959923E+02  0.12704596324E+02  0.12700000000E+01 0. -1.
          4   -1    0    0  501    0  0.00000000000E+00 -0.00000000000E+00 -0.30816819080E+03  0.30817080770E+03  0.12700000000E+01 0. -1.
         25    2    1    2    0    0  0.00000000000E+00  0.00000000000E+00 -0.29552723088E+03  0.32087540403E+03  0.12499872287E+03 0.  0.
    9000005    1    3    3    0    0  0.31045498363E+02 -0.38311022244E+02 -0.49221349774E+02  0.69679973217E+02  0.10000000000E+01 0.  0.
    9000005    1    3    3    0    0 -0.31045498363E+02  0.38311022244E+02 -0.24630588110E+03  0.25119543081E+03  0.10000000000E+01 0.  0.
<mgrwt>
<rscale>  0 0.12499872E+03</rscale>
<asrwt>0</asrwt>
<pdfrwt beam="2">  1        4 0.47415582E-01 0.12499872E+03</pdfrwt>
<pdfrwt beam="1">  1       -4 0.19498597E-02 0.12499872E+03</pdfrwt>
<totfact> 0.73054199E+03</totfact>
</mgrwt>
</event>
<event>
 5    1  0.3183609E-002  0.1249954E+03  0.7818608E-02  0.1235076E+00
          4   -1    0    0  501    0  0.00000000000E+00  0.00000000000E+00  0.28907112924E+03  0.28907391902E+03  0.12700000000E+01 0. -1.
         -4   -1    0    0    0  501 -0.00000000000E+00 -0.00000000000E+00 -0.13479419389E+02  0.13539115446E+02  0.12700000000E+01 0. -1.
         25    2    1    2    0    0  0.00000000000E+00  0.00000000000E+00  0.27559170985E+03  0.30261303447E+03  0.12499543229E+03 0.  0.
    9000005    1    3    3    0    0 -0.59438202270E+02  0.60937558554E+01  0.93488990741E+02  0.11095596036E+03  0.10000000000E+01 0.  0.
    9000005    1    3    3    0    0  0.59438202270E+02 -0.60937558554E+01  0.18210271911E+03  0.19165707411E+03  0.10000000000E+01 0.  0.
<mgrwt>
<rscale>  0 0.12499543E+03</rscale>
<asrwt>0</asrwt>
<pdfrwt beam="1">  1        4 0.44477284E-01 0.12499543E+03</pdfrwt>
<pdfrwt beam="2">  1       -4 0.20785636E-02 0.12499543E+03</pdfrwt>
<totfact> 0.75279862E+03</totfact>
</mgrwt>
</event>
<event>
 5    1  0.3183609E-002  0.1250005E+03  0.7818608E-02  0.1235069E+00
         -4   -1    0    0    0  501 -0.00000000000E+00  0.00000000000E+00  0.18873900398E+03  0.18874327676E+03  0.12700000000E+01 0. -1.
          4   -1    0    0  501    0  0.00000000000E+00 -0.00000000000E+00 -0.20672736335E+02  0.20711709914E+02  0.12700000000E+01 0. -1.
         25    2    1    2    0    0  0.00000000000E+00  0.00000000000E+00  0.16806626764E+03  0.20945498668E+03  0.12500048449E+03 0.  0.
    9000005    1    3    3    0    0  0.48631620536E+02  0.31101017263E+02  0.12414250872E+03  0.13691117654E+03  0.10000000000E+01 0.  0.
    9000005    1    3    3    0    0 -0.48631620536E+02 -0.31101017263E+02  0.43923758923E+02  0.72543810133E+02  0.10000000000E+01 0.  0.
<mgrwt>
<rscale>  0 0.12500048E+03</rscale>
<asrwt>0</asrwt>
<pdfrwt beam="2">  1        4 0.31837475E-02 0.12500048E+03</pdfrwt>
<pdfrwt beam="1">  1       -4 0.29040097E-01 0.12500048E+03</pdfrwt>
<totfact> 0.88564005E+03</totfact>
</mgrwt>
</event>
<event>
 5    1  0.3183609E-002  0.1249995E+03  0.7818608E-02  0.1235070E+00
         -4   -1    0    0    0  501 -0.00000000000E+00  0.00000000000E+00  0.30733440483E+02  0.30759669438E+02  0.12700000000E+01 0.  1.
          4   -1    0    0  501    0  0.00000000000E+00 -0.00000000000E+00 -0.12701624017E+03  0.12702258920E+03  0.12700000000E+01 0.  1.
         25    2    1    2    0    0  0.00000000000E+00  0.00000000000E+00 -0.96282799690E+02  0.15778225864E+03  0.12499945450E+03 0.  0.
    9000005    1    3    3    0    0  0.18546917460E+01  0.38301179200E+02  0.14143291077E+02  0.40883406073E+02  0.10000000000E+01 0.  0.
    9000005    1    3    3    0    0 -0.18546917460E+01 -0.38301179200E+02 -0.11042609077E+03  0.11689885257E+03  0.10000000000E+01 0.  0.
<mgrwt>
<rscale>  0 0.12499945E+03</rscale>
<asrwt>0</asrwt>
<pdfrwt beam="2">  1        4 0.19543466E-01 0.12499945E+03</pdfrwt>
<pdfrwt beam="1">  1       -4 0.47307277E-02 0.12499945E+03</pdfrwt>
<totfact> 0.97773259E+03</totfact>
</mgrwt>
</event>
<event>
 5    1  0.3183609E-002  0.1250001E+03  0.7818608E-02  0.1235069E+00
         -4   -1    0    0    0  501 -0.00000000000E+00  0.00000000000E+00  0.42891771843E+03  0.42891959862E+03  0.12700000000E+01 0. -1.
          4   -1    0    0  501    0  0.00000000000E+00 -0.00000000000E+00 -0.90610476759E+01  0.91496166578E+01  0.12700000000E+01 0. -1.
         25    2    1    2    0    0  0.00000000000E+00  0.00000000000E+00  0.41985667075E+03  0.43806921528E+03  0.12500005360E+03 0.  0.
    9000005    1    3    3    0    0  0.23351163244E+02  0.31426297504E+01  0.70846711632E+01  0.24624083985E+02  0.10000000000E+01 0.  0.
    9000005    1    3    3    0    0 -0.23351163244E+02 -0.31426297504E+01  0.41277199959E+03  0.41344513129E+03  0.10000000000E+01 0.  0.
<mgrwt>
<rscale>  0 0.12500005E+03</rscale>
<asrwt>0</asrwt>
<pdfrwt beam="2">  1        4 0.14009653E-02 0.12500005E+03</pdfrwt>
<pdfrwt beam="1">  1       -4 0.65994281E-01 0.12500005E+03</pdfrwt>
<totfact> 0.61011252E+03</totfact>
</mgrwt>
</event>
<event>
 5    1  0.3183609E-002  0.1250008E+03  0.7818608E-02  0.1235068E+00
          4   -1    0    0  501    0  0.00000000000E+00  0.00000000000E+00  0.16014323133E+02  0.16064602249E+02  0.12700000000E+01 0. -1.
         -4   -1    0    0    0  501 -0.00000000000E+00 -0.00000000000E+00 -0.24349100283E+03  0.24349431484E+03  0.12700000000E+01 0. -1.
         25    2    1    2    0    0  0.00000000000E+00  0.00000000000E+00 -0.22747667969E+03  0.25955891709E+03  0.12500076653E+03 0.  0.
    9000005    1    3    3    0    0  0.54363116858E+02  0.21627848374E+02 -0.15933472353E+03  0.16973999653E+03  0.10000000000E+01 0.  0.
    9000005    1    3    3    0    0 -0.54363116858E+02 -0.21627848374E+02 -0.68141956162E+02  0.89818920554E+02  0.10000000000E+01 0.  0.
<mgrwt>
<rscale>  0 0.12500077E+03</rscale>
<asrwt>0</asrwt>
<pdfrwt beam="1">  1        4 0.24678646E-02 0.12500077E+03</pdfrwt>
<pdfrwt beam="2">  1       -4 0.37464274E-01 0.12500077E+03</pdfrwt>
<totfact> 0.80966620E+03</totfact>
</mgrwt>
</event>
<event>
 5    1  0.3183609E-002  0.1249992E+03  0.7818608E-02  0.1235070E+00
          4   -1    0    0  501    0  0.00000000000E+00  0.00000000000E+00  0.88963695574E+01  0.89865617063E+01  0.12700000000E+01 0.  1.
         -4   -1    0    0    0  501 -0.00000000000E+00 -0.00000000000E+00 -0.43677269226E+03  0.43677453864E+03  0.12700000000E+01 0.  1.
         25    2    1    2    0    0  0.00000000000E+00  0.00000000000E+00 -0.42787632271E+03  0.44576110035E+03  0.12499924421E+03 0.  0.
    9000005    1    3    3    0    0  0.29504828051E+02  0.43031233287E+02 -0.33659270367E+03  0.34061396049E+03  0.10000000000E+01 0.  0.
    9000005    1    3    3    0    0 -0.29504828051E+02 -0.43031233287E+02 -0.91283619039E+02  0.10514713986E+03  0.10000000000E+01 0.  0.
<mgrwt>
<rscale>  0 0.12499924E+03</rscale>
<asrwt>0</asrwt>
<pdfrwt beam="1">  1        4 0.13757525E-02 0.12499924E+03</pdfrwt>
<pdfrwt beam="2">  1       -4 0.67202862E-01 0.12499924E+03</pdfrwt>
<totfact> 0.60333789E+03</totfact>
</mgrwt>
</event>
<event>
 5    1  0.3183609E-002  0.1250007E+03  0.7818608E-02  0.1235068E+00
         -4   -1    0    0    0  501 -0.00000000000E+00  0.00000000000E+00  0.40365808165E+01  0.42316527136E+01  0.12700000000E+01 0. -1.
          4   -1    0    0  501    0  0.00000000000E+00 -0.00000000000E+00 -0.94469624426E+03  0.94469709792E+03  0.12700000000E+01 0. -1.
         25    2    1    2    0    0  0.00000000000E+00  0.00000000000E+00 -0.94065966344E+03  0.94892875063E+03  0.12500068540E+03 0.  0.
    9000005    1    3    3    0    0 -0.39428694256E+02  0.48340995035E+02 -0.49855010279E+03  0.50243873131E+03  0.10000000000E+01 0.  0.
    9000005    1    3    3    0    0  0.39428694256E+02 -0.48340995035E+02 -0.44210956065E+03  0.44649001932E+03  0.10000000000E+01 0.  0.
<mgrwt>
<rscale>  0 0.12500069E+03</rscale>
<asrwt>0</asrwt>
<pdfrwt beam="2">  1        4 0.14535278E+00 0.12500069E+03</pdfrwt>
<pdfrwt beam="1">  1       -4 0.63608438E-03 0.12500069E+03</pdfrwt>
<totfact> 0.32353589E+03</totfact>
</mgrwt>
</event>
<event>
 5    1  0.3183609E-002  0.1250014E+03  0.7818608E-02  0.1235067E+00
         -4   -1    0    0    0  501 -0.00000000000E+00  0.00000000000E+00  0.16687884849E+03  0.16688368097E+03  0.12700000000E+01 0. -1.
          4   -1    0    0  501    0  0.00000000000E+00 -0.00000000000E+00 -0.23385827469E+02  0.23420286642E+02  0.12700000000E+01 0. -1.
         25    2    1    2    0    0  0.00000000000E+00  0.00000000000E+00  0.14349302102E+03  0.19030396761E+03  0.12500141202E+03 0.  0.
    9000005    1    3    3    0    0 -0.11169699975E+02  0.34982646196E+02  0.14872696976E+03  0.15319679914E+03  0.10000000000E+01 0.  0.
    9000005    1    3    3    0    0  0.11169699975E+02 -0.34982646196E+02 -0.52339487400E+01  0.37107168470E+02  0.10000000000E+01 0.  0.
<mgrwt>
<rscale>  0 0.12500141E+03</rscale>
<asrwt>0</asrwt>
<pdfrwt beam="2">  1        4 0.36008421E-02 0.12500141E+03</pdfrwt>
<pdfrwt beam="1">  1       -4 0.25676691E-01 0.12500141E+03</pdfrwt>
<totfact> 0.91791549E+03</totfact>
</mgrwt>
</event>
<event>
 5    1  0.3183609E-002  0.1249985E+03  0.7818608E-02  0.1235072E+00
          4   -1    0    0  501    0  0.00000000000E+00  0.00000000000E+00  0.59253487631E+02  0.59267096238E+02  0.12700000000E+01 0. -1.
         -4   -1    0    0    0  501 -0.00000000000E+00 -0.00000000000E+00 -0.65895483348E+02  0.65907720531E+02  0.12700000000E+01 0. -1.
         25    2    1    2    0    0  0.00000000000E+00  0.00000000000E+00 -0.66419957167E+01  0.12517481677E+03  0.12499847457E+03 0.  0.
    9000005    1    3    3    0    0 -0.10933413706E+01  0.43490975821E+02 -0.48245117944E+02  0.64971161130E+02  0.10000000000E+01 0.  0.
    9000005    1    3    3    0    0  0.10933413706E+01 -0.43490975821E+02  0.41603122227E+02  0.60203655638E+02  0.10000000000E+01 0.  0.
<mgrwt>
<rscale>  0 0.12499847E+03</rscale>
<asrwt>0</asrwt>
<pdfrwt beam="1">  1        4 0.91179094E-02 0.12499847E+03</pdfrwt>
<pdfrwt beam="2">  1       -4 0.10139755E-01 0.12499847E+03</pdfrwt>
<totfact> 0.10449427E+04</totfact>
</mgrwt>
</event>
<event>
 5    1  0.3183609E-002  0.1250007E+03  0.7818608E-02  0.1235068E+00
          4   -1    0    0  501    0  0.00000000000E+00  0.00000000000E+00  0.63903791890E+02  0.63916410396E+02  0.12700000000E+01 0.  1.
         -4   -1    0    0    0  501 -0.00000000000E+00 -0.00000000000E+00 -0.61102472087E+02  0.61115668982E+02  0.12700000000E+01 0.  1.
         25    2    1    2    0    0  0.00000000000E+00  0.00000000000E+00  0.28013198025E+01  0.12503207938E+03  0.12500069392E+03 0.  0.
    9000005    1    3    3    0    0  0.37808925822E+02 -0.16630793963E+02  0.48308012065E+02  0.63566989934E+02  0.10000000000E+01 0.  0.
    9000005    1    3    3    0    0 -0.37808925822E+02  0.16630793963E+02 -0.45506692262E+02  0.61465089444E+02  0.10000000000E+01 0.  0.
<mgrwt>
<rscale>  0 0.12500069E+03</rscale>
<asrwt>0</asrwt>
<pdfrwt beam="1">  1        4 0.98333384E-02 0.12500069E+03</pdfrwt>
<pdfrwt beam="2">  1       -4 0.94023661E-02 0.12500069E+03</pdfrwt>
<totfact> 0.10452002E+04</totfact>
</mgrwt>
</event>
<event>
 5    1  0.3183609E-002  0.1249996E+03  0.7818608E-02  0.1235070E+00
         -4   -1    0    0    0  501 -0.00000000000E+00  0.00000000000E+00  0.63324766719E+02  0.63337500583E+02  0.12700000000E+01 0.  1.
          4   -1    0    0  501    0  0.00000000000E+00 -0.00000000000E+00 -0.61660141638E+02  0.61673219203E+02  0.12700000000E+01 0.  1.
         25    2    1    2    0    0  0.00000000000E+00  0.00000000000E+00  0.16646250813E+01  0.12501071979E+03  0.12499963634E+03 0.  0.
    9000005    1    3    3    0    0  0.38599604905E+02 -0.31145916636E+01 -0.48218923001E+02  0.61852200571E+02  0.10000000000E+01 0.  0.
    9000005    1    3    3    0    0 -0.38599604905E+02  0.31145916636E+01  0.49883548082E+02  0.63158519214E+02  0.10000000000E+01 0.  0.
<mgrwt>
<rscale>  0 0.12499964E+03</rscale>
<asrwt>0</asrwt>
<pdfrwt beam="2">  1        4 0.94881612E-02 0.12499964E+03</pdfrwt>
<pdfrwt beam="1">  1       -4 0.97442572E-02 0.12499964E+03</pdfrwt>
<totfact> 0.10452716E+04</totfact>
</mgrwt>
</event>
<event>
 5    1  0.3183609E-002  0.1249958E+03  0.7818608E-02  0.1235076E+00
         -4   -1    0    0    0  501 -0.00000000000E+00  0.00000000000E+00  0.12952262758E+02  0.13014377071E+02  0.12700000000E+01 0. -1.
          4   -1    0    0  501    0  0.00000000000E+00 -0.00000000000E+00 -0.30078292328E+03  0.30078560444E+03  0.12700000000E+01 0. -1.
         25    2    1    2    0    0  0.00000000000E+00  0.00000000000E+00 -0.28783066052E+03  0.31379998151E+03  0.12499575696E+03 0.  0.
    9000005    1    3    3    0    0  0.25370807698E+02  0.28653324767E+02 -0.19899047179E+02  0.43146992735E+02  0.10000000000E+01 0.  0.
    9000005    1    3    3    0    0 -0.25370807698E+02 -0.28653324767E+02 -0.26793161335E+03  0.27065298878E+03  0.10000000000E+01 0.  0.
<mgrwt>
<rscale>  0 0.12499576E+03</rscale>
<asrwt>0</asrwt>
<pdfrwt beam="2">  1        4 0.46279275E-01 0.12499576E+03</pdfrwt>
<pdfrwt beam="1">  1       -4 0.19976403E-02 0.12499576E+03</pdfrwt>
<totfact> 0.73906610E+03</totfact>
</mgrwt>
</event>
<event>
 5    1  0.3183609E-002  0.1249839E+03  0.7818608E-02  0.1235094E+00
         -4   -1    0    0    0  501 -0.00000000000E+00  0.00000000000E+00  0.36505029624E+02  0.36527114420E+02  0.12700000000E+01 0.  1.
          4   -1    0    0  501    0  0.00000000000E+00 -0.00000000000E+00 -0.10692005110E+03  0.10692759338E+03  0.12700000000E+01 0.  1.
         25    2    1    2    0    0  0.00000000000E+00  0.00000000000E+00 -0.70415021473E+02  0.14345470780E+03  0.12498391073E+03 0.  0.
    9000005    1    3    3    0    0 -0.21876946617E+02 -0.17469194239E+02  0.28909131023E+02  0.40255575976E+02  0.10000000000E+01 0.  0.
    9000005    1    3    3    0    0  0.21876946617E+02  0.17469194239E+02 -0.99324152496E+02  0.10319913183E+03  0.10000000000E+01 0.  0.
<mgrwt>
<rscale>  0 0.12498391E+03</rscale>
<asrwt>0</asrwt>
<pdfrwt beam="2">  1        4 0.16451517E-01 0.12498391E+03</pdfrwt>
<pdfrwt beam="1">  1       -4 0.56184375E-02 0.12498391E+03</pdfrwt>
<totfact> 0.10066127E+04</totfact>
</mgrwt>
</event>
<event>
 5    1  0.3183609E-002  0.1249996E+03  0.7818608E-02  0.1235070E+00
         -4   -1    0    0    0  501 -0.00000000000E+00  0.00000000000E+00  0.12980461414E+03  0.12981082679E+03  0.12700000000E+01 0. -1.
          4   -1    0    0  501    0  0.00000000000E+00 -0.00000000000E+00 -0.30072767853E+02  0.30099572527E+02  0.12700000000E+01 0. -1.
         25    2    1    2    0    0  0.00000000000E+00  0.00000000000E+00  0.99731846283E+02  0.15991039931E+03  0.12499957858E+03 0.  0.
    9000005    1    3    3    0    0 -0.25170982248E+01  0.57661729053E+02  0.80515817208E+02  0.99070720203E+02  0.10000000000E+01 0.  0.
    9000005    1    3    3    0    0  0.25170982248E+01 -0.57661729053E+02  0.19216029075E+02  0.60839679111E+02  0.10000000000E+01 0.  0.
<mgrwt>
<rscale>  0 0.12499958E+03</rscale>
<asrwt>0</asrwt>
<pdfrwt beam="2">  1        4 0.46291196E-02 0.12499958E+03</pdfrwt>
<pdfrwt beam="1">  1       -4 0.19972480E-01 0.12499958E+03</pdfrwt>
<totfact> 0.97360984E+03</totfact>
</mgrwt>
</event>
<event>
 5    1  0.3183609E-002  0.1249933E+03  0.7818608E-02  0.1235080E+00
         -4   -1    0    0    0  501 -0.00000000000E+00  0.00000000000E+00  0.92380264306E+02  0.92388993572E+02  0.12700000000E+01 0. -1.
          4   -1    0    0  501    0  0.00000000000E+00 -0.00000000000E+00 -0.42259692300E+02  0.42278771190E+02  0.12700000000E+01 0. -1.
         25    2    1    2    0    0  0.00000000000E+00  0.00000000000E+00  0.50120572006E+02  0.13466776476E+03  0.12499334033E+03 0.  0.
    9000005    1    3    3    0    0  0.32254019248E+02  0.27811266894E+02 -0.24206985887E+02  0.48997617183E+02  0.10000000000E+01 0.  0.
    9000005    1    3    3    0    0 -0.32254019248E+02 -0.27811266894E+02  0.74327557893E+02  0.85670147579E+02  0.10000000000E+01 0.  0.
<mgrwt>
<rscale>  0 0.12499334E+03</rscale>
<asrwt>0</asrwt>
<pdfrwt beam="2">  1        4 0.65036302E-02 0.12499334E+03</pdfrwt>
<pdfrwt beam="1">  1       -4 0.14214487E-01 0.12499334E+03</pdfrwt>
<totfact> 0.10246617E+04</totfact>
</mgrwt>
</event>
<event>
 5    1  0.3183609E-002  0.1249996E+03  0.7818608E-02  0.1235070E+00
         -4   -1    0    0    0  501 -0.00000000000E+00  0.00000000000E+00  0.16102032035E+02  0.16152038127E+02  0.12700000000E+01 0. -1.
          4   -1    0    0  501    0  0.00000000000E+00 -0.00000000000E+00 -0.24216440605E+03  0.24216773620E+03  0.12700000000E+01 0. -1.
         25    2    1    2    0    0  0.00000000000E+00  0.00000000000E+00 -0.22606237401E+03  0.25831977433E+03  0.12499963546E+03 0.  0.
    9000005    1    3    3    0    0  0.36095208338E+02 -0.13539449100E+02 -0.11389699628E+02  0.40210769758E+02  0.10000000000E+01 0.  0.
    9000005    1    3    3    0    0 -0.36095208338E+02  0.13539449100E+02 -0.21467267439E+03  0.21810900457E+03  0.10000000000E+01 0.  0.
<mgrwt>
<rscale>  0 0.12499964E+03</rscale>
<asrwt>0</asrwt>
<pdfrwt beam="2">  1        4 0.37260163E-01 0.12499964E+03</pdfrwt>
<pdfrwt beam="1">  1       -4 0.24813387E-02 0.12499964E+03</pdfrwt>
<totfact> 0.81143096E+03</totfact>
</mgrwt>
</event>
<event>
 5    1  0.3183609E-002  0.1249971E+03  0.7818608E-02  0.1235074E+00
         -4   -1    0    0    0  501 -0.00000000000E+00  0.00000000000E+00  0.12655062306E+03  0.12655699544E+03  0.12700000000E+01 0. -1.
          4   -1    0    0  501    0  0.00000000000E+00 -0.00000000000E+00 -0.30845444853E+02  0.30871578647E+02  0.12700000000E+01 0. -1.
         25    2    1    2    0    0  0.00000000000E+00  0.00000000000E+00  0.95705178202E+02  0.15742857409E+03  0.12499709919E+03 0.  0.
    9000005    1    3    3    0    0  0.33561203675E+02  0.51986310841E+02  0.58842236878E+02  0.85395197451E+02  0.10000000000E+01 0.  0.
    9000005    1    3    3    0    0 -0.33561203675E+02 -0.51986310841E+02  0.36862941324E+02  0.72033376639E+02  0.10000000000E+01 0.  0.
<mgrwt>
<rscale>  0 0.12499710E+03</rscale>
<asrwt>0</asrwt>
<pdfrwt beam="2">  1        4 0.47479536E-02 0.12499710E+03</pdfrwt>
<pdfrwt beam="1">  1       -4 0.19471827E-01 0.12499710E+03</pdfrwt>
<totfact> 0.97847220E+03</totfact>
</mgrwt>
</event>
<event>
 5    1  0.3183609E-002  0.1250010E+03  0.7818608E-02  0.1235068E+00
          4   -1    0    0  501    0  0.00000000000E+00  0.00000000000E+00  0.52734910366E+03  0.52735063291E+03  0.12700000000E+01 0. -1.
         -4   -1    0    0    0  501 -0.00000000000E+00 -0.00000000000E+00 -0.73514637866E+01  0.74603565469E+01  0.12700000000E+01 0. -1.
         25    2    1    2    0    0  0.00000000000E+00  0.00000000000E+00  0.51999763987E+03  0.53481098946E+03  0.12500099588E+03 0.  0.
    9000005    1    3    3    0    0  0.21328262166E+02 -0.50319119498E+02  0.13033952391E+03  0.14133753941E+03  0.10000000000E+01 0.  0.
    9000005    1    3    3    0    0 -0.21328262166E+02  0.50319119498E+02  0.38965811596E+03  0.39347345004E+03  0.10000000000E+01 0.  0.
<mgrwt>
<rscale>  0 0.12500100E+03</rscale>
<asrwt>0</asrwt>
<pdfrwt beam="1">  1        4 0.81139109E-01 0.12500100E+03</pdfrwt>
<pdfrwt beam="2">  1       -4 0.11394887E-02 0.12500100E+03</pdfrwt>
<totfact> 0.53259967E+03</totfact>
</mgrwt>
</event>
<event>
 5    1  0.3183609E-002  0.1249970E+03  0.7818608E-02  0.1235074E+00
          4   -1    0    0  501    0  0.00000000000E+00  0.00000000000E+00  0.46663994482E+02  0.46681273344E+02  0.12700000000E+01 0.  1.
         -4   -1    0    0    0  501 -0.00000000000E+00 -0.00000000000E+00 -0.83668589199E+02  0.83678227267E+02  0.12700000000E+01 0.  1.
         25    2    1    2    0    0  0.00000000000E+00  0.00000000000E+00 -0.37004594717E+02  0.13035950061E+03  0.12499703744E+03 0.  0.
    9000005    1    3    3    0    0  0.13795339540E+02  0.59913740462E+02 -0.68377824788E+01  0.61868594282E+02  0.10000000000E+01 0.  0.
    9000005    1    3    3    0    0 -0.13795339540E+02 -0.59913740462E+02 -0.30166812239E+02  0.68490906329E+02  0.10000000000E+01 0.  0.
<mgrwt>
<rscale>  0 0.12499704E+03</rscale>
<asrwt>0</asrwt>
<pdfrwt beam="1">  1        4 0.71811466E-02 0.12499704E+03</pdfrwt>
<pdfrwt beam="2">  1       -4 0.12874161E-01 0.12499704E+03</pdfrwt>
<totfact> 0.10337514E+04</totfact>
</mgrwt>
</event>
<event>
 5    1  0.3183609E-002  0.1250009E+03  0.7818608E-02  0.1235068E+00
         -4   -1    0    0    0  501 -0.00000000000E+00  0.00000000000E+00  0.72995240157E+01  0.74091801744E+01  0.12700000000E+01 0. -1.
          4   -1    0    0  501    0  0.00000000000E+00 -0.00000000000E+00 -0.53104534824E+03  0.53104686685E+03  0.12700000000E+01 0. -1.
         25    2    1    2    0    0  0.00000000000E+00  0.00000000000E+00 -0.52374582423E+03  0.53845604702E+03  0.12500090472E+03 0.  0.
    9000005    1    3    3    0    0 -0.89420612254E+01 -0.60947942091E+02 -0.30719396683E+03  0.31331094038E+03  0.10000000000E+01 0.  0.
    9000005    1    3    3    0    0  0.89420612254E+01  0.60947942091E+02 -0.21655185739E+03  0.22514510664E+03  0.10000000000E+01 0.  0.
<mgrwt>
<rscale>  0 0.12500090E+03</rscale>
<asrwt>0</asrwt>
<pdfrwt beam="2">  1        4 0.81707806E-01 0.12500090E+03</pdfrwt>
<pdfrwt beam="1">  1       -4 0.11315560E-02 0.12500090E+03</pdfrwt>
<totfact> 0.52998369E+03</totfact>
</mgrwt>
</event>
<event>
 5    1  0.3183609E-002  0.1249963E+03  0.7818608E-02  0.1235075E+00
          4   -1    0    0  501    0  0.00000000000E+00  0.00000000000E+00  0.28268970793E+03  0.28269256069E+03  0.12700000000E+01 0.  1.
         -4   -1    0    0    0  501 -0.00000000000E+00 -0.00000000000E+00 -0.13785215187E+02  0.13843592661E+02  0.12700000000E+01 0.  1.
         25    2    1    2    0    0  0.00000000000E+00  0.00000000000E+00  0.26890449274E+03  0.29653615335E+03  0.12499625605E+03 0.  0.
    9000005    1    3    3    0    0  0.12353344494E+02 -0.16096307171E+02 -0.57644776635E+01  0.21116946452E+02  0.10000000000E+01 0.  0.
    9000005    1    3    3    0    0 -0.12353344494E+02  0.16096307171E+02  0.27466897041E+03  0.27541920690E+03  0.10000000000E+01 0.  0.
<mgrwt>
<rscale>  0 0.12499626E+03</rscale>
<asrwt>0</asrwt>
<pdfrwt beam="1">  1        4 0.43495429E-01 0.12499626E+03</pdfrwt>
<pdfrwt beam="2">  1       -4 0.21255126E-02 0.12499626E+03</pdfrwt>
<totfact> 0.76041725E+03</totfact>
</mgrwt>
</event>
<event>
 5    1  0.3183609E-002  0.1249988E+03  0.7818608E-02  0.1235071E+00
         -4   -1    0    0    0  501 -0.00000000000E+00  0.00000000000E+00  0.90553302037E+01  0.91439545656E+01  0.12700000000E+01 0. -1.
          4   -1    0    0  501    0  0.00000000000E+00 -0.00000000000E+00 -0.42917756898E+03  0.42917944804E+03  0.12700000000E+01 0. -1.
         25    2    1    2    0    0  0.00000000000E+00  0.00000000000E+00 -0.42012223878E+03  0.43832340260E+03  0.12499883901E+03 0.  0.
    9000005    1    3    3    0    0 -0.84151883813E+01  0.33600592066E+02 -0.27670964237E+02  0.44345207683E+02  0.10000000000E+01 0.  0.
    9000005    1    3    3    0    0  0.84151883813E+01 -0.33600592066E+02 -0.39245127454E+03  0.39397819492E+03  0.10000000000E+01 0.  0.
<mgrwt>
<rscale>  0 0.12499884E+03</rscale>
<asrwt>0</asrwt>
<pdfrwt beam="2">  1        4 0.66034264E-01 0.12499884E+03</pdfrwt>
<pdfrwt beam="1">  1       -4 0.14000899E-02 0.12499884E+03</pdfrwt>
<totfact> 0.60990272E+03</totfact>
</mgrwt>
</event>
<event>
 5    1  0.3183609E-002  0.1250023E+03  0.7818608E-02  0.1235066E+00
         -4   -1    0    0    0  501 -0.00000000000E+00  0.00000000000E+00  0.14271811725E+03  0.14272376779E+03  0.12700000000E+01 0.  1.
          4   -1    0    0  501    0  0.00000000000E+00 -0.00000000000E+00 -0.27350444305E+02  0.27379914238E+02  0.12700000000E+01 0.  1.
         25    2    1    2    0    0  0.00000000000E+00  0.00000000000E+00  0.11536767294E+03  0.17010368202E+03  0.12500225069E+03 0.  0.
    9000005    1    3    3    0    0  0.10845836722E+02 -0.23845195270E+02  0.13489276241E+03  0.13741645776E+03  0.10000000000E+01 0.  0.
    9000005    1    3    3    0    0 -0.10845836722E+02  0.23845195270E+02 -0.19525089466E+02  0.32687224267E+02  0.10000000000E+01 0.  0.
<mgrwt>
<rscale>  0 0.12500225E+03</rscale>
<asrwt>0</asrwt>
<pdfrwt beam="2">  1        4 0.42104622E-02 0.12500225E+03</pdfrwt>
<pdfrwt beam="1">  1       -4 0.21959335E-01 0.12500225E+03</pdfrwt>
<totfact> 0.95424494E+03</totfact>
</mgrwt>
</event>
<event>
 5    1  0.3183609E-002  0.1249955E+03  0.7818608E-02  0.1235076E+00
         -4   -1    0    0    0  501 -0.00000000000E+00  0.00000000000E+00  0.23189036012E+03  0.23189383782E+03  0.12700000000E+01 0. -1.
          4   -1    0    0  501    0  0.00000000000E+00 -0.00000000000E+00 -0.16816490375E+02  0.16864378095E+02  0.12700000000E+01 0. -1.
         25    2    1    2    0    0  0.00000000000E+00  0.00000000000E+00  0.21507386975E+03  0.24875821591E+03  0.12499552206E+03 0.  0.
    9000005    1    3    3    0    0 -0.46474998798E+02 -0.74113343092E+01  0.18935351660E+03  0.19511690762E+03  0.10000000000E+01 0.  0.
    9000005    1    3    3    0    0  0.46474998798E+02  0.74113343092E+01  0.25720353149E+02  0.53641308295E+02  0.10000000000E+01 0.  0.
<mgrwt>
<rscale>  0 0.12499552E+03</rscale>
<asrwt>0</asrwt>
<pdfrwt beam="2">  1        4 0.25911037E-02 0.12499552E+03</pdfrwt>
<pdfrwt beam="1">  1       -4 0.35679389E-01 0.12499552E+03</pdfrwt>
<totfact> 0.82518269E+03</totfact>
</mgrwt>
</event>
<event>
 5    1  0.3183609E-002  0.1249901E+03  0.7818608E-02  0.1235085E+00
         -4   -1    0    0    0  501 -0.00000000000E+00  0.00000000000E+00  0.30467800565E+02  0.30494258005E+02  0.12700000000E+01 0.  1.
          4   -1    0    0  501    0  0.00000000000E+00 -0.00000000000E+00 -0.12810359029E+03  0.12810988543E+03  0.12700000000E+01 0.  1.
         25    2    1    2    0    0  0.00000000000E+00  0.00000000000E+00 -0.97635789724E+02  0.15860414344E+03  0.12499010713E+03 0.  0.
    9000005    1    3    3    0    0  0.28108938984E+01  0.73369412880E+01  0.29844728147E+02  0.30877817768E+02  0.10000000000E+01 0.  0.
    9000005    1    3    3    0    0 -0.28108938984E+01 -0.73369412880E+01 -0.12748051787E+03  0.12772632567E+03  0.10000000000E+01 0.  0.
<mgrwt>
<rscale>  0 0.12499011E+03</rscale>
<asrwt>0</asrwt>
<pdfrwt beam="2">  1        4 0.19710764E-01 0.12499011E+03</pdfrwt>
<pdfrwt beam="1">  1       -4 0.46898734E-02 0.12499011E+03</pdfrwt>
<totfact> 0.97634284E+03</totfact>
</mgrwt>
</event>
<event>
 5    1  0.3183609E-002  0.1250017E+03  0.7818608E-02  0.1235067E+00
         -4   -1    0    0    0  501 -0.00000000000E+00  0.00000000000E+00  0.38446259082E+02  0.38467229396E+02  0.12700000000E+01 0.  1.
          4   -1    0    0  501    0  0.00000000000E+00 -0.00000000000E+00 -0.10155299367E+03  0.10156093454E+03  0.12700000000E+01 0.  1.
         25    2    1    2    0    0  0.00000000000E+00  0.00000000000E+00 -0.63106734591E+02  0.14002816393E+03  0.12500170696E+03 0.  0.
    9000005    1    3    3    0    0 -0.54064879135E+02  0.31278985534E+02 -0.33785536887E+02  0.71020057693E+02  0.10000000000E+01 0.  0.
    9000005    1    3    3    0    0  0.54064879135E+02 -0.31278985534E+02 -0.29321197704E+02  0.69008106239E+02  0.10000000000E+01 0.  0.
<mgrwt>
<rscale>  0 0.12500171E+03</rscale>
<asrwt>0</asrwt>
<pdfrwt beam="2">  1        4 0.15625761E-01 0.12500171E+03</pdfrwt>
<pdfrwt beam="1">  1       -4 0.59170331E-02 0.12500171E+03</pdfrwt>
<totfact> 0.10132612E+04</totfact>
</mgrwt>
</event>
<event>
 5    1  0.3183609E-002  0.1249988E+03  0.7818608E-02  0.1235071E+00
          4   -1    0    0  501    0  0.00000000000E+00  0.00000000000E+00  0.68345821896E+01  0.69515763469E+01  0.12700000000E+01 0. -1.
         -4   -1    0    0    0  501 -0.00000000000E+00 -0.00000000000E+00 -0.56656302969E+03  0.56656445310E+03  0.12700000000E+01 0. -1.
         25    2    1    2    0    0  0.00000000000E+00  0.00000000000E+00 -0.55972844750E+03  0.57351602944E+03  0.12499880434E+03 0.  0.
    9000005    1    3    3    0    0  0.39713408495E+02 -0.31768679313E+02 -0.44648320461E+03  0.44937140074E+03  0.10000000000E+01 0.  0.
    9000005    1    3    3    0    0 -0.39713408495E+02  0.31768679313E+02 -0.11324524289E+03  0.12414462870E+03  0.10000000000E+01 0.  0.
<mgrwt>
<rscale>  0 0.12499880E+03</rscale>
<asrwt>0</asrwt>
<pdfrwt beam="1">  1        4 0.10605837E-02 0.12499880E+03</pdfrwt>
<pdfrwt beam="2">  1       -4 0.87172615E-01 0.12499880E+03</pdfrwt>
<totfact> 0.50584540E+03</totfact>
</mgrwt>
</event>
<event>
 5    1  0.3183609E-002  0.1250050E+03  0.7818608E-02  0.1235061E+00
         -4   -1    0    0    0  501 -0.00000000000E+00  0.00000000000E+00  0.12249921933E+02  0.12315579051E+02  0.12700000000E+01 0. -1.
          4   -1    0    0  501    0  0.00000000000E+00 -0.00000000000E+00 -0.31798599805E+03  0.31798853416E+03  0.12700000000E+01 0. -1.
         25    2    1    2    0    0  0.00000000000E+00  0.00000000000E+00 -0.30573607612E+03  0.33030411321E+03  0.12500503575E+03 0.  0.
    9000005    1    3    3    0    0 -0.52419682135E+02 -0.30544513971E+01 -0.63324276815E+02  0.82268564973E+02  0.10000000000E+01 0.  0.
    9000005    1    3    3    0    0  0.52419682135E+02  0.30544513971E+01 -0.24241179931E+03  0.24803554824E+03  0.10000000000E+01 0.  0.
<mgrwt>
<rscale>  0 0.12500504E+03</rscale>
<asrwt>0</asrwt>
<pdfrwt beam="2">  1        4 0.48926162E-01 0.12500504E+03</pdfrwt>
<pdfrwt beam="1">  1       -4 0.18898493E-02 0.12500504E+03</pdfrwt>
<totfact> 0.71939095E+03</totfact>
</mgrwt>
</event>
<event>
 5    1  0.3183609E-002  0.1250029E+03  0.7818608E-02  0.1235065E+00
         -4   -1    0    0    0  501 -0.00000000000E+00  0.00000000000E+00  0.25380553179E+03  0.25380870920E+03  0.12700000000E+01 0. -1.
          4   -1    0    0  501    0  0.00000000000E+00 -0.00000000000E+00 -0.15361964862E+02  0.15414372009E+02  0.12700000000E+01 0. -1.
         25    2    1    2    0    0  0.00000000000E+00  0.00000000000E+00  0.23844356692E+03  0.26922308121E+03  0.12500293136E+03 0.  0.
    9000005    1    3    3    0    0 -0.38038849588E+02 -0.45851426147E+02  0.15986554035E+03  0.17060861159E+03  0.10000000000E+01 0.  0.
    9000005    1    3    3    0    0  0.38038849588E+02  0.45851426147E+02  0.78578026578E+02  0.98614469621E+02  0.10000000000E+01 0.  0.
<mgrwt>
<rscale>  0 0.12500293E+03</rscale>
<asrwt>0</asrwt>
<pdfrwt beam="2">  1        4 0.23676550E-02 0.12500293E+03</pdfrwt>
<pdfrwt beam="1">  1       -4 0.39051280E-01 0.12500293E+03</pdfrwt>
<totfact> 0.79623713E+03</totfact>
</mgrwt>
</event>
<event>
 5    1  0.3183609E-002  0.1249989E+03  0.7818608E-02  0.1235071E+00
         -4   -1    0    0    0  501 -0.00000000000E+00  0.00000000000E+00  0.57254981115E+02  0.57269064620E+02  0.12700000000E+01 0. -1.
          4   -1    0    0  501    0  0.00000000000E+00 -0.00000000000E+00 -0.68195893873E+02  0.68207718340E+02  0.12700000000E+01 0. -1.
         25    2    1    2    0    0  0.00000000000E+00  0.00000000000E+00 -0.10940912758E+02  0.12547678296E+03  0.12499887795E+03 0.  0.
    9000005    1    3    3    0    0  0.23343865578E+02  0.83551310146E+01 -0.63052086886E+02  0.67759205538E+02  0.10000000000E+01 0.  0.
    9000005    1    3    3    0    0 -0.23343865578E+02 -0.83551310146E+01  0.52111174128E+02  0.57717577422E+02  0.10000000000E+01 0.  0.
<mgrwt>
<rscale>  0 0.12499888E+03</rscale>
<asrwt>0</asrwt>
<pdfrwt beam="2">  1        4 0.10493669E-01 0.12499888E+03</pdfrwt>
<pdfrwt beam="1">  1       -4 0.88104516E-02 0.12499888E+03</pdfrwt>
<totfact> 0.10442732E+04</totfact>
</mgrwt>
</event>
<event>
 5    1  0.3183609E-002  0.1249872E+03  0.7818608E-02  0.1235089E+00
         -4   -1    0    0    0  501 -0.00000000000E+00  0.00000000000E+00  0.31256531335E+03  0.31256789344E+03  0.12700000000E+01 0.  1.
          4   -1    0    0  501    0  0.00000000000E+00 -0.00000000000E+00 -0.12459928058E+02  0.12524484310E+02  0.12700000000E+01 0.  1.
         25    2    1    2    0    0  0.00000000000E+00  0.00000000000E+00  0.30010538529E+03  0.32509237775E+03  0.12498724651E+03 0.  0.
    9000005    1    3    3    0    0  0.47040371859E+02  0.40804184255E+02  0.13661908779E+03  0.15014510710E+03  0.10000000000E+01 0.  0.
    9000005    1    3    3    0    0 -0.47040371859E+02 -0.40804184255E+02  0.16348629750E+03  0.17494727065E+03  0.10000000000E+01 0.  0.
<mgrwt>
<rscale>  0 0.12498725E+03</rscale>
<asrwt>0</asrwt>
<pdfrwt beam="2">  1        4 0.19220764E-02 0.12498725E+03</pdfrwt>
<pdfrwt beam="1">  1       -4 0.48092134E-01 0.12498725E+03</pdfrwt>
<totfact> 0.72575029E+03</totfact>
</mgrwt>
</event>
<event>
 5    1  0.3183609E-002  0.1250010E+03  0.7818608E-02  0.1235068E+00
         -4   -1    0    0    0  501 -0.00000000000E+00  0.00000000000E+00  0.10117691477E+02  0.10197086879E+02  0.12700000000E+01 0.  1.
          4   -1    0    0  501    0  0.00000000000E+00 -0.00000000000E+00 -0.38449797083E+03  0.38450006823E+03  0.12700000000E+01 0.  1.
         25    2    1    2    0    0  0.00000000000E+00  0.00000000000E+00 -0.37438027935E+03  0.39469715511E+03  0.12500100274E+03 0.  0.
    9000005    1    3    3    0    0 -0.11179548606E+02  0.47805858122E+02 -0.30927476384E+03  0.31314894527E+03  0.10000000000E+01 0.  0.
    9000005    1    3    3    0    0  0.11179548606E+02 -0.47805858122E+02 -0.65105515513E+02  0.81548209840E+02  0.10000000000E+01 0.  0.
<mgrwt>
<rscale>  0 0.12500100E+03</rscale>
<asrwt>0</asrwt>
<pdfrwt beam="2">  1        4 0.59159791E-01 0.12500100E+03</pdfrwt>
<pdfrwt beam="1">  1       -4 0.15628369E-02 0.12500100E+03</pdfrwt>
<totfact> 0.65070390E+03</totfact>
</mgrwt>
</event>
<event>
 5    1  0.3183609E-002  0.1249978E+03  0.7818608E-02  0.1235073E+00
          4   -1    0    0  501    0  0.00000000000E+00  0.00000000000E+00  0.25785483663E+01  0.28743367370E+01  0.12700000000E+01 0. -1.
         -4   -1    0    0    0  501 -0.00000000000E+00 -0.00000000000E+00 -0.14323816391E+04  0.14323822021E+04  0.12700000000E+01 0. -1.
         25    2    1    2    0    0  0.00000000000E+00  0.00000000000E+00 -0.14298030908E+04  0.14352565389E+04  0.12499781615E+03 0.  0.
    9000005    1    3    3    0    0 -0.29816478610E+02 -0.49549869373E+02 -0.44296321166E+03  0.44672320158E+03  0.10000000000E+01 0.  0.
    9000005    1    3    3    0    0  0.29816478610E+02  0.49549869373E+02 -0.98683987911E+03  0.98853333730E+03  0.10000000000E+01 0.  0.
<mgrwt>
<rscale>  0 0.12499782E+03</rscale>
<asrwt>0</asrwt>
<pdfrwt beam="1">  1        4 0.41949715E-03 0.12499782E+03</pdfrwt>
<pdfrwt beam="2">  1       -4 0.22038860E+00 0.12499782E+03</pdfrwt>
<totfact> 0.19237754E+03</totfact>
</mgrwt>
</event>
<event>
 5    1  0.3183609E-002  0.1250000E+03  0.7818608E-02  0.1235069E+00
         -4   -1    0    0    0  501 -0.00000000000E+00  0.00000000000E+00  0.64548663661E+03  0.64548788597E+03  0.12700000000E+01 0.  1.
          4   -1    0    0  501    0  0.00000000000E+00 -0.00000000000E+00 -0.59837347216E+01  0.61170238857E+01  0.12700000000E+01 0.  1.
         25    2    1    2    0    0  0.00000000000E+00  0.00000000000E+00  0.63950290188E+03  0.65160490986E+03  0.12499998813E+03 0.  0.
    9000005    1    3    3    0    0 -0.53224646917E+02 -0.28666090507E+02  0.40227936039E+03  0.40679760518E+03  0.10000000000E+01 0.  0.
    9000005    1    3    3    0    0  0.53224646917E+02  0.28666090507E+02  0.23722354149E+03  0.24480730468E+03  0.10000000000E+01 0.  0.
<mgrwt>
<rscale>  0 0.12499999E+03</rscale>
<asrwt>0</asrwt>
<pdfrwt beam="2">  1        4 0.93092388E-03 0.12499999E+03</pdfrwt>
<pdfrwt beam="1">  1       -4 0.99315965E-01 0.12499999E+03</pdfrwt>
<totfact> 0.45764002E+03</totfact>
</mgrwt>
</event>
<event>
 5    1  0.3183609E-002  0.1249980E+03  0.7818608E-02  0.1235072E+00
         -4   -1    0    0    0  501 -0.00000000000E+00  0.00000000000E+00  0.25957888041E+03  0.25958198716E+03  0.12700000000E+01 0. -1.
          4   -1    0    0  501    0  0.00000000000E+00 -0.00000000000E+00 -0.15017942360E+02  0.15071545797E+02  0.12700000000E+01 0. -1.
         25    2    1    2    0    0  0.00000000000E+00  0.00000000000E+00  0.24456093805E+03  0.27465353296E+03  0.12499804296E+03 0.  0.
    9000005    1    3    3    0    0 -0.42260367109E+02 -0.34077070328E+02  0.19028716253E+03  0.19788226189E+03  0.10000000000E+01 0.  0.
    9000005    1    3    3    0    0  0.42260367109E+02  0.34077070328E+02  0.54273775529E+02  0.76771271061E+02  0.10000000000E+01 0.  0.
<mgrwt>
<rscale>  0 0.12499804E+03</rscale>
<asrwt>0</asrwt>
<pdfrwt beam="2">  1        4 0.23148151E-02 0.12499804E+03</pdfrwt>
<pdfrwt beam="1">  1       -4 0.39939573E-01 0.12499804E+03</pdfrwt>
<totfact> 0.78895824E+03</totfact>
</mgrwt>
</event>
<event>
 5    1  0.3183609E-002  0.1250016E+03  0.7818608E-02  0.1235067E+00
          4   -1    0    0  501    0  0.00000000000E+00  0.00000000000E+00  0.36721806616E+02  0.36743761119E+02  0.12700000000E+01 0. -1.
         -4   -1    0    0    0  501 -0.00000000000E+00 -0.00000000000E+00 -0.10631928613E+03  0.10632687103E+03  0.12700000000E+01 0. -1.
         25    2    1    2    0    0  0.00000000000E+00  0.00000000000E+00 -0.69597479511E+02  0.14307063215E+03  0.12500158650E+03 0.  0.
    9000005    1    3    3    0    0  0.54314450396E+02  0.21386493321E+02 -0.92594202139E+01  0.59111576541E+02  0.10000000000E+01 0.  0.
    9000005    1    3    3    0    0 -0.54314450396E+02 -0.21386493321E+02 -0.60338059297E+02  0.83959055606E+02  0.10000000000E+01 0.  0.
<mgrwt>
<rscale>  0 0.12500159E+03</rscale>
<asrwt>0</asrwt>
<pdfrwt beam="1">  1        4 0.56517810E-02 0.12500159E+03</pdfrwt>
<pdfrwt beam="2">  1       -4 0.16359085E-01 0.12500159E+03</pdfrwt>
<totfact> 0.10069977E+04</totfact>
</mgrwt>
</event>
<event>
 5    1  0.3183609E-002  0.1249971E+03  0.7818608E-02  0.1235074E+00
         -4   -1    0    0    0  501 -0.00000000000E+00  0.00000000000E+00  0.21193198365E+03  0.21193578884E+03  0.12700000000E+01 0.  1.
          4   -1    0    0  501    0  0.00000000000E+00 -0.00000000000E+00 -0.18404914200E+02  0.18448679268E+02  0.12700000000E+01 0.  1.
         25    2    1    2    0    0  0.00000000000E+00  0.00000000000E+00  0.19352706945E+03  0.23038446811E+03  0.12499710612E+03 0.  0.
    9000005    1    3    3    0    0  0.20430755265E+02 -0.24452680493E+02 -0.23153488780E+01  0.31964201608E+02  0.10000000000E+01 0.  0.
    9000005    1    3    3    0    0 -0.20430755265E+02  0.24452680493E+02  0.19584241832E+03  0.19842026650E+03  0.10000000000E+01 0.  0.
<mgrwt>
<rscale>  0 0.12499711E+03</rscale>
<asrwt>0</asrwt>
<pdfrwt beam="2">  1        4 0.28351845E-02 0.12499711E+03</pdfrwt>
<pdfrwt beam="1">  1       -4 0.32608580E-01 0.12499711E+03</pdfrwt>
<totfact> 0.85256100E+03</totfact>
</mgrwt>
</event>
<event>
 5    1  0.3183609E-002  0.1249955E+03  0.7818608E-02  0.1235076E+00
          4   -1    0    0  501    0  0.00000000000E+00  0.00000000000E+00  0.54085264004E+02  0.54100172665E+02  0.12700000000E+01 0. -1.
         -4   -1    0    0    0  501 -0.00000000000E+00 -0.00000000000E+00 -0.72188248874E+02  0.72199419495E+02  0.12700000000E+01 0. -1.
         25    2    1    2    0    0  0.00000000000E+00  0.00000000000E+00 -0.18102984870E+02  0.12629959216E+03  0.12499547559E+03 0.  0.
    9000005    1    3    3    0    0 -0.31812339858E+02  0.52358417624E+02 -0.21490019498E+02  0.64932655893E+02  0.10000000000E+01 0.  0.
    9000005    1    3    3    0    0  0.31812339858E+02 -0.52358417624E+02  0.33870346284E+01  0.61366936268E+02  0.10000000000E+01 0.  0.
<mgrwt>
<rscale>  0 0.12499548E+03</rscale>
<asrwt>0</asrwt>
<pdfrwt beam="1">  1        4 0.83228159E-02 0.12499548E+03</pdfrwt>
<pdfrwt beam="2">  1       -4 0.11107891E-01 0.12499548E+03</pdfrwt>
<totfact> 0.10425467E+04</totfact>
</mgrwt>
</event>
<event>
 5    1  0.3183609E-002  0.1250008E+03  0.7818608E-02  0.1235068E+00
         -4   -1    0    0    0  501 -0.00000000000E+00  0.00000000000E+00  0.13498518905E+03  0.13499116327E+03  0.12700000000E+01 0.  1.
          4   -1    0    0  501    0  0.00000000000E+00 -0.00000000000E+00 -0.28918166912E+02  0.28946040792E+02  0.12700000000E+01 0.  1.
         25    2    1    2    0    0  0.00000000000E+00  0.00000000000E+00  0.10606702214E+03  0.16393720407E+03  0.12500077477E+03 0.  0.
    9000005    1    3    3    0    0  0.23855138395E+02  0.53862012263E+02  0.80390390879E+02  0.99668445049E+02  0.10000000000E+01 0.  0.
    9000005    1    3    3    0    0 -0.23855138395E+02 -0.53862012263E+02  0.25676631257E+02  0.64268759017E+02  0.10000000000E+01 0.  0.
<mgrwt>
<rscale>  0 0.12500077E+03</rscale>
<asrwt>0</asrwt>
<pdfrwt beam="2">  1        4 0.44515525E-02 0.12500077E+03</pdfrwt>
<pdfrwt beam="1">  1       -4 0.20769556E-01 0.12500077E+03</pdfrwt>
<totfact> 0.96587367E+03</totfact>
</mgrwt>
</event>
<event>
 5    1  0.3183609E-002  0.1250057E+03  0.7818608E-02  0.1235060E+00
         -4   -1    0    0    0  501 -0.00000000000E+00  0.00000000000E+00  0.20442225774E+02  0.20481637986E+02  0.12700000000E+01 0.  1.
          4   -1    0    0  501    0  0.00000000000E+00 -0.00000000000E+00 -0.19087923593E+03  0.19088346080E+03  0.12700000000E+01 0.  1.
         25    2    1    2    0    0  0.00000000000E+00  0.00000000000E+00 -0.17043701015E+03  0.21136509879E+03  0.12500572209E+03 0.  0.
    9000005    1    3    3    0    0  0.29847527989E+02 -0.58320415674E+01  0.70947308384E+01  0.31244564992E+02  0.10000000000E+01 0.  0.
    9000005    1    3    3    0    0 -0.29847527989E+02  0.58320415674E+01 -0.17753174099E+03  0.18012053380E+03  0.10000000000E+01 0.  0.
<mgrwt>
<rscale>  0 0.12500572E+03</rscale>
<asrwt>0</asrwt>
<pdfrwt beam="2">  1        4 0.29369392E-01 0.12500572E+03</pdfrwt>
<pdfrwt beam="1">  1       -4 0.31483146E-02 0.12500572E+03</pdfrwt>
<totfact> 0.88242139E+03</totfact>
</mgrwt>
</event>
<event>
 5    1  0.3183609E-002  0.1249999E+03  0.7818608E-02  0.1235069E+00
          4   -1    0    0  501    0  0.00000000000E+00  0.00000000000E+00  0.24568048624E+02  0.24600851880E+02  0.12700000000E+01 0.  1.
         -4   -1    0    0    0  501 -0.00000000000E+00 -0.00000000000E+00 -0.15885546973E+03  0.15886054627E+03  0.12700000000E+01 0.  1.
         25    2    1    2    0    0  0.00000000000E+00  0.00000000000E+00 -0.13428742110E+03  0.18346139815E+03  0.12499989258E+03 0.  0.
    9000005    1    3    3    0    0  0.22421749336E+02  0.58047110545E+02 -0.75580248867E+02  0.97905954389E+02  0.10000000000E+01 0.  0.
    9000005    1    3    3    0    0 -0.22421749336E+02 -0.58047110545E+02 -0.58707172234E+02  0.85555443764E+02  0.10000000000E+01 0.  0.
<mgrwt>
<rscale>  0 0.12499989E+03</rscale>
<asrwt>0</asrwt>
<pdfrwt beam="1">  1        4 0.37826137E-02 0.12499989E+03</pdfrwt>
<pdfrwt beam="2">  1       -4 0.24442216E-01 0.12499989E+03</pdfrwt>
<totfact> 0.92997849E+03</totfact>
</mgrwt>
</event>
<event>
 5    1  0.3183609E-002  0.1250090E+03  0.7818608E-02  0.1235055E+00
         -4   -1    0    0    0  501 -0.00000000000E+00  0.00000000000E+00  0.19830477970E+03  0.19830884638E+03  0.12700000000E+01 0.  1.
          4   -1    0    0  501    0  0.00000000000E+00 -0.00000000000E+00 -0.19676313246E+02  0.19717256477E+02  0.12700000000E+01 0.  1.
         25    2    1    2    0    0  0.00000000000E+00  0.00000000000E+00  0.17862846646E+03  0.21802610286E+03  0.12500900967E+03 0.  0.
    9000005    1    3    3    0    0  0.23088374477E+02 -0.53634347965E+02  0.50467867625E+02  0.77186281037E+02  0.10000000000E+01 0.  0.
    9000005    1    3    3    0    0 -0.23088374477E+02  0.53634347965E+02  0.12816059883E+03  0.14083982182E+03  0.10000000000E+01 0.  0.
<mgrwt>
<rscale>  0 0.12500901E+03</rscale>
<asrwt>0</asrwt>
<pdfrwt beam="2">  1        4 0.30305874E-02 0.12500901E+03</pdfrwt>
<pdfrwt beam="1">  1       -4 0.30511890E-01 0.12500901E+03</pdfrwt>
<totfact> 0.87164113E+03</totfact>
</mgrwt>
</event>
<event>
 5    1  0.3183609E-002  0.1250000E+03  0.7818608E-02  0.1235069E+00
         -4   -1    0    0    0  501 -0.00000000000E+00  0.00000000000E+00  0.26275612206E+02  0.26306286260E+02  0.12700000000E+01 0.  1.
          4   -1    0    0  501    0  0.00000000000E+00 -0.00000000000E+00 -0.14854439986E+03  0.14854982878E+03  0.12700000000E+01 0.  1.
         25    2    1    2    0    0  0.00000000000E+00  0.00000000000E+00 -0.12226878765E+03  0.17485611504E+03  0.12500001812E+03 0.  0.
    9000005    1    3    3    0    0  0.33193172805E+02 -0.21880184824E+02  0.63116149462E+01  0.40266185467E+02  0.10000000000E+01 0.  0.
    9000005    1    3    3    0    0 -0.33193172805E+02  0.21880184824E+02 -0.12858040260E+03  0.13458992957E+03  0.10000000000E+01 0.  0.
<mgrwt>
<rscale>  0 0.12500002E+03</rscale>
<asrwt>0</asrwt>
<pdfrwt beam="2">  1        4 0.22855761E-01 0.12500002E+03</pdfrwt>
<pdfrwt beam="1">  1       -4 0.40451791E-02 0.12500002E+03</pdfrwt>
<totfact> 0.94551161E+03</totfact>
</mgrwt>
</event>
<event>
 5    1  0.3183609E-002  0.1250067E+03  0.7818608E-02  0.1235059E+00
         -4   -1    0    0    0  501 -0.00000000000E+00  0.00000000000E+00  0.34306932473E+03  0.34307167542E+03  0.12700000000E+01 0.  1.
          4   -1    0    0  501    0  0.00000000000E+00 -0.00000000000E+00 -0.11349605288E+02  0.11420439579E+02  0.12700000000E+01 0.  1.
         25    2    1    2    0    0  0.00000000000E+00  0.00000000000E+00  0.33171971944E+03  0.35449211499E+03  0.12500674912E+03 0.  0.
    9000005    1    3    3    0    0 -0.20583453169E+02  0.34391622456E+02  0.29883816441E+02  0.50005046991E+02  0.10000000000E+01 0.  0.
    9000005    1    3    3    0    0  0.20583453169E+02 -0.34391622456E+02  0.30183590300E+03  0.30448706800E+03  0.10000000000E+01 0.  0.
<mgrwt>
<rscale>  0 0.12500675E+03</rscale>
<asrwt>0</asrwt>
<pdfrwt beam="2">  1        4 0.17517225E-02 0.12500675E+03</pdfrwt>
<pdfrwt beam="1">  1       -4 0.52785533E-01 0.12500675E+03</pdfrwt>
<totfact> 0.69222835E+03</totfact>
</mgrwt>
</event>
<event>
 5    1  0.3183609E-002  0.1249976E+03  0.7818608E-02  0.1235073E+00
         -4   -1    0    0    0  501 -0.00000000000E+00  0.00000000000E+00  0.35555629125E+02  0.35578303254E+02  0.12700000000E+01 0. -1.
          4   -1    0    0  501    0  0.00000000000E+00 -0.00000000000E+00 -0.10979751254E+03  0.10980485718E+03  0.12700000000E+01 0. -1.
         25    2    1    2    0    0  0.00000000000E+00  0.00000000000E+00 -0.74241883418E+02  0.14538316044E+03  0.12499762432E+03 0.  0.
    9000005    1    3    3    0    0 -0.59332505949E+02  0.14054366475E+02 -0.53035702452E+02  0.80818668721E+02  0.10000000000E+01 0.  0.
    9000005    1    3    3    0    0  0.59332505949E+02 -0.14054366475E+02 -0.21206180966E+02  0.64564491714E+02  0.10000000000E+01 0.  0.
<mgrwt>
<rscale>  0 0.12499762E+03</rscale>
<asrwt>0</asrwt>
<pdfrwt beam="2">  1        4 0.16894234E-01 0.12499762E+03</pdfrwt>
<pdfrwt beam="1">  1       -4 0.54724060E-02 0.12499762E+03</pdfrwt>
<totfact> 0.10023745E+04</totfact>
</mgrwt>
</event>
<event>
 5    1  0.3183609E-002  0.1250039E+03  0.7818608E-02  0.1235063E+00
          4   -1    0    0  501    0  0.00000000000E+00  0.00000000000E+00  0.12828295365E+03  0.12828923999E+03  0.12700000000E+01 0. -1.
         -4   -1    0    0    0  501 -0.00000000000E+00 -0.00000000000E+00 -0.30431889827E+02  0.30458378460E+02  0.12700000000E+01 0. -1.
         25    2    1    2    0    0  0.00000000000E+00  0.00000000000E+00  0.97851063825E+02  0.15874761845E+03  0.12500390263E+03 0.  0.
    9000005    1    3    3    0    0 -0.62445463262E+02 -0.22843807432E+01  0.50089203385E+02  0.80091089225E+02  0.10000000000E+01 0.  0.
    9000005    1    3    3    0    0  0.62445463262E+02  0.22843807432E+01  0.47761860440E+02  0.78656529227E+02  0.10000000000E+01 0.  0.
<mgrwt>
<rscale>  0 0.12500390E+03</rscale>
<asrwt>0</asrwt>
<pdfrwt beam="1">  1        4 0.19738360E-01 0.12500390E+03</pdfrwt>
<pdfrwt beam="2">  1       -4 0.46843504E-02 0.12500390E+03</pdfrwt>
<totfact> 0.97576218E+03</totfact>
</mgrwt>
</event>
<event>
 5    1  0.3183609E-002  0.1249991E+03  0.7818608E-02  0.1235071E+00
         -4   -1    0    0    0  501 -0.00000000000E+00  0.00000000000E+00  0.39276873913E+03  0.39277079237E+03  0.12700000000E+01 0. -1.
          4   -1    0    0  501    0  0.00000000000E+00 -0.00000000000E+00 -0.99026520122E+01  0.99837576530E+01  0.12700000000E+01 0. -1.
         25    2    1    2    0    0  0.00000000000E+00  0.00000000000E+00  0.38286608712E+03  0.40275455003E+03  0.12499914759E+03 0.  0.
    9000005    1    3    3    0    0  0.36574291250E+02 -0.42543111776E+02  0.28011879317E+03  0.28568362471E+03  0.10000000000E+01 0.  0.
    9000005    1    3    3    0    0 -0.36574291250E+02  0.42543111776E+02  0.10274729395E+03  0.11707092532E+03  0.10000000000E+01 0.  0.
<mgrwt>
<rscale>  0 0.12499915E+03</rscale>
<asrwt>0</asrwt>
<pdfrwt beam="2">  1        4 0.15298816E-02 0.12499915E+03</pdfrwt>
<pdfrwt beam="1">  1       -4 0.60432362E-01 0.12499915E+03</pdfrwt>
<totfact> 0.64286968E+03</totfact>
</mgrwt>
</event>
<event>
 5    1  0.3183609E-002  0.1250102E+03  0.7818608E-02  0.1235053E+00
          4   -1    0    0  501    0  0.00000000000E+00  0.00000000000E+00  0.25439725204E+02  0.25471405898E+02  0.12700000000E+01 0.  1.
         -4   -1    0    0    0  501 -0.00000000000E+00 -0.00000000000E+00 -0.15344448711E+03  0.15344974267E+03  0.12700000000E+01 0.  1.
         25    2    1    2    0    0  0.00000000000E+00  0.00000000000E+00 -0.12800476191E+03  0.17892114857E+03  0.12501023292E+03 0.  0.
    9000005    1    3    3    0    0  0.11903019630E+02 -0.61222492957E+02 -0.69729904492E+02  0.93558190986E+02  0.10000000000E+01 0.  0.
    9000005    1    3    3    0    0 -0.11903019630E+02  0.61222492957E+02 -0.58274857418E+02  0.85362957583E+02  0.10000000000E+01 0.  0.
<mgrwt>
<rscale>  0 0.12501023E+03</rscale>
<asrwt>0</asrwt>
<pdfrwt beam="1">  1        4 0.39166452E-02 0.12501023E+03</pdfrwt>
<pdfrwt beam="2">  1       -4 0.23609685E-01 0.12501023E+03</pdfrwt>
<totfact> 0.93790038E+03</totfact>
</mgrwt>
</event>
<event>
 5    1  0.3183609E-002  0.1250006E+03  0.7818608E-02  0.1235068E+00
         -4   -1    0    0    0  501 -0.00000000000E+00  0.00000000000E+00  0.12043645573E+03  0.12044315161E+03  0.12700000000E+01 0. -1.
          4   -1    0    0  501    0  0.00000000000E+00 -0.00000000000E+00 -0.32414372830E+02  0.32439242685E+02  0.12700000000E+01 0. -1.
         25    2    1    2    0    0  0.00000000000E+00  0.00000000000E+00  0.88022082900E+02  0.15288239429E+03  0.12500055762E+03 0.  0.
    9000005    1    3    3    0    0  0.32070141745E+00  0.42723666160E+02 -0.11767050937E+02  0.44326944259E+02  0.10000000000E+01 0.  0.
    9000005    1    3    3    0    0 -0.32070141745E+00 -0.42723666160E+02  0.99789133837E+02  0.10855545003E+03  0.10000000000E+01 0.  0.
<mgrwt>
<rscale>  0 0.12500056E+03</rscale>
<asrwt>0</asrwt>
<pdfrwt beam="2">  1        4 0.49892548E-02 0.12500056E+03</pdfrwt>
<pdfrwt beam="1">  1       -4 0.18531114E-01 0.12500056E+03</pdfrwt>
<totfact> 0.98730970E+03</totfact>
</mgrwt>
</event>
<event>
 5    1  0.3183609E-002  0.1249863E+03  0.7818608E-02  0.1235091E+00
          4   -1    0    0  501    0  0.00000000000E+00  0.00000000000E+00  0.10780398142E+03  0.10781146187E+03  0.12700000000E+01 0. -1.
         -4   -1    0    0    0  501 -0.00000000000E+00 -0.00000000000E+00 -0.36206939866E+02  0.36229206373E+02  0.12700000000E+01 0. -1.
         25    2    1    2    0    0  0.00000000000E+00  0.00000000000E+00  0.71597041559E+02  0.14404066825E+03  0.12498631024E+03 0.  0.
    9000005    1    3    3    0    0 -0.33806484776E+02  0.52456271242E+02  0.32180551203E+02  0.70221981468E+02  0.10000000000E+01 0.  0.
    9000005    1    3    3    0    0  0.33806484776E+02 -0.52456271242E+02  0.39416490356E+02  0.73818686777E+02  0.10000000000E+01 0.  0.
<mgrwt>
<rscale>  0 0.12498631E+03</rscale>
<asrwt>0</asrwt>
<pdfrwt beam="1">  1        4 0.16587516E-01 0.12498631E+03</pdfrwt>
<pdfrwt beam="2">  1       -4 0.55725866E-02 0.12498631E+03</pdfrwt>
<totfact> 0.10053615E+04</totfact>
</mgrwt>
</event>
<event>
 5    1  0.3183609E-002  0.1250002E+03  0.7818608E-02  0.1235069E+00
          4   -1    0    0  501    0  0.00000000000E+00  0.00000000000E+00  0.19459844919E+03  0.19460259332E+03  0.12700000000E+01 0.  1.
         -4   -1    0    0    0  501 -0.00000000000E+00 -0.00000000000E+00 -0.20049017170E+02  0.20089200817E+02  0.12700000000E+01 0.  1.
         25    2    1    2    0    0  0.00000000000E+00  0.00000000000E+00  0.17454943202E+03  0.21469179414E+03  0.12500024900E+03 0.  0.
    9000005    1    3    3    0    0  0.30076402637E+02 -0.44490834667E+02  0.32387812504E+02  0.62721565380E+02  0.10000000000E+01 0.  0.
    9000005    1    3    3    0    0 -0.30076402637E+02  0.44490834667E+02  0.14216161951E+03  0.15197022876E+03  0.10000000000E+01 0.  0.
<mgrwt>
<rscale>  0 0.12500025E+03</rscale>
<asrwt>0</asrwt>
<pdfrwt beam="1">  1        4 0.29941633E-01 0.12500025E+03</pdfrwt>
<pdfrwt beam="2">  1       -4 0.30878740E-02 0.12500025E+03</pdfrwt>
<totfact> 0.87714847E+03</totfact>
</mgrwt>
</event>
<event>
 5    1  0.3183609E-002  0.1250132E+03  0.7818608E-02  0.1235049E+00
         -4   -1    0    0    0  501 -0.00000000000E+00  0.00000000000E+00  0.14137394177E+03  0.14137964603E+03  0.12700000000E+01 0.  1.
          4   -1    0    0  501    0  0.00000000000E+00 -0.00000000000E+00 -0.27615590393E+02  0.27644777676E+02  0.12700000000E+01 0.  1.
         25    2    1    2    0    0  0.00000000000E+00  0.00000000000E+00  0.11375835138E+03  0.16902442371E+03  0.12501317251E+03 0.  0.
    9000005    1    3    3    0    0  0.19727011442E+02  0.14792354723E+02  0.13452639350E+03  0.13677104696E+03  0.10000000000E+01 0.  0.
    9000005    1    3    3    0    0 -0.19727011442E+02 -0.14792354723E+02 -0.20768042115E+02  0.32253376753E+02  0.10000000000E+01 0.  0.
<mgrwt>
<rscale>  0 0.12501317E+03</rscale>
<asrwt>0</asrwt>
<pdfrwt beam="2">  1        4 0.42512363E-02 0.12501317E+03</pdfrwt>
<pdfrwt beam="1">  1       -4 0.21752521E-01 0.12501317E+03</pdfrwt>
<totfact> 0.95602331E+03</totfact>
</mgrwt>
</event>
<event>
 5    1  0.3183609E-002  0.1250049E+03  0.7818608E-02  0.1235062E+00
         -4   -1    0    0    0  501 -0.00000000000E+00  0.00000000000E+00  0.98709015122E+02  0.98717184757E+02  0.12700000000E+01 0. -1.
          4   -1    0    0  501    0  0.00000000000E+00 -0.00000000000E+00 -0.39556505000E+02  0.39576887041E+02  0.12700000000E+01 0. -1.
         25    2    1    2    0    0  0.00000000000E+00  0.00000000000E+00  0.59152510122E+02  0.13829407180E+03  0.12500492327E+03 0.  0.
    9000005    1    3    3    0    0  0.52709245607E+02  0.32547715709E+02  0.38695042817E+02  0.73047414115E+02  0.10000000000E+01 0.  0.
    9000005    1    3    3    0    0 -0.52709245607E+02 -0.32547715709E+02  0.20457467305E+02  0.65246657683E+02  0.10000000000E+01 0.  0.
<mgrwt>
<rscale>  0 0.12500492E+03</rscale>
<asrwt>0</asrwt>
<pdfrwt beam="2">  1        4 0.60878125E-02 0.12500492E+03</pdfrwt>
<pdfrwt beam="1">  1       -4 0.15188198E-01 0.12500492E+03</pdfrwt>
<totfact> 0.10167937E+04</totfact>
</mgrwt>
</event>
<event>
 5    1  0.3183609E-002  0.1250011E+03  0.7818608E-02  0.1235068E+00
         -4   -1    0    0    0  501 -0.00000000000E+00  0.00000000000E+00  0.18405686264E+03  0.18406124411E+03  0.12700000000E+01 0.  1.
          4   -1    0    0  501    0  0.00000000000E+00 -0.00000000000E+00 -0.21199795002E+02  0.21237801396E+02  0.12700000000E+01 0.  1.
         25    2    1    2    0    0  0.00000000000E+00  0.00000000000E+00  0.16285706763E+03  0.20529904551E+03  0.12500109443E+03 0.  0.
    9000005    1    3    3    0    0 -0.24164630782E+02 -0.54507818868E+02  0.11216719450E+03  0.12703350432E+03  0.10000000000E+01 0.  0.
    9000005    1    3    3    0    0  0.24164630782E+02  0.54507818868E+02  0.50689873139E+02  0.78265541188E+02  0.10000000000E+01 0.  0.
<mgrwt>
<rscale>  0 0.12500109E+03</rscale>
<asrwt>0</asrwt>
<pdfrwt beam="2">  1        4 0.32647675E-02 0.12500109E+03</pdfrwt>
<pdfrwt beam="1">  1       -4 0.28319701E-01 0.12500109E+03</pdfrwt>
<totfact> 0.89247224E+03</totfact>
</mgrwt>
</event>
<event>
 5    1  0.3183609E-002  0.1250004E+03  0.7818608E-02  0.1235069E+00
         -4   -1    0    0    0  501 -0.00000000000E+00  0.00000000000E+00  0.91781553662E+01  0.92656049951E+01  0.12700000000E+01 0.  1.
          4   -1    0    0  501    0  0.00000000000E+00 -0.00000000000E+00 -0.42349910819E+03  0.42350101244E+03  0.12700000000E+01 0.  1.
         25    2    1    2    0    0  0.00000000000E+00  0.00000000000E+00 -0.41432095283E+03  0.43276661744E+03  0.12500037287E+03 0.  0.
    9000005    1    3    3    0    0  0.46750836254E+02 -0.40115860517E+02 -0.17079164893E+03  0.18156461742E+03  0.10000000000E+01 0.  0.
    9000005    1    3    3    0    0 -0.46750836254E+02  0.40115860517E+02 -0.24352930390E+03  0.25120200002E+03  0.10000000000E+01 0.  0.
<mgrwt>
<rscale>  0 0.12500037E+03</rscale>
<asrwt>0</asrwt>
<pdfrwt beam="2">  1        4 0.65160567E-01 0.12500037E+03</pdfrwt>
<pdfrwt beam="1">  1       -4 0.14188976E-02 0.12500037E+03</pdfrwt>
<totfact> 0.61485514E+03</totfact>
</mgrwt>
</event>
<event>
 5    1  0.3183609E-002  0.1249998E+03  0.7818608E-02  0.1235070E+00
         -4   -1    0    0    0  501 -0.00000000000E+00  0.00000000000E+00  0.10770929654E+03  0.10771678357E+03  0.12700000000E+01 0. -1.
          4   -1    0    0  501    0  0.00000000000E+00 -0.00000000000E+00 -0.36246599854E+02  0.36268842013E+02  0.12700000000E+01 0. -1.
         25    2    1    2    0    0  0.00000000000E+00  0.00000000000E+00  0.71462696689E+02  0.14398562558E+03  0.12499977342E+03 0.  0.
    9000005    1    3    3    0    0 -0.58801005193E+01  0.49975539502E+02  0.78415032550E+02  0.93177505120E+02  0.10000000000E+01 0.  0.
    9000005    1    3    3    0    0  0.58801005193E+01 -0.49975539502E+02 -0.69523358612E+01  0.50808120458E+02  0.10000000000E+01 0.  0.
<mgrwt>
<rscale>  0 0.12499977E+03</rscale>
<asrwt>0</asrwt>
<pdfrwt beam="2">  1        4 0.55786869E-02 0.12499977E+03</pdfrwt>
<pdfrwt beam="1">  1       -4 0.16572948E-01 0.12499977E+03</pdfrwt>
<totfact> 0.10051690E+04</totfact>
</mgrwt>
</event>
<event>
 5    1  0.3183609E-002  0.1250081E+03  0.7818608E-02  0.1235057E+00
          4   -1    0    0  501    0  0.00000000000E+00  0.00000000000E+00  0.80689153609E+02  0.80699147518E+02  0.12700000000E+01 0.  1.
         -4   -1    0    0    0  501 -0.00000000000E+00 -0.00000000000E+00 -0.48396034820E+02  0.48412695507E+02  0.12700000000E+01 0.  1.
         25    2    1    2    0    0  0.00000000000E+00  0.00000000000E+00  0.32293118789E+02  0.12911184302E+03  0.12500808969E+03 0.  0.
    9000005    1    3    3    0    0 -0.46623010749E+02  0.33665497639E+02  0.41417829133E+02  0.70876705853E+02  0.10000000000E+01 0.  0.
    9000005    1    3    3    0    0  0.46623010749E+02 -0.33665497639E+02 -0.91247103444E+01  0.58235137172E+02  0.10000000000E+01 0.  0.
<mgrwt>
<rscale>  0 0.12500809E+03</rscale>
<asrwt>0</asrwt>
<pdfrwt beam="1">  1        4 0.12415766E-01 0.12500809E+03</pdfrwt>
<pdfrwt beam="2">  1       -4 0.74475942E-02 0.12500809E+03</pdfrwt>
<totfact> 0.10361652E+04</totfact>
</mgrwt>
</event>
<event>
 5    1  0.3183609E-002  0.1249969E+03  0.7818608E-02  0.1235074E+00
          4   -1    0    0  501    0  0.00000000000E+00  0.00000000000E+00  0.41757812284E+03  0.41758005409E+03  0.12700000000E+01 0. -1.
         -4   -1    0    0    0  501 -0.00000000000E+00 -0.00000000000E+00 -0.93090030985E+01  0.93952348927E+01  0.12700000000E+01 0. -1.
         25    2    1    2    0    0  0.00000000000E+00  0.00000000000E+00  0.40826911974E+03  0.42697528898E+03  0.12499689303E+03 0.  0.
    9000005    1    3    3    0    0  0.38861727266E+02  0.35482292012E+02  0.31925699965E+03  0.32356646723E+03  0.10000000000E+01 0.  0.
    9000005    1    3    3    0    0 -0.38861727266E+02 -0.35482292012E+02  0.89012120093E+02  0.10340882175E+03  0.10000000000E+01 0.  0.
<mgrwt>
<rscale>  0 0.12499689E+03</rscale>
<asrwt>0</asrwt>
<pdfrwt beam="1">  1        4 0.64249574E-01 0.12499689E+03</pdfrwt>
<pdfrwt beam="2">  1       -4 0.14389360E-02 0.12499689E+03</pdfrwt>
<totfact> 0.62015368E+03</totfact>
</mgrwt>
</event>
<event>
 5    1  0.3183609E-002  0.1250060E+03  0.7818608E-02  0.1235060E+00
          4   -1    0    0  501    0  0.00000000000E+00  0.00000000000E+00  0.14819652496E+03  0.14820196662E+03  0.12700000000E+01 0. -1.
         -4   -1    0    0    0  501 -0.00000000000E+00 -0.00000000000E+00 -0.26339872988E+02  0.26370472295E+02  0.12700000000E+01 0. -1.
         25    2    1    2    0    0  0.00000000000E+00  0.00000000000E+00  0.12185665197E+03  0.17457243891E+03  0.12500597105E+03 0.  0.
    9000005    1    3    3    0    0  0.32767693345E+02  0.49335038010E+02  0.33069540748E+02  0.67839975146E+02  0.10000000000E+01 0.  0.
    9000005    1    3    3    0    0 -0.32767693345E+02 -0.49335038010E+02  0.88787111221E+02  0.10673246377E+03  0.10000000000E+01 0.  0.
<mgrwt>
<rscale>  0 0.12500597E+03</rscale>
<asrwt>0</asrwt>
<pdfrwt beam="1">  1        4 0.22802238E-01 0.12500597E+03</pdfrwt>
<pdfrwt beam="2">  1       -4 0.40550605E-02 0.12500597E+03</pdfrwt>
<totfact> 0.94590534E+03</totfact>
</mgrwt>
</event>
<event>
 5    1  0.3183609E-002  0.1249964E+03  0.7818608E-02  0.1235075E+00
         -4   -1    0    0    0  501 -0.00000000000E+00  0.00000000000E+00  0.17448729928E+03  0.17449192104E+03  0.12700000000E+01 0. -1.
          4   -1    0    0  501    0  0.00000000000E+00 -0.00000000000E+00 -0.22362805021E+02  0.22398838104E+02  0.12700000000E+01 0. -1.
         25    2    1    2    0    0  0.00000000000E+00  0.00000000000E+00  0.15212449425E+03  0.19689075914E+03  0.12499643709E+03 0.  0.
    9000005    1    3    3    0    0  0.22889638533E+01 -0.78161484722E-01  0.17442889157E+03  0.17444679326E+03  0.10000000000E+01 0.  0.
    9000005    1    3    3    0    0 -0.22889638533E+01  0.78161484722E-01 -0.22304397318E+02  0.22443965881E+02  0.10000000000E+01 0.  0.
<mgrwt>
<rscale>  0 0.12499644E+03</rscale>
<asrwt>0</asrwt>
<pdfrwt beam="2">  1        4 0.34435587E-02 0.12499644E+03</pdfrwt>
<pdfrwt beam="1">  1       -4 0.26847328E-01 0.12499644E+03</pdfrwt>
<totfact> 0.90669206E+03</totfact>
</mgrwt>
</event>
<event>
 5    1  0.3183609E-002  0.1249992E+03  0.7818608E-02  0.1235070E+00
         -4   -1    0    0    0  501 -0.00000000000E+00  0.00000000000E+00  0.37180633172E+02  0.37202316905E+02  0.12700000000E+01 0.  1.
          4   -1    0    0  501    0  0.00000000000E+00 -0.00000000000E+00 -0.10500398668E+03  0.10501166658E+03  0.12700000000E+01 0.  1.
         25    2    1    2    0    0  0.00000000000E+00  0.00000000000E+00 -0.67823353508E+02  0.14221398349E+03  0.12499923927E+03 0.  0.
    9000005    1    3    3    0    0 -0.57354501577E+02 -0.19897875009E+02 -0.50776728840E+02  0.79150113536E+02  0.10000000000E+01 0.  0.
    9000005    1    3    3    0    0  0.57354501577E+02  0.19897875009E+02 -0.17046624668E+02  0.63063869954E+02  0.10000000000E+01 0.  0.
<mgrwt>
<rscale>  0 0.12499924E+03</rscale>
<asrwt>0</asrwt>
<pdfrwt beam="2">  1        4 0.16156718E-01 0.12499924E+03</pdfrwt>
<pdfrwt beam="1">  1       -4 0.57223562E-02 0.12499924E+03</pdfrwt>
<totfact> 0.10088077E+04</totfact>
</mgrwt>
</event>
<event>
 5    1  0.3183609E-002  0.1249996E+03  0.7818608E-02  0.1235070E+00
         -4   -1    0    0    0  501 -0.00000000000E+00  0.00000000000E+00  0.32303858721E+02  0.32328813592E+02  0.12700000000E+01 0. -1.
          4   -1    0    0  501    0  0.00000000000E+00 -0.00000000000E+00 -0.12084637919E+03  0.12085305235E+03  0.12700000000E+01 0. -1.
         25    2    1    2    0    0  0.00000000000E+00  0.00000000000E+00 -0.88542520464E+02  0.15318186594E+03  0.12499962449E+03 0.  0.
    9000005    1    3    3    0    0 -0.33316590207E+02 -0.24315550785E+02  0.13259882124E+02  0.43336655004E+02  0.10000000000E+01 0.  0.
    9000005    1    3    3    0    0  0.33316590207E+02  0.24315550785E+02 -0.10180240259E+03  0.10984521094E+03  0.10000000000E+01 0.  0.
<mgrwt>
<rscale>  0 0.12499962E+03</rscale>
<asrwt>0</asrwt>
<pdfrwt beam="2">  1        4 0.18594183E-01 0.12499962E+03</pdfrwt>
<pdfrwt beam="1">  1       -4 0.49722574E-02 0.12499962E+03</pdfrwt>
<totfact> 0.98674014E+03</totfact>
</mgrwt>
</event>
<event>
 5    1  0.3183609E-002  0.1249945E+03  0.7818608E-02  0.1235078E+00
         -4   -1    0    0    0  501 -0.00000000000E+00  0.00000000000E+00  0.10484764343E+03  0.10485533479E+03  0.12700000000E+01 0.  1.
          4   -1    0    0  501    0  0.00000000000E+00 -0.00000000000E+00 -0.37233261853E+02  0.37254914954E+02  0.12700000000E+01 0.  1.
         25    2    1    2    0    0  0.00000000000E+00  0.00000000000E+00  0.67614381579E+02  0.14211024974E+03  0.12499447382E+03 0.  0.
    9000005    1    3    3    0    0 -0.55724502211E+02  0.28193997153E+02  0.31320712082E+02  0.69872087613E+02  0.10000000000E+01 0.  0.
    9000005    1    3    3    0    0  0.55724502211E+02 -0.28193997153E+02  0.36293669498E+02  0.72238162129E+02  0.10000000000E+01 0.  0.
<mgrwt>
<rscale>  0 0.12499447E+03</rscale>
<asrwt>0</asrwt>
<pdfrwt beam="2">  1        4 0.57304514E-02 0.12499447E+03</pdfrwt>
<pdfrwt beam="1">  1       -4 0.16132664E-01 0.12499447E+03</pdfrwt>
<totfact> 0.10091292E+04</totfact>
</mgrwt>
</event>
<event>
 5    1  0.3183609E-002  0.1250070E+03  0.7818608E-02  0.1235058E+00
          4   -1    0    0  501    0  0.00000000000E+00  0.00000000000E+00  0.13503680536E+03  0.13504277731E+03  0.12700000000E+01 0.  1.
         -4   -1    0    0    0  501 -0.00000000000E+00 -0.00000000000E+00 -0.28909966821E+02  0.28937848600E+02  0.12700000000E+01 0.  1.
         25    2    1    2    0    0  0.00000000000E+00  0.00000000000E+00  0.10612683854E+03  0.16398062591E+03  0.12500695906E+03 0.  0.
    9000005    1    3    3    0    0 -0.21147484261E+02 -0.24899347343E+02 -0.16824504370E+02  0.36759455055E+02  0.10000000000E+01 0.  0.
    9000005    1    3    3    0    0  0.21147484261E+02  0.24899347343E+02  0.12295134291E+03  0.12722117085E+03  0.10000000000E+01 0.  0.
<mgrwt>
<rscale>  0 0.12500696E+03</rscale>
<asrwt>0</asrwt>
<pdfrwt beam="1">  1        4 0.20777497E-01 0.12500696E+03</pdfrwt>
<pdfrwt beam="2">  1       -4 0.44502914E-02 0.12500696E+03</pdfrwt>
<totfact> 0.96565695E+03</totfact>
</mgrwt>
</event>
<event>
 5    1  0.3183609E-002  0.1250083E+03  0.7818608E-02  0.1235056E+00
          4   -1    0    0  501    0  0.00000000000E+00  0.00000000000E+00  0.67971959830E+02  0.67983823246E+02  0.12700000000E+01 0.  1.
         -4   -1    0    0    0  501 -0.00000000000E+00 -0.00000000000E+00 -0.57452245435E+02  0.57466280596E+02  0.12700000000E+01 0.  1.
         25    2    1    2    0    0  0.00000000000E+00  0.00000000000E+00  0.10519714395E+02  0.12545010384E+03  0.12500825638E+03 0.  0.
    9000005    1    3    3    0    0 -0.50524786299E+02 -0.92455897445E+01  0.40988098270E+02  0.65721070899E+02  0.10000000000E+01 0.  0.
    9000005    1    3    3    0    0  0.50524786299E+02  0.92455897445E+01 -0.30468383875E+02  0.59729032943E+02  0.10000000000E+01 0.  0.
<mgrwt>
<rscale>  0 0.12500826E+03</rscale>
<asrwt>0</asrwt>
<pdfrwt beam="1">  1        4 0.10459217E-01 0.12500826E+03</pdfrwt>
<pdfrwt beam="2">  1       -4 0.88407992E-02 0.12500826E+03</pdfrwt>
<totfact> 0.10441113E+04</totfact>
</mgrwt>
</event>
<event>
 5    1  0.3183609E-002  0.1250011E+03  0.7818608E-02  0.1235068E+00
         -4   -1    0    0    0  501 -0.00000000000E+00  0.00000000000E+00  0.89757710396E+02  0.89766694690E+02  0.12700000000E+01 0.  1.
          4   -1    0    0  501    0  0.00000000000E+00 -0.00000000000E+00 -0.43500277480E+02  0.43518812493E+02  0.12700000000E+01 0.  1.
         25    2    1    2    0    0  0.00000000000E+00  0.00000000000E+00  0.46257432916E+02  0.13328550718E+03  0.12500110530E+03 0.  0.
    9000005    1    3    3    0    0 -0.50529179411E+01 -0.51882517849E+02 -0.13622839617E+02  0.53887933689E+02  0.10000000000E+01 0.  0.
    9000005    1    3    3    0    0  0.50529179411E+01  0.51882517849E+02  0.59880272533E+02  0.79397573494E+02  0.10000000000E+01 0.  0.
<mgrwt>
<rscale>  0 0.12500111E+03</rscale>
<asrwt>0</asrwt>
<pdfrwt beam="2">  1        4 0.66944673E-02 0.12500111E+03</pdfrwt>
<pdfrwt beam="1">  1       -4 0.13810995E-01 0.12500111E+03</pdfrwt>
<totfact> 0.10274080E+04</totfact>
</mgrwt>
</event>
<event>
 5    1  0.3183609E-002  0.1250061E+03  0.7818608E-02  0.1235060E+00
         -4   -1    0    0    0  501 -0.00000000000E+00  0.00000000000E+00  0.58770276792E+03  0.58770414013E+03  0.12700000000E+01 0.  1.
          4   -1    0    0  501    0  0.00000000000E+00 -0.00000000000E+00 -0.65852421093E+01  0.67065873317E+01  0.12700000000E+01 0.  1.
         25    2    1    2    0    0  0.00000000000E+00  0.00000000000E+00  0.58111752581E+03  0.59441072746E+03  0.12500613630E+03 0.  0.
    9000005    1    3    3    0    0  0.47411864893E+02 -0.20050469743E+02  0.12205757485E+03  0.13247247958E+03  0.10000000000E+01 0.  0.
    9000005    1    3    3    0    0 -0.47411864893E+02  0.20050469743E+02  0.45905995096E+03  0.46193824787E+03  0.10000000000E+01 0.  0.
<mgrwt>
<rscale>  0 0.12500614E+03</rscale>
<asrwt>0</asrwt>
<pdfrwt beam="2">  1        4 0.10225539E-02 0.12500614E+03</pdfrwt>
<pdfrwt beam="1">  1       -4 0.90425253E-01 0.12500614E+03</pdfrwt>
<totfact> 0.49215708E+03</totfact>
</mgrwt>
</event>
<event>
 5    1  0.3183609E-002  0.1250037E+03  0.7818608E-02  0.1235063E+00
         -4   -1    0    0    0  501 -0.00000000000E+00  0.00000000000E+00  0.11971004832E+02  0.12038183281E+02  0.12700000000E+01 0.  1.
          4   -1    0    0  501    0  0.00000000000E+00 -0.00000000000E+00 -0.32534735230E+03  0.32534983102E+03  0.12700000000E+01 0.  1.
         25    2    1    2    0    0  0.00000000000E+00  0.00000000000E+00 -0.31337634746E+03  0.33738801430E+03  0.12500374813E+03 0.  0.
    9000005    1    3    3    0    0 -0.41056397019E+02 -0.16177393109E+02 -0.27612257170E+03  0.27962834331E+03  0.10000000000E+01 0.  0.
    9000005    1    3    3    0    0  0.41056397019E+02  0.16177393109E+02 -0.37253775769E+02  0.57759670991E+02  0.10000000000E+01 0.  0.
<mgrwt>
<rscale>  0 0.12500375E+03</rscale>
<asrwt>0</asrwt>
<pdfrwt beam="2">  1        4 0.50058790E-01 0.12500375E+03</pdfrwt>
<pdfrwt beam="1">  1       -4 0.18470515E-02 0.12500375E+03</pdfrwt>
<totfact> 0.71128782E+03</totfact>
</mgrwt>
</event>
<event>
 5    1  0.3183609E-002  0.1250016E+03  0.7818608E-02  0.1235067E+00
         -4   -1    0    0    0  501 -0.00000000000E+00  0.00000000000E+00  0.11168248881E+03  0.11168970950E+03  0.12700000000E+01 0.  1.
          4   -1    0    0  501    0  0.00000000000E+00 -0.00000000000E+00 -0.34957413479E+02  0.34980475370E+02  0.12700000000E+01 0.  1.
         25    2    1    2    0    0  0.00000000000E+00  0.00000000000E+00  0.76725075334E+02  0.14667018487E+03  0.12500162376E+03 0.  0.
    9000005    1    3    3    0    0  0.89734637399E+01  0.59323202383E+02  0.58873827821E+02  0.84064814249E+02  0.10000000000E+01 0.  0.
    9000005    1    3    3    0    0 -0.89734637399E+01 -0.59323202383E+02  0.17851247513E+02  0.62605370618E+02  0.10000000000E+01 0.  0.
<mgrwt>
<rscale>  0 0.12500162E+03</rscale>
<asrwt>0</asrwt>
<pdfrwt beam="2">  1        4 0.53803931E-02 0.12500162E+03</pdfrwt>
<pdfrwt beam="1">  1       -4 0.17184251E-01 0.12500162E+03</pdfrwt>
<totfact> 0.99967983E+03</totfact>
</mgrwt>
</event>
<event>
 5    1  0.3183609E-002  0.1250056E+03  0.7818608E-02  0.1235060E+00
          4   -1    0    0  501    0  0.00000000000E+00  0.00000000000E+00  0.41264113760E+02  0.41283652750E+02  0.12700000000E+01 0.  1.
         -4   -1    0    0    0  501 -0.00000000000E+00 -0.00000000000E+00 -0.94626898910E+02  0.94635420944E+02  0.12700000000E+01 0.  1.
         25    2    1    2    0    0  0.00000000000E+00  0.00000000000E+00 -0.53362785150E+02  0.13591907369E+03  0.12500563089E+03 0.  0.
    9000005    1    3    3    0    0  0.43691731959E+02  0.43729760228E+02 -0.16695790891E+02  0.64039119331E+02  0.10000000000E+01 0.  0.
    9000005    1    3    3    0    0 -0.43691731959E+02 -0.43729760228E+02 -0.36666994260E+02  0.71879954363E+02  0.10000000000E+01 0.  0.
<mgrwt>
<rscale>  0 0.12500563E+03</rscale>
<asrwt>0</asrwt>
<pdfrwt beam="1">  1        4 0.63504838E-02 0.12500563E+03</pdfrwt>
<pdfrwt beam="2">  1       -4 0.14560143E-01 0.12500563E+03</pdfrwt>
<totfact> 0.10217438E+04</totfact>
</mgrwt>
</event>
<event>
 5    1  0.3183609E-002  0.1250036E+03  0.7818608E-02  0.1235064E+00
          4   -1    0    0  501    0  0.00000000000E+00  0.00000000000E+00  0.14083775344E+03  0.14084347942E+03  0.12700000000E+01 0.  1.
         -4   -1    0    0    0  501 -0.00000000000E+00 -0.00000000000E+00 -0.27716574034E+02  0.27745655087E+02  0.12700000000E+01 0.  1.
         25    2    1    2    0    0  0.00000000000E+00  0.00000000000E+00  0.11312117941E+03  0.16858913451E+03  0.12500358012E+03 0.  0.
    9000005    1    3    3    0    0 -0.85444976946E+01 -0.59494344076E+02  0.79641778483E+02  0.99781753331E+02  0.10000000000E+01 0.  0.
    9000005    1    3    3    0    0  0.85444976946E+01  0.59494344076E+02  0.33479400926E+02  0.68807381175E+02  0.10000000000E+01 0.  0.
<mgrwt>
<rscale>  0 0.12500358E+03</rscale>
<asrwt>0</asrwt>
<pdfrwt beam="1">  1        4 0.21670024E-01 0.12500358E+03</pdfrwt>
<pdfrwt beam="2">  1       -4 0.42667658E-02 0.12500358E+03</pdfrwt>
<totfact> 0.95704257E+03</totfact>
</mgrwt>
</event>
<event>
 5    1  0.3183609E-002  0.1249945E+03  0.7818608E-02  0.1235078E+00
          4   -1    0    0  501    0  0.00000000000E+00  0.00000000000E+00  0.13822315838E+02  0.13880537278E+02  0.12700000000E+01 0. -1.
         -4   -1    0    0    0  501 -0.00000000000E+00 -0.00000000000E+00 -0.28192627232E+03  0.28192913280E+03  0.12700000000E+01 0. -1.
         25    2    1    2    0    0  0.00000000000E+00  0.00000000000E+00 -0.26810395648E+03  0.29580967008E+03  0.12499451761E+03 0.  0.
    9000005    1    3    3    0    0  0.12111217162E+02 -0.41660539284E+02 -0.24048566694E+03  0.24436987973E+03  0.10000000000E+01 0.  0.
    9000005    1    3    3    0    0 -0.12111217162E+02  0.41660539284E+02 -0.27618289541E+02  0.51439790355E+02  0.10000000000E+01 0.  0.
<mgrwt>
<rscale>  0 0.12499452E+03</rscale>
<asrwt>0</asrwt>
<pdfrwt beam="1">  1        4 0.21312089E-02 0.12499452E+03</pdfrwt>
<pdfrwt beam="2">  1       -4 0.43377967E-01 0.12499452E+03</pdfrwt>
<totfact> 0.76136760E+03</totfact>
</mgrwt>
</event>
<event>
 5    1  0.3183609E-002  0.1249989E+03  0.7818608E-02  0.1235071E+00
          4   -1    0    0  501    0  0.00000000000E+00  0.00000000000E+00  0.44765335493E+02  0.44783346925E+02  0.12700000000E+01 0.  1.
         -4   -1    0    0    0  501 -0.00000000000E+00 -0.00000000000E+00 -0.87218872981E+02  0.87228118770E+02  0.12700000000E+01 0.  1.
         25    2    1    2    0    0  0.00000000000E+00  0.00000000000E+00 -0.42453537488E+02  0.13201146569E+03  0.12499889691E+03 0.  0.
    9000005    1    3    3    0    0 -0.58065253879E+02  0.33302544120E+01  0.29142494289E+01  0.58242228256E+02  0.10000000000E+01 0.  0.
    9000005    1    3    3    0    0  0.58065253879E+02 -0.33302544120E+01 -0.45367786917E+02  0.73769237439E+02  0.10000000000E+01 0.  0.
<mgrwt>
<rscale>  0 0.12499890E+03</rscale>
<asrwt>0</asrwt>
<pdfrwt beam="1">  1        4 0.68890714E-02 0.12499890E+03</pdfrwt>
<pdfrwt beam="2">  1       -4 0.13420385E-01 0.12499890E+03</pdfrwt>
<totfact> 0.10301710E+04</totfact>
</mgrwt>
</event>
<event>
 5    1  0.3183609E-002  0.1249948E+03  0.7818608E-02  0.1235077E+00
         -4   -1    0    0    0  501 -0.00000000000E+00  0.00000000000E+00  0.85491601949E+02  0.85501034519E+02  0.12700000000E+01 0. -1.
          4   -1    0    0  501    0  0.00000000000E+00 -0.00000000000E+00 -0.45667012904E+02  0.45684668846E+02  0.12700000000E+01 0. -1.
         25    2    1    2    0    0  0.00000000000E+00  0.00000000000E+00  0.39824589045E+02  0.13118570337E+03  0.12499476339E+03 0.  0.
    9000005    1    3    3    0    0 -0.52656585690E+02  0.33647490487E+02  0.19670478368E+02  0.65519442548E+02  0.10000000000E+01 0.  0.
    9000005    1    3    3    0    0  0.52656585690E+02 -0.33647490487E+02  0.20154110677E+02  0.65666260817E+02  0.10000000000E+01 0.  0.
<mgrwt>
<rscale>  0 0.12499476E+03</rscale>
<asrwt>0</asrwt>
<pdfrwt beam="2">  1        4 0.70277781E-02 0.12499476E+03</pdfrwt>
<pdfrwt beam="1">  1       -4 0.13154638E-01 0.12499476E+03</pdfrwt>
<totfact> 0.10320329E+04</totfact>
</mgrwt>
</event>
<event>
 5    1  0.3183609E-002  0.1250002E+03  0.7818608E-02  0.1235069E+00
          4   -1    0    0  501    0  0.00000000000E+00  0.00000000000E+00  0.39466981698E+03  0.39467186033E+03  0.12700000000E+01 0.  1.
         -4   -1    0    0    0  501 -0.00000000000E+00 -0.00000000000E+00 -0.98547277670E+01  0.99362246030E+01  0.12700000000E+01 0.  1.
         25    2    1    2    0    0  0.00000000000E+00  0.00000000000E+00  0.38481508921E+03  0.40460808493E+03  0.12500019802E+03 0.  0.
    9000005    1    3    3    0    0 -0.12115847371E+02  0.59324889617E+02  0.24245091023E+03  0.24989934005E+03  0.10000000000E+01 0.  0.
    9000005    1    3    3    0    0  0.12115847371E+02 -0.59324889617E+02  0.14236417898E+03  0.15470874488E+03  0.10000000000E+01 0.  0.
<mgrwt>
<rscale>  0 0.12500020E+03</rscale>
<asrwt>0</asrwt>
<pdfrwt beam="1">  1        4 0.60724852E-01 0.12500020E+03</pdfrwt>
<pdfrwt beam="2">  1       -4 0.15225383E-02 0.12500020E+03</pdfrwt>
<totfact> 0.64106789E+03</totfact>
</mgrwt>
</event>
<event>
 5    1  0.3183609E-002  0.1250020E+03  0.7818608E-02  0.1235066E+00
          4   -1    0    0  501    0  0.00000000000E+00  0.00000000000E+00  0.20646830704E+03  0.20647221293E+03  0.12700000000E+01 0. -1.
         -4   -1    0    0    0  501 -0.00000000000E+00 -0.00000000000E+00 -0.18894574777E+02  0.18937208242E+02  0.12700000000E+01 0. -1.
         25    2    1    2    0    0  0.00000000000E+00  0.00000000000E+00  0.18757373227E+03  0.22540942118E+03  0.12500200846E+03 0.  0.
    9000005    1    3    3    0    0  0.18890299799E+02  0.59445834509E+02  0.10070646146E+03  0.11846282981E+03  0.10000000000E+01 0.  0.
    9000005    1    3    3    0    0 -0.18890299799E+02 -0.59445834509E+02  0.86867270811E+02  0.10694659137E+03  0.10000000000E+01 0.  0.
<mgrwt>
<rscale>  0 0.12500201E+03</rscale>
<asrwt>0</asrwt>
<pdfrwt beam="1">  1        4 0.31767936E-01 0.12500201E+03</pdfrwt>
<pdfrwt beam="2">  1       -4 0.29104375E-02 0.12500201E+03</pdfrwt>
<totfact> 0.86015648E+03</totfact>
</mgrwt>
</event>
<event>
 5    1  0.3183609E-002  0.1249989E+03  0.7818608E-02  0.1235071E+00
         -4   -1    0    0    0  501 -0.00000000000E+00  0.00000000000E+00  0.38751443427E+03  0.38751651535E+03  0.12700000000E+01 0.  1.
          4   -1    0    0  501    0  0.00000000000E+00 -0.00000000000E+00 -0.10037968574E+02  0.10117989577E+02  0.12700000000E+01 0.  1.
         25    2    1    2    0    0  0.00000000000E+00  0.00000000000E+00  0.37747646570E+03  0.39763450493E+03  0.12499886941E+03 0.  0.
    9000005    1    3    3    0    0  0.20422641413E+02  0.19716681190E+02  0.11640452745E+02  0.30697425617E+02  0.10000000000E+01 0.  0.
    9000005    1    3    3    0    0 -0.20422641413E+02 -0.19716681190E+02  0.36583601295E+03  0.36693707931E+03  0.10000000000E+01 0.  0.
<mgrwt>
<rscale>  0 0.12499887E+03</rscale>
<asrwt>0</asrwt>
<pdfrwt beam="2">  1        4 0.15506183E-02 0.12499887E+03</pdfrwt>
<pdfrwt beam="1">  1       -4 0.59623927E-01 0.12499887E+03</pdfrwt>
<totfact> 0.64785118E+03</totfact>
</mgrwt>
</event>
<event>
 4    1  0.3183609E-002  0.1247114E+03  0.7818608E-02  0.1235521E+00
         -4   -1    0    0    0  501 -0.00000000000E+00  0.00000000000E+00  0.10979254412E+03  0.10979988909E+03  0.12700000000E+01 0.  1.
          4   -1    0    0  501    0  0.00000000000E+00 -0.00000000000E+00 -0.35394447323E+02  0.35417224642E+02  0.12700000000E+01 0.  1.
    9000005    1    1    2    0    0 -0.58744369994E+02  0.60857490106E+01  0.13931045168E+02  0.60687818930E+02  0.10000000000E+01 0.  0.
    9000005    1    1    2    0    0  0.58744369994E+02 -0.60857490106E+01  0.60467051625E+02  0.84529294799E+02  0.10000000000E+01 0.  0.
<mgrwt>
<rscale>  0 0.12471140E+03</rscale>
<asrwt>0</asrwt>
<pdfrwt beam="2">  1        4 0.54476168E-02 0.12471140E+03</pdfrwt>
<pdfrwt beam="1">  1       -4 0.16893477E-01 0.12471140E+03</pdfrwt>
<totfact> 0.10092016E+04</totfact>
</mgrwt>
</event>
<event>
 5    1  0.3183609E-002  0.1249992E+03  0.7818608E-02  0.1235071E+00
         -4   -1    0    0    0  501 -0.00000000000E+00  0.00000000000E+00  0.10319733400E+03  0.10320514834E+03  0.12700000000E+01 0.  1.
          4   -1    0    0  501    0  0.00000000000E+00 -0.00000000000E+00 -0.37831860832E+02  0.37853171519E+02  0.12700000000E+01 0.  1.
         25    2    1    2    0    0  0.00000000000E+00  0.00000000000E+00  0.65365473168E+02  0.14105831986E+03  0.12499921808E+03 0.  0.
    9000005    1    3    3    0    0 -0.28385230382E+02  0.27455386820E+02  0.87337238061E+02  0.95855686954E+02  0.10000000000E+01 0.  0.
    9000005    1    3    3    0    0  0.28385230382E+02 -0.27455386820E+02 -0.21971764894E+02  0.45202632908E+02  0.10000000000E+01 0.  0.
<mgrwt>
<rscale>  0 0.12499922E+03</rscale>
<asrwt>0</asrwt>
<pdfrwt beam="2">  1        4 0.58225268E-02 0.12499922E+03</pdfrwt>
<pdfrwt beam="1">  1       -4 0.15878753E-01 0.12499922E+03</pdfrwt>
<totfact> 0.10111877E+04</totfact>
</mgrwt>
</event>
<event>
 5    1  0.3183609E-002  0.1249968E+03  0.7818608E-02  0.1235074E+00
         -4   -1    0    0    0  501 -0.00000000000E+00  0.00000000000E+00  0.30622082544E+02  0.30648406799E+02  0.12700000000E+01 0. -1.
          4   -1    0    0  501    0  0.00000000000E+00 -0.00000000000E+00 -0.12747243149E+03  0.12747875780E+03  0.12700000000E+01 0. -1.
         25    2    1    2    0    0  0.00000000000E+00  0.00000000000E+00 -0.96850348945E+02  0.15812716460E+03  0.12499684033E+03 0.  0.
    9000005    1    3    3    0    0  0.43947420026E+02  0.31212036700E+02 -0.84310944838E+01  0.54567850572E+02  0.10000000000E+01 0.  0.
    9000005    1    3    3    0    0 -0.43947420026E+02 -0.31212036700E+02 -0.88419254461E+02  0.10355931402E+03  0.10000000000E+01 0.  0.
<mgrwt>
<rscale>  0 0.12499684E+03</rscale>
<asrwt>0</asrwt>
<pdfrwt beam="2">  1        4 0.19613655E-01 0.12499684E+03</pdfrwt>
<pdfrwt beam="1">  1       -4 0.47136013E-02 0.12499684E+03</pdfrwt>
<totfact> 0.97712013E+03</totfact>
</mgrwt>
</event>
<event>
 5    1  0.3183609E-002  0.1250026E+03  0.7818608E-02  0.1235065E+00
         -4   -1    0    0    0  501 -0.00000000000E+00  0.00000000000E+00  0.28985208196E+01  0.31645415058E+01  0.12700000000E+01 0.  1.
          4   -1    0    0  501    0  0.00000000000E+00 -0.00000000000E+00 -0.12883273784E+04  0.12883280044E+04  0.12700000000E+01 0.  1.
         25    2    1    2    0    0  0.00000000000E+00  0.00000000000E+00 -0.12854288576E+04  0.12914925459E+04  0.12500259255E+03 0.  0.
    9000005    1    3    3    0    0 -0.11695561765E+02 -0.61388003325E+02 -0.64656524899E+03  0.64957901314E+03  0.10000000000E+01 0.  0.
    9000005    1    3    3    0    0  0.11695561765E+02  0.61388003325E+02 -0.63886360864E+03  0.64191353278E+03  0.10000000000E+01 0.  0.
<mgrwt>
<rscale>  0 0.12500259E+03</rscale>
<asrwt>0</asrwt>
<pdfrwt beam="2">  1        4 0.19822429E+00 0.12500259E+03</pdfrwt>
<pdfrwt beam="1">  1       -4 0.46643859E-03 0.12500259E+03</pdfrwt>
<totfact> 0.22428998E+03</totfact>
</mgrwt>
</event>
<event>
 5    1  0.3183609E-002  0.1250009E+03  0.7818608E-02  0.1235068E+00
          4   -1    0    0  501    0  0.00000000000E+00  0.00000000000E+00  0.64193814679E+01  0.65438030556E+01  0.12700000000E+01 0. -1.
         -4   -1    0    0    0  501 -0.00000000000E+00 -0.00000000000E+00 -0.60255171569E+03  0.60255305407E+03  0.12700000000E+01 0. -1.
         25    2    1    2    0    0  0.00000000000E+00  0.00000000000E+00 -0.59613233422E+03  0.60909685713E+03  0.12500088586E+03 0.  0.
    9000005    1    3    3    0    0  0.62059049196E+00  0.11736409490E+02  0.10096352362E+01  0.11838403760E+02  0.10000000000E+01 0.  0.
    9000005    1    3    3    0    0 -0.62059049196E+00 -0.11736409490E+02 -0.59714196945E+03  0.59725845337E+03  0.10000000000E+01 0.  0.
<mgrwt>
<rscale>  0 0.12500089E+03</rscale>
<asrwt>0</asrwt>
<pdfrwt beam="1">  1        4 0.99727147E-03 0.12500089E+03</pdfrwt>
<pdfrwt beam="2">  1       -4 0.92709893E-01 0.12500089E+03</pdfrwt>
<totfact> 0.48297459E+03</totfact>
</mgrwt>
</event>
<event>
 5    1  0.3183609E-002  0.1250153E+03  0.7818608E-02  0.1235045E+00
         -4   -1    0    0    0  501 -0.00000000000E+00  0.00000000000E+00  0.35662943610E+03  0.35663169741E+03  0.12700000000E+01 0.  1.
          4   -1    0    0  501    0  0.00000000000E+00 -0.00000000000E+00 -0.10916810866E+02  0.10990434909E+02  0.12700000000E+01 0.  1.
         25    2    1    2    0    0  0.00000000000E+00  0.00000000000E+00  0.34571262524E+03  0.36762213232E+03  0.12501525075E+03 0.  0.
    9000005    1    3    3    0    0 -0.47680968271E+02  0.39383251174E+02  0.19943404001E+03  0.20880481681E+03  0.10000000000E+01 0.  0.
    9000005    1    3    3    0    0  0.47680968271E+02 -0.39383251174E+02  0.14627858523E+03  0.15881731550E+03  0.10000000000E+01 0.  0.
<mgrwt>
<rscale>  0 0.12501525E+03</rscale>
<asrwt>0</asrwt>
<pdfrwt beam="2">  1        4 0.16853471E-02 0.12501525E+03</pdfrwt>
<pdfrwt beam="1">  1       -4 0.54871891E-01 0.12501525E+03</pdfrwt>
<totfact> 0.67805582E+03</totfact>
</mgrwt>
</event>
<event>
 5    1  0.3183609E-002  0.1250023E+03  0.7818608E-02  0.1235066E+00
          4   -1    0    0  501    0  0.00000000000E+00  0.00000000000E+00  0.59765348878E+03  0.59765483814E+03  0.12700000000E+01 0. -1.
         -4   -1    0    0    0  501 -0.00000000000E+00 -0.00000000000E+00 -0.64731608947E+01  0.65965681963E+01  0.12700000000E+01 0. -1.
         25    2    1    2    0    0  0.00000000000E+00  0.00000000000E+00  0.59118032789E+03  0.60425140634E+03  0.12500232790E+03 0.  0.
    9000005    1    3    3    0    0 -0.25357273937E+02  0.35773239034E+02  0.80348753354E+02  0.91540363436E+02  0.10000000000E+01 0.  0.
    9000005    1    3    3    0    0  0.25357273937E+02 -0.35773239034E+02  0.51083157454E+03  0.51271104290E+03  0.10000000000E+01 0.  0.
<mgrwt>
<rscale>  0 0.12500233E+03</rscale>
<asrwt>0</asrwt>
<pdfrwt beam="1">  1        4 0.91956313E-01 0.12500233E+03</pdfrwt>
<pdfrwt beam="2">  1       -4 0.10054673E-02 0.12500233E+03</pdfrwt>
<totfact> 0.48597853E+03</totfact>
</mgrwt>
</event>
<event>
 5    1  0.3183609E-002  0.1249968E+03  0.7818608E-02  0.1235074E+00
         -4   -1    0    0    0  501 -0.00000000000E+00  0.00000000000E+00  0.18442233684E+03  0.18442670963E+03  0.12700000000E+01 0. -1.
          4   -1    0    0  501    0  0.00000000000E+00 -0.00000000000E+00 -0.21156268766E+02  0.21194353212E+02  0.12700000000E+01 0. -1.
         25    2    1    2    0    0  0.00000000000E+00  0.00000000000E+00  0.16326606807E+03  0.20562106284E+03  0.12499684996E+03 0.  0.
    9000005    1    3    3    0    0  0.34178951991E+02 -0.40604154330E+02  0.27368770213E+02  0.59723928965E+02  0.10000000000E+01 0.  0.
    9000005    1    3    3    0    0 -0.34178951991E+02  0.40604154330E+02  0.13589729786E+03  0.14589713388E+03  0.10000000000E+01 0.  0.
<mgrwt>
<rscale>  0 0.12499685E+03</rscale>
<asrwt>0</asrwt>
<pdfrwt beam="2">  1        4 0.32580765E-02 0.12499685E+03</pdfrwt>
<pdfrwt beam="1">  1       -4 0.28375933E-01 0.12499685E+03</pdfrwt>
<totfact> 0.89202333E+03</totfact>
</mgrwt>
</event>
<event>
 5    1  0.3183609E-002  0.1250008E+03  0.7818608E-02  0.1235068E+00
         -4   -1    0    0    0  501 -0.00000000000E+00  0.00000000000E+00  0.68298308360E+02  0.68310115099E+02  0.12700000000E+01 0.  1.
          4   -1    0    0  501    0  0.00000000000E+00 -0.00000000000E+00 -0.57170914517E+02  0.57185018726E+02  0.12700000000E+01 0.  1.
         25    2    1    2    0    0  0.00000000000E+00  0.00000000000E+00  0.11127393843E+02  0.12549513383E+03  0.12500083888E+03 0.  0.
    9000005    1    3    3    0    0 -0.18309089893E+01  0.46476735007E+02 -0.36336975600E+02  0.59032320981E+02  0.10000000000E+01 0.  0.
    9000005    1    3    3    0    0  0.18309089893E+01 -0.46476735007E+02  0.47464369443E+02  0.66462812845E+02  0.10000000000E+01 0.  0.
<mgrwt>
<rscale>  0 0.12500084E+03</rscale>
<asrwt>0</asrwt>
<pdfrwt beam="2">  1        4 0.87975184E-02 0.12500084E+03</pdfrwt>
<pdfrwt beam="1">  1       -4 0.10509425E-01 0.12500084E+03</pdfrwt>
<totfact> 0.10441864E+04</totfact>
</mgrwt>
</event>
<event>
 5    1  0.3183609E-002  0.1250017E+03  0.7818608E-02  0.1235067E+00
          4   -1    0    0  501    0  0.00000000000E+00  0.00000000000E+00  0.74394357590E+02  0.74405197004E+02  0.12700000000E+01 0.  1.
         -4   -1    0    0    0  501 -0.00000000000E+00 -0.00000000000E+00 -0.52486407363E+02  0.52501770045E+02  0.12700000000E+01 0.  1.
         25    2    1    2    0    0  0.00000000000E+00  0.00000000000E+00  0.21907950227E+02  0.12690696705E+03  0.12500168000E+03 0.  0.
    9000005    1    3    3    0    0 -0.18160616253E+02  0.59766783423E+02  0.12847508360E+02  0.63780364177E+02  0.10000000000E+01 0.  0.
    9000005    1    3    3    0    0  0.18160616253E+02 -0.59766783423E+02  0.90604418671E+01  0.63126602873E+02  0.10000000000E+01 0.  0.
<mgrwt>
<rscale>  0 0.12500168E+03</rscale>
<asrwt>0</asrwt>
<pdfrwt beam="1">  1        4 0.11447301E-01 0.12500168E+03</pdfrwt>
<pdfrwt beam="2">  1       -4 0.80768474E-02 0.12500168E+03</pdfrwt>
<totfact> 0.10410773E+04</totfact>
</mgrwt>
</event>
<event>
 5    1  0.3183609E-002  0.1250023E+03  0.7818608E-02  0.1235066E+00
         -4   -1    0    0    0  501 -0.00000000000E+00  0.00000000000E+00  0.12589284586E+03  0.12589925155E+03  0.12700000000E+01 0.  1.
          4   -1    0    0  501    0  0.00000000000E+00 -0.00000000000E+00 -0.31009336014E+02  0.31035331802E+02  0.12700000000E+01 0.  1.
         25    2    1    2    0    0  0.00000000000E+00  0.00000000000E+00  0.94883509850E+02  0.15693458335E+03  0.12500233201E+03 0.  0.
    9000005    1    3    3    0    0 -0.44996741344E+02  0.82779550082E+01 -0.60022937072E+01  0.46154726740E+02  0.10000000000E+01 0.  0.
    9000005    1    3    3    0    0  0.44996741344E+02 -0.82779550082E+01  0.10088580356E+03  0.11077985661E+03  0.10000000000E+01 0.  0.
<mgrwt>
<rscale>  0 0.12500233E+03</rscale>
<asrwt>0</asrwt>
<pdfrwt beam="2">  1        4 0.47731594E-02 0.12500233E+03</pdfrwt>
<pdfrwt beam="1">  1       -4 0.19370623E-01 0.12500233E+03</pdfrwt>
<totfact> 0.97931913E+03</totfact>
</mgrwt>
</event>
<event>
 5    1  0.3183609E-002  0.1249940E+03  0.7818608E-02  0.1235079E+00
         -4   -1    0    0    0  501 -0.00000000000E+00  0.00000000000E+00  0.19678111708E+02  0.19719051205E+02  0.12700000000E+01 0. -1.
          4   -1    0    0  501    0  0.00000000000E+00 -0.00000000000E+00 -0.19823894755E+03  0.19824301558E+03  0.12700000000E+01 0. -1.
         25    2    1    2    0    0  0.00000000000E+00  0.00000000000E+00 -0.17856083584E+03  0.21796206678E+03  0.12499396169E+03 0.  0.
    9000005    1    3    3    0    0  0.69789357535E+01  0.62043543572E+02 -0.93816183013E+02  0.11269686348E+03  0.10000000000E+01 0.  0.
    9000005    1    3    3    0    0 -0.69789357535E+01 -0.62043543572E+02 -0.84744652826E+02  0.10526520330E+03  0.10000000000E+01 0.  0.
<mgrwt>
<rscale>  0 0.12499396E+03</rscale>
<asrwt>0</asrwt>
<pdfrwt beam="2">  1        4 0.30501760E-01 0.12499396E+03</pdfrwt>
<pdfrwt beam="1">  1       -4 0.30308641E-02 0.12499396E+03</pdfrwt>
<totfact> 0.87203620E+03</totfact>
</mgrwt>
</event>
<event>
 5    1  0.3183609E-002  0.1249998E+03  0.7818608E-02  0.1235070E+00
         -4   -1    0    0    0  501 -0.00000000000E+00  0.00000000000E+00  0.40947470646E+02  0.40967160657E+02  0.12700000000E+01 0. -1.
          4   -1    0    0  501    0  0.00000000000E+00 -0.00000000000E+00 -0.95349381070E+02  0.95357838537E+02  0.12700000000E+01 0. -1.
         25    2    1    2    0    0  0.00000000000E+00  0.00000000000E+00 -0.54401910425E+02  0.13632499919E+03  0.12499975019E+03 0.  0.
    9000005    1    3    3    0    0  0.31640188364E+02  0.19870655757E+02 -0.81832285847E+02  0.89963700940E+02  0.10000000000E+01 0.  0.
    9000005    1    3    3    0    0 -0.31640188364E+02 -0.19870655757E+02  0.27430375422E+02  0.46361298253E+02  0.10000000000E+01 0.  0.
<mgrwt>
<rscale>  0 0.12499975E+03</rscale>
<asrwt>0</asrwt>
<pdfrwt beam="2">  1        4 0.14671301E-01 0.12499975E+03</pdfrwt>
<pdfrwt beam="1">  1       -4 0.63017761E-02 0.12499975E+03</pdfrwt>
<totfact> 0.10210276E+04</totfact>
</mgrwt>
</event>
<event>
 5    1  0.3183609E-002  0.1250049E+03  0.7818608E-02  0.1235062E+00
         -4   -1    0    0    0  501 -0.00000000000E+00  0.00000000000E+00  0.21157111099E+02  0.21195194032E+02  0.12700000000E+01 0.  1.
          4   -1    0    0  501    0  0.00000000000E+00 -0.00000000000E+00 -0.18443883667E+03  0.18444320907E+03  0.12700000000E+01 0.  1.
         25    2    1    2    0    0  0.00000000000E+00  0.00000000000E+00 -0.16328172557E+03  0.20563840310E+03  0.12500492360E+03 0.  0.
    9000005    1    3    3    0    0  0.10895993958E+02 -0.16232045650E+02 -0.17928706368E+03  0.18035258023E+03  0.10000000000E+01 0.  0.
    9000005    1    3    3    0    0 -0.10895993958E+02  0.16232045650E+02  0.16005338113E+02  0.25285822874E+02  0.10000000000E+01 0.  0.
<mgrwt>
<rscale>  0 0.12500492E+03</rscale>
<asrwt>0</asrwt>
<pdfrwt beam="2">  1        4 0.28378470E-01 0.12500492E+03</pdfrwt>
<pdfrwt beam="1">  1       -4 0.32582061E-02 0.12500492E+03</pdfrwt>
<totfact> 0.89183357E+03</totfact>
</mgrwt>
</event>
<event>
 5    1  0.3183609E-002  0.1250012E+03  0.7818608E-02  0.1235067E+00
          4   -1    0    0  501    0  0.00000000000E+00  0.00000000000E+00  0.98025686029E+01  0.98844954962E+01  0.12700000000E+01 0.  1.
         -4   -1    0    0    0  501 -0.00000000000E+00 -0.00000000000E+00 -0.39675857810E+03  0.39676061069E+03  0.12700000000E+01 0.  1.
         25    2    1    2    0    0  0.00000000000E+00  0.00000000000E+00 -0.38695600950E+03  0.40664510619E+03  0.12500115640E+03 0.  0.
    9000005    1    3    3    0    0 -0.13585918309E+02  0.38345418884E+02 -0.39155641532E+02  0.56472228480E+02  0.10000000000E+01 0.  0.
    9000005    1    3    3    0    0  0.13585918309E+02 -0.38345418884E+02 -0.34780036796E+03  0.35017287771E+03  0.10000000000E+01 0.  0.
<mgrwt>
<rscale>  0 0.12500116E+03</rscale>
<asrwt>0</asrwt>
<pdfrwt beam="1">  1        4 0.15145462E-02 0.12500116E+03</pdfrwt>
<pdfrwt beam="2">  1       -4 0.61046227E-01 0.12500116E+03</pdfrwt>
<totfact> 0.63909960E+03</totfact>
</mgrwt>
</event>
<event>
 5    1  0.3183609E-002  0.1250138E+03  0.7818608E-02  0.1235048E+00
          4   -1    0    0  501    0  0.00000000000E+00  0.00000000000E+00  0.62287726935E+02  0.62300672763E+02  0.12700000000E+01 0. -1.
         -4   -1    0    0    0  501 -0.00000000000E+00 -0.00000000000E+00 -0.62700904126E+02  0.62713764663E+02  0.12700000000E+01 0. -1.
         25    2    1    2    0    0  0.00000000000E+00  0.00000000000E+00 -0.41317719056E+00  0.12501443743E+03  0.12501375464E+03 0.  0.
    9000005    1    3    3    0    0 -0.62468550694E+02  0.34103230257E-01  0.17398864150E+01  0.62500785543E+02  0.10000000000E+01 0.  0.
    9000005    1    3    3    0    0  0.62468550694E+02 -0.34103230257E-01 -0.21530636056E+01  0.62513651883E+02  0.10000000000E+01 0.  0.
<mgrwt>
<rscale>  0 0.12501375E+03</rscale>
<asrwt>0</asrwt>
<pdfrwt beam="1">  1        4 0.95847123E-02 0.12501375E+03</pdfrwt>
<pdfrwt beam="2">  1       -4 0.96482780E-02 0.12501375E+03</pdfrwt>
<totfact> 0.10449300E+04</totfact>
</mgrwt>
</event>
<event>
 4    1  0.3183609E-002  0.1252543E+03  0.7818608E-02  0.1234672E+00
          4   -1    0    0  501    0  0.00000000000E+00  0.00000000000E+00  0.12527007878E+04  0.12527014316E+04  0.12700000000E+01 0. -1.
         -4   -1    0    0    0  501 -0.00000000000E+00 -0.00000000000E+00 -0.30015069254E+01  0.32591323728E+01  0.12700000000E+01 0. -1.
    9000005    1    1    2    0    0  0.33968721835E+02  0.20535648841E+02  0.13921697771E+03  0.14476862167E+03  0.10000000000E+01 0.  0.
    9000005    1    1    2    0    0 -0.33968721835E+02 -0.20535648841E+02  0.11104823032E+04  0.11111919423E+04  0.10000000000E+01 0.  0.
<mgrwt>
<rscale>  0 0.12525432E+03</rscale>
<asrwt>0</asrwt>
<pdfrwt beam="1">  1        4 0.19274313E+00 0.12525432E+03</pdfrwt>
<pdfrwt beam="2">  1       -4 0.48163700E-03 0.12525432E+03</pdfrwt>
<totfact> 0.23163573E+03</totfact>
</mgrwt>
</event>
<event>
 5    1  0.3183609E-002  0.1250157E+03  0.7818608E-02  0.1235045E+00
          4   -1    0    0  501    0  0.00000000000E+00  0.00000000000E+00  0.23591183748E+04  0.23591187167E+04  0.12700000000E+01 0. -1.
         -4   -1    0    0    0  501 -0.00000000000E+00 -0.00000000000E+00 -0.14123738876E+01  0.18993946400E+01  0.12700000000E+01 0. -1.
         25    2    1    2    0    0  0.00000000000E+00  0.00000000000E+00  0.23577060009E+04  0.23610181113E+04  0.12501573930E+03 0.  0.
    9000005    1    3    3    0    0  0.21415762830E+02 -0.34722225201E+02  0.20730827851E+04  0.20734843866E+04  0.10000000000E+01 0.  0.
    9000005    1    3    3    0    0 -0.21415762830E+02  0.34722225201E+02  0.28462321589E+03  0.28753372470E+03  0.10000000000E+01 0.  0.
<mgrwt>
<rscale>  0 0.12501574E+03</rscale>
<asrwt>0</asrwt>
<pdfrwt beam="1">  1        4 0.36297871E+00 0.12501574E+03</pdfrwt>
<pdfrwt beam="2">  1       -4 0.25477777E-03 0.12501574E+03</pdfrwt>
<totfact> 0.58529828E+02</totfact>
</mgrwt>
</event>
<event>
 5    1  0.3183609E-002  0.1249998E+03  0.7818608E-02  0.1235070E+00
         -4   -1    0    0    0  501 -0.00000000000E+00  0.00000000000E+00  0.59096310648E+01  0.60445545180E+01  0.12700000000E+01 0.  1.
          4   -1    0    0  501    0  0.00000000000E+00 -0.00000000000E+00 -0.65339933457E+03  0.65340056880E+03  0.12700000000E+01 0.  1.
         25    2    1    2    0    0  0.00000000000E+00  0.00000000000E+00 -0.64748970350E+03  0.65944512332E+03  0.12499981812E+03 0.  0.
    9000005    1    3    3    0    0 -0.20039300316E+02 -0.57785406525E+02 -0.25607925797E+03  0.26328371223E+03  0.10000000000E+01 0.  0.
    9000005    1    3    3    0    0  0.20039300316E+02  0.57785406525E+02 -0.39141044554E+03  0.39616141109E+03  0.10000000000E+01 0.  0.
<mgrwt>
<rscale>  0 0.12499982E+03</rscale>
<asrwt>0</asrwt>
<pdfrwt beam="2">  1        4 0.10053339E+00 0.12499982E+03</pdfrwt>
<pdfrwt beam="1">  1       -4 0.91964819E-03 0.12499982E+03</pdfrwt>
<totfact> 0.45315751E+03</totfact>
</mgrwt>
</event>
<event>
 4    1  0.3183609E-002  0.1248270E+03  0.7818608E-02  0.1235340E+00
         -4   -1    0    0    0  501 -0.00000000000E+00  0.00000000000E+00  0.37958333840E+03  0.37958546296E+03  0.12700000000E+01 0. -1.
          4   -1    0    0  501    0  0.00000000000E+00 -0.00000000000E+00 -0.10220963884E+02  0.10299563230E+02  0.12700000000E+01 0. -1.
    9000005    1    1    2    0    0  0.54900266614E+02 -0.14674247469E+02  0.26523048048E+03  0.27125187666E+03  0.10000000000E+01 0.  0.
    9000005    1    1    2    0    0 -0.54900266614E+02  0.14674247469E+02  0.10413189403E+03  0.11863314953E+03  0.10000000000E+01 0.  0.
<mgrwt>
<rscale>  0 0.12482696E+03</rscale>
<asrwt>0</asrwt>
<pdfrwt beam="2">  1        4 0.15786656E-02 0.12482696E+03</pdfrwt>
<pdfrwt beam="1">  1       -4 0.58403643E-01 0.12482696E+03</pdfrwt>
<totfact> 0.65799749E+03</totfact>
</mgrwt>
</event>
<event>
 5    1  0.3183609E-002  0.1249991E+03  0.7818608E-02  0.1235071E+00
          4   -1    0    0  501    0  0.00000000000E+00  0.00000000000E+00  0.35808326097E+02  0.35830840317E+02  0.12700000000E+01 0. -1.
         -4   -1    0    0    0  501 -0.00000000000E+00 -0.00000000000E+00 -0.10902566600E+03  0.10903306263E+03  0.12700000000E+01 0. -1.
         25    2    1    2    0    0  0.00000000000E+00  0.00000000000E+00 -0.73217339907E+02  0.14486390295E+03  0.12499908606E+03 0.  0.
    9000005    1    3    3    0    0  0.43603352263E+02 -0.23957020631E+02 -0.80433639507E+02  0.94582035982E+02  0.10000000000E+01 0.  0.
    9000005    1    3    3    0    0 -0.43603352263E+02  0.23957020631E+02  0.72162995999E+01  0.50281866970E+02  0.10000000000E+01 0.  0.
<mgrwt>
<rscale>  0 0.12499909E+03</rscale>
<asrwt>0</asrwt>
<pdfrwt beam="1">  1        4 0.55112741E-02 0.12499909E+03</pdfrwt>
<pdfrwt beam="2">  1       -4 0.16775480E-01 0.12499909E+03</pdfrwt>
<totfact> 0.10033961E+04</totfact>
</mgrwt>
</event>
<event>
 5    1  0.3183609E-002  0.1249937E+03  0.7818608E-02  0.1235079E+00
          4   -1    0    0  501    0  0.00000000000E+00  0.00000000000E+00  0.84909946421E+01  0.85854464072E+01  0.12700000000E+01 0.  1.
         -4   -1    0    0    0  501 -0.00000000000E+00 -0.00000000000E+00 -0.45735986327E+03  0.45736162654E+03  0.12700000000E+01 0.  1.
         25    2    1    2    0    0  0.00000000000E+00  0.00000000000E+00 -0.44886886863E+03  0.46594707295E+03  0.12499365409E+03 0.  0.
    9000005    1    3    3    0    0  0.11711386901E+01 -0.15135518917E+02 -0.45039971479E+03  0.45065658608E+03  0.10000000000E+01 0.  0.
    9000005    1    3    3    0    0 -0.11711386901E+01  0.15135518917E+02  0.15308461547E+01  0.15290486869E+02  0.10000000000E+01 0.  0.
<mgrwt>
<rscale>  0 0.12499365E+03</rscale>
<asrwt>0</asrwt>
<pdfrwt beam="1">  1        4 0.13137084E-02 0.12499365E+03</pdfrwt>
<pdfrwt beam="2">  1       -4 0.70370438E-01 0.12499365E+03</pdfrwt>
<totfact> 0.58614970E+03</totfact>
</mgrwt>
</event>
<event>
 5    1  0.3183609E-002  0.1249988E+03  0.7818608E-02  0.1235071E+00
          4   -1    0    0  501    0  0.00000000000E+00  0.00000000000E+00  0.89919606409E+03  0.89919696095E+03  0.12700000000E+01 0. -1.
         -4   -1    0    0    0  501 -0.00000000000E+00 -0.00000000000E+00 -0.42503313636E+01  0.44360136046E+01  0.12700000000E+01 0. -1.
         25    2    1    2    0    0  0.00000000000E+00  0.00000000000E+00  0.89494573273E+03  0.90363297455E+03  0.12499875268E+03 0.  0.
    9000005    1    3    3    0    0  0.25543576171E+02  0.34740309415E+02  0.77445114072E+03  0.77565129584E+03  0.10000000000E+01 0.  0.
    9000005    1    3    3    0    0 -0.25543576171E+02 -0.34740309415E+02  0.12049459201E+03  0.12798167871E+03  0.10000000000E+01 0.  0.
<mgrwt>
<rscale>  0 0.12499875E+03</rscale>
<asrwt>0</asrwt>
<pdfrwt beam="1">  1        4 0.13835215E+00 0.12499875E+03</pdfrwt>
<pdfrwt beam="2">  1       -4 0.66824963E-03 0.12499875E+03</pdfrwt>
<totfact> 0.34022126E+03</totfact>
</mgrwt>
</event>
<event>
 5    1  0.3183609E-002  0.1250013E+03  0.7818608E-02  0.1235067E+00
          4   -1    0    0  501    0  0.00000000000E+00  0.00000000000E+00  0.49340537804E+01  0.50948784782E+01  0.12700000000E+01 0. -1.
         -4   -1    0    0    0  501 -0.00000000000E+00 -0.00000000000E+00 -0.77885067465E+03  0.77885171008E+03  0.12700000000E+01 0. -1.
         25    2    1    2    0    0  0.00000000000E+00  0.00000000000E+00 -0.77391662086E+03  0.78394658856E+03  0.12500127064E+03 0.  0.
    9000005    1    3    3    0    0  0.40116872695E+02 -0.33957642119E+02 -0.59897283525E+03  0.60127526334E+03  0.10000000000E+01 0.  0.
    9000005    1    3    3    0    0 -0.40116872695E+02  0.33957642119E+02 -0.17494378561E+03  0.18267132522E+03  0.10000000000E+01 0.  0.
<mgrwt>
<rscale>  0 0.12500127E+03</rscale>
<asrwt>0</asrwt>
<pdfrwt beam="1">  1        4 0.77153660E-03 0.12500127E+03</pdfrwt>
<pdfrwt beam="2">  1       -4 0.11983554E+00 0.12500127E+03</pdfrwt>
<totfact> 0.38990463E+03</totfact>
</mgrwt>
</event>
<event>
 5    1  0.3183609E-002  0.1250165E+03  0.7818608E-02  0.1235044E+00
         -4   -1    0    0    0  501 -0.00000000000E+00  0.00000000000E+00  0.17158127773E+02  0.17205064623E+02  0.12700000000E+01 0. -1.
          4   -1    0    0  501    0  0.00000000000E+00 -0.00000000000E+00 -0.22736206294E+03  0.22736560989E+03  0.12700000000E+01 0. -1.
         25    2    1    2    0    0  0.00000000000E+00  0.00000000000E+00 -0.21020393516E+03  0.24457067452E+03  0.12501648082E+03 0.  0.
    9000005    1    3    3    0    0 -0.26794147080E+02 -0.52469866069E+02 -0.14591651273E+03  0.15736467790E+03  0.10000000000E+01 0.  0.
    9000005    1    3    3    0    0  0.26794147080E+02  0.52469866069E+02 -0.64287422434E+02  0.87205996618E+02  0.10000000000E+01 0.  0.
<mgrwt>
<rscale>  0 0.12501648E+03</rscale>
<asrwt>0</asrwt>
<pdfrwt beam="2">  1        4 0.34982660E-01 0.12501648E+03</pdfrwt>
<pdfrwt beam="1">  1       -4 0.26435955E-02 0.12501648E+03</pdfrwt>
<totfact> 0.83090800E+03</totfact>
</mgrwt>
</event>
<event>
 5    1  0.3183609E-002  0.1249994E+03  0.7818608E-02  0.1235070E+00
          4   -1    0    0  501    0  0.00000000000E+00  0.00000000000E+00  0.36713554271E+02  0.36735513705E+02  0.12700000000E+01 0.  1.
         -4   -1    0    0    0  501 -0.00000000000E+00 -0.00000000000E+00 -0.10633950066E+03  0.10634708412E+03  0.12700000000E+01 0.  1.
         25    2    1    2    0    0  0.00000000000E+00  0.00000000000E+00 -0.69625946391E+02  0.14308259783E+03  0.12499942956E+03 0.  0.
    9000005    1    3    3    0    0  0.25361885736E+02 -0.24718677017E+02  0.24123167311E+02  0.42862167965E+02  0.10000000000E+01 0.  0.
    9000005    1    3    3    0    0 -0.25361885736E+02  0.24718677017E+02 -0.93749113702E+02  0.10022042986E+03  0.10000000000E+01 0.  0.
<mgrwt>
<rscale>  0 0.12499943E+03</rscale>
<asrwt>0</asrwt>
<pdfrwt beam="1">  1        4 0.56505117E-02 0.12499943E+03</pdfrwt>
<pdfrwt beam="2">  1       -4 0.16362196E-01 0.12499943E+03</pdfrwt>
<totfact> 0.10070221E+04</totfact>
</mgrwt>
</event>
<event>
 5    1  0.3183609E-002  0.1250034E+03  0.7818608E-02  0.1235064E+00
          4   -1    0    0  501    0  0.00000000000E+00  0.00000000000E+00  0.18256678030E+02  0.18300797597E+02  0.12700000000E+01 0.  1.
         -4   -1    0    0    0  501 -0.00000000000E+00 -0.00000000000E+00 -0.21367019732E+03  0.21367397156E+03  0.12700000000E+01 0.  1.
         25    2    1    2    0    0  0.00000000000E+00  0.00000000000E+00 -0.19541351929E+03  0.23197476915E+03  0.12500339997E+03 0.  0.
    9000005    1    3    3    0    0 -0.13709478129E+02 -0.40058252298E+02 -0.18300757245E+03  0.18784404420E+03  0.10000000000E+01 0.  0.
    9000005    1    3    3    0    0  0.13709478129E+02  0.40058252298E+02 -0.12405946832E+02  0.44130724949E+02  0.10000000000E+01 0.  0.
<mgrwt>
<rscale>  0 0.12500340E+03</rscale>
<asrwt>0</asrwt>
<pdfrwt beam="1">  1        4 0.28124040E-02 0.12500340E+03</pdfrwt>
<pdfrwt beam="2">  1       -4 0.32876021E-01 0.12500340E+03</pdfrwt>
<totfact> 0.85000842E+03</totfact>
</mgrwt>
</event>
<event>
 5    1  0.3183609E-002  0.1250073E+03  0.7818608E-02  0.1235058E+00
          4   -1    0    0  501    0  0.00000000000E+00  0.00000000000E+00  0.19376954187E+02  0.19418528615E+02  0.12700000000E+01 0.  1.
         -4   -1    0    0    0  501 -0.00000000000E+00 -0.00000000000E+00 -0.20135663817E+03  0.20136064321E+03  0.12700000000E+01 0.  1.
         25    2    1    2    0    0  0.00000000000E+00  0.00000000000E+00 -0.18197968398E+03  0.22077917183E+03  0.12500734911E+03 0.  0.
    9000005    1    3    3    0    0 -0.45076633288E+01 -0.46604905934E+02 -0.16409508408E+03  0.17064739349E+03  0.10000000000E+01 0.  0.
    9000005    1    3    3    0    0  0.45076633288E+01  0.46604905934E+02 -0.17884599907E+02  0.50131778341E+02  0.10000000000E+01 0.  0.
<mgrwt>
<rscale>  0 0.12500735E+03</rscale>
<asrwt>0</asrwt>
<pdfrwt beam="1">  1        4 0.29845761E-02 0.12500735E+03</pdfrwt>
<pdfrwt beam="2">  1       -4 0.30981449E-01 0.12500735E+03</pdfrwt>
<totfact> 0.86730969E+03</totfact>
</mgrwt>
</event>
<event>
 5    1  0.3183609E-002  0.1250037E+03  0.7818608E-02  0.1235064E+00
         -4   -1    0    0    0  501 -0.00000000000E+00  0.00000000000E+00  0.46925266678E+02  0.46942449370E+02  0.12700000000E+01 0.  1.
          4   -1    0    0  501    0  0.00000000000E+00 -0.00000000000E+00 -0.83211699935E+02  0.83221390916E+02  0.12700000000E+01 0.  1.
         25    2    1    2    0    0  0.00000000000E+00  0.00000000000E+00 -0.36286433256E+02  0.13016384029E+03  0.12500368026E+03 0.  0.
    9000005    1    3    3    0    0  0.18461005076E+02  0.23752006346E+02 -0.75181355590E+02  0.80982731136E+02  0.10000000000E+01 0.  0.
    9000005    1    3    3    0    0 -0.18461005076E+02 -0.23752006346E+02  0.38894922334E+02  0.49181109150E+02  0.10000000000E+01 0.  0.
<mgrwt>
<rscale>  0 0.12500368E+03</rscale>
<asrwt>0</asrwt>
<pdfrwt beam="2">  1        4 0.12803867E-01 0.12500368E+03</pdfrwt>
<pdfrwt beam="1">  1       -4 0.72213390E-02 0.12500368E+03</pdfrwt>
<totfact> 0.10340145E+04</totfact>
</mgrwt>
</event>
<event>
 5    1  0.3183609E-002  0.1250027E+03  0.7818608E-02  0.1235065E+00
          4   -1    0    0  501    0  0.00000000000E+00  0.00000000000E+00  0.22484842380E+02  0.22520680204E+02  0.12700000000E+01 0. -1.
         -4   -1    0    0    0  501 -0.00000000000E+00 -0.00000000000E+00 -0.17355915104E+03  0.17356379752E+03  0.12700000000E+01 0. -1.
         25    2    1    2    0    0  0.00000000000E+00  0.00000000000E+00 -0.15107430866E+03  0.19608447772E+03  0.12500270264E+03 0.  0.
    9000005    1    3    3    0    0 -0.45242377136E+02  0.19124638841E+01 -0.14309608110E+03  0.15009336639E+03  0.10000000000E+01 0.  0.
    9000005    1    3    3    0    0  0.45242377136E+02 -0.19124638841E+01 -0.79782275586E+01  0.45991111336E+02  0.10000000000E+01 0.  0.
<mgrwt>
<rscale>  0 0.12500270E+03</rscale>
<asrwt>0</asrwt>
<pdfrwt beam="1">  1        4 0.34623208E-02 0.12500270E+03</pdfrwt>
<pdfrwt beam="2">  1       -4 0.26704521E-01 0.12500270E+03</pdfrwt>
<totfact> 0.90793788E+03</totfact>
</mgrwt>
</event>
<event>
 5    1  0.3183609E-002  0.1249890E+03  0.7818608E-02  0.1235086E+00
          4   -1    0    0  501    0  0.00000000000E+00  0.00000000000E+00  0.87183048914E+03  0.87183141414E+03  0.12700000000E+01 0.  1.
         -4   -1    0    0    0  501 -0.00000000000E+00 -0.00000000000E+00 -0.43887726259E+01  0.45688319254E+01  0.12700000000E+01 0.  1.
         25    2    1    2    0    0  0.00000000000E+00  0.00000000000E+00  0.86744171651E+03  0.87640024607E+03  0.12498903859E+03 0.  0.
    9000005    1    3    3    0    0 -0.39789967322E+02  0.47425717939E+02  0.49326960620E+03  0.49714016597E+03  0.10000000000E+01 0.  0.
    9000005    1    3    3    0    0  0.39789967322E+02 -0.47425717939E+02  0.37417211031E+03  0.37926008010E+03  0.10000000000E+01 0.  0.
<mgrwt>
<rscale>  0 0.12498904E+03</rscale>
<asrwt>0</asrwt>
<pdfrwt beam="1">  1        4 0.13414175E+00 0.12498904E+03</pdfrwt>
<pdfrwt beam="2">  1       -4 0.68911732E-03 0.12498904E+03</pdfrwt>
<totfact> 0.35079055E+03</totfact>
</mgrwt>
</event>
<event>
 5    1  0.3183609E-002  0.1249951E+03  0.7818608E-02  0.1235077E+00
         -4   -1    0    0    0  501 -0.00000000000E+00  0.00000000000E+00  0.39718495576E+03  0.39718698617E+03  0.12700000000E+01 0.  1.
          4   -1    0    0  501    0  0.00000000000E+00 -0.00000000000E+00 -0.97909952179E+01  0.98730181483E+01  0.12700000000E+01 0.  1.
         25    2    1    2    0    0  0.00000000000E+00  0.00000000000E+00  0.38739396054E+03  0.40706000432E+03  0.12499506570E+03 0.  0.
    9000005    1    3    3    0    0 -0.25659857297E+02  0.51990066003E+02  0.26962181667E+03  0.27578672786E+03  0.10000000000E+01 0.  0.
    9000005    1    3    3    0    0  0.25659857297E+02 -0.51990066003E+02  0.11777214387E+03  0.13127327645E+03  0.10000000000E+01 0.  0.
<mgrwt>
<rscale>  0 0.12499507E+03</rscale>
<asrwt>0</asrwt>
<pdfrwt beam="2">  1        4 0.15127725E-02 0.12499507E+03</pdfrwt>
<pdfrwt beam="1">  1       -4 0.61111848E-01 0.12499507E+03</pdfrwt>
<totfact> 0.63878837E+03</totfact>
</mgrwt>
</event>
<event>
 5    1  0.3183609E-002  0.1249998E+03  0.7818608E-02  0.1235070E+00
         -4   -1    0    0    0  501 -0.00000000000E+00  0.00000000000E+00  0.13092733069E+03  0.13093349007E+03  0.12700000000E+01 0.  1.
          4   -1    0    0  501    0  0.00000000000E+00 -0.00000000000E+00 -0.29814785943E+02  0.29841822344E+02  0.12700000000E+01 0.  1.
         25    2    1    2    0    0  0.00000000000E+00  0.00000000000E+00  0.10111254475E+03  0.16077531241E+03  0.12499981750E+03 0.  0.
    9000005    1    3    3    0    0  0.43306986114E+02  0.26716927272E+02  0.38979016677E+01  0.51043930948E+02  0.10000000000E+01 0.  0.
    9000005    1    3    3    0    0 -0.43306986114E+02 -0.26716927272E+02  0.97214643080E+02  0.10973138147E+03  0.10000000000E+01 0.  0.
<mgrwt>
<rscale>  0 0.12499982E+03</rscale>
<asrwt>0</asrwt>
<pdfrwt beam="2">  1        4 0.45894437E-02 0.12499982E+03</pdfrwt>
<pdfrwt beam="1">  1       -4 0.20145219E-01 0.12499982E+03</pdfrwt>
<totfact> 0.97193918E+03</totfact>
</mgrwt>
</event>
<event>
 5    1  0.3183609E-002  0.1250021E+03  0.7818608E-02  0.1235066E+00
         -4   -1    0    0    0  501 -0.00000000000E+00  0.00000000000E+00  0.15243628466E+03  0.15244157498E+03  0.12700000000E+01 0. -1.
          4   -1    0    0  501    0  0.00000000000E+00 -0.00000000000E+00 -0.25604846617E+02  0.25636323260E+02  0.12700000000E+01 0. -1.
         25    2    1    2    0    0  0.00000000000E+00  0.00000000000E+00  0.12683143804E+03  0.17807789824E+03  0.12500209664E+03 0.  0.
    9000005    1    3    3    0    0 -0.43586156161E+02 -0.17118020366E+02  0.44606879519E+01  0.47049732913E+02  0.10000000000E+01 0.  0.
    9000005    1    3    3    0    0  0.43586156161E+02  0.17118020366E+02  0.12237075009E+03  0.13102816532E+03  0.10000000000E+01 0.  0.
<mgrwt>
<rscale>  0 0.12500210E+03</rscale>
<asrwt>0</asrwt>
<pdfrwt beam="2">  1        4 0.39420354E-02 0.12500210E+03</pdfrwt>
<pdfrwt beam="1">  1       -4 0.23454564E-01 0.12500210E+03</pdfrwt>
<totfact> 0.93959718E+03</totfact>
</mgrwt>
</event>
<event>
 5    1  0.3183609E-002  0.1250057E+03  0.7818608E-02  0.1235060E+00
         -4   -1    0    0    0  501 -0.00000000000E+00  0.00000000000E+00  0.19825553497E+02  0.19866189153E+02  0.12700000000E+01 0.  1.
          4   -1    0    0  501    0  0.00000000000E+00 -0.00000000000E+00 -0.19680448136E+03  0.19680857904E+03  0.12700000000E+01 0.  1.
         25    2    1    2    0    0  0.00000000000E+00  0.00000000000E+00 -0.17697892787E+03  0.21667476820E+03  0.12500565693E+03 0.  0.
    9000005    1    3    3    0    0 -0.16047230398E+00 -0.62267159992E+02 -0.79255797846E+02  0.10079536922E+03  0.10000000000E+01 0.  0.
    9000005    1    3    3    0    0  0.16047230398E+00  0.62267159992E+02 -0.97723130022E+02  0.11587939897E+03  0.10000000000E+01 0.  0.
<mgrwt>
<rscale>  0 0.12500566E+03</rscale>
<asrwt>0</asrwt>
<pdfrwt beam="2">  1        4 0.30281052E-01 0.12500566E+03</pdfrwt>
<pdfrwt beam="1">  1       -4 0.30535263E-02 0.12500566E+03</pdfrwt>
<totfact> 0.87386229E+03</totfact>
</mgrwt>
</event>
<event>
 5    1  0.3183609E-002  0.1250012E+03  0.7818608E-02  0.1235067E+00
         -4   -1    0    0    0  501 -0.00000000000E+00  0.00000000000E+00  0.92333926271E+03  0.92334013611E+03  0.12700000000E+01 0. -1.
          4   -1    0    0  501    0  0.00000000000E+00 -0.00000000000E+00 -0.41344473903E+01  0.43251075389E+01  0.12700000000E+01 0. -1.
         25    2    1    2    0    0  0.00000000000E+00  0.00000000000E+00  0.91920481532E+03  0.92766524365E+03  0.12500124710E+03 0.  0.
    9000005    1    3    3    0    0 -0.24210748810E+02  0.56262597606E+02  0.36760057234E+03  0.37266985528E+03  0.10000000000E+01 0.  0.
    9000005    1    3    3    0    0  0.24210748810E+02 -0.56262597606E+02  0.55160424298E+03  0.55499538838E+03  0.10000000000E+01 0.  0.
<mgrwt>
<rscale>  0 0.12500125E+03</rscale>
<asrwt>0</asrwt>
<pdfrwt beam="2">  1        4 0.65080194E-03 0.12500125E+03</pdfrwt>
<pdfrwt beam="1">  1       -4 0.14206698E+00 0.12500125E+03</pdfrwt>
<totfact> 0.33121533E+03</totfact>
</mgrwt>
</event>
<event>
 5    1  0.3183609E-002  0.1250013E+03  0.7818608E-02  0.1235067E+00
         -4   -1    0    0    0  501 -0.00000000000E+00  0.00000000000E+00  0.62600496031E+02  0.62613377192E+02  0.12700000000E+01 0. -1.
          4   -1    0    0  501    0  0.00000000000E+00 -0.00000000000E+00 -0.62375200682E+02  0.62388128359E+02  0.12700000000E+01 0. -1.
         25    2    1    2    0    0  0.00000000000E+00  0.00000000000E+00  0.22529534943E+00  0.12500150555E+03  0.12500130252E+03 0.  0.
    9000005    1    3    3    0    0 -0.58905596685E+02 -0.40251655244E+00  0.20976527506E+02  0.62538356603E+02  0.10000000000E+01 0.  0.
    9000005    1    3    3    0    0  0.58905596685E+02  0.40251655244E+00 -0.20751232156E+02  0.62463148947E+02  0.10000000000E+01 0.  0.
<mgrwt>
<rscale>  0 0.12500130E+03</rscale>
<asrwt>0</asrwt>
<pdfrwt beam="2">  1        4 0.95981701E-02 0.12500130E+03</pdfrwt>
<pdfrwt beam="1">  1       -4 0.96328308E-02 0.12500130E+03</pdfrwt>
<totfact> 0.10452522E+04</totfact>
</mgrwt>
</event>
<event>
 5    1  0.3183609E-002  0.1249915E+03  0.7818608E-02  0.1235083E+00
          4   -1    0    0  501    0  0.00000000000E+00  0.00000000000E+00  0.33009940595E+03  0.33010184899E+03  0.12700000000E+01 0.  1.
         -4   -1    0    0    0  501 -0.00000000000E+00 -0.00000000000E+00 -0.11795376614E+02  0.11863549615E+02  0.12700000000E+01 0.  1.
         25    2    1    2    0    0  0.00000000000E+00  0.00000000000E+00  0.31830402934E+03  0.34196539861E+03  0.12499151473E+03 0.  0.
    9000005    1    3    3    0    0  0.33988816664E+02 -0.34799537274E+02  0.26646356398E+03  0.27086911670E+03  0.10000000000E+01 0.  0.
    9000005    1    3    3    0    0 -0.33988816664E+02  0.34799537274E+02  0.51840465353E+02  0.71096281905E+02  0.10000000000E+01 0.  0.
<mgrwt>
<rscale>  0 0.12499151E+03</rscale>
<asrwt>0</asrwt>
<pdfrwt beam="1">  1        4 0.50789956E-01 0.12499151E+03</pdfrwt>
<pdfrwt beam="2">  1       -4 0.18201053E-02 0.12499151E+03</pdfrwt>
<totfact> 0.70630865E+03</totfact>
</mgrwt>
</event>
<event>
 5    1  0.3183609E-002  0.1249967E+03  0.7818608E-02  0.1235074E+00
         -4   -1    0    0    0  501 -0.00000000000E+00  0.00000000000E+00  0.65068961155E+03  0.65069085092E+03  0.12700000000E+01 0. -1.
          4   -1    0    0  501    0  0.00000000000E+00 -0.00000000000E+00 -0.59345003738E+01  0.60688709565E+01  0.12700000000E+01 0. -1.
         25    2    1    2    0    0  0.00000000000E+00  0.00000000000E+00  0.64475511117E+03  0.65675972188E+03  0.12499671555E+03 0.  0.
    9000005    1    3    3    0    0 -0.19818001897E+02  0.46439235280E+01  0.11946073724E+02  0.23622614215E+02  0.10000000000E+01 0.  0.
    9000005    1    3    3    0    0  0.19818001897E+02 -0.46439235280E+01  0.63280903745E+03  0.63313710766E+03  0.10000000000E+01 0.  0.
<mgrwt>
<rscale>  0 0.12499672E+03</rscale>
<asrwt>0</asrwt>
<pdfrwt beam="2">  1        4 0.92343139E-03 0.12499672E+03</pdfrwt>
<pdfrwt beam="1">  1       -4 0.10011655E+00 0.12499672E+03</pdfrwt>
<totfact> 0.45472688E+03</totfact>
</mgrwt>
</event>
<event>
 5    1  0.3183609E-002  0.1250027E+03  0.7818608E-02  0.1235065E+00
         -4   -1    0    0    0  501 -0.00000000000E+00  0.00000000000E+00  0.64488934386E+01  0.65727563915E+01  0.12700000000E+01 0. -1.
          4   -1    0    0  501    0  0.00000000000E+00 -0.00000000000E+00 -0.59986368160E+03  0.59986502599E+03  0.12700000000E+01 0. -1.
         25    2    1    2    0    0  0.00000000000E+00  0.00000000000E+00 -0.59341478816E+03  0.60643778238E+03  0.12500269232E+03 0.  0.
    9000005    1    3    3    0    0  0.46584291799E+02 -0.68017178985E+01 -0.97323877877E+02  0.10811705145E+03  0.10000000000E+01 0.  0.
    9000005    1    3    3    0    0 -0.46584291799E+02  0.68017178985E+01 -0.49609091029E+03  0.49832073093E+03  0.10000000000E+01 0.  0.
<mgrwt>
<rscale>  0 0.12500269E+03</rscale>
<asrwt>0</asrwt>
<pdfrwt beam="2">  1        4 0.92296308E-01 0.12500269E+03</pdfrwt>
<pdfrwt beam="1">  1       -4 0.10017693E-02 0.12500269E+03</pdfrwt>
<totfact> 0.48460901E+03</totfact>
</mgrwt>
</event>
<event>
 5    1  0.3183609E-002  0.1249948E+03  0.7818608E-02  0.1235077E+00
          4   -1    0    0  501    0  0.00000000000E+00  0.00000000000E+00  0.50203672515E+02  0.50219733512E+02  0.12700000000E+01 0. -1.
         -4   -1    0    0    0  501 -0.00000000000E+00 -0.00000000000E+00 -0.77767887560E+02  0.77778256830E+02  0.12700000000E+01 0. -1.
         25    2    1    2    0    0  0.00000000000E+00  0.00000000000E+00 -0.27564215044E+02  0.12799799034E+03  0.12499479821E+03 0.  0.
    9000005    1    3    3    0    0  0.58737366789E+02  0.19668258712E+02 -0.22226833925E+02  0.65817556962E+02  0.10000000000E+01 0.  0.
    9000005    1    3    3    0    0 -0.58737366789E+02 -0.19668258712E+02 -0.53373811190E+01  0.62180433380E+02  0.10000000000E+01 0.  0.
<mgrwt>
<rscale>  0 0.12499480E+03</rscale>
<asrwt>0</asrwt>
<pdfrwt beam="1">  1        4 0.77256750E-02 0.12499480E+03</pdfrwt>
<pdfrwt beam="2">  1       -4 0.11966324E-01 0.12499480E+03</pdfrwt>
<totfact> 0.10388751E+04</totfact>
</mgrwt>
</event>
<event>
 5    1  0.3183609E-002  0.1250004E+03  0.7818608E-02  0.1235069E+00
         -4   -1    0    0    0  501 -0.00000000000E+00  0.00000000000E+00  0.43946882080E+02  0.43965228812E+02  0.12700000000E+01 0. -1.
          4   -1    0    0  501    0  0.00000000000E+00 -0.00000000000E+00 -0.88844803443E+02  0.88853880044E+02  0.12700000000E+01 0. -1.
         25    2    1    2    0    0  0.00000000000E+00  0.00000000000E+00 -0.44897921364E+02  0.13281910886E+03  0.12500036934E+03 0.  0.
    9000005    1    3    3    0    0 -0.51997066693E+02  0.53461846647E+01 -0.58840264396E+02  0.78711202184E+02  0.10000000000E+01 0.  0.
    9000005    1    3    3    0    0  0.51997066693E+02 -0.53461846647E+01  0.13942343032E+02  0.54107906672E+02  0.10000000000E+01 0.  0.
<mgrwt>
<rscale>  0 0.12500037E+03</rscale>
<asrwt>0</asrwt>
<pdfrwt beam="2">  1        4 0.13670541E-01 0.12500037E+03</pdfrwt>
<pdfrwt beam="1">  1       -4 0.67631683E-02 0.12500037E+03</pdfrwt>
<totfact> 0.10284160E+04</totfact>
</mgrwt>
</event>
<event>
 5    1  0.3183609E-002  0.1250000E+03  0.7818608E-02  0.1235069E+00
         -4   -1    0    0    0  501 -0.00000000000E+00  0.00000000000E+00  0.11054818680E+04  0.11054825975E+04  0.12700000000E+01 0.  1.
          4   -1    0    0  501    0  0.00000000000E+00 -0.00000000000E+00 -0.34186570981E+01  0.36469324581E+01  0.12700000000E+01 0.  1.
         25    2    1    2    0    0  0.00000000000E+00  0.00000000000E+00  0.11020632109E+04  0.11091295299E+04  0.12499997361E+03 0.  0.
    9000005    1    3    3    0    0  0.12946885691E+02 -0.60401685252E+02  0.63486323198E+03  0.63786229608E+03  0.10000000000E+01 0.  0.
    9000005    1    3    3    0    0 -0.12946885691E+02  0.60401685252E+02  0.46719997890E+03  0.47126723387E+03  0.10000000000E+01 0.  0.
<mgrwt>
<rscale>  0 0.12499997E+03</rscale>
<asrwt>0</asrwt>
<pdfrwt beam="2">  1        4 0.54356202E-03 0.12499997E+03</pdfrwt>
<pdfrwt beam="1">  1       -4 0.17009206E+00 0.12499997E+03</pdfrwt>
<totfact> 0.27217682E+03</totfact>
</mgrwt>
</event>
<event>
 5    1  0.3183609E-002  0.1249972E+03  0.7818608E-02  0.1235074E+00
         -4   -1    0    0    0  501 -0.00000000000E+00  0.00000000000E+00  0.80102397991E+02  0.80112465097E+02  0.12700000000E+01 0.  1.
          4   -1    0    0  501    0  0.00000000000E+00 -0.00000000000E+00 -0.48742133209E+02  0.48758675636E+02  0.12700000000E+01 0.  1.
         25    2    1    2    0    0  0.00000000000E+00  0.00000000000E+00  0.31360264782E+02  0.12887114073E+03  0.12499721880E+03 0.  0.
    9000005    1    3    3    0    0  0.37967158000E+02  0.10744549415E+02 -0.34279127747E+02  0.52278188835E+02  0.10000000000E+01 0.  0.
    9000005    1    3    3    0    0 -0.37967158000E+02 -0.10744549415E+02  0.65639392530E+02  0.76592951898E+02  0.10000000000E+01 0.  0.
<mgrwt>
<rscale>  0 0.12499722E+03</rscale>
<asrwt>0</asrwt>
<pdfrwt beam="2">  1        4 0.75008367E-02 0.12499722E+03</pdfrwt>
<pdfrwt beam="1">  1       -4 0.12325493E-01 0.12499722E+03</pdfrwt>
<totfact> 0.10369368E+04</totfact>
</mgrwt>
</event>
<event>
 5    1  0.3183609E-002  0.1250156E+03  0.7818608E-02  0.1235045E+00
          4   -1    0    0  501    0  0.00000000000E+00  0.00000000000E+00  0.16175144963E+03  0.16175643529E+03  0.12700000000E+01 0.  1.
         -4   -1    0    0    0  501 -0.00000000000E+00 -0.00000000000E+00 -0.24133691684E+02  0.24167084522E+02  0.12700000000E+01 0.  1.
         25    2    1    2    0    0  0.00000000000E+00  0.00000000000E+00  0.13761775795E+03  0.18592351981E+03  0.12501563069E+03 0.  0.
    9000005    1    3    3    0    0 -0.44091746861E+02  0.44076148078E+02  0.62252019140E+02  0.88108472111E+02  0.10000000000E+01 0.  0.
    9000005    1    3    3    0    0  0.44091746861E+02 -0.44076148078E+02  0.75365738807E+02  0.97815047700E+02  0.10000000000E+01 0.  0.
<mgrwt>
<rscale>  0 0.12501563E+03</rscale>
<asrwt>0</asrwt>
<pdfrwt beam="1">  1        4 0.24887790E-01 0.12501563E+03</pdfrwt>
<pdfrwt beam="2">  1       -4 0.37158280E-02 0.12501563E+03</pdfrwt>
<totfact> 0.92529074E+03</totfact>
</mgrwt>
</event>
<event>
 5    1  0.3183609E-002  0.1249995E+03  0.7818608E-02  0.1235070E+00
          4   -1    0    0  501    0  0.00000000000E+00  0.00000000000E+00  0.34878206805E+03  0.34878438023E+03  0.12700000000E+01 0. -1.
         -4   -1    0    0    0  501 -0.00000000000E+00 -0.00000000000E+00 -0.11161242021E+02  0.11233264150E+02  0.12700000000E+01 0. -1.
         25    2    1    2    0    0  0.00000000000E+00  0.00000000000E+00  0.33762082603E+03  0.36001764438E+03  0.12499952839E+03 0.  0.
    9000005    1    3    3    0    0  0.24437377746E+02  0.19775559452E+02  0.13256542170E+02  0.34132009801E+02  0.10000000000E+01 0.  0.
    9000005    1    3    3    0    0 -0.24437377746E+02 -0.19775559452E+02  0.32436428386E+03  0.32588563458E+03  0.10000000000E+01 0.  0.
<mgrwt>
<rscale>  0 0.12499953E+03</rscale>
<asrwt>0</asrwt>
<pdfrwt beam="1">  1        4 0.53664495E-01 0.12499953E+03</pdfrwt>
<pdfrwt beam="2">  1       -4 0.17228323E-02 0.12499953E+03</pdfrwt>
<totfact> 0.68637088E+03</totfact>
</mgrwt>
</event>
<event>
 5    1  0.3183609E-002  0.1250011E+03  0.7818608E-02  0.1235068E+00
          4   -1    0    0  501    0  0.00000000000E+00  0.00000000000E+00  0.43333895112E+02  0.43352501261E+02  0.12700000000E+01 0. -1.
         -4   -1    0    0    0  501 -0.00000000000E+00 -0.00000000000E+00 -0.90102249396E+02  0.90111199339E+02  0.12700000000E+01 0. -1.
         25    2    1    2    0    0  0.00000000000E+00  0.00000000000E+00 -0.46768354284E+02  0.13346370060E+03  0.12500112166E+03 0.  0.
    9000005    1    3    3    0    0  0.56055371087E+02 -0.12097841934E+02  0.31317331749E+01  0.57440144149E+02  0.10000000000E+01 0.  0.
    9000005    1    3    3    0    0 -0.56055371087E+02  0.12097841934E+02 -0.49900087459E+02  0.76023556451E+02  0.10000000000E+01 0.  0.
<mgrwt>
<rscale>  0 0.12500112E+03</rscale>
<asrwt>0</asrwt>
<pdfrwt beam="1">  1        4 0.66688728E-02 0.12500112E+03</pdfrwt>
<pdfrwt beam="2">  1       -4 0.13864004E-01 0.12500112E+03</pdfrwt>
<totfact> 0.10270295E+04</totfact>
</mgrwt>
</event>
<event>
 5    1  0.3183609E-002  0.1249955E+03  0.7818608E-02  0.1235076E+00
          4   -1    0    0  501    0  0.00000000000E+00  0.00000000000E+00  0.26670380640E+03  0.26670683015E+03  0.12700000000E+01 0. -1.
         -4   -1    0    0    0  501 -0.00000000000E+00 -0.00000000000E+00 -0.14614701439E+02  0.14669778395E+02  0.12700000000E+01 0. -1.
         25    2    1    2    0    0  0.00000000000E+00  0.00000000000E+00  0.25208910496E+03  0.28137660854E+03  0.12499551590E+03 0.  0.
    9000005    1    3    3    0    0 -0.10669637398E+02  0.57326495106E+02  0.75467455831E+02  0.95375600092E+02  0.10000000000E+01 0.  0.
    9000005    1    3    3    0    0  0.10669637398E+02 -0.57326495106E+02  0.17662164913E+03  0.18600100845E+03  0.10000000000E+01 0.  0.
<mgrwt>
<rscale>  0 0.12499552E+03</rscale>
<asrwt>0</asrwt>
<pdfrwt beam="1">  1        4 0.41035820E-01 0.12499552E+03</pdfrwt>
<pdfrwt beam="2">  1       -4 0.22528851E-02 0.12499552E+03</pdfrwt>
<totfact> 0.78003706E+03</totfact>
</mgrwt>
</event>
<event>
 5    1  0.3183609E-002  0.1249988E+03  0.7818608E-02  0.1235071E+00
         -4   -1    0    0    0  501 -0.00000000000E+00  0.00000000000E+00  0.76614644130E+01  0.77660116502E+01  0.12700000000E+01 0. -1.
          4   -1    0    0  501    0  0.00000000000E+00 -0.00000000000E+00 -0.50628630520E+03  0.50628789807E+03  0.12700000000E+01 0. -1.
         25    2    1    2    0    0  0.00000000000E+00  0.00000000000E+00 -0.49862484078E+03  0.51405390972E+03  0.12499876099E+03 0.  0.
    9000005    1    3    3    0    0 -0.12525135556E+02 -0.60995109724E+02 -0.27103084096E+03  0.27809350798E+03  0.10000000000E+01 0.  0.
    9000005    1    3    3    0    0  0.12525135556E+02  0.60995109724E+02 -0.22759399982E+03  0.23596040173E+03  0.10000000000E+01 0.  0.
<mgrwt>
<rscale>  0 0.12499876E+03</rscale>
<asrwt>0</asrwt>
<pdfrwt beam="2">  1        4 0.77898339E-01 0.12499876E+03</pdfrwt>
<pdfrwt beam="1">  1       -4 0.11868519E-02 0.12499876E+03</pdfrwt>
<totfact> 0.54791712E+03</totfact>
</mgrwt>
</event>
<event>
 5    1  0.3183609E-002  0.1249934E+03  0.7818608E-02  0.1235080E+00
          4   -1    0    0  501    0  0.00000000000E+00  0.00000000000E+00  0.87363789577E+01  0.88282057799E+01  0.12700000000E+01 0.  1.
         -4   -1    0    0    0  501 -0.00000000000E+00 -0.00000000000E+00 -0.44464741943E+03  0.44464923311E+03  0.12700000000E+01 0.  1.
         25    2    1    2    0    0  0.00000000000E+00  0.00000000000E+00 -0.43591104048E+03  0.45347743889E+03  0.12499340933E+03 0.  0.
    9000005    1    3    3    0    0  0.23984268976E+02  0.51711938926E+02 -0.31084027107E+03  0.31602538491E+03  0.10000000000E+01 0.  0.
    9000005    1    3    3    0    0 -0.23984268976E+02 -0.51711938926E+02 -0.12507076940E+03  0.13745205398E+03  0.10000000000E+01 0.  0.
<mgrwt>
<rscale>  0 0.12499341E+03</rscale>
<asrwt>0</asrwt>
<pdfrwt beam="1">  1        4 0.13512618E-02 0.12499341E+03</pdfrwt>
<pdfrwt beam="2">  1       -4 0.68414481E-01 0.12499341E+03</pdfrwt>
<totfact> 0.59672393E+03</totfact>
</mgrwt>
</event>
<event>
 5    1  0.3183609E-002  0.1250039E+03  0.7818608E-02  0.1235063E+00
          4   -1    0    0  501    0  0.00000000000E+00  0.00000000000E+00  0.10068146775E+02  0.10147929813E+02  0.12700000000E+01 0.  1.
         -4   -1    0    0    0  501 -0.00000000000E+00 -0.00000000000E+00 -0.38639314615E+03  0.38639523327E+03  0.12700000000E+01 0.  1.
         25    2    1    2    0    0  0.00000000000E+00  0.00000000000E+00 -0.37632499938E+03  0.39654316308E+03  0.12500390006E+03 0.  0.
    9000005    1    3    3    0    0  0.39987486423E+02  0.47670421416E+02 -0.20666668034E+03  0.21583230738E+03  0.10000000000E+01 0.  0.
    9000005    1    3    3    0    0 -0.39987486423E+02 -0.47670421416E+02 -0.16965831904E+03  0.18071085570E+03  0.10000000000E+01 0.  0.
<mgrwt>
<rscale>  0 0.12500390E+03</rscale>
<asrwt>0</asrwt>
<pdfrwt beam="1">  1        4 0.15552437E-02 0.12500390E+03</pdfrwt>
<pdfrwt beam="2">  1       -4 0.59451386E-01 0.12500390E+03</pdfrwt>
<totfact> 0.64884809E+03</totfact>
</mgrwt>
</event>
<event>
 5    1  0.3183609E-002  0.1249985E+03  0.7818608E-02  0.1235072E+00
         -4   -1    0    0    0  501 -0.00000000000E+00  0.00000000000E+00  0.98738468335E+02  0.98746635533E+02  0.12700000000E+01 0. -1.
          4   -1    0    0  501    0  0.00000000000E+00 -0.00000000000E+00 -0.39540608729E+02  0.39560998959E+02  0.12700000000E+01 0. -1.
         25    2    1    2    0    0  0.00000000000E+00  0.00000000000E+00  0.59197859606E+02  0.13830763449E+03  0.12499846070E+03 0.  0.
    9000005    1    3    3    0    0 -0.42829723987E+02  0.31520535286E+02  0.65914643048E+02  0.84697518084E+02  0.10000000000E+01 0.  0.
    9000005    1    3    3    0    0  0.42829723987E+02 -0.31520535286E+02 -0.67167834423E+01  0.53610116408E+02  0.10000000000E+01 0.  0.
<mgrwt>
<rscale>  0 0.12499846E+03</rscale>
<asrwt>0</asrwt>
<pdfrwt beam="2">  1        4 0.60853673E-02 0.12499846E+03</pdfrwt>
<pdfrwt beam="1">  1       -4 0.15192730E-01 0.12499846E+03</pdfrwt>
<totfact> 0.10169135E+04</totfact>
</mgrwt>
</event>
<event>
 5    1  0.3183609E-002  0.1249996E+03  0.7818608E-02  0.1235070E+00
         -4   -1    0    0    0  501 -0.00000000000E+00  0.00000000000E+00  0.73712691880E+02  0.73723631518E+02  0.12700000000E+01 0. -1.
          4   -1    0    0  501    0  0.00000000000E+00 -0.00000000000E+00 -0.52970082089E+02  0.52985304533E+02  0.12700000000E+01 0. -1.
         25    2    1    2    0    0  0.00000000000E+00  0.00000000000E+00  0.20742609791E+02  0.12670893605E+03  0.12499959446E+03 0.  0.
    9000005    1    3    3    0    0  0.58229304794E+02 -0.13559570486E+02  0.28805441701E+02  0.66372188153E+02  0.10000000000E+01 0.  0.
    9000005    1    3    3    0    0 -0.58229304794E+02  0.13559570486E+02 -0.80628319092E+01  0.60336747899E+02  0.10000000000E+01 0.  0.
<mgrwt>
<rscale>  0 0.12499959E+03</rscale>
<asrwt>0</asrwt>
<pdfrwt beam="2">  1        4 0.81512559E-02 0.12499959E+03</pdfrwt>
<pdfrwt beam="1">  1       -4 0.11342427E-01 0.12499959E+03</pdfrwt>
<totfact> 0.10415571E+04</totfact>
</mgrwt>
</event>
<event>
 5    1  0.3183609E-002  0.1250004E+03  0.7818608E-02  0.1235069E+00
         -4   -1    0    0    0  501 -0.00000000000E+00  0.00000000000E+00  0.12708589060E+03  0.12709223615E+03  0.12700000000E+01 0. -1.
          4   -1    0    0  501    0  0.00000000000E+00 -0.00000000000E+00 -0.30717027001E+02  0.30743269959E+02  0.12700000000E+01 0. -1.
         25    2    1    2    0    0  0.00000000000E+00  0.00000000000E+00  0.96368863594E+02  0.15783550610E+03  0.12500035647E+03 0.  0.
    9000005    1    3    3    0    0  0.33081217779E+02 -0.49904418191E+02  0.70787976164E+02  0.92718690101E+02  0.10000000000E+01 0.  0.
    9000005    1    3    3    0    0 -0.33081217779E+02  0.49904418191E+02  0.25580887430E+02  0.65116816003E+02  0.10000000000E+01 0.  0.
<mgrwt>
<rscale>  0 0.12500036E+03</rscale>
<asrwt>0</asrwt>
<pdfrwt beam="2">  1        4 0.47282032E-02 0.12500036E+03</pdfrwt>
<pdfrwt beam="1">  1       -4 0.19554183E-01 0.12500036E+03</pdfrwt>
<totfact> 0.97760928E+03</totfact>
</mgrwt>
</event>
<event>
 5    1  0.3183609E-002  0.1250012E+03  0.7818608E-02  0.1235067E+00
         -4   -1    0    0    0  501 -0.00000000000E+00  0.00000000000E+00  0.20422696777E+03  0.20423091652E+03  0.12700000000E+01 0. -1.
          4   -1    0    0  501    0  0.00000000000E+00 -0.00000000000E+00 -0.19102146555E+02  0.19144317774E+02  0.12700000000E+01 0. -1.
         25    2    1    2    0    0  0.00000000000E+00  0.00000000000E+00  0.18512482121E+03  0.22337523430E+03  0.12500118347E+03 0.  0.
    9000005    1    3    3    0    0  0.15363687595E+02  0.57553438781E+02  0.12632095230E+03  0.13966540088E+03  0.10000000000E+01 0.  0.
    9000005    1    3    3    0    0 -0.15363687595E+02 -0.57553438781E+02  0.58803868909E+02  0.83709833417E+02  0.10000000000E+01 0.  0.
<mgrwt>
<rscale>  0 0.12500118E+03</rscale>
<asrwt>0</asrwt>
<pdfrwt beam="2">  1        4 0.29423394E-02 0.12500118E+03</pdfrwt>
<pdfrwt beam="1">  1       -4 0.31423082E-01 0.12500118E+03</pdfrwt>
<totfact> 0.86334782E+03</totfact>
</mgrwt>
</event>
<event>
 5    1  0.3183609E-002  0.1249989E+03  0.7818608E-02  0.1235071E+00
          4   -1    0    0  501    0  0.00000000000E+00  0.00000000000E+00  0.11442571703E+03  0.11443276461E+03  0.12700000000E+01 0. -1.
         -4   -1    0    0    0  501 -0.00000000000E+00 -0.00000000000E+00 -0.34117349323E+02  0.34140978674E+02  0.12700000000E+01 0. -1.
         25    2    1    2    0    0  0.00000000000E+00  0.00000000000E+00  0.80308367703E+02  0.14857374329E+03  0.12499889308E+03 0.  0.
    9000005    1    3    3    0    0 -0.46034188472E+02  0.39050932753E+02  0.20949586741E+02  0.63906236329E+02  0.10000000000E+01 0.  0.
    9000005    1    3    3    0    0  0.46034188472E+02 -0.39050932753E+02  0.59358780962E+02  0.84667506958E+02  0.10000000000E+01 0.  0.
<mgrwt>
<rscale>  0 0.12499889E+03</rscale>
<asrwt>0</asrwt>
<pdfrwt beam="1">  1        4 0.17606316E-01 0.12499889E+03</pdfrwt>
<pdfrwt beam="2">  1       -4 0.52511828E-02 0.12499889E+03</pdfrwt>
<totfact> 0.99591245E+03</totfact>
</mgrwt>
</event>
<event>
 5    1  0.3183609E-002  0.1250072E+03  0.7818608E-02  0.1235058E+00
          4   -1    0    0  501    0  0.00000000000E+00  0.00000000000E+00  0.83005896864E+01  0.83971834052E+01  0.12700000000E+01 0. -1.
         -4   -1    0    0    0  501 -0.00000000000E+00 -0.00000000000E+00 -0.46783321175E+03  0.46783493554E+03  0.12700000000E+01 0. -1.
         25    2    1    2    0    0  0.00000000000E+00  0.00000000000E+00 -0.45953262206E+03  0.47623211895E+03  0.12500720131E+03 0.  0.
    9000005    1    3    3    0    0  0.47863172181E+02 -0.36866069383E+02 -0.29068594885E+03  0.29689949677E+03  0.10000000000E+01 0.  0.
    9000005    1    3    3    0    0 -0.47863172181E+02  0.36866069383E+02 -0.16884667321E+03  0.17933262218E+03  0.10000000000E+01 0.  0.
<mgrwt>
<rscale>  0 0.12500720E+03</rscale>
<asrwt>0</asrwt>
<pdfrwt beam="1">  1        4 0.12845771E-02 0.12500720E+03</pdfrwt>
<pdfrwt beam="2">  1       -4 0.71981882E-01 0.12500720E+03</pdfrwt>
<totfact> 0.57747657E+03</totfact>
</mgrwt>
</event>
<event>
 5    1  0.3183609E-002  0.1250017E+03  0.7818608E-02  0.1235067E+00
         -4   -1    0    0    0  501 -0.00000000000E+00  0.00000000000E+00  0.70495034470E+01  0.71629881230E+01  0.12700000000E+01 0.  1.
          4   -1    0    0  501    0  0.00000000000E+00 -0.00000000000E+00 -0.54959350593E+03  0.54959497328E+03  0.12700000000E+01 0.  1.
         25    2    1    2    0    0  0.00000000000E+00  0.00000000000E+00 -0.54254400248E+03  0.55675796141E+03  0.12500173183E+03 0.  0.
    9000005    1    3    3    0    0 -0.51743455250E+01 -0.32474285128E+02 -0.50796376810E+03  0.50902803729E+03  0.10000000000E+01 0.  0.
    9000005    1    3    3    0    0  0.51743455250E+01  0.32474285128E+02 -0.34580234381E+02  0.47729924115E+02  0.10000000000E+01 0.  0.
<mgrwt>
<rscale>  0 0.12500173E+03</rscale>
<asrwt>0</asrwt>
<pdfrwt beam="2">  1        4 0.84561656E-01 0.12500173E+03</pdfrwt>
<pdfrwt beam="1">  1       -4 0.10933819E-02 0.12500173E+03</pdfrwt>
<totfact> 0.51714168E+03</totfact>
</mgrwt>
</event>
<event>
 5    1  0.3183609E-002  0.1249996E+03  0.7818608E-02  0.1235070E+00
          4   -1    0    0  501    0  0.00000000000E+00  0.00000000000E+00  0.98785050780E+01  0.99598073563E+01  0.12700000000E+01 0.  1.
         -4   -1    0    0    0  501 -0.00000000000E+00 -0.00000000000E+00 -0.39372366796E+03  0.39372571622E+03  0.12700000000E+01 0.  1.
         25    2    1    2    0    0  0.00000000000E+00  0.00000000000E+00 -0.38384516288E+03  0.40368552358E+03  0.12499957150E+03 0.  0.
    9000005    1    3    3    0    0  0.22881758080E+02  0.57731678012E+02 -0.21446013654E+03  0.22327263976E+03  0.10000000000E+01 0.  0.
    9000005    1    3    3    0    0 -0.22881758080E+02 -0.57731678012E+02 -0.16938502634E+03  0.18041288382E+03  0.10000000000E+01 0.  0.
<mgrwt>
<rscale>  0 0.12499957E+03</rscale>
<asrwt>0</asrwt>
<pdfrwt beam="1">  1        4 0.15261819E-02 0.12499957E+03</pdfrwt>
<pdfrwt beam="2">  1       -4 0.60579271E-01 0.12499957E+03</pdfrwt>
<totfact> 0.64196524E+03</totfact>
</mgrwt>
</event>
<event>
 5    1  0.3183609E-002  0.1249987E+03  0.7818608E-02  0.1235071E+00
          4   -1    0    0  501    0  0.00000000000E+00  0.00000000000E+00  0.78975065460E+02  0.78985276251E+02  0.12700000000E+01 0. -1.
         -4   -1    0    0    0  501 -0.00000000000E+00 -0.00000000000E+00 -0.49439248083E+02  0.49455557332E+02  0.12700000000E+01 0. -1.
         25    2    1    2    0    0  0.00000000000E+00  0.00000000000E+00  0.29535817377E+02  0.12844083358E+03  0.12499873289E+03 0.  0.
    9000005    1    3    3    0    0  0.21470471518E+02  0.45063308155E+02  0.53399585134E+02  0.73104025754E+02  0.10000000000E+01 0.  0.
    9000005    1    3    3    0    0 -0.21470471518E+02 -0.45063308155E+02 -0.23863767757E+02  0.55336807828E+02  0.10000000000E+01 0.  0.
<mgrwt>
<rscale>  0 0.12499873E+03</rscale>
<asrwt>0</asrwt>
<pdfrwt beam="1">  1        4 0.12152050E-01 0.12499873E+03</pdfrwt>
<pdfrwt beam="2">  1       -4 0.76080782E-02 0.12499873E+03</pdfrwt>
<totfact> 0.10378275E+04</totfact>
</mgrwt>
</event>
<event>
 5    1  0.3183609E-002  0.1250033E+03  0.7818608E-02  0.1235064E+00
         -4   -1    0    0    0  501 -0.00000000000E+00  0.00000000000E+00  0.10590833646E+02  0.10666707895E+02  0.12700000000E+01 0.  1.
          4   -1    0    0  501    0  0.00000000000E+00 -0.00000000000E+00 -0.36745881949E+03  0.36746101415E+03  0.12700000000E+01 0.  1.
         25    2    1    2    0    0  0.00000000000E+00  0.00000000000E+00 -0.35686798585E+03  0.37812772205E+03  0.12500325940E+03 0.  0.
    9000005    1    3    3    0    0 -0.28512393133E+02  0.30254049617E+02 -0.37289053970E+02  0.55854611505E+02  0.10000000000E+01 0.  0.
    9000005    1    3    3    0    0  0.28512393133E+02 -0.30254049617E+02 -0.31957893188E+03  0.32227311054E+03  0.10000000000E+01 0.  0.
<mgrwt>
<rscale>  0 0.12500326E+03</rscale>
<asrwt>0</asrwt>
<pdfrwt beam="2">  1        4 0.56538122E-01 0.12500326E+03</pdfrwt>
<pdfrwt beam="1">  1       -4 0.16353646E-02 0.12500326E+03</pdfrwt>
<totfact> 0.66732309E+03</totfact>
</mgrwt>
</event>
<event>
 5    1  0.3183609E-002  0.1250013E+03  0.7818608E-02  0.1235067E+00
         -4   -1    0    0    0  501 -0.00000000000E+00  0.00000000000E+00  0.32068592731E+02  0.32093730537E+02  0.12700000000E+01 0.  1.
          4   -1    0    0  501    0  0.00000000000E+00 -0.00000000000E+00 -0.12173551060E+03  0.12174213502E+03  0.12700000000E+01 0.  1.
         25    2    1    2    0    0  0.00000000000E+00  0.00000000000E+00 -0.89666917866E+02  0.15383586556E+03  0.12500126949E+03 0.  0.
    9000005    1    3    3    0    0 -0.14552980820E+01  0.37944805584E+02 -0.10591513207E+03  0.11252084858E+03  0.10000000000E+01 0.  0.
    9000005    1    3    3    0    0  0.14552980820E+01 -0.37944805584E+02  0.16248214206E+02  0.41315016982E+02  0.10000000000E+01 0.  0.
<mgrwt>
<rscale>  0 0.12500127E+03</rscale>
<asrwt>0</asrwt>
<pdfrwt beam="2">  1        4 0.18730983E-01 0.12500127E+03</pdfrwt>
<pdfrwt beam="1">  1       -4 0.49360730E-02 0.12500127E+03</pdfrwt>
<totfact> 0.98541684E+03</totfact>
</mgrwt>
</event>
<event>
 5    1  0.3183609E-002  0.1249979E+03  0.7818608E-02  0.1235073E+00
         -4   -1    0    0    0  501 -0.00000000000E+00  0.00000000000E+00  0.31332253416E+02  0.31357981506E+02  0.12700000000E+01 0.  1.
          4   -1    0    0  501    0  0.00000000000E+00 -0.00000000000E+00 -0.12458758264E+03  0.12459405543E+03  0.12700000000E+01 0.  1.
         25    2    1    2    0    0  0.00000000000E+00  0.00000000000E+00 -0.93255329229E+02  0.15595203694E+03  0.12499792557E+03 0.  0.
    9000005    1    3    3    0    0 -0.30488909975E+02 -0.47343108097E+02 -0.80433259608E+02  0.98190899613E+02  0.10000000000E+01 0.  0.
    9000005    1    3    3    0    0  0.30488909975E+02  0.47343108097E+02 -0.12822069621E+02  0.57761137325E+02  0.10000000000E+01 0.  0.
<mgrwt>
<rscale>  0 0.12499793E+03</rscale>
<asrwt>0</asrwt>
<pdfrwt beam="2">  1        4 0.19169797E-01 0.12499793E+03</pdfrwt>
<pdfrwt beam="1">  1       -4 0.48228237E-02 0.12499793E+03</pdfrwt>
<totfact> 0.98133504E+03</totfact>
</mgrwt>
</event>
<event>
 5    1  0.3183609E-002  0.1249927E+03  0.7818608E-02  0.1235081E+00
          4   -1    0    0  501    0  0.00000000000E+00  0.00000000000E+00  0.12215773443E+04  0.12215780044E+04  0.12700000000E+01 0. -1.
         -4   -1    0    0    0  501 -0.00000000000E+00 -0.00000000000E+00 -0.30705365703E+01  0.33228142935E+01  0.12700000000E+01 0. -1.
         25    2    1    2    0    0  0.00000000000E+00  0.00000000000E+00  0.12185068077E+04  0.12249008187E+04  0.12499270109E+03 0.  0.
    9000005    1    3    3    0    0  0.59179022190E+02  0.11140287320E+01  0.41291608859E+03  0.41713797951E+03  0.10000000000E+01 0.  0.
    9000005    1    3    3    0    0 -0.59179022190E+02 -0.11140287320E+01  0.80559071910E+03  0.80776283922E+03  0.10000000000E+01 0.  0.
<mgrwt>
<rscale>  0 0.12499270E+03</rscale>
<asrwt>0</asrwt>
<pdfrwt beam="1">  1        4 0.18795466E+00 0.12499270E+03</pdfrwt>
<pdfrwt beam="2">  1       -4 0.49184641E-03 0.12499270E+03</pdfrwt>
<totfact> 0.24073922E+03</totfact>
</mgrwt>
</event>
<event>
 5    1  0.3183609E-002  0.1249990E+03  0.7818608E-02  0.1235071E+00
         -4   -1    0    0    0  501 -0.00000000000E+00  0.00000000000E+00  0.33146843410E+03  0.33147086706E+03  0.12700000000E+01 0.  1.
          4   -1    0    0  501    0  0.00000000000E+00 -0.00000000000E+00 -0.11747789797E+02  0.11816237350E+02  0.12700000000E+01 0.  1.
         25    2    1    2    0    0  0.00000000000E+00  0.00000000000E+00  0.31972064431E+03  0.34328710441E+03  0.12499898262E+03 0.  0.
    9000005    1    3    3    0    0 -0.22221437667E+02 -0.22555211827E+02  0.30782186001E+03  0.30944761652E+03  0.10000000000E+01 0.  0.
    9000005    1    3    3    0    0  0.22221437667E+02  0.22555211827E+02  0.11898784300E+02  0.33839487886E+02  0.10000000000E+01 0.  0.
<mgrwt>
<rscale>  0 0.12499898E+03</rscale>
<asrwt>0</asrwt>
<pdfrwt beam="2">  1        4 0.18128047E-02 0.12499898E+03</pdfrwt>
<pdfrwt beam="1">  1       -4 0.51000595E-01 0.12499898E+03</pdfrwt>
<totfact> 0.70471011E+03</totfact>
</mgrwt>
</event>
<event>
 5    1  0.3183609E-002  0.1250007E+03  0.7818608E-02  0.1235068E+00
         -4   -1    0    0    0  501 -0.00000000000E+00  0.00000000000E+00  0.46839902639E+01  0.48531087761E+01  0.12700000000E+01 0.  1.
          4   -1    0    0  501    0  0.00000000000E+00 -0.00000000000E+00 -0.81900868967E+03  0.81900967434E+03  0.12700000000E+01 0.  1.
         25    2    1    2    0    0  0.00000000000E+00  0.00000000000E+00 -0.81432469941E+03  0.82386278311E+03  0.12500067733E+03 0.  0.
    9000005    1    3    3    0    0 -0.62071223310E+02  0.23325032958E+01 -0.45235426335E+03  0.45660010612E+03  0.10000000000E+01 0.  0.
    9000005    1    3    3    0    0  0.62071223310E+02 -0.23325032958E+01 -0.36197043606E+03  0.36726267700E+03  0.10000000000E+01 0.  0.
<mgrwt>
<rscale>  0 0.12500068E+03</rscale>
<asrwt>0</asrwt>
<pdfrwt beam="2">  1        4 0.12601431E+00 0.12500068E+03</pdfrwt>
<pdfrwt beam="1">  1       -4 0.73369940E-03 0.12500068E+03</pdfrwt>
<totfact> 0.37220851E+03</totfact>
</mgrwt>
</event>
<event>
 5    1  0.3183609E-002  0.1249998E+03  0.7818608E-02  0.1235070E+00
          4   -1    0    0  501    0  0.00000000000E+00  0.00000000000E+00  0.40245978613E+02  0.40266011654E+02  0.12700000000E+01 0. -1.
         -4   -1    0    0    0  501 -0.00000000000E+00 -0.00000000000E+00 -0.97010775369E+02  0.97019088007E+02  0.12700000000E+01 0. -1.
         25    2    1    2    0    0  0.00000000000E+00  0.00000000000E+00 -0.56764796756E+02  0.13728509966E+03  0.12499982575E+03 0.  0.
    9000005    1    3    3    0    0 -0.61428986329E+02 -0.64010725233E+00 -0.15797165369E+02  0.63438793592E+02  0.10000000000E+01 0.  0.
    9000005    1    3    3    0    0  0.61428986329E+02  0.64010725233E+00 -0.40967631387E+02  0.73846306070E+02  0.10000000000E+01 0.  0.
<mgrwt>
<rscale>  0 0.12499983E+03</rscale>
<asrwt>0</asrwt>
<pdfrwt beam="1">  1        4 0.61938695E-02 0.12499983E+03</pdfrwt>
<pdfrwt beam="2">  1       -4 0.14926915E-01 0.12499983E+03</pdfrwt>
<totfact> 0.10190168E+04</totfact>
</mgrwt>
</event>
<event>
 5    1  0.3183609E-002  0.1249927E+03  0.7818608E-02  0.1235081E+00
         -4   -1    0    0    0  501 -0.00000000000E+00  0.00000000000E+00  0.24554353037E+02  0.24587174564E+02  0.12700000000E+01 0. -1.
          4   -1    0    0  501    0  0.00000000000E+00 -0.00000000000E+00 -0.15892564033E+03  0.15893071464E+03  0.12700000000E+01 0. -1.
         25    2    1    2    0    0  0.00000000000E+00  0.00000000000E+00 -0.13437128730E+03  0.18351788920E+03  0.12499269102E+03 0.  0.
    9000005    1    3    3    0    0 -0.26483089332E+02  0.47906325456E+02 -0.22933135909E+02  0.59357381696E+02  0.10000000000E+01 0.  0.
    9000005    1    3    3    0    0  0.26483089332E+02 -0.47906325456E+02 -0.11143815139E+03  0.12416050750E+03  0.10000000000E+01 0.  0.
<mgrwt>
<rscale>  0 0.12499269E+03</rscale>
<asrwt>0</asrwt>
<pdfrwt beam="2">  1        4 0.24453013E-01 0.12499269E+03</pdfrwt>
<pdfrwt beam="1">  1       -4 0.37805079E-02 0.12499269E+03</pdfrwt>
<totfact> 0.93002813E+03</totfact>
</mgrwt>
</event>
<event>
 5    1  0.3183609E-002  0.1249993E+03  0.7818608E-02  0.1235070E+00
          4   -1    0    0  501    0  0.00000000000E+00  0.00000000000E+00  0.39397257188E+03  0.39397461885E+03  0.12700000000E+01 0. -1.
         -4   -1    0    0    0  501 -0.00000000000E+00 -0.00000000000E+00 -0.98721719074E+01  0.99535259165E+01  0.12700000000E+01 0. -1.
         25    2    1    2    0    0  0.00000000000E+00  0.00000000000E+00  0.38410039997E+03  0.40392814476E+03  0.12499931548E+03 0.  0.
    9000005    1    3    3    0    0  0.12915044598E+02 -0.17845029913E+02  0.38102645202E+03  0.38166398914E+03  0.10000000000E+01 0.  0.
    9000005    1    3    3    0    0 -0.12915044598E+02  0.17845029913E+02  0.30739479570E+01  0.22264155623E+02  0.10000000000E+01 0.  0.
<mgrwt>
<rscale>  0 0.12499932E+03</rscale>
<asrwt>0</asrwt>
<pdfrwt beam="1">  1        4 0.60617571E-01 0.12499932E+03</pdfrwt>
<pdfrwt beam="2">  1       -4 0.15252114E-02 0.12499932E+03</pdfrwt>
<totfact> 0.64173501E+03</totfact>
</mgrwt>
</event>
<event>
 5    1  0.3183609E-002  0.1249992E+03  0.7818608E-02  0.1235070E+00
          4   -1    0    0  501    0  0.00000000000E+00  0.00000000000E+00  0.20748188039E+02  0.20787020154E+02  0.12700000000E+01 0. -1.
         -4   -1    0    0    0  501 -0.00000000000E+00 -0.00000000000E+00 -0.18805018590E+03  0.18805447434E+03  0.12700000000E+01 0. -1.
         25    2    1    2    0    0  0.00000000000E+00  0.00000000000E+00 -0.16730199786E+03  0.20884149449E+03  0.12499924533E+03 0.  0.
    9000005    1    3    3    0    0  0.28285179944E+02 -0.31753340510E+02 -0.71449351445E+01  0.43132077810E+02  0.10000000000E+01 0.  0.
    9000005    1    3    3    0    0 -0.28285179944E+02  0.31753340510E+02 -0.16015706272E+03  0.16570941668E+03  0.10000000000E+01 0.  0.
<mgrwt>
<rscale>  0 0.12499925E+03</rscale>
<asrwt>0</asrwt>
<pdfrwt beam="1">  1        4 0.31953460E-02 0.12499925E+03</pdfrwt>
<pdfrwt beam="2">  1       -4 0.28934114E-01 0.12499925E+03</pdfrwt>
<totfact> 0.88666927E+03</totfact>
</mgrwt>
</event>
<event>
 5    1  0.3183609E-002  0.1249992E+03  0.7818608E-02  0.1235070E+00
         -4   -1    0    0    0  501 -0.00000000000E+00  0.00000000000E+00  0.25540344567E+02  0.25571900606E+02  0.12700000000E+01 0.  1.
          4   -1    0    0  501    0  0.00000000000E+00 -0.00000000000E+00 -0.15281378167E+03  0.15281905892E+03  0.12700000000E+01 0.  1.
         25    2    1    2    0    0  0.00000000000E+00  0.00000000000E+00 -0.12727343711E+03  0.17839095953E+03  0.12499922659E+03 0.  0.
    9000005    1    3    3    0    0  0.41019399257E+02 -0.46283931223E+02 -0.76433944560E+02  0.98325689857E+02  0.10000000000E+01 0.  0.
    9000005    1    3    3    0    0 -0.41019399257E+02  0.46283931223E+02 -0.50839492546E+02  0.80065269669E+02  0.10000000000E+01 0.  0.
<mgrwt>
<rscale>  0 0.12499923E+03</rscale>
<asrwt>0</asrwt>
<pdfrwt beam="2">  1        4 0.23512645E-01 0.12499923E+03</pdfrwt>
<pdfrwt beam="1">  1       -4 0.39321172E-02 0.12499923E+03</pdfrwt>
<totfact> 0.93909069E+03</totfact>
</mgrwt>
</event>
<event>
 5    1  0.3183609E-002  0.1250058E+03  0.7818608E-02  0.1235060E+00
          4   -1    0    0  501    0  0.00000000000E+00  0.00000000000E+00  0.13126566732E+02  0.13187860106E+02  0.12700000000E+01 0.  1.
         -4   -1    0    0    0  501 -0.00000000000E+00 -0.00000000000E+00 -0.29685504577E+03  0.29685776240E+03  0.12700000000E+01 0.  1.
         25    2    1    2    0    0  0.00000000000E+00  0.00000000000E+00 -0.28372847904E+03  0.31004562251E+03  0.12500575275E+03 0.  0.
    9000005    1    3    3    0    0  0.75384010531E+01  0.42298207686E+02 -0.29302278069E+02  0.52015280100E+02  0.10000000000E+01 0.  0.
    9000005    1    3    3    0    0 -0.75384010531E+01 -0.42298207686E+02 -0.25442620097E+03  0.25803034241E+03  0.10000000000E+01 0.  0.
<mgrwt>
<rscale>  0 0.12500575E+03</rscale>
<asrwt>0</asrwt>
<pdfrwt beam="1">  1        4 0.20243959E-02 0.12500575E+03</pdfrwt>
<pdfrwt beam="2">  1       -4 0.45674926E-01 0.12500575E+03</pdfrwt>
<totfact> 0.74346281E+03</totfact>
</mgrwt>
</event>
<event>
 5    1  0.3183609E-002  0.1250012E+03  0.7818608E-02  0.1235067E+00
          4   -1    0    0  501    0  0.00000000000E+00  0.00000000000E+00  0.13606749731E+03  0.13607342402E+03  0.12700000000E+01 0.  1.
         -4   -1    0    0    0  501 -0.00000000000E+00 -0.00000000000E+00 -0.28688111600E+02  0.28716208788E+02  0.12700000000E+01 0.  1.
         25    2    1    2    0    0  0.00000000000E+00  0.00000000000E+00  0.10737938571E+03  0.16478963281E+03  0.12500116242E+03 0.  0.
    9000005    1    3    3    0    0 -0.17289409428E+02  0.53772160594E+02  0.88939342023E+02  0.10536401422E+03  0.10000000000E+01 0.  0.
    9000005    1    3    3    0    0  0.17289409428E+02 -0.53772160594E+02  0.18440043689E+02  0.59425618588E+02  0.10000000000E+01 0.  0.
<mgrwt>
<rscale>  0 0.12500116E+03</rscale>
<asrwt>0</asrwt>
<pdfrwt beam="1">  1        4 0.20936078E-01 0.12500116E+03</pdfrwt>
<pdfrwt beam="2">  1       -4 0.44161729E-02 0.12500116E+03</pdfrwt>
<totfact> 0.96424729E+03</totfact>
</mgrwt>
</event>
<event>
 5    1  0.3183609E-002  0.1249997E+03  0.7818608E-02  0.1235070E+00
         -4   -1    0    0    0  501 -0.00000000000E+00  0.00000000000E+00  0.18938979711E+03  0.18939405521E+03  0.12700000000E+01 0.  1.
          4   -1    0    0  501    0  0.00000000000E+00 -0.00000000000E+00 -0.20601324042E+02  0.20640432464E+02  0.12700000000E+01 0.  1.
         25    2    1    2    0    0  0.00000000000E+00  0.00000000000E+00  0.16878847307E+03  0.21003448768E+03  0.12499974949E+03 0.  0.
    9000005    1    3    3    0    0 -0.73287190844E+00 -0.89234066977E+01  0.18831472176E+03  0.18853010030E+03  0.10000000000E+01 0.  0.
    9000005    1    3    3    0    0  0.73287190844E+00  0.89234066977E+01 -0.19526248692E+02  0.21504387374E+02  0.10000000000E+01 0.  0.
<mgrwt>
<rscale>  0 0.12499975E+03</rscale>
<asrwt>0</asrwt>
<pdfrwt beam="2">  1        4 0.31727704E-02 0.12499975E+03</pdfrwt>
<pdfrwt beam="1">  1       -4 0.29140228E-01 0.12499975E+03</pdfrwt>
<totfact> 0.88470744E+03</totfact>
</mgrwt>
</event>
<event>
 5    1  0.3183609E-002  0.1249992E+03  0.7818608E-02  0.1235071E+00
          4   -1    0    0  501    0  0.00000000000E+00  0.00000000000E+00  0.33279465969E+02  0.33303689813E+02  0.12700000000E+01 0. -1.
         -4   -1    0    0    0  501 -0.00000000000E+00 -0.00000000000E+00 -0.11730525998E+03  0.11731213458E+03  0.12700000000E+01 0. -1.
         25    2    1    2    0    0  0.00000000000E+00  0.00000000000E+00 -0.84025794016E+02  0.15061582439E+03  0.12499916999E+03 0.  0.
    9000005    1    3    3    0    0  0.50890319195E+02  0.14653225941E+02 -0.20378137836E+01  0.53006549626E+02  0.10000000000E+01 0.  0.
    9000005    1    3    3    0    0 -0.50890319195E+02 -0.14653225941E+02 -0.81987980232E+02  0.97609274768E+02  0.10000000000E+01 0.  0.
<mgrwt>
<rscale>  0 0.12499917E+03</rscale>
<asrwt>0</asrwt>
<pdfrwt beam="1">  1        4 0.51223101E-02 0.12499917E+03</pdfrwt>
<pdfrwt beam="2">  1       -4 0.18049355E-01 0.12499917E+03</pdfrwt>
<totfact> 0.99182937E+03</totfact>
</mgrwt>
</event>
<event>
 4    1  0.3183609E-002  0.1249100E+03  0.7818608E-02  0.1235210E+00
          4   -1    0    0  501    0  0.00000000000E+00  0.00000000000E+00  0.12511498017E+03  0.12512142567E+03  0.12700000000E+01 0. -1.
         -4   -1    0    0    0  501 -0.00000000000E+00 -0.00000000000E+00 -0.31156137498E+02  0.31182010901E+02  0.12700000000E+01 0. -1.
    9000005    1    1    2    0    0 -0.57088462659E+02 -0.75089641049E+01  0.77222977107E+02  0.96332057509E+02  0.10000000000E+01 0.  0.
    9000005    1    1    2    0    0  0.57088462659E+02  0.75089641049E+01  0.16735865561E+02  0.59971379063E+02  0.10000000000E+01 0.  0.
<mgrwt>
<rscale>  0 0.12490997E+03</rscale>
<asrwt>0</asrwt>
<pdfrwt beam="1">  1        4 0.19250944E-01 0.12490997E+03</pdfrwt>
<pdfrwt beam="2">  1       -4 0.47957381E-02 0.12490997E+03</pdfrwt>
<totfact> 0.98259012E+03</totfact>
</mgrwt>
</event>
<event>
 5    1  0.3183609E-002  0.1250027E+03  0.7818608E-02  0.1235065E+00
          4   -1    0    0  501    0  0.00000000000E+00  0.00000000000E+00  0.13995519051E+02  0.14053022931E+02  0.12700000000E+01 0. -1.
         -4   -1    0    0    0  501 -0.00000000000E+00 -0.00000000000E+00 -0.27848802801E+03  0.27849092381E+03  0.12700000000E+01 0. -1.
         25    2    1    2    0    0  0.00000000000E+00  0.00000000000E+00 -0.26449250896E+03  0.29254394675E+03  0.12500269389E+03 0.  0.
    9000005    1    3    3    0    0 -0.39491117155E+02 -0.31612450950E+02 -0.46368905639E+02  0.68629227006E+02  0.10000000000E+01 0.  0.
    9000005    1    3    3    0    0  0.39491117155E+02  0.31612450950E+02 -0.21812360332E+03  0.22391471974E+03  0.10000000000E+01 0.  0.
<mgrwt>
<rscale>  0 0.12500269E+03</rscale>
<asrwt>0</asrwt>
<pdfrwt beam="1">  1        4 0.21578031E-02 0.12500269E+03</pdfrwt>
<pdfrwt beam="2">  1       -4 0.42848954E-01 0.12500269E+03</pdfrwt>
<totfact> 0.76539155E+03</totfact>
</mgrwt>
</event>
<event>
 5    1  0.3183609E-002  0.1249988E+03  0.7818608E-02  0.1235071E+00
          4   -1    0    0  501    0  0.00000000000E+00  0.00000000000E+00  0.11901905724E+04  0.11901912500E+04  0.12700000000E+01 0.  1.
         -4   -1    0    0    0  501 -0.00000000000E+00 -0.00000000000E+00 -0.31584076112E+01  0.34041795838E+01  0.12700000000E+01 0.  1.
         25    2    1    2    0    0  0.00000000000E+00  0.00000000000E+00  0.11870321648E+04  0.11935954296E+04  0.12499875693E+03 0.  0.
    9000005    1    3    3    0    0 -0.32037989262E+02 -0.24299192451E+02  0.10502958618E+04  0.10510657833E+04  0.10000000000E+01 0.  0.
    9000005    1    3    3    0    0  0.32037989262E+02  0.24299192451E+02  0.13673630304E+03  0.14252964631E+03  0.10000000000E+01 0.  0.
<mgrwt>
<rscale>  0 0.12499876E+03</rscale>
<asrwt>0</asrwt>
<pdfrwt beam="1">  1        4 0.18312520E+00 0.12499876E+03</pdfrwt>
<pdfrwt beam="2">  1       -4 0.50486652E-03 0.12499876E+03</pdfrwt>
<totfact> 0.24881678E+03</totfact>
</mgrwt>
</event>
<event>
 5    1  0.3183609E-002  0.1250017E+03  0.7818608E-02  0.1235067E+00
          4   -1    0    0  501    0  0.00000000000E+00  0.00000000000E+00  0.64501034653E+02  0.64513536342E+02  0.12700000000E+01 0.  1.
         -4   -1    0    0    0  501 -0.00000000000E+00 -0.00000000000E+00 -0.60537707597E+02  0.60551027581E+02  0.12700000000E+01 0.  1.
         25    2    1    2    0    0  0.00000000000E+00  0.00000000000E+00  0.39633270559E+01  0.12506456392E+03  0.12500174874E+03 0.  0.
    9000005    1    3    3    0    0 -0.26715904229E+02 -0.51361578845E+02  0.25522362509E+02  0.63278292552E+02  0.10000000000E+01 0.  0.
    9000005    1    3    3    0    0  0.26715904229E+02  0.51361578845E+02 -0.21559035453E+02  0.61786271371E+02  0.10000000000E+01 0.  0.
<mgrwt>
<rscale>  0 0.12500175E+03</rscale>
<asrwt>0</asrwt>
<pdfrwt beam="1">  1        4 0.99252224E-02 0.12500175E+03</pdfrwt>
<pdfrwt beam="2">  1       -4 0.93154797E-02 0.12500175E+03</pdfrwt>
<totfact> 0.10451047E+04</totfact>
</mgrwt>
</event>
<event>
 5    1  0.3183609E-002  0.1249972E+03  0.7818608E-02  0.1235074E+00
          4   -1    0    0  501    0  0.00000000000E+00  0.00000000000E+00  0.18615207292E+03  0.18615640508E+03  0.12700000000E+01 0. -1.
         -4   -1    0    0    0  501 -0.00000000000E+00 -0.00000000000E+00 -0.20959451592E+02  0.20997893014E+02  0.12700000000E+01 0. -1.
         25    2    1    2    0    0  0.00000000000E+00  0.00000000000E+00  0.16519262133E+03  0.20715429810E+03  0.12499720428E+03 0.  0.
    9000005    1    3    3    0    0  0.42666665335E+02  0.40354610510E+01  0.15796747836E+03  0.16368095031E+03  0.10000000000E+01 0.  0.
    9000005    1    3    3    0    0 -0.42666665335E+02 -0.40354610510E+01  0.72251429755E+01  0.43473347786E+02  0.10000000000E+01 0.  0.
<mgrwt>
<rscale>  0 0.12499720E+03</rscale>
<asrwt>0</asrwt>
<pdfrwt beam="1">  1        4 0.28642070E-01 0.12499720E+03</pdfrwt>
<pdfrwt beam="2">  1       -4 0.32278213E-02 0.12499720E+03</pdfrwt>
<totfact> 0.88948301E+03</totfact>
</mgrwt>
</event>
<event>
 5    1  0.3183609E-002  0.1250021E+03  0.7818608E-02  0.1235066E+00
          4   -1    0    0  501    0  0.00000000000E+00  0.00000000000E+00  0.76128863676E+02  0.76139456162E+02  0.12700000000E+01 0. -1.
         -4   -1    0    0    0  501 -0.00000000000E+00 -0.00000000000E+00 -0.51290687543E+02  0.51306408261E+02  0.12700000000E+01 0. -1.
         25    2    1    2    0    0  0.00000000000E+00  0.00000000000E+00  0.24838176133E+02  0.12744586442E+03  0.12500205344E+03 0.  0.
    9000005    1    3    3    0    0 -0.23670970603E+02 -0.54697732533E+02  0.31580706796E+02  0.67457377916E+02  0.10000000000E+01 0.  0.
    9000005    1    3    3    0    0  0.23670970603E+02  0.54697732533E+02 -0.67425306626E+01  0.59988486506E+02  0.10000000000E+01 0.  0.
<mgrwt>
<rscale>  0 0.12500205E+03</rscale>
<asrwt>0</asrwt>
<pdfrwt beam="1">  1        4 0.11714157E-01 0.12500205E+03</pdfrwt>
<pdfrwt beam="2">  1       -4 0.78928992E-02 0.12500205E+03</pdfrwt>
<totfact> 0.10398991E+04</totfact>
</mgrwt>
</event>
<event>
 5    1  0.3183609E-002  0.1249999E+03  0.7818608E-02  0.1235069E+00
          4   -1    0    0  501    0  0.00000000000E+00  0.00000000000E+00  0.23409417978E+03  0.23409762473E+03  0.12700000000E+01 0. -1.
         -4   -1    0    0    0  501 -0.00000000000E+00 -0.00000000000E+00 -0.16658889813E+02  0.16707229267E+02  0.12700000000E+01 0. -1.
         25    2    1    2    0    0  0.00000000000E+00  0.00000000000E+00  0.21743528996E+03  0.25080485400E+03  0.12499987787E+03 0.  0.
    9000005    1    3    3    0    0  0.51745758173E+02 -0.24702999419E+02  0.58863316324E+02  0.82181212438E+02  0.10000000000E+01 0.  0.
    9000005    1    3    3    0    0 -0.51745758173E+02  0.24702999419E+02  0.15857197364E+03  0.16862364156E+03  0.10000000000E+01 0.  0.
<mgrwt>
<rscale>  0 0.12499988E+03</rscale>
<asrwt>0</asrwt>
<pdfrwt beam="1">  1        4 0.36018474E-01 0.12499988E+03</pdfrwt>
<pdfrwt beam="2">  1       -4 0.25668894E-02 0.12499988E+03</pdfrwt>
<totfact> 0.82214262E+03</totfact>
</mgrwt>
</event>
<event>
 5    1  0.3183609E-002  0.1250290E+03  0.7818608E-02  0.1235024E+00
         -4   -1    0    0    0  501 -0.00000000000E+00  0.00000000000E+00  0.17879158048E+03  0.17879609098E+03  0.12700000000E+01 0. -1.
          4   -1    0    0  501    0  0.00000000000E+00 -0.00000000000E+00 -0.21834956369E+02  0.21871859080E+02  0.12700000000E+01 0. -1.
         25    2    1    2    0    0  0.00000000000E+00  0.00000000000E+00  0.15695662411E+03  0.20066795006E+03  0.12502897396E+03 0.  0.
    9000005    1    3    3    0    0  0.50970434428E+02 -0.32544661908E+02  0.10385112489E+03  0.12017985000E+03  0.10000000000E+01 0.  0.
    9000005    1    3    3    0    0 -0.50970434428E+02  0.32544661908E+02  0.53105499219E+02  0.80488100063E+02  0.10000000000E+01 0.  0.
<mgrwt>
<rscale>  0 0.12502897E+03</rscale>
<asrwt>0</asrwt>
<pdfrwt beam="2">  1        4 0.33624097E-02 0.12502897E+03</pdfrwt>
<pdfrwt beam="1">  1       -4 0.27509583E-01 0.12502897E+03</pdfrwt>
<totfact> 0.89964634E+03</totfact>
</mgrwt>
</event>
<event>
 5    1  0.3183609E-002  0.1250031E+03  0.7818608E-02  0.1235064E+00
          4   -1    0    0  501    0  0.00000000000E+00  0.00000000000E+00  0.52609709424E+02  0.52625036111E+02  0.12700000000E+01 0.  1.
         -4   -1    0    0    0  501 -0.00000000000E+00 -0.00000000000E+00 -0.74221750143E+02  0.74232614761E+02  0.12700000000E+01 0.  1.
         25    2    1    2    0    0  0.00000000000E+00  0.00000000000E+00 -0.21612040719E+02  0.12685765087E+03  0.12500313308E+03 0.  0.
    9000005    1    3    3    0    0  0.47608930067E+02  0.39363310035E+02 -0.20399596346E+02  0.65063230247E+02  0.10000000000E+01 0.  0.
    9000005    1    3    3    0    0 -0.47608930067E+02 -0.39363310035E+02 -0.12124443729E+01  0.61794420625E+02  0.10000000000E+01 0.  0.
<mgrwt>
<rscale>  0 0.12500313E+03</rscale>
<asrwt>0</asrwt>
<pdfrwt beam="1">  1        4 0.80958161E-02 0.12500313E+03</pdfrwt>
<pdfrwt beam="2">  1       -4 0.11420746E-01 0.12500313E+03</pdfrwt>
<totfact> 0.10411503E+04</totfact>
</mgrwt>
</event>
<event>
 5    1  0.3183609E-002  0.1249995E+03  0.7818608E-02  0.1235070E+00
          4   -1    0    0  501    0  0.00000000000E+00  0.00000000000E+00  0.77191738883E+02  0.77202185537E+02  0.12700000000E+01 0.  1.
         -4   -1    0    0    0  501 -0.00000000000E+00 -0.00000000000E+00 -0.50582285224E+02  0.50598226041E+02  0.12700000000E+01 0.  1.
         25    2    1    2    0    0  0.00000000000E+00  0.00000000000E+00  0.26609453659E+02  0.12780041158E+03  0.12499952870E+03 0.  0.
    9000005    1    3    3    0    0  0.51882348883E+02 -0.18935782976E+02 -0.16588726268E+02  0.57676059520E+02  0.10000000000E+01 0.  0.
    9000005    1    3    3    0    0 -0.51882348883E+02  0.18935782976E+02  0.43198179927E+02  0.70124352058E+02  0.10000000000E+01 0.  0.
<mgrwt>
<rscale>  0 0.12499953E+03</rscale>
<asrwt>0</asrwt>
<pdfrwt beam="1">  1        4 0.11877682E-01 0.12499953E+03</pdfrwt>
<pdfrwt beam="2">  1       -4 0.77839199E-02 0.12499953E+03</pdfrwt>
<totfact> 0.10391911E+04</totfact>
</mgrwt>
</event>
<event>
 5    1  0.3183609E-002  0.1250168E+03  0.7818608E-02  0.1235043E+00
         -4   -1    0    0    0  501 -0.00000000000E+00  0.00000000000E+00  0.46461771440E+02  0.46479125479E+02  0.12700000000E+01 0.  1.
          4   -1    0    0  501    0  0.00000000000E+00 -0.00000000000E+00 -0.84059296458E+02  0.84068889734E+02  0.12700000000E+01 0.  1.
         25    2    1    2    0    0  0.00000000000E+00  0.00000000000E+00 -0.37597525019E+02  0.13054801521E+03  0.12501684042E+03 0.  0.
    9000005    1    3    3    0    0 -0.24727670748E+02  0.55904799098E+02 -0.52035978455E+01  0.61358631775E+02  0.10000000000E+01 0.  0.
    9000005    1    3    3    0    0  0.24727670748E+02 -0.55904799098E+02 -0.32393927173E+02  0.69189383438E+02  0.10000000000E+01 0.  0.
<mgrwt>
<rscale>  0 0.12501684E+03</rscale>
<asrwt>0</asrwt>
<pdfrwt beam="2">  1        4 0.12934272E-01 0.12501684E+03</pdfrwt>
<pdfrwt beam="1">  1       -4 0.71500378E-02 0.12501684E+03</pdfrwt>
<totfact> 0.10328864E+04</totfact>
</mgrwt>
</event>
<event>
 5    1  0.3183609E-002  0.1250041E+03  0.7818608E-02  0.1235063E+00
          4   -1    0    0  501    0  0.00000000000E+00  0.00000000000E+00  0.14412043946E+02  0.14467892407E+02  0.12700000000E+01 0.  1.
         -4   -1    0    0    0  501 -0.00000000000E+00 -0.00000000000E+00 -0.27047700186E+03  0.27047998343E+03  0.12700000000E+01 0.  1.
         25    2    1    2    0    0  0.00000000000E+00  0.00000000000E+00 -0.25606495792E+03  0.28494787584E+03  0.12500411702E+03 0.  0.
    9000005    1    3    3    0    0  0.60236103380E+02  0.16553794621E+02 -0.12402478822E+03  0.13887247517E+03  0.10000000000E+01 0.  0.
    9000005    1    3    3    0    0 -0.60236103380E+02 -0.16553794621E+02 -0.13204016970E+03  0.14607540067E+03  0.10000000000E+01 0.  0.
<mgrwt>
<rscale>  0 0.12500412E+03</rscale>
<asrwt>0</asrwt>
<pdfrwt beam="1">  1        4 0.22217631E-02 0.12500412E+03</pdfrwt>
<pdfrwt beam="2">  1       -4 0.41616368E-01 0.12500412E+03</pdfrwt>
<totfact> 0.77519504E+03</totfact>
</mgrwt>
</event>
<event>
 5    1  0.3183609E-002  0.1250000E+03  0.7818608E-02  0.1235069E+00
          4   -1    0    0  501    0  0.00000000000E+00  0.00000000000E+00  0.43988597517E+01  0.45785223724E+01  0.12700000000E+01 0.  1.
         -4   -1    0    0    0  501 -0.00000000000E+00 -0.00000000000E+00 -0.87006226443E+03  0.87006319132E+03  0.12700000000E+01 0.  1.
         25    2    1    2    0    0  0.00000000000E+00  0.00000000000E+00 -0.86566340468E+03  0.87464171369E+03  0.12499998851E+03 0.  0.
    9000005    1    3    3    0    0 -0.53386596373E+01 -0.87743876876E+01 -0.86415030401E+03  0.86421191793E+03  0.10000000000E+01 0.  0.
    9000005    1    3    3    0    0  0.53386596373E+01  0.87743876876E+01 -0.15131006679E+01  0.10429795762E+02  0.10000000000E+01 0.  0.
<mgrwt>
<rscale>  0 0.12499999E+03</rscale>
<asrwt>0</asrwt>
<pdfrwt beam="1">  1        4 0.69063985E-03 0.12499999E+03</pdfrwt>
<pdfrwt beam="2">  1       -4 0.13386949E+00 0.12499999E+03</pdfrwt>
<totfact> 0.35139674E+03</totfact>
</mgrwt>
</event>
<event>
 5    1  0.3183609E-002  0.1250010E+03  0.7818608E-02  0.1235068E+00
         -4   -1    0    0    0  501 -0.00000000000E+00  0.00000000000E+00  0.17968668213E+02  0.18013493202E+02  0.12700000000E+01 0.  1.
          4   -1    0    0  501    0  0.00000000000E+00 -0.00000000000E+00 -0.21707811602E+03  0.21708183101E+03  0.12700000000E+01 0.  1.
         25    2    1    2    0    0  0.00000000000E+00  0.00000000000E+00 -0.19910944780E+03  0.23509532421E+03  0.12500095704E+03 0.  0.
    9000005    1    3    3    0    0  0.45426769030E+02  0.39158176093E+02 -0.13258077549E+03  0.14551843913E+03  0.10000000000E+01 0.  0.
    9000005    1    3    3    0    0 -0.45426769030E+02 -0.39158176093E+02 -0.66528672319E+02  0.89576885076E+02  0.10000000000E+01 0.  0.
<mgrwt>
<rscale>  0 0.12500096E+03</rscale>
<asrwt>0</asrwt>
<pdfrwt beam="2">  1        4 0.33400365E-01 0.12500096E+03</pdfrwt>
<pdfrwt beam="1">  1       -4 0.27681445E-02 0.12500096E+03</pdfrwt>
<totfact> 0.84531493E+03</totfact>
</mgrwt>
</event>
<event>
 5    1  0.3183609E-002  0.1250000E+03  0.7818608E-02  0.1235069E+00
          4   -1    0    0  501    0  0.00000000000E+00  0.00000000000E+00  0.56985711245E+02  0.56999861281E+02  0.12700000000E+01 0.  1.
         -4   -1    0    0    0  501 -0.00000000000E+00 -0.00000000000E+00 -0.68519292583E+02  0.68531061250E+02  0.12700000000E+01 0.  1.
         25    2    1    2    0    0  0.00000000000E+00  0.00000000000E+00 -0.11533581339E+02  0.12553092253E+03  0.12499995605E+03 0.  0.
    9000005    1    3    3    0    0  0.42906772203E+02 -0.18909523863E+01 -0.51354333648E+02  0.66953972147E+02  0.10000000000E+01 0.  0.
    9000005    1    3    3    0    0 -0.42906772203E+02  0.18909523863E+01  0.39820752309E+02  0.58576950384E+02  0.10000000000E+01 0.  0.
<mgrwt>
<rscale>  0 0.12499996E+03</rscale>
<asrwt>0</asrwt>
<pdfrwt beam="1">  1        4 0.87690262E-02 0.12499996E+03</pdfrwt>
<pdfrwt beam="2">  1       -4 0.10543423E-01 0.12499996E+03</pdfrwt>
<totfact> 0.10441281E+04</totfact>
</mgrwt>
</event>
<event>
 5    1  0.3183609E-002  0.1249980E+03  0.7818608E-02  0.1235072E+00
         -4   -1    0    0    0  501 -0.00000000000E+00  0.00000000000E+00  0.82146682226E+03  0.82146780397E+03  0.12700000000E+01 0.  1.
          4   -1    0    0  501    0  0.00000000000E+00 -0.00000000000E+00 -0.46692609039E+01  0.48388942321E+01  0.12700000000E+01 0.  1.
         25    2    1    2    0    0  0.00000000000E+00  0.00000000000E+00  0.81679756135E+03  0.82630669821E+03  0.12499801307E+03 0.  0.
    9000005    1    3    3    0    0  0.63872017328E+01 -0.46276880159E+02  0.13401840057E+03  0.14193053820E+03  0.10000000000E+01 0.  0.
    9000005    1    3    3    0    0 -0.63872017328E+01  0.46276880159E+02  0.68277916079E+03  0.68437616001E+03  0.10000000000E+01 0.  0.
<mgrwt>
<rscale>  0 0.12499801E+03</rscale>
<asrwt>0</asrwt>
<pdfrwt beam="2">  1        4 0.73147216E-03 0.12499801E+03</pdfrwt>
<pdfrwt beam="1">  1       -4 0.12639262E+00 0.12499801E+03</pdfrwt>
<totfact> 0.37118569E+03</totfact>
</mgrwt>
</event>
<event>
 5    1  0.3183609E-002  0.1249997E+03  0.7818608E-02  0.1235070E+00
          4   -1    0    0  501    0  0.00000000000E+00  0.00000000000E+00  0.14359662431E+02  0.14415713827E+02  0.12700000000E+01 0.  1.
         -4   -1    0    0    0  501 -0.00000000000E+00 -0.00000000000E+00 -0.27144082675E+03  0.27144379774E+03  0.12700000000E+01 0.  1.
         25    2    1    2    0    0  0.00000000000E+00  0.00000000000E+00 -0.25708116432E+03  0.28585951156E+03  0.12499974120E+03 0.  0.
    9000005    1    3    3    0    0 -0.36885739114E+02 -0.48051185784E+02 -0.93426748716E+02  0.11135093884E+03  0.10000000000E+01 0.  0.
    9000005    1    3    3    0    0  0.36885739114E+02  0.48051185784E+02 -0.16365441561E+03  0.17450857272E+03  0.10000000000E+01 0.  0.
<mgrwt>
<rscale>  0 0.12499974E+03</rscale>
<asrwt>0</asrwt>
<pdfrwt beam="1">  1        4 0.22137192E-02 0.12499974E+03</pdfrwt>
<pdfrwt beam="2">  1       -4 0.41764664E-01 0.12499974E+03</pdfrwt>
<totfact> 0.77407983E+03</totfact>
</mgrwt>
</event>
<event>
 5    1  0.3183609E-002  0.1249982E+03  0.7818608E-02  0.1235072E+00
          4   -1    0    0  501    0  0.00000000000E+00  0.00000000000E+00  0.82275930847E+02  0.82285732036E+02  0.12700000000E+01 0.  1.
         -4   -1    0    0    0  501 -0.00000000000E+00 -0.00000000000E+00 -0.47454952156E+02  0.47471943126E+02  0.12700000000E+01 0.  1.
         25    2    1    2    0    0  0.00000000000E+00  0.00000000000E+00  0.34820978691E+02  0.12975767516E+03  0.12499821481E+03 0.  0.
    9000005    1    3    3    0    0  0.79718962519E+01 -0.17838619581E+01  0.81724360450E+02  0.82137715967E+02  0.10000000000E+01 0.  0.
    9000005    1    3    3    0    0 -0.79718962519E+01  0.17838619581E+01 -0.46903381759E+02  0.47619959195E+02  0.10000000000E+01 0.  0.
<mgrwt>
<rscale>  0 0.12499821E+03</rscale>
<asrwt>0</asrwt>
<pdfrwt beam="1">  1        4 0.12659896E-01 0.12499821E+03</pdfrwt>
<pdfrwt beam="2">  1       -4 0.73028230E-02 0.12499821E+03</pdfrwt>
<totfact> 0.10350111E+04</totfact>
</mgrwt>
</event>
<event>
 5    1  0.3183609E-002  0.1250025E+03  0.7818608E-02  0.1235065E+00
          4   -1    0    0  501    0  0.00000000000E+00  0.00000000000E+00  0.81387383334E+03  0.81387482422E+03  0.12700000000E+01 0.  1.
         -4   -1    0    0    0  501 -0.00000000000E+00 -0.00000000000E+00 -0.47147517756E+01  0.48828049629E+01  0.12700000000E+01 0.  1.
         25    2    1    2    0    0  0.00000000000E+00  0.00000000000E+00  0.80915908157E+03  0.81875762918E+03  0.12500254423E+03 0.  0.
    9000005    1    3    3    0    0  0.57365158701E+02 -0.23294268024E+02  0.34899204408E+03  0.35444298721E+03  0.10000000000E+01 0.  0.
    9000005    1    3    3    0    0 -0.57365158701E+02  0.23294268024E+02  0.46016703749E+03  0.46431464197E+03  0.10000000000E+01 0.  0.
<mgrwt>
<rscale>  0 0.12500254E+03</rscale>
<asrwt>0</asrwt>
<pdfrwt beam="1">  1        4 0.12522438E+00 0.12500254E+03</pdfrwt>
<pdfrwt beam="2">  1       -4 0.73834969E-03 0.12500254E+03</pdfrwt>
<totfact> 0.37438845E+03</totfact>
</mgrwt>
</event>
<event>
 5    1  0.3183609E-002  0.1250012E+03  0.7818608E-02  0.1235067E+00
         -4   -1    0    0    0  501 -0.00000000000E+00  0.00000000000E+00  0.44452274832E+02  0.44470413061E+02  0.12700000000E+01 0. -1.
          4   -1    0    0  501    0  0.00000000000E+00 -0.00000000000E+00 -0.87836166861E+02  0.87845347679E+02  0.12700000000E+01 0. -1.
         25    2    1    2    0    0  0.00000000000E+00  0.00000000000E+00 -0.43383892028E+02  0.13231576074E+03  0.12500119380E+03 0.  0.
    9000005    1    3    3    0    0 -0.13156238238E+02  0.60071977660E+02 -0.33459840392E+02  0.70016355401E+02  0.10000000000E+01 0.  0.
    9000005    1    3    3    0    0  0.13156238238E+02 -0.60071977660E+02 -0.99240516361E+01  0.62299405338E+02  0.10000000000E+01 0.  0.
<mgrwt>
<rscale>  0 0.12500119E+03</rscale>
<asrwt>0</asrwt>
<pdfrwt beam="2">  1        4 0.13515358E-01 0.12500119E+03</pdfrwt>
<pdfrwt beam="1">  1       -4 0.68409130E-02 0.12500119E+03</pdfrwt>
<totfact> 0.10294686E+04</totfact>
</mgrwt>
</event>
<event>
 5    1  0.3183609E-002  0.1250036E+03  0.7818608E-02  0.1235064E+00
         -4   -1    0    0    0  501 -0.00000000000E+00  0.00000000000E+00  0.42605004778E+03  0.42605194063E+03  0.12700000000E+01 0.  1.
          4   -1    0    0  501    0  0.00000000000E+00 -0.00000000000E+00 -0.91231528375E+01  0.92111246706E+01  0.12700000000E+01 0.  1.
         25    2    1    2    0    0  0.00000000000E+00  0.00000000000E+00  0.41692689495E+03  0.43526306530E+03  0.12500360110E+03 0.  0.
    9000005    1    3    3    0    0  0.15419422562E+02  0.43768904564E+01  0.41878801137E+03  0.41909582941E+03  0.10000000000E+01 0.  0.
    9000005    1    3    3    0    0 -0.15419422562E+02 -0.43768904564E+01 -0.18611164189E+01  0.16167235897E+02  0.10000000000E+01 0.  0.
<mgrwt>
<rscale>  0 0.12500360E+03</rscale>
<asrwt>0</asrwt>
<pdfrwt beam="2">  1        4 0.14104747E-02 0.12500360E+03</pdfrwt>
<pdfrwt beam="1">  1       -4 0.65553069E-01 0.12500360E+03</pdfrwt>
<totfact> 0.61256945E+03</totfact>
</mgrwt>
</event>
<event>
 5    1  0.3183609E-002  0.1250014E+03  0.7818608E-02  0.1235067E+00
          4   -1    0    0  501    0  0.00000000000E+00  0.00000000000E+00  0.13345548809E+01  0.18422640229E+01  0.12700000000E+01 0. -1.
         -4   -1    0    0    0  501 -0.00000000000E+00 -0.00000000000E+00 -0.24587674374E+04  0.24587677654E+04  0.12700000000E+01 0. -1.
         25    2    1    2    0    0  0.00000000000E+00  0.00000000000E+00 -0.24574328825E+04  0.24606100294E+04  0.12500137903E+03 0.  0.
    9000005    1    3    3    0    0  0.13489609195E+02  0.57004550638E+02 -0.16572130985E+04  0.16582483958E+04  0.10000000000E+01 0.  0.
    9000005    1    3    3    0    0 -0.13489609195E+02 -0.57004550638E+02 -0.80021978403E+03  0.80236163362E+03  0.10000000000E+01 0.  0.
<mgrwt>
<rscale>  0 0.12500138E+03</rscale>
<asrwt>0</asrwt>
<pdfrwt beam="1">  1        4 0.24439788E-03 0.12500138E+03</pdfrwt>
<pdfrwt beam="2">  1       -4 0.37830795E+00 0.12500138E+03</pdfrwt>
<totfact> 0.49862721E+02</totfact>
</mgrwt>
</event>
<event>
 5    1  0.3183609E-002  0.1249864E+03  0.7818608E-02  0.1235090E+00
          4   -1    0    0  501    0  0.00000000000E+00  0.00000000000E+00  0.40827515980E+03  0.40827713506E+03  0.12700000000E+01 0.  1.
         -4   -1    0    0    0  501 -0.00000000000E+00 -0.00000000000E+00 -0.95214542932E+01  0.96057790864E+01  0.12700000000E+01 0.  1.
         25    2    1    2    0    0  0.00000000000E+00  0.00000000000E+00  0.39875370551E+03  0.41788291414E+03  0.12498644837E+03 0.  0.
    9000005    1    3    3    0    0  0.19204975054E+02  0.43815782562E+02  0.33377047588E+03  0.33718301327E+03  0.10000000000E+01 0.  0.
    9000005    1    3    3    0    0 -0.19204975054E+02 -0.43815782562E+02  0.64983229630E+02  0.80699900876E+02  0.10000000000E+01 0.  0.
<mgrwt>
<rscale>  0 0.12498645E+03</rscale>
<asrwt>0</asrwt>
<pdfrwt beam="1">  1        4 0.62818204E-01 0.12498645E+03</pdfrwt>
<pdfrwt beam="2">  1       -4 0.14714775E-02 0.12498645E+03</pdfrwt>
<totfact> 0.62868691E+03</totfact>
</mgrwt>
</event>
<event>
 5    1  0.3183609E-002  0.1249760E+03  0.7818608E-02  0.1235107E+00
          4   -1    0    0  501    0  0.00000000000E+00  0.00000000000E+00  0.11593633886E+02  0.11662986182E+02  0.12700000000E+01 0.  1.
         -4   -1    0    0    0  501 -0.00000000000E+00 -0.00000000000E+00 -0.33572648528E+03  0.33572888738E+03  0.12700000000E+01 0.  1.
         25    2    1    2    0    0  0.00000000000E+00  0.00000000000E+00 -0.32413285140E+03  0.34739187356E+03  0.12497603155E+03 0.  0.
    9000005    1    3    3    0    0 -0.28660605884E+01  0.82354951185E+01 -0.33404038485E+03  0.33415567689E+03  0.10000000000E+01 0.  0.
    9000005    1    3    3    0    0  0.28660605884E+01 -0.82354951185E+01  0.99075334571E+01  0.13236196672E+02  0.10000000000E+01 0.  0.
<mgrwt>
<rscale>  0 0.12497603E+03</rscale>
<asrwt>0</asrwt>
<pdfrwt beam="1">  1        4 0.17891558E-02 0.12497603E+03</pdfrwt>
<pdfrwt beam="2">  1       -4 0.51655741E-01 0.12497603E+03</pdfrwt>
<totfact> 0.70049596E+03</totfact>
</mgrwt>
</event>
<event>
 5    1  0.3183609E-002  0.1249967E+03  0.7818608E-02  0.1235075E+00
          4   -1    0    0  501    0  0.00000000000E+00  0.00000000000E+00  0.38463532621E+01  0.40505966742E+01  0.12700000000E+01 0.  1.
         -4   -1    0    0    0  501 -0.00000000000E+00 -0.00000000000E+00 -0.98904845143E+03  0.98904926681E+03  0.12700000000E+01 0.  1.
         25    2    1    2    0    0  0.00000000000E+00  0.00000000000E+00 -0.98520209817E+03  0.99309986349E+03  0.12499665842E+03 0.  0.
    9000005    1    3    3    0    0 -0.57081066235E+02  0.20824212318E+02 -0.37660790759E+03  0.38147924190E+03  0.10000000000E+01 0.  0.
    9000005    1    3    3    0    0  0.57081066235E+02 -0.20824212318E+02 -0.60859419058E+03  0.61162062159E+03  0.10000000000E+01 0.  0.
<mgrwt>
<rscale>  0 0.12499666E+03</rscale>
<asrwt>0</asrwt>
<pdfrwt beam="1">  1        4 0.60752120E-03 0.12499666E+03</pdfrwt>
<pdfrwt beam="2">  1       -4 0.15217688E+00 0.12499666E+03</pdfrwt>
<totfact> 0.30835699E+03</totfact>
</mgrwt>
</event>
<event>
 5    1  0.3183609E-002  0.1250015E+03  0.7818608E-02  0.1235067E+00
          4   -1    0    0  501    0  0.00000000000E+00  0.00000000000E+00  0.22577845185E+02  0.22613535619E+02  0.12700000000E+01 0. -1.
         -4   -1    0    0    0  501 -0.00000000000E+00 -0.00000000000E+00 -0.17284190426E+03  0.17284657002E+03  0.12700000000E+01 0. -1.
         25    2    1    2    0    0  0.00000000000E+00  0.00000000000E+00 -0.15026405907E+03  0.19546010564E+03  0.12500146178E+03 0.  0.
    9000005    1    3    3    0    0  0.58896392547E+02  0.38032790779E+00 -0.42466386724E+02  0.72617654229E+02  0.10000000000E+01 0.  0.
    9000005    1    3    3    0    0 -0.58896392547E+02 -0.38032790779E+00 -0.10779767235E+03  0.12284245141E+03  0.10000000000E+01 0.  0.
<mgrwt>
<rscale>  0 0.12500146E+03</rscale>
<asrwt>0</asrwt>
<pdfrwt beam="1">  1        4 0.34766191E-02 0.12500146E+03</pdfrwt>
<pdfrwt beam="2">  1       -4 0.26594166E-01 0.12500146E+03</pdfrwt>
<totfact> 0.90902883E+03</totfact>
</mgrwt>
</event>
<event>
 5    1  0.3183609E-002  0.1250012E+03  0.7818608E-02  0.1235067E+00
          4   -1    0    0  501    0  0.00000000000E+00  0.00000000000E+00  0.34439645284E+02  0.34463053656E+02  0.12700000000E+01 0.  1.
         -4   -1    0    0    0  501 -0.00000000000E+00 -0.00000000000E+00 -0.11335968151E+03  0.11336679537E+03  0.12700000000E+01 0.  1.
         25    2    1    2    0    0  0.00000000000E+00  0.00000000000E+00 -0.78920036226E+02  0.14782984902E+03  0.12500116857E+03 0.  0.
    9000005    1    3    3    0    0  0.58698069337E+02 -0.26276370952E+00 -0.14101251488E+02  0.60376963174E+02  0.10000000000E+01 0.  0.
    9000005    1    3    3    0    0 -0.58698069337E+02  0.26276370952E+00 -0.64818784738E+02  0.87452885850E+02  0.10000000000E+01 0.  0.
<mgrwt>
<rscale>  0 0.12500117E+03</rscale>
<asrwt>0</asrwt>
<pdfrwt beam="1">  1        4 0.53007549E-02 0.12500117E+03</pdfrwt>
<pdfrwt beam="2">  1       -4 0.17442299E-01 0.12500117E+03</pdfrwt>
<totfact> 0.99735433E+03</totfact>
</mgrwt>
</event>
<event>
 5    1  0.3183609E-002  0.1249738E+03  0.7818608E-02  0.1235110E+00
         -4   -1    0    0    0  501 -0.00000000000E+00  0.00000000000E+00  0.58732279947E+02  0.58746009293E+02  0.12700000000E+01 0.  1.
          4   -1    0    0  501    0  0.00000000000E+00 -0.00000000000E+00 -0.66453978197E+02  0.66466112555E+02  0.12700000000E+01 0.  1.
         25    2    1    2    0    0  0.00000000000E+00  0.00000000000E+00 -0.77216982495E+01  0.12521212185E+03  0.12497380059E+03 0.  0.
    9000005    1    3    3    0    0 -0.61582743370E+01  0.59265036877E+02  0.14972437532E+02  0.61444632186E+02  0.10000000000E+01 0.  0.
    9000005    1    3    3    0    0  0.61582743370E+01 -0.59265036877E+02 -0.22694135781E+02  0.63767489661E+02  0.10000000000E+01 0.  0.
<mgrwt>
<rscale>  0 0.12497380E+03</rscale>
<asrwt>0</asrwt>
<pdfrwt beam="2">  1        4 0.10225678E-01 0.12497380E+03</pdfrwt>
<pdfrwt beam="1">  1       -4 0.90377249E-02 0.12497380E+03</pdfrwt>
<totfact> 0.10454446E+04</totfact>
</mgrwt>
</event>
<event>
 5    1  0.3183609E-002  0.1249763E+03  0.7818608E-02  0.1235106E+00
          4   -1    0    0  501    0  0.00000000000E+00  0.00000000000E+00  0.69348872230E+03  0.69348988519E+03  0.12700000000E+01 0.  1.
         -4   -1    0    0    0  501 -0.00000000000E+00 -0.00000000000E+00 -0.55578248060E+01  0.57010802989E+01  0.12700000000E+01 0.  1.
         25    2    1    2    0    0  0.00000000000E+00  0.00000000000E+00  0.68793089750E+03  0.69919096549E+03  0.12497634372E+03 0.  0.
    9000005    1    3    3    0    0  0.77331262118E+01  0.45958400338E+02  0.11114756537E+03  0.12052699735E+03  0.10000000000E+01 0.  0.
    9000005    1    3    3    0    0 -0.77331262118E+01 -0.45958400338E+02  0.57678333213E+03  0.57866396814E+03  0.10000000000E+01 0.  0.
<mgrwt>
<rscale>  0 0.12497634E+03</rscale>
<asrwt>0</asrwt>
<pdfrwt beam="1">  1        4 0.10670163E+00 0.12497634E+03</pdfrwt>
<pdfrwt beam="2">  1       -4 0.86615947E-03 0.12497634E+03</pdfrwt>
<totfact> 0.43151778E+03</totfact>
</mgrwt>
</event>
<event>
 5    1  0.3183609E-002  0.1250028E+03  0.7818608E-02  0.1235065E+00
          4   -1    0    0  501    0  0.00000000000E+00  0.00000000000E+00  0.49881280608E+01  0.51472635012E+01  0.12700000000E+01 0. -1.
         -4   -1    0    0    0  501 -0.00000000000E+00 -0.00000000000E+00 -0.77068905850E+03  0.77069010490E+03  0.12700000000E+01 0. -1.
         25    2    1    2    0    0  0.00000000000E+00  0.00000000000E+00 -0.76570093044E+03  0.77583736840E+03  0.12500282930E+03 0.  0.
    9000005    1    3    3    0    0  0.91047920102E+01 -0.51314714433E+02 -0.16880699721E+03  0.17667172797E+03  0.10000000000E+01 0.  0.
    9000005    1    3    3    0    0 -0.91047920102E+01  0.51314714433E+02 -0.59689393322E+03  0.59916564043E+03  0.10000000000E+01 0.  0.
<mgrwt>
<rscale>  0 0.12500283E+03</rscale>
<asrwt>0</asrwt>
<pdfrwt beam="1">  1        4 0.77972661E-03 0.12500283E+03</pdfrwt>
<pdfrwt beam="2">  1       -4 0.11857978E+00 0.12500283E+03</pdfrwt>
<totfact> 0.39364011E+03</totfact>
</mgrwt>
</event>
<event>
 5    1  0.3183609E-002  0.1250028E+03  0.7818608E-02  0.1235065E+00
         -4   -1    0    0    0  501 -0.00000000000E+00  0.00000000000E+00  0.62949305093E+02  0.62962114892E+02  0.12700000000E+01 0.  1.
          4   -1    0    0  501    0  0.00000000000E+00 -0.00000000000E+00 -0.62031028402E+02  0.62044027792E+02  0.12700000000E+01 0.  1.
         25    2    1    2    0    0  0.00000000000E+00  0.00000000000E+00  0.91827669008E+00  0.12500614268E+03  0.12500276988E+03 0.  0.
    9000005    1    3    3    0    0  0.34221364602E+01 -0.62399325996E+02  0.64944972190E+00  0.62504469341E+02  0.10000000000E+01 0.  0.
    9000005    1    3    3    0    0 -0.34221364602E+01  0.62399325996E+02  0.26882696818E+00  0.62501673343E+02  0.10000000000E+01 0.  0.
<mgrwt>
<rscale>  0 0.12500277E+03</rscale>
<asrwt>0</asrwt>
<pdfrwt beam="2">  1        4 0.95452205E-02 0.12500277E+03</pdfrwt>
<pdfrwt beam="1">  1       -4 0.96864938E-02 0.12500277E+03</pdfrwt>
<totfact> 0.10452075E+04</totfact>
</mgrwt>
</event>
<event>
 5    1  0.3183609E-002  0.1249879E+03  0.7818608E-02  0.1235088E+00
         -4   -1    0    0    0  501 -0.00000000000E+00  0.00000000000E+00  0.85887621628E+01  0.86821503955E+01  0.12700000000E+01 0. -1.
          4   -1    0    0  501    0  0.00000000000E+00 -0.00000000000E+00 -0.45216859202E+03  0.45217037553E+03  0.12700000000E+01 0. -1.
         25    2    1    2    0    0  0.00000000000E+00  0.00000000000E+00 -0.44357982986E+03  0.46085252593E+03  0.12498794021E+03 0.  0.
    9000005    1    3    3    0    0  0.10906681240E+02  0.61411118646E+02 -0.23569164918E+03  0.24380696193E+03  0.10000000000E+01 0.  0.
    9000005    1    3    3    0    0 -0.10906681240E+02 -0.61411118646E+02 -0.20788818068E+03  0.21704556400E+03  0.10000000000E+01 0.  0.
<mgrwt>
<rscale>  0 0.12498794E+03</rscale>
<asrwt>0</asrwt>
<pdfrwt beam="2">  1        4 0.69571701E-01 0.12498794E+03</pdfrwt>
<pdfrwt beam="1">  1       -4 0.13286693E-02 0.12498794E+03</pdfrwt>
<totfact> 0.59050724E+03</totfact>
</mgrwt>
</event>
<event>
 5    1  0.3183609E-002  0.1250003E+03  0.7818608E-02  0.1235069E+00
         -4   -1    0    0    0  501 -0.00000000000E+00  0.00000000000E+00  0.13388231435E+03  0.13388833779E+03  0.12700000000E+01 0.  1.
          4   -1    0    0  501    0  0.00000000000E+00 -0.00000000000E+00 -0.29156374676E+02  0.29184021043E+02  0.12700000000E+01 0.  1.
         25    2    1    2    0    0  0.00000000000E+00  0.00000000000E+00  0.10472593967E+03  0.16307235883E+03  0.12500028710E+03 0.  0.
    9000005    1    3    3    0    0  0.20917832247E+02  0.58886079171E+02  0.51871510842E+02  0.81220561825E+02  0.10000000000E+01 0.  0.
    9000005    1    3    3    0    0 -0.20917832247E+02 -0.58886079171E+02  0.52854428828E+02  0.81851797004E+02  0.10000000000E+01 0.  0.
<mgrwt>
<rscale>  0 0.12500029E+03</rscale>
<asrwt>0</asrwt>
<pdfrwt beam="2">  1        4 0.44881861E-02 0.12500029E+03</pdfrwt>
<pdfrwt beam="1">  1       -4 0.20599869E-01 0.12500029E+03</pdfrwt>
<totfact> 0.96753083E+03</totfact>
</mgrwt>
</event>
<event>
 5    1  0.3183609E-002  0.1250008E+03  0.7818608E-02  0.1235068E+00
         -4   -1    0    0    0  501 -0.00000000000E+00  0.00000000000E+00  0.48872995624E+01  0.50496135508E+01  0.12700000000E+01 0. -1.
          4   -1    0    0  501    0  0.00000000000E+00 -0.00000000000E+00 -0.78605780238E+03  0.78605882832E+03  0.12700000000E+01 0. -1.
         25    2    1    2    0    0  0.00000000000E+00  0.00000000000E+00 -0.78117050281E+03  0.79110844187E+03  0.12500084931E+03 0.  0.
    9000005    1    3    3    0    0  0.22368143383E+02  0.71678299704E+01 -0.24081746329E+02  0.33654749013E+02  0.10000000000E+01 0.  0.
    9000005    1    3    3    0    0 -0.22368143383E+02 -0.71678299704E+01 -0.75708875648E+03  0.75745369285E+03  0.10000000000E+01 0.  0.
<mgrwt>
<rscale>  0 0.12500085E+03</rscale>
<asrwt>0</asrwt>
<pdfrwt beam="2">  1        4 0.12094444E+00 0.12500085E+03</pdfrwt>
<pdfrwt beam="1">  1       -4 0.76445748E-03 0.12500085E+03</pdfrwt>
<totfact> 0.38664076E+03</totfact>
</mgrwt>
</event>
<event>
 5    1  0.3183609E-002  0.1249963E+03  0.7818608E-02  0.1235075E+00
          4   -1    0    0  501    0  0.00000000000E+00  0.00000000000E+00  0.66006146074E+01  0.67216823188E+01  0.12700000000E+01 0. -1.
         -4   -1    0    0    0  501 -0.00000000000E+00 -0.00000000000E+00 -0.58626602849E+03  0.58626740406E+03  0.12700000000E+01 0. -1.
         25    2    1    2    0    0  0.00000000000E+00  0.00000000000E+00 -0.57966541388E+03  0.59298908638E+03  0.12499625799E+03 0.  0.
    9000005    1    3    3    0    0  0.39365250877E+01  0.51572928672E+02 -0.45619642624E+03  0.45912029199E+03  0.10000000000E+01 0.  0.
    9000005    1    3    3    0    0 -0.39365250877E+01 -0.51572928672E+02 -0.12346898764E+03  0.13386879439E+03  0.10000000000E+01 0.  0.
<mgrwt>
<rscale>  0 0.12499626E+03</rscale>
<asrwt>0</asrwt>
<pdfrwt beam="1">  1        4 0.10248983E-02 0.12499626E+03</pdfrwt>
<pdfrwt beam="2">  1       -4 0.90204152E-01 0.12499626E+03</pdfrwt>
<totfact> 0.49317235E+03</totfact>
</mgrwt>
</event>
<event>
 5    1  0.3183609E-002  0.1249984E+03  0.7818608E-02  0.1235072E+00
         -4   -1    0    0    0  501 -0.00000000000E+00  0.00000000000E+00  0.42533117424E+02  0.42552073719E+02  0.12700000000E+01 0.  1.
          4   -1    0    0  501    0  0.00000000000E+00 -0.00000000000E+00 -0.91794016449E+02  0.91802801460E+02  0.12700000000E+01 0.  1.
         25    2    1    2    0    0  0.00000000000E+00  0.00000000000E+00 -0.49260899025E+02  0.13435487518E+03  0.12499838524E+03 0.  0.
    9000005    1    3    3    0    0 -0.53226597888E+02  0.31422489743E+02 -0.34522921191E+02  0.70804489067E+02  0.10000000000E+01 0.  0.
    9000005    1    3    3    0    0  0.53226597888E+02 -0.31422489743E+02 -0.14737977834E+02  0.63550386113E+02  0.10000000000E+01 0.  0.
<mgrwt>
<rscale>  0 0.12499839E+03</rscale>
<asrwt>0</asrwt>
<pdfrwt beam="2">  1        4 0.14124290E-01 0.12499839E+03</pdfrwt>
<pdfrwt beam="1">  1       -4 0.65456905E-02 0.12499839E+03</pdfrwt>
<totfact> 0.10252060E+04</totfact>
</mgrwt>
</event>
<event>
 5    1  0.3183609E-002  0.1249944E+03  0.7818608E-02  0.1235078E+00
          4   -1    0    0  501    0  0.00000000000E+00  0.00000000000E+00  0.61414615835E+02  0.61427745670E+02  0.12700000000E+01 0.  1.
         -4   -1    0    0    0  501 -0.00000000000E+00 -0.00000000000E+00 -0.63572553112E+02  0.63585237353E+02  0.12700000000E+01 0.  1.
         25    2    1    2    0    0  0.00000000000E+00  0.00000000000E+00 -0.21579372770E+01  0.12501298302E+03  0.12499435680E+03 0.  0.
    9000005    1    3    3    0    0  0.53364988800E+01 -0.49394723485E+02 -0.38986864382E+02  0.63160846438E+02  0.10000000000E+01 0.  0.
    9000005    1    3    3    0    0 -0.53364988800E+01  0.49394723485E+02  0.36828927105E+02  0.61852136585E+02  0.10000000000E+01 0.  0.
<mgrwt>
<rscale>  0 0.12499436E+03</rscale>
<asrwt>0</asrwt>
<pdfrwt beam="1">  1        4 0.94503881E-02 0.12499436E+03</pdfrwt>
<pdfrwt beam="2">  1       -4 0.97823785E-02 0.12499436E+03</pdfrwt>
<totfact> 0.10453914E+04</totfact>
</mgrwt>
</event>
<event>
 5    1  0.3183609E-002  0.1249979E+03  0.7818608E-02  0.1235073E+00
          4   -1    0    0  501    0  0.00000000000E+00  0.00000000000E+00  0.74916546516E+01  0.75985386371E+01  0.12700000000E+01 0. -1.
         -4   -1    0    0    0  501 -0.00000000000E+00 -0.00000000000E+00 -0.51759560415E+03  0.51759716222E+03  0.12700000000E+01 0. -1.
         25    2    1    2    0    0  0.00000000000E+00  0.00000000000E+00 -0.51010394950E+03  0.52519570085E+03  0.12499793959E+03 0.  0.
    9000005    1    3    3    0    0  0.27985824649E+02 -0.23134667422E+02 -0.46874557111E+03  0.47015085840E+03  0.10000000000E+01 0.  0.
    9000005    1    3    3    0    0 -0.27985824649E+02  0.23134667422E+02 -0.41358378388E+02  0.55044842455E+02  0.10000000000E+01 0.  0.
<mgrwt>
<rscale>  0 0.12499794E+03</rscale>
<asrwt>0</asrwt>
<pdfrwt beam="1">  1        4 0.11609044E-02 0.12499794E+03</pdfrwt>
<pdfrwt beam="2">  1       -4 0.79638407E-01 0.12499794E+03</pdfrwt>
<totfact> 0.53963599E+03</totfact>
</mgrwt>
</event>
<event>
 5    1  0.3183609E-002  0.1249945E+03  0.7818608E-02  0.1235078E+00
         -4   -1    0    0    0  501 -0.00000000000E+00  0.00000000000E+00  0.10685150006E+03  0.10685904719E+03  0.12700000000E+01 0.  1.
          4   -1    0    0  501    0  0.00000000000E+00 -0.00000000000E+00 -0.36534677129E+02  0.36556744015E+02  0.12700000000E+01 0.  1.
         25    2    1    2    0    0  0.00000000000E+00  0.00000000000E+00  0.70316822933E+02  0.14341579120E+03  0.12499453419E+03 0.  0.
    9000005    1    3    3    0    0 -0.35655060729E+02  0.42420384657E+02  0.68296265793E+02  0.87955399558E+02  0.10000000000E+01 0.  0.
    9000005    1    3    3    0    0  0.35655060729E+02 -0.42420384657E+02  0.20205571394E+01  0.55460391643E+02  0.10000000000E+01 0.  0.
<mgrwt>
<rscale>  0 0.12499453E+03</rscale>
<asrwt>0</asrwt>
<pdfrwt beam="2">  1        4 0.56229976E-02 0.12499453E+03</pdfrwt>
<pdfrwt beam="1">  1       -4 0.16440970E-01 0.12499453E+03</pdfrwt>
<totfact> 0.10064515E+04</totfact>
</mgrwt>
</event>
<event>
 5    1  0.3183609E-002  0.1249853E+03  0.7818608E-02  0.1235092E+00
          4   -1    0    0  501    0  0.00000000000E+00  0.00000000000E+00  0.27491939662E+03  0.27492233001E+03  0.12700000000E+01 0. -1.
         -4   -1    0    0    0  501 -0.00000000000E+00 -0.00000000000E+00 -0.14173958583E+02  0.14230741439E+02  0.12700000000E+01 0. -1.
         25    2    1    2    0    0  0.00000000000E+00  0.00000000000E+00  0.26074543804E+03  0.28915307145E+03  0.12498526022E+03 0.  0.
    9000005    1    3    3    0    0 -0.58386801780E+02  0.78530879656E+01  0.17854900108E+03  0.18801977396E+03  0.10000000000E+01 0.  0.
    9000005    1    3    3    0    0  0.58386801780E+02 -0.78530879656E+01  0.82196436955E+02  0.10113329749E+03  0.10000000000E+01 0.  0.
<mgrwt>
<rscale>  0 0.12498526E+03</rscale>
<asrwt>0</asrwt>
<pdfrwt beam="1">  1        4 0.42299887E-01 0.12498526E+03</pdfrwt>
<pdfrwt beam="2">  1       -4 0.21852025E-02 0.12498526E+03</pdfrwt>
<totfact> 0.77005128E+03</totfact>
</mgrwt>
</event>
<event>
 5    1  0.3183609E-002  0.1250101E+03  0.7818608E-02  0.1235054E+00
         -4   -1    0    0    0  501 -0.00000000000E+00  0.00000000000E+00  0.81762301074E+02  0.81772163827E+02  0.12700000000E+01 0.  1.
          4   -1    0    0  501    0  0.00000000000E+00 -0.00000000000E+00 -0.47762212850E+02  0.47779094553E+02  0.12700000000E+01 0.  1.
         25    2    1    2    0    0  0.00000000000E+00  0.00000000000E+00  0.34000088224E+02  0.12955125838E+03  0.12501008979E+03 0.  0.
    9000005    1    3    3    0    0  0.52833514233E+01 -0.34380556937E+02  0.70808683846E+02  0.78897441059E+02  0.10000000000E+01 0.  0.
    9000005    1    3    3    0    0 -0.52833514233E+01  0.34380556937E+02 -0.36808595622E+02  0.50653817321E+02  0.10000000000E+01 0.  0.
<mgrwt>
<rscale>  0 0.12501009E+03</rscale>
<asrwt>0</asrwt>
<pdfrwt beam="2">  1        4 0.73500901E-02 0.12501009E+03</pdfrwt>
<pdfrwt beam="1">  1       -4 0.12580873E-01 0.12501009E+03</pdfrwt>
<totfact> 0.10351758E+04</totfact>
</mgrwt>
</event>
<event>
 5    1  0.3183609E-002  0.1250024E+03  0.7818608E-02  0.1235066E+00
          4   -1    0    0  501    0  0.00000000000E+00  0.00000000000E+00  0.69588969573E+02  0.69600557370E+02  0.12700000000E+01 0.  1.
         -4   -1    0    0    0  501 -0.00000000000E+00 -0.00000000000E+00 -0.56111896940E+02  0.56126267275E+02  0.12700000000E+01 0.  1.
         25    2    1    2    0    0  0.00000000000E+00  0.00000000000E+00  0.13477072633E+02  0.12572682464E+03  0.12500241177E+03 0.  0.
    9000005    1    3    3    0    0 -0.67224214905E+01  0.61960249255E+02  0.11362711694E+02  0.63359092919E+02  0.10000000000E+01 0.  0.
    9000005    1    3    3    0    0  0.67224214905E+01 -0.61960249255E+02  0.21143609392E+01  0.62367731726E+02  0.10000000000E+01 0.  0.
<mgrwt>
<rscale>  0 0.12500241E+03</rscale>
<asrwt>0</asrwt>
<pdfrwt beam="1">  1        4 0.10707992E-01 0.12500241E+03</pdfrwt>
<pdfrwt beam="2">  1       -4 0.86345963E-02 0.12500241E+03</pdfrwt>
<totfact> 0.10436386E+04</totfact>
</mgrwt>
</event>
<event>
 5    1  0.3183609E-002  0.1249999E+03  0.7818608E-02  0.1235069E+00
          4   -1    0    0  501    0  0.00000000000E+00  0.00000000000E+00  0.97689025530E+01  0.98511094345E+01  0.12700000000E+01 0.  1.
         -4   -1    0    0    0  501 -0.00000000000E+00 -0.00000000000E+00 -0.39810674292E+03  0.39810876863E+03  0.12700000000E+01 0.  1.
         25    2    1    2    0    0  0.00000000000E+00  0.00000000000E+00 -0.38833784036E+03  0.40795987806E+03  0.12499993539E+03 0.  0.
    9000005    1    3    3    0    0  0.20039232180E+02 -0.25951840189E+02 -0.36779480545E+03  0.36925477350E+03  0.10000000000E+01 0.  0.
    9000005    1    3    3    0    0 -0.20039232180E+02  0.25951840189E+02 -0.20543034914E+02  0.38705104561E+02  0.10000000000E+01 0.  0.
<mgrwt>
<rscale>  0 0.12499994E+03</rscale>
<asrwt>0</asrwt>
<pdfrwt beam="1">  1        4 0.15093878E-02 0.12499994E+03</pdfrwt>
<pdfrwt beam="2">  1       -4 0.61253658E-01 0.12499994E+03</pdfrwt>
<totfact> 0.63786011E+03</totfact>
</mgrwt>
</event>
<event>
 5    1  0.3183609E-002  0.1250015E+03  0.7818608E-02  0.1235067E+00
         -4   -1    0    0    0  501 -0.00000000000E+00  0.00000000000E+00  0.37289622832E+03  0.37289839098E+03  0.12700000000E+01 0. -1.
          4   -1    0    0  501    0  0.00000000000E+00 -0.00000000000E+00 -0.10434992950E+02  0.10511992098E+02  0.12700000000E+01 0. -1.
         25    2    1    2    0    0  0.00000000000E+00  0.00000000000E+00  0.36246123537E+03  0.38341038308E+03  0.12500149882E+03 0.  0.
    9000005    1    3    3    0    0  0.44353668272E+02  0.26235673202E+02  0.72796401416E+02  0.89195708959E+02  0.10000000000E+01 0.  0.
    9000005    1    3    3    0    0 -0.44353668272E+02 -0.26235673202E+02  0.28966483396E+03  0.29421467412E+03  0.10000000000E+01 0.  0.
<mgrwt>
<rscale>  0 0.12500150E+03</rscale>
<asrwt>0</asrwt>
<pdfrwt beam="2">  1        4 0.16114730E-02 0.12500150E+03</pdfrwt>
<pdfrwt beam="1">  1       -4 0.57374738E-01 0.12500150E+03</pdfrwt>
<totfact> 0.66196710E+03</totfact>
</mgrwt>
</event>
<event>
 5    1  0.3183609E-002  0.1249935E+03  0.7818608E-02  0.1235080E+00
         -4   -1    0    0    0  501 -0.00000000000E+00  0.00000000000E+00  0.14299468838E+03  0.14300032799E+03  0.12700000000E+01 0. -1.
          4   -1    0    0  501    0  0.00000000000E+00 -0.00000000000E+00 -0.27293644771E+02  0.27323175966E+02  0.12700000000E+01 0. -1.
         25    2    1    2    0    0  0.00000000000E+00  0.00000000000E+00  0.11570104361E+03  0.17032350396E+03  0.12499345786E+03 0.  0.
    9000005    1    3    3    0    0  0.96238206907E+01  0.40157434933E+02  0.12175915263E+03  0.12857499273E+03  0.10000000000E+01 0.  0.
    9000005    1    3    3    0    0 -0.96238206907E+01 -0.40157434933E+02 -0.60581090200E+01  0.41748511230E+02  0.10000000000E+01 0.  0.
<mgrwt>
<rscale>  0 0.12499346E+03</rscale>
<asrwt>0</asrwt>
<pdfrwt beam="2">  1        4 0.42017277E-02 0.12499346E+03</pdfrwt>
<pdfrwt beam="1">  1       -4 0.22001888E-01 0.12499346E+03</pdfrwt>
<totfact> 0.95402381E+03</totfact>
</mgrwt>
</event>
<event>
 5    1  0.3183609E-002  0.1249978E+03  0.7818608E-02  0.1235073E+00
         -4   -1    0    0    0  501 -0.00000000000E+00  0.00000000000E+00  0.30644446619E+02  0.30670751679E+02  0.12700000000E+01 0. -1.
          4   -1    0    0  501    0  0.00000000000E+00 -0.00000000000E+00 -0.12738147146E+03  0.12738780229E+03  0.12700000000E+01 0. -1.
         25    2    1    2    0    0  0.00000000000E+00  0.00000000000E+00 -0.96737024845E+02  0.15805855397E+03  0.12499781801E+03 0.  0.
    9000005    1    3    3    0    0 -0.67732775487E+01  0.37877148351E+02  0.13894747984E+02  0.40922117216E+02  0.10000000000E+01 0.  0.
    9000005    1    3    3    0    0  0.67732775487E+01 -0.37877148351E+02 -0.11063177283E+03  0.11713643675E+03  0.10000000000E+01 0.  0.
<mgrwt>
<rscale>  0 0.12499782E+03</rscale>
<asrwt>0</asrwt>
<pdfrwt beam="2">  1        4 0.19599660E-01 0.12499782E+03</pdfrwt>
<pdfrwt beam="1">  1       -4 0.47170408E-02 0.12499782E+03</pdfrwt>
<totfact> 0.97723185E+03</totfact>
</mgrwt>
</event>
<event>
 5    1  0.3183609E-002  0.1250212E+03  0.7818608E-02  0.1235036E+00
          4   -1    0    0  501    0  0.00000000000E+00  0.00000000000E+00  0.49324783978E+03  0.49324947475E+03  0.12700000000E+01 0.  1.
         -4   -1    0    0    0  501 -0.00000000000E+00 -0.00000000000E+00 -0.78695715824E+01  0.79713898970E+01  0.12700000000E+01 0.  1.
         25    2    1    2    0    0  0.00000000000E+00  0.00000000000E+00  0.48537826819E+03  0.50122086465E+03  0.12502116591E+03 0.  0.
    9000005    1    3    3    0    0 -0.23154795349E+02 -0.44285627796E+02  0.39318816453E+03  0.39635248720E+03  0.10000000000E+01 0.  0.
    9000005    1    3    3    0    0  0.23154795349E+02  0.44285627796E+02  0.92190103658E+02  0.10486837745E+03  0.10000000000E+01 0.  0.
<mgrwt>
<rscale>  0 0.12502117E+03</rscale>
<asrwt>0</asrwt>
<pdfrwt beam="1">  1        4 0.75892240E-01 0.12502117E+03</pdfrwt>
<pdfrwt beam="2">  1       -4 0.12186613E-02 0.12502117E+03</pdfrwt>
<totfact> 0.55743819E+03</totfact>
</mgrwt>
</event>
<event>
 5    1  0.3183609E-002  0.1250109E+03  0.7818608E-02  0.1235052E+00
         -4   -1    0    0    0  501 -0.00000000000E+00  0.00000000000E+00  0.70463339448E+03  0.70463453898E+03  0.12700000000E+01 0.  1.
          4   -1    0    0  501    0  0.00000000000E+00 -0.00000000000E+00 -0.54707396685E+01  0.56162169225E+01  0.12700000000E+01 0.  1.
         25    2    1    2    0    0  0.00000000000E+00  0.00000000000E+00  0.69916265481E+03  0.71025075590E+03  0.12501087301E+03 0.  0.
    9000005    1    3    3    0    0  0.56389943247E+02 -0.19161047556E+02  0.24193831936E+03  0.24916284197E+03  0.10000000000E+01 0.  0.
    9000005    1    3    3    0    0 -0.56389943247E+02  0.19161047556E+02  0.45722433545E+03  0.46108791393E+03  0.10000000000E+01 0.  0.
<mgrwt>
<rscale>  0 0.12501087E+03</rscale>
<asrwt>0</asrwt>
<pdfrwt beam="2">  1        4 0.85293106E-03 0.12501087E+03</pdfrwt>
<pdfrwt beam="1">  1       -4 0.10841639E+00 0.12501087E+03</pdfrwt>
<totfact> 0.42540960E+03</totfact>
</mgrwt>
</event>
<event>
 5    1  0.3183609E-002  0.1250007E+03  0.7818608E-02  0.1235068E+00
         -4   -1    0    0    0  501 -0.00000000000E+00  0.00000000000E+00  0.12844720214E+03  0.12845348045E+03  0.12700000000E+01 0.  1.
          4   -1    0    0  501    0  0.00000000000E+00 -0.00000000000E+00 -0.30391406260E+02  0.30417930148E+02  0.12700000000E+01 0.  1.
         25    2    1    2    0    0  0.00000000000E+00  0.00000000000E+00  0.98055795883E+02  0.15887141059E+03  0.12500074399E+03 0.  0.
    9000005    1    3    3    0    0  0.20884479524E+02  0.24255624557E+02 -0.19188641556E+02  0.37332301997E+02  0.10000000000E+01 0.  0.
    9000005    1    3    3    0    0 -0.20884479524E+02 -0.24255624557E+02  0.11724443744E+03  0.12153910860E+03  0.10000000000E+01 0.  0.
<mgrwt>
<rscale>  0 0.12500074E+03</rscale>
<asrwt>0</asrwt>
<pdfrwt beam="2">  1        4 0.46781243E-02 0.12500074E+03</pdfrwt>
<pdfrwt beam="1">  1       -4 0.19763631E-01 0.12500074E+03</pdfrwt>
<totfact> 0.97559178E+03</totfact>
</mgrwt>
</event>
<event>
 5    1  0.3183609E-002  0.1250002E+03  0.7818608E-02  0.1235069E+00
         -4   -1    0    0    0  501 -0.00000000000E+00  0.00000000000E+00  0.57998332168E+02  0.58012235212E+02  0.12700000000E+01 0.  1.
          4   -1    0    0  501    0  0.00000000000E+00 -0.00000000000E+00 -0.67323315206E+02  0.67335292903E+02  0.12700000000E+01 0.  1.
         25    2    1    2    0    0  0.00000000000E+00  0.00000000000E+00 -0.93249830384E+01  0.12534752812E+03  0.12500018998E+03 0.  0.
    9000005    1    3    3    0    0 -0.35377285774E+02 -0.38750241377E+02  0.29374841721E+02  0.60141623537E+02  0.10000000000E+01 0.  0.
    9000005    1    3    3    0    0  0.35377285774E+02  0.38750241377E+02 -0.38699824760E+02  0.65205904579E+02  0.10000000000E+01 0.  0.
<mgrwt>
<rscale>  0 0.12500019E+03</rscale>
<asrwt>0</asrwt>
<pdfrwt beam="2">  1        4 0.10359424E-01 0.12500019E+03</pdfrwt>
<pdfrwt beam="1">  1       -4 0.89248112E-02 0.12500019E+03</pdfrwt>
<totfact> 0.10445274E+04</totfact>
</mgrwt>
</event>
<event>
 5    1  0.3183609E-002  0.1250004E+03  0.7818608E-02  0.1235069E+00
          4   -1    0    0  501    0  0.00000000000E+00  0.00000000000E+00  0.39584657614E+03  0.39584861342E+03  0.12700000000E+01 0. -1.
         -4   -1    0    0    0  501 -0.00000000000E+00 -0.00000000000E+00 -0.98252230325E+01  0.99069625838E+01  0.12700000000E+01 0. -1.
         25    2    1    2    0    0  0.00000000000E+00  0.00000000000E+00  0.38602135311E+03  0.40575557600E+03  0.12500040959E+03 0.  0.
    9000005    1    3    3    0    0 -0.45957541818E+02  0.39715004880E+02  0.14531514325E+03  0.15750196227E+03  0.10000000000E+01 0.  0.
    9000005    1    3    3    0    0  0.45957541818E+02 -0.39715004880E+02  0.24070620986E+03  0.24825361373E+03  0.10000000000E+01 0.  0.
<mgrwt>
<rscale>  0 0.12500041E+03</rscale>
<asrwt>0</asrwt>
<pdfrwt beam="1">  1        4 0.60905922E-01 0.12500041E+03</pdfrwt>
<pdfrwt beam="2">  1       -4 0.15180170E-02 0.12500041E+03</pdfrwt>
<totfact> 0.63996249E+03</totfact>
</mgrwt>
</event>
<event>
 5    1  0.3183609E-002  0.1250009E+03  0.7818608E-02  0.1235068E+00
          4   -1    0    0  501    0  0.00000000000E+00  0.00000000000E+00  0.28671086271E+02  0.28699200127E+02  0.12700000000E+01 0.  1.
         -4   -1    0    0    0  501 -0.00000000000E+00 -0.00000000000E+00 -0.13614771007E+03  0.13615363329E+03  0.12700000000E+01 0.  1.
         25    2    1    2    0    0  0.00000000000E+00  0.00000000000E+00 -0.10747662380E+03  0.16485283341E+03  0.12500092808E+03 0.  0.
    9000005    1    3    3    0    0  0.34501196843E+01  0.56581979080E+02 -0.19048661456E+02  0.59810326748E+02  0.10000000000E+01 0.  0.
    9000005    1    3    3    0    0 -0.34501196843E+01 -0.56581979080E+02 -0.88427962344E+02  0.10504250667E+03  0.10000000000E+01 0.  0.
<mgrwt>
<rscale>  0 0.12500093E+03</rscale>
<asrwt>0</asrwt>
<pdfrwt beam="1">  1        4 0.44135547E-02 0.12500093E+03</pdfrwt>
<pdfrwt beam="2">  1       -4 0.20948419E-01 0.12500093E+03</pdfrwt>
<totfact> 0.96413260E+03</totfact>
</mgrwt>
</event>
<event>
 5    1  0.3183609E-002  0.1249999E+03  0.7818608E-02  0.1235069E+00
          4   -1    0    0  501    0  0.00000000000E+00  0.00000000000E+00  0.80024459201E+01  0.81025946896E+01  0.12700000000E+01 0.  1.
         -4   -1    0    0    0  501 -0.00000000000E+00 -0.00000000000E+00 -0.48499503046E+03  0.48499669325E+03  0.12700000000E+01 0.  1.
         25    2    1    2    0    0  0.00000000000E+00  0.00000000000E+00 -0.47699258454E+03  0.49309928794E+03  0.12499992827E+03 0.  0.
    9000005    1    3    3    0    0  0.40431747475E+01 -0.24283090599E+02 -0.46508115478E+03  0.46573328878E+03  0.10000000000E+01 0.  0.
    9000005    1    3    3    0    0 -0.40431747475E+01  0.24283090599E+02 -0.11911429756E+02  0.27365999158E+02  0.10000000000E+01 0.  0.
<mgrwt>
<rscale>  0 0.12499993E+03</rscale>
<asrwt>0</asrwt>
<pdfrwt beam="1">  1        4 0.12389776E-02 0.12499993E+03</pdfrwt>
<pdfrwt beam="2">  1       -4 0.74622429E-01 0.12499993E+03</pdfrwt>
<totfact> 0.56403879E+03</totfact>
</mgrwt>
</event>
<event>
 5    1  0.3183609E-002  0.1250037E+03  0.7818608E-02  0.1235064E+00
          4   -1    0    0  501    0  0.00000000000E+00  0.00000000000E+00  0.20632905404E+03  0.20633296256E+03  0.12700000000E+01 0.  1.
         -4   -1    0    0    0  501 -0.00000000000E+00 -0.00000000000E+00 -0.18907862449E+02  0.18950466021E+02  0.12700000000E+01 0.  1.
         25    2    1    2    0    0  0.00000000000E+00  0.00000000000E+00  0.18742119159E+03  0.22528342858E+03  0.12500368050E+03 0.  0.
    9000005    1    3    3    0    0  0.30746702218E+02  0.54293836160E+02  0.87390064741E+02  0.10738344266E+03  0.10000000000E+01 0.  0.
    9000005    1    3    3    0    0 -0.30746702218E+02 -0.54293836160E+02  0.10003112684E+03  0.11789998592E+03  0.10000000000E+01 0.  0.
<mgrwt>
<rscale>  0 0.12500368E+03</rscale>
<asrwt>0</asrwt>
<pdfrwt beam="1">  1        4 0.31746509E-01 0.12500368E+03</pdfrwt>
<pdfrwt beam="2">  1       -4 0.29124798E-02 0.12500368E+03</pdfrwt>
<totfact> 0.86032064E+03</totfact>
</mgrwt>
</event>
<event>
 5    1  0.3183609E-002  0.1250009E+03  0.7818608E-02  0.1235068E+00
          4   -1    0    0  501    0  0.00000000000E+00  0.00000000000E+00  0.24797291589E+02  0.24829791988E+02  0.12700000000E+01 0.  1.
         -4   -1    0    0    0  501 -0.00000000000E+00 -0.00000000000E+00 -0.15739136428E+03  0.15739648805E+03  0.12700000000E+01 0.  1.
         25    2    1    2    0    0  0.00000000000E+00  0.00000000000E+00 -0.13259407269E+03  0.18222628004E+03  0.12500091609E+03 0.  0.
    9000005    1    3    3    0    0 -0.12341223004E+02  0.54340882743E+02 -0.10753163660E+03  0.12111684521E+03  0.10000000000E+01 0.  0.
    9000005    1    3    3    0    0  0.12341223004E+02 -0.54340882743E+02 -0.25062436089E+02  0.61109434830E+02  0.10000000000E+01 0.  0.
<mgrwt>
<rscale>  0 0.12500092E+03</rscale>
<asrwt>0</asrwt>
<pdfrwt beam="1">  1        4 0.38178622E-02 0.12500092E+03</pdfrwt>
<pdfrwt beam="2">  1       -4 0.24216950E-01 0.12500092E+03</pdfrwt>
<totfact> 0.93215880E+03</totfact>
</mgrwt>
</event>
<event>
 5    1  0.3183609E-002  0.1249988E+03  0.7818608E-02  0.1235071E+00
          4   -1    0    0  501    0  0.00000000000E+00  0.00000000000E+00  0.24792265455E+03  0.24792590736E+03  0.12700000000E+01 0.  1.
         -4   -1    0    0    0  501 -0.00000000000E+00 -0.00000000000E+00 -0.15726663225E+02  0.15777859050E+02  0.12700000000E+01 0.  1.
         25    2    1    2    0    0  0.00000000000E+00  0.00000000000E+00  0.23219599132E+03  0.26370376641E+03  0.12499879212E+03 0.  0.
    9000005    1    3    3    0    0 -0.30953965851E+02 -0.54280846134E+02  0.11775410320E+03  0.13331011620E+03  0.10000000000E+01 0.  0.
    9000005    1    3    3    0    0  0.30953965851E+02  0.54280846134E+02  0.11444188812E+03  0.13039365021E+03  0.10000000000E+01 0.  0.
<mgrwt>
<rscale>  0 0.12499879E+03</rscale>
<asrwt>0</asrwt>
<pdfrwt beam="1">  1        4 0.38146135E-01 0.12499879E+03</pdfrwt>
<pdfrwt beam="2">  1       -4 0.24236750E-02 0.12499879E+03</pdfrwt>
<totfact> 0.80391243E+03</totfact>
</mgrwt>
</event>
<event>
 5    1  0.3183609E-002  0.1250021E+03  0.7818608E-02  0.1235066E+00
         -4   -1    0    0    0  501 -0.00000000000E+00  0.00000000000E+00  0.10486502806E+02  0.10563126484E+02  0.12700000000E+01 0.  1.
          4   -1    0    0  501    0  0.00000000000E+00 -0.00000000000E+00 -0.37108140284E+03  0.37108357607E+03  0.12700000000E+01 0.  1.
         25    2    1    2    0    0  0.00000000000E+00  0.00000000000E+00 -0.36059490003E+03  0.38164670256E+03  0.12500209456E+03 0.  0.
    9000005    1    3    3    0    0 -0.54565442320E+02  0.13085507970E+01 -0.87376074937E+02  0.10302756074E+03  0.10000000000E+01 0.  0.
    9000005    1    3    3    0    0  0.54565442320E+02 -0.13085507970E+01 -0.27321882509E+03  0.27861914182E+03  0.10000000000E+01 0.  0.
<mgrwt>
<rscale>  0 0.12500209E+03</rscale>
<asrwt>0</asrwt>
<pdfrwt beam="2">  1        4 0.57095498E-01 0.12500209E+03</pdfrwt>
<pdfrwt beam="1">  1       -4 0.16193697E-02 0.12500209E+03</pdfrwt>
<totfact> 0.66374755E+03</totfact>
</mgrwt>
</event>
<event>
 5    1  0.3183609E-002  0.1249643E+03  0.7818608E-02  0.1235125E+00
         -4   -1    0    0    0  501 -0.00000000000E+00  0.00000000000E+00  0.11742277455E+03  0.11742964227E+03  0.12700000000E+01 0. -1.
          4   -1    0    0  501    0  0.00000000000E+00 -0.00000000000E+00 -0.33227593319E+02  0.33251854952E+02  0.12700000000E+01 0. -1.
         25    2    1    2    0    0  0.00000000000E+00  0.00000000000E+00  0.84195181234E+02  0.15068149722E+03  0.12496433516E+03 0.  0.
    9000005    1    3    3    0    0 -0.50291189901E+02  0.33644102755E+02  0.60851181920E+02  0.85819553558E+02  0.10000000000E+01 0.  0.
    9000005    1    3    3    0    0  0.50291189901E+02 -0.33644102755E+02  0.23343999314E+02  0.64861943664E+02  0.10000000000E+01 0.  0.
<mgrwt>
<rscale>  0 0.12496434E+03</rscale>
<asrwt>0</asrwt>
<pdfrwt beam="2">  1        4 0.51143320E-02 0.12496434E+03</pdfrwt>
<pdfrwt beam="1">  1       -4 0.18067437E-01 0.12496434E+03</pdfrwt>
<totfact> 0.99247659E+03</totfact>
</mgrwt>
</event>
<event>
 5    1  0.3183609E-002  0.1249996E+03  0.7818608E-02  0.1235070E+00
         -4   -1    0    0    0  501 -0.00000000000E+00  0.00000000000E+00  0.12068118398E+02  0.12134759234E+02  0.12700000000E+01 0.  1.
          4   -1    0    0  501    0  0.00000000000E+00 -0.00000000000E+00 -0.32272217558E+03  0.32272467447E+03  0.12700000000E+01 0.  1.
         25    2    1    2    0    0  0.00000000000E+00  0.00000000000E+00 -0.31065405719E+03  0.33485943371E+03  0.12499958838E+03 0.  0.
    9000005    1    3    3    0    0  0.21725536074E+02  0.50531404617E+02 -0.75867396052E+02  0.93713838647E+02  0.10000000000E+01 0.  0.
    9000005    1    3    3    0    0 -0.21725536074E+02 -0.50531404617E+02 -0.23478666114E+03  0.24114559506E+03  0.10000000000E+01 0.  0.
<mgrwt>
<rscale>  0 0.12499959E+03</rscale>
<asrwt>0</asrwt>
<pdfrwt beam="2">  1        4 0.49654877E-01 0.12499959E+03</pdfrwt>
<pdfrwt beam="1">  1       -4 0.18619523E-02 0.12499959E+03</pdfrwt>
<totfact> 0.71423616E+03</totfact>
</mgrwt>
</event>
<event>
 5    1  0.3183609E-002  0.1250007E+03  0.7818608E-02  0.1235068E+00
          4   -1    0    0  501    0  0.00000000000E+00  0.00000000000E+00  0.24681225605E+04  0.24681228873E+04  0.12700000000E+01 0.  1.
         -4   -1    0    0    0  501 -0.00000000000E+00 -0.00000000000E+00 -0.13275486782E+01  0.18371950068E+01  0.12700000000E+01 0.  1.
         25    2    1    2    0    0  0.00000000000E+00  0.00000000000E+00  0.24667950119E+04  0.24699600823E+04  0.12500071030E+03 0.  0.
    9000005    1    3    3    0    0  0.17685184623E+02  0.27299822531E+02  0.22877604329E+04  0.22879918803E+04  0.10000000000E+01 0.  0.
    9000005    1    3    3    0    0 -0.17685184623E+02 -0.27299822531E+02  0.17903457895E+03  0.18196820196E+03  0.10000000000E+01 0.  0.
<mgrwt>
<rscale>  0 0.12500071E+03</rscale>
<asrwt>0</asrwt>
<pdfrwt beam="1">  1        4 0.37975126E+00 0.12500071E+03</pdfrwt>
<pdfrwt beam="2">  1       -4 0.24346640E-03 0.12500071E+03</pdfrwt>
<totfact> 0.49095597E+02</totfact>
</mgrwt>
</event>
<event>
 5    1  0.3183609E-002  0.1249900E+03  0.7818608E-02  0.1235085E+00
         -4   -1    0    0    0  501 -0.00000000000E+00  0.00000000000E+00  0.10075669764E+02  0.10155393700E+02  0.12700000000E+01 0.  1.
          4   -1    0    0  501    0  0.00000000000E+00 -0.00000000000E+00 -0.38602098188E+03  0.38602307101E+03  0.12700000000E+01 0.  1.
         25    2    1    2    0    0  0.00000000000E+00  0.00000000000E+00 -0.37594531212E+03  0.39617846471E+03  0.12498999239E+03 0.  0.
    9000005    1    3    3    0    0 -0.32032018030E+02 -0.52738624073E+02 -0.21922447804E+03  0.22774499867E+03  0.10000000000E+01 0.  0.
    9000005    1    3    3    0    0  0.32032018030E+02  0.52738624073E+02 -0.15672083408E+03  0.16843346604E+03  0.10000000000E+01 0.  0.
<mgrwt>
<rscale>  0 0.12498999E+03</rscale>
<asrwt>0</asrwt>
<pdfrwt beam="2">  1        4 0.59394126E-01 0.12498999E+03</pdfrwt>
<pdfrwt beam="1">  1       -4 0.15563966E-02 0.12498999E+03</pdfrwt>
<totfact> 0.64940526E+03</totfact>
</mgrwt>
</event>
<event>
 5    1  0.3183609E-002  0.1249967E+03  0.7818608E-02  0.1235074E+00
          4   -1    0    0  501    0  0.00000000000E+00  0.00000000000E+00  0.67590877270E+03  0.67590996584E+03  0.12700000000E+01 0. -1.
         -4   -1    0    0    0  501 -0.00000000000E+00 -0.00000000000E+00 -0.57079615141E+01  0.58475400508E+01  0.12700000000E+01 0. -1.
         25    2    1    2    0    0  0.00000000000E+00  0.00000000000E+00  0.67020081119E+03  0.68175750589E+03  0.12499667802E+03 0.  0.
    9000005    1    3    3    0    0  0.38823945432E+02 -0.14571113991E+02  0.59007654270E+03  0.59153270606E+03  0.10000000000E+01 0.  0.
    9000005    1    3    3    0    0 -0.38823945432E+02  0.14571113991E+02  0.80124268495E+02  0.90224799826E+02  0.10000000000E+01 0.  0.
<mgrwt>
<rscale>  0 0.12499668E+03</rscale>
<asrwt>0</asrwt>
<pdfrwt beam="1">  1        4 0.10399679E+00 0.12499668E+03</pdfrwt>
<pdfrwt beam="2">  1       -4 0.88897653E-03 0.12499668E+03</pdfrwt>
<totfact> 0.44070552E+03</totfact>
</mgrwt>
</event>
<event>
 5    1  0.3183609E-002  0.1250033E+03  0.7818608E-02  0.1235064E+00
          4   -1    0    0  501    0  0.00000000000E+00  0.00000000000E+00  0.82153163922E+02  0.82162979756E+02  0.12700000000E+01 0. -1.
         -4   -1    0    0    0  501 -0.00000000000E+00 -0.00000000000E+00 -0.47529758105E+02  0.47546722342E+02  0.12700000000E+01 0. -1.
         25    2    1    2    0    0  0.00000000000E+00  0.00000000000E+00  0.34623405817E+02  0.12970970210E+03  0.12500330631E+03 0.  0.
    9000005    1    3    3    0    0 -0.43098262460E+01 -0.23149684692E+02  0.77378780106E+02  0.80888553667E+02  0.10000000000E+01 0.  0.
    9000005    1    3    3    0    0  0.43098262460E+01  0.23149684692E+02 -0.42755374289E+02  0.48821148432E+02  0.10000000000E+01 0.  0.
<mgrwt>
<rscale>  0 0.12500331E+03</rscale>
<asrwt>0</asrwt>
<pdfrwt beam="1">  1        4 0.12641008E-01 0.12500331E+03</pdfrwt>
<pdfrwt beam="2">  1       -4 0.73143306E-02 0.12500331E+03</pdfrwt>
<totfact> 0.10349949E+04</totfact>
</mgrwt>
</event>
<event>
 5    1  0.3183609E-002  0.1250019E+03  0.7818608E-02  0.1235066E+00
          4   -1    0    0  501    0  0.00000000000E+00  0.00000000000E+00  0.24756514709E+03  0.24756840460E+03  0.12700000000E+01 0.  1.
         -4   -1    0    0    0  501 -0.00000000000E+00 -0.00000000000E+00 -0.15750226922E+02  0.15801346401E+02  0.12700000000E+01 0.  1.
         25    2    1    2    0    0  0.00000000000E+00  0.00000000000E+00  0.23181492017E+03  0.26336975100E+03  0.12500187410E+03 0.  0.
    9000005    1    3    3    0    0  0.59981209016E+02  0.45678679569E+01  0.15158589845E+03  0.16308861230E+03  0.10000000000E+01 0.  0.
    9000005    1    3    3    0    0 -0.59981209016E+02 -0.45678679569E+01  0.80229021718E+02  0.10028113870E+03  0.10000000000E+01 0.  0.
<mgrwt>
<rscale>  0 0.12500187E+03</rscale>
<asrwt>0</asrwt>
<pdfrwt beam="1">  1        4 0.38091128E-01 0.12500187E+03</pdfrwt>
<pdfrwt beam="2">  1       -4 0.24272947E-02 0.12500187E+03</pdfrwt>
<totfact> 0.80432123E+03</totfact>
</mgrwt>
</event>
<event>
 5    1  0.3183609E-002  0.1249909E+03  0.7818608E-02  0.1235083E+00
          4   -1    0    0  501    0  0.00000000000E+00  0.00000000000E+00  0.14890013100E+02  0.14944075419E+02  0.12700000000E+01 0.  1.
         -4   -1    0    0    0  501 -0.00000000000E+00 -0.00000000000E+00 -0.26177128153E+03  0.26177436226E+03  0.12700000000E+01 0.  1.
         25    2    1    2    0    0  0.00000000000E+00  0.00000000000E+00 -0.24688126843E+03  0.27671843768E+03  0.12499093186E+03 0.  0.
    9000005    1    3    3    0    0 -0.26660580591E+02  0.22484533579E+02 -0.23823006078E+03  0.24077147394E+03  0.10000000000E+01 0.  0.
    9000005    1    3    3    0    0  0.26660580591E+02 -0.22484533579E+02 -0.86512076563E+01  0.35946963733E+02  0.10000000000E+01 0.  0.
<mgrwt>
<rscale>  0 0.12499093E+03</rscale>
<asrwt>0</asrwt>
<pdfrwt beam="1">  1        4 0.22951671E-02 0.12499093E+03</pdfrwt>
<pdfrwt beam="2">  1       -4 0.40276897E-01 0.12499093E+03</pdfrwt>
<totfact> 0.78631092E+03</totfact>
</mgrwt>
</event>
<event>
 5    1  0.3183609E-002  0.1249997E+03  0.7818608E-02  0.1235070E+00
         -4   -1    0    0    0  501 -0.00000000000E+00  0.00000000000E+00  0.11392019267E+03  0.11392727153E+03  0.12700000000E+01 0.  1.
          4   -1    0    0  501    0  0.00000000000E+00 -0.00000000000E+00 -0.34269290835E+02  0.34292815492E+02  0.12700000000E+01 0.  1.
         25    2    1    2    0    0  0.00000000000E+00  0.00000000000E+00  0.79650901838E+02  0.14822008702E+03  0.12499971213E+03 0.  0.
    9000005    1    3    3    0    0 -0.38640009547E+02 -0.41154625404E+02  0.71609186052E+02  0.91190071043E+02  0.10000000000E+01 0.  0.
    9000005    1    3    3    0    0  0.38640009547E+02  0.41154625404E+02  0.80417157862E+01  0.57030015980E+02  0.10000000000E+01 0.  0.
<mgrwt>
<rscale>  0 0.12499971E+03</rscale>
<asrwt>0</asrwt>
<pdfrwt beam="2">  1        4 0.52745528E-02 0.12499971E+03</pdfrwt>
<pdfrwt beam="1">  1       -4 0.17528537E-01 0.12499971E+03</pdfrwt>
<totfact> 0.99660333E+03</totfact>
</mgrwt>
</event>
<event>
 5    1  0.3183609E-002  0.1249978E+03  0.7818608E-02  0.1235073E+00
          4   -1    0    0  501    0  0.00000000000E+00  0.00000000000E+00  0.29996336545E+03  0.29996605393E+03  0.12700000000E+01 0. -1.
         -4   -1    0    0    0  501 -0.00000000000E+00 -0.00000000000E+00 -0.12988242402E+02  0.13050185466E+02  0.12700000000E+01 0. -1.
         25    2    1    2    0    0  0.00000000000E+00  0.00000000000E+00  0.28697512305E+03  0.31301623940E+03  0.12499777950E+03 0.  0.
    9000005    1    3    3    0    0  0.25531280855E+02 -0.31549785179E+02  0.24496425066E+02  0.47416348319E+02  0.10000000000E+01 0.  0.
    9000005    1    3    3    0    0 -0.25531280855E+02  0.31549785179E+02  0.26247869798E+03  0.26559989108E+03  0.10000000000E+01 0.  0.
<mgrwt>
<rscale>  0 0.12499778E+03</rscale>
<asrwt>0</asrwt>
<pdfrwt beam="1">  1        4 0.46153184E-01 0.12499778E+03</pdfrwt>
<pdfrwt beam="2">  1       -4 0.20031627E-02 0.12499778E+03</pdfrwt>
<totfact> 0.73998163E+03</totfact>
</mgrwt>
</event>
<event>
 5    1  0.3183609E-002  0.1250021E+03  0.7818608E-02  0.1235066E+00
         -4   -1    0    0    0  501 -0.00000000000E+00  0.00000000000E+00  0.10055718479E+03  0.10056520428E+03  0.12700000000E+01 0.  1.
          4   -1    0    0  501    0  0.00000000000E+00 -0.00000000000E+00 -0.38827417222E+02  0.38848181787E+02  0.12700000000E+01 0.  1.
         25    2    1    2    0    0  0.00000000000E+00  0.00000000000E+00  0.61729767563E+02  0.13941338607E+03  0.12500211203E+03 0.  0.
    9000005    1    3    3    0    0  0.32414776486E+02  0.11380254107E+02 -0.27356517794E+02  0.43927292018E+02  0.10000000000E+01 0.  0.
    9000005    1    3    3    0    0 -0.32414776486E+02 -0.11380254107E+02  0.89086285357E+02  0.95486094050E+02  0.10000000000E+01 0.  0.
<mgrwt>
<rscale>  0 0.12500211E+03</rscale>
<asrwt>0</asrwt>
<pdfrwt beam="2">  1        4 0.59756630E-02 0.12500211E+03</pdfrwt>
<pdfrwt beam="1">  1       -4 0.15472550E-01 0.12500211E+03</pdfrwt>
<totfact> 0.10145275E+04</totfact>
</mgrwt>
</event>
<event>
 5    1  0.3183609E-002  0.1250028E+03  0.7818608E-02  0.1235065E+00
         -4   -1    0    0    0  501 -0.00000000000E+00  0.00000000000E+00  0.40183341091E+02  0.40203405344E+02  0.12700000000E+01 0.  1.
          4   -1    0    0  501    0  0.00000000000E+00 -0.00000000000E+00 -0.97166563854E+02  0.97174863165E+02  0.12700000000E+01 0.  1.
         25    2    1    2    0    0  0.00000000000E+00  0.00000000000E+00 -0.56983222763E+02  0.13737826851E+03  0.12500280390E+03 0.  0.
    9000005    1    3    3    0    0  0.63761230443E+01  0.61908790809E+02 -0.34715485078E+02  0.71270738937E+02  0.10000000000E+01 0.  0.
    9000005    1    3    3    0    0 -0.63761230443E+01 -0.61908790809E+02 -0.22267737685E+02  0.66107529572E+02  0.10000000000E+01 0.  0.
<mgrwt>
<rscale>  0 0.12500280E+03</rscale>
<asrwt>0</asrwt>
<pdfrwt beam="2">  1        4 0.14950884E-01 0.12500280E+03</pdfrwt>
<pdfrwt beam="1">  1       -4 0.61842343E-02 0.12500280E+03</pdfrwt>
<totfact> 0.10187539E+04</totfact>
</mgrwt>
</event>
<event>
 5    1  0.3183609E-002  0.1250375E+03  0.7818608E-02  0.1235011E+00
         -4   -1    0    0    0  501 -0.00000000000E+00  0.00000000000E+00  0.46548371964E+02  0.46565693729E+02  0.12700000000E+01 0.  1.
          4   -1    0    0  501    0  0.00000000000E+00 -0.00000000000E+00 -0.83930752130E+02  0.83940360096E+02  0.12700000000E+01 0.  1.
         25    2    1    2    0    0  0.00000000000E+00  0.00000000000E+00 -0.37382380166E+02  0.13050605383E+03  0.12503754531E+03 0.  0.
    9000005    1    3    3    0    0 -0.45427341150E+02  0.42344218372E+02 -0.11243223026E+02  0.63119618325E+02  0.10000000000E+01 0.  0.
    9000005    1    3    3    0    0  0.45427341150E+02 -0.42344218372E+02 -0.26139157140E+02  0.67386435501E+02  0.10000000000E+01 0.  0.
<mgrwt>
<rscale>  0 0.12503755E+03</rscale>
<asrwt>0</asrwt>
<pdfrwt beam="2">  1        4 0.12914495E-01 0.12503755E+03</pdfrwt>
<pdfrwt beam="1">  1       -4 0.71633595E-02 0.12503755E+03</pdfrwt>
<totfact> 0.10324941E+04</totfact>
</mgrwt>
</event>
<event>
 5    1  0.3183609E-002  0.1250005E+03  0.7818608E-02  0.1235069E+00
          4   -1    0    0  501    0  0.00000000000E+00  0.00000000000E+00  0.34095466832E+03  0.34095703358E+03  0.12700000000E+01 0.  1.
         -4   -1    0    0    0  501 -0.00000000000E+00 -0.00000000000E+00 -0.11419285666E+02  0.11489690385E+02  0.12700000000E+01 0.  1.
         25    2    1    2    0    0  0.00000000000E+00  0.00000000000E+00  0.32953538265E+03  0.35244672397E+03  0.12500049926E+03 0.  0.
    9000005    1    3    3    0    0 -0.53461606452E+02 -0.95104625844E+00  0.25596793744E+03  0.26149499584E+03  0.10000000000E+01 0.  0.
    9000005    1    3    3    0    0  0.53461606452E+02  0.95104625844E+00  0.73567445210E+02  0.90951728121E+02  0.10000000000E+01 0.  0.
<mgrwt>
<rscale>  0 0.12500050E+03</rscale>
<asrwt>0</asrwt>
<pdfrwt beam="1">  1        4 0.52460168E-01 0.12500050E+03</pdfrwt>
<pdfrwt beam="2">  1       -4 0.17624107E-02 0.12500050E+03</pdfrwt>
<totfact> 0.69455449E+03</totfact>
</mgrwt>
</event>
<event>
 5    1  0.3183609E-002  0.1249988E+03  0.7818608E-02  0.1235071E+00
         -4   -1    0    0    0  501 -0.00000000000E+00  0.00000000000E+00  0.97843313548E+01  0.98664096844E+01  0.12700000000E+01 0. -1.
          4   -1    0    0  501    0  0.00000000000E+00 -0.00000000000E+00 -0.39747715260E+03  0.39747918152E+03  0.12700000000E+01 0. -1.
         25    2    1    2    0    0  0.00000000000E+00  0.00000000000E+00 -0.38769282125E+03  0.40734559120E+03  0.12499882810E+03 0.  0.
    9000005    1    3    3    0    0 -0.44239243319E+02  0.99081920495E+00 -0.33764329146E+03  0.34053206111E+03  0.10000000000E+01 0.  0.
    9000005    1    3    3    0    0  0.44239243319E+02 -0.99081920495E+00 -0.50049529784E+02  0.66813530095E+02  0.10000000000E+01 0.  0.
<mgrwt>
<rscale>  0 0.12499883E+03</rscale>
<asrwt>0</asrwt>
<pdfrwt beam="2">  1        4 0.61156789E-01 0.12499883E+03</pdfrwt>
<pdfrwt beam="1">  1       -4 0.15117518E-02 0.12499883E+03</pdfrwt>
<totfact> 0.63846238E+03</totfact>
</mgrwt>
</event>
<event>
 5    1  0.3183609E-002  0.1250136E+03  0.7818608E-02  0.1235048E+00
          4   -1    0    0  501    0  0.00000000000E+00  0.00000000000E+00  0.51000451757E+02  0.51016261912E+02  0.12700000000E+01 0. -1.
         -4   -1    0    0    0  501 -0.00000000000E+00 -0.00000000000E+00 -0.76576219756E+02  0.76586750369E+02  0.12700000000E+01 0. -1.
         25    2    1    2    0    0  0.00000000000E+00  0.00000000000E+00 -0.25575767999E+02  0.12760301228E+03  0.12501363459E+03 0.  0.
    9000005    1    3    3    0    0 -0.36339842177E+02 -0.38681829014E+02  0.20899258683E+02  0.57049513923E+02  0.10000000000E+01 0.  0.
    9000005    1    3    3    0    0  0.36339842177E+02  0.38681829014E+02 -0.46475026682E+02  0.70553498357E+02  0.10000000000E+01 0.  0.
<mgrwt>
<rscale>  0 0.12501363E+03</rscale>
<asrwt>0</asrwt>
<pdfrwt beam="1">  1        4 0.78482496E-02 0.12501363E+03</pdfrwt>
<pdfrwt beam="2">  1       -4 0.11782983E-01 0.12501363E+03</pdfrwt>
<totfact> 0.10392871E+04</totfact>
</mgrwt>
</event>
<event>
 5    1  0.3183609E-002  0.1250024E+03  0.7818608E-02  0.1235066E+00
          4   -1    0    0  501    0  0.00000000000E+00  0.00000000000E+00  0.29695796300E+03  0.29696067870E+03  0.12700000000E+01 0. -1.
         -4   -1    0    0    0  501 -0.00000000000E+00 -0.00000000000E+00 -0.13121288368E+02  0.13182606284E+02  0.12700000000E+01 0. -1.
         25    2    1    2    0    0  0.00000000000E+00  0.00000000000E+00  0.28383667464E+03  0.31014328498E+03  0.12500239738E+03 0.  0.
    9000005    1    3    3    0    0  0.29278401201E+02  0.50991305519E+02  0.19443692160E+03  0.20313555695E+03  0.10000000000E+01 0.  0.
    9000005    1    3    3    0    0 -0.29278401201E+02 -0.50991305519E+02  0.89399753033E+02  0.10700772803E+03  0.10000000000E+01 0.  0.
<mgrwt>
<rscale>  0 0.12500240E+03</rscale>
<asrwt>0</asrwt>
<pdfrwt beam="1">  1        4 0.45690766E-01 0.12500240E+03</pdfrwt>
<pdfrwt beam="2">  1       -4 0.20235854E-02 0.12500240E+03</pdfrwt>
<totfact> 0.74339892E+03</totfact>
</mgrwt>
</event>
<event>
 5    1  0.3183609E-002  0.1249988E+03  0.7818608E-02  0.1235071E+00
         -4   -1    0    0    0  501 -0.00000000000E+00  0.00000000000E+00  0.10754002616E+03  0.10754752496E+03  0.12700000000E+01 0. -1.
          4   -1    0    0  501    0  0.00000000000E+00 -0.00000000000E+00 -0.36303143678E+02  0.36325351215E+02  0.12700000000E+01 0. -1.
         25    2    1    2    0    0  0.00000000000E+00  0.00000000000E+00  0.71236882479E+02  0.14387287618E+03  0.12499884429E+03 0.  0.
    9000005    1    3    3    0    0 -0.41059267086E+02  0.17805022291E+02  0.85819389701E+02  0.96792819367E+02  0.10000000000E+01 0.  0.
    9000005    1    3    3    0    0  0.41059267086E+02 -0.17805022291E+02 -0.14582507222E+02  0.47080056811E+02  0.10000000000E+01 0.  0.
<mgrwt>
<rscale>  0 0.12499884E+03</rscale>
<asrwt>0</asrwt>
<pdfrwt beam="2">  1        4 0.55873841E-02 0.12499884E+03</pdfrwt>
<pdfrwt beam="1">  1       -4 0.16546905E-01 0.12499884E+03</pdfrwt>
<totfact> 0.10054201E+04</totfact>
</mgrwt>
</event>
<event>
 5    1  0.3183609E-002  0.1250069E+03  0.7818608E-02  0.1235059E+00
         -4   -1    0    0    0  501 -0.00000000000E+00  0.00000000000E+00  0.17308468024E+02  0.17354998281E+02  0.12700000000E+01 0. -1.
          4   -1    0    0  501    0  0.00000000000E+00 -0.00000000000E+00 -0.22535790476E+03  0.22536148326E+03  0.12700000000E+01 0. -1.
         25    2    1    2    0    0  0.00000000000E+00  0.00000000000E+00 -0.20804943674E+03  0.24271648155E+03  0.12500688896E+03 0.  0.
    9000005    1    3    3    0    0 -0.30505777304E+02 -0.34792762535E+02 -0.22463952357E+02  0.51446748481E+02  0.10000000000E+01 0.  0.
    9000005    1    3    3    0    0  0.30505777304E+02  0.34792762535E+02 -0.18558548438E+03  0.19126973307E+03  0.10000000000E+01 0.  0.
<mgrwt>
<rscale>  0 0.12500689E+03</rscale>
<asrwt>0</asrwt>
<pdfrwt beam="2">  1        4 0.34674300E-01 0.12500689E+03</pdfrwt>
<pdfrwt beam="1">  1       -4 0.26666959E-02 0.12500689E+03</pdfrwt>
<totfact> 0.83381649E+03</totfact>
</mgrwt>
</event>
<event>
 5    1  0.3183609E-002  0.1250044E+03  0.7818608E-02  0.1235062E+00
          4   -1    0    0  501    0  0.00000000000E+00  0.00000000000E+00  0.52835760783E+02  0.52851021916E+02  0.12700000000E+01 0. -1.
         -4   -1    0    0    0  501 -0.00000000000E+00 -0.00000000000E+00 -0.73905756656E+02  0.73916667721E+02  0.12700000000E+01 0. -1.
         25    2    1    2    0    0  0.00000000000E+00  0.00000000000E+00 -0.21069995873E+02  0.12676768964E+03  0.12500440956E+03 0.  0.
    9000005    1    3    3    0    0  0.38106797970E+02 -0.48972412357E+02 -0.30073285862E+01  0.62132674566E+02  0.10000000000E+01 0.  0.
    9000005    1    3    3    0    0 -0.38106797970E+02  0.48972412357E+02 -0.18062667287E+02  0.64635015070E+02  0.10000000000E+01 0.  0.
<mgrwt>
<rscale>  0 0.12500441E+03</rscale>
<asrwt>0</asrwt>
<pdfrwt beam="1">  1        4 0.81305919E-02 0.12500441E+03</pdfrwt>
<pdfrwt beam="2">  1       -4 0.11372130E-01 0.12500441E+03</pdfrwt>
<totfact> 0.10413160E+04</totfact>
</mgrwt>
</event>
<event>
 5    1  0.3183609E-002  0.1250018E+03  0.7818608E-02  0.1235066E+00
          4   -1    0    0  501    0  0.00000000000E+00  0.00000000000E+00  0.18299148702E+03  0.18299589400E+03  0.12700000000E+01 0.  1.
         -4   -1    0    0    0  501 -0.00000000000E+00 -0.00000000000E+00 -0.21323695281E+02  0.21361481233E+02  0.12700000000E+01 0.  1.
         25    2    1    2    0    0  0.00000000000E+00  0.00000000000E+00  0.16166779174E+03  0.20435737524E+03  0.12500184770E+03 0.  0.
    9000005    1    3    3    0    0 -0.48026127099E+02 -0.10517575556E+02  0.14390202697E+03  0.15207209358E+03  0.10000000000E+01 0.  0.
    9000005    1    3    3    0    0  0.48026127099E+02  0.10517575556E+02  0.17765764766E+02  0.52285281652E+02  0.10000000000E+01 0.  0.
<mgrwt>
<rscale>  0 0.12500185E+03</rscale>
<asrwt>0</asrwt>
<pdfrwt beam="1">  1        4 0.28155781E-01 0.12500185E+03</pdfrwt>
<pdfrwt beam="2">  1       -4 0.32838143E-02 0.12500185E+03</pdfrwt>
<totfact> 0.89402073E+03</totfact>
</mgrwt>
</event>
<event>
 5    1  0.3183609E-002  0.1250002E+03  0.7818608E-02  0.1235069E+00
          4   -1    0    0  501    0  0.00000000000E+00  0.00000000000E+00  0.52315536080E+02  0.52330948925E+02  0.12700000000E+01 0. -1.
         -4   -1    0    0    0  501 -0.00000000000E+00 -0.00000000000E+00 -0.74635574339E+02  0.74646378726E+02  0.12700000000E+01 0. -1.
         25    2    1    2    0    0  0.00000000000E+00  0.00000000000E+00 -0.22320038259E+02  0.12697732765E+03  0.12500023052E+03 0.  0.
    9000005    1    3    3    0    0 -0.12792986863E+02 -0.30142607003E+02  0.42908034531E+02  0.53984596851E+02  0.10000000000E+01 0.  0.
    9000005    1    3    3    0    0  0.12792986863E+02  0.30142607003E+02 -0.65228072790E+02  0.72992730800E+02  0.10000000000E+01 0.  0.
<mgrwt>
<rscale>  0 0.12500023E+03</rscale>
<asrwt>0</asrwt>
<pdfrwt beam="1">  1        4 0.80505607E-02 0.12500023E+03</pdfrwt>
<pdfrwt beam="2">  1       -4 0.11484413E-01 0.12500023E+03</pdfrwt>
<totfact> 0.10409584E+04</totfact>
</mgrwt>
</event>
<event>
 5    1  0.3183609E-002  0.1250090E+03  0.7818608E-02  0.1235055E+00
          4   -1    0    0  501    0  0.00000000000E+00  0.00000000000E+00  0.26368957702E+02  0.26399523297E+02  0.12700000000E+01 0. -1.
         -4   -1    0    0    0  501 -0.00000000000E+00 -0.00000000000E+00 -0.14804044328E+03  0.14804589068E+03  0.12700000000E+01 0. -1.
         25    2    1    2    0    0  0.00000000000E+00  0.00000000000E+00 -0.12167148558E+03  0.17444541398E+03  0.12500900789E+03 0.  0.
    9000005    1    3    3    0    0  0.37736686314E+02  0.49813983632E+02 -0.61628280018E+02  0.87775482666E+02  0.10000000000E+01 0.  0.
    9000005    1    3    3    0    0 -0.37736686314E+02 -0.49813983632E+02 -0.60043205560E+02  0.86669931309E+02  0.10000000000E+01 0.  0.
<mgrwt>
<rscale>  0 0.12500901E+03</rscale>
<asrwt>0</asrwt>
<pdfrwt beam="1">  1        4 0.40595330E-02 0.12500901E+03</pdfrwt>
<pdfrwt beam="2">  1       -4 0.22778223E-01 0.12500901E+03</pdfrwt>
<totfact> 0.94607390E+03</totfact>
</mgrwt>
</event>
<event>
 5    1  0.3183609E-002  0.1249944E+03  0.7818608E-02  0.1235078E+00
         -4   -1    0    0    0  501 -0.00000000000E+00  0.00000000000E+00  0.14252221364E+02  0.14308693645E+02  0.12700000000E+01 0. -1.
          4   -1    0    0  501    0  0.00000000000E+00 -0.00000000000E+00 -0.27345571011E+03  0.27345865920E+03  0.12700000000E+01 0. -1.
         25    2    1    2    0    0  0.00000000000E+00  0.00000000000E+00 -0.25920348875E+03  0.28776735285E+03  0.12499440302E+03 0.  0.
    9000005    1    3    3    0    0  0.40651198980E+02 -0.44684669846E+02 -0.92790307393E+02  0.11072615248E+03  0.10000000000E+01 0.  0.
    9000005    1    3    3    0    0 -0.40651198980E+02  0.44684669846E+02 -0.16641318136E+03  0.17704120036E+03  0.10000000000E+01 0.  0.
<mgrwt>
<rscale>  0 0.12499440E+03</rscale>
<asrwt>0</asrwt>
<pdfrwt beam="2">  1        4 0.42074676E-01 0.12499440E+03</pdfrwt>
<pdfrwt beam="1">  1       -4 0.21972205E-02 0.12499440E+03</pdfrwt>
<totfact> 0.77168952E+03</totfact>
</mgrwt>
</event>
<event>
 5    1  0.3183609E-002  0.1250005E+03  0.7818608E-02  0.1235069E+00
         -4   -1    0    0    0  501 -0.00000000000E+00  0.00000000000E+00  0.76970449935E+02  0.76980926620E+02  0.12700000000E+01 0.  1.
          4   -1    0    0  501    0  0.00000000000E+00 -0.00000000000E+00 -0.50728515103E+02  0.50744409983E+02  0.12700000000E+01 0.  1.
         25    2    1    2    0    0  0.00000000000E+00  0.00000000000E+00  0.26241934833E+02  0.12772533660E+03  0.12500048987E+03 0.  0.
    9000005    1    3    3    0    0  0.25742396589E+01  0.39733519866E+02  0.62336262750E+02  0.73974245278E+02  0.10000000000E+01 0.  0.
    9000005    1    3    3    0    0 -0.25742396589E+01 -0.39733519866E+02 -0.36094327917E+02  0.53751091325E+02  0.10000000000E+01 0.  0.
<mgrwt>
<rscale>  0 0.12500049E+03</rscale>
<asrwt>0</asrwt>
<pdfrwt beam="2">  1        4 0.78064155E-02 0.12500049E+03</pdfrwt>
<pdfrwt beam="1">  1       -4 0.11843636E-01 0.12500049E+03</pdfrwt>
<totfact> 0.10393309E+04</totfact>
</mgrwt>
</event>
<event>
 5    1  0.3183609E-002  0.1249967E+03  0.7818608E-02  0.1235074E+00
          4   -1    0    0  501    0  0.00000000000E+00  0.00000000000E+00  0.27945384857E+03  0.27945673436E+03  0.12700000000E+01 0. -1.
         -4   -1    0    0    0  501 -0.00000000000E+00 -0.00000000000E+00 -0.13945617963E+02  0.14003326761E+02  0.12700000000E+01 0. -1.
         25    2    1    2    0    0  0.00000000000E+00  0.00000000000E+00  0.26550823061E+03  0.29346006112E+03  0.12499674778E+03 0.  0.
    9000005    1    3    3    0    0 -0.51590044400E+02 -0.31286066803E+02  0.94557573392E+02  0.11217167799E+03  0.10000000000E+01 0.  0.
    9000005    1    3    3    0    0  0.51590044400E+02  0.31286066803E+02  0.17095065721E+03  0.18128838313E+03  0.10000000000E+01 0.  0.
<mgrwt>
<rscale>  0 0.12499675E+03</rscale>
<asrwt>0</asrwt>
<pdfrwt beam="1">  1        4 0.42997560E-01 0.12499675E+03</pdfrwt>
<pdfrwt beam="2">  1       -4 0.21501409E-02 0.12499675E+03</pdfrwt>
<totfact> 0.76432108E+03</totfact>
</mgrwt>
</event>
<event>
 5    1  0.3183609E-002  0.1250003E+03  0.7818608E-02  0.1235069E+00
         -4   -1    0    0    0  501 -0.00000000000E+00  0.00000000000E+00  0.66770133069E+03  0.66770253849E+03  0.12700000000E+01 0. -1.
          4   -1    0    0  501    0  0.00000000000E+00 -0.00000000000E+00 -0.57801755881E+01  0.59180511851E+01  0.12700000000E+01 0. -1.
         25    2    1    2    0    0  0.00000000000E+00  0.00000000000E+00  0.66192115510E+03  0.67362058967E+03  0.12500033305E+03 0.  0.
    9000005    1    3    3    0    0  0.23954436405E+02  0.51903707142E+02  0.19490041513E+03  0.20311322374E+03  0.10000000000E+01 0.  0.
    9000005    1    3    3    0    0 -0.23954436405E+02 -0.51903707142E+02  0.46702073997E+03  0.47050736594E+03  0.10000000000E+01 0.  0.
<mgrwt>
<rscale>  0 0.12500033E+03</rscale>
<asrwt>0</asrwt>
<pdfrwt beam="2">  1        4 0.89995736E-03 0.12500033E+03</pdfrwt>
<pdfrwt beam="1">  1       -4 0.10273388E+00 0.12500033E+03</pdfrwt>
<totfact> 0.44515996E+03</totfact>
</mgrwt>
</event>
<event>
 5    1  0.3183609E-002  0.1249975E+03  0.7818608E-02  0.1235073E+00
         -4   -1    0    0    0  501 -0.00000000000E+00  0.00000000000E+00  0.23969790069E+03  0.23970126511E+03  0.12700000000E+01 0.  1.
          4   -1    0    0  501    0  0.00000000000E+00 -0.00000000000E+00 -0.16267678576E+02  0.16317177031E+02  0.12700000000E+01 0.  1.
         25    2    1    2    0    0  0.00000000000E+00  0.00000000000E+00  0.22343022212E+03  0.25601844214E+03  0.12499751422E+03 0.  0.
    9000005    1    3    3    0    0  0.43303984299E+02 -0.40085687269E+02  0.15383998862E+03  0.16477208343E+03  0.10000000000E+01 0.  0.
    9000005    1    3    3    0    0 -0.43303984299E+02  0.40085687269E+02  0.69590233501E+02  0.91246358714E+02  0.10000000000E+01 0.  0.
<mgrwt>
<rscale>  0 0.12499751E+03</rscale>
<asrwt>0</asrwt>
<pdfrwt beam="2">  1        4 0.25067862E-02 0.12499751E+03</pdfrwt>
<pdfrwt beam="1">  1       -4 0.36880666E-01 0.12499751E+03</pdfrwt>
<totfact> 0.81472592E+03</totfact>
</mgrwt>
</event>
<event>
 5    1  0.3183609E-002  0.1250000E+03  0.7818608E-02  0.1235069E+00
         -4   -1    0    0    0  501 -0.00000000000E+00  0.00000000000E+00  0.25550110156E+02  0.25581654149E+02  0.12700000000E+01 0. -1.
          4   -1    0    0  501    0  0.00000000000E+00 -0.00000000000E+00 -0.15275742003E+03  0.15276269923E+03  0.12700000000E+01 0. -1.
         25    2    1    2    0    0  0.00000000000E+00  0.00000000000E+00 -0.12720730988E+03  0.17834435338E+03  0.12500003478E+03 0.  0.
    9000005    1    3    3    0    0  0.25526059532E+02 -0.49353880630E+02 -0.10440650999E+03  0.11827554513E+03  0.10000000000E+01 0.  0.
    9000005    1    3    3    0    0 -0.25526059532E+02  0.49353880630E+02 -0.22800799893E+02  0.60068808247E+02  0.10000000000E+01 0.  0.
<mgrwt>
<rscale>  0 0.12500003E+03</rscale>
<asrwt>0</asrwt>
<pdfrwt beam="2">  1        4 0.23503974E-01 0.12500003E+03</pdfrwt>
<pdfrwt beam="1">  1       -4 0.39336188E-02 0.12500003E+03</pdfrwt>
<totfact> 0.93915804E+03</totfact>
</mgrwt>
</event>
<event>
 5    1  0.3183609E-002  0.1250197E+03  0.7818608E-02  0.1235038E+00
         -4   -1    0    0    0  501 -0.00000000000E+00  0.00000000000E+00  0.11810211518E+02  0.11878299378E+02  0.12700000000E+01 0. -1.
          4   -1    0    0  501    0  0.00000000000E+00 -0.00000000000E+00 -0.32983589010E+03  0.32983833510E+03  0.12700000000E+01 0. -1.
         25    2    1    2    0    0  0.00000000000E+00  0.00000000000E+00 -0.31802567858E+03  0.34171663448E+03  0.12501970260E+03 0.  0.
    9000005    1    3    3    0    0  0.17681297989E+02 -0.13902071593E+02  0.37842508764E+00  0.22517528699E+02  0.10000000000E+01 0.  0.
    9000005    1    3    3    0    0 -0.17681297989E+02  0.13902071593E+02 -0.31840410367E+03  0.31919910578E+03  0.10000000000E+01 0.  0.
<mgrwt>
<rscale>  0 0.12501970E+03</rscale>
<asrwt>0</asrwt>
<pdfrwt beam="2">  1        4 0.50749402E-01 0.12501970E+03</pdfrwt>
<pdfrwt beam="1">  1       -4 0.18223815E-02 0.12501970E+03</pdfrwt>
<totfact> 0.70614739E+03</totfact>
</mgrwt>
</event>
<event>
 5    1  0.3183609E-002  0.1250046E+03  0.7818608E-02  0.1235062E+00
         -4   -1    0    0    0  501 -0.00000000000E+00  0.00000000000E+00  0.13213410668E+02  0.13274303050E+02  0.12700000000E+01 0.  1.
          4   -1    0    0  501    0  0.00000000000E+00 -0.00000000000E+00 -0.29490771272E+03  0.29491044729E+03  0.12700000000E+01 0.  1.
         25    2    1    2    0    0  0.00000000000E+00  0.00000000000E+00 -0.28169430205E+03  0.30818475034E+03  0.12500464205E+03 0.  0.
    9000005    1    3    3    0    0 -0.55739810883E+02  0.26670758965E+02 -0.11781402396E+03  0.13303909254E+03  0.10000000000E+01 0.  0.
    9000005    1    3    3    0    0  0.55739810883E+02 -0.26670758965E+02 -0.16388027809E+03  0.17514565781E+03  0.10000000000E+01 0.  0.
<mgrwt>
<rscale>  0 0.12500464E+03</rscale>
<asrwt>0</asrwt>
<pdfrwt beam="2">  1        4 0.45375307E-01 0.12500464E+03</pdfrwt>
<pdfrwt beam="1">  1       -4 0.20377270E-02 0.12500464E+03</pdfrwt>
<totfact> 0.74575817E+03</totfact>
</mgrwt>
</event>
<event>
 5    1  0.3183609E-002  0.1249991E+03  0.7818608E-02  0.1235071E+00
          4   -1    0    0  501    0  0.00000000000E+00  0.00000000000E+00  0.24582213251E+03  0.24582541312E+03  0.12700000000E+01 0.  1.
         -4   -1    0    0    0  501 -0.00000000000E+00 -0.00000000000E+00 -0.15861559491E+02  0.15912321310E+02  0.12700000000E+01 0.  1.
         25    2    1    2    0    0  0.00000000000E+00  0.00000000000E+00  0.22996057302E+03  0.26173773443E+03  0.12499910591E+03 0.  0.
    9000005    1    3    3    0    0  0.39060707756E+02 -0.30299788787E+02  0.34934086626E+02  0.60540948947E+02  0.10000000000E+01 0.  0.
    9000005    1    3    3    0    0 -0.39060707756E+02  0.30299788787E+02  0.19502648640E+03  0.20119678548E+03  0.10000000000E+01 0.  0.
<mgrwt>
<rscale>  0 0.12499911E+03</rscale>
<asrwt>0</asrwt>
<pdfrwt beam="1">  1        4 0.37822948E-01 0.12499911E+03</pdfrwt>
<pdfrwt beam="2">  1       -4 0.24443970E-02 0.12499911E+03</pdfrwt>
<totfact> 0.80664415E+03</totfact>
</mgrwt>
</event>
<event>
 5    1  0.3183609E-002  0.1250023E+03  0.7818608E-02  0.1235066E+00
          4   -1    0    0  501    0  0.00000000000E+00  0.00000000000E+00  0.67095817058E+01  0.68287177908E+01  0.12700000000E+01 0. -1.
         -4   -1    0    0    0  501 -0.00000000000E+00 -0.00000000000E+00 -0.57696794269E+03  0.57696934042E+03  0.12700000000E+01 0. -1.
         25    2    1    2    0    0  0.00000000000E+00  0.00000000000E+00 -0.57025836098E+03  0.58379805821E+03  0.12500229800E+03 0.  0.
    9000005    1    3    3    0    0  0.44899520500E+02 -0.35587932457E+02 -0.40169273718E+03  0.40575919335E+03  0.10000000000E+01 0.  0.
    9000005    1    3    3    0    0 -0.44899520500E+02  0.35587932457E+02 -0.16856562380E+03  0.17803886487E+03  0.10000000000E+01 0.  0.
<mgrwt>
<rscale>  0 0.12500230E+03</rscale>
<asrwt>0</asrwt>
<pdfrwt beam="1">  1        4 0.10415156E-02 0.12500230E+03</pdfrwt>
<pdfrwt beam="2">  1       -4 0.88773532E-01 0.12500230E+03</pdfrwt>
<totfact> 0.49904059E+03</totfact>
</mgrwt>
</event>
<event>
 5    1  0.3183609E-002  0.1249978E+03  0.7818608E-02  0.1235073E+00
         -4   -1    0    0    0  501 -0.00000000000E+00  0.00000000000E+00  0.27224860325E+03  0.27225156541E+03  0.12700000000E+01 0. -1.
          4   -1    0    0  501    0  0.00000000000E+00 -0.00000000000E+00 -0.14316442144E+02  0.14372662094E+02  0.12700000000E+01 0. -1.
         25    2    1    2    0    0  0.00000000000E+00  0.00000000000E+00  0.25793216110E+03  0.28662422751E+03  0.12499779223E+03 0.  0.
    9000005    1    3    3    0    0 -0.42525045076E+02 -0.40857597203E+02  0.17637088740E+03  0.18597153715E+03  0.10000000000E+01 0.  0.
    9000005    1    3    3    0    0  0.42525045076E+02  0.40857597203E+02  0.81561273701E+02  0.10065269035E+03  0.10000000000E+01 0.  0.
<mgrwt>
<rscale>  0 0.12499779E+03</rscale>
<asrwt>0</asrwt>
<pdfrwt beam="2">  1        4 0.22070824E-02 0.12499779E+03</pdfrwt>
<pdfrwt beam="1">  1       -4 0.41888947E-01 0.12499779E+03</pdfrwt>
<totfact> 0.77311696E+03</totfact>
</mgrwt>
</event>
<event>
 5    1  0.3183609E-002  0.1249941E+03  0.7818608E-02  0.1235079E+00
          4   -1    0    0  501    0  0.00000000000E+00  0.00000000000E+00  0.63020691903E+02  0.63033487195E+02  0.12700000000E+01 0. -1.
         -4   -1    0    0    0  501 -0.00000000000E+00 -0.00000000000E+00 -0.61952146166E+02  0.61965162104E+02  0.12700000000E+01 0. -1.
         25    2    1    2    0    0  0.00000000000E+00  0.00000000000E+00  0.10685457375E+01  0.12499864930E+03  0.12499408201E+03 0.  0.
    9000005    1    3    3    0    0 -0.45801771791E+02 -0.33325093033E+02  0.26926826964E+02  0.62724940297E+02  0.10000000000E+01 0.  0.
    9000005    1    3    3    0    0  0.45801771791E+02  0.33325093033E+02 -0.25858281227E+02  0.62273709002E+02  0.10000000000E+01 0.  0.
<mgrwt>
<rscale>  0 0.12499408E+03</rscale>
<asrwt>0</asrwt>
<pdfrwt beam="1">  1        4 0.96974766E-02 0.12499408E+03</pdfrwt>
<pdfrwt beam="2">  1       -4 0.95330848E-02 0.12499408E+03</pdfrwt>
<totfact> 0.10454290E+04</totfact>
</mgrwt>
</event>
<event>
 5    1  0.3183609E-002  0.1250050E+03  0.7818608E-02  0.1235062E+00
         -4   -1    0    0    0  501 -0.00000000000E+00  0.00000000000E+00  0.58626636688E+01  0.59986436212E+01  0.12700000000E+01 0.  1.
          4   -1    0    0  501    0  0.00000000000E+00 -0.00000000000E+00 -0.65856994375E+03  0.65857116830E+03  0.12700000000E+01 0.  1.
         25    2    1    2    0    0  0.00000000000E+00  0.00000000000E+00 -0.65270728008E+03  0.66456981192E+03  0.12500496566E+03 0.  0.
    9000005    1    3    3    0    0  0.28406409085E+02  0.20986493893E+01 -0.30627457046E+02  0.41837417840E+02  0.10000000000E+01 0.  0.
    9000005    1    3    3    0    0 -0.28406409085E+02 -0.20986493893E+01 -0.62207982304E+03  0.62273239408E+03  0.10000000000E+01 0.  0.
<mgrwt>
<rscale>  0 0.12500497E+03</rscale>
<asrwt>0</asrwt>
<pdfrwt beam="2">  1        4 0.10132895E+00 0.12500497E+03</pdfrwt>
<pdfrwt beam="1">  1       -4 0.91250297E-03 0.12500497E+03</pdfrwt>
<totfact> 0.45019206E+03</totfact>
</mgrwt>
</event>
<event>
 5    1  0.3183609E-002  0.1250062E+03  0.7818608E-02  0.1235060E+00
         -4   -1    0    0    0  501 -0.00000000000E+00  0.00000000000E+00  0.17723204952E+03  0.17723659971E+03  0.12700000000E+01 0. -1.
          4   -1    0    0  501    0  0.00000000000E+00 -0.00000000000E+00 -0.22019381440E+02  0.22055975585E+02  0.12700000000E+01 0. -1.
         25    2    1    2    0    0  0.00000000000E+00  0.00000000000E+00  0.15521266808E+03  0.19929257530E+03  0.12500623279E+03 0.  0.
    9000005    1    3    3    0    0  0.15140691517E+02 -0.30701616276E+02 -0.57509580822E+01  0.34726118419E+02  0.10000000000E+01 0.  0.
    9000005    1    3    3    0    0 -0.15140691517E+02  0.30701616276E+02  0.16096362616E+03  0.16456645688E+03  0.10000000000E+01 0.  0.
<mgrwt>
<rscale>  0 0.12500623E+03</rscale>
<asrwt>0</asrwt>
<pdfrwt beam="2">  1        4 0.33907621E-02 0.12500623E+03</pdfrwt>
<pdfrwt beam="1">  1       -4 0.27269634E-01 0.12500623E+03</pdfrwt>
<totfact> 0.90242368E+03</totfact>
</mgrwt>
</event>
<event>
 5    1  0.3183609E-002  0.1249988E+03  0.7818608E-02  0.1235071E+00
         -4   -1    0    0    0  501 -0.00000000000E+00  0.00000000000E+00  0.77332028735E+03  0.77332133019E+03  0.12700000000E+01 0. -1.
          4   -1    0    0  501    0  0.00000000000E+00 -0.00000000000E+00 -0.49702837817E+01  0.51299727944E+01  0.12700000000E+01 0. -1.
         25    2    1    2    0    0  0.00000000000E+00  0.00000000000E+00  0.76835000357E+03  0.77845130298E+03  0.12499881253E+03 0.  0.
    9000005    1    3    3    0    0  0.38825419418E+02  0.18126190888E+02  0.10088764275E+03  0.10961427119E+03  0.10000000000E+01 0.  0.
    9000005    1    3    3    0    0 -0.38825419418E+02 -0.18126190888E+02  0.66746236082E+03  0.66883703179E+03  0.10000000000E+01 0.  0.
<mgrwt>
<rscale>  0 0.12499881E+03</rscale>
<asrwt>0</asrwt>
<pdfrwt beam="2">  1        4 0.77702334E-03 0.12499881E+03</pdfrwt>
<pdfrwt beam="1">  1       -4 0.11898467E+00 0.12499881E+03</pdfrwt>
<totfact> 0.39246031E+03</totfact>
</mgrwt>
</event>
<event>
 5    1  0.3183609E-002  0.1250031E+03  0.7818608E-02  0.1235064E+00
          4   -1    0    0  501    0  0.00000000000E+00  0.00000000000E+00  0.29463549750E+03  0.29463823460E+03  0.12700000000E+01 0.  1.
         -4   -1    0    0    0  501 -0.00000000000E+00 -0.00000000000E+00 -0.13225346757E+02  0.13286184435E+02  0.12700000000E+01 0.  1.
         25    2    1    2    0    0  0.00000000000E+00  0.00000000000E+00  0.28141015075E+03  0.30792441904E+03  0.12500309955E+03 0.  0.
    9000005    1    3    3    0    0 -0.33360886972E+02 -0.46246565509E+02  0.77721220062E+02  0.96401668288E+02  0.10000000000E+01 0.  0.
    9000005    1    3    3    0    0  0.33360886972E+02  0.46246565509E+02  0.20368893069E+03  0.21152275075E+03  0.10000000000E+01 0.  0.
<mgrwt>
<rscale>  0 0.12500310E+03</rscale>
<asrwt>0</asrwt>
<pdfrwt beam="1">  1        4 0.45333430E-01 0.12500310E+03</pdfrwt>
<pdfrwt beam="2">  1       -4 0.20395590E-02 0.12500310E+03</pdfrwt>
<totfact> 0.74610312E+03</totfact>
</mgrwt>
</event>
<event>
 5    1  0.3183609E-002  0.1249932E+03  0.7818608E-02  0.1235080E+00
          4   -1    0    0  501    0  0.00000000000E+00  0.00000000000E+00  0.24019803789E+03  0.24020139530E+03  0.12700000000E+01 0. -1.
         -4   -1    0    0    0  501 -0.00000000000E+00 -0.00000000000E+00 -0.16232568801E+02  0.16282173991E+02  0.12700000000E+01 0. -1.
         25    2    1    2    0    0  0.00000000000E+00  0.00000000000E+00  0.22396546908E+03  0.25648356929E+03  0.12499315971E+03 0.  0.
    9000005    1    3    3    0    0 -0.61277111350E+02 -0.11958921733E+02  0.10658391514E+03  0.12352745100E+03  0.10000000000E+01 0.  0.
    9000005    1    3    3    0    0  0.61277111350E+02  0.11958921733E+02  0.11738155395E+03  0.13295611829E+03  0.10000000000E+01 0.  0.
<mgrwt>
<rscale>  0 0.12499316E+03</rscale>
<asrwt>0</asrwt>
<pdfrwt beam="1">  1        4 0.36957616E-01 0.12499316E+03</pdfrwt>
<pdfrwt beam="2">  1       -4 0.25013925E-02 0.12499316E+03</pdfrwt>
<totfact> 0.81414488E+03</totfact>
</mgrwt>
</event>
<event>
 5    1  0.3183609E-002  0.1250023E+03  0.7818608E-02  0.1235066E+00
         -4   -1    0    0    0  501 -0.00000000000E+00  0.00000000000E+00  0.27932137039E+02  0.27960993894E+02  0.12700000000E+01 0. -1.
          4   -1    0    0  501    0  0.00000000000E+00 -0.00000000000E+00 -0.13974908620E+03  0.13975485678E+03  0.12700000000E+01 0. -1.
         25    2    1    2    0    0  0.00000000000E+00  0.00000000000E+00 -0.11181694916E+03  0.16771585067E+03  0.12500230577E+03 0.  0.
    9000005    1    3    3    0    0 -0.54306095329E+02 -0.25185300734E+02 -0.31834632389E+02  0.67807781134E+02  0.10000000000E+01 0.  0.
    9000005    1    3    3    0    0  0.54306095329E+02  0.25185300734E+02 -0.79982316769E+02  0.99908069537E+02  0.10000000000E+01 0.  0.
<mgrwt>
<rscale>  0 0.12500231E+03</rscale>
<asrwt>0</asrwt>
<pdfrwt beam="2">  1        4 0.21502523E-01 0.12500231E+03</pdfrwt>
<pdfrwt beam="1">  1       -4 0.42999156E-02 0.12500231E+03</pdfrwt>
<totfact> 0.95870547E+03</totfact>
</mgrwt>
</event>
<event>
 5    1  0.3183609E-002  0.1250004E+03  0.7818608E-02  0.1235069E+00
          4   -1    0    0  501    0  0.00000000000E+00  0.00000000000E+00  0.19255289019E+02  0.19297125569E+02  0.12700000000E+01 0. -1.
         -4   -1    0    0    0  501 -0.00000000000E+00 -0.00000000000E+00 -0.20260359669E+03  0.20260757708E+03  0.12700000000E+01 0. -1.
         25    2    1    2    0    0  0.00000000000E+00  0.00000000000E+00 -0.18334830767E+03  0.22190470265E+03  0.12500038053E+03 0.  0.
    9000005    1    3    3    0    0  0.14056197586E+02  0.58927620030E+02 -0.64446889439E+02  0.88455879688E+02  0.10000000000E+01 0.  0.
    9000005    1    3    3    0    0 -0.14056197586E+02 -0.58927620030E+02 -0.11890141823E+03  0.13344882296E+03  0.10000000000E+01 0.  0.
<mgrwt>
<rscale>  0 0.12500038E+03</rscale>
<asrwt>0</asrwt>
<pdfrwt beam="1">  1        4 0.29658767E-02 0.12500038E+03</pdfrwt>
<pdfrwt beam="2">  1       -4 0.31173307E-01 0.12500038E+03</pdfrwt>
<totfact> 0.86567115E+03</totfact>
</mgrwt>
</event>
<event>
 5    1  0.3183609E-002  0.1249980E+03  0.7818608E-02  0.1235072E+00
         -4   -1    0    0    0  501 -0.00000000000E+00  0.00000000000E+00  0.83046536478E+02  0.83056246731E+02  0.12700000000E+01 0. -1.
          4   -1    0    0  501    0  0.00000000000E+00 -0.00000000000E+00 -0.47014375837E+02  0.47031525972E+02  0.12700000000E+01 0. -1.
         25    2    1    2    0    0  0.00000000000E+00  0.00000000000E+00  0.36032160641E+02  0.13008777270E+03  0.12499804801E+03 0.  0.
    9000005    1    3    3    0    0  0.21503568556E+02 -0.54617425133E+02  0.40328787741E+02  0.71224137127E+02  0.10000000000E+01 0.  0.
    9000005    1    3    3    0    0 -0.21503568556E+02  0.54617425133E+02 -0.42966271000E+01  0.58863635576E+02  0.10000000000E+01 0.  0.
<mgrwt>
<rscale>  0 0.12499805E+03</rscale>
<asrwt>0</asrwt>
<pdfrwt beam="2">  1        4 0.72350472E-02 0.12499805E+03</pdfrwt>
<pdfrwt beam="1">  1       -4 0.12778456E-01 0.12499805E+03</pdfrwt>
<totfact> 0.10343086E+04</totfact>
</mgrwt>
</event>
<event>
 5    1  0.3183609E-002  0.1249931E+03  0.7818608E-02  0.1235080E+00
          4   -1    0    0  501    0  0.00000000000E+00  0.00000000000E+00  0.72094933401E+02  0.72106118479E+02  0.12700000000E+01 0. -1.
         -4   -1    0    0    0  501 -0.00000000000E+00 -0.00000000000E+00 -0.54153228225E+02  0.54168118180E+02  0.12700000000E+01 0. -1.
         25    2    1    2    0    0  0.00000000000E+00  0.00000000000E+00  0.17941705176E+02  0.12627423666E+03  0.12499311205E+03 0.  0.
    9000005    1    3    3    0    0  0.54467738101E+02 -0.30579404642E+02  0.10716285724E+02  0.63385118615E+02  0.10000000000E+01 0.  0.
    9000005    1    3    3    0    0 -0.54467738101E+02  0.30579404642E+02  0.72254194527E+01  0.62889118044E+02  0.10000000000E+01 0.  0.
<mgrwt>
<rscale>  0 0.12499311E+03</rscale>
<asrwt>0</asrwt>
<pdfrwt beam="1">  1        4 0.11093534E-01 0.12499311E+03</pdfrwt>
<pdfrwt beam="2">  1       -4 0.83332717E-02 0.12499311E+03</pdfrwt>
<totfact> 0.10426577E+04</totfact>
</mgrwt>
</event>
<event>
 5    1  0.3183609E-002  0.1250022E+03  0.7818608E-02  0.1235066E+00
          4   -1    0    0  501    0  0.00000000000E+00  0.00000000000E+00  0.43370871897E+02  0.43389462190E+02  0.12700000000E+01 0. -1.
         -4   -1    0    0    0  501 -0.00000000000E+00 -0.00000000000E+00 -0.90026942940E+02  0.90035900368E+02  0.12700000000E+01 0. -1.
         25    2    1    2    0    0  0.00000000000E+00  0.00000000000E+00 -0.46656071043E+02  0.13342536256E+03  0.12500215362E+03 0.  0.
    9000005    1    3    3    0    0  0.12685703143E+02  0.27500828256E+02 -0.81675631127E+02  0.87115620522E+02  0.10000000000E+01 0.  0.
    9000005    1    3    3    0    0 -0.12685703143E+02 -0.27500828256E+02  0.35019560083E+02  0.46309742036E+02  0.10000000000E+01 0.  0.
<mgrwt>
<rscale>  0 0.12500215E+03</rscale>
<asrwt>0</asrwt>
<pdfrwt beam="1">  1        4 0.66745609E-02 0.12500215E+03</pdfrwt>
<pdfrwt beam="2">  1       -4 0.13852418E-01 0.12500215E+03</pdfrwt>
<totfact> 0.10270869E+04</totfact>
</mgrwt>
</event>
<event>
 5    1  0.3183609E-002  0.1250015E+03  0.7818608E-02  0.1235067E+00
         -4   -1    0    0    0  501 -0.00000000000E+00  0.00000000000E+00  0.96043738792E+02  0.96052135121E+02  0.12700000000E+01 0. -1.
          4   -1    0    0  501    0  0.00000000000E+00 -0.00000000000E+00 -0.40652439576E+02  0.40672272416E+02  0.12700000000E+01 0. -1.
         25    2    1    2    0    0  0.00000000000E+00  0.00000000000E+00  0.55391299216E+02  0.13672440754E+03  0.12500147034E+03 0.  0.
    9000005    1    3    3    0    0 -0.10563460860E+02  0.25970417549E+02 -0.33392783584E+02  0.43613384281E+02  0.10000000000E+01 0.  0.
    9000005    1    3    3    0    0  0.10563460860E+02 -0.25970417549E+02  0.88784082800E+02  0.93111023255E+02  0.10000000000E+01 0.  0.
<mgrwt>
<rscale>  0 0.12500147E+03</rscale>
<asrwt>0</asrwt>
<pdfrwt beam="2">  1        4 0.62563930E-02 0.12500147E+03</pdfrwt>
<pdfrwt beam="1">  1       -4 0.14778131E-01 0.12500147E+03</pdfrwt>
<totfact> 0.10201513E+04</totfact>
</mgrwt>
</event>
<event>
 4    1  0.3183609E-002  0.1250868E+03  0.7818608E-02  0.1234934E+00
         -4   -1    0    0    0  501 -0.00000000000E+00  0.00000000000E+00  0.23675578348E+03  0.23675918970E+03  0.12700000000E+01 0.  1.
          4   -1    0    0  501    0  0.00000000000E+00 -0.00000000000E+00 -0.16494055207E+02  0.16542876327E+02  0.12700000000E+01 0.  1.
    9000005    1    1    2    0    0  0.55188304252E+02  0.16410324835E+02  0.60709440399E+02  0.83676064923E+02  0.10000000000E+01 0.  0.
    9000005    1    1    2    0    0 -0.55188304252E+02 -0.16410324835E+02  0.15955228787E+03  0.16962600111E+03  0.10000000000E+01 0.  0.
<mgrwt>
<rscale>  0 0.12508680E+03</rscale>
<asrwt>0</asrwt>
<pdfrwt beam="2">  1        4 0.25415647E-02 0.12508680E+03</pdfrwt>
<pdfrwt beam="1">  1       -4 0.36427980E-01 0.12508680E+03</pdfrwt>
<totfact> 0.81697274E+03</totfact>
</mgrwt>
</event>
<event>
 5    1  0.3183609E-002  0.1250029E+03  0.7818608E-02  0.1235065E+00
         -4   -1    0    0    0  501 -0.00000000000E+00  0.00000000000E+00  0.54331340803E+01  0.55795919147E+01  0.12700000000E+01 0. -1.
          4   -1    0    0  501    0  0.00000000000E+00 -0.00000000000E+00 -0.70929200484E+03  0.70929314182E+03  0.12700000000E+01 0. -1.
         25    2    1    2    0    0  0.00000000000E+00  0.00000000000E+00 -0.70385887076E+03  0.71487273373E+03  0.12500286192E+03 0.  0.
    9000005    1    3    3    0    0  0.55598334813E+02 -0.21748684258E+02 -0.45757331081E+03  0.46145261389E+03  0.10000000000E+01 0.  0.
    9000005    1    3    3    0    0 -0.55598334813E+02  0.21748684258E+02 -0.24628555995E+03  0.25342011984E+03  0.10000000000E+01 0.  0.
<mgrwt>
<rscale>  0 0.12500286E+03</rscale>
<asrwt>0</asrwt>
<pdfrwt beam="2">  1        4 0.10913313E+00 0.12500286E+03</pdfrwt>
<pdfrwt beam="1">  1       -4 0.84722079E-03 0.12500286E+03</pdfrwt>
<totfact> 0.42310501E+03</totfact>
</mgrwt>
</event>
<event>
 5    1  0.3183609E-002  0.1250046E+03  0.7818608E-02  0.1235062E+00
          4   -1    0    0  501    0  0.00000000000E+00  0.00000000000E+00  0.15411876144E+02  0.15464114145E+02  0.12700000000E+01 0. -1.
         -4   -1    0    0    0  501 -0.00000000000E+00 -0.00000000000E+00 -0.25299319717E+03  0.25299638479E+03  0.12700000000E+01 0. -1.
         25    2    1    2    0    0  0.00000000000E+00  0.00000000000E+00 -0.23758132103E+03  0.26846049893E+03  0.12500462146E+03 0.  0.
    9000005    1    3    3    0    0 -0.10847467374E+02 -0.37719143974E+01 -0.25071799410E+03  0.25098288279E+03  0.10000000000E+01 0.  0.
    9000005    1    3    3    0    0  0.10847467374E+02  0.37719143974E+01  0.13136673072E+02  0.17477616144E+02  0.10000000000E+01 0.  0.
<mgrwt>
<rscale>  0 0.12500462E+03</rscale>
<asrwt>0</asrwt>
<pdfrwt beam="1">  1        4 0.23753216E-02 0.12500462E+03</pdfrwt>
<pdfrwt beam="2">  1       -4 0.38926291E-01 0.12500462E+03</pdfrwt>
<totfact> 0.79725023E+03</totfact>
</mgrwt>
</event>
<event>
 5    1  0.3183609E-002  0.1250013E+03  0.7818608E-02  0.1235067E+00
          4   -1    0    0  501    0  0.00000000000E+00  0.00000000000E+00  0.10595466954E+02  0.10671308260E+02  0.12700000000E+01 0.  1.
         -4   -1    0    0    0  501 -0.00000000000E+00 -0.00000000000E+00 -0.36728793387E+03  0.36729012955E+03  0.12700000000E+01 0.  1.
         25    2    1    2    0    0  0.00000000000E+00  0.00000000000E+00 -0.35669246691E+03  0.37796143781E+03  0.12500133007E+03 0.  0.
    9000005    1    3    3    0    0  0.84658915941E+01  0.61162839416E+02 -0.20746909353E+03  0.21646475237E+03  0.10000000000E+01 0.  0.
    9000005    1    3    3    0    0 -0.84658915941E+01 -0.61162839416E+02 -0.14922337338E+03  0.16149668544E+03  0.10000000000E+01 0.  0.
<mgrwt>
<rscale>  0 0.12500133E+03</rscale>
<asrwt>0</asrwt>
<pdfrwt beam="1">  1        4 0.16360750E-02 0.12500133E+03</pdfrwt>
<pdfrwt beam="2">  1       -4 0.56511829E-01 0.12500133E+03</pdfrwt>
<totfact> 0.66752208E+03</totfact>
</mgrwt>
</event>
<event>
 5    1  0.3183609E-002  0.1249951E+03  0.7818608E-02  0.1235077E+00
          4   -1    0    0  501    0  0.00000000000E+00  0.00000000000E+00  0.68470037823E+03  0.68470155604E+03  0.12700000000E+01 0.  1.
         -4   -1    0    0    0  501 -0.00000000000E+00 -0.00000000000E+00 -0.56327218427E+01  0.57741194443E+01  0.12700000000E+01 0.  1.
         25    2    1    2    0    0  0.00000000000E+00  0.00000000000E+00  0.67906765639E+03  0.69047567549E+03  0.12499510586E+03 0.  0.
    9000005    1    3    3    0    0 -0.58673605113E+02 -0.19437001005E+02  0.28873830043E+03  0.29528155222E+03  0.10000000000E+01 0.  0.
    9000005    1    3    3    0    0  0.58673605113E+02  0.19437001005E+02  0.39032935595E+03  0.39519412327E+03  0.10000000000E+01 0.  0.
<mgrwt>
<rscale>  0 0.12499511E+03</rscale>
<asrwt>0</asrwt>
<pdfrwt beam="1">  1        4 0.10534939E+00 0.12499511E+03</pdfrwt>
<pdfrwt beam="2">  1       -4 0.87754078E-03 0.12499511E+03</pdfrwt>
<totfact> 0.43598961E+03</totfact>
</mgrwt>
</event>
<event>
 5    1  0.3183609E-002  0.1250414E+03  0.7818608E-02  0.1235005E+00
         -4   -1    0    0    0  501 -0.00000000000E+00  0.00000000000E+00  0.13953863351E+03  0.13954441279E+03  0.12700000000E+01 0.  1.
          4   -1    0    0  501    0  0.00000000000E+00 -0.00000000000E+00 -0.27991820977E+02  0.28020616367E+02  0.12700000000E+01 0.  1.
         25    2    1    2    0    0  0.00000000000E+00  0.00000000000E+00  0.11154681253E+03  0.16756502916E+03  0.12504138359E+03 0.  0.
    9000005    1    3    3    0    0 -0.19565241171E+02  0.45985724449E+02  0.54473057166E+01  0.50280798072E+02  0.10000000000E+01 0.  0.
    9000005    1    3    3    0    0  0.19565241171E+02 -0.45985724449E+02  0.10609950682E+03  0.11728423109E+03  0.10000000000E+01 0.  0.
<mgrwt>
<rscale>  0 0.12504138E+03</rscale>
<asrwt>0</asrwt>
<pdfrwt beam="2">  1        4 0.43090936E-02 0.12504138E+03</pdfrwt>
<pdfrwt beam="1">  1       -4 0.21470142E-01 0.12504138E+03</pdfrwt>
<totfact> 0.95814730E+03</totfact>
</mgrwt>
</event>
<event>
 5    1  0.3183609E-002  0.1249987E+03  0.7818608E-02  0.1235071E+00
         -4   -1    0    0    0  501 -0.00000000000E+00  0.00000000000E+00  0.56046770308E+03  0.56046914196E+03  0.12700000000E+01 0.  1.
          4   -1    0    0  501    0  0.00000000000E+00 -0.00000000000E+00 -0.69101653968E+01  0.70259010676E+01  0.12700000000E+01 0.  1.
         25    2    1    2    0    0  0.00000000000E+00  0.00000000000E+00  0.55355753768E+03  0.56749504303E+03  0.12499870536E+03 0.  0.
    9000005    1    3    3    0    0  0.37421097119E+02  0.48596281815E+02  0.33111337700E+03  0.33674768825E+03  0.10000000000E+01 0.  0.
    9000005    1    3    3    0    0 -0.37421097119E+02 -0.48596281815E+02  0.22244416068E+03  0.23074735478E+03  0.10000000000E+01 0.  0.
<mgrwt>
<rscale>  0 0.12499871E+03</rscale>
<asrwt>0</asrwt>
<pdfrwt beam="2">  1        4 0.10721160E-02 0.12499871E+03</pdfrwt>
<pdfrwt beam="1">  1       -4 0.86234797E-01 0.12499871E+03</pdfrwt>
<totfact> 0.50987330E+03</totfact>
</mgrwt>
</event>
<event>
 5    1  0.3183609E-002  0.1249993E+03  0.7818608E-02  0.1235070E+00
          4   -1    0    0  501    0  0.00000000000E+00  0.00000000000E+00  0.16982836422E+03  0.16983311277E+03  0.12700000000E+01 0. -1.
         -4   -1    0    0    0  501 -0.00000000000E+00 -0.00000000000E+00 -0.22978307220E+02  0.23013376604E+02  0.12700000000E+01 0. -1.
         25    2    1    2    0    0  0.00000000000E+00  0.00000000000E+00  0.14685005700E+03  0.19284648938E+03  0.12499931689E+03 0.  0.
    9000005    1    3    3    0    0 -0.36834224226E+02 -0.50161256159E+02  0.64657526809E+02  0.89746907840E+02  0.10000000000E+01 0.  0.
    9000005    1    3    3    0    0  0.36834224226E+02  0.50161256159E+02  0.82192530193E+02  0.10309958154E+03  0.10000000000E+01 0.  0.
<mgrwt>
<rscale>  0 0.12499932E+03</rscale>
<asrwt>0</asrwt>
<pdfrwt beam="1">  1        4 0.26130504E-01 0.12499932E+03</pdfrwt>
<pdfrwt beam="2">  1       -4 0.35381871E-02 0.12499932E+03</pdfrwt>
<totfact> 0.91355777E+03</totfact>
</mgrwt>
</event>
<event>
 5    1  0.3183609E-002  0.1249831E+03  0.7818608E-02  0.1235096E+00
          4   -1    0    0  501    0  0.00000000000E+00  0.00000000000E+00  0.88838355982E+02  0.88847433242E+02  0.12700000000E+01 0.  1.
         -4   -1    0    0    0  501 -0.00000000000E+00 -0.00000000000E+00 -0.43937926101E+02  0.43956276572E+02  0.12700000000E+01 0.  1.
         25    2    1    2    0    0  0.00000000000E+00  0.00000000000E+00  0.44900429881E+02  0.13280370981E+03  0.12498310581E+03 0.  0.
    9000005    1    3    3    0    0  0.22026793516E+02 -0.34953748893E+02 -0.27357730774E+02  0.49561977638E+02  0.10000000000E+01 0.  0.
    9000005    1    3    3    0    0 -0.22026793516E+02  0.34953748893E+02  0.72258160655E+02  0.83241732176E+02  0.10000000000E+01 0.  0.
<mgrwt>
<rscale>  0 0.12498311E+03</rscale>
<asrwt>0</asrwt>
<pdfrwt beam="1">  1        4 0.13669549E-01 0.12498311E+03</pdfrwt>
<pdfrwt beam="2">  1       -4 0.67617908E-02 0.12498311E+03</pdfrwt>
<totfact> 0.10288494E+04</totfact>
</mgrwt>
</event>
<event>
 5    1  0.3183609E-002  0.1250017E+03  0.7818608E-02  0.1235067E+00
          4   -1    0    0  501    0  0.00000000000E+00  0.00000000000E+00  0.66883750602E+01  0.68078822659E+01  0.12700000000E+01 0. -1.
         -4   -1    0    0    0  501 -0.00000000000E+00 -0.00000000000E+00 -0.57875998228E+03  0.57876137568E+03  0.12700000000E+01 0. -1.
         25    2    1    2    0    0  0.00000000000E+00  0.00000000000E+00 -0.57207160722E+03  0.58556925795E+03  0.12500172828E+03 0.  0.
    9000005    1    3    3    0    0  0.33966061448E+02  0.39945524873E+02 -0.12676180835E+03  0.13718197529E+03  0.10000000000E+01 0.  0.
    9000005    1    3    3    0    0 -0.33966061448E+02 -0.39945524873E+02 -0.44530979886E+03  0.44838728266E+03  0.10000000000E+01 0.  0.
<mgrwt>
<rscale>  0 0.12500173E+03</rscale>
<asrwt>0</asrwt>
<pdfrwt beam="1">  1        4 0.10382813E-02 0.12500173E+03</pdfrwt>
<pdfrwt beam="2">  1       -4 0.89049258E-01 0.12500173E+03</pdfrwt>
<totfact> 0.49789505E+03</totfact>
</mgrwt>
</event>
<event>
 5    1  0.3183609E-002  0.1249990E+03  0.7818608E-02  0.1235071E+00
         -4   -1    0    0    0  501 -0.00000000000E+00  0.00000000000E+00  0.14156454736E+02  0.14213307522E+02  0.12700000000E+01 0.  1.
          4   -1    0    0  501    0  0.00000000000E+00 -0.00000000000E+00 -0.27531836335E+03  0.27532129249E+03  0.12700000000E+01 0.  1.
         25    2    1    2    0    0  0.00000000000E+00  0.00000000000E+00 -0.26116190861E+03  0.28953460001E+03  0.12499896837E+03 0.  0.
    9000005    1    3    3    0    0  0.33735087077E+02 -0.89627884927E+00 -0.25240856569E+03  0.25465652053E+03  0.10000000000E+01 0.  0.
    9000005    1    3    3    0    0 -0.33735087077E+02  0.89627884927E+00 -0.87533429262E+01  0.34878079481E+02  0.10000000000E+01 0.  0.
<mgrwt>
<rscale>  0 0.12499897E+03</rscale>
<asrwt>0</asrwt>
<pdfrwt beam="2">  1        4 0.42361266E-01 0.12499897E+03</pdfrwt>
<pdfrwt beam="1">  1       -4 0.21825149E-02 0.12499897E+03</pdfrwt>
<totfact> 0.76932401E+03</totfact>
</mgrwt>
</event>
<event>
 5    1  0.3183609E-002  0.1249920E+03  0.7818608E-02  0.1235082E+00
          4   -1    0    0  501    0  0.00000000000E+00  0.00000000000E+00  0.86678167547E+02  0.86687471006E+02  0.12700000000E+01 0.  1.
         -4   -1    0    0    0  501 -0.00000000000E+00 -0.00000000000E+00 -0.45039699819E+02  0.45057601576E+02  0.12700000000E+01 0.  1.
         25    2    1    2    0    0  0.00000000000E+00  0.00000000000E+00  0.41638467729E+02  0.13174507258E+03  0.12499200836E+03 0.  0.
    9000005    1    3    3    0    0  0.40105505943E+02 -0.18235504177E+02 -0.25889374457E+02  0.51110125506E+02  0.10000000000E+01 0.  0.
    9000005    1    3    3    0    0 -0.40105505943E+02  0.18235504177E+02  0.67527842186E+02  0.80634947075E+02  0.10000000000E+01 0.  0.
<mgrwt>
<rscale>  0 0.12499201E+03</rscale>
<asrwt>0</asrwt>
<pdfrwt beam="1">  1        4 0.13337195E-01 0.12499201E+03</pdfrwt>
<pdfrwt beam="2">  1       -4 0.69312774E-02 0.12499201E+03</pdfrwt>
<totfact> 0.10309001E+04</totfact>
</mgrwt>
</event>
<event>
 5    1  0.3183609E-002  0.1250050E+03  0.7818608E-02  0.1235062E+00
         -4   -1    0    0    0  501 -0.00000000000E+00  0.00000000000E+00  0.45251170312E+02  0.45268988443E+02  0.12700000000E+01 0. -1.
          4   -1    0    0  501    0  0.00000000000E+00 -0.00000000000E+00 -0.86291101183E+02  0.86300446369E+02  0.12700000000E+01 0. -1.
         25    2    1    2    0    0  0.00000000000E+00  0.00000000000E+00 -0.41039930871E+02  0.13156943481E+03  0.12500496090E+03 0.  0.
    9000005    1    3    3    0    0 -0.34356782409E+02  0.29778388983E+02  0.24608443683E+02  0.51707992114E+02  0.10000000000E+01 0.  0.
    9000005    1    3    3    0    0  0.34356782409E+02 -0.29778388983E+02 -0.65648374555E+02  0.79861442697E+02  0.10000000000E+01 0.  0.
<mgrwt>
<rscale>  0 0.12500496E+03</rscale>
<asrwt>0</asrwt>
<pdfrwt beam="2">  1        4 0.13277643E-01 0.12500496E+03</pdfrwt>
<pdfrwt beam="1">  1       -4 0.69638080E-02 0.12500496E+03</pdfrwt>
<totfact> 0.10309743E+04</totfact>
</mgrwt>
</event>
<event>
 5    1  0.3183609E-002  0.1250006E+03  0.7818608E-02  0.1235068E+00
          4   -1    0    0  501    0  0.00000000000E+00  0.00000000000E+00  0.89238709002E+02  0.89247745542E+02  0.12700000000E+01 0. -1.
         -4   -1    0    0    0  501 -0.00000000000E+00 -0.00000000000E+00 -0.43753006012E+02  0.43771434008E+02  0.12700000000E+01 0. -1.
         25    2    1    2    0    0  0.00000000000E+00  0.00000000000E+00  0.45485702990E+02  0.13301917955E+03  0.12500061180E+03 0.  0.
    9000005    1    3    3    0    0 -0.53374684440E+02 -0.32135202071E+02  0.17555733389E+02  0.64735862750E+02  0.10000000000E+01 0.  0.
    9000005    1    3    3    0    0  0.53374684440E+02  0.32135202071E+02  0.27929969601E+02  0.68283316799E+02  0.10000000000E+01 0.  0.
<mgrwt>
<rscale>  0 0.12500061E+03</rscale>
<asrwt>0</asrwt>
<pdfrwt beam="1">  1        4 0.13731145E-01 0.12500061E+03</pdfrwt>
<pdfrwt beam="2">  1       -4 0.67333444E-02 0.12500061E+03</pdfrwt>
<totfact> 0.10279850E+04</totfact>
</mgrwt>
</event>
<event>
 5    1  0.3183609E-002  0.1250077E+03  0.7818608E-02  0.1235057E+00
         -4   -1    0    0    0  501 -0.00000000000E+00  0.00000000000E+00  0.13531355585E+02  0.13590823521E+02  0.12700000000E+01 0. -1.
          4   -1    0    0  501    0  0.00000000000E+00 -0.00000000000E+00 -0.28802309806E+03  0.28802589800E+03  0.12700000000E+01 0. -1.
         25    2    1    2    0    0  0.00000000000E+00  0.00000000000E+00 -0.27449174248E+03  0.30161672152E+03  0.12500771981E+03 0.  0.
    9000005    1    3    3    0    0  0.56347970586E+02 -0.11092952288E+02 -0.19671918635E+03  0.20493312484E+03  0.10000000000E+01 0.  0.
    9000005    1    3    3    0    0 -0.56347970586E+02  0.11092952288E+02 -0.77772556129E+02  0.96683596678E+02  0.10000000000E+01 0.  0.
<mgrwt>
<rscale>  0 0.12500772E+03</rscale>
<asrwt>0</asrwt>
<pdfrwt beam="2">  1        4 0.44316031E-01 0.12500772E+03</pdfrwt>
<pdfrwt beam="1">  1       -4 0.20865371E-02 0.12500772E+03</pdfrwt>
<totfact> 0.75383571E+03</totfact>
</mgrwt>
</event>
<event>
 5    1  0.3183609E-002  0.1250044E+03  0.7818608E-02  0.1235062E+00
          4   -1    0    0  501    0  0.00000000000E+00  0.00000000000E+00  0.42047598425E+03  0.42047790219E+03  0.12700000000E+01 0.  1.
         -4   -1    0    0    0  501 -0.00000000000E+00 -0.00000000000E+00 -0.92453726382E+01  0.93321924123E+01  0.12700000000E+01 0.  1.
         25    2    1    2    0    0  0.00000000000E+00  0.00000000000E+00  0.41123061161E+03  0.42981009460E+03  0.12500440591E+03 0.  0.
    9000005    1    3    3    0    0  0.43176555351E+02 -0.23315400634E+02  0.33868037780E+03  0.34221809003E+03  0.10000000000E+01 0.  0.
    9000005    1    3    3    0    0 -0.43176555351E+02  0.23315400634E+02  0.72550233816E+02  0.87592004575E+02  0.10000000000E+01 0.  0.
<mgrwt>
<rscale>  0 0.12500441E+03</rscale>
<asrwt>0</asrwt>
<pdfrwt beam="1">  1        4 0.64695435E-01 0.12500441E+03</pdfrwt>
<pdfrwt beam="2">  1       -4 0.14291911E-02 0.12500441E+03</pdfrwt>
<totfact> 0.61747211E+03</totfact>
</mgrwt>
</event>
<event>
 5    1  0.3183609E-002  0.1250002E+03  0.7818608E-02  0.1235069E+00
         -4   -1    0    0    0  501 -0.00000000000E+00  0.00000000000E+00  0.36041211231E+02  0.36063580064E+02  0.12700000000E+01 0. -1.
          4   -1    0    0  501    0  0.00000000000E+00 -0.00000000000E+00 -0.10832349256E+03  0.10833093713E+03  0.12700000000E+01 0. -1.
         25    2    1    2    0    0  0.00000000000E+00  0.00000000000E+00 -0.72282281329E+02  0.14439451720E+03  0.12500019361E+03 0.  0.
    9000005    1    3    3    0    0 -0.37929353094E+02  0.23105873312E+02 -0.86925185029E+02  0.97619183566E+02  0.10000000000E+01 0.  0.
    9000005    1    3    3    0    0  0.37929353094E+02 -0.23105873312E+02  0.14642903700E+02  0.46775333632E+02  0.10000000000E+01 0.  0.
<mgrwt>
<rscale>  0 0.12500019E+03</rscale>
<asrwt>0</asrwt>
<pdfrwt beam="2">  1        4 0.16667446E-01 0.12500019E+03</pdfrwt>
<pdfrwt beam="1">  1       -4 0.55470951E-02 0.12500019E+03</pdfrwt>
<totfact> 0.10043261E+04</totfact>
</mgrwt>
</event>
<event>
 5    1  0.3183609E-002  0.1249995E+03  0.7818608E-02  0.1235070E+00
          4   -1    0    0  501    0  0.00000000000E+00  0.00000000000E+00  0.71706432437E+02  0.71717678106E+02  0.12700000000E+01 0. -1.
         -4   -1    0    0    0  501 -0.00000000000E+00 -0.00000000000E+00 -0.54452214238E+02  0.54467022458E+02  0.12700000000E+01 0. -1.
         25    2    1    2    0    0  0.00000000000E+00  0.00000000000E+00  0.17254218199E+02  0.12618470056E+03  0.12499948244E+03 0.  0.
    9000005    1    3    3    0    0  0.56127326400E+02  0.47911377819E+01 -0.18684660444E+02  0.59357799032E+02  0.10000000000E+01 0.  0.
    9000005    1    3    3    0    0 -0.56127326400E+02 -0.47911377819E+01  0.35938878644E+02  0.66826901531E+02  0.10000000000E+01 0.  0.
<mgrwt>
<rscale>  0 0.12499948E+03</rscale>
<asrwt>0</asrwt>
<pdfrwt beam="1">  1        4 0.11033763E-01 0.12499948E+03</pdfrwt>
<pdfrwt beam="2">  1       -4 0.83792679E-02 0.12499948E+03</pdfrwt>
<totfact> 0.10427035E+04</totfact>
</mgrwt>
</event>
<event>
 5    1  0.3183609E-002  0.1249956E+03  0.7818608E-02  0.1235076E+00
         -4   -1    0    0    0  501 -0.00000000000E+00  0.00000000000E+00  0.99659251700E+02  0.99667343445E+02  0.12700000000E+01 0.  1.
          4   -1    0    0  501    0  0.00000000000E+00 -0.00000000000E+00 -0.39173329412E+02  0.39193910717E+02  0.12700000000E+01 0.  1.
         25    2    1    2    0    0  0.00000000000E+00  0.00000000000E+00  0.60485922288E+02  0.13886125416E+03  0.12499560437E+03 0.  0.
    9000005    1    3    3    0    0  0.35261133451E+02 -0.33334098645E+02 -0.13500929985E+02  0.50376430751E+02  0.10000000000E+01 0.  0.
    9000005    1    3    3    0    0 -0.35261133451E+02  0.33334098645E+02  0.73986852273E+02  0.88484823410E+02  0.10000000000E+01 0.  0.
<mgrwt>
<rscale>  0 0.12499560E+03</rscale>
<asrwt>0</asrwt>
<pdfrwt beam="2">  1        4 0.60288718E-02 0.12499560E+03</pdfrwt>
<pdfrwt beam="1">  1       -4 0.15334398E-01 0.12499560E+03</pdfrwt>
<totfact> 0.10158248E+04</totfact>
</mgrwt>
</event>
<event>
 5    1  0.3183609E-002  0.1249915E+03  0.7818608E-02  0.1235083E+00
          4   -1    0    0  501    0  0.00000000000E+00  0.00000000000E+00  0.41362592870E+02  0.41382085362E+02  0.12700000000E+01 0. -1.
         -4   -1    0    0    0  501 -0.00000000000E+00 -0.00000000000E+00 -0.94380360735E+02  0.94388905028E+02  0.12700000000E+01 0. -1.
         25    2    1    2    0    0  0.00000000000E+00  0.00000000000E+00 -0.53017767865E+02  0.13577099039E+03  0.12499151220E+03 0.  0.
    9000005    1    3    3    0    0  0.34453648646E+02  0.42639696189E+02 -0.59087478316E+02  0.80607243408E+02  0.10000000000E+01 0.  0.
    9000005    1    3    3    0    0 -0.34453648646E+02 -0.42639696189E+02  0.60697104515E+01  0.55163746982E+02  0.10000000000E+01 0.  0.
<mgrwt>
<rscale>  0 0.12499151E+03</rscale>
<asrwt>0</asrwt>
<pdfrwt beam="1">  1        4 0.63656325E-02 0.12499151E+03</pdfrwt>
<pdfrwt beam="2">  1       -4 0.14522212E-01 0.12499151E+03</pdfrwt>
<totfact> 0.10223803E+04</totfact>
</mgrwt>
</event>
<event>
 5    1  0.3183609E-002  0.1250012E+03  0.7818608E-02  0.1235067E+00
         -4   -1    0    0    0  501 -0.00000000000E+00  0.00000000000E+00  0.14779538965E+03  0.14780084608E+03  0.12700000000E+01 0. -1.
          4   -1    0    0  501    0  0.00000000000E+00 -0.00000000000E+00 -0.26409409076E+02  0.26439927907E+02  0.12700000000E+01 0. -1.
         25    2    1    2    0    0  0.00000000000E+00  0.00000000000E+00  0.12138598057E+03  0.17424077399E+03  0.12500116415E+03 0.  0.
    9000005    1    3    3    0    0  0.76833873066E+00 -0.58917943850E+02  0.89712117739E+02  0.10733675289E+03  0.10000000000E+01 0.  0.
    9000005    1    3    3    0    0 -0.76833873066E+00  0.58917943850E+02  0.31673862835E+02  0.66904021096E+02  0.10000000000E+01 0.  0.
<mgrwt>
<rscale>  0 0.12500116E+03</rscale>
<asrwt>0</asrwt>
<pdfrwt beam="2">  1        4 0.40657534E-02 0.12500116E+03</pdfrwt>
<pdfrwt beam="1">  1       -4 0.22740519E-01 0.12500116E+03</pdfrwt>
<totfact> 0.94661603E+03</totfact>
</mgrwt>
</event>
<event>
 5    1  0.3183609E-002  0.1250115E+03  0.7818608E-02  0.1235051E+00
         -4   -1    0    0    0  501 -0.00000000000E+00  0.00000000000E+00  0.13621663617E+03  0.13622255639E+03  0.12700000000E+01 0.  1.
          4   -1    0    0  501    0  0.00000000000E+00 -0.00000000000E+00 -0.28661410913E+02  0.28689534250E+02  0.12700000000E+01 0.  1.
         25    2    1    2    0    0  0.00000000000E+00  0.00000000000E+00  0.10755522525E+03  0.16491209064E+03  0.12501148411E+03 0.  0.
    9000005    1    3    3    0    0  0.10445048835E+02 -0.32078088497E+02 -0.15624874942E+02  0.37191928207E+02  0.10000000000E+01 0.  0.
    9000005    1    3    3    0    0 -0.10445048835E+02  0.32078088497E+02  0.12318010020E+03  0.12772016243E+03  0.10000000000E+01 0.  0.
<mgrwt>
<rscale>  0 0.12501148E+03</rscale>
<asrwt>0</asrwt>
<pdfrwt beam="2">  1        4 0.44120666E-02 0.12501148E+03</pdfrwt>
<pdfrwt beam="1">  1       -4 0.20959024E-01 0.12501148E+03</pdfrwt>
<totfact> 0.96379176E+03</totfact>
</mgrwt>
</event>
<event>
 5    1  0.3183609E-002  0.1250008E+03  0.7818608E-02  0.1235068E+00
          4   -1    0    0  501    0  0.00000000000E+00  0.00000000000E+00  0.87443932282E+02  0.87453154276E+02  0.12700000000E+01 0. -1.
         -4   -1    0    0    0  501 -0.00000000000E+00 -0.00000000000E+00 -0.44651419670E+02  0.44669477034E+02  0.12700000000E+01 0. -1.
         25    2    1    2    0    0  0.00000000000E+00  0.00000000000E+00  0.42792512612E+02  0.13212263131E+03  0.12500076227E+03 0.  0.
    9000005    1    3    3    0    0 -0.25808912739E+01  0.57259678617E+02 -0.49214742216E+01  0.57537402649E+02  0.10000000000E+01 0.  0.
    9000005    1    3    3    0    0  0.25808912739E+01 -0.57259678617E+02  0.47713986834E+02  0.74585228662E+02  0.10000000000E+01 0.  0.
<mgrwt>
<rscale>  0 0.12500076E+03</rscale>
<asrwt>0</asrwt>
<pdfrwt beam="1">  1        4 0.13455011E-01 0.12500076E+03</pdfrwt>
<pdfrwt beam="2">  1       -4 0.68715476E-02 0.12500076E+03</pdfrwt>
<totfact> 0.10298905E+04</totfact>
</mgrwt>
</event>
<event>
 5    1  0.3183609E-002  0.1249990E+03  0.7818608E-02  0.1235071E+00
          4   -1    0    0  501    0  0.00000000000E+00  0.00000000000E+00  0.85015065441E+02  0.85024550877E+02  0.12700000000E+01 0.  1.
         -4   -1    0    0    0  501 -0.00000000000E+00 -0.00000000000E+00 -0.45926205186E+02  0.45943761522E+02  0.12700000000E+01 0.  1.
         25    2    1    2    0    0  0.00000000000E+00  0.00000000000E+00  0.39088860254E+02  0.13096831240E+03  0.12499903942E+03 0.  0.
    9000005    1    3    3    0    0 -0.12934927179E+02  0.60288932134E+02  0.89045724183E+01  0.62308579578E+02  0.10000000000E+01 0.  0.
    9000005    1    3    3    0    0  0.12934927179E+02 -0.60288932134E+02  0.30184287836E+02  0.68659732822E+02  0.10000000000E+01 0.  0.
<mgrwt>
<rscale>  0 0.12499904E+03</rscale>
<asrwt>0</asrwt>
<pdfrwt beam="1">  1        4 0.13081321E-01 0.12499904E+03</pdfrwt>
<pdfrwt beam="2">  1       -4 0.70676503E-02 0.12499904E+03</pdfrwt>
<totfact> 0.10323992E+04</totfact>
</mgrwt>
</event>
<event>
 5    1  0.3183609E-002  0.1250013E+03  0.7818608E-02  0.1235067E+00
          4   -1    0    0  501    0  0.00000000000E+00  0.00000000000E+00  0.29012911924E+03  0.29013189885E+03  0.12700000000E+01 0.  1.
         -4   -1    0    0    0  501 -0.00000000000E+00 -0.00000000000E+00 -0.13431305170E+02  0.13491214125E+02  0.12700000000E+01 0.  1.
         25    2    1    2    0    0  0.00000000000E+00  0.00000000000E+00  0.27669781407E+03  0.30362311297E+03  0.12500125768E+03 0.  0.
    9000005    1    3    3    0    0  0.36696222786E+02  0.44221643865E+02  0.78695198033E+02  0.97447938646E+02  0.10000000000E+01 0.  0.
    9000005    1    3    3    0    0 -0.36696222786E+02 -0.44221643865E+02  0.19800261603E+03  0.20617517433E+03  0.10000000000E+01 0.  0.
<mgrwt>
<rscale>  0 0.12500126E+03</rscale>
<asrwt>0</asrwt>
<pdfrwt beam="1">  1        4 0.44640072E-01 0.12500126E+03</pdfrwt>
<pdfrwt beam="2">  1       -4 0.20711768E-02 0.12500126E+03</pdfrwt>
<totfact> 0.75144498E+03</totfact>
</mgrwt>
</event>
<event>
 5    1  0.3183609E-002  0.1250010E+03  0.7818608E-02  0.1235068E+00
         -4   -1    0    0    0  501 -0.00000000000E+00  0.00000000000E+00  0.36054783365E+03  0.36055007038E+03  0.12700000000E+01 0.  1.
          4   -1    0    0  501    0  0.00000000000E+00 -0.00000000000E+00 -0.10794880489E+02  0.10869330466E+02  0.12700000000E+01 0.  1.
         25    2    1    2    0    0  0.00000000000E+00  0.00000000000E+00  0.34975295316E+03  0.37141940084E+03  0.12500097231E+03 0.  0.
    9000005    1    3    3    0    0 -0.57933449950E+01 -0.60477737753E+02  0.21836272726E+03  0.22665921615E+03  0.10000000000E+01 0.  0.
    9000005    1    3    3    0    0  0.57933449950E+01  0.60477737753E+02  0.13139022590E+03  0.14476018469E+03  0.10000000000E+01 0.  0.
<mgrwt>
<rscale>  0 0.12500097E+03</rscale>
<asrwt>0</asrwt>
<pdfrwt beam="2">  1        4 0.16666500E-02 0.12500097E+03</pdfrwt>
<pdfrwt beam="1">  1       -4 0.55474790E-01 0.12500097E+03</pdfrwt>
<totfact> 0.67429255E+03</totfact>
</mgrwt>
</event>
<event>
 5    1  0.3183609E-002  0.1249983E+03  0.7818608E-02  0.1235072E+00
          4   -1    0    0  501    0  0.00000000000E+00  0.00000000000E+00  0.19801739567E+02  0.19842423992E+02  0.12700000000E+01 0.  1.
         -4   -1    0    0    0  501 -0.00000000000E+00 -0.00000000000E+00 -0.19701741291E+03  0.19702150616E+03  0.12700000000E+01 0.  1.
         25    2    1    2    0    0  0.00000000000E+00  0.00000000000E+00 -0.17721567335E+03  0.21686393016E+03  0.12499827728E+03 0.  0.
    9000005    1    3    3    0    0  0.62261769865E+01  0.26029871464E+02  0.93633780132E+01  0.28372386859E+02  0.10000000000E+01 0.  0.
    9000005    1    3    3    0    0 -0.62261769865E+01 -0.26029871464E+02 -0.18657905136E+03  0.18849154330E+03  0.10000000000E+01 0.  0.
<mgrwt>
<rscale>  0 0.12499828E+03</rscale>
<asrwt>0</asrwt>
<pdfrwt beam="1">  1        4 0.30498660E-02 0.12499828E+03</pdfrwt>
<pdfrwt beam="2">  1       -4 0.30313814E-01 0.12499828E+03</pdfrwt>
<totfact> 0.87370400E+03</totfact>
</mgrwt>
</event>
<event>
 5    1  0.3183609E-002  0.1249976E+03  0.7818608E-02  0.1235073E+00
          4   -1    0    0  501    0  0.00000000000E+00  0.00000000000E+00  0.11889644807E+03  0.11890323067E+03  0.12700000000E+01 0.  1.
         -4   -1    0    0    0  501 -0.00000000000E+00 -0.00000000000E+00 -0.32832973181E+02  0.32857526199E+02  0.12700000000E+01 0.  1.
         25    2    1    2    0    0  0.00000000000E+00  0.00000000000E+00  0.86063474894E+02  0.15176075687E+03  0.12499762244E+03 0.  0.
    9000005    1    3    3    0    0 -0.25410064071E+02  0.27765270752E+02 -0.17534177262E+02  0.41533468291E+02  0.10000000000E+01 0.  0.
    9000005    1    3    3    0    0  0.25410064071E+02 -0.27765270752E+02  0.10359765216E+03  0.11022728858E+03  0.10000000000E+01 0.  0.
<mgrwt>
<rscale>  0 0.12499762E+03</rscale>
<asrwt>0</asrwt>
<pdfrwt beam="1">  1        4 0.18294172E-01 0.12499762E+03</pdfrwt>
<pdfrwt beam="2">  1       -4 0.50536371E-02 0.12499762E+03</pdfrwt>
<totfact> 0.98959163E+03</totfact>
</mgrwt>
</event>
<event>
 5    1  0.3183609E-002  0.1250000E+03  0.7818608E-02  0.1235069E+00
         -4   -1    0    0    0  501 -0.00000000000E+00  0.00000000000E+00  0.28644119523E+03  0.28644401063E+03  0.12700000000E+01 0. -1.
          4   -1    0    0  501    0  0.00000000000E+00 -0.00000000000E+00 -0.13604725216E+02  0.13663873836E+02  0.12700000000E+01 0. -1.
         25    2    1    2    0    0  0.00000000000E+00  0.00000000000E+00  0.27283647002E+03  0.30010788447E+03  0.12500001179E+03 0.  0.
    9000005    1    3    3    0    0  0.15843852628E+02  0.60156791905E+02  0.12213694327E+03  0.13707042055E+03  0.10000000000E+01 0.  0.
    9000005    1    3    3    0    0 -0.15843852628E+02 -0.60156791905E+02  0.15069952675E+03  0.16303746392E+03  0.10000000000E+01 0.  0.
<mgrwt>
<rscale>  0 0.12500001E+03</rscale>
<asrwt>0</asrwt>
<pdfrwt beam="2">  1        4 0.20978012E-02 0.12500001E+03</pdfrwt>
<pdfrwt beam="1">  1       -4 0.44072641E-01 0.12500001E+03</pdfrwt>
<totfact> 0.75585288E+03</totfact>
</mgrwt>
</event>
<event>
 5    1  0.3183609E-002  0.1250009E+03  0.7818608E-02  0.1235068E+00
         -4   -1    0    0    0  501 -0.00000000000E+00  0.00000000000E+00  0.78258839324E+03  0.78258942373E+03  0.12700000000E+01 0.  1.
          4   -1    0    0  501    0  0.00000000000E+00 -0.00000000000E+00 -0.49096843514E+01  0.50712819317E+01  0.12700000000E+01 0.  1.
         25    2    1    2    0    0  0.00000000000E+00  0.00000000000E+00  0.77767870889E+03  0.78766070566E+03  0.12500085194E+03 0.  0.
    9000005    1    3    3    0    0 -0.25679414798E+02 -0.34173933726E+02  0.67608294950E+03  0.67743371978E+03  0.10000000000E+01 0.  0.
    9000005    1    3    3    0    0  0.25679414798E+02  0.34173933726E+02  0.10159575938E+03  0.11022698588E+03  0.10000000000E+01 0.  0.
<mgrwt>
<rscale>  0 0.12500085E+03</rscale>
<asrwt>0</asrwt>
<pdfrwt beam="2">  1        4 0.76784629E-03 0.12500085E+03</pdfrwt>
<pdfrwt beam="1">  1       -4 0.12041066E+00 0.12500085E+03</pdfrwt>
<totfact> 0.38820852E+03</totfact>
</mgrwt>
</event>
<event>
 5    1  0.3183609E-002  0.1249998E+03  0.7818608E-02  0.1235070E+00
         -4   -1    0    0    0  501 -0.00000000000E+00  0.00000000000E+00  0.30089780841E+03  0.30090048854E+03  0.12700000000E+01 0.  1.
          4   -1    0    0  501    0  0.00000000000E+00 -0.00000000000E+00 -0.12948141531E+02  0.13010275520E+02  0.12700000000E+01 0.  1.
         25    2    1    2    0    0  0.00000000000E+00  0.00000000000E+00  0.28794966688E+03  0.31391076406E+03  0.12499982856E+03 0.  0.
    9000005    1    3    3    0    0  0.49413105224E+02  0.18990598452E+02  0.22737617320E+03  0.23345925113E+03  0.10000000000E+01 0.  0.
    9000005    1    3    3    0    0 -0.49413105224E+02 -0.18990598452E+02  0.60573493676E+02  0.80451512935E+02  0.10000000000E+01 0.  0.
<mgrwt>
<rscale>  0 0.12499983E+03</rscale>
<asrwt>0</asrwt>
<pdfrwt beam="2">  1        4 0.19970074E-02 0.12499983E+03</pdfrwt>
<pdfrwt beam="1">  1       -4 0.46296958E-01 0.12499983E+03</pdfrwt>
<totfact> 0.73886538E+03</totfact>
</mgrwt>
</event>
<event>
 5    1  0.3183609E-002  0.1250012E+03  0.7818608E-02  0.1235067E+00
          4   -1    0    0  501    0  0.00000000000E+00  0.00000000000E+00  0.41919956864E+01  0.43801515767E+01  0.12700000000E+01 0. -1.
         -4   -1    0    0    0  501 -0.00000000000E+00 -0.00000000000E+00 -0.91121071102E+03  0.91121159605E+03  0.12700000000E+01 0. -1.
         25    2    1    2    0    0  0.00000000000E+00  0.00000000000E+00 -0.90701871533E+03  0.91559174763E+03  0.12500119343E+03 0.  0.
    9000005    1    3    3    0    0  0.25568383012E+02  0.28056750474E+02 -0.89893001721E+02  0.97584195521E+02  0.10000000000E+01 0.  0.
    9000005    1    3    3    0    0 -0.25568383012E+02 -0.28056750474E+02 -0.81712571361E+03  0.81800755211E+03  0.10000000000E+01 0.  0.
<mgrwt>
<rscale>  0 0.12500119E+03</rscale>
<asrwt>0</asrwt>
<pdfrwt beam="1">  1        4 0.65946475E-03 0.12500119E+03</pdfrwt>
<pdfrwt beam="2">  1       -4 0.14020065E+00 0.12500119E+03</pdfrwt>
<totfact> 0.33569054E+03</totfact>
</mgrwt>
</event>
<event>
 5    1  0.3183609E-002  0.1249998E+03  0.7818608E-02  0.1235070E+00
         -4   -1    0    0    0  501 -0.00000000000E+00  0.00000000000E+00  0.50861577927E+02  0.50877431236E+02  0.12700000000E+01 0. -1.
          4   -1    0    0  501    0  0.00000000000E+00 -0.00000000000E+00 -0.76768303712E+02  0.76778807980E+02  0.12700000000E+01 0. -1.
         25    2    1    2    0    0  0.00000000000E+00  0.00000000000E+00 -0.25906725785E+02  0.12765623922E+03  0.12499982788E+03 0.  0.
    9000005    1    3    3    0    0 -0.23216207736E+02 -0.42128140412E+02 -0.53694337347E+02  0.72096146772E+02  0.10000000000E+01 0.  0.
    9000005    1    3    3    0    0  0.23216207736E+02  0.42128140412E+02  0.27787611562E+02  0.55560092445E+02  0.10000000000E+01 0.  0.
<mgrwt>
<rscale>  0 0.12499983E+03</rscale>
<asrwt>0</asrwt>
<pdfrwt beam="2">  1        4 0.11812536E-01 0.12499983E+03</pdfrwt>
<pdfrwt beam="1">  1       -4 0.78268856E-02 0.12499983E+03</pdfrwt>
<totfact> 0.10394959E+04</totfact>
</mgrwt>
</event>
<event>
 5    1  0.3183609E-002  0.1250043E+03  0.7818608E-02  0.1235062E+00
          4   -1    0    0  501    0  0.00000000000E+00  0.00000000000E+00  0.21816821690E+02  0.21853755024E+02  0.12700000000E+01 0. -1.
         -4   -1    0    0    0  501 -0.00000000000E+00 -0.00000000000E+00 -0.17886944860E+03  0.17887395714E+03  0.12700000000E+01 0. -1.
         25    2    1    2    0    0  0.00000000000E+00  0.00000000000E+00 -0.15705262691E+03  0.20072771216E+03  0.12500434717E+03 0.  0.
    9000005    1    3    3    0    0  0.59489276879E+02  0.70705072722E+01 -0.49956513769E+02  0.78010380108E+02  0.10000000000E+01 0.  0.
    9000005    1    3    3    0    0 -0.59489276879E+02 -0.70705072722E+01 -0.10709611314E+03  0.12271733206E+03  0.10000000000E+01 0.  0.
<mgrwt>
<rscale>  0 0.12500435E+03</rscale>
<asrwt>0</asrwt>
<pdfrwt beam="1">  1        4 0.33596221E-02 0.12500435E+03</pdfrwt>
<pdfrwt beam="2">  1       -4 0.27521564E-01 0.12500435E+03</pdfrwt>
<totfact> 0.90004162E+03</totfact>
</mgrwt>
</event>
<event>
 5    1  0.3183609E-002  0.1249976E+03  0.7818608E-02  0.1235073E+00
         -4   -1    0    0    0  501 -0.00000000000E+00  0.00000000000E+00  0.11109043655E+02  0.11181402010E+02  0.12700000000E+01 0.  1.
          4   -1    0    0  501    0  0.00000000000E+00 -0.00000000000E+00 -0.35039957583E+03  0.35040187734E+03  0.12700000000E+01 0.  1.
         25    2    1    2    0    0  0.00000000000E+00  0.00000000000E+00 -0.33929053218E+03  0.36158327935E+03  0.12499761070E+03 0.  0.
    9000005    1    3    3    0    0 -0.15637697561E+02 -0.35010488748E+01 -0.34436913630E+03  0.34474323339E+03  0.10000000000E+01 0.  0.
    9000005    1    3    3    0    0  0.15637697561E+02  0.35010488748E+01  0.50786041240E+01  0.16840045964E+02  0.10000000000E+01 0.  0.
<mgrwt>
<rscale>  0 0.12499761E+03</rscale>
<asrwt>0</asrwt>
<pdfrwt beam="2">  1        4 0.53913362E-01 0.12499761E+03</pdfrwt>
<pdfrwt beam="1">  1       -4 0.17148270E-02 0.12499761E+03</pdfrwt>
<totfact> 0.68472396E+03</totfact>
</mgrwt>
</event>
<event>
 5    1  0.3183609E-002  0.1249965E+03  0.7818608E-02  0.1235075E+00
         -4   -1    0    0    0  501 -0.00000000000E+00  0.00000000000E+00  0.33884474389E+02  0.33908266022E+02  0.12700000000E+01 0. -1.
          4   -1    0    0  501    0  0.00000000000E+00 -0.00000000000E+00 -0.11520723641E+03  0.11521423619E+03  0.12700000000E+01 0. -1.
         25    2    1    2    0    0  0.00000000000E+00  0.00000000000E+00 -0.81322762017E+02  0.14912250221E+03  0.12499651612E+03 0.  0.
    9000005    1    3    3    0    0  0.19563509957E+02 -0.51618924059E+02 -0.75602375479E+02  0.93616042540E+02  0.10000000000E+01 0.  0.
    9000005    1    3    3    0    0 -0.19563509957E+02  0.51618924059E+02 -0.57203865385E+01  0.55506459669E+02  0.10000000000E+01 0.  0.
<mgrwt>
<rscale>  0 0.12499652E+03</rscale>
<asrwt>0</asrwt>
<pdfrwt beam="2">  1        4 0.17726559E-01 0.12499652E+03</pdfrwt>
<pdfrwt beam="1">  1       -4 0.52153647E-02 0.12499652E+03</pdfrwt>
<totfact> 0.99486703E+03</totfact>
</mgrwt>
</event>
<event>
 5    1  0.3183609E-002  0.1249994E+03  0.7818608E-02  0.1235070E+00
         -4   -1    0    0    0  501 -0.00000000000E+00  0.00000000000E+00  0.23507537148E+02  0.23541818170E+02  0.12700000000E+01 0. -1.
          4   -1    0    0  501    0  0.00000000000E+00 -0.00000000000E+00 -0.16601073448E+03  0.16601559223E+03  0.12700000000E+01 0. -1.
         25    2    1    2    0    0  0.00000000000E+00  0.00000000000E+00 -0.14250319733E+03  0.18955741040E+03  0.12499940235E+03 0.  0.
    9000005    1    3    3    0    0 -0.54315707881E+02  0.28218626792E+02 -0.90357008351E+02  0.10914154103E+03  0.10000000000E+01 0.  0.
    9000005    1    3    3    0    0  0.54315707881E+02 -0.28218626792E+02 -0.52146188984E+02  0.80415869368E+02  0.10000000000E+01 0.  0.
<mgrwt>
<rscale>  0 0.12499940E+03</rscale>
<asrwt>0</asrwt>
<pdfrwt beam="2">  1        4 0.25543123E-01 0.12499940E+03</pdfrwt>
<pdfrwt beam="1">  1       -4 0.36195550E-02 0.12499940E+03</pdfrwt>
<totfact> 0.91925612E+03</totfact>
</mgrwt>
</event>
<event>
 5    1  0.3183609E-002  0.1249990E+03  0.7818608E-02  0.1235071E+00
         -4   -1    0    0    0  501 -0.00000000000E+00  0.00000000000E+00  0.22494323997E+04  0.22494327582E+04  0.12700000000E+01 0.  1.
          4   -1    0    0  501    0  0.00000000000E+00 -0.00000000000E+00 -0.15039109706E+01  0.19684126111E+01  0.12700000000E+01 0.  1.
         25    2    1    2    0    0  0.00000000000E+00  0.00000000000E+00  0.22479284887E+04  0.22514011708E+04  0.12499896617E+03 0.  0.
    9000005    1    3    3    0    0  0.35743469331E+02 -0.15156067785E+02  0.20059478178E+04  0.20063237400E+04  0.10000000000E+01 0.  0.
    9000005    1    3    3    0    0 -0.35743469331E+02  0.15156067785E+02  0.24198067087E+03  0.24507743075E+03  0.10000000000E+01 0.  0.
<mgrwt>
<rscale>  0 0.12499897E+03</rscale>
<asrwt>0</asrwt>
<pdfrwt beam="2">  1        4 0.26712856E-03 0.12499897E+03</pdfrwt>
<pdfrwt beam="1">  1       -4 0.34610336E+00 0.12499897E+03</pdfrwt>
<totfact> 0.69264650E+02</totfact>
</mgrwt>
</event>
<event>
 5    1  0.3183609E-002  0.1250092E+03  0.7818608E-02  0.1235055E+00
         -4   -1    0    0    0  501 -0.00000000000E+00  0.00000000000E+00  0.53735650030E+02  0.53750655663E+02  0.12700000000E+01 0. -1.
          4   -1    0    0  501    0  0.00000000000E+00 -0.00000000000E+00 -0.72673867327E+02  0.72684963316E+02  0.12700000000E+01 0. -1.
         25    2    1    2    0    0  0.00000000000E+00  0.00000000000E+00 -0.18938217297E+02  0.12643561898E+03  0.12500923835E+03 0.  0.
    9000005    1    3    3    0    0  0.26914489882E+02 -0.88913173668E+01  0.46865460201E+02  0.54779710203E+02  0.10000000000E+01 0.  0.
    9000005    1    3    3    0    0 -0.26914489882E+02  0.88913173668E+01 -0.65803677498E+02  0.71655908775E+02  0.10000000000E+01 0.  0.
<mgrwt>
<rscale>  0 0.12500924E+03</rscale>
<asrwt>0</asrwt>
<pdfrwt beam="2">  1        4 0.11182603E-01 0.12500924E+03</pdfrwt>
<pdfrwt beam="1">  1       -4 0.82690309E-02 0.12500924E+03</pdfrwt>
<totfact> 0.10419260E+04</totfact>
</mgrwt>
</event>
<event>
 5    1  0.3183609E-002  0.1249908E+03  0.7818608E-02  0.1235084E+00
         -4   -1    0    0    0  501 -0.00000000000E+00  0.00000000000E+00  0.17269638293E+02  0.17316272889E+02  0.12700000000E+01 0.  1.
          4   -1    0    0  501    0  0.00000000000E+00 -0.00000000000E+00 -0.22580522130E+03  0.22580879272E+03  0.12700000000E+01 0.  1.
         25    2    1    2    0    0  0.00000000000E+00  0.00000000000E+00 -0.20853558301E+03  0.24312506561E+03  0.12499083224E+03 0.  0.
    9000005    1    3    3    0    0  0.53673045945E+02 -0.31858171062E+02 -0.11008312281E+03  0.12655051502E+03  0.10000000000E+01 0.  0.
    9000005    1    3    3    0    0 -0.53673045945E+02  0.31858171062E+02 -0.98452460199E+02  0.11657455058E+03  0.10000000000E+01 0.  0.
<mgrwt>
<rscale>  0 0.12499083E+03</rscale>
<asrwt>0</asrwt>
<pdfrwt beam="2">  1        4 0.34743125E-01 0.12499083E+03</pdfrwt>
<pdfrwt beam="1">  1       -4 0.26607296E-02 0.12499083E+03</pdfrwt>
<totfact> 0.83351166E+03</totfact>
</mgrwt>
</event>
<event>
 5    1  0.3183609E-002  0.1250015E+03  0.7818608E-02  0.1235067E+00
          4   -1    0    0  501    0  0.00000000000E+00  0.00000000000E+00  0.37116508924E+02  0.37138230097E+02  0.12700000000E+01 0.  1.
         -4   -1    0    0    0  501 -0.00000000000E+00 -0.00000000000E+00 -0.10518904893E+03  0.10519671533E+03  0.12700000000E+01 0.  1.
         25    2    1    2    0    0  0.00000000000E+00  0.00000000000E+00 -0.68072540011E+02  0.14233494543E+03  0.12500146393E+03 0.  0.
    9000005    1    3    3    0    0  0.94385897474E+01  0.61189095925E+02 -0.43708169576E+02  0.75793116602E+02  0.10000000000E+01 0.  0.
    9000005    1    3    3    0    0 -0.94385897474E+01 -0.61189095925E+02 -0.24364370434E+02  0.66541828823E+02  0.10000000000E+01 0.  0.
<mgrwt>
<rscale>  0 0.12500146E+03</rscale>
<asrwt>0</asrwt>
<pdfrwt beam="1">  1        4 0.57124928E-02 0.12500146E+03</pdfrwt>
<pdfrwt beam="2">  1       -4 0.16185191E-01 0.12500146E+03</pdfrwt>
<totfact> 0.10085088E+04</totfact>
</mgrwt>
</event>
<event>
 5    1  0.3183609E-002  0.1250005E+03  0.7818608E-02  0.1235069E+00
         -4   -1    0    0    0  501 -0.00000000000E+00  0.00000000000E+00  0.38211501428E+03  0.38211712476E+03  0.12700000000E+01 0. -1.
          4   -1    0    0  501    0  0.00000000000E+00 -0.00000000000E+00 -0.10181193319E+02  0.10260097339E+02  0.12700000000E+01 0. -1.
         25    2    1    2    0    0  0.00000000000E+00  0.00000000000E+00  0.37193382096E+03  0.39237722210E+03  0.12500046900E+03 0.  0.
    9000005    1    3    3    0    0 -0.49035509790E+02 -0.11371431937E+01  0.64413792217E+02  0.80968579973E+02  0.10000000000E+01 0.  0.
    9000005    1    3    3    0    0  0.49035509790E+02  0.11371431937E+01  0.30752002874E+03  0.31140864213E+03  0.10000000000E+01 0.  0.
<mgrwt>
<rscale>  0 0.12500047E+03</rscale>
<asrwt>0</asrwt>
<pdfrwt beam="2">  1        4 0.15725692E-02 0.12500047E+03</pdfrwt>
<pdfrwt beam="1">  1       -4 0.58793163E-01 0.12500047E+03</pdfrwt>
<totfact> 0.65300303E+03</totfact>
</mgrwt>
</event>
<event>
 5    1  0.3183609E-002  0.1250492E+03  0.7818608E-02  0.1234992E+00
          4   -1    0    0  501    0  0.00000000000E+00  0.00000000000E+00  0.27033551975E+03  0.27033850288E+03  0.12700000000E+01 0. -1.
         -4   -1    0    0    0  501 -0.00000000000E+00 -0.00000000000E+00 -0.14430064046E+02  0.14485843033E+02  0.12700000000E+01 0. -1.
         25    2    1    2    0    0  0.00000000000E+00  0.00000000000E+00  0.25590545571E+03  0.28482434592E+03  0.12504921337E+03 0.  0.
    9000005    1    3    3    0    0  0.47510024660E+02  0.39743798011E+02  0.10868570228E+03  0.12510137411E+03  0.10000000000E+01 0.  0.
    9000005    1    3    3    0    0 -0.47510024660E+02 -0.39743798011E+02  0.14721975343E+03  0.15972297181E+03  0.10000000000E+01 0.  0.
<mgrwt>
<rscale>  0 0.12504921E+03</rscale>
<asrwt>0</asrwt>
<pdfrwt beam="1">  1        4 0.41594601E-01 0.12504921E+03</pdfrwt>
<pdfrwt beam="2">  1       -4 0.22245300E-02 0.12504921E+03</pdfrwt>
<totfact> 0.77458010E+03</totfact>
</mgrwt>
</event>
<event>
 5    1  0.3183609E-002  0.1249945E+03  0.7818608E-02  0.1235078E+00
          4   -1    0    0  501    0  0.00000000000E+00  0.00000000000E+00  0.65438750742E+03  0.65438873979E+03  0.12700000000E+01 0. -1.
         -4   -1    0    0    0  501 -0.00000000000E+00 -0.00000000000E+00 -0.58999922212E+01  0.60351311676E+01  0.12700000000E+01 0. -1.
         25    2    1    2    0    0  0.00000000000E+00  0.00000000000E+00  0.64848751520E+03  0.66042387096E+03  0.12499452774E+03 0.  0.
    9000005    1    3    3    0    0 -0.10563115674E+02  0.60463512137E+02  0.38619798096E+03  0.39104641184E+03  0.10000000000E+01 0.  0.
    9000005    1    3    3    0    0  0.10563115674E+02 -0.60463512137E+02  0.26228953424E+03  0.26937745912E+03  0.10000000000E+01 0.  0.
<mgrwt>
<rscale>  0 0.12499453E+03</rscale>
<asrwt>0</asrwt>
<pdfrwt beam="1">  1        4 0.10068550E+00 0.12499453E+03</pdfrwt>
<pdfrwt beam="2">  1       -4 0.91818114E-03 0.12499453E+03</pdfrwt>
<totfact> 0.45265082E+03</totfact>
</mgrwt>
</event>
<event>
 5    1  0.3183609E-002  0.1249929E+03  0.7818608E-02  0.1235080E+00
          4   -1    0    0  501    0  0.00000000000E+00  0.00000000000E+00  0.87241110798E+02  0.87250354230E+02  0.12700000000E+01 0. -1.
         -4   -1    0    0    0  501 -0.00000000000E+00 -0.00000000000E+00 -0.44749607680E+02  0.44767625439E+02  0.12700000000E+01 0. -1.
         25    2    1    2    0    0  0.00000000000E+00  0.00000000000E+00  0.42491503119E+02  0.13201797967E+03  0.12499287627E+03 0.  0.
    9000005    1    3    3    0    0 -0.17558306745E+02  0.45457365593E+02  0.62561269332E+02  0.79306863781E+02  0.10000000000E+01 0.  0.
    9000005    1    3    3    0    0  0.17558306745E+02 -0.45457365593E+02 -0.20069766213E+02  0.52711115888E+02  0.10000000000E+01 0.  0.
<mgrwt>
<rscale>  0 0.12499288E+03</rscale>
<asrwt>0</asrwt>
<pdfrwt beam="1">  1        4 0.13423806E-01 0.12499288E+03</pdfrwt>
<pdfrwt beam="2">  1       -4 0.68866521E-02 0.12499288E+03</pdfrwt>
<totfact> 0.10302970E+04</totfact>
</mgrwt>
</event>
<event>
 5    1  0.3183609E-002  0.1249987E+03  0.7818608E-02  0.1235071E+00
         -4   -1    0    0    0  501 -0.00000000000E+00  0.00000000000E+00  0.28200344099E+03  0.28200630069E+03  0.12700000000E+01 0. -1.
          4   -1    0    0  501    0  0.00000000000E+00 -0.00000000000E+00 -0.13819448782E+02  0.13877682251E+02  0.12700000000E+01 0. -1.
         25    2    1    2    0    0  0.00000000000E+00  0.00000000000E+00  0.26818399220E+03  0.29588398294E+03  0.12499871074E+03 0.  0.
    9000005    1    3    3    0    0 -0.17309127965E+02  0.49037952166E+02  0.21611940519E+03  0.22229017964E+03  0.10000000000E+01 0.  0.
    9000005    1    3    3    0    0  0.17309127965E+02 -0.49037952166E+02  0.52064587015E+02  0.73593803303E+02  0.10000000000E+01 0.  0.
<mgrwt>
<rscale>  0 0.12499871E+03</rscale>
<asrwt>0</asrwt>
<pdfrwt beam="2">  1        4 0.21307686E-02 0.12499871E+03</pdfrwt>
<pdfrwt beam="1">  1       -4 0.43389843E-01 0.12499871E+03</pdfrwt>
<totfact> 0.76120240E+03</totfact>
</mgrwt>
</event>
<event>
 5    1  0.3183609E-002  0.1249964E+03  0.7818608E-02  0.1235075E+00
          4   -1    0    0  501    0  0.00000000000E+00  0.00000000000E+00  0.10229061574E+02  0.10307599172E+02  0.12700000000E+01 0. -1.
         -4   -1    0    0    0  501 -0.00000000000E+00 -0.00000000000E+00 -0.38031573846E+03  0.38031785893E+03  0.12700000000E+01 0. -1.
         25    2    1    2    0    0  0.00000000000E+00  0.00000000000E+00 -0.37008667688E+03  0.39062545810E+03  0.12499640038E+03 0.  0.
    9000005    1    3    3    0    0 -0.46642231551E+02  0.59645047929E+01 -0.56421835342E+02  0.73454044033E+02  0.10000000000E+01 0.  0.
    9000005    1    3    3    0    0  0.46642231551E+02 -0.59645047929E+01 -0.31366484154E+03  0.31717141407E+03  0.10000000000E+01 0.  0.
<mgrwt>
<rscale>  0 0.12499640E+03</rscale>
<asrwt>0</asrwt>
<pdfrwt beam="1">  1        4 0.15799065E-02 0.12499640E+03</pdfrwt>
<pdfrwt beam="2">  1       -4 0.58516307E-01 0.12499640E+03</pdfrwt>
<totfact> 0.65480084E+03</totfact>
</mgrwt>
</event>
<event>
 5    1  0.3183609E-002  0.1249963E+03  0.7818608E-02  0.1235075E+00
          4   -1    0    0  501    0  0.00000000000E+00  0.00000000000E+00  0.92180707488E+01  0.93051452611E+01  0.12700000000E+01 0.  1.
         -4   -1    0    0    0  501 -0.00000000000E+00 -0.00000000000E+00 -0.42165479437E+03  0.42165670695E+03  0.12700000000E+01 0.  1.
         25    2    1    2    0    0  0.00000000000E+00  0.00000000000E+00 -0.41243672363E+03  0.43096185221E+03  0.12499626822E+03 0.  0.
    9000005    1    3    3    0    0 -0.48754797064E+02 -0.16219533662E+02 -0.32884142311E+03  0.33283296872E+03  0.10000000000E+01 0.  0.
    9000005    1    3    3    0    0  0.48754797064E+02  0.16219533662E+02 -0.83595300512E+02  0.98128883499E+02  0.10000000000E+01 0.  0.
<mgrwt>
<rscale>  0 0.12499627E+03</rscale>
<asrwt>0</asrwt>
<pdfrwt beam="1">  1        4 0.14250102E-02 0.12499627E+03</pdfrwt>
<pdfrwt beam="2">  1       -4 0.64876799E-01 0.12499627E+03</pdfrwt>
<totfact> 0.61653981E+03</totfact>
</mgrwt>
</event>
<event>
 5    1  0.3183609E-002  0.1250003E+03  0.7818608E-02  0.1235069E+00
         -4   -1    0    0    0  501 -0.00000000000E+00  0.00000000000E+00  0.12844252231E+04  0.12844258510E+04  0.12700000000E+01 0.  1.
          4   -1    0    0  501    0  0.00000000000E+00 -0.00000000000E+00 -0.29080183292E+01  0.31732429158E+01  0.12700000000E+01 0.  1.
         25    2    1    2    0    0  0.00000000000E+00  0.00000000000E+00  0.12815172048E+04  0.12875990939E+04  0.12500032179E+03 0.  0.
    9000005    1    3    3    0    0  0.30538745728E+01  0.28520336005E+02  0.12126630803E+04  0.12130026719E+04  0.10000000000E+01 0.  0.
    9000005    1    3    3    0    0 -0.30538745728E+01 -0.28520336005E+02  0.68854124442E+02  0.74596421954E+02  0.10000000000E+01 0.  0.
<mgrwt>
<rscale>  0 0.12500032E+03</rscale>
<asrwt>0</asrwt>
<pdfrwt beam="2">  1        4 0.46783793E-03 0.12500032E+03</pdfrwt>
<pdfrwt beam="1">  1       -4 0.19762420E+00 0.12500032E+03</pdfrwt>
<totfact> 0.22522965E+03</totfact>
</mgrwt>
</event>
<event>
 5    1  0.3183609E-002  0.1249955E+03  0.7818608E-02  0.1235076E+00
         -4   -1    0    0    0  501 -0.00000000000E+00  0.00000000000E+00  0.63595371328E+02  0.63608051018E+02  0.12700000000E+01 0.  1.
          4   -1    0    0  501    0  0.00000000000E+00 -0.00000000000E+00 -0.61393738009E+02  0.61406872308E+02  0.12700000000E+01 0.  1.
         25    2    1    2    0    0  0.00000000000E+00  0.00000000000E+00  0.22016333196E+01  0.12501492333E+03  0.12499553538E+03 0.  0.
    9000005    1    3    3    0    0 -0.17024230979E+01 -0.51356071944E+02  0.36667921364E+02  0.63133832665E+02  0.10000000000E+01 0.  0.
    9000005    1    3    3    0    0  0.17024230979E+01  0.51356071944E+02 -0.34466288044E+02  0.61881090661E+02  0.10000000000E+01 0.  0.
<mgrwt>
<rscale>  0 0.12499554E+03</rscale>
<asrwt>0</asrwt>
<pdfrwt beam="2">  1        4 0.94471762E-02 0.12499554E+03</pdfrwt>
<pdfrwt beam="1">  1       -4 0.97858890E-02 0.12499554E+03</pdfrwt>
<totfact> 0.10453593E+04</totfact>
</mgrwt>
</event>
<event>
 5    1  0.3183609E-002  0.1249967E+03  0.7818608E-02  0.1235074E+00
         -4   -1    0    0    0  501 -0.00000000000E+00  0.00000000000E+00  0.68776845908E+02  0.68788570511E+02  0.12700000000E+01 0. -1.
          4   -1    0    0  501    0  0.00000000000E+00 -0.00000000000E+00 -0.56769336976E+02  0.56783540932E+02  0.12700000000E+01 0. -1.
         25    2    1    2    0    0  0.00000000000E+00  0.00000000000E+00  0.12007508931E+02  0.12557211144E+03  0.12499669956E+03 0.  0.
    9000005    1    3    3    0    0  0.68951248502E+00  0.57633554334E+02  0.30259086111E+02  0.65105409183E+02  0.10000000000E+01 0.  0.
    9000005    1    3    3    0    0 -0.68951248502E+00 -0.57633554334E+02 -0.18251577179E+02  0.60466702260E+02  0.10000000000E+01 0.  0.
<mgrwt>
<rscale>  0 0.12499670E+03</rscale>
<asrwt>0</asrwt>
<pdfrwt beam="2">  1        4 0.87357387E-02 0.12499670E+03</pdfrwt>
<pdfrwt beam="1">  1       -4 0.10583048E-01 0.12499670E+03</pdfrwt>
<totfact> 0.10441139E+04</totfact>
</mgrwt>
</event>
<event>
 5    1  0.3183609E-002  0.1249959E+03  0.7818608E-02  0.1235076E+00
         -4   -1    0    0    0  501 -0.00000000000E+00  0.00000000000E+00  0.26808147266E+02  0.26838212680E+02  0.12700000000E+01 0.  1.
          4   -1    0    0  501    0  0.00000000000E+00 -0.00000000000E+00 -0.14558731160E+03  0.14559285078E+03  0.12700000000E+01 0.  1.
         25    2    1    2    0    0  0.00000000000E+00  0.00000000000E+00 -0.11877916433E+03  0.17243106346E+03  0.12499592700E+03 0.  0.
    9000005    1    3    3    0    0 -0.19223321254E+02  0.54444070331E+02 -0.92362147154E+02  0.10892868815E+03  0.10000000000E+01 0.  0.
    9000005    1    3    3    0    0  0.19223321254E+02 -0.54444070331E+02 -0.26417017181E+02  0.63502375317E+02  0.10000000000E+01 0.  0.
<mgrwt>
<rscale>  0 0.12499593E+03</rscale>
<asrwt>0</asrwt>
<pdfrwt beam="2">  1        4 0.22400786E-01 0.12499593E+03</pdfrwt>
<pdfrwt beam="1">  1       -4 0.41270692E-02 0.12499593E+03</pdfrwt>
<totfact> 0.95006135E+03</totfact>
</mgrwt>
</event>
<event>
 5    1  0.3183609E-002  0.1249987E+03  0.7818608E-02  0.1235071E+00
         -4   -1    0    0    0  501 -0.00000000000E+00  0.00000000000E+00  0.49299275951E+02  0.49315631491E+02  0.12700000000E+01 0. -1.
          4   -1    0    0  501    0  0.00000000000E+00 -0.00000000000E+00 -0.79199169545E+02  0.79209351447E+02  0.12700000000E+01 0. -1.
         25    2    1    2    0    0  0.00000000000E+00  0.00000000000E+00 -0.29899893594E+02  0.12852498294E+03  0.12499867040E+03 0.  0.
    9000005    1    3    3    0    0 -0.57353674392E+02 -0.76022642140E+01 -0.39236810735E+02  0.69912557556E+02  0.10000000000E+01 0.  0.
    9000005    1    3    3    0    0  0.57353674392E+02  0.76022642140E+01  0.93369171407E+01  0.58612425382E+02  0.10000000000E+01 0.  0.
<mgrwt>
<rscale>  0 0.12499867E+03</rscale>
<asrwt>0</asrwt>
<pdfrwt beam="2">  1        4 0.12186529E-01 0.12499867E+03</pdfrwt>
<pdfrwt beam="1">  1       -4 0.75865453E-02 0.12499867E+03</pdfrwt>
<totfact> 0.10376477E+04</totfact>
</mgrwt>
</event>
<event>
 5    1  0.3183609E-002  0.1250005E+03  0.7818608E-02  0.1235068E+00
         -4   -1    0    0    0  501 -0.00000000000E+00  0.00000000000E+00  0.39003676296E+02  0.39024347075E+02  0.12700000000E+01 0. -1.
          4   -1    0    0  501    0  0.00000000000E+00 -0.00000000000E+00 -0.10010042967E+03  0.10010848575E+03  0.12700000000E+01 0. -1.
         25    2    1    2    0    0  0.00000000000E+00  0.00000000000E+00 -0.61096753372E+02  0.13913283283E+03  0.12500052759E+03 0.  0.
    9000005    1    3    3    0    0  0.82882729895E+01  0.56829077104E+02 -0.31245731734E+01  0.57523929205E+02  0.10000000000E+01 0.  0.
    9000005    1    3    3    0    0 -0.82882729895E+01 -0.56829077104E+02 -0.57972180199E+02  0.81608903623E+02  0.10000000000E+01 0.  0.
<mgrwt>
<rscale>  0 0.12500053E+03</rscale>
<asrwt>0</asrwt>
<pdfrwt beam="2">  1        4 0.15402276E-01 0.12500053E+03</pdfrwt>
<pdfrwt beam="1">  1       -4 0.60027754E-02 0.12500053E+03</pdfrwt>
<totfact> 0.10151469E+04</totfact>
</mgrwt>
</event>
<event>
 5    1  0.3183609E-002  0.1250081E+03  0.7818608E-02  0.1235057E+00
          4   -1    0    0  501    0  0.00000000000E+00  0.00000000000E+00  0.55083777792E+02  0.55098416273E+02  0.12700000000E+01 0.  1.
         -4   -1    0    0    0  501 -0.00000000000E+00 -0.00000000000E+00 -0.70894187226E+02  0.70905561717E+02  0.12700000000E+01 0.  1.
         25    2    1    2    0    0  0.00000000000E+00  0.00000000000E+00 -0.15810409434E+02  0.12600397799E+03  0.12500813343E+03 0.  0.
    9000005    1    3    3    0    0 -0.60405382330E+01  0.14741783048E+02 -0.68817982118E+02  0.70645048888E+02  0.10000000000E+01 0.  0.
    9000005    1    3    3    0    0  0.60405382330E+01 -0.14741783048E+02  0.53007572684E+02  0.55358929103E+02  0.10000000000E+01 0.  0.
<mgrwt>
<rscale>  0 0.12500813E+03</rscale>
<asrwt>0</asrwt>
<pdfrwt beam="1">  1        4 0.84764283E-02 0.12500813E+03</pdfrwt>
<pdfrwt beam="2">  1       -4 0.10908799E-01 0.12500813E+03</pdfrwt>
<totfact> 0.10428955E+04</totfact>
</mgrwt>
</event>
<event>
 5    1  0.3183609E-002  0.1250029E+03  0.7818608E-02  0.1235065E+00
          4   -1    0    0  501    0  0.00000000000E+00  0.00000000000E+00  0.87131935253E+02  0.87141190265E+02  0.12700000000E+01 0.  1.
         -4   -1    0    0    0  501 -0.00000000000E+00 -0.00000000000E+00 -0.44812879927E+02  0.44830872257E+02  0.12700000000E+01 0.  1.
         25    2    1    2    0    0  0.00000000000E+00  0.00000000000E+00  0.42319055326E+02  0.13197206252E+03  0.12500289134E+03 0.  0.
    9000005    1    3    3    0    0  0.14012218179E+02 -0.33104088741E+01 -0.43043130850E+02  0.45398371981E+02  0.10000000000E+01 0.  0.
    9000005    1    3    3    0    0 -0.14012218179E+02  0.33104088741E+01  0.85362186176E+02  0.86573690541E+02  0.10000000000E+01 0.  0.
<mgrwt>
<rscale>  0 0.12500289E+03</rscale>
<asrwt>0</asrwt>
<pdfrwt beam="1">  1        4 0.13407009E-01 0.12500289E+03</pdfrwt>
<pdfrwt beam="2">  1       -4 0.68963853E-02 0.12500289E+03</pdfrwt>
<totfact> 0.10301623E+04</totfact>
</mgrwt>
</event>
<event>
 5    1  0.3183609E-002  0.1249951E+03  0.7818608E-02  0.1235077E+00
         -4   -1    0    0    0  501 -0.00000000000E+00  0.00000000000E+00  0.48107268561E+02  0.48124029220E+02  0.12700000000E+01 0.  1.
          4   -1    0    0  501    0  0.00000000000E+00 -0.00000000000E+00 -0.81156563246E+02  0.81166499603E+02  0.12700000000E+01 0.  1.
         25    2    1    2    0    0  0.00000000000E+00  0.00000000000E+00 -0.33049294685E+02  0.12929052882E+03  0.12499513976E+03 0.  0.
    9000005    1    3    3    0    0 -0.54847144894E+02  0.27328526773E+02 -0.29188266247E+02  0.67882343545E+02  0.10000000000E+01 0.  0.
    9000005    1    3    3    0    0  0.54847144894E+02 -0.27328526773E+02 -0.38610284384E+01  0.61408185279E+02  0.10000000000E+01 0.  0.
<mgrwt>
<rscale>  0 0.12499514E+03</rscale>
<asrwt>0</asrwt>
<pdfrwt beam="2">  1        4 0.12487679E-01 0.12499514E+03</pdfrwt>
<pdfrwt beam="1">  1       -4 0.74031719E-02 0.12499514E+03</pdfrwt>
<totfact> 0.10360845E+04</totfact>
</mgrwt>
</event>
<event>
 5    1  0.3183609E-002  0.1250001E+03  0.7818608E-02  0.1235069E+00
         -4   -1    0    0    0  501 -0.00000000000E+00  0.00000000000E+00  0.14425207066E+03  0.14425766112E+03  0.12700000000E+01 0. -1.
          4   -1    0    0  501    0  0.00000000000E+00 -0.00000000000E+00 -0.27058366490E+02  0.27088154184E+02  0.12700000000E+01 0. -1.
         25    2    1    2    0    0  0.00000000000E+00  0.00000000000E+00  0.11719370417E+03  0.17134581530E+03  0.12500009649E+03 0.  0.
    9000005    1    3    3    0    0  0.40399033425E+02 -0.67724046397E+01 -0.60955619385E+01  0.41425876474E+02  0.10000000000E+01 0.  0.
    9000005    1    3    3    0    0 -0.40399033425E+02  0.67724046397E+01  0.12328926611E+03  0.12991993883E+03  0.10000000000E+01 0.  0.
<mgrwt>
<rscale>  0 0.12500010E+03</rscale>
<asrwt>0</asrwt>
<pdfrwt beam="2">  1        4 0.41655471E-02 0.12500010E+03</pdfrwt>
<pdfrwt beam="1">  1       -4 0.22195347E-01 0.12500010E+03</pdfrwt>
<totfact> 0.95198182E+03</totfact>
</mgrwt>
</event>
<event>
 5    1  0.3183609E-002  0.1249953E+03  0.7818608E-02  0.1235077E+00
         -4   -1    0    0    0  501 -0.00000000000E+00  0.00000000000E+00  0.97995915744E+02  0.98004144823E+02  0.12700000000E+01 0. -1.
          4   -1    0    0  501    0  0.00000000000E+00 -0.00000000000E+00 -0.39838314070E+02  0.39858552005E+02  0.12700000000E+01 0. -1.
         25    2    1    2    0    0  0.00000000000E+00  0.00000000000E+00  0.58157601674E+02  0.13786269683E+03  0.12499526609E+03 0.  0.
    9000005    1    3    3    0    0  0.57152377074E+02  0.12217605734E+02  0.53475798942E+02  0.79223261531E+02  0.10000000000E+01 0.  0.
    9000005    1    3    3    0    0 -0.57152377074E+02 -0.12217605734E+02  0.46818027324E+01  0.58639435297E+02  0.10000000000E+01 0.  0.
<mgrwt>
<rscale>  0 0.12499527E+03</rscale>
<asrwt>0</asrwt>
<pdfrwt beam="2">  1        4 0.61311613E-02 0.12499527E+03</pdfrwt>
<pdfrwt beam="1">  1       -4 0.15078484E-01 0.12499527E+03</pdfrwt>
<totfact> 0.10179162E+04</totfact>
</mgrwt>
</event>
<event>
 5    1  0.3183609E-002  0.1249863E+03  0.7818608E-02  0.1235091E+00
          4   -1    0    0  501    0  0.00000000000E+00  0.00000000000E+00  0.16078036565E+01  0.20488856966E+01  0.12700000000E+01 0.  1.
         -4   -1    0    0    0  501 -0.00000000000E+00 -0.00000000000E+00 -0.21355868194E+04  0.21355871971E+04  0.12700000000E+01 0.  1.
         25    2    1    2    0    0  0.00000000000E+00  0.00000000000E+00 -0.21339790158E+04  0.21376360828E+04  0.12498632932E+03 0.  0.
    9000005    1    3    3    0    0  0.25143084369E+02 -0.11897248568E+02 -0.11003707977E+03  0.11350276710E+03  0.10000000000E+01 0.  0.
    9000005    1    3    3    0    0 -0.25143084369E+02  0.11897248568E+02 -0.20239419360E+04  0.20241333156E+04  0.10000000000E+01 0.  0.
<mgrwt>
<rscale>  0 0.12498633E+03</rscale>
<asrwt>0</asrwt>
<pdfrwt beam="1">  1        4 0.28131455E-03 0.12498633E+03</pdfrwt>
<pdfrwt beam="2">  1       -4 0.32858378E+00 0.12498633E+03</pdfrwt>
<totfact> 0.81726520E+02</totfact>
</mgrwt>
</event>
<event>
 4    1  0.3183609E-002  0.1251046E+03  0.7818608E-02  0.1234906E+00
          4   -1    0    0  501    0  0.00000000000E+00  0.00000000000E+00  0.17471338925E+02  0.17517436566E+02  0.12700000000E+01 0. -1.
         -4   -1    0    0    0  501 -0.00000000000E+00 -0.00000000000E+00 -0.22361166427E+03  0.22361527072E+03  0.12700000000E+01 0. -1.
    9000005    1    1    2    0    0 -0.42996620242E+02 -0.42621386351E+02 -0.72808881736E+02  0.94696489831E+02  0.10000000000E+01 0.  0.
    9000005    1    1    2    0    0  0.42996620242E+02  0.42621386351E+02 -0.13333144361E+03  0.14643621746E+03  0.10000000000E+01 0.  0.
<mgrwt>
<rscale>  0 0.12510455E+03</rscale>
<asrwt>0</asrwt>
<pdfrwt beam="1">  1        4 0.26917218E-02 0.12510455E+03</pdfrwt>
<pdfrwt beam="2">  1       -4 0.34405616E-01 0.12510455E+03</pdfrwt>
<totfact> 0.83434352E+03</totfact>
</mgrwt>
</event>
<event>
 5    1  0.3183609E-002  0.1249972E+03  0.7818608E-02  0.1235074E+00
          4   -1    0    0  501    0  0.00000000000E+00  0.00000000000E+00  0.11700245653E+03  0.11700934891E+03  0.12700000000E+01 0. -1.
         -4   -1    0    0    0  501 -0.00000000000E+00 -0.00000000000E+00 -0.33364585878E+02  0.33388747967E+02  0.12700000000E+01 0. -1.
         25    2    1    2    0    0  0.00000000000E+00  0.00000000000E+00  0.83637870648E+02  0.15039809688E+03  0.12499717652E+03 0.  0.
    9000005    1    3    3    0    0 -0.47839346531E+02 -0.35797840042E+02  0.19797030214E+02  0.62952448987E+02  0.10000000000E+01 0.  0.
    9000005    1    3    3    0    0  0.47839346531E+02  0.35797840042E+02  0.63840840434E+02  0.87445647894E+02  0.10000000000E+01 0.  0.
<mgrwt>
<rscale>  0 0.12499718E+03</rscale>
<asrwt>0</asrwt>
<pdfrwt beam="1">  1        4 0.18002767E-01 0.12499718E+03</pdfrwt>
<pdfrwt beam="2">  1       -4 0.51354020E-02 0.12499718E+03</pdfrwt>
<totfact> 0.99230708E+03</totfact>
</mgrwt>
</event>
<event>
 5    1  0.3183609E-002  0.1249984E+03  0.7818608E-02  0.1235072E+00
          4   -1    0    0  501    0  0.00000000000E+00  0.00000000000E+00  0.75769236294E+03  0.75769342729E+03  0.12700000000E+01 0.  1.
         -4   -1    0    0    0  501 -0.00000000000E+00 -0.00000000000E+00 -0.50760223039E+01  0.52324853014E+01  0.12700000000E+01 0.  1.
         25    2    1    2    0    0  0.00000000000E+00  0.00000000000E+00  0.75261634064E+03  0.76292591259E+03  0.12499836763E+03 0.  0.
    9000005    1    3    3    0    0  0.35733781074E+02  0.13538320547E+01  0.63513422714E+02  0.72895067295E+02  0.10000000000E+01 0.  0.
    9000005    1    3    3    0    0 -0.35733781074E+02 -0.13538320547E+01  0.68910291792E+03  0.69003084530E+03  0.10000000000E+01 0.  0.
<mgrwt>
<rscale>  0 0.12499837E+03</rscale>
<asrwt>0</asrwt>
<pdfrwt beam="1">  1        4 0.11658026E+00 0.12499837E+03</pdfrwt>
<pdfrwt beam="2">  1       -4 0.79304341E-03 0.12499837E+03</pdfrwt>
<totfact> 0.39964791E+03</totfact>
</mgrwt>
</event>
<event>
 5    1  0.3183609E-002  0.1249988E+03  0.7818608E-02  0.1235071E+00
         -4   -1    0    0    0  501 -0.00000000000E+00  0.00000000000E+00  0.29781282917E+03  0.29781553706E+03  0.12700000000E+01 0. -1.
          4   -1    0    0  501    0  0.00000000000E+00 -0.00000000000E+00 -0.13082698745E+02  0.13144196684E+02  0.12700000000E+01 0. -1.
         25    2    1    2    0    0  0.00000000000E+00  0.00000000000E+00  0.28473013042E+03  0.31095973375E+03  0.12499883536E+03 0.  0.
    9000005    1    3    3    0    0  0.47897696361E+02  0.21233762925E+02  0.22709731713E+03  0.23306491253E+03  0.10000000000E+01 0.  0.
    9000005    1    3    3    0    0 -0.47897696361E+02 -0.21233762925E+02  0.57632813290E+02  0.77894821216E+02  0.10000000000E+01 0.  0.
<mgrwt>
<rscale>  0 0.12499884E+03</rscale>
<asrwt>0</asrwt>
<pdfrwt beam="2">  1        4 0.20176619E-02 0.12499884E+03</pdfrwt>
<pdfrwt beam="1">  1       -4 0.45822296E-01 0.12499884E+03</pdfrwt>
<totfact> 0.74246236E+03</totfact>
</mgrwt>
</event>
<event>
 5    1  0.3183609E-002  0.1249980E+03  0.7818608E-02  0.1235072E+00
         -4   -1    0    0    0  501 -0.00000000000E+00  0.00000000000E+00  0.39540876204E+03  0.39541080157E+03  0.12700000000E+01 0.  1.
          4   -1    0    0  501    0  0.00000000000E+00 -0.00000000000E+00 -0.98358070151E+01  0.99174593339E+01  0.12700000000E+01 0.  1.
         25    2    1    2    0    0  0.00000000000E+00  0.00000000000E+00  0.38557295503E+03  0.40532826091E+03  0.12499798175E+03 0.  0.
    9000005    1    3    3    0    0 -0.27576371926E+02 -0.50591304746E+02  0.27122897066E+03  0.27728341265E+03  0.10000000000E+01 0.  0.
    9000005    1    3    3    0    0  0.27576371926E+02  0.50591304746E+02  0.11434398437E+03  0.12804484826E+03  0.10000000000E+01 0.  0.
<mgrwt>
<rscale>  0 0.12499798E+03</rscale>
<asrwt>0</asrwt>
<pdfrwt beam="2">  1        4 0.15196391E-02 0.12499798E+03</pdfrwt>
<pdfrwt beam="1">  1       -4 0.60838546E-01 0.12499798E+03</pdfrwt>
<totfact> 0.64040704E+03</totfact>
</mgrwt>
</event>
<event>
 5    1  0.3183609E-002  0.1249979E+03  0.7818608E-02  0.1235073E+00
          4   -1    0    0  501    0  0.00000000000E+00  0.00000000000E+00  0.67835340849E+02  0.67847228154E+02  0.12700000000E+01 0.  1.
         -4   -1    0    0    0  501 -0.00000000000E+00 -0.00000000000E+00 -0.57558426020E+02  0.57572435296E+02  0.12700000000E+01 0.  1.
         25    2    1    2    0    0  0.00000000000E+00  0.00000000000E+00  0.10276914829E+02  0.12541966345E+03  0.12499790799E+03 0.  0.
    9000005    1    3    3    0    0  0.52130503465E+02 -0.33560641854E+02  0.12988741034E+02  0.63353085693E+02  0.10000000000E+01 0.  0.
    9000005    1    3    3    0    0 -0.52130503465E+02  0.33560641854E+02 -0.27118262051E+01  0.62066577757E+02  0.10000000000E+01 0.  0.
<mgrwt>
<rscale>  0 0.12499791E+03</rscale>
<asrwt>0</asrwt>
<pdfrwt beam="1">  1        4 0.10438198E-01 0.12499791E+03</pdfrwt>
<pdfrwt beam="2">  1       -4 0.88571346E-02 0.12499791E+03</pdfrwt>
<totfact> 0.10444224E+04</totfact>
</mgrwt>
</event>
<event>
 5    1  0.3183609E-002  0.1249979E+03  0.7818608E-02  0.1235073E+00
          4   -1    0    0  501    0  0.00000000000E+00  0.00000000000E+00  0.12230628611E+02  0.12296388747E+02  0.12700000000E+01 0. -1.
         -4   -1    0    0    0  501 -0.00000000000E+00 -0.00000000000E+00 -0.31844851231E+03  0.31845104474E+03  0.12700000000E+01 0. -1.
         25    2    1    2    0    0  0.00000000000E+00  0.00000000000E+00 -0.30621788370E+03  0.33074743348E+03  0.12499788981E+03 0.  0.
    9000005    1    3    3    0    0 -0.42615301581E+02  0.33938700638E+02 -0.72103481638E+02  0.90375944776E+02  0.10000000000E+01 0.  0.
    9000005    1    3    3    0    0  0.42615301581E+02 -0.33938700638E+02 -0.23411440206E+03  0.24037148871E+03  0.10000000000E+01 0.  0.
<mgrwt>
<rscale>  0 0.12499789E+03</rscale>
<asrwt>0</asrwt>
<pdfrwt beam="1">  1        4 0.18868887E-02 0.12499789E+03</pdfrwt>
<pdfrwt beam="2">  1       -4 0.48997326E-01 0.12499789E+03</pdfrwt>
<totfact> 0.71899198E+03</totfact>
</mgrwt>
</event>
<event>
 5    1  0.3183609E-002  0.1250059E+03  0.7818608E-02  0.1235060E+00
         -4   -1    0    0    0  501 -0.00000000000E+00  0.00000000000E+00  0.51334812710E+02  0.51350519920E+02  0.12700000000E+01 0.  1.
          4   -1    0    0  501    0  0.00000000000E+00 -0.00000000000E+00 -0.76068159796E+02  0.76078760733E+02  0.12700000000E+01 0.  1.
         25    2    1    2    0    0  0.00000000000E+00  0.00000000000E+00 -0.24733347085E+02  0.12742928065E+03  0.12500593230E+03 0.  0.
    9000005    1    3    3    0    0  0.53341817357E+02  0.21446416003E+02  0.12609789238E+02  0.58866841455E+02  0.10000000000E+01 0.  0.
    9000005    1    3    3    0    0 -0.53341817357E+02 -0.21446416003E+02 -0.37343136323E+02  0.68562439198E+02  0.10000000000E+01 0.  0.
<mgrwt>
<rscale>  0 0.12500593E+03</rscale>
<asrwt>0</asrwt>
<pdfrwt beam="2">  1        4 0.11704818E-01 0.12500593E+03</pdfrwt>
<pdfrwt beam="1">  1       -4 0.78996872E-02 0.12500593E+03</pdfrwt>
<totfact> 0.10398440E+04</totfact>
</mgrwt>
</event>
<event>
 5    1  0.3183609E-002  0.1249989E+03  0.7818608E-02  0.1235071E+00
         -4   -1    0    0    0  501 -0.00000000000E+00  0.00000000000E+00  0.99606034694E+03  0.99606115658E+03  0.12700000000E+01 0. -1.
          4   -1    0    0  501    0  0.00000000000E+00 -0.00000000000E+00 -0.38179796556E+01  0.40236635857E+01  0.12700000000E+01 0. -1.
         25    2    1    2    0    0  0.00000000000E+00  0.00000000000E+00  0.99224236728E+03  0.10000848202E+04  0.12499892836E+03 0.  0.
    9000005    1    3    3    0    0 -0.12114674032E+02 -0.96961354627E+01  0.98044088975E+03  0.98056418386E+03  0.10000000000E+01 0.  0.
    9000005    1    3    3    0    0  0.12114674032E+02  0.96961354627E+01  0.11801477531E+02  0.19520636304E+02  0.10000000000E+01 0.  0.
<mgrwt>
<rscale>  0 0.12499893E+03</rscale>
<asrwt>0</asrwt>
<pdfrwt beam="2">  1        4 0.60326457E-03 0.12499893E+03</pdfrwt>
<pdfrwt beam="1">  1       -4 0.15325620E+00 0.12499893E+03</pdfrwt>
<totfact> 0.30602340E+03</totfact>
</mgrwt>
</event>
<event>
 5    1  0.3183609E-002  0.1249991E+03  0.7818608E-02  0.1235071E+00
          4   -1    0    0  501    0  0.00000000000E+00  0.00000000000E+00  0.16608286223E+03  0.16608771786E+03  0.12700000000E+01 0.  1.
         -4   -1    0    0    0  501 -0.00000000000E+00 -0.00000000000E+00 -0.23497196059E+02  0.23531492146E+02  0.12700000000E+01 0.  1.
         25    2    1    2    0    0  0.00000000000E+00  0.00000000000E+00  0.14258566617E+03  0.18961921001E+03  0.12499909043E+03 0.  0.
    9000005    1    3    3    0    0 -0.26404425233E+02  0.56118327384E+02  0.59667219682E+02  0.86067632969E+02  0.10000000000E+01 0.  0.
    9000005    1    3    3    0    0  0.26404425233E+02 -0.56118327384E+02  0.82918446486E+02  0.10355157704E+03  0.10000000000E+01 0.  0.
<mgrwt>
<rscale>  0 0.12499909E+03</rscale>
<asrwt>0</asrwt>
<pdfrwt beam="1">  1        4 0.25554221E-01 0.12499909E+03</pdfrwt>
<pdfrwt beam="2">  1       -4 0.36179649E-02 0.12499909E+03</pdfrwt>
<totfact> 0.91915485E+03</totfact>
</mgrwt>
</event>
<event>
 5    1  0.3183609E-002  0.1249955E+03  0.7818608E-02  0.1235076E+00
          4   -1    0    0  501    0  0.00000000000E+00  0.00000000000E+00  0.30636069341E+02  0.30662381588E+02  0.12700000000E+01 0. -1.
         -4   -1    0    0    0  501 -0.00000000000E+00 -0.00000000000E+00 -0.12741145997E+03  0.12741778931E+03  0.12700000000E+01 0. -1.
         25    2    1    2    0    0  0.00000000000E+00  0.00000000000E+00 -0.96775390629E+02  0.15808017089E+03  0.12499545671E+03 0.  0.
    9000005    1    3    3    0    0  0.18110104405E+02  0.39960442800E+02 -0.10466490584E+03  0.11349253449E+03  0.10000000000E+01 0.  0.
    9000005    1    3    3    0    0 -0.18110104405E+02 -0.39960442800E+02  0.78895152069E+01  0.44587636409E+02  0.10000000000E+01 0.  0.
<mgrwt>
<rscale>  0 0.12499546E+03</rscale>
<asrwt>0</asrwt>
<pdfrwt beam="1">  1        4 0.47157524E-02 0.12499546E+03</pdfrwt>
<pdfrwt beam="2">  1       -4 0.19604274E-01 0.12499546E+03</pdfrwt>
<totfact> 0.97724176E+03</totfact>
</mgrwt>
</event>
<event>
 5    1  0.3183609E-002  0.1249978E+03  0.7818608E-02  0.1235073E+00
         -4   -1    0    0    0  501 -0.00000000000E+00  0.00000000000E+00  0.86698622376E+01  0.87623861601E+01  0.12700000000E+01 0. -1.
          4   -1    0    0  501    0  0.00000000000E+00 -0.00000000000E+00 -0.44805431170E+03  0.44805611159E+03  0.12700000000E+01 0. -1.
         25    2    1    2    0    0  0.00000000000E+00  0.00000000000E+00 -0.43938444947E+03  0.45681849775E+03  0.12499778181E+03 0.  0.
    9000005    1    3    3    0    0  0.55603585556E+02 -0.19717481420E+02 -0.29499619078E+03  0.30083930989E+03  0.10000000000E+01 0.  0.
    9000005    1    3    3    0    0 -0.55603585556E+02  0.19717481420E+02 -0.14438825868E+03  0.15597918786E+03  0.10000000000E+01 0.  0.
<mgrwt>
<rscale>  0 0.12499778E+03</rscale>
<asrwt>0</asrwt>
<pdfrwt beam="2">  1        4 0.68938670E-01 0.12499778E+03</pdfrwt>
<pdfrwt beam="1">  1       -4 0.13410810E-02 0.12499778E+03</pdfrwt>
<totfact> 0.59380536E+03</totfact>
</mgrwt>
</event>
<event>
 5    1  0.3183609E-002  0.1249742E+03  0.7818608E-02  0.1235110E+00
         -4   -1    0    0    0  501 -0.00000000000E+00  0.00000000000E+00  0.55261115823E+03  0.55261261758E+03  0.12700000000E+01 0. -1.
          4   -1    0    0  501    0  0.00000000000E+00 -0.00000000000E+00 -0.70072528091E+01  0.71214108104E+01  0.12700000000E+01 0. -1.
         25    2    1    2    0    0  0.00000000000E+00  0.00000000000E+00  0.54560390543E+03  0.55973402839E+03  0.12497424102E+03 0.  0.
    9000005    1    3    3    0    0 -0.24649658341E+02 -0.41344731156E+02  0.45120467056E+03  0.45376607100E+03  0.10000000000E+01 0.  0.
    9000005    1    3    3    0    0  0.24649658341E+02  0.41344731156E+02  0.94399234861E+02  0.10596795739E+03  0.10000000000E+01 0.  0.
<mgrwt>
<rscale>  0 0.12497424E+03</rscale>
<asrwt>0</asrwt>
<pdfrwt beam="2">  1        4 0.10869329E-02 0.12497424E+03</pdfrwt>
<pdfrwt beam="1">  1       -4 0.85025967E-01 0.12497424E+03</pdfrwt>
<totfact> 0.51541277E+03</totfact>
</mgrwt>
</event>
<event>
 5    1  0.3183609E-002  0.1249985E+03  0.7818608E-02  0.1235072E+00
          4   -1    0    0  501    0  0.00000000000E+00  0.00000000000E+00  0.17655404577E+03  0.17655861344E+03  0.12700000000E+01 0. -1.
         -4   -1    0    0    0  501 -0.00000000000E+00 -0.00000000000E+00 -0.22101325377E+02  0.22137784068E+02  0.12700000000E+01 0. -1.
         25    2    1    2    0    0  0.00000000000E+00  0.00000000000E+00  0.15445272039E+03  0.19869639750E+03  0.12499846216E+03 0.  0.
    9000005    1    3    3    0    0 -0.60745058240E+02  0.37914840329E+01  0.99752405267E+02  0.11685837500E+03  0.10000000000E+01 0.  0.
    9000005    1    3    3    0    0  0.60745058240E+02 -0.37914840329E+01  0.54700315128E+02  0.81838022501E+02  0.10000000000E+01 0.  0.
<mgrwt>
<rscale>  0 0.12499846E+03</rscale>
<asrwt>0</asrwt>
<pdfrwt beam="1">  1        4 0.27165317E-01 0.12499846E+03</pdfrwt>
<pdfrwt beam="2">  1       -4 0.34033598E-02 0.12499846E+03</pdfrwt>
<totfact> 0.90358909E+03</totfact>
</mgrwt>
</event>
<event>
 5    1  0.3183609E-002  0.1250028E+03  0.7818608E-02  0.1235065E+00
         -4   -1    0    0    0  501 -0.00000000000E+00  0.00000000000E+00  0.34041214935E+03  0.34041451839E+03  0.12700000000E+01 0. -1.
          4   -1    0    0  501    0  0.00000000000E+00 -0.00000000000E+00 -0.11438011236E+02  0.11508301396E+02  0.12700000000E+01 0. -1.
         25    2    1    2    0    0  0.00000000000E+00  0.00000000000E+00  0.32897413812E+03  0.35192281978E+03  0.12500275010E+03 0.  0.
    9000005    1    3    3    0    0 -0.35715831702E+02 -0.16230071299E+02  0.30143978771E+03  0.30398352170E+03  0.10000000000E+01 0.  0.
    9000005    1    3    3    0    0  0.35715831702E+02  0.16230071299E+02  0.27534350409E+02  0.47939298085E+02  0.10000000000E+01 0.  0.
<mgrwt>
<rscale>  0 0.12500275E+03</rscale>
<asrwt>0</asrwt>
<pdfrwt beam="2">  1        4 0.17652835E-02 0.12500275E+03</pdfrwt>
<pdfrwt beam="1">  1       -4 0.52376681E-01 0.12500275E+03</pdfrwt>
<totfact> 0.69509313E+03</totfact>
</mgrwt>
</event>
<event>
 5    1  0.3183609E-002  0.1250065E+03  0.7818608E-02  0.1235059E+00
         -4   -1    0    0    0  501 -0.00000000000E+00  0.00000000000E+00  0.63019114576E+01  0.64286070045E+01  0.12700000000E+01 0.  1.
          4   -1    0    0  501    0  0.00000000000E+00 -0.00000000000E+00 -0.61361888642E+03  0.61362020067E+03  0.12700000000E+01 0.  1.
         25    2    1    2    0    0  0.00000000000E+00  0.00000000000E+00 -0.60731697496E+03  0.62004880768E+03  0.12500646312E+03 0.  0.
    9000005    1    3    3    0    0  0.30867676290E+02  0.24356409482E+02 -0.54460083626E+03  0.54601933938E+03  0.10000000000E+01 0.  0.
    9000005    1    3    3    0    0 -0.30867676290E+02 -0.24356409482E+02 -0.62716138706E+02  0.74029468298E+02  0.10000000000E+01 0.  0.
<mgrwt>
<rscale>  0 0.12500646E+03</rscale>
<asrwt>0</asrwt>
<pdfrwt beam="2">  1        4 0.94412706E-01 0.12500646E+03</pdfrwt>
<pdfrwt beam="1">  1       -4 0.97937223E-03 0.12500646E+03</pdfrwt>
<totfact> 0.47619315E+03</totfact>
</mgrwt>
</event>
<event>
 5    1  0.3183609E-002  0.1250027E+03  0.7818608E-02  0.1235065E+00
          4   -1    0    0  501    0  0.00000000000E+00  0.00000000000E+00  0.17956427589E+02  0.18001283059E+02  0.12700000000E+01 0.  1.
         -4   -1    0    0    0  501 -0.00000000000E+00 -0.00000000000E+00 -0.21723173315E+03  0.21723544551E+03  0.12700000000E+01 0.  1.
         25    2    1    2    0    0  0.00000000000E+00  0.00000000000E+00 -0.19927530556E+03  0.23523672857E+03  0.12500268422E+03 0.  0.
    9000005    1    3    3    0    0 -0.14808219241E+02  0.26793616341E+02  0.28885906690E+01  0.30765649510E+02  0.10000000000E+01 0.  0.
    9000005    1    3    3    0    0  0.14808219241E+02 -0.26793616341E+02 -0.20216389623E+03  0.20447107906E+03  0.10000000000E+01 0.  0.
<mgrwt>
<rscale>  0 0.12500268E+03</rscale>
<asrwt>0</asrwt>
<pdfrwt beam="1">  1        4 0.27662635E-02 0.12500268E+03</pdfrwt>
<pdfrwt beam="2">  1       -4 0.33424001E-01 0.12500268E+03</pdfrwt>
<totfact> 0.84506867E+03</totfact>
</mgrwt>
</event>
<event>
 5    1  0.3183609E-002  0.1249991E+03  0.7818608E-02  0.1235071E+00
         -4   -1    0    0    0  501 -0.00000000000E+00  0.00000000000E+00  0.33158224997E+03  0.33158468209E+03  0.12700000000E+01 0. -1.
          4   -1    0    0  501    0  0.00000000000E+00 -0.00000000000E+00 -0.11743755199E+02  0.11812226131E+02  0.12700000000E+01 0. -1.
         25    2    1    2    0    0  0.00000000000E+00  0.00000000000E+00  0.31983849477E+03  0.34339690822E+03  0.12499909534E+03 0.  0.
    9000005    1    3    3    0    0  0.11330280638E+02  0.43487658948E+02  0.40625110347E+02  0.60588376202E+02  0.10000000000E+01 0.  0.
    9000005    1    3    3    0    0 -0.11330280638E+02 -0.43487658948E+02  0.27921338442E+03  0.28280853202E+03  0.10000000000E+01 0.  0.
<mgrwt>
<rscale>  0 0.12499910E+03</rscale>
<asrwt>0</asrwt>
<pdfrwt beam="2">  1        4 0.18121855E-02 0.12499910E+03</pdfrwt>
<pdfrwt beam="1">  1       -4 0.51018111E-01 0.12499910E+03</pdfrwt>
<totfact> 0.70458545E+03</totfact>
</mgrwt>
</event>
<event>
 5    1  0.3183609E-002  0.1250055E+03  0.7818608E-02  0.1235061E+00
          4   -1    0    0  501    0  0.00000000000E+00  0.00000000000E+00  0.55817683532E+03  0.55817828012E+03  0.12700000000E+01 0. -1.
         -4   -1    0    0    0  501 -0.00000000000E+00 -0.00000000000E+00 -0.69397717367E+01  0.70550217404E+01  0.12700000000E+01 0. -1.
         25    2    1    2    0    0  0.00000000000E+00  0.00000000000E+00  0.55123706359E+03  0.56523330186E+03  0.12500554089E+03 0.  0.
    9000005    1    3    3    0    0  0.23911659835E+01 -0.12448961660E+02 -0.10875506828E+01  0.12762330808E+02  0.10000000000E+01 0.  0.
    9000005    1    3    3    0    0 -0.23911659835E+01  0.12448961660E+02  0.55232461427E+03  0.55247097105E+03  0.10000000000E+01 0.  0.
<mgrwt>
<rscale>  0 0.12500554E+03</rscale>
<asrwt>0</asrwt>
<pdfrwt beam="1">  1        4 0.85882347E-01 0.12500554E+03</pdfrwt>
<pdfrwt beam="2">  1       -4 0.10766336E-02 0.12500554E+03</pdfrwt>
<totfact> 0.51132169E+03</totfact>
</mgrwt>
</event>
<event>
 5    1  0.3183609E-002  0.1250004E+03  0.7818608E-02  0.1235069E+00
         -4   -1    0    0    0  501 -0.00000000000E+00  0.00000000000E+00  0.87173493222E+01  0.88093745070E+01  0.12700000000E+01 0. -1.
          4   -1    0    0  501    0  0.00000000000E+00 -0.00000000000E+00 -0.44565813213E+03  0.44565994170E+03  0.12700000000E+01 0. -1.
         25    2    1    2    0    0  0.00000000000E+00  0.00000000000E+00 -0.43694078281E+03  0.45446931621E+03  0.12500044676E+03 0.  0.
    9000005    1    3    3    0    0 -0.38988320906E+02  0.48835993770E+02 -0.21670989620E+03  0.22554206385E+03  0.10000000000E+01 0.  0.
    9000005    1    3    3    0    0  0.38988320906E+02 -0.48835993770E+02 -0.22023088661E+03  0.22892725236E+03  0.10000000000E+01 0.  0.
<mgrwt>
<rscale>  0 0.12500045E+03</rscale>
<asrwt>0</asrwt>
<pdfrwt beam="2">  1        4 0.68569990E-01 0.12500045E+03</pdfrwt>
<pdfrwt beam="1">  1       -4 0.13483491E-02 0.12500045E+03</pdfrwt>
<totfact> 0.59577986E+03</totfact>
</mgrwt>
</event>
<event>
 5    1  0.3183609E-002  0.1250101E+03  0.7818608E-02  0.1235054E+00
          4   -1    0    0  501    0  0.00000000000E+00  0.00000000000E+00  0.78786574740E+02  0.78796809956E+02  0.12700000000E+01 0.  1.
         -4   -1    0    0    0  501 -0.00000000000E+00 -0.00000000000E+00 -0.49566563702E+02  0.49582831073E+02  0.12700000000E+01 0.  1.
         25    2    1    2    0    0  0.00000000000E+00  0.00000000000E+00  0.29220011039E+02  0.12837964103E+03  0.12501009234E+03 0.  0.
    9000005    1    3    3    0    0 -0.43299408083E+02  0.30992955915E+02  0.48210069490E+02  0.71837405694E+02  0.10000000000E+01 0.  0.
    9000005    1    3    3    0    0  0.43299408083E+02 -0.30992955915E+02 -0.18990058452E+02  0.56542235335E+02  0.10000000000E+01 0.  0.
<mgrwt>
<rscale>  0 0.12501009E+03</rscale>
<asrwt>0</asrwt>
<pdfrwt beam="1">  1        4 0.12123050E-01 0.12501009E+03</pdfrwt>
<pdfrwt beam="2">  1       -4 0.76276640E-02 0.12501009E+03</pdfrwt>
<totfact> 0.10376933E+04</totfact>
</mgrwt>
</event>
<event>
 5    1  0.3183609E-002  0.1249994E+03  0.7818608E-02  0.1235070E+00
          4   -1    0    0  501    0  0.00000000000E+00  0.00000000000E+00  0.15000632114E+03  0.15001169715E+03  0.12700000000E+01 0.  1.
         -4   -1    0    0    0  501 -0.00000000000E+00 -0.00000000000E+00 -0.26018984901E+02  0.26049961138E+02  0.12700000000E+01 0.  1.
         25    2    1    2    0    0  0.00000000000E+00  0.00000000000E+00  0.12398733624E+03  0.17606165829E+03  0.12499939189E+03 0.  0.
    9000005    1    3    3    0    0  0.45133422317E+02 -0.40425951295E+02  0.40451044668E+02  0.72859936611E+02  0.10000000000E+01 0.  0.
    9000005    1    3    3    0    0 -0.45133422317E+02  0.40425951295E+02  0.83536291573E+02  0.10320172168E+03  0.10000000000E+01 0.  0.
<mgrwt>
<rscale>  0 0.12499939E+03</rscale>
<asrwt>0</asrwt>
<pdfrwt beam="1">  1        4 0.23080692E-01 0.12499939E+03</pdfrwt>
<pdfrwt beam="2">  1       -4 0.40057170E-02 0.12499939E+03</pdfrwt>
<totfact> 0.94332045E+03</totfact>
</mgrwt>
</event>
<event>
 5    1  0.3183609E-002  0.1249791E+03  0.7818608E-02  0.1235102E+00
          4   -1    0    0  501    0  0.00000000000E+00  0.00000000000E+00  0.35584944955E+02  0.35607600417E+02  0.12700000000E+01 0. -1.
         -4   -1    0    0    0  501 -0.00000000000E+00 -0.00000000000E+00 -0.10967462761E+03  0.10968198048E+03  0.12700000000E+01 0. -1.
         25    2    1    2    0    0  0.00000000000E+00  0.00000000000E+00 -0.74089682660E+02  0.14528958090E+03  0.12497912322E+03 0.  0.
    9000005    1    3    3    0    0  0.30755928286E+02  0.53978094605E+02 -0.44789596863E+02  0.76594189134E+02  0.10000000000E+01 0.  0.
    9000005    1    3    3    0    0 -0.30755928286E+02 -0.53978094605E+02 -0.29300085796E+02  0.68695391764E+02  0.10000000000E+01 0.  0.
<mgrwt>
<rscale>  0 0.12497912E+03</rscale>
<asrwt>0</asrwt>
<pdfrwt beam="1">  1        4 0.54769153E-02 0.12497912E+03</pdfrwt>
<pdfrwt beam="2">  1       -4 0.16875328E-01 0.12497912E+03</pdfrwt>
<totfact> 0.10029822E+04</totfact>
</mgrwt>
</event>
<event>
 5    1  0.3183609E-002  0.1250037E+03  0.7818608E-02  0.1235064E+00
         -4   -1    0    0    0  501 -0.00000000000E+00  0.00000000000E+00  0.93069795491E+03  0.93069882141E+03  0.12700000000E+01 0. -1.
          4   -1    0    0  501    0  0.00000000000E+00 -0.00000000000E+00 -0.41004111611E+01  0.42925833353E+01  0.12700000000E+01 0. -1.
         25    2    1    2    0    0  0.00000000000E+00  0.00000000000E+00  0.92659754374E+03  0.93499140474E+03  0.12500367541E+03 0.  0.
    9000005    1    3    3    0    0 -0.60770822097E+02 -0.22428995708E+01  0.57100565369E+03  0.57423564846E+03  0.10000000000E+01 0.  0.
    9000005    1    3    3    0    0  0.60770822097E+02  0.22428995708E+01  0.35559189006E+03  0.36075575628E+03  0.10000000000E+01 0.  0.
<mgrwt>
<rscale>  0 0.12500368E+03</rscale>
<asrwt>0</asrwt>
<pdfrwt beam="2">  1        4 0.64568127E-03 0.12500368E+03</pdfrwt>
<pdfrwt beam="1">  1       -4 0.14319923E+00 0.12500368E+03</pdfrwt>
<totfact> 0.32852249E+03</totfact>
</mgrwt>
</event>
<event>
 5    1  0.3183609E-002  0.1250017E+03  0.7818608E-02  0.1235067E+00
         -4   -1    0    0    0  501 -0.00000000000E+00  0.00000000000E+00  0.51240374856E+01  0.52790775855E+01  0.12700000000E+01 0.  1.
          4   -1    0    0  501    0  0.00000000000E+00 -0.00000000000E+00 -0.75084127342E+03  0.75084234748E+03  0.12700000000E+01 0.  1.
         25    2    1    2    0    0  0.00000000000E+00  0.00000000000E+00 -0.74571723593E+03  0.75612142506E+03  0.12500165389E+03 0.  0.
    9000005    1    3    3    0    0  0.33500407616E+01  0.28485038807E+02 -0.70870738016E+03  0.70928821427E+03  0.10000000000E+01 0.  0.
    9000005    1    3    3    0    0 -0.33500407616E+01 -0.28485038807E+02 -0.37009855768E+02  0.46833210790E+02  0.10000000000E+01 0.  0.
<mgrwt>
<rscale>  0 0.12500165E+03</rscale>
<asrwt>0</asrwt>
<pdfrwt beam="2">  1        4 0.11552596E+00 0.12500165E+03</pdfrwt>
<pdfrwt beam="1">  1       -4 0.80032284E-03 0.12500165E+03</pdfrwt>
<totfact> 0.40281616E+03</totfact>
</mgrwt>
</event>
<event>
 5    1  0.3183609E-002  0.1249968E+03  0.7818608E-02  0.1235074E+00
         -4   -1    0    0    0  501 -0.00000000000E+00  0.00000000000E+00  0.33328747728E+01  0.35666446769E+01  0.12700000000E+01 0.  1.
          4   -1    0    0  501    0  0.00000000000E+00 -0.00000000000E+00 -0.11320338077E+04  0.11320345201E+04  0.12700000000E+01 0.  1.
         25    2    1    2    0    0  0.00000000000E+00  0.00000000000E+00 -0.11287009329E+04  0.11356011648E+04  0.12499683768E+03 0.  0.
    9000005    1    3    3    0    0 -0.36089494894E+02  0.29430710277E+02 -0.18577196751E+03  0.19152243279E+03  0.10000000000E+01 0.  0.
    9000005    1    3    3    0    0  0.36089494894E+02 -0.29430710277E+02 -0.94292896544E+03  0.94407873200E+03  0.10000000000E+01 0.  0.
<mgrwt>
<rscale>  0 0.12499684E+03</rscale>
<asrwt>0</asrwt>
<pdfrwt beam="2">  1        4 0.17417679E+00 0.12499684E+03</pdfrwt>
<pdfrwt beam="1">  1       -4 0.53078797E-03 0.12499684E+03</pdfrwt>
<totfact> 0.26465027E+03</totfact>
</mgrwt>
</event>
<event>
 5    1  0.3183609E-002  0.1249799E+03  0.7818608E-02  0.1235101E+00
          4   -1    0    0  501    0  0.00000000000E+00  0.00000000000E+00  0.21539492735E+02  0.21576900780E+02  0.12700000000E+01 0. -1.
         -4   -1    0    0    0  501 -0.00000000000E+00 -0.00000000000E+00 -0.18109765017E+03  0.18110210324E+03  0.12700000000E+01 0. -1.
         25    2    1    2    0    0  0.00000000000E+00  0.00000000000E+00 -0.15955815744E+03  0.20267900402E+03  0.12497989064E+03 0.  0.
    9000005    1    3    3    0    0  0.14439370923E+02  0.47423572338E+02 -0.18101369733E+02  0.52783995986E+02  0.10000000000E+01 0.  0.
    9000005    1    3    3    0    0 -0.14439370923E+02 -0.47423572338E+02 -0.14145678770E+03  0.14989500803E+03  0.10000000000E+01 0.  0.
<mgrwt>
<rscale>  0 0.12497989E+03</rscale>
<asrwt>0</asrwt>
<pdfrwt beam="1">  1        4 0.33169883E-02 0.12497989E+03</pdfrwt>
<pdfrwt beam="2">  1       -4 0.27864396E-01 0.12497989E+03</pdfrwt>
<totfact> 0.89725990E+03</totfact>
</mgrwt>
</event>
<event>
 5    1  0.3183609E-002  0.1249979E+03  0.7818608E-02  0.1235073E+00
         -4   -1    0    0    0  501 -0.00000000000E+00  0.00000000000E+00  0.93154472884E+02  0.93163129608E+02  0.12700000000E+01 0.  1.
          4   -1    0    0  501    0  0.00000000000E+00 -0.00000000000E+00 -0.41911423637E+02  0.41930660992E+02  0.12700000000E+01 0.  1.
         25    2    1    2    0    0  0.00000000000E+00  0.00000000000E+00  0.51243049247E+02  0.13509379060E+03  0.12499792863E+03 0.  0.
    9000005    1    3    3    0    0 -0.82382204840E+01 -0.61851849092E+02  0.21940397596E+02  0.66150590017E+02  0.10000000000E+01 0.  0.
    9000005    1    3    3    0    0  0.82382204840E+01  0.61851849092E+02  0.29302651651E+02  0.68943200583E+02  0.10000000000E+01 0.  0.
<mgrwt>
<rscale>  0 0.12499793E+03</rscale>
<asrwt>0</asrwt>
<pdfrwt beam="2">  1        4 0.64500571E-02 0.12499793E+03</pdfrwt>
<pdfrwt beam="1">  1       -4 0.14333603E-01 0.12499793E+03</pdfrwt>
<totfact> 0.10236573E+04</totfact>
</mgrwt>
</event>
<event>
 5    1  0.3183609E-002  0.1250003E+03  0.7818608E-02  0.1235069E+00
          4   -1    0    0  501    0  0.00000000000E+00  0.00000000000E+00  0.32767682402E+01  0.35142723429E+01  0.12700000000E+01 0.  1.
         -4   -1    0    0    0  501 -0.00000000000E+00 -0.00000000000E+00 -0.11501810558E+04  0.11501817570E+04  0.12700000000E+01 0.  1.
         25    2    1    2    0    0  0.00000000000E+00  0.00000000000E+00 -0.11469042876E+04  0.11536960293E+04  0.12500033274E+03 0.  0.
    9000005    1    3    3    0    0  0.18601757793E+02  0.50980103603E+02 -0.85945996755E+03  0.86117212692E+03  0.10000000000E+01 0.  0.
    9000005    1    3    3    0    0 -0.18601757793E+02 -0.50980103603E+02 -0.28744432004E+03  0.29252390241E+03  0.10000000000E+01 0.  0.
<mgrwt>
<rscale>  0 0.12500033E+03</rscale>
<asrwt>0</asrwt>
<pdfrwt beam="1">  1        4 0.52244259E-03 0.12500033E+03</pdfrwt>
<pdfrwt beam="2">  1       -4 0.17696894E+00 0.12500033E+03</pdfrwt>
<totfact> 0.25957770E+03</totfact>
</mgrwt>
</event>
<event>
 5    1  0.3183609E-002  0.1249974E+03  0.7818608E-02  0.1235073E+00
          4   -1    0    0  501    0  0.00000000000E+00  0.00000000000E+00  0.83284366176E+01  0.84247110629E+01  0.12700000000E+01 0.  1.
         -4   -1    0    0    0  501 -0.00000000000E+00 -0.00000000000E+00 -0.46621406562E+03  0.46621579540E+03  0.12700000000E+01 0.  1.
         25    2    1    2    0    0  0.00000000000E+00  0.00000000000E+00 -0.45788562900E+03  0.47464050646E+03  0.12499744449E+03 0.  0.
    9000005    1    3    3    0    0  0.40371949848E+02  0.39511667702E+01 -0.48442512860E+02  0.63191637941E+02  0.10000000000E+01 0.  0.
    9000005    1    3    3    0    0 -0.40371949848E+02 -0.39511667702E+01 -0.40944311614E+03  0.41144886852E+03  0.10000000000E+01 0.  0.
<mgrwt>
<rscale>  0 0.12499744E+03</rscale>
<asrwt>0</asrwt>
<pdfrwt beam="1">  1        4 0.12888371E-02 0.12499744E+03</pdfrwt>
<pdfrwt beam="2">  1       -4 0.71732760E-01 0.12499744E+03</pdfrwt>
<totfact> 0.57890338E+03</totfact>
</mgrwt>
</event>
<event>
 5    1  0.3183609E-002  0.1250001E+03  0.7818608E-02  0.1235069E+00
         -4   -1    0    0    0  501 -0.00000000000E+00  0.00000000000E+00  0.90575454566E+03  0.90575543602E+03  0.12700000000E+01 0. -1.
          4   -1    0    0  501    0  0.00000000000E+00 -0.00000000000E+00 -0.42183036139E+01  0.44053360121E+01  0.12700000000E+01 0. -1.
         25    2    1    2    0    0  0.00000000000E+00  0.00000000000E+00  0.90153624204E+03  0.91016077203E+03  0.12500014091E+03 0.  0.
    9000005    1    3    3    0    0  0.54373893842E+02 -0.70115900957E+01  0.66915500931E+03  0.67139787697E+03  0.10000000000E+01 0.  0.
    9000005    1    3    3    0    0 -0.54373893842E+02  0.70115900957E+01  0.23238123274E+03  0.23876289506E+03  0.10000000000E+01 0.  0.
<mgrwt>
<rscale>  0 0.12500014E+03</rscale>
<asrwt>0</asrwt>
<pdfrwt beam="2">  1        4 0.66342495E-03 0.12500014E+03</pdfrwt>
<pdfrwt beam="1">  1       -4 0.13936140E+00 0.12500014E+03</pdfrwt>
<totfact> 0.33773702E+03</totfact>
</mgrwt>
</event>
<event>
 5    1  0.3183609E-002  0.1249998E+03  0.7818608E-02  0.1235070E+00
          4   -1    0    0  501    0  0.00000000000E+00  0.00000000000E+00  0.17133658839E+02  0.17180662537E+02  0.12700000000E+01 0. -1.
         -4   -1    0    0    0  501 -0.00000000000E+00 -0.00000000000E+00 -0.22762527219E+03  0.22762881504E+03  0.12700000000E+01 0. -1.
         25    2    1    2    0    0  0.00000000000E+00  0.00000000000E+00 -0.21049161335E+03  0.24480947758E+03  0.12499984409E+03 0.  0.
    9000005    1    3    3    0    0  0.26064264026E+01 -0.62383297493E+02 -0.10014962526E+03  0.11802294991E+03  0.10000000000E+01 0.  0.
    9000005    1    3    3    0    0 -0.26064264026E+01  0.62383297493E+02 -0.11034198808E+03  0.12678652767E+03  0.10000000000E+01 0.  0.
<mgrwt>
<rscale>  0 0.12499984E+03</rscale>
<asrwt>0</asrwt>
<pdfrwt beam="1">  1        4 0.26398359E-02 0.12499984E+03</pdfrwt>
<pdfrwt beam="2">  1       -4 0.35023159E-01 0.12499984E+03</pdfrwt>
<totfact> 0.83086545E+03</totfact>
</mgrwt>
</event>
<event>
 5    1  0.3183609E-002  0.1250184E+03  0.7818608E-02  0.1235041E+00
          4   -1    0    0  501    0  0.00000000000E+00  0.00000000000E+00  0.21741017240E+03  0.21741388172E+03  0.12700000000E+01 0. -1.
         -4   -1    0    0    0  501 -0.00000000000E+00 -0.00000000000E+00 -0.17946179244E+02  0.17991060265E+02  0.12700000000E+01 0. -1.
         25    2    1    2    0    0  0.00000000000E+00  0.00000000000E+00  0.19946399316E+03  0.23540494198E+03  0.12501840722E+03 0.  0.
    9000005    1    3    3    0    0  0.58162580640E+02 -0.11844798923E+01  0.56706751710E+02  0.81246196642E+02  0.10000000000E+01 0.  0.
    9000005    1    3    3    0    0 -0.58162580640E+02  0.11844798923E+01  0.14275724145E+03  0.15415874534E+03  0.10000000000E+01 0.  0.
<mgrwt>
<rscale>  0 0.12501841E+03</rscale>
<asrwt>0</asrwt>
<pdfrwt beam="1">  1        4 0.33451460E-01 0.12501841E+03</pdfrwt>
<pdfrwt beam="2">  1       -4 0.27646881E-02 0.12501841E+03</pdfrwt>
<totfact> 0.84451837E+03</totfact>
</mgrwt>
</event>
<event>
 5    1  0.3183609E-002  0.1250005E+03  0.7818608E-02  0.1235068E+00
         -4   -1    0    0    0  501 -0.00000000000E+00  0.00000000000E+00  0.20978916089E+02  0.21017321910E+02  0.12700000000E+01 0.  1.
          4   -1    0    0  501    0  0.00000000000E+00 -0.00000000000E+00 -0.18598955427E+03  0.18599389022E+03  0.12700000000E+01 0.  1.
         25    2    1    2    0    0  0.00000000000E+00  0.00000000000E+00 -0.16501063819E+03  0.20701121213E+03  0.12500052493E+03 0.  0.
    9000005    1    3    3    0    0  0.14525638962E+02  0.56124370375E+02 -0.43866964799E+02  0.72706600374E+02  0.10000000000E+01 0.  0.
    9000005    1    3    3    0    0 -0.14525638962E+02 -0.56124370375E+02 -0.12114367339E+03  0.13430461176E+03  0.10000000000E+01 0.  0.
<mgrwt>
<rscale>  0 0.12500052E+03</rscale>
<asrwt>0</asrwt>
<pdfrwt beam="2">  1        4 0.28617064E-01 0.12500052E+03</pdfrwt>
<pdfrwt beam="1">  1       -4 0.32308135E-02 0.12500052E+03</pdfrwt>
<totfact> 0.88965283E+03</totfact>
</mgrwt>
</event>
<event>
 5    1  0.3183609E-002  0.1250012E+03  0.7818608E-02  0.1235067E+00
          4   -1    0    0  501    0  0.00000000000E+00  0.00000000000E+00  0.25553161294E+02  0.25584701524E+02  0.12700000000E+01 0.  1.
         -4   -1    0    0    0  501 -0.00000000000E+00 -0.00000000000E+00 -0.15274208997E+03  0.15274736970E+03  0.12700000000E+01 0.  1.
         25    2    1    2    0    0  0.00000000000E+00  0.00000000000E+00 -0.12718892868E+03  0.17833207122E+03  0.12500121618E+03 0.  0.
    9000005    1    3    3    0    0  0.30182050574E+02  0.24031624346E+02  0.65413980769E+01  0.39144157091E+02  0.10000000000E+01 0.  0.
    9000005    1    3    3    0    0 -0.30182050574E+02 -0.24031624346E+02 -0.13373032676E+03  0.13918791413E+03  0.10000000000E+01 0.  0.
<mgrwt>
<rscale>  0 0.12500122E+03</rscale>
<asrwt>0</asrwt>
<pdfrwt beam="1">  1        4 0.39340880E-02 0.12500122E+03</pdfrwt>
<pdfrwt beam="2">  1       -4 0.23501615E-01 0.12500122E+03</pdfrwt>
<totfact> 0.93915539E+03</totfact>
</mgrwt>
</event>
<event>
 5    1  0.3183609E-002  0.1250005E+03  0.7818608E-02  0.1235069E+00
         -4   -1    0    0    0  501 -0.00000000000E+00  0.00000000000E+00  0.13485878539E+04  0.13485884519E+04  0.12700000000E+01 0. -1.
          4   -1    0    0  501    0  0.00000000000E+00 -0.00000000000E+00 -0.27567357256E+01  0.30352087014E+01  0.12700000000E+01 0. -1.
         25    2    1    2    0    0  0.00000000000E+00  0.00000000000E+00  0.13458311182E+04  0.13516236606E+04  0.12500048496E+03 0.  0.
    9000005    1    3    3    0    0 -0.23427351946E+01 -0.59076371811E+02  0.45403036252E+03  0.45786469203E+03  0.10000000000E+01 0.  0.
    9000005    1    3    3    0    0  0.23427351946E+01  0.59076371811E+02  0.89180075568E+03  0.89375896859E+03  0.10000000000E+01 0.  0.
<mgrwt>
<rscale>  0 0.12500048E+03</rscale>
<asrwt>0</asrwt>
<pdfrwt beam="2">  1        4 0.44557922E-03 0.12500048E+03</pdfrwt>
<pdfrwt beam="1">  1       -4 0.20749697E+00 0.12500048E+03</pdfrwt>
<totfact> 0.21041575E+03</totfact>
</mgrwt>
</event>
<event>
 5    1  0.3183609E-002  0.1250458E+03  0.7818608E-02  0.1234998E+00
         -4   -1    0    0    0  501 -0.00000000000E+00  0.00000000000E+00  0.75507708087E+02  0.75518387699E+02  0.12700000000E+01 0. -1.
          4   -1    0    0  501    0  0.00000000000E+00 -0.00000000000E+00 -0.51748876889E+02  0.51764458456E+02  0.12700000000E+01 0. -1.
         25    2    1    2    0    0  0.00000000000E+00  0.00000000000E+00  0.23758831198E+02  0.12728284615E+03  0.12504575509E+03 0.  0.
    9000005    1    3    3    0    0 -0.43871366164E+02 -0.43540890205E+02  0.21406580982E+02  0.65419779871E+02  0.10000000000E+01 0.  0.
    9000005    1    3    3    0    0  0.43871366164E+02  0.43540890205E+02  0.23522502165E+01  0.61863066284E+02  0.10000000000E+01 0.  0.
<mgrwt>
<rscale>  0 0.12504576E+03</rscale>
<asrwt>0</asrwt>
<pdfrwt beam="2">  1        4 0.79633858E-02 0.12504576E+03</pdfrwt>
<pdfrwt beam="1">  1       -4 0.11618590E-01 0.12504576E+03</pdfrwt>
<totfact> 0.10392269E+04</totfact>
</mgrwt>
</event>
<event>
 5    1  0.3183609E-002  0.1249987E+03  0.7818608E-02  0.1235071E+00
          4   -1    0    0  501    0  0.00000000000E+00  0.00000000000E+00  0.26763761897E+01  0.29624127850E+01  0.12700000000E+01 0.  1.
         -4   -1    0    0    0  501 -0.00000000000E+00 -0.00000000000E+00 -0.13851780436E+04  0.13851786258E+04  0.12700000000E+01 0.  1.
         25    2    1    2    0    0  0.00000000000E+00  0.00000000000E+00 -0.13825016675E+04  0.13881410386E+04  0.12499873044E+03 0.  0.
    9000005    1    3    3    0    0 -0.30186219565E+02 -0.38621236165E+02 -0.11216936057E+04  0.11227646026E+04  0.10000000000E+01 0.  0.
    9000005    1    3    3    0    0  0.30186219565E+02  0.38621236165E+02 -0.26080806174E+03  0.26537643603E+03  0.10000000000E+01 0.  0.
<mgrwt>
<rscale>  0 0.12499873E+03</rscale>
<asrwt>0</asrwt>
<pdfrwt beam="1">  1        4 0.43379889E-03 0.12499873E+03</pdfrwt>
<pdfrwt beam="2">  1       -4 0.21312582E+00 0.12499873E+03</pdfrwt>
<totfact> 0.20237486E+03</totfact>
</mgrwt>
</event>
<event>
 5    1  0.3183609E-002  0.1249999E+03  0.7818608E-02  0.1235069E+00
          4   -1    0    0  501    0  0.00000000000E+00  0.00000000000E+00  0.22673287837E+03  0.22673643517E+03  0.12700000000E+01 0.  1.
         -4   -1    0    0    0  501 -0.00000000000E+00 -0.00000000000E+00 -0.17201284399E+02  0.17248103808E+02  0.12700000000E+01 0.  1.
         25    2    1    2    0    0  0.00000000000E+00  0.00000000000E+00  0.20953159397E+03  0.24398453898E+03  0.12499986555E+03 0.  0.
    9000005    1    3    3    0    0  0.25085832838E+02 -0.17595922895E+02  0.21107288108E+03  0.21328777893E+03  0.10000000000E+01 0.  0.
    9000005    1    3    3    0    0 -0.25085832838E+02  0.17595922895E+02 -0.15412871101E+01  0.30696760052E+02  0.10000000000E+01 0.  0.
<mgrwt>
<rscale>  0 0.12499987E+03</rscale>
<asrwt>0</asrwt>
<pdfrwt beam="1">  1        4 0.34885856E-01 0.12499987E+03</pdfrwt>
<pdfrwt beam="2">  1       -4 0.26502266E-02 0.12499987E+03</pdfrwt>
<totfact> 0.83207746E+03</totfact>
</mgrwt>
</event>
<event>
 5    1  0.3183609E-002  0.1249954E+03  0.7818608E-02  0.1235076E+00
         -4   -1    0    0    0  501 -0.00000000000E+00  0.00000000000E+00  0.33605051425E+02  0.33629040743E+02  0.12700000000E+01 0. -1.
          4   -1    0    0  501    0  0.00000000000E+00 -0.00000000000E+00 -0.11616256734E+03  0.11616950956E+03  0.12700000000E+01 0. -1.
         25    2    1    2    0    0  0.00000000000E+00  0.00000000000E+00 -0.82557515916E+02  0.14979855030E+03  0.12499544887E+03 0.  0.
    9000005    1    3    3    0    0  0.33929550653E+01 -0.51914903064E+02  0.20666393171E+00  0.52035680203E+02  0.10000000000E+01 0.  0.
    9000005    1    3    3    0    0 -0.33929550653E+01  0.51914903064E+02 -0.82764179847E+02  0.97762870099E+02  0.10000000000E+01 0.  0.
<mgrwt>
<rscale>  0 0.12499545E+03</rscale>
<asrwt>0</asrwt>
<pdfrwt beam="2">  1        4 0.17873543E-01 0.12499545E+03</pdfrwt>
<pdfrwt beam="1">  1       -4 0.51723873E-02 0.12499545E+03</pdfrwt>
<totfact> 0.99354045E+03</totfact>
</mgrwt>
</event>
<event>
 5    1  0.3183609E-002  0.1249920E+03  0.7818608E-02  0.1235082E+00
         -4   -1    0    0    0  501 -0.00000000000E+00  0.00000000000E+00  0.76190788572E+02  0.76201372450E+02  0.12700000000E+01 0. -1.
          4   -1    0    0  501    0  0.00000000000E+00 -0.00000000000E+00 -0.51240777669E+02  0.51256513694E+02  0.12700000000E+01 0. -1.
         25    2    1    2    0    0  0.00000000000E+00  0.00000000000E+00  0.24950010904E+02  0.12745788614E+03  0.12499203853E+03 0.  0.
    9000005    1    3    3    0    0  0.25006655515E+02  0.35697890009E+02  0.58136512409E+02  0.72667229520E+02  0.10000000000E+01 0.  0.
    9000005    1    3    3    0    0 -0.25006655515E+02 -0.35697890009E+02 -0.33186501505E+02  0.54790656624E+02  0.10000000000E+01 0.  0.
<mgrwt>
<rscale>  0 0.12499204E+03</rscale>
<asrwt>0</asrwt>
<pdfrwt beam="2">  1        4 0.78852212E-02 0.12499204E+03</pdfrwt>
<pdfrwt beam="1">  1       -4 0.11723684E-01 0.12499204E+03</pdfrwt>
<totfact> 0.10401082E+04</totfact>
</mgrwt>
</event>
<event>
 5    1  0.3183609E-002  0.1249973E+03  0.7818608E-02  0.1235073E+00
         -4   -1    0    0    0  501 -0.00000000000E+00  0.00000000000E+00  0.30464315525E+02  0.30490775989E+02  0.12700000000E+01 0.  1.
          4   -1    0    0  501    0  0.00000000000E+00 -0.00000000000E+00 -0.12813304172E+03  0.12813933541E+03  0.12700000000E+01 0.  1.
         25    2    1    2    0    0  0.00000000000E+00  0.00000000000E+00 -0.97668726190E+02  0.15863011140E+03  0.12499732864E+03 0.  0.
    9000005    1    3    3    0    0  0.61271325540E+01 -0.40329369751E+01 -0.12759101753E+03  0.12780561055E+03  0.10000000000E+01 0.  0.
    9000005    1    3    3    0    0 -0.61271325540E+01  0.40329369751E+01  0.29922291335E+02  0.30824500851E+02  0.10000000000E+01 0.  0.
<mgrwt>
<rscale>  0 0.12499733E+03</rscale>
<asrwt>0</asrwt>
<pdfrwt beam="2">  1        4 0.19715295E-01 0.12499733E+03</pdfrwt>
<pdfrwt beam="1">  1       -4 0.46893374E-02 0.12499733E+03</pdfrwt>
<totfact> 0.97613402E+03</totfact>
</mgrwt>
</event>
<event>
 5    1  0.3183609E-002  0.1250003E+03  0.7818608E-02  0.1235069E+00
         -4   -1    0    0    0  501 -0.00000000000E+00  0.00000000000E+00  0.23450801979E+03  0.23451145866E+03  0.12700000000E+01 0.  1.
          4   -1    0    0  501    0  0.00000000000E+00 -0.00000000000E+00 -0.16629507598E+02  0.16677932214E+02  0.12700000000E+01 0.  1.
         25    2    1    2    0    0  0.00000000000E+00  0.00000000000E+00  0.21787851219E+03  0.25118939088E+03  0.12500025606E+03 0.  0.
    9000005    1    3    3    0    0  0.59983361194E+02  0.33113394670E+01  0.74348956687E+02  0.95591505636E+02  0.10000000000E+01 0.  0.
    9000005    1    3    3    0    0 -0.59983361194E+02 -0.33113394670E+01  0.14352955550E+03  0.15559788524E+03  0.10000000000E+01 0.  0.
<mgrwt>
<rscale>  0 0.12500026E+03</rscale>
<asrwt>0</asrwt>
<pdfrwt beam="2">  1        4 0.25623754E-02 0.12500026E+03</pdfrwt>
<pdfrwt beam="1">  1       -4 0.36082144E-01 0.12500026E+03</pdfrwt>
<totfact> 0.82158159E+03</totfact>
</mgrwt>
</event>
<event>
 5    1  0.3183609E-002  0.1250042E+03  0.7818608E-02  0.1235063E+00
          4   -1    0    0  501    0  0.00000000000E+00  0.00000000000E+00  0.10655948829E+03  0.10656705609E+03  0.12700000000E+01 0.  1.
         -4   -1    0    0    0  501 -0.00000000000E+00 -0.00000000000E+00 -0.36640521088E+02  0.36662524267E+02  0.12700000000E+01 0.  1.
         25    2    1    2    0    0  0.00000000000E+00  0.00000000000E+00  0.69918967197E+02  0.14322958036E+03  0.12500420279E+03 0.  0.
    9000005    1    3    3    0    0 -0.97502245680E+01 -0.55631441322E+02  0.43088263238E+01  0.56652362060E+02  0.10000000000E+01 0.  0.
    9000005    1    3    3    0    0  0.97502245680E+01  0.55631441322E+02  0.65610140873E+02  0.86577218297E+02  0.10000000000E+01 0.  0.
<mgrwt>
<rscale>  0 0.12500420E+03</rscale>
<asrwt>0</asrwt>
<pdfrwt beam="1">  1        4 0.16396042E-01 0.12500420E+03</pdfrwt>
<pdfrwt beam="2">  1       -4 0.56392780E-02 0.12500420E+03</pdfrwt>
<totfact> 0.10066131E+04</totfact>
</mgrwt>
</event>
<event>
 5    1  0.3183609E-002  0.1249984E+03  0.7818608E-02  0.1235072E+00
          4   -1    0    0  501    0  0.00000000000E+00  0.00000000000E+00  0.21475098529E+02  0.21512618549E+02  0.12700000000E+01 0.  1.
         -4   -1    0    0    0  501 -0.00000000000E+00 -0.00000000000E+00 -0.18169348891E+03  0.18169792738E+03  0.12700000000E+01 0.  1.
         25    2    1    2    0    0  0.00000000000E+00  0.00000000000E+00 -0.16021839039E+03  0.20321054593E+03  0.12499837342E+03 0.  0.
    9000005    1    3    3    0    0 -0.58523078733E+01  0.35836802160E+02  0.25723152199E+01  0.36416242284E+02  0.10000000000E+01 0.  0.
    9000005    1    3    3    0    0  0.58523078733E+01 -0.35836802160E+02 -0.16279070561E+03  0.16679430364E+03  0.10000000000E+01 0.  0.
<mgrwt>
<rscale>  0 0.12499837E+03</rscale>
<asrwt>0</asrwt>
<pdfrwt beam="1">  1        4 0.33070890E-02 0.12499837E+03</pdfrwt>
<pdfrwt beam="2">  1       -4 0.27956071E-01 0.12499837E+03</pdfrwt>
<totfact> 0.89600093E+03</totfact>
</mgrwt>
</event>
<event>
 5    1  0.3183609E-002  0.1249983E+03  0.7818608E-02  0.1235072E+00
         -4   -1    0    0    0  501 -0.00000000000E+00  0.00000000000E+00  0.36465190518E+03  0.36465411673E+03  0.12700000000E+01 0. -1.
          4   -1    0    0  501    0  0.00000000000E+00 -0.00000000000E+00 -0.10672078182E+02  0.10747378877E+02  0.12700000000E+01 0. -1.
         25    2    1    2    0    0  0.00000000000E+00  0.00000000000E+00  0.35397982700E+03  0.37540149561E+03  0.12499825993E+03 0.  0.
    9000005    1    3    3    0    0  0.14386112069E+02  0.50270556341E+02  0.27976317918E+03  0.28460942620E+03  0.10000000000E+01 0.  0.
    9000005    1    3    3    0    0 -0.14386112069E+02 -0.50270556341E+02  0.74216647819E+02  0.90792069416E+02  0.10000000000E+01 0.  0.
<mgrwt>
<rscale>  0 0.12499826E+03</rscale>
<asrwt>0</asrwt>
<pdfrwt beam="2">  1        4 0.16478208E-02 0.12499826E+03</pdfrwt>
<pdfrwt beam="1">  1       -4 0.56106249E-01 0.12499826E+03</pdfrwt>
<totfact> 0.67020180E+03</totfact>
</mgrwt>
</event>
<event>
 5    1  0.3183609E-002  0.1249982E+03  0.7818608E-02  0.1235072E+00
          4   -1    0    0  501    0  0.00000000000E+00  0.00000000000E+00  0.67408672456E+02  0.67420634988E+02  0.12700000000E+01 0. -1.
         -4   -1    0    0    0  501 -0.00000000000E+00 -0.00000000000E+00 -0.57922995120E+02  0.57936916242E+02  0.12700000000E+01 0. -1.
         25    2    1    2    0    0  0.00000000000E+00  0.00000000000E+00  0.94856773360E+01  0.12535755123E+03  0.12499815029E+03 0.  0.
    9000005    1    3    3    0    0  0.78021771678E+01 -0.48014901027E+02 -0.34597871376E+02  0.59701904434E+02  0.10000000000E+01 0.  0.
    9000005    1    3    3    0    0 -0.78021771678E+01  0.48014901027E+02  0.44083548712E+02  0.65655646797E+02  0.10000000000E+01 0.  0.
<mgrwt>
<rscale>  0 0.12499815E+03</rscale>
<asrwt>0</asrwt>
<pdfrwt beam="1">  1        4 0.10372556E-01 0.12499815E+03</pdfrwt>
<pdfrwt beam="2">  1       -4 0.89132211E-02 0.12499815E+03</pdfrwt>
<totfact> 0.10445538E+04</totfact>
</mgrwt>
</event>
<event>
 5    1  0.3183609E-002  0.1249989E+03  0.7818608E-02  0.1235071E+00
         -4   -1    0    0    0  501 -0.00000000000E+00  0.00000000000E+00  0.89698752669E+02  0.89707742868E+02  0.12700000000E+01 0.  1.
          4   -1    0    0  501    0  0.00000000000E+00 -0.00000000000E+00 -0.43527353980E+02  0.43545877468E+02  0.12700000000E+01 0.  1.
         25    2    1    2    0    0  0.00000000000E+00  0.00000000000E+00  0.46171398689E+02  0.13325362034E+03  0.12499891710E+03 0.  0.
    9000005    1    3    3    0    0 -0.54795192550E+02 -0.11308341699E+02 -0.65875385314E+01  0.56345251641E+02  0.10000000000E+01 0.  0.
    9000005    1    3    3    0    0  0.54795192550E+02  0.11308341699E+02  0.52758937221E+02  0.76908368695E+02  0.10000000000E+01 0.  0.
<mgrwt>
<rscale>  0 0.12499892E+03</rscale>
<asrwt>0</asrwt>
<pdfrwt beam="2">  1        4 0.66986325E-02 0.12499892E+03</pdfrwt>
<pdfrwt beam="1">  1       -4 0.13801924E-01 0.12499892E+03</pdfrwt>
<totfact> 0.10275264E+04</totfact>
</mgrwt>
</event>
<event>
 5    1  0.3183609E-002  0.1250028E+03  0.7818608E-02  0.1235065E+00
          4   -1    0    0  501    0  0.00000000000E+00  0.00000000000E+00  0.17396362649E+03  0.17396826217E+03  0.12700000000E+01 0.  1.
         -4   -1    0    0    0  501 -0.00000000000E+00 -0.00000000000E+00 -0.22432511979E+02  0.22468433272E+02  0.12700000000E+01 0.  1.
         25    2    1    2    0    0  0.00000000000E+00  0.00000000000E+00  0.15153111451E+03  0.19643669544E+03  0.12500278657E+03 0.  0.
    9000005    1    3    3    0    0 -0.57478364098E+02  0.13321986502E+02  0.10813098461E+03  0.12318501328E+03  0.10000000000E+01 0.  0.
    9000005    1    3    3    0    0  0.57478364098E+02 -0.13321986502E+02  0.43400129897E+02  0.73251682157E+02  0.10000000000E+01 0.  0.
<mgrwt>
<rscale>  0 0.12500279E+03</rscale>
<asrwt>0</asrwt>
<pdfrwt beam="1">  1        4 0.26766754E-01 0.12500279E+03</pdfrwt>
<pdfrwt beam="2">  1       -4 0.34542755E-02 0.12500279E+03</pdfrwt>
<totfact> 0.90733596E+03</totfact>
</mgrwt>
</event>
<event>
 5    1  0.3183609E-002  0.1249980E+03  0.7818608E-02  0.1235072E+00
         -4   -1    0    0    0  501 -0.00000000000E+00  0.00000000000E+00  0.15814356766E+02  0.15865269614E+02  0.12700000000E+01 0.  1.
          4   -1    0    0  501    0  0.00000000000E+00 -0.00000000000E+00 -0.24654918948E+03  0.24655246041E+03  0.12700000000E+01 0.  1.
         25    2    1    2    0    0  0.00000000000E+00  0.00000000000E+00 -0.23073483272E+03  0.26241773002E+03  0.12499800799E+03 0.  0.
    9000005    1    3    3    0    0 -0.22356009164E+02 -0.58061642171E+02 -0.10309368782E+03  0.12041700007E+03  0.10000000000E+01 0.  0.
    9000005    1    3    3    0    0  0.22356009164E+02  0.58061642171E+02 -0.12764114489E+03  0.14200072995E+03  0.10000000000E+01 0.  0.
<mgrwt>
<rscale>  0 0.12499801E+03</rscale>
<asrwt>0</asrwt>
<pdfrwt beam="2">  1        4 0.37934810E-01 0.12499801E+03</pdfrwt>
<pdfrwt beam="1">  1       -4 0.24371461E-02 0.12499801E+03</pdfrwt>
<totfact> 0.80571533E+03</totfact>
</mgrwt>
</event>
<event>
 5    1  0.3183609E-002  0.1249990E+03  0.7818608E-02  0.1235071E+00
          4   -1    0    0  501    0  0.00000000000E+00  0.00000000000E+00  0.49051318470E+02  0.49067756660E+02  0.12700000000E+01 0. -1.
         -4   -1    0    0    0  501 -0.00000000000E+00 -0.00000000000E+00 -0.79599817828E+02  0.79609948488E+02  0.12700000000E+01 0. -1.
         25    2    1    2    0    0  0.00000000000E+00  0.00000000000E+00 -0.30548499359E+02  0.12867770515E+03  0.12499896395E+03 0.  0.
    9000005    1    3    3    0    0 -0.37407640295E+02 -0.37650545113E+02 -0.49234371727E+02  0.72401094323E+02  0.10000000000E+01 0.  0.
    9000005    1    3    3    0    0  0.37407640295E+02  0.37650545113E+02  0.18685872369E+02  0.56276610825E+02  0.10000000000E+01 0.  0.
<mgrwt>
<rscale>  0 0.12499896E+03</rscale>
<asrwt>0</asrwt>
<pdfrwt beam="1">  1        4 0.75484005E-02 0.12499896E+03</pdfrwt>
<pdfrwt beam="2">  1       -4 0.12248170E-01 0.12499896E+03</pdfrwt>
<totfact> 0.10373120E+04</totfact>
</mgrwt>
</event>
<event>
 5    1  0.3183609E-002  0.1250011E+03  0.7818608E-02  0.1235068E+00
          4   -1    0    0  501    0  0.00000000000E+00  0.00000000000E+00  0.25107197507E+03  0.25107518708E+03  0.12700000000E+01 0.  1.
         -4   -1    0    0    0  501 -0.00000000000E+00 -0.00000000000E+00 -0.15529328802E+02  0.15581173032E+02  0.12700000000E+01 0.  1.
         25    2    1    2    0    0  0.00000000000E+00  0.00000000000E+00  0.23554264627E+03  0.26665636011E+03  0.12500110470E+03 0.  0.
    9000005    1    3    3    0    0  0.43393351200E+02  0.31326694975E+02  0.48944440618E+02  0.72532082652E+02  0.10000000000E+01 0.  0.
    9000005    1    3    3    0    0 -0.43393351200E+02 -0.31326694975E+02  0.18659820565E+03  0.19412427746E+03  0.10000000000E+01 0.  0.
<mgrwt>
<rscale>  0 0.12500110E+03</rscale>
<asrwt>0</asrwt>
<pdfrwt beam="1">  1        4 0.38630691E-01 0.12500110E+03</pdfrwt>
<pdfrwt beam="2">  1       -4 0.23933627E-02 0.12500110E+03</pdfrwt>
<totfact> 0.79978950E+03</totfact>
</mgrwt>
</event>
<event>
 5    1  0.3183609E-002  0.1249989E+03  0.7818608E-02  0.1235071E+00
         -4   -1    0    0    0  501 -0.00000000000E+00  0.00000000000E+00  0.48830470696E+01  0.50454978629E+01  0.12700000000E+01 0. -1.
          4   -1    0    0  501    0  0.00000000000E+00 -0.00000000000E+00 -0.78669572646E+03  0.78669675157E+03  0.12700000000E+01 0. -1.
         25    2    1    2    0    0  0.00000000000E+00  0.00000000000E+00 -0.78181267939E+03  0.79174224943E+03  0.12499889552E+03 0.  0.
    9000005    1    3    3    0    0 -0.45283682552E+02  0.42237852476E+02 -0.33771101514E+03  0.34334294493E+03  0.10000000000E+01 0.  0.
    9000005    1    3    3    0    0  0.45283682552E+02 -0.42237852476E+02 -0.44410166425E+03  0.44839930450E+03  0.10000000000E+01 0.  0.
<mgrwt>
<rscale>  0 0.12499890E+03</rscale>
<asrwt>0</asrwt>
<pdfrwt beam="2">  1        4 0.12104259E+00 0.12499890E+03</pdfrwt>
<pdfrwt beam="1">  1       -4 0.76381371E-03 0.12499890E+03</pdfrwt>
<totfact> 0.38637004E+03</totfact>
</mgrwt>
</event>
<event>
 5    1  0.3183609E-002  0.1249996E+03  0.7818608E-02  0.1235070E+00
          4   -1    0    0  501    0  0.00000000000E+00  0.00000000000E+00  0.49092343462E+02  0.49108767920E+02  0.12700000000E+01 0.  1.
         -4   -1    0    0    0  501 -0.00000000000E+00 -0.00000000000E+00 -0.79534175125E+02  0.79544314145E+02  0.12700000000E+01 0.  1.
         25    2    1    2    0    0  0.00000000000E+00  0.00000000000E+00 -0.30441831663E+02  0.12865308207E+03  0.12499964164E+03 0.  0.
    9000005    1    3    3    0    0  0.27532769727E+02  0.21031717749E+02  0.38307242402E+02  0.51660733452E+02  0.10000000000E+01 0.  0.
    9000005    1    3    3    0    0 -0.27532769727E+02 -0.21031717749E+02 -0.68749074065E+02  0.76992348614E+02  0.10000000000E+01 0.  0.
<mgrwt>
<rscale>  0 0.12499964E+03</rscale>
<asrwt>0</asrwt>
<pdfrwt beam="1">  1        4 0.75547116E-02 0.12499964E+03</pdfrwt>
<pdfrwt beam="2">  1       -4 0.12238070E-01 0.12499964E+03</pdfrwt>
<totfact> 0.10373491E+04</totfact>
</mgrwt>
</event>
<event>
 5    1  0.3183609E-002  0.1249984E+03  0.7818608E-02  0.1235072E+00
          4   -1    0    0  501    0  0.00000000000E+00  0.00000000000E+00  0.45930300698E+02  0.45947855469E+02  0.12700000000E+01 0.  1.
         -4   -1    0    0    0  501 -0.00000000000E+00 -0.00000000000E+00 -0.85006586251E+02  0.85016072633E+02  0.12700000000E+01 0.  1.
         25    2    1    2    0    0  0.00000000000E+00  0.00000000000E+00 -0.39076285553E+02  0.13096392810E+03  0.12499837748E+03 0.  0.
    9000005    1    3    3    0    0 -0.12350675527E+02  0.29311150687E+02  0.36819977252E+02  0.48666142906E+02  0.10000000000E+01 0.  0.
    9000005    1    3    3    0    0  0.12350675527E+02 -0.29311150687E+02 -0.75896262804E+02  0.82297785196E+02  0.10000000000E+01 0.  0.
<mgrwt>
<rscale>  0 0.12499838E+03</rscale>
<asrwt>0</asrwt>
<pdfrwt beam="1">  1        4 0.70682802E-02 0.12499838E+03</pdfrwt>
<pdfrwt beam="2">  1       -4 0.13080016E-01 0.12499838E+03</pdfrwt>
<totfact> 0.10324241E+04</totfact>
</mgrwt>
</event>
<event>
 5    1  0.3183609E-002  0.1250022E+03  0.7818608E-02  0.1235066E+00
          4   -1    0    0  501    0  0.00000000000E+00  0.00000000000E+00  0.13214159647E+03  0.13214769925E+03  0.12700000000E+01 0. -1.
         -4   -1    0    0    0  501 -0.00000000000E+00 -0.00000000000E+00 -0.29541722056E+02  0.29569008134E+02  0.12700000000E+01 0. -1.
         25    2    1    2    0    0  0.00000000000E+00  0.00000000000E+00  0.10259987441E+03  0.16171670739E+03  0.12500223685E+03 0.  0.
    9000005    1    3    3    0    0  0.25189568046E+02 -0.57140353709E+02  0.48169413269E+02  0.78872217764E+02  0.10000000000E+01 0.  0.
    9000005    1    3    3    0    0 -0.25189568046E+02  0.57140353709E+02  0.54430461145E+02  0.82844489622E+02  0.10000000000E+01 0.  0.
<mgrwt>
<rscale>  0 0.12500224E+03</rscale>
<asrwt>0</asrwt>
<pdfrwt beam="1">  1        4 0.20332044E-01 0.12500224E+03</pdfrwt>
<pdfrwt beam="2">  1       -4 0.45474488E-02 0.12500224E+03</pdfrwt>
<totfact> 0.97007958E+03</totfact>
</mgrwt>
</event>
<event>
 5    1  0.3183609E-002  0.1250205E+03  0.7818608E-02  0.1235037E+00
          4   -1    0    0  501    0  0.00000000000E+00  0.00000000000E+00  0.91549678926E+01  0.92426369135E+01  0.12700000000E+01 0. -1.
         -4   -1    0    0    0  501 -0.00000000000E+00 -0.00000000000E+00 -0.42469836139E+03  0.42470026027E+03  0.12700000000E+01 0. -1.
         25    2    1    2    0    0  0.00000000000E+00  0.00000000000E+00 -0.41554339350E+03  0.43394289718E+03  0.12502050284E+03 0.  0.
    9000005    1    3    3    0    0 -0.27157520464E+02 -0.29303557372E+02 -0.37460614641E+03  0.37673199270E+03  0.10000000000E+01 0.  0.
    9000005    1    3    3    0    0  0.27157520464E+02  0.29303557372E+02 -0.40937247089E+02  0.57210904482E+02  0.10000000000E+01 0.  0.
<mgrwt>
<rscale>  0 0.12502050E+03</rscale>
<asrwt>0</asrwt>
<pdfrwt beam="1">  1        4 0.14153468E-02 0.12502050E+03</pdfrwt>
<pdfrwt beam="2">  1       -4 0.65345084E-01 0.12502050E+03</pdfrwt>
<totfact> 0.61352484E+03</totfact>
</mgrwt>
</event>
<event>
 5    1  0.3183609E-002  0.1250066E+03  0.7818608E-02  0.1235059E+00
         -4   -1    0    0    0  501 -0.00000000000E+00  0.00000000000E+00  0.33778145218E+03  0.33778383966E+03  0.12700000000E+01 0.  1.
          4   -1    0    0  501    0  0.00000000000E+00 -0.00000000000E+00 -0.11528343841E+02  0.11598086554E+02  0.12700000000E+01 0.  1.
         25    2    1    2    0    0  0.00000000000E+00  0.00000000000E+00  0.32625310834E+03  0.34938192622E+03  0.12500655849E+03 0.  0.
    9000005    1    3    3    0    0  0.25264001660E+02 -0.55226939797E+02  0.20433371477E+03  0.21317024101E+03  0.10000000000E+01 0.  0.
    9000005    1    3    3    0    0 -0.25264001660E+02  0.55226939797E+02  0.12191939357E+03  0.13621168521E+03  0.10000000000E+01 0.  0.
<mgrwt>
<rscale>  0 0.12500656E+03</rscale>
<asrwt>0</asrwt>
<pdfrwt beam="2">  1        4 0.17791403E-02 0.12500656E+03</pdfrwt>
<pdfrwt beam="1">  1       -4 0.51971913E-01 0.12500656E+03</pdfrwt>
<totfact> 0.69782483E+03</totfact>
</mgrwt>
</event>
<event>
 5    1  0.3183609E-002  0.1249998E+03  0.7818608E-02  0.1235070E+00
         -4   -1    0    0    0  501 -0.00000000000E+00  0.00000000000E+00  0.31710425601E+03  0.31710679917E+03  0.12700000000E+01 0. -1.
          4   -1    0    0  501    0  0.00000000000E+00 -0.00000000000E+00 -0.12283124938E+02  0.12348605518E+02  0.12700000000E+01 0. -1.
         25    2    1    2    0    0  0.00000000000E+00  0.00000000000E+00  0.30482113107E+03  0.32945540468E+03  0.12499976692E+03 0.  0.
    9000005    1    3    3    0    0  0.38314715482E+01 -0.44979413304E+02  0.26630617912E+03  0.27010703218E+03  0.10000000000E+01 0.  0.
    9000005    1    3    3    0    0 -0.38314715482E+01  0.44979413304E+02  0.38514951951E+02  0.59348372507E+02  0.10000000000E+01 0.  0.
<mgrwt>
<rscale>  0 0.12499977E+03</rscale>
<asrwt>0</asrwt>
<pdfrwt beam="2">  1        4 0.18949442E-02 0.12499977E+03</pdfrwt>
<pdfrwt beam="1">  1       -4 0.48790500E-01 0.12499977E+03</pdfrwt>
<totfact> 0.72045838E+03</totfact>
</mgrwt>
</event>
<event>
 5    1  0.3183609E-002  0.1249976E+03  0.7818608E-02  0.1235073E+00
          4   -1    0    0  501    0  0.00000000000E+00  0.00000000000E+00  0.22895807443E+03  0.22896159667E+03  0.12700000000E+01 0.  1.
         -4   -1    0    0    0  501 -0.00000000000E+00 -0.00000000000E+00 -0.17033022478E+02  0.17080303122E+02  0.12700000000E+01 0.  1.
         25    2    1    2    0    0  0.00000000000E+00  0.00000000000E+00  0.21192505195E+03  0.24604189979E+03  0.12499755520E+03 0.  0.
    9000005    1    3    3    0    0  0.15115657764E+02  0.54956064411E+02  0.15639459089E+03  0.16645996571E+03  0.10000000000E+01 0.  0.
    9000005    1    3    3    0    0 -0.15115657764E+02 -0.54956064411E+02  0.55530461061E+02  0.79581934073E+02  0.10000000000E+01 0.  0.
<mgrwt>
<rscale>  0 0.12499756E+03</rscale>
<asrwt>0</asrwt>
<pdfrwt beam="1">  1        4 0.35228227E-01 0.12499756E+03</pdfrwt>
<pdfrwt beam="2">  1       -4 0.26243729E-02 0.12499756E+03</pdfrwt>
<totfact> 0.82910199E+03</totfact>
</mgrwt>
</event>
<event>
 5    1  0.3183609E-002  0.1249987E+03  0.7818608E-02  0.1235071E+00
         -4   -1    0    0    0  501 -0.00000000000E+00  0.00000000000E+00  0.26148144962E+02  0.26178968370E+02  0.12700000000E+01 0. -1.
          4   -1    0    0  501    0  0.00000000000E+00 -0.00000000000E+00 -0.14926457452E+03  0.14926997724E+03  0.12700000000E+01 0. -1.
         25    2    1    2    0    0  0.00000000000E+00  0.00000000000E+00 -0.12311642955E+03  0.17544894561E+03  0.12499870915E+03 0.  0.
    9000005    1    3    3    0    0 -0.84526305876E+01 -0.56846907303E+02 -0.27115441201E+02  0.63555212102E+02  0.10000000000E+01 0.  0.
    9000005    1    3    3    0    0  0.84526305876E+01  0.56846907303E+02 -0.96000988353E+02  0.11189373351E+03  0.10000000000E+01 0.  0.
<mgrwt>
<rscale>  0 0.12499871E+03</rscale>
<asrwt>0</asrwt>
<pdfrwt beam="2">  1        4 0.22966567E-01 0.12499871E+03</pdfrwt>
<pdfrwt beam="1">  1       -4 0.40255783E-02 0.12499871E+03</pdfrwt>
<totfact> 0.94445417E+03</totfact>
</mgrwt>
</event>
<event>
 5    1  0.3183609E-002  0.1250036E+03  0.7818608E-02  0.1235064E+00
         -4   -1    0    0    0  501 -0.00000000000E+00  0.00000000000E+00  0.52782817334E+02  0.52798093769E+02  0.12700000000E+01 0. -1.
          4   -1    0    0  501    0  0.00000000000E+00 -0.00000000000E+00 -0.73978969990E+02  0.73989870258E+02  0.12700000000E+01 0. -1.
         25    2    1    2    0    0  0.00000000000E+00  0.00000000000E+00 -0.21196152656E+02  0.12678796403E+03  0.12500364369E+03 0.  0.
    9000005    1    3    3    0    0 -0.53589125373E+02  0.31983853954E+02 -0.13918404893E+02  0.63949067756E+02  0.10000000000E+01 0.  0.
    9000005    1    3    3    0    0  0.53589125373E+02 -0.31983853954E+02 -0.72777477628E+01  0.62838896271E+02  0.10000000000E+01 0.  0.
<mgrwt>
<rscale>  0 0.12500364E+03</rscale>
<asrwt>0</asrwt>
<pdfrwt beam="2">  1        4 0.11383394E-01 0.12500364E+03</pdfrwt>
<pdfrwt beam="1">  1       -4 0.81224469E-02 0.12500364E+03</pdfrwt>
<totfact> 0.10412899E+04</totfact>
</mgrwt>
</event>
<event>
 5    1  0.3183609E-002  0.1249971E+03  0.7818608E-02  0.1235074E+00
         -4   -1    0    0    0  501 -0.00000000000E+00  0.00000000000E+00  0.55429070074E+01  0.56865383224E+01  0.12700000000E+01 0. -1.
          4   -1    0    0  501    0  0.00000000000E+00 -0.00000000000E+00 -0.69553885052E+03  0.69554000998E+03  0.12700000000E+01 0. -1.
         25    2    1    2    0    0  0.00000000000E+00  0.00000000000E+00 -0.68999594351E+03  0.70122654830E+03  0.12499707989E+03 0.  0.
    9000005    1    3    3    0    0 -0.57490004953E+02  0.24479418153E+02 -0.34977437766E+03  0.35531318277E+03  0.10000000000E+01 0.  0.
    9000005    1    3    3    0    0  0.57490004953E+02 -0.24479418153E+02 -0.34022156585E+03  0.34591336553E+03  0.10000000000E+01 0.  0.
<mgrwt>
<rscale>  0 0.12499708E+03</rscale>
<asrwt>0</asrwt>
<pdfrwt beam="2">  1        4 0.10701705E+00 0.12499708E+03</pdfrwt>
<pdfrwt beam="1">  1       -4 0.86389323E-03 0.12499708E+03</pdfrwt>
<totfact> 0.43024793E+03</totfact>
</mgrwt>
</event>
<event>
 5    1  0.3183609E-002  0.1250008E+03  0.7818608E-02  0.1235068E+00
          4   -1    0    0  501    0  0.00000000000E+00  0.00000000000E+00  0.69867129687E+02  0.69878671358E+02  0.12700000000E+01 0.  1.
         -4   -1    0    0    0  501 -0.00000000000E+00 -0.00000000000E+00 -0.55887034131E+02  0.55901462270E+02  0.12700000000E+01 0.  1.
         25    2    1    2    0    0  0.00000000000E+00  0.00000000000E+00  0.13980095557E+02  0.12578013363E+03  0.12500079577E+03 0.  0.
    9000005    1    3    3    0    0  0.38560386623E+02 -0.36366785931E+02 -0.26320015994E+02  0.59187750231E+02  0.10000000000E+01 0.  0.
    9000005    1    3    3    0    0 -0.38560386623E+02  0.36366785931E+02  0.40300111550E+02  0.66592383397E+02  0.10000000000E+01 0.  0.
<mgrwt>
<rscale>  0 0.12500080E+03</rscale>
<asrwt>0</asrwt>
<pdfrwt beam="1">  1        4 0.10750787E-01 0.12500080E+03</pdfrwt>
<pdfrwt beam="2">  1       -4 0.86000029E-02 0.12500080E+03</pdfrwt>
<totfact> 0.10435595E+04</totfact>
</mgrwt>
</event>
<event>
 5    1  0.3183609E-002  0.1249729E+03  0.7818608E-02  0.1235112E+00
          4   -1    0    0  501    0  0.00000000000E+00  0.00000000000E+00  0.25025564756E+02  0.25057769082E+02  0.12700000000E+01 0.  1.
         -4   -1    0    0    0  501 -0.00000000000E+00 -0.00000000000E+00 -0.15588768091E+03  0.15589285410E+03  0.12700000000E+01 0.  1.
         25    2    1    2    0    0  0.00000000000E+00  0.00000000000E+00 -0.13086211616E+03  0.18095062318E+03  0.12497293541E+03 0.  0.
    9000005    1    3    3    0    0 -0.16365354818E+02 -0.40624320470E+02 -0.12994713418E+03  0.13713284775E+03  0.10000000000E+01 0.  0.
    9000005    1    3    3    0    0  0.16365354818E+02  0.40624320470E+02 -0.91498198222E+00  0.43817775434E+02  0.10000000000E+01 0.  0.
<mgrwt>
<rscale>  0 0.12497294E+03</rscale>
<asrwt>0</asrwt>
<pdfrwt beam="1">  1        4 0.38529622E-02 0.12497294E+03</pdfrwt>
<pdfrwt beam="2">  1       -4 0.23985595E-01 0.12497294E+03</pdfrwt>
<totfact> 0.93502892E+03</totfact>
</mgrwt>
</event>
<event>
 5    1  0.3183609E-002  0.1250014E+03  0.7818608E-02  0.1235067E+00
         -4   -1    0    0    0  501 -0.00000000000E+00  0.00000000000E+00  0.28186064305E+02  0.28214661455E+02  0.12700000000E+01 0. -1.
          4   -1    0    0  501    0  0.00000000000E+00 -0.00000000000E+00 -0.13848937307E+03  0.13849519614E+03  0.12700000000E+01 0. -1.
         25    2    1    2    0    0  0.00000000000E+00  0.00000000000E+00 -0.11030330876E+03  0.16670985759E+03  0.12500142677E+03 0.  0.
    9000005    1    3    3    0    0 -0.10585572286E+02 -0.60561595481E+02 -0.40206408425E+02  0.73466430881E+02  0.10000000000E+01 0.  0.
    9000005    1    3    3    0    0  0.10585572286E+02  0.60561595481E+02 -0.70096900339E+02  0.93243426712E+02  0.10000000000E+01 0.  0.
<mgrwt>
<rscale>  0 0.12500143E+03</rscale>
<asrwt>0</asrwt>
<pdfrwt beam="2">  1        4 0.21308705E-01 0.12500143E+03</pdfrwt>
<pdfrwt beam="1">  1       -4 0.43389654E-02 0.12500143E+03</pdfrwt>
<totfact> 0.96061471E+03</totfact>
</mgrwt>
</event>
<event>
 5    1  0.3183609E-002  0.1250003E+03  0.7818608E-02  0.1235069E+00
         -4   -1    0    0    0  501 -0.00000000000E+00  0.00000000000E+00  0.84041006499E+02  0.84050601862E+02  0.12700000000E+01 0. -1.
          4   -1    0    0  501    0  0.00000000000E+00 -0.00000000000E+00 -0.46459618005E+02  0.46476972849E+02  0.12700000000E+01 0. -1.
         25    2    1    2    0    0  0.00000000000E+00  0.00000000000E+00  0.37581388494E+02  0.13052757471E+03  0.12500034799E+03 0.  0.
    9000005    1    3    3    0    0 -0.41616451492E+02 -0.39239479836E+02 -0.74938629802E+01  0.57695959954E+02  0.10000000000E+01 0.  0.
    9000005    1    3    3    0    0  0.41616451492E+02  0.39239479836E+02  0.45075251474E+02  0.72831614756E+02  0.10000000000E+01 0.  0.
<mgrwt>
<rscale>  0 0.12500035E+03</rscale>
<asrwt>0</asrwt>
<pdfrwt beam="2">  1        4 0.71497066E-02 0.12500035E+03</pdfrwt>
<pdfrwt beam="1">  1       -4 0.12931459E-01 0.12500035E+03</pdfrwt>
<totfact> 0.10333147E+04</totfact>
</mgrwt>
</event>
<event>
 5    1  0.3183609E-002  0.1250022E+03  0.7818608E-02  0.1235066E+00
         -4   -1    0    0    0  501 -0.00000000000E+00  0.00000000000E+00  0.15018410848E+03  0.15018947813E+03  0.12700000000E+01 0. -1.
          4   -1    0    0  501    0  0.00000000000E+00 -0.00000000000E+00 -0.25989334175E+02  0.26020345710E+02  0.12700000000E+01 0. -1.
         25    2    1    2    0    0  0.00000000000E+00  0.00000000000E+00  0.12419477431E+03  0.17620982384E+03  0.12500224019E+03 0.  0.
    9000005    1    3    3    0    0  0.52385348983E+02 -0.11752866994E+02  0.10718504124E+03  0.11988322542E+03  0.10000000000E+01 0.  0.
    9000005    1    3    3    0    0 -0.52385348983E+02  0.11752866994E+02  0.17009733064E+02  0.56326598420E+02  0.10000000000E+01 0.  0.
<mgrwt>
<rscale>  0 0.12500224E+03</rscale>
<asrwt>0</asrwt>
<pdfrwt beam="2">  1        4 0.40011576E-02 0.12500224E+03</pdfrwt>
<pdfrwt beam="1">  1       -4 0.23108046E-01 0.12500224E+03</pdfrwt>
<totfact> 0.94298991E+03</totfact>
</mgrwt>
</event>
<event>
 5    1  0.3183609E-002  0.1250022E+03  0.7818608E-02  0.1235066E+00
          4   -1    0    0  501    0  0.00000000000E+00  0.00000000000E+00  0.59374764712E+01  0.60717811923E+01  0.12700000000E+01 0. -1.
         -4   -1    0    0    0  501 -0.00000000000E+00 -0.00000000000E+00 -0.65042761003E+03  0.65042884991E+03  0.12700000000E+01 0. -1.
         25    2    1    2    0    0  0.00000000000E+00  0.00000000000E+00 -0.64449013356E+03  0.65650063110E+03  0.12500218549E+03 0.  0.
    9000005    1    3    3    0    0  0.10401276952E+02  0.57182467825E+02 -0.20163783197E+03  0.20984955676E+03  0.10000000000E+01 0.  0.
    9000005    1    3    3    0    0 -0.10401276952E+02 -0.57182467825E+02 -0.44285230159E+03  0.44665107435E+03  0.10000000000E+01 0.  0.
<mgrwt>
<rscale>  0 0.12500219E+03</rscale>
<asrwt>0</asrwt>
<pdfrwt beam="1">  1        4 0.92388494E-03 0.12500219E+03</pdfrwt>
<pdfrwt beam="2">  1       -4 0.10007616E+00 0.12500219E+03</pdfrwt>
<totfact> 0.45482158E+03</totfact>
</mgrwt>
</event>
<event>
 5    1  0.3183609E-002  0.1250004E+03  0.7818608E-02  0.1235069E+00
         -4   -1    0    0    0  501 -0.00000000000E+00  0.00000000000E+00  0.35572323912E+03  0.35572550619E+03  0.12700000000E+01 0. -1.
          4   -1    0    0  501    0  0.00000000000E+00 -0.00000000000E+00 -0.10942190291E+02  0.11015644709E+02  0.12700000000E+01 0. -1.
         25    2    1    2    0    0  0.00000000000E+00  0.00000000000E+00  0.34478104883E+03  0.36674115089E+03  0.12500040051E+03 0.  0.
    9000005    1    3    3    0    0 -0.17373817580E+02  0.26435309286E+02  0.14268851913E+02  0.34717074319E+02  0.10000000000E+01 0.  0.
    9000005    1    3    3    0    0  0.17373817580E+02 -0.26435309286E+02  0.33051219692E+03  0.33202407658E+03  0.10000000000E+01 0.  0.
<mgrwt>
<rscale>  0 0.12500040E+03</rscale>
<asrwt>0</asrwt>
<pdfrwt beam="2">  1        4 0.16892388E-02 0.12500040E+03</pdfrwt>
<pdfrwt beam="1">  1       -4 0.54732472E-01 0.12500040E+03</pdfrwt>
<totfact> 0.67920657E+03</totfact>
</mgrwt>
</event>
<event>
 5    1  0.3183609E-002  0.1249951E+03  0.7818608E-02  0.1235077E+00
          4   -1    0    0  501    0  0.00000000000E+00  0.00000000000E+00  0.36194306101E+03  0.36194528912E+03  0.12700000000E+01 0. -1.
         -4   -1    0    0    0  501 -0.00000000000E+00 -0.00000000000E+00 -0.10751969681E+02  0.10826714738E+02  0.12700000000E+01 0. -1.
         25    2    1    2    0    0  0.00000000000E+00  0.00000000000E+00  0.35119109133E+03  0.37277200386E+03  0.12499513682E+03 0.  0.
    9000005    1    3    3    0    0  0.28912564541E+02 -0.79226747067E+01  0.12078865516E+02  0.32335802990E+02  0.10000000000E+01 0.  0.
    9000005    1    3    3    0    0 -0.28912564541E+02  0.79226747067E+01  0.33911222582E+03  0.34043620087E+03  0.10000000000E+01 0.  0.
<mgrwt>
<rscale>  0 0.12499514E+03</rscale>
<asrwt>0</asrwt>
<pdfrwt beam="1">  1        4 0.55689459E-01 0.12499514E+03</pdfrwt>
<pdfrwt beam="2">  1       -4 0.16600705E-02 0.12499514E+03</pdfrwt>
<totfact> 0.67297166E+03</totfact>
</mgrwt>
</event>
<event>
 5    1  0.3183609E-002  0.1249950E+03  0.7818608E-02  0.1235077E+00
         -4   -1    0    0    0  501 -0.00000000000E+00  0.00000000000E+00  0.37991868798E+02  0.38013089782E+02  0.12700000000E+01 0.  1.
          4   -1    0    0  501    0  0.00000000000E+00 -0.00000000000E+00 -0.10275592384E+03  0.10276377175E+03  0.12700000000E+01 0.  1.
         25    2    1    2    0    0  0.00000000000E+00  0.00000000000E+00 -0.64764055039E+02  0.14077686153E+03  0.12499496757E+03 0.  0.
    9000005    1    3    3    0    0 -0.49588892063E+02 -0.80320362066E+01  0.94773497927E+01  0.51131125361E+02  0.10000000000E+01 0.  0.
    9000005    1    3    3    0    0  0.49588892063E+02  0.80320362066E+01 -0.74241404832E+02  0.89645736168E+02  0.10000000000E+01 0.  0.
<mgrwt>
<rscale>  0 0.12499497E+03</rscale>
<asrwt>0</asrwt>
<pdfrwt beam="2">  1        4 0.15810840E-01 0.12499497E+03</pdfrwt>
<pdfrwt beam="1">  1       -4 0.58471390E-02 0.12499497E+03</pdfrwt>
<totfact> 0.10118657E+04</totfact>
</mgrwt>
</event>
<event>
 5    1  0.3183609E-002  0.1249975E+03  0.7818608E-02  0.1235073E+00
         -4   -1    0    0    0  501 -0.00000000000E+00  0.00000000000E+00  0.42480240928E+02  0.42499220808E+02  0.12700000000E+01 0.  1.
          4   -1    0    0  501    0  0.00000000000E+00 -0.00000000000E+00 -0.91906888008E+02  0.91915662231E+02  0.12700000000E+01 0.  1.
         25    2    1    2    0    0  0.00000000000E+00  0.00000000000E+00 -0.49426647080E+02  0.13441488304E+03  0.12499746934E+03 0.  0.
    9000005    1    3    3    0    0  0.57379479971E+02 -0.13516653516E+02 -0.24149135017E+01  0.59007935494E+02  0.10000000000E+01 0.  0.
    9000005    1    3    3    0    0 -0.57379479971E+02  0.13516653516E+02 -0.47011733578E+02  0.75406947545E+02  0.10000000000E+01 0.  0.
<mgrwt>
<rscale>  0 0.12499747E+03</rscale>
<asrwt>0</asrwt>
<pdfrwt beam="2">  1        4 0.14141656E-01 0.12499747E+03</pdfrwt>
<pdfrwt beam="1">  1       -4 0.65375566E-02 0.12499747E+03</pdfrwt>
<totfact> 0.10251003E+04</totfact>
</mgrwt>
</event>
<event>
 5    1  0.3183609E-002  0.1249976E+03  0.7818608E-02  0.1235073E+00
          4   -1    0    0  501    0  0.00000000000E+00  0.00000000000E+00  0.56575449258E+03  0.56575591802E+03  0.12700000000E+01 0. -1.
         -4   -1    0    0    0  501 -0.00000000000E+00 -0.00000000000E+00 -0.68443834841E+01  0.69612129172E+01  0.12700000000E+01 0. -1.
         25    2    1    2    0    0  0.00000000000E+00  0.00000000000E+00  0.55891010910E+03  0.57271713094E+03  0.12499760805E+03 0.  0.
    9000005    1    3    3    0    0  0.50750905593E+02  0.36131257704E+02  0.25701893770E+03  0.26446333685E+03  0.10000000000E+01 0.  0.
    9000005    1    3    3    0    0 -0.50750905593E+02 -0.36131257704E+02  0.30189117140E+03  0.30825379409E+03  0.10000000000E+01 0.  0.
<mgrwt>
<rscale>  0 0.12499761E+03</rscale>
<asrwt>0</asrwt>
<pdfrwt beam="1">  1        4 0.87048273E-01 0.12499761E+03</pdfrwt>
<pdfrwt beam="2">  1       -4 0.10620783E-02 0.12499761E+03</pdfrwt>
<totfact> 0.50638997E+03</totfact>
</mgrwt>
</event>
<event>
 5    1  0.3183609E-002  0.1249966E+03  0.7818608E-02  0.1235075E+00
          4   -1    0    0  501    0  0.00000000000E+00  0.00000000000E+00  0.18347926319E+02  0.18391826995E+02  0.12700000000E+01 0. -1.
         -4   -1    0    0    0  501 -0.00000000000E+00 -0.00000000000E+00 -0.21258700653E+03  0.21259080000E+03  0.12700000000E+01 0. -1.
         25    2    1    2    0    0  0.00000000000E+00  0.00000000000E+00 -0.19423908021E+03  0.23098262699E+03  0.12499661473E+03 0.  0.
    9000005    1    3    3    0    0 -0.34037156743E+02 -0.51921872699E+02 -0.11026824468E+03  0.12654838873E+03  0.10000000000E+01 0.  0.
    9000005    1    3    3    0    0  0.34037156743E+02  0.51921872699E+02 -0.83970835524E+02  0.10443423827E+03  0.10000000000E+01 0.  0.
<mgrwt>
<rscale>  0 0.12499661E+03</rscale>
<asrwt>0</asrwt>
<pdfrwt beam="1">  1        4 0.28264268E-02 0.12499661E+03</pdfrwt>
<pdfrwt beam="2">  1       -4 0.32709360E-01 0.12499661E+03</pdfrwt>
<totfact> 0.85165374E+03</totfact>
</mgrwt>
</event>
<event>
 5    1  0.3183609E-002  0.1249989E+03  0.7818608E-02  0.1235071E+00
         -4   -1    0    0    0  501 -0.00000000000E+00  0.00000000000E+00  0.23079505334E+02  0.23114421180E+02  0.12700000000E+01 0.  1.
          4   -1    0    0  501    0  0.00000000000E+00 -0.00000000000E+00 -0.16908375526E+03  0.16908852472E+03  0.12700000000E+01 0.  1.
         25    2    1    2    0    0  0.00000000000E+00  0.00000000000E+00 -0.14600424993E+03  0.19220294590E+03  0.12499892566E+03 0.  0.
    9000005    1    3    3    0    0  0.49108790277E+01  0.61277795239E+02 -0.90268761287E+02  0.10921782907E+03  0.10000000000E+01 0.  0.
    9000005    1    3    3    0    0 -0.49108790277E+01 -0.61277795239E+02 -0.55735488638E+02  0.82985116834E+02  0.10000000000E+01 0.  0.
<mgrwt>
<rscale>  0 0.12499893E+03</rscale>
<asrwt>0</asrwt>
<pdfrwt beam="2">  1        4 0.26015937E-01 0.12499893E+03</pdfrwt>
<pdfrwt beam="1">  1       -4 0.35537460E-02 0.12499893E+03</pdfrwt>
<totfact> 0.91467617E+03</totfact>
</mgrwt>
</event>
<event>
 5    1  0.3183609E-002  0.1250033E+03  0.7818608E-02  0.1235064E+00
         -4   -1    0    0    0  501 -0.00000000000E+00  0.00000000000E+00  0.86043434653E+02  0.86052806735E+02  0.12700000000E+01 0. -1.
          4   -1    0    0  501    0  0.00000000000E+00 -0.00000000000E+00 -0.45380249043E+02  0.45398016511E+02  0.12700000000E+01 0. -1.
         25    2    1    2    0    0  0.00000000000E+00  0.00000000000E+00  0.40663185611E+02  0.13145082325E+03  0.12500329703E+03 0.  0.
    9000005    1    3    3    0    0 -0.35665312494E+02  0.10883929624E+02 -0.32404657965E+02  0.49411904408E+02  0.10000000000E+01 0.  0.
    9000005    1    3    3    0    0  0.35665312494E+02 -0.10883929624E+02  0.73067843576E+02  0.82038918838E+02  0.10000000000E+01 0.  0.
<mgrwt>
<rscale>  0 0.12500330E+03</rscale>
<asrwt>0</asrwt>
<pdfrwt beam="2">  1        4 0.69836645E-02 0.12500330E+03</pdfrwt>
<pdfrwt beam="1">  1       -4 0.13239539E-01 0.12500330E+03</pdfrwt>
<totfact> 0.10312667E+04</totfact>
</mgrwt>
</event>
<event>
 5    1  0.3183609E-002  0.1249890E+03  0.7818608E-02  0.1235086E+00
          4   -1    0    0  501    0  0.00000000000E+00  0.00000000000E+00  0.70504879190E+03  0.70504993572E+03  0.12700000000E+01 0. -1.
         -4   -1    0    0    0  501 -0.00000000000E+00 -0.00000000000E+00 -0.54654692432E+01  0.56110831439E+01  0.12700000000E+01 0. -1.
         25    2    1    2    0    0  0.00000000000E+00  0.00000000000E+00  0.69958332266E+03  0.71066101887E+03  0.12498903310E+03 0.  0.
    9000005    1    3    3    0    0 -0.56184807923E+02 -0.66510835541E+01  0.19897407993E+03  0.20686385387E+03  0.10000000000E+01 0.  0.
    9000005    1    3    3    0    0  0.56184807923E+02  0.66510835541E+01  0.50060924273E+03  0.50379716499E+03  0.10000000000E+01 0.  0.
<mgrwt>
<rscale>  0 0.12498903E+03</rscale>
<asrwt>0</asrwt>
<pdfrwt beam="1">  1        4 0.10848031E+00 0.12498903E+03</pdfrwt>
<pdfrwt beam="2">  1       -4 0.85213066E-03 0.12498903E+03</pdfrwt>
<totfact> 0.42540073E+03</totfact>
</mgrwt>
</event>
<event>
 5    1  0.3183609E-002  0.1250049E+03  0.7818608E-02  0.1235062E+00
          4   -1    0    0  501    0  0.00000000000E+00  0.00000000000E+00  0.13159717912E+03  0.13160330715E+03  0.12700000000E+01 0. -1.
         -4   -1    0    0    0  501 -0.00000000000E+00 -0.00000000000E+00 -0.29665303889E+02  0.29692476401E+02  0.12700000000E+01 0. -1.
         25    2    1    2    0    0  0.00000000000E+00  0.00000000000E+00  0.10193187524E+03  0.16129578355E+03  0.12500489032E+03 0.  0.
    9000005    1    3    3    0    0 -0.45996492635E+01  0.32183675861E+02  0.11983314935E+03  0.12416895525E+03  0.10000000000E+01 0.  0.
    9000005    1    3    3    0    0  0.45996492635E+01 -0.32183675861E+02 -0.17901274110E+02  0.37126828306E+02  0.10000000000E+01 0.  0.
<mgrwt>
<rscale>  0 0.12500489E+03</rscale>
<asrwt>0</asrwt>
<pdfrwt beam="1">  1        4 0.20248281E-01 0.12500489E+03</pdfrwt>
<pdfrwt beam="2">  1       -4 0.45664545E-02 0.12500489E+03</pdfrwt>
<totfact> 0.97082878E+03</totfact>
</mgrwt>
</event>
<event>
 5    1  0.3183609E-002  0.1250000E+03  0.7818608E-02  0.1235069E+00
         -4   -1    0    0    0  501 -0.00000000000E+00  0.00000000000E+00  0.25934022476E+02  0.25965100073E+02  0.12700000000E+01 0.  1.
          4   -1    0    0  501    0  0.00000000000E+00 -0.00000000000E+00 -0.15049856634E+03  0.15050392476E+03  0.12700000000E+01 0.  1.
         25    2    1    2    0    0  0.00000000000E+00  0.00000000000E+00 -0.12456454386E+03  0.17646902484E+03  0.12499996456E+03 0.  0.
    9000005    1    3    3    0    0  0.35393187969E+02  0.35983196224E+02 -0.10261925657E+02  0.51514806447E+02  0.10000000000E+01 0.  0.
    9000005    1    3    3    0    0 -0.35393187969E+02 -0.35983196224E+02 -0.11430261820E+03  0.12495421839E+03  0.10000000000E+01 0.  0.
<mgrwt>
<rscale>  0 0.12499996E+03</rscale>
<asrwt>0</asrwt>
<pdfrwt beam="2">  1        4 0.23156428E-01 0.12499996E+03</pdfrwt>
<pdfrwt beam="1">  1       -4 0.39926525E-02 0.12499996E+03</pdfrwt>
<totfact> 0.94256554E+03</totfact>
</mgrwt>
</event>
<event>
 5    1  0.3183609E-002  0.1249976E+03  0.7818608E-02  0.1235073E+00
         -4   -1    0    0    0  501 -0.00000000000E+00  0.00000000000E+00  0.33587085911E+03  0.33587326018E+03  0.12700000000E+01 0. -1.
          4   -1    0    0  501    0  0.00000000000E+00 -0.00000000000E+00 -0.11592642572E+02  0.11662000764E+02  0.12700000000E+01 0. -1.
         25    2    1    2    0    0  0.00000000000E+00  0.00000000000E+00  0.32427821654E+03  0.34753526094E+03  0.12499758347E+03 0.  0.
    9000005    1    3    3    0    0 -0.42150748981E+02 -0.15883168649E+02  0.41710496445E+02  0.61398096059E+02  0.10000000000E+01 0.  0.
    9000005    1    3    3    0    0  0.42150748981E+02  0.15883168649E+02  0.28256772010E+03  0.28613716488E+03  0.10000000000E+01 0.  0.
<mgrwt>
<rscale>  0 0.12499758E+03</rscale>
<asrwt>0</asrwt>
<pdfrwt beam="2">  1        4 0.17890037E-02 0.12499758E+03</pdfrwt>
<pdfrwt beam="1">  1       -4 0.51677952E-01 0.12499758E+03</pdfrwt>
<totfact> 0.70000308E+03</totfact>
</mgrwt>
</event>
<event>
 5    1  0.3183609E-002  0.1250083E+03  0.7818608E-02  0.1235056E+00
         -4   -1    0    0    0  501 -0.00000000000E+00  0.00000000000E+00  0.25570225342E+02  0.25601744551E+02  0.12700000000E+01 0. -1.
          4   -1    0    0  501    0  0.00000000000E+00 -0.00000000000E+00 -0.15265766442E+03  0.15266294706E+03  0.12700000000E+01 0. -1.
         25    2    1    2    0    0  0.00000000000E+00  0.00000000000E+00 -0.12708743907E+03  0.17826469161E+03  0.12500833214E+03 0.  0.
    9000005    1    3    3    0    0  0.17641327848E+02  0.58005616955E+02 -0.41921591479E+02  0.73717622579E+02  0.10000000000E+01 0.  0.
    9000005    1    3    3    0    0 -0.17641327848E+02 -0.58005616955E+02 -0.85165847595E+02  0.10454706903E+03  0.10000000000E+01 0.  0.
<mgrwt>
<rscale>  0 0.12500833E+03</rscale>
<asrwt>0</asrwt>
<pdfrwt beam="2">  1        4 0.23488625E-01 0.12500833E+03</pdfrwt>
<pdfrwt beam="1">  1       -4 0.39367119E-02 0.12500833E+03</pdfrwt>
<totfact> 0.93912751E+03</totfact>
</mgrwt>
</event>
<event>
 5    1  0.3183609E-002  0.1249917E+03  0.7818608E-02  0.1235082E+00
         -4   -1    0    0    0  501 -0.00000000000E+00  0.00000000000E+00  0.45899767952E+02  0.45917334396E+02  0.12700000000E+01 0.  1.
          4   -1    0    0  501    0  0.00000000000E+00 -0.00000000000E+00 -0.85054073018E+02  0.85063554105E+02  0.12700000000E+01 0.  1.
         25    2    1    2    0    0  0.00000000000E+00  0.00000000000E+00 -0.39154305066E+02  0.13098088850E+03  0.12499173392E+03 0.  0.
    9000005    1    3    3    0    0  0.47823856413E+02 -0.37290611499E+02 -0.35366385459E+02  0.70210342320E+02  0.10000000000E+01 0.  0.
    9000005    1    3    3    0    0 -0.47823856413E+02  0.37290611499E+02 -0.37879196072E+01  0.60770546181E+02  0.10000000000E+01 0.  0.
<mgrwt>
<rscale>  0 0.12499173E+03</rscale>
<asrwt>0</asrwt>
<pdfrwt beam="2">  1        4 0.13087323E-01 0.12499173E+03</pdfrwt>
<pdfrwt beam="1">  1       -4 0.70635834E-02 0.12499173E+03</pdfrwt>
<totfact> 0.10325424E+04</totfact>
</mgrwt>
</event>
<event>
 5    1  0.3183609E-002  0.1250000E+03  0.7818608E-02  0.1235069E+00
         -4   -1    0    0    0  501 -0.00000000000E+00  0.00000000000E+00  0.36304101315E+02  0.36326308267E+02  0.12700000000E+01 0. -1.
          4   -1    0    0  501    0  0.00000000000E+00 -0.00000000000E+00 -0.10753921657E+03  0.10754671543E+03  0.12700000000E+01 0. -1.
         25    2    1    2    0    0  0.00000000000E+00  0.00000000000E+00 -0.71235115254E+02  0.14387302370E+03  0.12500002121E+03 0.  0.
    9000005    1    3    3    0    0 -0.11896991334E+02 -0.54515778037E+02 -0.32312554049E+01  0.55901247475E+02  0.10000000000E+01 0.  0.
    9000005    1    3    3    0    0  0.11896991334E+02  0.54515778037E+02 -0.68003859849E+02  0.87971776225E+02  0.10000000000E+01 0.  0.
<mgrwt>
<rscale>  0 0.12500002E+03</rscale>
<asrwt>0</asrwt>
<pdfrwt beam="2">  1        4 0.16546780E-01 0.12500002E+03</pdfrwt>
<pdfrwt beam="1">  1       -4 0.55875315E-02 0.12500002E+03</pdfrwt>
<totfact> 0.10053932E+04</totfact>
</mgrwt>
</event>
<event>
 5    1  0.3183609E-002  0.1249974E+03  0.7818608E-02  0.1235073E+00
          4   -1    0    0  501    0  0.00000000000E+00  0.00000000000E+00  0.79699316314E+02  0.79709434328E+02  0.12700000000E+01 0.  1.
         -4   -1    0    0    0  501 -0.00000000000E+00 -0.00000000000E+00 -0.48988863578E+02  0.49005322718E+02  0.12700000000E+01 0.  1.
         25    2    1    2    0    0  0.00000000000E+00  0.00000000000E+00  0.30710452736E+02  0.12871475705E+03  0.12499742707E+03 0.  0.
    9000005    1    3    3    0    0 -0.22274452145E+02 -0.40382513889E+02 -0.28067432849E+02  0.53997031706E+02  0.10000000000E+01 0.  0.
    9000005    1    3    3    0    0  0.22274452145E+02  0.40382513889E+02  0.58777885584E+02  0.74717725341E+02  0.10000000000E+01 0.  0.
<mgrwt>
<rscale>  0 0.12499743E+03</rscale>
<asrwt>0</asrwt>
<pdfrwt beam="1">  1        4 0.12263478E-01 0.12499743E+03</pdfrwt>
<pdfrwt beam="2">  1       -4 0.75387926E-02 0.12499743E+03</pdfrwt>
<totfact> 0.10372683E+04</totfact>
</mgrwt>
</event>
<event>
 5    1  0.3183609E-002  0.1250000E+03  0.7818608E-02  0.1235069E+00
          4   -1    0    0  501    0  0.00000000000E+00  0.00000000000E+00  0.25240614396E+03  0.25240933899E+03  0.12700000000E+01 0. -1.
         -4   -1    0    0    0  501 -0.00000000000E+00 -0.00000000000E+00 -0.15446685620E+02  0.15498806297E+02  0.12700000000E+01 0. -1.
         25    2    1    2    0    0  0.00000000000E+00  0.00000000000E+00  0.23695945834E+03  0.26790814529E+03  0.12499995765E+03 0.  0.
    9000005    1    3    3    0    0  0.31075738495E+01 -0.46387845916E+02  0.20797893252E+03  0.21311434873E+03  0.10000000000E+01 0.  0.
    9000005    1    3    3    0    0 -0.31075738495E+01  0.46387845916E+02  0.28980525824E+02  0.54793796555E+02  0.10000000000E+01 0.  0.
<mgrwt>
<rscale>  0 0.12499996E+03</rscale>
<asrwt>0</asrwt>
<pdfrwt beam="1">  1        4 0.38835967E-01 0.12499996E+03</pdfrwt>
<pdfrwt beam="2">  1       -4 0.23806684E-02 0.12499996E+03</pdfrwt>
<totfact> 0.79808993E+03</totfact>
</mgrwt>
</event>
<event>
 5    1  0.3183609E-002  0.1249982E+03  0.7818608E-02  0.1235072E+00
          4   -1    0    0  501    0  0.00000000000E+00  0.00000000000E+00  0.62566600300E+02  0.62579488438E+02  0.12700000000E+01 0.  1.
         -4   -1    0    0    0  501 -0.00000000000E+00 -0.00000000000E+00 -0.62405862809E+02  0.62418784135E+02  0.12700000000E+01 0.  1.
         25    2    1    2    0    0  0.00000000000E+00  0.00000000000E+00  0.16073749141E+00  0.12499827257E+03  0.12499816923E+03 0.  0.
    9000005    1    3    3    0    0  0.41727747207E+02 -0.14778722799E+02  0.44188454852E+02  0.62555855655E+02  0.10000000000E+01 0.  0.
    9000005    1    3    3    0    0 -0.41727747207E+02  0.14778722799E+02 -0.44027717361E+02  0.62442416918E+02  0.10000000000E+01 0.  0.
<mgrwt>
<rscale>  0 0.12499817E+03</rscale>
<asrwt>0</asrwt>
<pdfrwt beam="1">  1        4 0.96276162E-02 0.12499817E+03</pdfrwt>
<pdfrwt beam="2">  1       -4 0.96028873E-02 0.12499817E+03</pdfrwt>
<totfact> 0.10453333E+04</totfact>
</mgrwt>
</event>
<event>
 5    1  0.3183609E-002  0.1250079E+03  0.7818608E-02  0.1235057E+00
         -4   -1    0    0    0  501 -0.00000000000E+00  0.00000000000E+00  0.74135431218E+01  0.75215371845E+01  0.12700000000E+01 0. -1.
          4   -1    0    0  501    0  0.00000000000E+00 -0.00000000000E+00 -0.52305490595E+03  0.52305644775E+03  0.12700000000E+01 0. -1.
         25    2    1    2    0    0  0.00000000000E+00  0.00000000000E+00 -0.51564136283E+03  0.53057798494E+03  0.12500793192E+03 0.  0.
    9000005    1    3    3    0    0  0.17087271518E+02 -0.31112967045E+02 -0.47613710200E+03  0.47745945531E+03  0.10000000000E+01 0.  0.
    9000005    1    3    3    0    0 -0.17087271518E+02  0.31112967045E+02 -0.39504260832E+02  0.53118529631E+02  0.10000000000E+01 0.  0.
<mgrwt>
<rscale>  0 0.12500793E+03</rscale>
<asrwt>0</asrwt>
<pdfrwt beam="2">  1        4 0.80478383E-01 0.12500793E+03</pdfrwt>
<pdfrwt beam="1">  1       -4 0.11489713E-02 0.12500793E+03</pdfrwt>
<totfact> 0.53558244E+03</totfact>
</mgrwt>
</event>
<event>
 5    1  0.3183609E-002  0.1250013E+03  0.7818608E-02  0.1235067E+00
         -4   -1    0    0    0  501 -0.00000000000E+00  0.00000000000E+00  0.10782902034E+03  0.10783649905E+03  0.12700000000E+01 0.  1.
          4   -1    0    0  501    0  0.00000000000E+00 -0.00000000000E+00 -0.36207210245E+02  0.36229476586E+02  0.12700000000E+01 0.  1.
         25    2    1    2    0    0  0.00000000000E+00  0.00000000000E+00  0.71621810099E+02  0.14406597564E+03  0.12500128661E+03 0.  0.
    9000005    1    3    3    0    0  0.60263340671E+02  0.90876180720E+01  0.19879674936E+02  0.64112841979E+02  0.10000000000E+01 0.  0.
    9000005    1    3    3    0    0 -0.60263340671E+02 -0.90876180720E+01  0.51742135163E+02  0.79953133661E+02  0.10000000000E+01 0.  0.
<mgrwt>
<rscale>  0 0.12500129E+03</rscale>
<asrwt>0</asrwt>
<pdfrwt beam="2">  1        4 0.55726281E-02 0.12500129E+03</pdfrwt>
<pdfrwt beam="1">  1       -4 0.16591368E-01 0.12500129E+03</pdfrwt>
<totfact> 0.10049709E+04</totfact>
</mgrwt>
</event>
<event>
 5    1  0.3183609E-002  0.1249976E+03  0.7818608E-02  0.1235073E+00
         -4   -1    0    0    0  501 -0.00000000000E+00  0.00000000000E+00  0.66477840437E+01  0.67680080298E+01  0.12700000000E+01 0.  1.
          4   -1    0    0  501    0  0.00000000000E+00 -0.00000000000E+00 -0.58219256265E+03  0.58219394785E+03  0.12700000000E+01 0.  1.
         25    2    1    2    0    0  0.00000000000E+00  0.00000000000E+00 -0.57554477861E+03  0.58896195588E+03  0.12499757312E+03 0.  0.
    9000005    1    3    3    0    0  0.44963003664E+02  0.25955409903E+02 -0.12389000360E+03  0.13433200659E+03  0.10000000000E+01 0.  0.
    9000005    1    3    3    0    0 -0.44963003664E+02 -0.25955409903E+02 -0.45165477501E+03  0.45462994929E+03  0.10000000000E+01 0.  0.
<mgrwt>
<rscale>  0 0.12499757E+03</rscale>
<asrwt>0</asrwt>
<pdfrwt beam="2">  1        4 0.89577402E-01 0.12499757E+03</pdfrwt>
<pdfrwt beam="1">  1       -4 0.10320910E-02 0.12499757E+03</pdfrwt>
<totfact> 0.49574514E+03</totfact>
</mgrwt>
</event>
<event>
 5    1  0.3183609E-002  0.1250007E+03  0.7818608E-02  0.1235068E+00
          4   -1    0    0  501    0  0.00000000000E+00  0.00000000000E+00  0.88467683836E+01  0.89374610955E+01  0.12700000000E+01 0.  1.
         -4   -1    0    0    0  501 -0.00000000000E+00 -0.00000000000E+00 -0.43920701042E+03  0.43920884657E+03  0.12700000000E+01 0.  1.
         25    2    1    2    0    0  0.00000000000E+00  0.00000000000E+00 -0.43036024204E+03  0.44814630766E+03  0.12500070058E+03 0.  0.
    9000005    1    3    3    0    0 -0.36658876798E+02  0.35861935849E+02 -0.87147474460E+02  0.10112187694E+03  0.10000000000E+01 0.  0.
    9000005    1    3    3    0    0  0.36658876798E+02 -0.35861935849E+02 -0.34321276758E+03  0.34702443072E+03  0.10000000000E+01 0.  0.
<mgrwt>
<rscale>  0 0.12500070E+03</rscale>
<asrwt>0</asrwt>
<pdfrwt beam="1">  1        4 0.13681592E-02 0.12500070E+03</pdfrwt>
<pdfrwt beam="2">  1       -4 0.67577410E-01 0.12500070E+03</pdfrwt>
<totfact> 0.60123796E+03</totfact>
</mgrwt>
</event>
<event>
 5    1  0.3183609E-002  0.1250032E+03  0.7818608E-02  0.1235064E+00
          4   -1    0    0  501    0  0.00000000000E+00  0.00000000000E+00  0.47208815877E+03  0.47208986703E+03  0.12700000000E+01 0.  1.
         -4   -1    0    0    0  501 -0.00000000000E+00 -0.00000000000E+00 -0.82243692421E+01  0.83218477173E+01  0.12700000000E+01 0.  1.
         25    2    1    2    0    0  0.00000000000E+00  0.00000000000E+00  0.46386378953E+03  0.48041171474E+03  0.12500320168E+03 0.  0.
    9000005    1    3    3    0    0  0.43018652265E+02  0.64162212959E+01  0.40439152084E+03  0.40672506005E+03  0.10000000000E+01 0.  0.
    9000005    1    3    3    0    0 -0.43018652265E+02 -0.64162212959E+01  0.59472268681E+02  0.73686654697E+02  0.10000000000E+01 0.  0.
<mgrwt>
<rscale>  0 0.12500320E+03</rscale>
<asrwt>0</asrwt>
<pdfrwt beam="1">  1        4 0.72636599E-01 0.12500320E+03</pdfrwt>
<pdfrwt beam="2">  1       -4 0.12729169E-02 0.12500320E+03</pdfrwt>
<totfact> 0.57412807E+03</totfact>
</mgrwt>
</event>
<event>
 5    1  0.3183609E-002  0.1250042E+03  0.7818608E-02  0.1235063E+00
         -4   -1    0    0    0  501 -0.00000000000E+00  0.00000000000E+00  0.86040090047E+01  0.86972335230E+01  0.12700000000E+01 0. -1.
          4   -1    0    0  501    0  0.00000000000E+00 -0.00000000000E+00 -0.45149302592E+03  0.45149481210E+03  0.12700000000E+01 0. -1.
         25    2    1    2    0    0  0.00000000000E+00  0.00000000000E+00 -0.44288901691E+03  0.46019204562E+03  0.12500415014E+03 0.  0.
    9000005    1    3    3    0    0 -0.48130044677E+02  0.36065437934E+02 -0.28395188230E+03  0.29025314550E+03  0.10000000000E+01 0.  0.
    9000005    1    3    3    0    0  0.48130044677E+02 -0.36065437934E+02 -0.15893713462E+03  0.16993890012E+03  0.10000000000E+01 0.  0.
<mgrwt>
<rscale>  0 0.12500415E+03</rscale>
<asrwt>0</asrwt>
<pdfrwt beam="2">  1        4 0.69467756E-01 0.12500415E+03</pdfrwt>
<pdfrwt beam="1">  1       -4 0.13310026E-02 0.12500415E+03</pdfrwt>
<totfact> 0.59085526E+03</totfact>
</mgrwt>
</event>
<event>
 5    1  0.3183609E-002  0.1249929E+03  0.7818608E-02  0.1235080E+00
          4   -1    0    0  501    0  0.00000000000E+00  0.00000000000E+00  0.24205752624E+02  0.24239046188E+02  0.12700000000E+01 0. -1.
         -4   -1    0    0    0  501 -0.00000000000E+00 -0.00000000000E+00 -0.16121181825E+03  0.16121682060E+03  0.12700000000E+01 0. -1.
         25    2    1    2    0    0  0.00000000000E+00  0.00000000000E+00 -0.13700606563E+03  0.18545586679E+03  0.12499286582E+03 0.  0.
    9000005    1    3    3    0    0 -0.33090615772E+02  0.51553196892E+02 -0.50205357306E+02  0.79210471935E+02  0.10000000000E+01 0.  0.
    9000005    1    3    3    0    0  0.33090615772E+02 -0.51553196892E+02 -0.86800708322E+02  0.10624539485E+03  0.10000000000E+01 0.  0.
<mgrwt>
<rscale>  0 0.12499287E+03</rscale>
<asrwt>0</asrwt>
<pdfrwt beam="1">  1        4 0.37269079E-02 0.12499287E+03</pdfrwt>
<pdfrwt beam="2">  1       -4 0.24804763E-01 0.12499287E+03</pdfrwt>
<totfact> 0.92658859E+03</totfact>
</mgrwt>
</event>
<event>
 5    1  0.3183609E-002  0.1250006E+03  0.7818608E-02  0.1235068E+00
          4   -1    0    0  501    0  0.00000000000E+00  0.00000000000E+00  0.18682065915E+03  0.18682497581E+03  0.12700000000E+01 0.  1.
         -4   -1    0    0    0  501 -0.00000000000E+00 -0.00000000000E+00 -0.20885457558E+02  0.20924034922E+02  0.12700000000E+01 0.  1.
         25    2    1    2    0    0  0.00000000000E+00  0.00000000000E+00  0.16593520159E+03  0.20774901073E+03  0.12500064132E+03 0.  0.
    9000005    1    3    3    0    0 -0.54289395003E+02 -0.11360370372E+01  0.31562551605E+02  0.62815791436E+02  0.10000000000E+01 0.  0.
    9000005    1    3    3    0    0  0.54289395003E+02  0.11360370372E+01  0.13437264999E+03  0.14493321929E+03  0.10000000000E+01 0.  0.
<mgrwt>
<rscale>  0 0.12500064E+03</rscale>
<asrwt>0</asrwt>
<pdfrwt beam="1">  1        4 0.28744939E-01 0.12500064E+03</pdfrwt>
<pdfrwt beam="2">  1       -4 0.32164470E-02 0.12500064E+03</pdfrwt>
<totfact> 0.88843547E+03</totfact>
</mgrwt>
</event>
<event>
 5    1  0.3183609E-002  0.1249972E+03  0.7818608E-02  0.1235074E+00
          4   -1    0    0  501    0  0.00000000000E+00  0.00000000000E+00  0.27669081339E+03  0.27669372800E+03  0.12700000000E+01 0.  1.
         -4   -1    0    0    0  501 -0.00000000000E+00 -0.00000000000E+00 -0.14085558023E+02  0.14142695811E+02  0.12700000000E+01 0.  1.
         25    2    1    2    0    0  0.00000000000E+00  0.00000000000E+00  0.26260525536E+03  0.29083642381E+03  0.12499722104E+03 0.  0.
    9000005    1    3    3    0    0 -0.54348305063E+02 -0.30702296792E+02  0.12443695102E+03  0.13921897884E+03  0.10000000000E+01 0.  0.
    9000005    1    3    3    0    0  0.54348305063E+02  0.30702296792E+02  0.13816830435E+03  0.15161744497E+03  0.10000000000E+01 0.  0.
<mgrwt>
<rscale>  0 0.12499722E+03</rscale>
<asrwt>0</asrwt>
<pdfrwt beam="1">  1        4 0.42572436E-01 0.12499722E+03</pdfrwt>
<pdfrwt beam="2">  1       -4 0.21716284E-02 0.12499722E+03</pdfrwt>
<totfact> 0.76767606E+03</totfact>
</mgrwt>
</event>
<event>
 5    1  0.3183609E-002  0.1250016E+03  0.7818608E-02  0.1235067E+00
         -4   -1    0    0    0  501 -0.00000000000E+00  0.00000000000E+00  0.21451172328E+03  0.21451548272E+03  0.12700000000E+01 0. -1.
          4   -1    0    0  501    0  0.00000000000E+00 -0.00000000000E+00 -0.18184371959E+02  0.18228666533E+02  0.12700000000E+01 0. -1.
         25    2    1    2    0    0  0.00000000000E+00  0.00000000000E+00  0.19632735132E+03  0.23274414925E+03  0.12500164052E+03 0.  0.
    9000005    1    3    3    0    0 -0.28970528585E+02 -0.19363071789E+02  0.15740246631E+01  0.34895524487E+02  0.10000000000E+01 0.  0.
    9000005    1    3    3    0    0  0.28970528585E+02  0.19363071789E+02  0.19475332666E+03  0.19784862476E+03  0.10000000000E+01 0.  0.
<mgrwt>
<rscale>  0 0.12500164E+03</rscale>
<asrwt>0</asrwt>
<pdfrwt beam="2">  1        4 0.28012921E-02 0.12500164E+03</pdfrwt>
<pdfrwt beam="1">  1       -4 0.33005501E-01 0.12500164E+03</pdfrwt>
<totfact> 0.84886896E+03</totfact>
</mgrwt>
</event>
<event>
 5    1  0.3183609E-002  0.1249999E+03  0.7818608E-02  0.1235069E+00
          4   -1    0    0  501    0  0.00000000000E+00  0.00000000000E+00  0.62885632568E+01  0.64155224132E+01  0.12700000000E+01 0.  1.
         -4   -1    0    0    0  501 -0.00000000000E+00 -0.00000000000E+00 -0.61483066765E+03  0.61483197931E+03  0.12700000000E+01 0.  1.
         25    2    1    2    0    0  0.00000000000E+00  0.00000000000E+00 -0.60854210439E+03  0.62124750172E+03  0.12499986231E+03 0.  0.
    9000005    1    3    3    0    0 -0.11111932206E+02  0.12860326728E+02 -0.53943578478E+01  0.17859511121E+02  0.10000000000E+01 0.  0.
    9000005    1    3    3    0    0  0.11111932206E+02 -0.12860326728E+02 -0.60314774654E+03  0.60338799060E+03  0.10000000000E+01 0.  0.
<mgrwt>
<rscale>  0 0.12499986E+03</rscale>
<asrwt>0</asrwt>
<pdfrwt beam="1">  1        4 0.97733874E-03 0.12499986E+03</pdfrwt>
<pdfrwt beam="2">  1       -4 0.94599154E-01 0.12499986E+03</pdfrwt>
<totfact> 0.47553459E+03</totfact>
</mgrwt>
</event>
<event>
 5    1  0.3183609E-002  0.1249983E+03  0.7818608E-02  0.1235072E+00
          4   -1    0    0  501    0  0.00000000000E+00  0.00000000000E+00  0.21450420087E+02  0.21487983197E+02  0.12700000000E+01 0.  1.
         -4   -1    0    0    0  501 -0.00000000000E+00 -0.00000000000E+00 -0.18190199599E+03  0.18190642937E+03  0.12700000000E+01 0.  1.
         25    2    1    2    0    0  0.00000000000E+00  0.00000000000E+00 -0.16045157590E+03  0.20339441256E+03  0.12499831540E+03 0.  0.
    9000005    1    3    3    0    0 -0.50004263027E+02  0.95119877889E+01 -0.21236618945E+02  0.55162471090E+02  0.10000000000E+01 0.  0.
    9000005    1    3    3    0    0  0.50004263027E+02 -0.95119877889E+01 -0.13921495696E+03  0.14823194147E+03  0.10000000000E+01 0.  0.
<mgrwt>
<rscale>  0 0.12499832E+03</rscale>
<asrwt>0</asrwt>
<pdfrwt beam="1">  1        4 0.33032952E-02 0.12499832E+03</pdfrwt>
<pdfrwt beam="2">  1       -4 0.27988152E-01 0.12499832E+03</pdfrwt>
<totfact> 0.89569528E+03</totfact>
</mgrwt>
</event>
<event>
 5    1  0.3183609E-002  0.1249995E+03  0.7818608E-02  0.1235070E+00
         -4   -1    0    0    0  501 -0.00000000000E+00  0.00000000000E+00  0.13463567477E+02  0.13523333509E+02  0.12700000000E+01 0.  1.
          4   -1    0    0  501    0  0.00000000000E+00 -0.00000000000E+00 -0.28942893937E+03  0.28943172570E+03  0.12700000000E+01 0.  1.
         25    2    1    2    0    0  0.00000000000E+00  0.00000000000E+00 -0.27596537189E+03  0.30295505921E+03  0.12499952568E+03 0.  0.
    9000005    1    3    3    0    0  0.50592900121E+02 -0.31176522551E+02 -0.18482897237E+03  0.19415036989E+03  0.10000000000E+01 0.  0.
    9000005    1    3    3    0    0 -0.50592900121E+02  0.31176522551E+02 -0.91136399526E+02  0.10880468933E+03  0.10000000000E+01 0.  0.
<mgrwt>
<rscale>  0 0.12499953E+03</rscale>
<asrwt>0</asrwt>
<pdfrwt beam="2">  1        4 0.44532336E-01 0.12499953E+03</pdfrwt>
<pdfrwt beam="1">  1       -4 0.20761300E-02 0.12499953E+03</pdfrwt>
<totfact> 0.75230444E+03</totfact>
</mgrwt>
</event>
<event>
 5    1  0.3183609E-002  0.1249994E+03  0.7818608E-02  0.1235070E+00
         -4   -1    0    0    0  501 -0.00000000000E+00  0.00000000000E+00  0.44086690668E+02  0.44104979244E+02  0.12700000000E+01 0. -1.
          4   -1    0    0  501    0  0.00000000000E+00 -0.00000000000E+00 -0.88561801491E+02  0.88570907093E+02  0.12700000000E+01 0. -1.
         25    2    1    2    0    0  0.00000000000E+00  0.00000000000E+00 -0.44475110823E+02  0.13267588634E+03  0.12499942133E+03 0.  0.
    9000005    1    3    3    0    0 -0.93592348794E+01 -0.50715657383E+02  0.15222028441E+02  0.53780882581E+02  0.10000000000E+01 0.  0.
    9000005    1    3    3    0    0  0.93592348794E+01  0.50715657383E+02 -0.59697139264E+02  0.78895003756E+02  0.10000000000E+01 0.  0.
<mgrwt>
<rscale>  0 0.12499942E+03</rscale>
<asrwt>0</asrwt>
<pdfrwt beam="2">  1        4 0.13627000E-01 0.12499942E+03</pdfrwt>
<pdfrwt beam="1">  1       -4 0.67846751E-02 0.12499942E+03</pdfrwt>
<totfact> 0.10287427E+04</totfact>
</mgrwt>
</event>
<event>
 5    1  0.3183609E-002  0.1249984E+03  0.7818608E-02  0.1235072E+00
         -4   -1    0    0    0  501 -0.00000000000E+00  0.00000000000E+00  0.25601671500E+01  0.28578586102E+01  0.12700000000E+01 0. -1.
          4   -1    0    0  501    0  0.00000000000E+00 -0.00000000000E+00 -0.14416115885E+04  0.14416121480E+04  0.12700000000E+01 0. -1.
         25    2    1    2    0    0  0.00000000000E+00  0.00000000000E+00 -0.14390514214E+04  0.14444700066E+04  0.12499842576E+03 0.  0.
    9000005    1    3    3    0    0  0.25774257236E+02  0.51327447303E+02 -0.43497519114E+03  0.43875190722E+03  0.10000000000E+01 0.  0.
    9000005    1    3    3    0    0 -0.25774257236E+02 -0.51327447303E+02 -0.10040762303E+04  0.10057180993E+04  0.10000000000E+01 0.  0.
<mgrwt>
<rscale>  0 0.12499843E+03</rscale>
<asrwt>0</asrwt>
<pdfrwt beam="2">  1        4 0.22180873E+00 0.12499843E+03</pdfrwt>
<pdfrwt beam="1">  1       -4 0.41681539E-03 0.12499843E+03</pdfrwt>
<totfact> 0.19047019E+03</totfact>
</mgrwt>
</event>
<event>
 5    1  0.3183609E-002  0.1249886E+03  0.7818608E-02  0.1235087E+00
          4   -1    0    0  501    0  0.00000000000E+00  0.00000000000E+00  0.80701743837E+03  0.80701843767E+03  0.12700000000E+01 0. -1.
         -4   -1    0    0    0  501 -0.00000000000E+00 -0.00000000000E+00 -0.47551300592E+01  0.49218047381E+01  0.12700000000E+01 0. -1.
         25    2    1    2    0    0  0.00000000000E+00  0.00000000000E+00  0.80226230831E+03  0.81194024241E+03  0.12498858308E+03 0.  0.
    9000005    1    3    3    0    0  0.40396260407E+02 -0.11502787415E+02  0.10059439975E+03  0.10901561922E+03  0.10000000000E+01 0.  0.
    9000005    1    3    3    0    0 -0.40396260407E+02  0.11502787415E+02  0.70166790856E+03  0.70292462318E+03  0.10000000000E+01 0.  0.
<mgrwt>
<rscale>  0 0.12498858E+03</rscale>
<asrwt>0</asrwt>
<pdfrwt beam="1">  1        4 0.12416920E+00 0.12498858E+03</pdfrwt>
<pdfrwt beam="2">  1       -4 0.74445781E-03 0.12498858E+03</pdfrwt>
<totfact> 0.37746686E+03</totfact>
</mgrwt>
</event>
<event>
 5    1  0.3183609E-002  0.1250008E+03  0.7818608E-02  0.1235068E+00
         -4   -1    0    0    0  501 -0.00000000000E+00  0.00000000000E+00  0.11800735840E+03  0.11801419210E+03  0.12700000000E+01 0.  1.
          4   -1    0    0  501    0  0.00000000000E+00 -0.00000000000E+00 -0.33082172933E+02  0.33106541136E+02  0.12700000000E+01 0.  1.
         25    2    1    2    0    0  0.00000000000E+00  0.00000000000E+00  0.84925185464E+02  0.15112073323E+03  0.12500075554E+03 0.  0.
    9000005    1    3    3    0    0  0.33372776603E+02 -0.46816010635E+02  0.12853814161E+02  0.58921147379E+02  0.10000000000E+01 0.  0.
    9000005    1    3    3    0    0 -0.33372776603E+02  0.46816010635E+02  0.72071371302E+02  0.92199585852E+02  0.10000000000E+01 0.  0.
<mgrwt>
<rscale>  0 0.12500076E+03</rscale>
<asrwt>0</asrwt>
<pdfrwt beam="2">  1        4 0.50919652E-02 0.12500076E+03</pdfrwt>
<pdfrwt beam="1">  1       -4 0.18157379E-01 0.12500076E+03</pdfrwt>
<totfact> 0.99079080E+03</totfact>
</mgrwt>
</event>
<event>
 5    1  0.3183609E-002  0.1249863E+03  0.7818608E-02  0.1235091E+00
         -4   -1    0    0    0  501 -0.00000000000E+00  0.00000000000E+00  0.17852221365E+02  0.17897338005E+02  0.12700000000E+01 0. -1.
          4   -1    0    0  501    0  0.00000000000E+00 -0.00000000000E+00 -0.21843930539E+03  0.21844299723E+03  0.12700000000E+01 0. -1.
         25    2    1    2    0    0  0.00000000000E+00  0.00000000000E+00 -0.20058708402E+03  0.23634033523E+03  0.12498630238E+03 0.  0.
    9000005    1    3    3    0    0 -0.49255401164E+02  0.37592814295E+02 -0.85039032484E+02  0.10522333998E+03  0.10000000000E+01 0.  0.
    9000005    1    3    3    0    0  0.49255401164E+02 -0.37592814295E+02 -0.11554805154E+03  0.13111699525E+03  0.10000000000E+01 0.  0.
<mgrwt>
<rscale>  0 0.12498630E+03</rscale>
<asrwt>0</asrwt>
<pdfrwt beam="2">  1        4 0.33609800E-01 0.12498630E+03</pdfrwt>
<pdfrwt beam="1">  1       -4 0.27502503E-02 0.12498630E+03</pdfrwt>
<totfact> 0.84371216E+03</totfact>
</mgrwt>
</event>
<event>
 5    1  0.3183609E-002  0.1250122E+03  0.7818608E-02  0.1235050E+00
          4   -1    0    0  501    0  0.00000000000E+00  0.00000000000E+00  0.27681749846E+02  0.27710867445E+02  0.12700000000E+01 0.  1.
         -4   -1    0    0    0  501 -0.00000000000E+00 -0.00000000000E+00 -0.14103427741E+03  0.14103999541E+03  0.12700000000E+01 0.  1.
         25    2    1    2    0    0  0.00000000000E+00  0.00000000000E+00 -0.11335252757E+03  0.16875086285E+03  0.12501223224E+03 0.  0.
    9000005    1    3    3    0    0 -0.36720175332E+02 -0.45080893119E+02 -0.87616276338E+02  0.10515830961E+03  0.10000000000E+01 0.  0.
    9000005    1    3    3    0    0  0.36720175332E+02  0.45080893119E+02 -0.25736251228E+02  0.63592553244E+02  0.10000000000E+01 0.  0.
<mgrwt>
<rscale>  0 0.12501223E+03</rscale>
<asrwt>0</asrwt>
<pdfrwt beam="1">  1        4 0.42614105E-02 0.12501223E+03</pdfrwt>
<pdfrwt beam="2">  1       -4 0.21700260E-01 0.12501223E+03</pdfrwt>
<totfact> 0.95655439E+03</totfact>
</mgrwt>
</event>
<event>
 5    1  0.3183609E-002  0.1250026E+03  0.7818608E-02  0.1235065E+00
         -4   -1    0    0    0  501 -0.00000000000E+00  0.00000000000E+00  0.56044752058E+01  0.57465678742E+01  0.12700000000E+01 0.  1.
          4   -1    0    0  501    0  0.00000000000E+00 -0.00000000000E+00 -0.68814872386E+03  0.68814989577E+03  0.12700000000E+01 0.  1.
         25    2    1    2    0    0  0.00000000000E+00  0.00000000000E+00 -0.68254424865E+03  0.69389646364E+03  0.12500260353E+03 0.  0.
    9000005    1    3    3    0    0  0.48648831003E+02 -0.91858536057E+01 -0.55296498409E+03  0.55517777540E+03  0.10000000000E+01 0.  0.
    9000005    1    3    3    0    0 -0.48648831003E+02  0.91858536057E+01 -0.12957926456E+03  0.13871868824E+03  0.10000000000E+01 0.  0.
<mgrwt>
<rscale>  0 0.12500260E+03</rscale>
<asrwt>0</asrwt>
<pdfrwt beam="2">  1        4 0.10587999E+00 0.12500260E+03</pdfrwt>
<pdfrwt beam="1">  1       -4 0.87324785E-03 0.12500260E+03</pdfrwt>
<totfact> 0.43408399E+03</totfact>
</mgrwt>
</event>
<event>
 5    1  0.3183609E-002  0.1249994E+03  0.7818608E-02  0.1235070E+00
         -4   -1    0    0    0  501 -0.00000000000E+00  0.00000000000E+00  0.75103890968E+02  0.75114627993E+02  0.12700000000E+01 0.  1.
          4   -1    0    0  501    0  0.00000000000E+00 -0.00000000000E+00 -0.51988580457E+02  0.52004090204E+02  0.12700000000E+01 0.  1.
         25    2    1    2    0    0  0.00000000000E+00  0.00000000000E+00  0.23115310511E+02  0.12711871820E+03  0.12499940374E+03 0.  0.
    9000005    1    3    3    0    0  0.48290842158E+02  0.20604328290E+02  0.46024299785E+02  0.69826785343E+02  0.10000000000E+01 0.  0.
    9000005    1    3    3    0    0 -0.48290842158E+02 -0.20604328290E+02 -0.22908989274E+02  0.57291932854E+02  0.10000000000E+01 0.  0.
<mgrwt>
<rscale>  0 0.12499940E+03</rscale>
<asrwt>0</asrwt>
<pdfrwt beam="2">  1        4 0.80002622E-02 0.12499940E+03</pdfrwt>
<pdfrwt beam="1">  1       -4 0.11556464E-01 0.12499940E+03</pdfrwt>
<totfact> 0.10406708E+04</totfact>
</mgrwt>
</event>
<event>
 5    1  0.3183609E-002  0.1249988E+03  0.7818608E-02  0.1235071E+00
          4   -1    0    0  501    0  0.00000000000E+00  0.00000000000E+00  0.28993776538E+03  0.28994054682E+03  0.12700000000E+01 0. -1.
         -4   -1    0    0    0  501 -0.00000000000E+00 -0.00000000000E+00 -0.13439685029E+02  0.13499556795E+02  0.12700000000E+01 0. -1.
         25    2    1    2    0    0  0.00000000000E+00  0.00000000000E+00  0.27649808035E+03  0.30344010362E+03  0.12499883218E+03 0.  0.
    9000005    1    3    3    0    0 -0.33273818139E+02 -0.50410075653E+02  0.99343589357E+02  0.11626896167E+03  0.10000000000E+01 0.  0.
    9000005    1    3    3    0    0  0.33273818139E+02  0.50410075653E+02  0.17715449099E+03  0.18717114195E+03  0.10000000000E+01 0.  0.
<mgrwt>
<rscale>  0 0.12499883E+03</rscale>
<asrwt>0</asrwt>
<pdfrwt beam="1">  1        4 0.44610628E-01 0.12499883E+03</pdfrwt>
<pdfrwt beam="2">  1       -4 0.20724634E-02 0.12499883E+03</pdfrwt>
<totfact> 0.75171283E+03</totfact>
</mgrwt>
</event>
<event>
 5    1  0.3183609E-002  0.1250008E+03  0.7818608E-02  0.1235068E+00
          4   -1    0    0  501    0  0.00000000000E+00  0.00000000000E+00  0.32027364709E+01  0.34453477186E+01  0.12700000000E+01 0.  1.
         -4   -1    0    0    0  501 -0.00000000000E+00 -0.00000000000E+00 -0.11749226034E+04  0.11749232897E+04  0.12700000000E+01 0.  1.
         25    2    1    2    0    0  0.00000000000E+00  0.00000000000E+00 -0.11717198669E+04  0.11783686375E+04  0.12500079718E+03 0.  0.
    9000005    1    3    3    0    0  0.66365640667E+01 -0.40862211506E+01 -0.11703695182E+04  0.11703958947E+04  0.10000000000E+01 0.  0.
    9000005    1    3    3    0    0 -0.66365640667E+01  0.40862211506E+01 -0.13503487055E+01  0.79727427859E+01  0.10000000000E+01 0.  0.
<mgrwt>
<rscale>  0 0.12500080E+03</rscale>
<asrwt>0</asrwt>
<pdfrwt beam="1">  1        4 0.51144483E-03 0.12500080E+03</pdfrwt>
<pdfrwt beam="2">  1       -4 0.18077571E+00 0.12500080E+03</pdfrwt>
<totfact> 0.25285691E+03</totfact>
</mgrwt>
</event>
<event>
 5    1  0.3183609E-002  0.1249984E+03  0.7818608E-02  0.1235072E+00
          4   -1    0    0  501    0  0.00000000000E+00  0.00000000000E+00  0.32768010933E+01  0.35143029757E+01  0.12700000000E+01 0. -1.
         -4   -1    0    0    0  501 -0.00000000000E+00 -0.00000000000E+00 -0.11501339563E+04  0.11501346574E+04  0.12700000000E+01 0. -1.
         25    2    1    2    0    0  0.00000000000E+00  0.00000000000E+00 -0.11468571552E+04  0.11536489604E+04  0.12499835802E+03 0.  0.
    9000005    1    3    3    0    0  0.25912357802E+02  0.56865140709E+02 -0.57130658943E+03  0.57471498470E+03  0.10000000000E+01 0.  0.
    9000005    1    3    3    0    0 -0.25912357802E+02 -0.56865140709E+02 -0.57555056573E+03  0.57893397571E+03  0.10000000000E+01 0.  0.
<mgrwt>
<rscale>  0 0.12499836E+03</rscale>
<asrwt>0</asrwt>
<pdfrwt beam="1">  1        4 0.52244747E-03 0.12499836E+03</pdfrwt>
<pdfrwt beam="2">  1       -4 0.17696170E+00 0.12499836E+03</pdfrwt>
<totfact> 0.25960188E+03</totfact>
</mgrwt>
</event>
<event>
 5    1  0.3183609E-002  0.1250034E+03  0.7818608E-02  0.1235064E+00
          4   -1    0    0  501    0  0.00000000000E+00  0.00000000000E+00  0.62485825840E+01  0.63763378446E+01  0.12700000000E+01 0. -1.
         -4   -1    0    0    0  501 -0.00000000000E+00 -0.00000000000E+00 -0.61872147472E+03  0.61872277813E+03  0.12700000000E+01 0. -1.
         25    2    1    2    0    0  0.00000000000E+00  0.00000000000E+00 -0.61247289214E+03  0.62509911598E+03  0.12500344473E+03 0.  0.
    9000005    1    3    3    0    0  0.28930106260E+02 -0.54559476922E+02 -0.35414306878E+03  0.35948852657E+03  0.10000000000E+01 0.  0.
    9000005    1    3    3    0    0 -0.28930106260E+02  0.54559476922E+02 -0.25832982336E+03  0.26561058941E+03  0.10000000000E+01 0.  0.
<mgrwt>
<rscale>  0 0.12500344E+03</rscale>
<asrwt>0</asrwt>
<pdfrwt beam="1">  1        4 0.97124847E-03 0.12500344E+03</pdfrwt>
<pdfrwt beam="2">  1       -4 0.95197799E-01 0.12500344E+03</pdfrwt>
<totfact> 0.47317111E+03</totfact>
</mgrwt>
</event>
<event>
 5    1  0.3183609E-002  0.1249981E+03  0.7818608E-02  0.1235072E+00
          4   -1    0    0  501    0  0.00000000000E+00  0.00000000000E+00  0.63356408856E+03  0.63356536144E+03  0.12700000000E+01 0. -1.
         -4   -1    0    0    0  501 -0.00000000000E+00 -0.00000000000E+00 -0.60986332729E+01  0.62294644872E+01  0.12700000000E+01 0. -1.
         25    2    1    2    0    0  0.00000000000E+00  0.00000000000E+00  0.62746545529E+03  0.63979482593E+03  0.12499808679E+03 0.  0.
    9000005    1    3    3    0    0 -0.38570148180E+01  0.61147849317E+02  0.37666960486E+03  0.38162144497E+03  0.10000000000E+01 0.  0.
    9000005    1    3    3    0    0  0.38570148180E+01 -0.61147849317E+02  0.25079585043E+03  0.25817338095E+03  0.10000000000E+01 0.  0.
<mgrwt>
<rscale>  0 0.12499809E+03</rscale>
<asrwt>0</asrwt>
<pdfrwt beam="1">  1        4 0.97481571E-01 0.12499809E+03</pdfrwt>
<pdfrwt beam="2">  1       -4 0.94841302E-03 0.12499809E+03</pdfrwt>
<totfact> 0.46450174E+03</totfact>
</mgrwt>
</event>
<event>
 5    1  0.3183609E-002  0.1249996E+03  0.7818608E-02  0.1235070E+00
          4   -1    0    0  501    0  0.00000000000E+00  0.00000000000E+00  0.12223402997E+01  0.17626729158E+01  0.12700000000E+01 0.  1.
         -4   -1    0    0    0  501 -0.00000000000E+00 -0.00000000000E+00 -0.26166822864E+04  0.26166825946E+04  0.12700000000E+01 0.  1.
         25    2    1    2    0    0  0.00000000000E+00  0.00000000000E+00 -0.26154599461E+04  0.26184452675E+04  0.12499955719E+03 0.  0.
    9000005    1    3    3    0    0 -0.15588300345E+02  0.16058955675E+02 -0.85504562769E+02  0.88390697583E+02  0.10000000000E+01 0.  0.
    9000005    1    3    3    0    0  0.15588300345E+02 -0.16058955675E+02 -0.25299553834E+04  0.25300545700E+04  0.10000000000E+01 0.  0.
<mgrwt>
<rscale>  0 0.12499956E+03</rscale>
<asrwt>0</asrwt>
<pdfrwt beam="1">  1        4 0.22964220E-03 0.12499956E+03</pdfrwt>
<pdfrwt beam="2">  1       -4 0.40260442E+00 0.12499956E+03</pdfrwt>
<totfact> 0.38043985E+02</totfact>
</mgrwt>
</event>
<event>
 5    1  0.3183609E-002  0.1250097E+03  0.7818608E-02  0.1235054E+00
          4   -1    0    0  501    0  0.00000000000E+00  0.00000000000E+00  0.33381856372E+03  0.33382097954E+03  0.12700000000E+01 0. -1.
         -4   -1    0    0    0  501 -0.00000000000E+00 -0.00000000000E+00 -0.11666621594E+02  0.11735542571E+02  0.12700000000E+01 0. -1.
         25    2    1    2    0    0  0.00000000000E+00  0.00000000000E+00  0.32215194212E+03  0.34555652211E+03  0.12500974426E+03 0.  0.
    9000005    1    3    3    0    0  0.32891746994E+02  0.50209453798E+02  0.11295897280E+03  0.12792023220E+03  0.10000000000E+01 0.  0.
    9000005    1    3    3    0    0 -0.32891746994E+02 -0.50209453798E+02  0.20919296933E+03  0.21763628991E+03  0.10000000000E+01 0.  0.
<mgrwt>
<rscale>  0 0.12500974E+03</rscale>
<asrwt>0</asrwt>
<pdfrwt beam="1">  1        4 0.51362190E-01 0.12500974E+03</pdfrwt>
<pdfrwt beam="2">  1       -4 0.18003523E-02 0.12500974E+03</pdfrwt>
<totfact> 0.70201029E+03</totfact>
</mgrwt>
</event>
<event>
 5    1  0.3183609E-002  0.1250002E+03  0.7818608E-02  0.1235069E+00
         -4   -1    0    0    0  501 -0.00000000000E+00  0.00000000000E+00  0.63499616667E+03  0.63499743668E+03  0.12700000000E+01 0.  1.
          4   -1    0    0  501    0  0.00000000000E+00 -0.00000000000E+00 -0.60847921605E+01  0.62159147064E+01  0.12700000000E+01 0.  1.
         25    2    1    2    0    0  0.00000000000E+00  0.00000000000E+00  0.62891137451E+03  0.64121335138E+03  0.12500018002E+03 0.  0.
    9000005    1    3    3    0    0  0.59805104874E+02  0.35830307616E+01  0.22330097575E+03  0.23120080979E+03  0.10000000000E+01 0.  0.
    9000005    1    3    3    0    0 -0.59805104874E+02 -0.35830307616E+01  0.40561039876E+03  0.41001254159E+03  0.10000000000E+01 0.  0.
<mgrwt>
<rscale>  0 0.12500018E+03</rscale>
<asrwt>0</asrwt>
<pdfrwt beam="2">  1        4 0.94630625E-03 0.12500018E+03</pdfrwt>
<pdfrwt beam="1">  1       -4 0.97701867E-01 0.12500018E+03</pdfrwt>
<totfact> 0.46365088E+03</totfact>
</mgrwt>
</event>
<event>
 5    1  0.3183609E-002  0.1250032E+03  0.7818608E-02  0.1235064E+00
          4   -1    0    0  501    0  0.00000000000E+00  0.00000000000E+00  0.56719203228E+02  0.56733419735E+02  0.12700000000E+01 0.  1.
         -4   -1    0    0    0  501 -0.00000000000E+00 -0.00000000000E+00 -0.68844838855E+02  0.68856551881E+02  0.12700000000E+01 0.  1.
         25    2    1    2    0    0  0.00000000000E+00  0.00000000000E+00 -0.12125635627E+02  0.12558997162E+03  0.12500323968E+03 0.  0.
    9000005    1    3    3    0    0 -0.35308116021E+02 -0.28134566352E+02  0.37351527202E+02  0.58603357115E+02  0.10000000000E+01 0.  0.
    9000005    1    3    3    0    0  0.35308116021E+02  0.28134566352E+02 -0.49477162829E+02  0.66986614502E+02  0.10000000000E+01 0.  0.
<mgrwt>
<rscale>  0 0.12500324E+03</rscale>
<asrwt>0</asrwt>
<pdfrwt beam="1">  1        4 0.87280258E-02 0.12500324E+03</pdfrwt>
<pdfrwt beam="2">  1       -4 0.10593508E-01 0.12500324E+03</pdfrwt>
<totfact> 0.10439205E+04</totfact>
</mgrwt>
</event>
<event>
 5    1  0.3183609E-002  0.1250051E+03  0.7818608E-02  0.1235061E+00
         -4   -1    0    0    0  501 -0.00000000000E+00  0.00000000000E+00  0.35404531273E+03  0.35404759054E+03  0.12700000000E+01 0.  1.
          4   -1    0    0  501    0  0.00000000000E+00 -0.00000000000E+00 -0.10995227441E+02  0.11068329887E+02  0.12700000000E+01 0.  1.
         25    2    1    2    0    0  0.00000000000E+00  0.00000000000E+00  0.34305008529E+03  0.36511592043E+03  0.12500509722E+03 0.  0.
    9000005    1    3    3    0    0  0.60816311827E+02 -0.26703637349E+01  0.21281229267E+03  0.22135000912E+03  0.10000000000E+01 0.  0.
    9000005    1    3    3    0    0 -0.60816311827E+02  0.26703637349E+01  0.13023779262E+03  0.14376591131E+03  0.10000000000E+01 0.  0.
<mgrwt>
<rscale>  0 0.12500510E+03</rscale>
<asrwt>0</asrwt>
<pdfrwt beam="2">  1        4 0.16973718E-02 0.12500510E+03</pdfrwt>
<pdfrwt beam="1">  1       -4 0.54474311E-01 0.12500510E+03</pdfrwt>
<totfact> 0.68085339E+03</totfact>
</mgrwt>
</event>
<event>
 5    1  0.3183609E-002  0.1250002E+03  0.7818608E-02  0.1235069E+00
          4   -1    0    0  501    0  0.00000000000E+00  0.00000000000E+00  0.13479077691E+02  0.13538775254E+02  0.12700000000E+01 0.  1.
         -4   -1    0    0    0  501 -0.00000000000E+00 -0.00000000000E+00 -0.28910045148E+03  0.28910324098E+03  0.12700000000E+01 0.  1.
         25    2    1    2    0    0  0.00000000000E+00  0.00000000000E+00 -0.27562137379E+03  0.30264201623E+03  0.12500019321E+03 0.  0.
    9000005    1    3    3    0    0  0.35949282687E+02  0.50883200593E+02 -0.14962498116E+03  0.16208049240E+03  0.10000000000E+01 0.  0.
    9000005    1    3    3    0    0 -0.35949282687E+02 -0.50883200593E+02 -0.12599639262E+03  0.14056152383E+03  0.10000000000E+01 0.  0.
<mgrwt>
<rscale>  0 0.12500019E+03</rscale>
<asrwt>0</asrwt>
<pdfrwt beam="1">  1        4 0.20785112E-02 0.12500019E+03</pdfrwt>
<pdfrwt beam="2">  1       -4 0.44481795E-01 0.12500019E+03</pdfrwt>
<totfact> 0.75268299E+03</totfact>
</mgrwt>
</event>
<event>
 5    1  0.3183609E-002  0.1250082E+03  0.7818608E-02  0.1235057E+00
          4   -1    0    0  501    0  0.00000000000E+00  0.00000000000E+00  0.27437008538E+02  0.27466385592E+02  0.12700000000E+01 0.  1.
         -4   -1    0    0    0  501 -0.00000000000E+00 -0.00000000000E+00 -0.14228178244E+03  0.14228745030E+03  0.12700000000E+01 0.  1.
         25    2    1    2    0    0  0.00000000000E+00  0.00000000000E+00 -0.11484477390E+03  0.16975383590E+03  0.12500817057E+03 0.  0.
    9000005    1    3    3    0    0 -0.32750806162E+02  0.29754791528E+02  0.25088342895E+01  0.44331221195E+02  0.10000000000E+01 0.  0.
    9000005    1    3    3    0    0  0.32750806162E+02 -0.29754791528E+02 -0.11735360819E+03  0.12542261470E+03  0.10000000000E+01 0.  0.
<mgrwt>
<rscale>  0 0.12500817E+03</rscale>
<asrwt>0</asrwt>
<pdfrwt beam="1">  1        4 0.42237741E-02 0.12500817E+03</pdfrwt>
<pdfrwt beam="2">  1       -4 0.21892200E-01 0.12500817E+03</pdfrwt>
<totfact> 0.95477027E+03</totfact>
</mgrwt>
</event>
<event>
 5    1  0.3183609E-002  0.1250002E+03  0.7818608E-02  0.1235069E+00
         -4   -1    0    0    0  501 -0.00000000000E+00  0.00000000000E+00  0.16332151713E+02  0.16381455356E+02  0.12700000000E+01 0.  1.
          4   -1    0    0  501    0  0.00000000000E+00 -0.00000000000E+00 -0.23876473253E+03  0.23876811010E+03  0.12700000000E+01 0.  1.
         25    2    1    2    0    0  0.00000000000E+00  0.00000000000E+00 -0.22243258082E+03  0.25514956546E+03  0.12500019097E+03 0.  0.
    9000005    1    3    3    0    0  0.39862792209E+02 -0.88417598483E+01 -0.20778098500E+03  0.21175730601E+03  0.10000000000E+01 0.  0.
    9000005    1    3    3    0    0 -0.39862792209E+02  0.88417598483E+01 -0.14651595817E+02  0.43392259447E+02  0.10000000000E+01 0.  0.
<mgrwt>
<rscale>  0 0.12500019E+03</rscale>
<asrwt>0</asrwt>
<pdfrwt beam="2">  1        4 0.36737086E-01 0.12500019E+03</pdfrwt>
<pdfrwt beam="1">  1       -4 0.25166913E-02 0.12500019E+03</pdfrwt>
<totfact> 0.81591260E+03</totfact>
</mgrwt>
</event>
<event>
 5    1  0.3183609E-002  0.1250010E+03  0.7818608E-02  0.1235068E+00
          4   -1    0    0  501    0  0.00000000000E+00  0.00000000000E+00  0.32077804782E+03  0.32078056185E+03  0.12700000000E+01 0. -1.
         -4   -1    0    0    0  501 -0.00000000000E+00 -0.00000000000E+00 -0.12141940462E+02  0.12208178331E+02  0.12700000000E+01 0. -1.
         25    2    1    2    0    0  0.00000000000E+00  0.00000000000E+00  0.30863610736E+03  0.33298874019E+03  0.12500101729E+03 0.  0.
    9000005    1    3    3    0    0  0.11992754554E+02  0.43779189350E+02  0.39898859408E+02  0.60443052240E+02  0.10000000000E+01 0.  0.
    9000005    1    3    3    0    0 -0.11992754554E+02 -0.43779189350E+02  0.26873724795E+03  0.27254568795E+03  0.10000000000E+01 0.  0.
<mgrwt>
<rscale>  0 0.12500102E+03</rscale>
<asrwt>0</asrwt>
<pdfrwt beam="1">  1        4 0.49355755E-01 0.12500102E+03</pdfrwt>
<pdfrwt beam="2">  1       -4 0.18732796E-02 0.12500102E+03</pdfrwt>
<totfact> 0.71635846E+03</totfact>
</mgrwt>
</event>
<event>
 5    1  0.3183609E-002  0.1249995E+03  0.7818608E-02  0.1235070E+00
         -4   -1    0    0    0  501 -0.00000000000E+00  0.00000000000E+00  0.11891941243E+03  0.11892619372E+03  0.12700000000E+01 0. -1.
          4   -1    0    0  501    0  0.00000000000E+00 -0.00000000000E+00 -0.32827629775E+02  0.32852186787E+02  0.12700000000E+01 0. -1.
         25    2    1    2    0    0  0.00000000000E+00  0.00000000000E+00  0.86091782655E+02  0.15177838051E+03  0.12499952699E+03 0.  0.
    9000005    1    3    3    0    0  0.40650277364E+02  0.11412348495E+01 -0.14569022104E+02  0.43208840205E+02  0.10000000000E+01 0.  0.
    9000005    1    3    3    0    0 -0.40650277364E+02 -0.11412348495E+01  0.10066080476E+03  0.10856954030E+03  0.10000000000E+01 0.  0.
<mgrwt>
<rscale>  0 0.12499953E+03</rscale>
<asrwt>0</asrwt>
<pdfrwt beam="2">  1        4 0.50528151E-02 0.12499953E+03</pdfrwt>
<pdfrwt beam="1">  1       -4 0.18297705E-01 0.12499953E+03</pdfrwt>
<totfact> 0.98951432E+03</totfact>
</mgrwt>
</event>
<event>
 5    1  0.3183609E-002  0.1250054E+03  0.7818608E-02  0.1235061E+00
          4   -1    0    0  501    0  0.00000000000E+00  0.00000000000E+00  0.51420935054E+01  0.52966051031E+01  0.12700000000E+01 0.  1.
         -4   -1    0    0    0  501 -0.00000000000E+00 -0.00000000000E+00 -0.74832658184E+03  0.74832765951E+03  0.12700000000E+01 0.  1.
         25    2    1    2    0    0  0.00000000000E+00  0.00000000000E+00 -0.74318448833E+03  0.75362426461E+03  0.12500539394E+03 0.  0.
    9000005    1    3    3    0    0  0.24513915109E+02  0.20555307327E+02 -0.47936561112E+02  0.57639973842E+02  0.10000000000E+01 0.  0.
    9000005    1    3    3    0    0 -0.24513915109E+02 -0.20555307327E+02 -0.69524792722E+03  0.69598429077E+03  0.10000000000E+01 0.  0.
<mgrwt>
<rscale>  0 0.12500539E+03</rscale>
<asrwt>0</asrwt>
<pdfrwt beam="1">  1        4 0.80306031E-03 0.12500539E+03</pdfrwt>
<pdfrwt beam="2">  1       -4 0.11513905E+00 0.12500539E+03</pdfrwt>
<totfact> 0.40396646E+03</totfact>
</mgrwt>
</event>
<event>
 5    1  0.3183609E-002  0.1249996E+03  0.7818608E-02  0.1235070E+00
          4   -1    0    0  501    0  0.00000000000E+00  0.00000000000E+00  0.19974930394E+02  0.20015262782E+02  0.12700000000E+01 0.  1.
         -4   -1    0    0    0  501 -0.00000000000E+00 -0.00000000000E+00 -0.19531687184E+03  0.19532100072E+03  0.12700000000E+01 0.  1.
         25    2    1    2    0    0  0.00000000000E+00  0.00000000000E+00 -0.17534194144E+03  0.21533626351E+03  0.12499963981E+03 0.  0.
    9000005    1    3    3    0    0 -0.49219130693E+02  0.79779736170E+01 -0.15256552743E+03  0.16050984721E+03  0.10000000000E+01 0.  0.
    9000005    1    3    3    0    0  0.49219130693E+02 -0.79779736170E+01 -0.22776414009E+02  0.54826416300E+02  0.10000000000E+01 0.  0.
<mgrwt>
<rscale>  0 0.12499964E+03</rscale>
<asrwt>0</asrwt>
<pdfrwt beam="1">  1        4 0.30764864E-02 0.12499964E+03</pdfrwt>
<pdfrwt beam="2">  1       -4 0.30052168E-01 0.12499964E+03</pdfrwt>
<totfact> 0.87612453E+03</totfact>
</mgrwt>
</event>
<event>
 5    1  0.3183609E-002  0.1249968E+03  0.7818608E-02  0.1235074E+00
          4   -1    0    0  501    0  0.00000000000E+00  0.00000000000E+00  0.57255181700E+02  0.57269265156E+02  0.12700000000E+01 0. -1.
         -4   -1    0    0    0  501 -0.00000000000E+00 -0.00000000000E+00 -0.68193374407E+02  0.68205199311E+02  0.12700000000E+01 0. -1.
         25    2    1    2    0    0  0.00000000000E+00  0.00000000000E+00 -0.10938192707E+02  0.12547446447E+03  0.12499678865E+03 0.  0.
    9000005    1    3    3    0    0  0.75084916163E+01 -0.55645768043E+02  0.22062350366E+02  0.60337187962E+02  0.10000000000E+01 0.  0.
    9000005    1    3    3    0    0 -0.75084916163E+01  0.55645768043E+02 -0.33000543073E+02  0.65137276506E+02  0.10000000000E+01 0.  0.
<mgrwt>
<rscale>  0 0.12499679E+03</rscale>
<asrwt>0</asrwt>
<pdfrwt beam="1">  1        4 0.88104824E-02 0.12499679E+03</pdfrwt>
<pdfrwt beam="2">  1       -4 0.10493281E-01 0.12499679E+03</pdfrwt>
<totfact> 0.10443275E+04</totfact>
</mgrwt>
</event>
<event>
 5    1  0.3183609E-002  0.1249960E+03  0.7818608E-02  0.1235076E+00
         -4   -1    0    0    0  501 -0.00000000000E+00  0.00000000000E+00  0.48670031841E+02  0.48686598766E+02  0.12700000000E+01 0. -1.
          4   -1    0    0  501    0  0.00000000000E+00 -0.00000000000E+00 -0.80219475190E+02  0.80229527606E+02  0.12700000000E+01 0. -1.
         25    2    1    2    0    0  0.00000000000E+00  0.00000000000E+00 -0.31549443349E+02  0.12891612637E+03  0.12499600099E+03 0.  0.
    9000005    1    3    3    0    0 -0.36501322739E+02 -0.16673151668E+02 -0.65179647960E+02  0.76548854050E+02  0.10000000000E+01 0.  0.
    9000005    1    3    3    0    0  0.36501322739E+02  0.16673151668E+02  0.33630204611E+02  0.52367272322E+02  0.10000000000E+01 0.  0.
<mgrwt>
<rscale>  0 0.12499600E+03</rscale>
<asrwt>0</asrwt>
<pdfrwt beam="2">  1        4 0.12343505E-01 0.12499600E+03</pdfrwt>
<pdfrwt beam="1">  1       -4 0.74897448E-02 0.12499600E+03</pdfrwt>
<totfact> 0.10368685E+04</totfact>
</mgrwt>
</event>
<event>
 5    1  0.3183609E-002  0.1250012E+03  0.7818608E-02  0.1235067E+00
          4   -1    0    0  501    0  0.00000000000E+00  0.00000000000E+00  0.21659998644E+03  0.21660370963E+03  0.12700000000E+01 0.  1.
         -4   -1    0    0    0  501 -0.00000000000E+00 -0.00000000000E+00 -0.18008513624E+02  0.18053239680E+02  0.12700000000E+01 0.  1.
         25    2    1    2    0    0  0.00000000000E+00  0.00000000000E+00  0.19859147282E+03  0.23465694931E+03  0.12500124313E+03 0.  0.
    9000005    1    3    3    0    0 -0.19001565298E+02 -0.51994036826E+02  0.44859479478E+02  0.71258769624E+02  0.10000000000E+01 0.  0.
    9000005    1    3    3    0    0  0.19001565298E+02  0.51994036826E+02  0.15373199334E+03  0.16339817969E+03  0.10000000000E+01 0.  0.
<mgrwt>
<rscale>  0 0.12500124E+03</rscale>
<asrwt>0</asrwt>
<pdfrwt beam="1">  1        4 0.33326800E-01 0.12500124E+03</pdfrwt>
<pdfrwt beam="2">  1       -4 0.27742675E-02 0.12500124E+03</pdfrwt>
<totfact> 0.84597265E+03</totfact>
</mgrwt>
</event>
<event>
 5    1  0.3183609E-002  0.1250038E+03  0.7818608E-02  0.1235063E+00
          4   -1    0    0  501    0  0.00000000000E+00  0.00000000000E+00  0.65723139679E+01  0.66938935525E+01  0.12700000000E+01 0.  1.
         -4   -1    0    0    0  501 -0.00000000000E+00 -0.00000000000E+00 -0.58881627455E+03  0.58881764416E+03  0.12700000000E+01 0.  1.
         25    2    1    2    0    0  0.00000000000E+00  0.00000000000E+00 -0.58224396058E+03  0.59551153771E+03  0.12500384760E+03 0.  0.
    9000005    1    3    3    0    0 -0.47378237637E+02 -0.39331031017E+02 -0.24028751543E+03  0.24805386003E+03  0.10000000000E+01 0.  0.
    9000005    1    3    3    0    0  0.47378237637E+02  0.39331031017E+02 -0.34195644515E+03  0.34745767769E+03  0.10000000000E+01 0.  0.
<mgrwt>
<rscale>  0 0.12500385E+03</rscale>
<asrwt>0</asrwt>
<pdfrwt beam="1">  1        4 0.10205833E-02 0.12500385E+03</pdfrwt>
<pdfrwt beam="2">  1       -4 0.90596535E-01 0.12500385E+03</pdfrwt>
<totfact> 0.49148036E+03</totfact>
</mgrwt>
</event>
<event>
 5    1  0.3183609E-002  0.1249473E+03  0.7818608E-02  0.1235152E+00
         -4   -1    0    0    0  501 -0.00000000000E+00  0.00000000000E+00  0.89776339753E+02  0.89785322183E+02  0.12700000000E+01 0.  1.
          4   -1    0    0  501    0  0.00000000000E+00 -0.00000000000E+00 -0.43453757997E+02  0.43472312845E+02  0.12700000000E+01 0.  1.
         25    2    1    2    0    0  0.00000000000E+00  0.00000000000E+00  0.46322581756E+02  0.13325763503E+03  0.12494725172E+03 0.  0.
    9000005    1    3    3    0    0 -0.45725509168E+02 -0.42071785862E+02  0.29998332159E+02  0.69005487366E+02  0.10000000000E+01 0.  0.
    9000005    1    3    3    0    0  0.45725509168E+02  0.42071785862E+02  0.16324249597E+02  0.64252147662E+02  0.10000000000E+01 0.  0.
<mgrwt>
<rscale>  0 0.12494725E+03</rscale>
<asrwt>0</asrwt>
<pdfrwt beam="2">  1        4 0.66873118E-02 0.12494725E+03</pdfrwt>
<pdfrwt beam="1">  1       -4 0.13813863E-01 0.12494725E+03</pdfrwt>
<totfact> 0.10287162E+04</totfact>
</mgrwt>
</event>
<event>
 5    1  0.3183609E-002  0.1250075E+03  0.7818608E-02  0.1235058E+00
          4   -1    0    0  501    0  0.00000000000E+00  0.00000000000E+00  0.12802634591E+02  0.12865471328E+02  0.12700000000E+01 0. -1.
         -4   -1    0    0    0  501 -0.00000000000E+00 -0.00000000000E+00 -0.30433839644E+03  0.30434104627E+03  0.12700000000E+01 0. -1.
         25    2    1    2    0    0  0.00000000000E+00  0.00000000000E+00 -0.29153576185E+03  0.31720651760E+03  0.12500749727E+03 0.  0.
    9000005    1    3    3    0    0  0.83686696424E+01  0.60189248314E+01 -0.30217869642E+03  0.30235612555E+03  0.10000000000E+01 0.  0.
    9000005    1    3    3    0    0 -0.83686696424E+01 -0.60189248314E+01  0.10642934573E+02  0.14850392050E+02  0.10000000000E+01 0.  0.
<mgrwt>
<rscale>  0 0.12500750E+03</rscale>
<asrwt>0</asrwt>
<pdfrwt beam="1">  1        4 0.19746738E-02 0.12500750E+03</pdfrwt>
<pdfrwt beam="2">  1       -4 0.46826324E-01 0.12500750E+03</pdfrwt>
<totfact> 0.73477397E+03</totfact>
</mgrwt>
</event>
<event>
 5    1  0.3183609E-002  0.1249966E+03  0.7818608E-02  0.1235075E+00
          4   -1    0    0  501    0  0.00000000000E+00  0.00000000000E+00  0.11015277402E+04  0.11015284723E+04  0.12700000000E+01 0.  1.
         -4   -1    0    0    0  501 -0.00000000000E+00 -0.00000000000E+00 -0.34315486889E+01  0.36590198694E+01  0.12700000000E+01 0.  1.
         25    2    1    2    0    0  0.00000000000E+00  0.00000000000E+00  0.10980961915E+04  0.11051874921E+04  0.12499658827E+03 0.  0.
    9000005    1    3    3    0    0  0.54501834143E+02 -0.47722761422E+01  0.28206085484E+03  0.28731959623E+03  0.10000000000E+01 0.  0.
    9000005    1    3    3    0    0 -0.54501834143E+02  0.47722761422E+01  0.81603533662E+03  0.81786789591E+03  0.10000000000E+01 0.  0.
<mgrwt>
<rscale>  0 0.12499659E+03</rscale>
<asrwt>0</asrwt>
<pdfrwt beam="1">  1        4 0.16948351E+00 0.12499659E+03</pdfrwt>
<pdfrwt beam="2">  1       -4 0.54548419E-03 0.12499659E+03</pdfrwt>
<totfact> 0.27334068E+03</totfact>
</mgrwt>
</event>
<event>
 5    1  0.3183609E-002  0.1250022E+03  0.7818608E-02  0.1235066E+00
          4   -1    0    0  501    0  0.00000000000E+00  0.00000000000E+00  0.36276784601E+02  0.36299008264E+02  0.12700000000E+01 0.  1.
         -4   -1    0    0    0  501 -0.00000000000E+00 -0.00000000000E+00 -0.10762395625E+03  0.10763144921E+03  0.12700000000E+01 0.  1.
         25    2    1    2    0    0  0.00000000000E+00  0.00000000000E+00 -0.71347171648E+02  0.14393045747E+03  0.12500223072E+03 0.  0.
    9000005    1    3    3    0    0 -0.48006795963E+02  0.29369282727E+02 -0.43899857429E+01  0.56457764757E+02  0.10000000000E+01 0.  0.
    9000005    1    3    3    0    0  0.48006795963E+02 -0.29369282727E+02 -0.66957185905E+02  0.87472692715E+02  0.10000000000E+01 0.  0.
<mgrwt>
<rscale>  0 0.12500223E+03</rscale>
<asrwt>0</asrwt>
<pdfrwt beam="1">  1        4 0.55833297E-02 0.12500223E+03</pdfrwt>
<pdfrwt beam="2">  1       -4 0.16559817E-01 0.12500223E+03</pdfrwt>
<totfact> 0.10052259E+04</totfact>
</mgrwt>
</event>
<event>
 5    1  0.3183609E-002  0.1250004E+03  0.7818608E-02  0.1235069E+00
          4   -1    0    0  501    0  0.00000000000E+00  0.00000000000E+00  0.12420442749E+03  0.12421092025E+03  0.12700000000E+01 0. -1.
         -4   -1    0    0    0  501 -0.00000000000E+00 -0.00000000000E+00 -0.31430222469E+02  0.31455870429E+02  0.12700000000E+01 0. -1.
         25    2    1    2    0    0  0.00000000000E+00  0.00000000000E+00  0.92774205025E+02  0.15566679068E+03  0.12500038641E+03 0.  0.
    9000005    1    3    3    0    0  0.50305812324E+02 -0.59612724313E+01  0.91957735494E+02  0.10499255516E+03  0.10000000000E+01 0.  0.
    9000005    1    3    3    0    0 -0.50305812324E+02  0.59612724313E+01  0.81646953140E+00  0.50674235515E+02  0.10000000000E+01 0.  0.
<mgrwt>
<rscale>  0 0.12500039E+03</rscale>
<asrwt>0</asrwt>
<pdfrwt beam="1">  1        4 0.19110845E-01 0.12500039E+03</pdfrwt>
<pdfrwt beam="2">  1       -4 0.48378913E-02 0.12500039E+03</pdfrwt>
<totfact> 0.98183906E+03</totfact>
</mgrwt>
</event>
<event>
 5    1  0.3183609E-002  0.1249846E+03  0.7818608E-02  0.1235093E+00
          4   -1    0    0  501    0  0.00000000000E+00  0.00000000000E+00  0.76777827226E+02  0.76788330191E+02  0.12700000000E+01 0. -1.
         -4   -1    0    0    0  501 -0.00000000000E+00 -0.00000000000E+00 -0.50842906023E+02  0.50858765153E+02  0.12700000000E+01 0. -1.
         25    2    1    2    0    0  0.00000000000E+00  0.00000000000E+00  0.25934921203E+02  0.12764709534E+03  0.12498464230E+03 0.  0.
    9000005    1    3    3    0    0 -0.70652397715E+01 -0.30388474208E+02  0.68258628740E+02  0.75057427182E+02  0.10000000000E+01 0.  0.
    9000005    1    3    3    0    0  0.70652397715E+01  0.30388474208E+02 -0.42323707537E+02  0.52589668162E+02  0.10000000000E+01 0.  0.
<mgrwt>
<rscale>  0 0.12498464E+03</rscale>
<asrwt>0</asrwt>
<pdfrwt beam="1">  1        4 0.11814001E-01 0.12498464E+03</pdfrwt>
<pdfrwt beam="2">  1       -4 0.78240135E-02 0.12498464E+03</pdfrwt>
<totfact> 0.10398721E+04</totfact>
</mgrwt>
</event>
<event>
 5    1  0.3183609E-002  0.1250113E+03  0.7818608E-02  0.1235052E+00
          4   -1    0    0  501    0  0.00000000000E+00  0.00000000000E+00  0.71344968817E+02  0.71356271451E+02  0.12700000000E+01 0. -1.
         -4   -1    0    0    0  501 -0.00000000000E+00 -0.00000000000E+00 -0.54738442804E+02  0.54753173612E+02  0.12700000000E+01 0. -1.
         25    2    1    2    0    0  0.00000000000E+00  0.00000000000E+00  0.16606526012E+02  0.12610944506E+03  0.12501126121E+03 0.  0.
    9000005    1    3    3    0    0 -0.22317965360E+02 -0.30613666494E+02 -0.41839177883E+02  0.56451793239E+02  0.10000000000E+01 0.  0.
    9000005    1    3    3    0    0  0.22317965360E+02  0.30613666494E+02  0.58445703895E+02  0.69657651825E+02  0.10000000000E+01 0.  0.
<mgrwt>
<rscale>  0 0.12501126E+03</rscale>
<asrwt>0</asrwt>
<pdfrwt beam="1">  1        4 0.10978152E-01 0.12501126E+03</pdfrwt>
<pdfrwt beam="2">  1       -4 0.84233015E-02 0.12501126E+03</pdfrwt>
<totfact> 0.10425910E+04</totfact>
</mgrwt>
</event>
<event>
 5    1  0.3183609E-002  0.1249989E+03  0.7818608E-02  0.1235071E+00
          4   -1    0    0  501    0  0.00000000000E+00  0.00000000000E+00  0.30686131070E+03  0.30686393874E+03  0.12700000000E+01 0.  1.
         -4   -1    0    0    0  501 -0.00000000000E+00 -0.00000000000E+00 -0.12695098323E+02  0.12758464698E+02  0.12700000000E+01 0.  1.
         25    2    1    2    0    0  0.00000000000E+00  0.00000000000E+00  0.29416621237E+03  0.31962240344E+03  0.12499888112E+03 0.  0.
    9000005    1    3    3    0    0 -0.45395613070E+02  0.41273411906E+02  0.17743762431E+03  0.18774814709E+03  0.10000000000E+01 0.  0.
    9000005    1    3    3    0    0  0.45395613070E+02 -0.41273411906E+02  0.11672858806E+03  0.13187425635E+03  0.10000000000E+01 0.  0.
<mgrwt>
<rscale>  0 0.12499888E+03</rscale>
<asrwt>0</asrwt>
<pdfrwt beam="1">  1        4 0.47214502E-01 0.12499888E+03</pdfrwt>
<pdfrwt beam="2">  1       -4 0.19581688E-02 0.12499888E+03</pdfrwt>
<totfact> 0.73202876E+03</totfact>
</mgrwt>
</event>
<event>
 5    1  0.3183609E-002  0.1249940E+03  0.7818608E-02  0.1235079E+00
          4   -1    0    0  501    0  0.00000000000E+00  0.00000000000E+00  0.18046127409E+03  0.18046574286E+03  0.12700000000E+01 0. -1.
         -4   -1    0    0    0  501 -0.00000000000E+00 -0.00000000000E+00 -0.21620464409E+02  0.21657732598E+02  0.12700000000E+01 0. -1.
         25    2    1    2    0    0  0.00000000000E+00  0.00000000000E+00  0.15884080968E+03  0.20212347546E+03  0.12499398590E+03 0.  0.
    9000005    1    3    3    0    0  0.47422142550E+02  0.40409661057E+02  0.71652795728E+02  0.94957482308E+02  0.10000000000E+01 0.  0.
    9000005    1    3    3    0    0 -0.47422142550E+02 -0.40409661057E+02  0.87188013952E+02  0.10716599315E+03  0.10000000000E+01 0.  0.
<mgrwt>
<rscale>  0 0.12499399E+03</rscale>
<asrwt>0</asrwt>
<pdfrwt beam="1">  1        4 0.27766484E-01 0.12499399E+03</pdfrwt>
<pdfrwt beam="2">  1       -4 0.33294358E-02 0.12499399E+03</pdfrwt>
<totfact> 0.89790677E+03</totfact>
</mgrwt>
</event>
<event>
 5    1  0.3183609E-002  0.1250104E+03  0.7818608E-02  0.1235053E+00
          4   -1    0    0  501    0  0.00000000000E+00  0.00000000000E+00  0.30633972085E+03  0.30634235337E+03  0.12700000000E+01 0. -1.
         -4   -1    0    0    0  501 -0.00000000000E+00 -0.00000000000E+00 -0.12719174981E+02  0.12782422000E+02  0.12700000000E+01 0. -1.
         25    2    1    2    0    0  0.00000000000E+00  0.00000000000E+00  0.29362054586E+03  0.31912477537E+03  0.12501038877E+03 0.  0.
    9000005    1    3    3    0    0 -0.35346640325E+02  0.22641580852E+02  0.26500931582E+03  0.26831504549E+03  0.10000000000E+01 0.  0.
    9000005    1    3    3    0    0  0.35346640325E+02 -0.22641580852E+02  0.28611230050E+02  0.50809729882E+02  0.10000000000E+01 0.  0.
<mgrwt>
<rscale>  0 0.12501039E+03</rscale>
<asrwt>0</asrwt>
<pdfrwt beam="1">  1        4 0.47134254E-01 0.12501039E+03</pdfrwt>
<pdfrwt beam="2">  1       -4 0.19618639E-02 0.12501039E+03</pdfrwt>
<totfact> 0.73243472E+03</totfact>
</mgrwt>
</event>
<event>
 5    1  0.3183609E-002  0.1250006E+03  0.7818608E-02  0.1235068E+00
         -4   -1    0    0    0  501 -0.00000000000E+00  0.00000000000E+00  0.38428595859E+01  0.40472793080E+01  0.12700000000E+01 0. -1.
          4   -1    0    0  501    0  0.00000000000E+00 -0.00000000000E+00 -0.98996459409E+03  0.98996540872E+03  0.12700000000E+01 0. -1.
         25    2    1    2    0    0  0.00000000000E+00  0.00000000000E+00 -0.98612173451E+03  0.99401268802E+03  0.12500059475E+03 0.  0.
    9000005    1    3    3    0    0  0.47501537961E+02  0.39090309893E+02 -0.58047525810E+03  0.58372679714E+03  0.10000000000E+01 0.  0.
    9000005    1    3    3    0    0 -0.47501537961E+02 -0.39090309893E+02 -0.40564647641E+03  0.41028589088E+03  0.10000000000E+01 0.  0.
<mgrwt>
<rscale>  0 0.12500059E+03</rscale>
<asrwt>0</asrwt>
<pdfrwt beam="2">  1        4 0.15231783E+00 0.12500059E+03</pdfrwt>
<pdfrwt beam="1">  1       -4 0.60699721E-03 0.12500059E+03</pdfrwt>
<totfact> 0.30802640E+03</totfact>
</mgrwt>
</event>
<event>
 5    1  0.3183609E-002  0.1249920E+03  0.7818608E-02  0.1235082E+00
          4   -1    0    0  501    0  0.00000000000E+00  0.00000000000E+00  0.99554668793E+02  0.99562769038E+02  0.12700000000E+01 0. -1.
         -4   -1    0    0    0  501 -0.00000000000E+00 -0.00000000000E+00 -0.39212229256E+02  0.39232790153E+02  0.12700000000E+01 0. -1.
         25    2    1    2    0    0  0.00000000000E+00  0.00000000000E+00  0.60342439537E+02  0.13879555919E+03  0.12499198871E+03 0.  0.
    9000005    1    3    3    0    0 -0.57504670099E+02  0.23042318038E+02  0.39261463697E+02  0.73349833233E+02  0.10000000000E+01 0.  0.
    9000005    1    3    3    0    0  0.57504670099E+02 -0.23042318038E+02  0.21080975840E+02  0.65445725958E+02  0.10000000000E+01 0.  0.
<mgrwt>
<rscale>  0 0.12499199E+03</rscale>
<asrwt>0</asrwt>
<pdfrwt beam="1">  1        4 0.15318307E-01 0.12499199E+03</pdfrwt>
<pdfrwt beam="2">  1       -4 0.60348555E-02 0.12499199E+03</pdfrwt>
<totfact> 0.10160444E+04</totfact>
</mgrwt>
</event>
<event>
 5    1  0.3183609E-002  0.1250045E+03  0.7818608E-02  0.1235062E+00
         -4   -1    0    0    0  501 -0.00000000000E+00  0.00000000000E+00  0.19656290161E+02  0.19697275012E+02  0.12700000000E+01 0. -1.
          4   -1    0    0  501    0  0.00000000000E+00 -0.00000000000E+00 -0.19849213192E+03  0.19849619476E+03  0.12700000000E+01 0. -1.
         25    2    1    2    0    0  0.00000000000E+00  0.00000000000E+00 -0.17883584176E+03  0.21819346977E+03  0.12500452773E+03 0.  0.
    9000005    1    3    3    0    0  0.51250967358E+02  0.24589267195E+02 -0.13474137784E+03  0.14624476954E+03  0.10000000000E+01 0.  0.
    9000005    1    3    3    0    0 -0.51250967358E+02 -0.24589267195E+02 -0.44094463920E+02  0.71948700230E+02  0.10000000000E+01 0.  0.
<mgrwt>
<rscale>  0 0.12500453E+03</rscale>
<asrwt>0</asrwt>
<pdfrwt beam="2">  1        4 0.30540715E-01 0.12500453E+03</pdfrwt>
<pdfrwt beam="1">  1       -4 0.30275100E-02 0.12500453E+03</pdfrwt>
<totfact> 0.87146204E+03</totfact>
</mgrwt>
</event>
<event>
 5    1  0.3183609E-002  0.1249966E+03  0.7818608E-02  0.1235075E+00
         -4   -1    0    0    0  501 -0.00000000000E+00  0.00000000000E+00  0.89508367731E+02  0.89517377050E+02  0.12700000000E+01 0.  1.
          4   -1    0    0  501    0  0.00000000000E+00 -0.00000000000E+00 -0.43618314069E+02  0.43636798946E+02  0.12700000000E+01 0.  1.
         25    2    1    2    0    0  0.00000000000E+00  0.00000000000E+00  0.45890053662E+02  0.13315417600E+03  0.12499655019E+03 0.  0.
    9000005    1    3    3    0    0 -0.35893307508E+02 -0.10071650985E+02 -0.30480496631E+02  0.48164596461E+02  0.10000000000E+01 0.  0.
    9000005    1    3    3    0    0  0.35893307508E+02  0.10071650985E+02  0.76370550293E+02  0.84989579534E+02  0.10000000000E+01 0.  0.
<mgrwt>
<rscale>  0 0.12499655E+03</rscale>
<asrwt>0</asrwt>
<pdfrwt beam="2">  1        4 0.67126249E-02 0.12499655E+03</pdfrwt>
<pdfrwt beam="1">  1       -4 0.13772633E-01 0.12499655E+03</pdfrwt>
<totfact> 0.10277924E+04</totfact>
</mgrwt>
</event>
<event>
 5    1  0.3183609E-002  0.1249959E+03  0.7818608E-02  0.1235076E+00
         -4   -1    0    0    0  501 -0.00000000000E+00  0.00000000000E+00  0.41585776779E+02  0.41605164707E+02  0.12700000000E+01 0.  1.
          4   -1    0    0  501    0  0.00000000000E+00 -0.00000000000E+00 -0.93880674575E+02  0.93889264342E+02  0.12700000000E+01 0.  1.
         25    2    1    2    0    0  0.00000000000E+00  0.00000000000E+00 -0.52294897796E+02  0.13549442905E+03  0.12499593581E+03 0.  0.
    9000005    1    3    3    0    0  0.28491798817E+02  0.54320879066E+02 -0.13209508630E+02  0.62753737901E+02  0.10000000000E+01 0.  0.
    9000005    1    3    3    0    0 -0.28491798817E+02 -0.54320879066E+02 -0.39085389166E+02  0.72740691148E+02  0.10000000000E+01 0.  0.
<mgrwt>
<rscale>  0 0.12499594E+03</rscale>
<asrwt>0</asrwt>
<pdfrwt beam="2">  1        4 0.14445333E-01 0.12499594E+03</pdfrwt>
<pdfrwt beam="1">  1       -4 0.63999640E-02 0.12499594E+03</pdfrwt>
<totfact> 0.10228598E+04</totfact>
</mgrwt>
</event>
<event>
 5    1  0.3183609E-002  0.1250008E+03  0.7818608E-02  0.1235068E+00
         -4   -1    0    0    0  501 -0.00000000000E+00  0.00000000000E+00  0.43259858246E+02  0.43278496225E+02  0.12700000000E+01 0.  1.
          4   -1    0    0  501    0  0.00000000000E+00 -0.00000000000E+00 -0.90255958312E+02  0.90264893014E+02  0.12700000000E+01 0.  1.
         25    2    1    2    0    0  0.00000000000E+00  0.00000000000E+00 -0.46996100066E+02  0.13354338924E+03  0.12500081355E+03 0.  0.
    9000005    1    3    3    0    0 -0.29473896520E+02 -0.59389634131E+01 -0.82026312616E+02  0.87368746265E+02  0.10000000000E+01 0.  0.
    9000005    1    3    3    0    0  0.29473896520E+02  0.59389634131E+01  0.35030212550E+02  0.46174642974E+02  0.10000000000E+01 0.  0.
<mgrwt>
<rscale>  0 0.12500081E+03</rscale>
<asrwt>0</asrwt>
<pdfrwt beam="2">  1        4 0.13887653E-01 0.12500081E+03</pdfrwt>
<pdfrwt beam="1">  1       -4 0.66574838E-02 0.12500081E+03</pdfrwt>
<totfact> 0.10268676E+04</totfact>
</mgrwt>
</event>
<event>
 5    1  0.3183609E-002  0.1250022E+03  0.7818608E-02  0.1235066E+00
         -4   -1    0    0    0  501 -0.00000000000E+00  0.00000000000E+00  0.49900265648E+02  0.49916424268E+02  0.12700000000E+01 0. -1.
          4   -1    0    0  501    0  0.00000000000E+00 -0.00000000000E+00 -0.78249895701E+02  0.78260201107E+02  0.12700000000E+01 0. -1.
         25    2    1    2    0    0  0.00000000000E+00  0.00000000000E+00 -0.28349630053E+02  0.12817662538E+03  0.12500218305E+03 0.  0.
    9000005    1    3    3    0    0  0.40893810400E+02 -0.21741564015E+02 -0.57197283527E+02  0.73603862519E+02  0.10000000000E+01 0.  0.
    9000005    1    3    3    0    0 -0.40893810400E+02  0.21741564015E+02  0.28847653473E+02  0.54572762856E+02  0.10000000000E+01 0.  0.
<mgrwt>
<rscale>  0 0.12500218E+03</rscale>
<asrwt>0</asrwt>
<pdfrwt beam="2">  1        4 0.12040481E-01 0.12500218E+03</pdfrwt>
<pdfrwt beam="1">  1       -4 0.76789997E-02 0.12500218E+03</pdfrwt>
<totfact> 0.10383163E+04</totfact>
</mgrwt>
</event>
<event>
 5    1  0.3183609E-002  0.1249923E+03  0.7818608E-02  0.1235081E+00
          4   -1    0    0  501    0  0.00000000000E+00  0.00000000000E+00  0.17369343569E+02  0.17415711183E+02  0.12700000000E+01 0.  1.
         -4   -1    0    0    0  501 -0.00000000000E+00 -0.00000000000E+00 -0.22451787372E+03  0.22452146561E+03  0.12700000000E+01 0.  1.
         25    2    1    2    0    0  0.00000000000E+00  0.00000000000E+00 -0.20714853015E+03  0.24193717679E+03  0.12499233565E+03 0.  0.
    9000005    1    3    3    0    0 -0.58763814955E+02  0.14207249676E+02 -0.72985461032E+02  0.94778211702E+02  0.10000000000E+01 0.  0.
    9000005    1    3    3    0    0  0.58763814955E+02 -0.14207249676E+02 -0.13416306912E+03  0.14715896509E+03  0.10000000000E+01 0.  0.
<mgrwt>
<rscale>  0 0.12499234E+03</rscale>
<asrwt>0</asrwt>
<pdfrwt beam="1">  1        4 0.26760499E-02 0.12499234E+03</pdfrwt>
<pdfrwt beam="2">  1       -4 0.34545052E-01 0.12499234E+03</pdfrwt>
<totfact> 0.83523972E+03</totfact>
</mgrwt>
</event>
<event>
 5    1  0.3183609E-002  0.1250015E+03  0.7818608E-02  0.1235067E+00
          4   -1    0    0  501    0  0.00000000000E+00  0.00000000000E+00  0.55622557497E+01  0.57053999882E+01  0.12700000000E+01 0.  1.
         -4   -1    0    0    0  501 -0.00000000000E+00 -0.00000000000E+00 -0.69322875525E+03  0.69322991857E+03  0.12700000000E+01 0.  1.
         25    2    1    2    0    0  0.00000000000E+00  0.00000000000E+00 -0.68766649950E+03  0.69893531856E+03  0.12500145998E+03 0.  0.
    9000005    1    3    3    0    0  0.48640007231E+02  0.27118797576E+02 -0.18528311828E+03  0.19347380547E+03  0.10000000000E+01 0.  0.
    9000005    1    3    3    0    0 -0.48640007231E+02 -0.27118797576E+02 -0.50238338122E+03  0.50546151309E+03  0.10000000000E+01 0.  0.
<mgrwt>
<rscale>  0 0.12500146E+03</rscale>
<asrwt>0</asrwt>
<pdfrwt beam="1">  1        4 0.86683278E-03 0.12500146E+03</pdfrwt>
<pdfrwt beam="2">  1       -4 0.10666161E+00 0.12500146E+03</pdfrwt>
<totfact> 0.43141596E+03</totfact>
</mgrwt>
</event>
<event>
 5    1  0.3183609E-002  0.1249993E+03  0.7818608E-02  0.1235070E+00
         -4   -1    0    0    0  501 -0.00000000000E+00  0.00000000000E+00  0.36228178996E+03  0.36228401599E+03  0.12700000000E+01 0.  1.
          4   -1    0    0  501    0  0.00000000000E+00 -0.00000000000E+00 -0.10742568356E+02  0.10817378373E+02  0.12700000000E+01 0.  1.
         25    2    1    2    0    0  0.00000000000E+00  0.00000000000E+00  0.35153922161E+03  0.37310139436E+03  0.12499930458E+03 0.  0.
    9000005    1    3    3    0    0  0.57424942329E+02 -0.52408219798E+01  0.10387823138E+03  0.11881404450E+03  0.10000000000E+01 0.  0.
    9000005    1    3    3    0    0 -0.57424942329E+02  0.52408219798E+01  0.24766099023E+03  0.25428734986E+03  0.10000000000E+01 0.  0.
<mgrwt>
<rscale>  0 0.12499930E+03</rscale>
<asrwt>0</asrwt>
<pdfrwt beam="2">  1        4 0.16586290E-02 0.12499930E+03</pdfrwt>
<pdfrwt beam="1">  1       -4 0.55741576E-01 0.12499930E+03</pdfrwt>
<totfact> 0.67256755E+03</totfact>
</mgrwt>
</event>
<event>
 5    1  0.3183609E-002  0.1250000E+03  0.7818608E-02  0.1235069E+00
         -4   -1    0    0    0  501 -0.00000000000E+00  0.00000000000E+00  0.31566396755E+01  0.34025393518E+01  0.12700000000E+01 0. -1.
          4   -1    0    0  501    0  0.00000000000E+00 -0.00000000000E+00 -0.11908317845E+04  0.11908324617E+04  0.12700000000E+01 0. -1.
         25    2    1    2    0    0  0.00000000000E+00  0.00000000000E+00 -0.11876751448E+04  0.11942350010E+04  0.12499995256E+03 0.  0.
    9000005    1    3    3    0    0 -0.11582314309E+02 -0.23567310747E+02 -0.52065910525E+02  0.58321755627E+02  0.10000000000E+01 0.  0.
    9000005    1    3    3    0    0  0.11582314309E+02  0.23567310747E+02 -0.11356092343E+04  0.11359132454E+04  0.10000000000E+01 0.  0.
<mgrwt>
<rscale>  0 0.12499995E+03</rscale>
<asrwt>0</asrwt>
<pdfrwt beam="2">  1        4 0.18322351E+00 0.12499995E+03</pdfrwt>
<pdfrwt beam="1">  1       -4 0.50460527E-03 0.12499995E+03</pdfrwt>
<totfact> 0.24864230E+03</totfact>
</mgrwt>
</event>
<event>
 5    1  0.3183609E-002  0.1250017E+03  0.7818608E-02  0.1235067E+00
          4   -1    0    0  501    0  0.00000000000E+00  0.00000000000E+00  0.82756800469E+01  0.83725611517E+01  0.12700000000E+01 0. -1.
         -4   -1    0    0    0  501 -0.00000000000E+00 -0.00000000000E+00 -0.46918375769E+03  0.46918547652E+03  0.12700000000E+01 0. -1.
         25    2    1    2    0    0  0.00000000000E+00  0.00000000000E+00 -0.46090807764E+03  0.47755803767E+03  0.12500169323E+03 0.  0.
    9000005    1    3    3    0    0  0.51288104992E+02 -0.24289997844E+02 -0.13047287750E+03  0.14228367957E+03  0.10000000000E+01 0.  0.
    9000005    1    3    3    0    0 -0.51288104992E+02  0.24289997844E+02 -0.33043520014E+03  0.33527435810E+03  0.10000000000E+01 0.  0.
<mgrwt>
<rscale>  0 0.12500169E+03</rscale>
<asrwt>0</asrwt>
<pdfrwt beam="1">  1        4 0.12807665E-02 0.12500169E+03</pdfrwt>
<pdfrwt beam="2">  1       -4 0.72189681E-01 0.12500169E+03</pdfrwt>
<totfact> 0.57646483E+03</totfact>
</mgrwt>
</event>
<event>
 5    1  0.3183609E-002  0.1250059E+03  0.7818608E-02  0.1235060E+00
         -4   -1    0    0    0  501 -0.00000000000E+00  0.00000000000E+00  0.40604147701E+03  0.40604346313E+03  0.12700000000E+01 0. -1.
          4   -1    0    0  501    0  0.00000000000E+00 -0.00000000000E+00 -0.95772953951E+01  0.96611328055E+01  0.12700000000E+01 0. -1.
         25    2    1    2    0    0  0.00000000000E+00  0.00000000000E+00  0.39646418162E+03  0.41570459594E+03  0.12500585498E+03 0.  0.
    9000005    1    3    3    0    0  0.24546377297E+02 -0.56530367236E+01  0.38842909443E+03  0.38924624964E+03  0.10000000000E+01 0.  0.
    9000005    1    3    3    0    0 -0.24546377297E+02  0.56530367236E+01  0.80350871872E+01  0.26458346296E+02  0.10000000000E+01 0.  0.
<mgrwt>
<rscale>  0 0.12500585E+03</rscale>
<asrwt>0</asrwt>
<pdfrwt beam="2">  1        4 0.14800318E-02 0.12500585E+03</pdfrwt>
<pdfrwt beam="1">  1       -4 0.62474524E-01 0.12500585E+03</pdfrwt>
<totfact> 0.63045363E+03</totfact>
</mgrwt>
</event>
<event>
 5    1  0.3183609E-002  0.1249974E+03  0.7818608E-02  0.1235073E+00
          4   -1    0    0  501    0  0.00000000000E+00  0.00000000000E+00  0.30044674262E+02  0.30071503978E+02  0.12700000000E+01 0.  1.
         -4   -1    0    0    0  501 -0.00000000000E+00 -0.00000000000E+00 -0.12992142011E+03  0.12992762717E+03  0.12700000000E+01 0.  1.
         25    2    1    2    0    0  0.00000000000E+00  0.00000000000E+00 -0.99876745845E+02  0.15999913115E+03  0.12499743041E+03 0.  0.
    9000005    1    3    3    0    0  0.14721923071E+02  0.57680800983E+02 -0.25608589252E+02  0.64812110476E+02  0.10000000000E+01 0.  0.
    9000005    1    3    3    0    0 -0.14721923071E+02 -0.57680800983E+02 -0.74268156593E+02  0.95187020673E+02  0.10000000000E+01 0.  0.
<mgrwt>
<rscale>  0 0.12499743E+03</rscale>
<asrwt>0</asrwt>
<pdfrwt beam="1">  1        4 0.46247989E-02 0.12499743E+03</pdfrwt>
<pdfrwt beam="2">  1       -4 0.19990452E-01 0.12499743E+03</pdfrwt>
<totfact> 0.97348575E+03</totfact>
</mgrwt>
</event>
<event>
 5    1  0.3183609E-002  0.1250010E+03  0.7818608E-02  0.1235068E+00
          4   -1    0    0  501    0  0.00000000000E+00  0.00000000000E+00  0.77394504939E+01  0.78429582395E+01  0.12700000000E+01 0. -1.
         -4   -1    0    0    0  501 -0.00000000000E+00 -0.00000000000E+00 -0.50127042786E+03  0.50127203667E+03  0.12700000000E+01 0. -1.
         25    2    1    2    0    0  0.00000000000E+00  0.00000000000E+00 -0.49353097737E+03  0.50911499491E+03  0.12500100968E+03 0.  0.
    9000005    1    3    3    0    0  0.46801073832E+02  0.39903418705E+02 -0.20165198657E+03  0.21082492031E+03  0.10000000000E+01 0.  0.
    9000005    1    3    3    0    0 -0.46801073832E+02 -0.39903418705E+02 -0.29187899080E+03  0.29829007461E+03  0.10000000000E+01 0.  0.
<mgrwt>
<rscale>  0 0.12500101E+03</rscale>
<asrwt>0</asrwt>
<pdfrwt beam="1">  1        4 0.11987710E-02 0.12500101E+03</pdfrwt>
<pdfrwt beam="2">  1       -4 0.77126588E-01 0.12500101E+03</pdfrwt>
<totfact> 0.55162813E+03</totfact>
</mgrwt>
</event>
<event>
 5    1  0.3183609E-002  0.1250008E+03  0.7818608E-02  0.1235068E+00
          4   -1    0    0  501    0  0.00000000000E+00  0.00000000000E+00  0.14811440895E+01  0.19510735030E+01  0.12700000000E+01 0. -1.
         -4   -1    0    0    0  501 -0.00000000000E+00 -0.00000000000E+00 -0.22757834929E+04  0.22757838472E+04  0.12700000000E+01 0. -1.
         25    2    1    2    0    0  0.00000000000E+00  0.00000000000E+00 -0.22743023488E+04  0.22777349207E+04  0.12500078186E+03 0.  0.
    9000005    1    3    3    0    0 -0.53073282294E+02  0.28547321428E+02 -0.83576074457E+03  0.83793122929E+03  0.10000000000E+01 0.  0.
    9000005    1    3    3    0    0  0.53073282294E+02 -0.28547321428E+02 -0.14385416042E+04  0.14398036914E+04  0.10000000000E+01 0.  0.
<mgrwt>
<rscale>  0 0.12500078E+03</rscale>
<asrwt>0</asrwt>
<pdfrwt beam="1">  1        4 0.26404582E-03 0.12500078E+03</pdfrwt>
<pdfrwt beam="2">  1       -4 0.35015430E+00 0.12500078E+03</pdfrwt>
<totfact> 0.66578136E+02</totfact>
</mgrwt>
</event>
<event>
 5    1  0.3183609E-002  0.1249974E+03  0.7818608E-02  0.1235073E+00
         -4   -1    0    0    0  501 -0.00000000000E+00  0.00000000000E+00  0.95323200710E+02  0.95331660500E+02  0.12700000000E+01 0. -1.
          4   -1    0    0  501    0  0.00000000000E+00 -0.00000000000E+00 -0.40957210095E+02  0.40976895426E+02  0.12700000000E+01 0. -1.
         25    2    1    2    0    0  0.00000000000E+00  0.00000000000E+00  0.54365990616E+02  0.13630855593E+03  0.12499744591E+03 0.  0.
    9000005    1    3    3    0    0 -0.20200372618E+02  0.49848252231E+02  0.61876835170E+02  0.81991743701E+02  0.10000000000E+01 0.  0.
    9000005    1    3    3    0    0  0.20200372618E+02 -0.49848252231E+02 -0.75108445548E+01  0.54316812225E+02  0.10000000000E+01 0.  0.
<mgrwt>
<rscale>  0 0.12499745E+03</rscale>
<asrwt>0</asrwt>
<pdfrwt beam="2">  1        4 0.63032743E-02 0.12499745E+03</pdfrwt>
<pdfrwt beam="1">  1       -4 0.14667273E-01 0.12499745E+03</pdfrwt>
<totfact> 0.10211151E+04</totfact>
</mgrwt>
</event>
<event>
 4    1  0.3183609E-002  0.1248837E+03  0.7818608E-02  0.1235251E+00
          4   -1    0    0  501    0  0.00000000000E+00  0.00000000000E+00  0.18412970987E+02  0.18456716950E+02  0.12700000000E+01 0.  1.
         -4   -1    0    0    0  501 -0.00000000000E+00 -0.00000000000E+00 -0.21145513769E+03  0.21145895147E+03  0.12700000000E+01 0.  1.
    9000005    1    1    2    0    0 -0.64286061221E-01  0.41893827488E+02 -0.18174519749E+03  0.18651384325E+03  0.10000000000E+01 0.  0.
    9000005    1    1    2    0    0  0.64286061221E-01 -0.41893827488E+02 -0.11296969215E+02  0.43401825166E+02  0.10000000000E+01 0.  0.
<mgrwt>
<rscale>  0 0.12488369E+03</rscale>
<asrwt>0</asrwt>
<pdfrwt beam="1">  1        4 0.28364233E-02 0.12488369E+03</pdfrwt>
<pdfrwt beam="2">  1       -4 0.32535217E-01 0.12488369E+03</pdfrwt>
<totfact> 0.85544343E+03</totfact>
</mgrwt>
</event>
<event>
 5    1  0.3183609E-002  0.1249899E+03  0.7818608E-02  0.1235085E+00
          4   -1    0    0  501    0  0.00000000000E+00  0.00000000000E+00  0.36929828225E+02  0.36951659134E+02  0.12700000000E+01 0. -1.
         -4   -1    0    0    0  501 -0.00000000000E+00 -0.00000000000E+00 -0.10570102414E+03  0.10570865341E+03  0.12700000000E+01 0. -1.
         25    2    1    2    0    0  0.00000000000E+00  0.00000000000E+00 -0.68771195918E+02  0.14266031254E+03  0.12498994914E+03 0.  0.
    9000005    1    3    3    0    0  0.21125850156E+02  0.13843052509E+02 -0.99620806425E+02  0.10277760807E+03  0.10000000000E+01 0.  0.
    9000005    1    3    3    0    0 -0.21125850156E+02 -0.13843052509E+02  0.30849610507E+02  0.39882704472E+02  0.10000000000E+01 0.  0.
<mgrwt>
<rscale>  0 0.12498995E+03</rscale>
<asrwt>0</asrwt>
<pdfrwt beam="1">  1        4 0.56837782E-02 0.12498995E+03</pdfrwt>
<pdfrwt beam="2">  1       -4 0.16263962E-01 0.12498995E+03</pdfrwt>
<totfact> 0.10081026E+04</totfact>
</mgrwt>
</event>
<event>
 5    1  0.3183609E-002  0.1250001E+03  0.7818608E-02  0.1235069E+00
          4   -1    0    0  501    0  0.00000000000E+00  0.00000000000E+00  0.58520167864E+02  0.58533946961E+02  0.12700000000E+01 0.  1.
         -4   -1    0    0    0  501 -0.00000000000E+00 -0.00000000000E+00 -0.66722911835E+02  0.66734997293E+02  0.12700000000E+01 0.  1.
         25    2    1    2    0    0  0.00000000000E+00  0.00000000000E+00 -0.82027439707E+01  0.12526894425E+03  0.12500009354E+03 0.  0.
    9000005    1    3    3    0    0 -0.86208093719E-01  0.52482912088E+02 -0.38097664940E+02  0.64860585620E+02  0.10000000000E+01 0.  0.
    9000005    1    3    3    0    0  0.86208093719E-01 -0.52482912088E+02  0.29894920969E+02  0.60408358634E+02  0.10000000000E+01 0.  0.
<mgrwt>
<rscale>  0 0.12500009E+03</rscale>
<asrwt>0</asrwt>
<pdfrwt beam="1">  1        4 0.90050923E-02 0.12500009E+03</pdfrwt>
<pdfrwt beam="2">  1       -4 0.10267053E-01 0.12500009E+03</pdfrwt>
<totfact> 0.10447002E+04</totfact>
</mgrwt>
</event>
<event>
 5    1  0.3183609E-002  0.1249917E+03  0.7818608E-02  0.1235082E+00
          4   -1    0    0  501    0  0.00000000000E+00  0.00000000000E+00  0.28721690778E+03  0.28721971557E+03  0.12700000000E+01 0.  1.
         -4   -1    0    0    0  501 -0.00000000000E+00 -0.00000000000E+00 -0.13566012752E+02  0.13625329427E+02  0.12700000000E+01 0.  1.
         25    2    1    2    0    0  0.00000000000E+00  0.00000000000E+00  0.27365089503E+03  0.30084504500E+03  0.12499171473E+03 0.  0.
    9000005    1    3    3    0    0  0.44778441447E+02  0.18294105854E+02  0.41609051384E+02  0.63812978965E+02  0.10000000000E+01 0.  0.
    9000005    1    3    3    0    0 -0.44778441447E+02 -0.18294105854E+02  0.23204184364E+03  0.23703206603E+03  0.10000000000E+01 0.  0.
<mgrwt>
<rscale>  0 0.12499171E+03</rscale>
<asrwt>0</asrwt>
<pdfrwt beam="1">  1        4 0.44191995E-01 0.12499171E+03</pdfrwt>
<pdfrwt beam="2">  1       -4 0.20918577E-02 0.12499171E+03</pdfrwt>
<totfact> 0.75506845E+03</totfact>
</mgrwt>
</event>
<event>
 5    1  0.3183609E-002  0.1249940E+03  0.7818608E-02  0.1235079E+00
         -4   -1    0    0    0  501 -0.00000000000E+00  0.00000000000E+00  0.89869931818E+02  0.89878904894E+02  0.12700000000E+01 0.  1.
          4   -1    0    0  501    0  0.00000000000E+00 -0.00000000000E+00 -0.43440980705E+02  0.43459541008E+02  0.12700000000E+01 0.  1.
         25    2    1    2    0    0  0.00000000000E+00  0.00000000000E+00  0.46428951113E+02  0.13333844590E+03  0.12499397447E+03 0.  0.
    9000005    1    3    3    0    0 -0.53252312031E+02 -0.84461019882E+00 -0.11653228794E+02  0.54528156436E+02  0.10000000000E+01 0.  0.
    9000005    1    3    3    0    0  0.53252312031E+02  0.84461019882E+00  0.58082179907E+02  0.78810289466E+02  0.10000000000E+01 0.  0.
<mgrwt>
<rscale>  0 0.12499397E+03</rscale>
<asrwt>0</asrwt>
<pdfrwt beam="2">  1        4 0.66853457E-02 0.12499397E+03</pdfrwt>
<pdfrwt beam="1">  1       -4 0.13828261E-01 0.12499397E+03</pdfrwt>
<totfact> 0.10274608E+04</totfact>
</mgrwt>
</event>
<event>
 5    1  0.3183609E-002  0.1250014E+03  0.7818608E-02  0.1235067E+00
          4   -1    0    0  501    0  0.00000000000E+00  0.00000000000E+00  0.14347448490E+02  0.14403547416E+02  0.12700000000E+01 0.  1.
         -4   -1    0    0    0  501 -0.00000000000E+00 -0.00000000000E+00 -0.27167830936E+03  0.27168127775E+03  0.12700000000E+01 0.  1.
         25    2    1    2    0    0  0.00000000000E+00  0.00000000000E+00 -0.25733086087E+03  0.28608482516E+03  0.12500142092E+03 0.  0.
    9000005    1    3    3    0    0  0.13231348092E+02 -0.34751112352E+02 -0.24361482470E+03  0.24643841259E+03  0.10000000000E+01 0.  0.
    9000005    1    3    3    0    0 -0.13231348092E+02  0.34751112352E+02 -0.13716036168E+02  0.39646412577E+02  0.10000000000E+01 0.  0.
<mgrwt>
<rscale>  0 0.12500142E+03</rscale>
<asrwt>0</asrwt>
<pdfrwt beam="1">  1        4 0.22118436E-02 0.12500142E+03</pdfrwt>
<pdfrwt beam="2">  1       -4 0.41801203E-01 0.12500142E+03</pdfrwt>
<totfact> 0.77375717E+03</totfact>
</mgrwt>
</event>
<event>
 5    1  0.3183609E-002  0.1249959E+03  0.7818608E-02  0.1235076E+00
         -4   -1    0    0    0  501 -0.00000000000E+00  0.00000000000E+00  0.35918094228E+02  0.35940539687E+02  0.12700000000E+01 0.  1.
          4   -1    0    0  501    0  0.00000000000E+00 -0.00000000000E+00 -0.10868719902E+03  0.10869461868E+03  0.12700000000E+01 0.  1.
         25    2    1    2    0    0  0.00000000000E+00  0.00000000000E+00 -0.72769104788E+02  0.14463515837E+03  0.12499594563E+03 0.  0.
    9000005    1    3    3    0    0 -0.20609385305E+02 -0.52073452367E+02 -0.68464205637E+02  0.88457552857E+02  0.10000000000E+01 0.  0.
    9000005    1    3    3    0    0  0.20609385305E+02  0.52073452367E+02 -0.43048991513E+01  0.56177605509E+02  0.10000000000E+01 0.  0.
<mgrwt>
<rscale>  0 0.12499595E+03</rscale>
<asrwt>0</asrwt>
<pdfrwt beam="2">  1        4 0.16723405E-01 0.12499595E+03</pdfrwt>
<pdfrwt beam="1">  1       -4 0.55281580E-02 0.12499595E+03</pdfrwt>
<totfact> 0.10039323E+04</totfact>
</mgrwt>
</event>
<event>
 5    1  0.3183609E-002  0.1249991E+03  0.7818608E-02  0.1235071E+00
          4   -1    0    0  501    0  0.00000000000E+00  0.00000000000E+00  0.18534209410E+03  0.18534644519E+03  0.12700000000E+01 0. -1.
         -4   -1    0    0    0  501 -0.00000000000E+00 -0.00000000000E+00 -0.21051847585E+02  0.21090120596E+02  0.12700000000E+01 0. -1.
         25    2    1    2    0    0  0.00000000000E+00  0.00000000000E+00  0.16429024651E+03  0.20643656579E+03  0.12499908237E+03 0.  0.
    9000005    1    3    3    0    0  0.49137489354E+02 -0.60127698339E+01  0.19159187067E+02  0.53091625612E+02  0.10000000000E+01 0.  0.
    9000005    1    3    3    0    0 -0.49137489354E+02  0.60127698339E+01  0.14513105945E+03  0.15334494018E+03  0.10000000000E+01 0.  0.
<mgrwt>
<rscale>  0 0.12499908E+03</rscale>
<asrwt>0</asrwt>
<pdfrwt beam="1">  1        4 0.28517448E-01 0.12499908E+03</pdfrwt>
<pdfrwt beam="2">  1       -4 0.32420245E-02 0.12499908E+03</pdfrwt>
<totfact> 0.89062990E+03</totfact>
</mgrwt>
</event>
<event>
 5    1  0.3183609E-002  0.1249995E+03  0.7818608E-02  0.1235070E+00
          4   -1    0    0  501    0  0.00000000000E+00  0.00000000000E+00  0.26614605492E+02  0.26644889294E+02  0.12700000000E+01 0. -1.
         -4   -1    0    0    0  501 -0.00000000000E+00 -0.00000000000E+00 -0.14665321366E+03  0.14665871259E+03  0.12700000000E+01 0. -1.
         25    2    1    2    0    0  0.00000000000E+00  0.00000000000E+00 -0.12003860817E+03  0.17330360188E+03  0.12499948389E+03 0.  0.
    9000005    1    3    3    0    0  0.38445627756E+02 -0.75930682156E+01 -0.12750743946E+03  0.13339740663E+03  0.10000000000E+01 0.  0.
    9000005    1    3    3    0    0 -0.38445627756E+02  0.75930682156E+01  0.74688312887E+01  0.39906195250E+02  0.10000000000E+01 0.  0.
<mgrwt>
<rscale>  0 0.12499948E+03</rscale>
<asrwt>0</asrwt>
<pdfrwt beam="1">  1        4 0.40973073E-02 0.12499948E+03</pdfrwt>
<pdfrwt beam="2">  1       -4 0.22564785E-01 0.12499948E+03</pdfrwt>
<totfact> 0.94837552E+03</totfact>
</mgrwt>
</event>
<event>
 5    1  0.3183609E-002  0.1250005E+03  0.7818608E-02  0.1235069E+00
          4   -1    0    0  501    0  0.00000000000E+00  0.00000000000E+00  0.51943679575E+02  0.51959202725E+02  0.12700000000E+01 0.  1.
         -4   -1    0    0    0  501 -0.00000000000E+00 -0.00000000000E+00 -0.75170074561E+02  0.75180802134E+02  0.12700000000E+01 0.  1.
         25    2    1    2    0    0  0.00000000000E+00  0.00000000000E+00 -0.23226394986E+02  0.12714000486E+03  0.12500046165E+03 0.  0.
    9000005    1    3    3    0    0  0.36914923552E+02  0.48050312242E+02  0.39368694732E+01  0.60729260070E+02  0.10000000000E+01 0.  0.
    9000005    1    3    3    0    0 -0.36914923552E+02 -0.48050312242E+02 -0.27163264459E+02  0.66410744789E+02  0.10000000000E+01 0.  0.
<mgrwt>
<rscale>  0 0.12500046E+03</rscale>
<asrwt>0</asrwt>
<pdfrwt beam="1">  1        4 0.79933546E-02 0.12500046E+03</pdfrwt>
<pdfrwt beam="2">  1       -4 0.11566646E-01 0.12500046E+03</pdfrwt>
<totfact> 0.10405997E+04</totfact>
</mgrwt>
</event>
<event>
 5    1  0.3183609E-002  0.1250203E+03  0.7818608E-02  0.1235038E+00
          4   -1    0    0  501    0  0.00000000000E+00  0.00000000000E+00  0.81182962265E+02  0.81192895392E+02  0.12700000000E+01 0. -1.
         -4   -1    0    0    0  501 -0.00000000000E+00 -0.00000000000E+00 -0.48110989094E+02  0.48127748458E+02  0.12700000000E+01 0. -1.
         25    2    1    2    0    0  0.00000000000E+00  0.00000000000E+00  0.33071973171E+02  0.12932064385E+03  0.12502029242E+03 0.  0.
    9000005    1    3    3    0    0  0.52416029478E+02  0.36755157366E+01  0.51546456461E+02  0.73613767299E+02  0.10000000000E+01 0.  0.
    9000005    1    3    3    0    0 -0.52416029478E+02 -0.36755157366E+01 -0.18474483290E+02  0.55706876551E+02  0.10000000000E+01 0.  0.
<mgrwt>
<rscale>  0 0.12502029E+03</rscale>
<asrwt>0</asrwt>
<pdfrwt beam="1">  1        4 0.12491740E-01 0.12502029E+03</pdfrwt>
<pdfrwt beam="2">  1       -4 0.74037440E-02 0.12502029E+03</pdfrwt>
<totfact> 0.10354318E+04</totfact>
</mgrwt>
</event>
<event>
 5    1  0.3183609E-002  0.1250367E+03  0.7818608E-02  0.1235012E+00
         -4   -1    0    0    0  501 -0.00000000000E+00  0.00000000000E+00  0.18089371992E+03  0.18089817800E+03  0.12700000000E+01 0.  1.
          4   -1    0    0  501    0  0.00000000000E+00 -0.00000000000E+00 -0.21583473171E+02  0.21620805122E+02  0.12700000000E+01 0.  1.
         25    2    1    2    0    0  0.00000000000E+00  0.00000000000E+00  0.15931024675E+03  0.20251898313E+03  0.12503672984E+03 0.  0.
    9000005    1    3    3    0    0  0.23735808764E+02  0.15097906050E+02  0.17007034044E+03  0.17238403662E+03  0.10000000000E+01 0.  0.
    9000005    1    3    3    0    0 -0.23735808764E+02 -0.15097906050E+02 -0.10760093691E+02  0.30134946508E+02  0.10000000000E+01 0.  0.
<mgrwt>
<rscale>  0 0.12503673E+03</rscale>
<asrwt>0</asrwt>
<pdfrwt beam="2">  1        4 0.33237489E-02 0.12503673E+03</pdfrwt>
<pdfrwt beam="1">  1       -4 0.27833018E-01 0.12503673E+03</pdfrwt>
<totfact> 0.89638713E+03</totfact>
</mgrwt>
</event>
<event>
 5    1  0.3183609E-002  0.1249991E+03  0.7818608E-02  0.1235071E+00
          4   -1    0    0  501    0  0.00000000000E+00  0.00000000000E+00  0.63607344988E+01  0.64862811660E+01  0.12700000000E+01 0.  1.
         -4   -1    0    0    0  501 -0.00000000000E+00 -0.00000000000E+00 -0.60798246006E+03  0.60798378650E+03  0.12700000000E+01 0.  1.
         25    2    1    2    0    0  0.00000000000E+00  0.00000000000E+00 -0.60162172556E+03  0.61447006766E+03  0.12499905353E+03 0.  0.
    9000005    1    3    3    0    0 -0.23691563938E+02 -0.21852420220E+02 -0.56399536521E+03  0.56491644555E+03  0.10000000000E+01 0.  0.
    9000005    1    3    3    0    0  0.23691563938E+02  0.21852420220E+02 -0.37626360350E+02  0.49553622113E+02  0.10000000000E+01 0.  0.
<mgrwt>
<rscale>  0 0.12499905E+03</rscale>
<asrwt>0</asrwt>
<pdfrwt beam="1">  1        4 0.98833449E-03 0.12499905E+03</pdfrwt>
<pdfrwt beam="2">  1       -4 0.93545477E-01 0.12499905E+03</pdfrwt>
<totfact> 0.47967787E+03</totfact>
</mgrwt>
</event>
<event>
 5    1  0.3183609E-002  0.1250002E+03  0.7818608E-02  0.1235069E+00
          4   -1    0    0  501    0  0.00000000000E+00  0.00000000000E+00  0.57047879759E+02  0.57062014379E+02  0.12700000000E+01 0. -1.
         -4   -1    0    0    0  501 -0.00000000000E+00 -0.00000000000E+00 -0.68444880454E+02  0.68456661913E+02  0.12700000000E+01 0. -1.
         25    2    1    2    0    0  0.00000000000E+00  0.00000000000E+00 -0.11397000695E+02  0.12551867629E+03  0.12500018589E+03 0.  0.
    9000005    1    3    3    0    0 -0.43472194931E+01 -0.61090767543E+02 -0.18171028939E+02  0.63891834291E+02  0.10000000000E+01 0.  0.
    9000005    1    3    3    0    0  0.43472194931E+01  0.61090767543E+02  0.67740282448E+01  0.61626842001E+02  0.10000000000E+01 0.  0.
<mgrwt>
<rscale>  0 0.12500019E+03</rscale>
<asrwt>0</asrwt>
<pdfrwt beam="1">  1        4 0.87785904E-02 0.12500019E+03</pdfrwt>
<pdfrwt beam="2">  1       -4 0.10531975E-01 0.12500019E+03</pdfrwt>
<totfact> 0.10441498E+04</totfact>
</mgrwt>
</event>
<event>
 5    1  0.3183609E-002  0.1249986E+03  0.7818608E-02  0.1235071E+00
         -4   -1    0    0    0  501 -0.00000000000E+00  0.00000000000E+00  0.17240598824E+03  0.17241066580E+03  0.12700000000E+01 0. -1.
          4   -1    0    0  501    0  0.00000000000E+00 -0.00000000000E+00 -0.22633999673E+02  0.22669601699E+02  0.12700000000E+01 0. -1.
         25    2    1    2    0    0  0.00000000000E+00  0.00000000000E+00  0.14977198857E+03  0.19508026750E+03  0.12499864882E+03 0.  0.
    9000005    1    3    3    0    0  0.73203853504E+01  0.57284170455E+02  0.37622459498E+02  0.68931224311E+02  0.10000000000E+01 0.  0.
    9000005    1    3    3    0    0 -0.73203853504E+01 -0.57284170455E+02  0.11214952907E+03  0.12614904319E+03  0.10000000000E+01 0.  0.
<mgrwt>
<rscale>  0 0.12499865E+03</rscale>
<asrwt>0</asrwt>
<pdfrwt beam="2">  1        4 0.34852523E-02 0.12499865E+03</pdfrwt>
<pdfrwt beam="1">  1       -4 0.26527096E-01 0.12499865E+03</pdfrwt>
<totfact> 0.90973554E+03</totfact>
</mgrwt>
</event>
<event>
 5    1  0.3183609E-002  0.1250022E+03  0.7818608E-02  0.1235066E+00
          4   -1    0    0  501    0  0.00000000000E+00  0.00000000000E+00  0.85438012573E+02  0.85447451059E+02  0.12700000000E+01 0.  1.
         -4   -1    0    0    0  501 -0.00000000000E+00 -0.00000000000E+00 -0.45701138384E+02  0.45718781147E+02  0.12700000000E+01 0.  1.
         25    2    1    2    0    0  0.00000000000E+00  0.00000000000E+00  0.39736874189E+02  0.13116623221E+03  0.12500224518E+03 0.  0.
    9000005    1    3    3    0    0  0.59292866168E+02 -0.17003314868E+02  0.30394738469E+02  0.68772064252E+02  0.10000000000E+01 0.  0.
    9000005    1    3    3    0    0 -0.59292866168E+02  0.17003314868E+02  0.93421357198E+01  0.62394167954E+02  0.10000000000E+01 0.  0.
<mgrwt>
<rscale>  0 0.12500225E+03</rscale>
<asrwt>0</asrwt>
<pdfrwt beam="1">  1        4 0.13146393E-01 0.12500225E+03</pdfrwt>
<pdfrwt beam="2">  1       -4 0.70330276E-02 0.12500225E+03</pdfrwt>
<totfact> 0.10319004E+04</totfact>
</mgrwt>
</event>
<event>
 5    1  0.3183609E-002  0.1250059E+03  0.7818608E-02  0.1235060E+00
         -4   -1    0    0    0  501 -0.00000000000E+00  0.00000000000E+00  0.81142554491E+02  0.81152492563E+02  0.12700000000E+01 0.  1.
          4   -1    0    0  501    0  0.00000000000E+00 -0.00000000000E+00 -0.48123833608E+02  0.48140588500E+02  0.12700000000E+01 0.  1.
         25    2    1    2    0    0  0.00000000000E+00  0.00000000000E+00  0.33018720883E+02  0.12929308106E+03  0.12500585939E+03 0.  0.
    9000005    1    3    3    0    0  0.54961822544E+02 -0.12386309471E+02 -0.11462444997E+02  0.57503132479E+02  0.10000000000E+01 0.  0.
    9000005    1    3    3    0    0 -0.54961822544E+02  0.12386309471E+02  0.44481165880E+02  0.71789948584E+02  0.10000000000E+01 0.  0.
<mgrwt>
<rscale>  0 0.12500586E+03</rscale>
<asrwt>0</asrwt>
<pdfrwt beam="2">  1        4 0.74057200E-02 0.12500586E+03</pdfrwt>
<pdfrwt beam="1">  1       -4 0.12485523E-01 0.12500586E+03</pdfrwt>
<totfact> 0.10358283E+04</totfact>
</mgrwt>
</event>
<event>
 5    1  0.3183609E-002  0.1249873E+03  0.7818608E-02  0.1235089E+00
          4   -1    0    0  501    0  0.00000000000E+00  0.00000000000E+00  0.24361698757E+02  0.24394779489E+02  0.12700000000E+01 0.  1.
         -4   -1    0    0    0  501 -0.00000000000E+00 -0.00000000000E+00 -0.16016690045E+03  0.16017193543E+03  0.12700000000E+01 0.  1.
         25    2    1    2    0    0  0.00000000000E+00  0.00000000000E+00 -0.13580520169E+03  0.18456671492E+03  0.12498727715E+03 0.  0.
    9000005    1    3    3    0    0  0.54910185701E+02 -0.29816791786E+02 -0.67113857741E+02  0.91702995954E+02  0.10000000000E+01 0.  0.
    9000005    1    3    3    0    0 -0.54910185701E+02  0.29816791786E+02 -0.68691343951E+02  0.92863718964E+02  0.10000000000E+01 0.  0.
<mgrwt>
<rscale>  0 0.12498728E+03</rscale>
<asrwt>0</asrwt>
<pdfrwt beam="1">  1        4 0.37508857E-02 0.12498728E+03</pdfrwt>
<pdfrwt beam="2">  1       -4 0.24643993E-01 0.12498728E+03</pdfrwt>
<totfact> 0.92827845E+03</totfact>
</mgrwt>
</event>
<event>
 5    1  0.3183609E-002  0.1250007E+03  0.7818608E-02  0.1235068E+00
          4   -1    0    0  501    0  0.00000000000E+00  0.00000000000E+00  0.25429801057E+02  0.25461494100E+02  0.12700000000E+01 0. -1.
         -4   -1    0    0    0  501 -0.00000000000E+00 -0.00000000000E+00 -0.15348099882E+03  0.15348625313E+03  0.12700000000E+01 0. -1.
         25    2    1    2    0    0  0.00000000000E+00  0.00000000000E+00 -0.12805119777E+03  0.17894774723E+03  0.12500074795E+03 0.  0.
    9000005    1    3    3    0    0 -0.54589618869E+02  0.97929625745E+01 -0.10525312720E+03  0.11897541506E+03  0.10000000000E+01 0.  0.
    9000005    1    3    3    0    0  0.54589618869E+02 -0.97929625745E+01 -0.22798070572E+02  0.59972332171E+02  0.10000000000E+01 0.  0.
<mgrwt>
<rscale>  0 0.12500075E+03</rscale>
<asrwt>0</asrwt>
<pdfrwt beam="1">  1        4 0.39151193E-02 0.12500075E+03</pdfrwt>
<pdfrwt beam="2">  1       -4 0.23615303E-01 0.12500075E+03</pdfrwt>
<totfact> 0.93805183E+03</totfact>
</mgrwt>
</event>
<event>
 4    1  0.3183609E-002  0.1250859E+03  0.7818608E-02  0.1234935E+00
         -4   -1    0    0    0  501 -0.00000000000E+00  0.00000000000E+00  0.20603021072E+02  0.20642126278E+02  0.12700000000E+01 0.  1.
          4   -1    0    0  501    0  0.00000000000E+00 -0.00000000000E+00 -0.18963542571E+03  0.18963967830E+03  0.12700000000E+01 0.  1.
    9000005    1    1    2    0    0  0.41005424526E+02 -0.44043823205E+02 -0.11311059033E+03  0.12812614428E+03  0.10000000000E+01 0.  0.
    9000005    1    1    2    0    0 -0.41005424526E+02  0.44043823205E+02 -0.55921814310E+02  0.82155660297E+02  0.10000000000E+01 0.  0.
<mgrwt>
<rscale>  0 0.12508590E+03</rscale>
<asrwt>0</asrwt>
<pdfrwt beam="2">  1        4 0.29178015E-01 0.12508590E+03</pdfrwt>
<pdfrwt beam="1">  1       -4 0.31730309E-02 0.12508590E+03</pdfrwt>
<totfact> 0.88260266E+03</totfact>
</mgrwt>
</event>
<event>
 5    1  0.3183609E-002  0.1249999E+03  0.7818608E-02  0.1235069E+00
         -4   -1    0    0    0  501 -0.00000000000E+00  0.00000000000E+00  0.34794107559E+02  0.34817277620E+02  0.12700000000E+01 0.  1.
          4   -1    0    0  501    0  0.00000000000E+00 -0.00000000000E+00 -0.11220330326E+03  0.11221049043E+03  0.12700000000E+01 0.  1.
         25    2    1    2    0    0  0.00000000000E+00  0.00000000000E+00 -0.77409195701E+02  0.14702776805E+03  0.12499992399E+03 0.  0.
    9000005    1    3    3    0    0 -0.42620918929E+02 -0.38342166919E+02 -0.94504253589E+01  0.58111746092E+02  0.10000000000E+01 0.  0.
    9000005    1    3    3    0    0  0.42620918929E+02  0.38342166919E+02 -0.67958770342E+02  0.88916021958E+02  0.10000000000E+01 0.  0.
<mgrwt>
<rscale>  0 0.12499992E+03</rscale>
<asrwt>0</asrwt>
<pdfrwt beam="2">  1        4 0.17264382E-01 0.12499992E+03</pdfrwt>
<pdfrwt beam="1">  1       -4 0.53552748E-02 0.12499992E+03</pdfrwt>
<totfact> 0.99899673E+03</totfact>
</mgrwt>
</event>
<event>
 5    1  0.3183609E-002  0.1250065E+03  0.7818608E-02  0.1235059E+00
          4   -1    0    0  501    0  0.00000000000E+00  0.00000000000E+00  0.17859312670E+03  0.17859764221E+03  0.12700000000E+01 0.  1.
         -4   -1    0    0    0  501 -0.00000000000E+00 -0.00000000000E+00 -0.21851379936E+02  0.21888254958E+02  0.12700000000E+01 0.  1.
         25    2    1    2    0    0  0.00000000000E+00  0.00000000000E+00  0.15674174676E+03  0.20048589717E+03  0.12500647898E+03 0.  0.
    9000005    1    3    3    0    0 -0.35131862241E+02  0.19861304991E+02  0.15489998910E+03  0.16007412597E+03  0.10000000000E+01 0.  0.
    9000005    1    3    3    0    0  0.35131862241E+02 -0.19861304991E+02  0.18417576600E+01  0.40411771202E+02  0.10000000000E+01 0.  0.
<mgrwt>
<rscale>  0 0.12500648E+03</rscale>
<asrwt>0</asrwt>
<pdfrwt beam="1">  1        4 0.27479049E-01 0.12500648E+03</pdfrwt>
<pdfrwt beam="2">  1       -4 0.33649347E-02 0.12500648E+03</pdfrwt>
<totfact> 0.90040566E+03</totfact>
</mgrwt>
</event>
<event>
 5    1  0.3183609E-002  0.1249922E+03  0.7818608E-02  0.1235081E+00
          4   -1    0    0  501    0  0.00000000000E+00  0.00000000000E+00  0.37458061060E+02  0.37479584287E+02  0.12700000000E+01 0.  1.
         -4   -1    0    0    0  501 -0.00000000000E+00 -0.00000000000E+00 -0.10421500525E+03  0.10422274329E+03  0.12700000000E+01 0.  1.
         25    2    1    2    0    0  0.00000000000E+00  0.00000000000E+00 -0.66756944191E+02  0.14170232758E+03  0.12499223993E+03 0.  0.
    9000005    1    3    3    0    0  0.37397696357E+02  0.24170755323E+02 -0.83079479411E+02  0.94265651246E+02  0.10000000000E+01 0.  0.
    9000005    1    3    3    0    0 -0.37397696357E+02 -0.24170755323E+02  0.16322535219E+02  0.47436676334E+02  0.10000000000E+01 0.  0.
<mgrwt>
<rscale>  0 0.12499224E+03</rscale>
<asrwt>0</asrwt>
<pdfrwt beam="1">  1        4 0.57650295E-02 0.12499224E+03</pdfrwt>
<pdfrwt beam="2">  1       -4 0.16035328E-01 0.12499224E+03</pdfrwt>
<totfact> 0.10100191E+04</totfact>
</mgrwt>
</event>
<event>
 5    1  0.3183609E-002  0.1249975E+03  0.7818608E-02  0.1235073E+00
          4   -1    0    0  501    0  0.00000000000E+00  0.00000000000E+00  0.65257976905E+02  0.65270333612E+02  0.12700000000E+01 0. -1.
         -4   -1    0    0    0  501 -0.00000000000E+00 -0.00000000000E+00 -0.59831440647E+02  0.59844917829E+02  0.12700000000E+01 0. -1.
         25    2    1    2    0    0  0.00000000000E+00  0.00000000000E+00  0.54265362584E+01  0.12511525144E+03  0.12499751536E+03 0.  0.
    9000005    1    3    3    0    0 -0.21488504478E+02  0.58671490874E+02  0.17148087740E+01  0.62514320241E+02  0.10000000000E+01 0.  0.
    9000005    1    3    3    0    0  0.21488504478E+02 -0.58671490874E+02  0.37117274844E+01  0.62600931199E+02  0.10000000000E+01 0.  0.
<mgrwt>
<rscale>  0 0.12499752E+03</rscale>
<asrwt>0</asrwt>
<pdfrwt beam="1">  1        4 0.10041676E-01 0.12499752E+03</pdfrwt>
<pdfrwt beam="2">  1       -4 0.92068243E-02 0.12499752E+03</pdfrwt>
<totfact> 0.10450947E+04</totfact>
</mgrwt>
</event>
<event>
 5    1  0.3183609E-002  0.1250048E+03  0.7818608E-02  0.1235062E+00
         -4   -1    0    0    0  501 -0.00000000000E+00  0.00000000000E+00  0.14490198125E+02  0.14545746516E+02  0.12700000000E+01 0.  1.
          4   -1    0    0  501    0  0.00000000000E+00 -0.00000000000E+00 -0.26902646588E+03  0.26902946352E+03  0.12700000000E+01 0.  1.
         25    2    1    2    0    0  0.00000000000E+00  0.00000000000E+00 -0.25453626775E+03  0.28357521004E+03  0.12500475249E+03 0.  0.
    9000005    1    3    3    0    0 -0.13700098217E+02 -0.11138362324E+02  0.87253689406E+01  0.19720240099E+02  0.10000000000E+01 0.  0.
    9000005    1    3    3    0    0  0.13700098217E+02  0.11138362324E+02 -0.26326163669E+03  0.26385496994E+03  0.10000000000E+01 0.  0.
<mgrwt>
<rscale>  0 0.12500475E+03</rscale>
<asrwt>0</asrwt>
<pdfrwt beam="2">  1        4 0.41393187E-01 0.12500475E+03</pdfrwt>
<pdfrwt beam="1">  1       -4 0.22337650E-02 0.12500475E+03</pdfrwt>
<totfact> 0.77698230E+03</totfact>
</mgrwt>
</event>
<event>
 5    1  0.3183609E-002  0.1250003E+03  0.7818608E-02  0.1235069E+00
         -4   -1    0    0    0  501 -0.00000000000E+00  0.00000000000E+00  0.55158590191E+03  0.55158736396E+03  0.12700000000E+01 0. -1.
          4   -1    0    0  501    0  0.00000000000E+00 -0.00000000000E+00 -0.70234611307E+01  0.71373598939E+01  0.12700000000E+01 0. -1.
         25    2    1    2    0    0  0.00000000000E+00  0.00000000000E+00  0.54456244078E+03  0.55872472386E+03  0.12500026057E+03 0.  0.
    9000005    1    3    3    0    0  0.38139915911E+02 -0.27558413036E+01  0.51353432716E+02  0.64034544573E+02  0.10000000000E+01 0.  0.
    9000005    1    3    3    0    0 -0.38139915911E+02  0.27558413036E+01  0.49320900806E+03  0.49469017928E+03  0.10000000000E+01 0.  0.
<mgrwt>
<rscale>  0 0.12500026E+03</rscale>
<asrwt>0</asrwt>
<pdfrwt beam="2">  1        4 0.10894063E-02 0.12500026E+03</pdfrwt>
<pdfrwt beam="1">  1       -4 0.84868247E-01 0.12500026E+03</pdfrwt>
<totfact> 0.51580876E+03</totfact>
</mgrwt>
</event>
<event>
 5    1  0.3183609E-002  0.1250011E+03  0.7818608E-02  0.1235068E+00
         -4   -1    0    0    0  501 -0.00000000000E+00  0.00000000000E+00  0.21962241134E+03  0.21962608329E+03  0.12700000000E+01 0.  1.
          4   -1    0    0  501    0  0.00000000000E+00 -0.00000000000E+00 -0.17760016353E+02  0.17805366631E+02  0.12700000000E+01 0.  1.
         25    2    1    2    0    0  0.00000000000E+00  0.00000000000E+00  0.20186239498E+03  0.23743144992E+03  0.12500106761E+03 0.  0.
    9000005    1    3    3    0    0  0.53388847124E+02 -0.26651393757E+02  0.65668603594E+02  0.88735738485E+02  0.10000000000E+01 0.  0.
    9000005    1    3    3    0    0 -0.53388847124E+02  0.26651393757E+02  0.13619379139E+03  0.14869571144E+03  0.10000000000E+01 0.  0.
<mgrwt>
<rscale>  0 0.12500107E+03</rscale>
<asrwt>0</asrwt>
<pdfrwt beam="2">  1        4 0.27360811E-02 0.12500107E+03</pdfrwt>
<pdfrwt beam="1">  1       -4 0.33791835E-01 0.12500107E+03</pdfrwt>
<totfact> 0.84179395E+03</totfact>
</mgrwt>
</event>
<event>
 5    1  0.3183609E-002  0.1249981E+03  0.7818608E-02  0.1235072E+00
          4   -1    0    0  501    0  0.00000000000E+00  0.00000000000E+00  0.51925001419E+03  0.51925156729E+03  0.12700000000E+01 0.  1.
         -4   -1    0    0    0  501 -0.00000000000E+00 -0.00000000000E+00 -0.74674607992E+01  0.75746861841E+01  0.12700000000E+01 0.  1.
         25    2    1    2    0    0  0.00000000000E+00  0.00000000000E+00  0.51178255339E+03  0.52682625348E+03  0.12499807758E+03 0.  0.
    9000005    1    3    3    0    0  0.11178283650E+02  0.47819763682E+02  0.41876793149E+03  0.42163878411E+03  0.10000000000E+01 0.  0.
    9000005    1    3    3    0    0 -0.11178283650E+02 -0.47819763682E+02  0.93014621905E+02  0.10518746937E+03  0.10000000000E+01 0.  0.
<mgrwt>
<rscale>  0 0.12499808E+03</rscale>
<asrwt>0</asrwt>
<pdfrwt beam="1">  1        4 0.79892992E-01 0.12499808E+03</pdfrwt>
<pdfrwt beam="2">  1       -4 0.11572076E-02 0.12499808E+03</pdfrwt>
<totfact> 0.53843710E+03</totfact>
</mgrwt>
</event>
<event>
 5    1  0.3183609E-002  0.1249983E+03  0.7818608E-02  0.1235072E+00
         -4   -1    0    0    0  501 -0.00000000000E+00  0.00000000000E+00  0.40723545562E+03  0.40723743592E+03  0.12700000000E+01 0. -1.
          4   -1    0    0  501    0  0.00000000000E+00 -0.00000000000E+00 -0.95478009679E+01  0.96318951055E+01  0.12700000000E+01 0. -1.
         25    2    1    2    0    0  0.00000000000E+00  0.00000000000E+00  0.39768765465E+03  0.41686933103E+03  0.12499827393E+03 0.  0.
    9000005    1    3    3    0    0  0.11041450190E+02  0.42799114624E+02  0.34616875388E+03  0.34898063556E+03  0.10000000000E+01 0.  0.
    9000005    1    3    3    0    0 -0.11041450190E+02 -0.42799114624E+02  0.51518900777E+02  0.67888695467E+02  0.10000000000E+01 0.  0.
<mgrwt>
<rscale>  0 0.12499827E+03</rscale>
<asrwt>0</asrwt>
<pdfrwt beam="2">  1        4 0.14755137E-02 0.12499827E+03</pdfrwt>
<pdfrwt beam="1">  1       -4 0.62658225E-01 0.12499827E+03</pdfrwt>
<totfact> 0.62946911E+03</totfact>
</mgrwt>
</event>
<event>
 5    1  0.3183609E-002  0.1250000E+03  0.7818608E-02  0.1235069E+00
         -4   -1    0    0    0  501 -0.00000000000E+00  0.00000000000E+00  0.12803282584E+03  0.12803912446E+03  0.12700000000E+01 0. -1.
          4   -1    0    0  501    0  0.00000000000E+00 -0.00000000000E+00 -0.30489476432E+02  0.30515915079E+02  0.12700000000E+01 0. -1.
         25    2    1    2    0    0  0.00000000000E+00  0.00000000000E+00  0.97543349407E+02  0.15855503954E+03  0.12499998220E+03 0.  0.
    9000005    1    3    3    0    0 -0.43574075495E+02 -0.16453283317E+02  0.10161920938E+03  0.11178941946E+03  0.10000000000E+01 0.  0.
    9000005    1    3    3    0    0  0.43574075495E+02  0.16453283317E+02 -0.40758599739E+01  0.46765620082E+02  0.10000000000E+01 0.  0.
<mgrwt>
<rscale>  0 0.12499998E+03</rscale>
<asrwt>0</asrwt>
<pdfrwt beam="2">  1        4 0.46932070E-02 0.12499998E+03</pdfrwt>
<pdfrwt beam="1">  1       -4 0.19699876E-01 0.12499998E+03</pdfrwt>
<totfact> 0.97622126E+03</totfact>
</mgrwt>
</event>
<event>
 5    1  0.3183609E-002  0.1250005E+03  0.7818608E-02  0.1235068E+00
          4   -1    0    0  501    0  0.00000000000E+00  0.00000000000E+00  0.17314945117E+03  0.17315410864E+03  0.12700000000E+01 0.  1.
         -4   -1    0    0    0  501 -0.00000000000E+00 -0.00000000000E+00 -0.22537347238E+02  0.22573101704E+02  0.12700000000E+01 0.  1.
         25    2    1    2    0    0  0.00000000000E+00  0.00000000000E+00  0.15061210393E+03  0.19572721035E+03  0.12500054008E+03 0.  0.
    9000005    1    3    3    0    0  0.41360404972E+02  0.25833360986E+02  0.13649777666E+03  0.14495064219E+03  0.10000000000E+01 0.  0.
    9000005    1    3    3    0    0 -0.41360404972E+02 -0.25833360986E+02  0.14114327274E+02  0.50776568156E+02  0.10000000000E+01 0.  0.
<mgrwt>
<rscale>  0 0.12500054E+03</rscale>
<asrwt>0</asrwt>
<pdfrwt beam="1">  1        4 0.26641487E-01 0.12500054E+03</pdfrwt>
<pdfrwt beam="2">  1       -4 0.34703927E-02 0.12500054E+03</pdfrwt>
<totfact> 0.90859138E+03</totfact>
</mgrwt>
</event>
<event>
 5    1  0.3183609E-002  0.1249996E+03  0.7818608E-02  0.1235070E+00
          4   -1    0    0  501    0  0.00000000000E+00  0.00000000000E+00  0.33055414318E+03  0.33055658286E+03  0.12700000000E+01 0.  1.
         -4   -1    0    0    0  501 -0.00000000000E+00 -0.00000000000E+00 -0.11780594969E+02  0.11848853017E+02  0.12700000000E+01 0.  1.
         25    2    1    2    0    0  0.00000000000E+00  0.00000000000E+00  0.31877354821E+03  0.34240543588E+03  0.12499962992E+03 0.  0.
    9000005    1    3    3    0    0 -0.14633490354E+02 -0.13727017830E+02  0.32150457996E+03  0.32213159577E+03  0.10000000000E+01 0.  0.
    9000005    1    3    3    0    0  0.14633490354E+02  0.13727017830E+02 -0.27310317462E+01  0.20273840111E+02  0.10000000000E+01 0.  0.
<mgrwt>
<rscale>  0 0.12499963E+03</rscale>
<asrwt>0</asrwt>
<pdfrwt beam="1">  1        4 0.50859921E-01 0.12499963E+03</pdfrwt>
<pdfrwt beam="2">  1       -4 0.18178375E-02 0.12499963E+03</pdfrwt>
<totfact> 0.70568788E+03</totfact>
</mgrwt>
</event>
<event>
 5    1  0.3183609E-002  0.1250010E+03  0.7818608E-02  0.1235068E+00
         -4   -1    0    0    0  501 -0.00000000000E+00  0.00000000000E+00  0.72788267988E+01  0.73887901288E+01  0.12700000000E+01 0.  1.
          4   -1    0    0  501    0  0.00000000000E+00 -0.00000000000E+00 -0.53253391551E+03  0.53253542987E+03  0.12700000000E+01 0.  1.
         25    2    1    2    0    0  0.00000000000E+00  0.00000000000E+00 -0.52525508871E+03  0.53992422000E+03  0.12500102050E+03 0.  0.
    9000005    1    3    3    0    0 -0.22690313356E+02 -0.28646002991E+02 -0.48159260716E+03  0.48297813934E+03  0.10000000000E+01 0.  0.
    9000005    1    3    3    0    0  0.22690313356E+02  0.28646002991E+02 -0.43662481551E+02  0.56946080662E+02  0.10000000000E+01 0.  0.
<mgrwt>
<rscale>  0 0.12500102E+03</rscale>
<asrwt>0</asrwt>
<pdfrwt beam="2">  1        4 0.81936840E-01 0.12500102E+03</pdfrwt>
<pdfrwt beam="1">  1       -4 0.11283951E-02 0.12500102E+03</pdfrwt>
<totfact> 0.52893380E+03</totfact>
</mgrwt>
</event>
<event>
 5    1  0.3183609E-002  0.1250010E+03  0.7818608E-02  0.1235068E+00
         -4   -1    0    0    0  501 -0.00000000000E+00  0.00000000000E+00  0.36294295945E+03  0.36294518142E+03  0.12700000000E+01 0. -1.
          4   -1    0    0  501    0  0.00000000000E+00 -0.00000000000E+00 -0.10723154746E+02  0.10798099263E+02  0.12700000000E+01 0. -1.
         25    2    1    2    0    0  0.00000000000E+00  0.00000000000E+00  0.35221980471E+03  0.37374328068E+03  0.12500099611E+03 0.  0.
    9000005    1    3    3    0    0  0.24698762550E+02  0.56686401831E+02  0.20317410684E+03  0.21237724623E+03  0.10000000000E+01 0.  0.
    9000005    1    3    3    0    0 -0.24698762550E+02 -0.56686401831E+02  0.14904569786E+03  0.16136603445E+03  0.10000000000E+01 0.  0.
<mgrwt>
<rscale>  0 0.12500100E+03</rscale>
<asrwt>0</asrwt>
<pdfrwt beam="2">  1        4 0.16556522E-02 0.12500100E+03</pdfrwt>
<pdfrwt beam="1">  1       -4 0.55843308E-01 0.12500100E+03</pdfrwt>
<totfact> 0.67187653E+03</totfact>
</mgrwt>
</event>
<event>
 5    1  0.3183609E-002  0.1250009E+03  0.7818608E-02  0.1235068E+00
          4   -1    0    0  501    0  0.00000000000E+00  0.00000000000E+00  0.12177892060E+04  0.12177898682E+04  0.12700000000E+01 0. -1.
         -4   -1    0    0    0  501 -0.00000000000E+00 -0.00000000000E+00 -0.30813112384E+01  0.33327734618E+01  0.12700000000E+01 0. -1.
         25    2    1    2    0    0  0.00000000000E+00  0.00000000000E+00  0.12147078947E+04  0.12211226417E+04  0.12500094577E+03 0.  0.
    9000005    1    3    3    0    0  0.56619603763E+01  0.54179450245E+02  0.90651841518E+03  0.90815423122E+03  0.10000000000E+01 0.  0.
    9000005    1    3    3    0    0 -0.56619603763E+01 -0.54179450245E+02  0.30818947956E+03  0.31296841044E+03  0.10000000000E+01 0.  0.
<mgrwt>
<rscale>  0 0.12500095E+03</rscale>
<asrwt>0</asrwt>
<pdfrwt beam="1">  1        4 0.18737158E+00 0.12500095E+03</pdfrwt>
<pdfrwt beam="2">  1       -4 0.49344207E-03 0.12500095E+03</pdfrwt>
<totfact> 0.24165972E+03</totfact>
</mgrwt>
</event>
<event>
 5    1  0.3183609E-002  0.1250006E+03  0.7818608E-02  0.1235068E+00
         -4   -1    0    0    0  501 -0.00000000000E+00  0.00000000000E+00  0.11203790808E+03  0.11204510586E+03  0.12700000000E+01 0. -1.
          4   -1    0    0  501    0  0.00000000000E+00 -0.00000000000E+00 -0.34845857695E+02  0.34868993368E+02  0.12700000000E+01 0. -1.
         25    2    1    2    0    0  0.00000000000E+00  0.00000000000E+00  0.77192050382E+02  0.14691409922E+03  0.12500055963E+03 0.  0.
    9000005    1    3    3    0    0  0.17482273302E+02  0.58690478182E+02  0.53232396933E+02  0.81147336323E+02  0.10000000000E+01 0.  0.
    9000005    1    3    3    0    0 -0.17482273302E+02 -0.58690478182E+02  0.23959653449E+02  0.65766762901E+02  0.10000000000E+01 0.  0.
<mgrwt>
<rscale>  0 0.12500056E+03</rscale>
<asrwt>0</asrwt>
<pdfrwt beam="2">  1        4 0.53632345E-02 0.12500056E+03</pdfrwt>
<pdfrwt beam="1">  1       -4 0.17238935E-01 0.12500056E+03</pdfrwt>
<totfact> 0.99921163E+03</totfact>
</mgrwt>
</event>
<event>
 5    1  0.3183609E-002  0.1249958E+03  0.7818608E-02  0.1235076E+00
          4   -1    0    0  501    0  0.00000000000E+00  0.00000000000E+00  0.58714341171E+02  0.58728074710E+02  0.12700000000E+01 0.  1.
         -4   -1    0    0    0  501 -0.00000000000E+00 -0.00000000000E+00 -0.66497710224E+02  0.66509836603E+02  0.12700000000E+01 0.  1.
         25    2    1    2    0    0  0.00000000000E+00  0.00000000000E+00 -0.77833690530E+01  0.12523791131E+03  0.12499581431E+03 0.  0.
    9000005    1    3    3    0    0  0.51316845036E+02  0.23729829143E+02  0.22776874660E+02  0.60961540293E+02  0.10000000000E+01 0.  0.
    9000005    1    3    3    0    0 -0.51316845036E+02 -0.23729829143E+02 -0.30560243713E+02  0.64276371020E+02  0.10000000000E+01 0.  0.
<mgrwt>
<rscale>  0 0.12499581E+03</rscale>
<asrwt>0</asrwt>
<pdfrwt beam="1">  1        4 0.90349648E-02 0.12499581E+03</pdfrwt>
<pdfrwt beam="2">  1       -4 0.10232406E-01 0.12499581E+03</pdfrwt>
<totfact> 0.10448686E+04</totfact>
</mgrwt>
</event>
<event>
 5    1  0.3183609E-002  0.1249999E+03  0.7818608E-02  0.1235069E+00
         -4   -1    0    0    0  501 -0.00000000000E+00  0.00000000000E+00  0.15641041261E+03  0.15641556851E+03  0.12700000000E+01 0. -1.
          4   -1    0    0  501    0  0.00000000000E+00 -0.00000000000E+00 -0.24952611977E+02  0.24984910335E+02  0.12700000000E+01 0. -1.
         25    2    1    2    0    0  0.00000000000E+00  0.00000000000E+00  0.13145780063E+03  0.18140047884E+03  0.12499992151E+03 0.  0.
    9000005    1    3    3    0    0 -0.23607448451E+02 -0.57694725237E+02  0.72096391163E+02  0.95314650298E+02  0.10000000000E+01 0.  0.
    9000005    1    3    3    0    0  0.23607448451E+02  0.57694725237E+02  0.59361409465E+02  0.86085828545E+02  0.10000000000E+01 0.  0.
<mgrwt>
<rscale>  0 0.12499992E+03</rscale>
<asrwt>0</asrwt>
<pdfrwt beam="2">  1        4 0.38417445E-02 0.12499992E+03</pdfrwt>
<pdfrwt beam="1">  1       -4 0.24066022E-01 0.12499992E+03</pdfrwt>
<totfact> 0.93365682E+03</totfact>
</mgrwt>
</event>
<event>
 5    1  0.3183609E-002  0.1249996E+03  0.7818608E-02  0.1235070E+00
          4   -1    0    0  501    0  0.00000000000E+00  0.00000000000E+00  0.24483310414E+02  0.24516227051E+02  0.12700000000E+01 0. -1.
         -4   -1    0    0    0  501 -0.00000000000E+00 -0.00000000000E+00 -0.15940391781E+03  0.15940897689E+03  0.12700000000E+01 0. -1.
         25    2    1    2    0    0  0.00000000000E+00  0.00000000000E+00 -0.13492060739E+03  0.18392520394E+03  0.12499964138E+03 0.  0.
    9000005    1    3    3    0    0  0.10587710255E+02 -0.20060589694E+02  0.18219252528E+02  0.29111304162E+02  0.10000000000E+01 0.  0.
    9000005    1    3    3    0    0 -0.10587710255E+02  0.20060589694E+02 -0.15313985992E+03  0.15481389978E+03  0.10000000000E+01 0.  0.
<mgrwt>
<rscale>  0 0.12499964E+03</rscale>
<asrwt>0</asrwt>
<pdfrwt beam="1">  1        4 0.37695845E-02 0.12499964E+03</pdfrwt>
<pdfrwt beam="2">  1       -4 0.24526600E-01 0.12499964E+03</pdfrwt>
<totfact> 0.92915935E+03</totfact>
</mgrwt>
</event>
<event>
 5    1  0.3183609E-002  0.1249991E+03  0.7818608E-02  0.1235071E+00
         -4   -1    0    0    0  501 -0.00000000000E+00  0.00000000000E+00  0.20087868744E+03  0.20088270201E+03  0.12700000000E+01 0. -1.
          4   -1    0    0  501    0  0.00000000000E+00 -0.00000000000E+00 -0.19420572913E+02  0.19462054164E+02  0.12700000000E+01 0. -1.
         25    2    1    2    0    0  0.00000000000E+00  0.00000000000E+00  0.18145811452E+03  0.22034475617E+03  0.12499905698E+03 0.  0.
    9000005    1    3    3    0    0  0.28621759065E+02  0.47457857351E+02  0.14162822892E+03  0.15208881794E+03  0.10000000000E+01 0.  0.
    9000005    1    3    3    0    0 -0.28621759065E+02 -0.47457857351E+02  0.39829885603E+02  0.68255938228E+02  0.10000000000E+01 0.  0.
<mgrwt>
<rscale>  0 0.12499906E+03</rscale>
<asrwt>0</asrwt>
<pdfrwt beam="2">  1        4 0.29912801E-02 0.12499906E+03</pdfrwt>
<pdfrwt beam="1">  1       -4 0.30907913E-01 0.12499906E+03</pdfrwt>
<totfact> 0.86815654E+03</totfact>
</mgrwt>
</event>
<event>
 5    1  0.3183609E-002  0.1249986E+03  0.7818608E-02  0.1235071E+00
          4   -1    0    0  501    0  0.00000000000E+00  0.00000000000E+00  0.61522410425E+02  0.61535517260E+02  0.12700000000E+01 0.  1.
         -4   -1    0    0    0  501 -0.00000000000E+00 -0.00000000000E+00 -0.63465464388E+02  0.63478170027E+02  0.12700000000E+01 0.  1.
         25    2    1    2    0    0  0.00000000000E+00  0.00000000000E+00 -0.19430539633E+01  0.12501368729E+03  0.12499858619E+03 0.  0.
    9000005    1    3    3    0    0  0.28189722342E+02 -0.25697839429E+02 -0.50476216410E+02  0.63276281655E+02  0.10000000000E+01 0.  0.
    9000005    1    3    3    0    0 -0.28189722342E+02  0.25697839429E+02  0.48533162447E+02  0.61737405632E+02  0.10000000000E+01 0.  0.
<mgrwt>
<rscale>  0 0.12499859E+03</rscale>
<asrwt>0</asrwt>
<pdfrwt beam="1">  1        4 0.94669718E-02 0.12499859E+03</pdfrwt>
<pdfrwt beam="2">  1       -4 0.97659032E-02 0.12499859E+03</pdfrwt>
<totfact> 0.10452899E+04</totfact>
</mgrwt>
</event>
<event>
 5    1  0.3183609E-002  0.1249969E+03  0.7818608E-02  0.1235074E+00
          4   -1    0    0  501    0  0.00000000000E+00  0.00000000000E+00  0.59535150083E+01  0.60874658893E+01  0.12700000000E+01 0.  1.
         -4   -1    0    0    0  501 -0.00000000000E+00 -0.00000000000E+00 -0.64865883568E+03  0.64866007894E+03  0.12700000000E+01 0.  1.
         25    2    1    2    0    0  0.00000000000E+00  0.00000000000E+00 -0.64270532067E+03  0.65474754483E+03  0.12499687290E+03 0.  0.
    9000005    1    3    3    0    0  0.47449736639E+02 -0.34261277610E+02 -0.43608307402E+03  0.43999404552E+03  0.10000000000E+01 0.  0.
    9000005    1    3    3    0    0 -0.47449736639E+02  0.34261277610E+02 -0.20662224665E+03  0.21475349930E+03  0.10000000000E+01 0.  0.
<mgrwt>
<rscale>  0 0.12499687E+03</rscale>
<asrwt>0</asrwt>
<pdfrwt beam="1">  1        4 0.92632545E-03 0.12499687E+03</pdfrwt>
<pdfrwt beam="2">  1       -4 0.99804011E-01 0.12499687E+03</pdfrwt>
<totfact> 0.45587527E+03</totfact>
</mgrwt>
</event>
<event>
 5    1  0.3183609E-002  0.1250025E+03  0.7818608E-02  0.1235065E+00
          4   -1    0    0  501    0  0.00000000000E+00  0.00000000000E+00  0.81920423549E+02  0.81930267267E+02  0.12700000000E+01 0.  1.
         -4   -1    0    0    0  501 -0.00000000000E+00 -0.00000000000E+00 -0.47664184265E+02  0.47681100675E+02  0.12700000000E+01 0.  1.
         25    2    1    2    0    0  0.00000000000E+00  0.00000000000E+00  0.34256239284E+02  0.12961136794E+03  0.12500246706E+03 0.  0.
    9000005    1    3    3    0    0  0.53196725526E+02  0.22445642742E+02 -0.76638353008E+01  0.58253178938E+02  0.10000000000E+01 0.  0.
    9000005    1    3    3    0    0 -0.53196725526E+02 -0.22445642742E+02  0.41920074585E+02  0.71358189005E+02  0.10000000000E+01 0.  0.
<mgrwt>
<rscale>  0 0.12500247E+03</rscale>
<asrwt>0</asrwt>
<pdfrwt beam="1">  1        4 0.12605200E-01 0.12500247E+03</pdfrwt>
<pdfrwt beam="2">  1       -4 0.73350100E-02 0.12500247E+03</pdfrwt>
<totfact> 0.10352252E+04</totfact>
</mgrwt>
</event>
<event>
 5    1  0.3183609E-002  0.1250009E+03  0.7818608E-02  0.1235068E+00
          4   -1    0    0  501    0  0.00000000000E+00  0.00000000000E+00  0.19136835476E+04  0.19136839690E+04  0.12700000000E+01 0. -1.
         -4   -1    0    0    0  501 -0.00000000000E+00 -0.00000000000E+00 -0.18432492681E+01  0.22384074393E+01  0.12700000000E+01 0. -1.
         25    2    1    2    0    0  0.00000000000E+00  0.00000000000E+00  0.19118402983E+04  0.19159223764E+04  0.12500090504E+03 0.  0.
    9000005    1    3    3    0    0 -0.68247509508E+01 -0.58441147806E+02  0.63318684688E+03  0.63591550386E+03  0.10000000000E+01 0.  0.
    9000005    1    3    3    0    0  0.68247509508E+01  0.58441147806E+02  0.12786534514E+04  0.12800068726E+04  0.10000000000E+01 0.  0.
<mgrwt>
<rscale>  0 0.12500091E+03</rscale>
<asrwt>0</asrwt>
<pdfrwt beam="1">  1        4 0.29444095E+00 0.12500091E+03</pdfrwt>
<pdfrwt beam="2">  1       -4 0.31400850E-03 0.12500091E+03</pdfrwt>
<totfact> 0.10998811E+03</totfact>
</mgrwt>
</event>
<event>
 4    1  0.3183609E-002  0.1236121E+03  0.7818608E-02  0.1237254E+00
         -4   -1    0    0    0  501 -0.00000000000E+00  0.00000000000E+00  0.92799529282E+01  0.93664521752E+01  0.12700000000E+01 0. -1.
          4   -1    0    0  501    0  0.00000000000E+00 -0.00000000000E+00 -0.40964140154E+03  0.40964337021E+03  0.12700000000E+01 0. -1.
    9000005    1    1    2    0    0  0.35069003265E+01 -0.25427731966E+02 -0.96280833605E+01  0.27432970893E+02  0.10000000000E+01 0.  0.
    9000005    1    1    2    0    0 -0.35069003265E+01  0.25427731966E+02 -0.39073336525E+03  0.39157685149E+03  0.10000000000E+01 0.  0.
<mgrwt>
<rscale>  0 0.12361206E+03</rscale>
<asrwt>0</asrwt>
<pdfrwt beam="2">  1        4 0.63028545E-01 0.12361206E+03</pdfrwt>
<pdfrwt beam="1">  1       -4 0.14344906E-02 0.12361206E+03</pdfrwt>
<totfact> 0.64705495E+03</totfact>
</mgrwt>
</event>
<event>
 5    1  0.3183609E-002  0.1250033E+03  0.7818608E-02  0.1235064E+00
          4   -1    0    0  501    0  0.00000000000E+00  0.00000000000E+00  0.69408930055E+02  0.69420547905E+02  0.12700000000E+01 0.  1.
         -4   -1    0    0    0  501 -0.00000000000E+00 -0.00000000000E+00 -0.56258301268E+02  0.56272634215E+02  0.12700000000E+01 0.  1.
         25    2    1    2    0    0  0.00000000000E+00  0.00000000000E+00  0.13150628788E+02  0.12569318212E+03  0.12500334793E+03 0.  0.
    9000005    1    3    3    0    0 -0.54219821297E+02 -0.31070984711E+02  0.70920923189E+01  0.62900658867E+02  0.10000000000E+01 0.  0.
    9000005    1    3    3    0    0  0.54219821297E+02  0.31070984711E+02  0.60585364686E+01  0.62792523253E+02  0.10000000000E+01 0.  0.
<mgrwt>
<rscale>  0 0.12500335E+03</rscale>
<asrwt>0</asrwt>
<pdfrwt beam="1">  1        4 0.10680293E-01 0.12500335E+03</pdfrwt>
<pdfrwt beam="2">  1       -4 0.86571196E-02 0.12500335E+03</pdfrwt>
<totfact> 0.10436906E+04</totfact>
</mgrwt>
</event>
<event>
 5    1  0.3183609E-002  0.1250004E+03  0.7818608E-02  0.1235069E+00
         -4   -1    0    0    0  501 -0.00000000000E+00  0.00000000000E+00  0.48919303680E+02  0.48935786216E+02  0.12700000000E+01 0. -1.
          4   -1    0    0  501    0  0.00000000000E+00 -0.00000000000E+00 -0.79816454462E+02  0.79826557628E+02  0.12700000000E+01 0. -1.
         25    2    1    2    0    0  0.00000000000E+00  0.00000000000E+00 -0.30897150782E+02  0.12876234384E+03  0.12500042906E+03 0.  0.
    9000005    1    3    3    0    0  0.28621765532E+02  0.29753839057E+02  0.32875741781E+02  0.52785516939E+02  0.10000000000E+01 0.  0.
    9000005    1    3    3    0    0 -0.28621765532E+02 -0.29753839057E+02 -0.63772892563E+02  0.75976826906E+02  0.10000000000E+01 0.  0.
<mgrwt>
<rscale>  0 0.12500043E+03</rscale>
<asrwt>0</asrwt>
<pdfrwt beam="2">  1        4 0.12281500E-01 0.12500043E+03</pdfrwt>
<pdfrwt beam="1">  1       -4 0.75280918E-02 0.12500043E+03</pdfrwt>
<totfact> 0.10370956E+04</totfact>
</mgrwt>
</event>
<event>
 5    1  0.3183609E-002  0.1249982E+03  0.7818608E-02  0.1235072E+00
         -4   -1    0    0    0  501 -0.00000000000E+00  0.00000000000E+00  0.35836581256E+02  0.35859077736E+02  0.12700000000E+01 0.  1.
          4   -1    0    0  501    0  0.00000000000E+00 -0.00000000000E+00 -0.10893812816E+03  0.10894553074E+03  0.12700000000E+01 0.  1.
         25    2    1    2    0    0  0.00000000000E+00  0.00000000000E+00 -0.73101546908E+02  0.14480460847E+03  0.12499815389E+03 0.  0.
    9000005    1    3    3    0    0 -0.13891396429E+02 -0.58891161733E+02 -0.18455336915E+02  0.63267205452E+02  0.10000000000E+01 0.  0.
    9000005    1    3    3    0    0  0.13891396429E+02  0.58891161733E+02 -0.54646209993E+02  0.81537403022E+02  0.10000000000E+01 0.  0.
<mgrwt>
<rscale>  0 0.12499815E+03</rscale>
<asrwt>0</asrwt>
<pdfrwt beam="2">  1        4 0.16762012E-01 0.12499815E+03</pdfrwt>
<pdfrwt beam="1">  1       -4 0.55156202E-02 0.12499815E+03</pdfrwt>
<totfact> 0.10035377E+04</totfact>
</mgrwt>
</event>
<event>
 5    1  0.3183609E-002  0.1250035E+03  0.7818608E-02  0.1235064E+00
         -4   -1    0    0    0  501 -0.00000000000E+00  0.00000000000E+00  0.83949969577E+01  0.84905167051E+01  0.12700000000E+01 0. -1.
          4   -1    0    0  501    0  0.00000000000E+00 -0.00000000000E+00 -0.46260452658E+03  0.46260626986E+03  0.12700000000E+01 0. -1.
         25    2    1    2    0    0  0.00000000000E+00  0.00000000000E+00 -0.45420952962E+03  0.47109678657E+03  0.12500354199E+03 0.  0.
    9000005    1    3    3    0    0  0.27664908333E+02 -0.55361025554E+02 -0.19440604675E+03  0.20402181578E+03  0.10000000000E+01 0.  0.
    9000005    1    3    3    0    0 -0.27664908333E+02  0.55361025554E+02 -0.25980348288E+03  0.26707497078E+03  0.10000000000E+01 0.  0.
<mgrwt>
<rscale>  0 0.12500354E+03</rscale>
<asrwt>0</asrwt>
<pdfrwt beam="2">  1        4 0.71177389E-01 0.12500354E+03</pdfrwt>
<pdfrwt beam="1">  1       -4 0.12990201E-02 0.12500354E+03</pdfrwt>
<totfact> 0.58174248E+03</totfact>
</mgrwt>
</event>
<event>
 5    1  0.3183609E-002  0.1250101E+03  0.7818608E-02  0.1235054E+00
         -4   -1    0    0    0  501 -0.00000000000E+00  0.00000000000E+00  0.11189532320E+04  0.11189539527E+04  0.12700000000E+01 0. -1.
          4   -1    0    0  501    0  0.00000000000E+00 -0.00000000000E+00 -0.33753182959E+01  0.36063379762E+01  0.12700000000E+01 0. -1.
         25    2    1    2    0    0  0.00000000000E+00  0.00000000000E+00  0.11155779137E+04  0.11225602907E+04  0.12501009839E+03 0.  0.
    9000005    1    3    3    0    0 -0.53420901036E+02  0.25190800550E+02  0.37430457692E+03  0.37893704675E+03  0.10000000000E+01 0.  0.
    9000005    1    3    3    0    0  0.53420901036E+02 -0.25190800550E+02  0.74127333675E+03  0.74362324390E+03  0.10000000000E+01 0.  0.
<mgrwt>
<rscale>  0 0.12501010E+03</rscale>
<asrwt>0</asrwt>
<pdfrwt beam="2">  1        4 0.53710522E-03 0.12501010E+03</pdfrwt>
<pdfrwt beam="1">  1       -4 0.17216470E+00 0.12501010E+03</pdfrwt>
<totfact> 0.26826372E+03</totfact>
</mgrwt>
</event>
<event>
 5    1  0.3183609E-002  0.1250014E+03  0.7818608E-02  0.1235067E+00
          4   -1    0    0  501    0  0.00000000000E+00  0.00000000000E+00  0.34480825953E+03  0.34481059836E+03  0.12700000000E+01 0. -1.
         -4   -1    0    0    0  501 -0.00000000000E+00 -0.00000000000E+00 -0.11291038998E+02  0.11362238408E+02  0.12700000000E+01 0. -1.
         25    2    1    2    0    0  0.00000000000E+00  0.00000000000E+00  0.33351722053E+03  0.35617283677E+03  0.12500141303E+03 0.  0.
    9000005    1    3    3    0    0 -0.31343111305E+02  0.53927186728E+02  0.15579463684E+03  0.16781984675E+03  0.10000000000E+01 0.  0.
    9000005    1    3    3    0    0  0.31343111305E+02 -0.53927186728E+02  0.17772258369E+03  0.18835299002E+03  0.10000000000E+01 0.  0.
<mgrwt>
<rscale>  0 0.12500141E+03</rscale>
<asrwt>0</asrwt>
<pdfrwt beam="1">  1        4 0.53053081E-01 0.12500141E+03</pdfrwt>
<pdfrwt beam="2">  1       -4 0.17427397E-02 0.12500141E+03</pdfrwt>
<totfact> 0.69048604E+03</totfact>
</mgrwt>
</event>
<event>
 5    1  0.3183609E-002  0.1249998E+03  0.7818608E-02  0.1235070E+00
          4   -1    0    0  501    0  0.00000000000E+00  0.00000000000E+00  0.41161694843E+02  0.41181282427E+02  0.12700000000E+01 0. -1.
         -4   -1    0    0    0  501 -0.00000000000E+00 -0.00000000000E+00 -0.94853418291E+02  0.94861919975E+02  0.12700000000E+01 0. -1.
         25    2    1    2    0    0  0.00000000000E+00  0.00000000000E+00 -0.53691723447E+02  0.13604320240E+03  0.12499980701E+03 0.  0.
    9000005    1    3    3    0    0 -0.46777723981E+02 -0.52474867765E+01  0.17889665550E+02  0.50365977721E+02  0.10000000000E+01 0.  0.
    9000005    1    3    3    0    0  0.46777723981E+02  0.52474867765E+01 -0.71581388997E+02  0.85677224681E+02  0.10000000000E+01 0.  0.
<mgrwt>
<rscale>  0 0.12499981E+03</rscale>
<asrwt>0</asrwt>
<pdfrwt beam="1">  1        4 0.63347292E-02 0.12499981E+03</pdfrwt>
<pdfrwt beam="2">  1       -4 0.14594994E-01 0.12499981E+03</pdfrwt>
<totfact> 0.10216174E+04</totfact>
</mgrwt>
</event>
<event>
 5    1  0.3183609E-002  0.1249960E+03  0.7818608E-02  0.1235075E+00
         -4   -1    0    0    0  501 -0.00000000000E+00  0.00000000000E+00  0.29472183686E+03  0.29472457316E+03  0.12700000000E+01 0.  1.
          4   -1    0    0  501    0  0.00000000000E+00 -0.00000000000E+00 -0.13219954168E+02  0.13280816549E+02  0.12700000000E+01 0.  1.
         25    2    1    2    0    0  0.00000000000E+00  0.00000000000E+00  0.28150188269E+03  0.30800538970E+03  0.12499604045E+03 0.  0.
    9000005    1    3    3    0    0 -0.42570789436E+02 -0.45372327449E+02  0.15513649693E+03  0.16715039004E+03  0.10000000000E+01 0.  0.
    9000005    1    3    3    0    0  0.42570789436E+02  0.45372327449E+02  0.12636538577E+03  0.14085499967E+03  0.10000000000E+01 0.  0.
<mgrwt>
<rscale>  0 0.12499604E+03</rscale>
<asrwt>0</asrwt>
<pdfrwt beam="2">  1        4 0.20387312E-02 0.12499604E+03</pdfrwt>
<pdfrwt beam="1">  1       -4 0.45346715E-01 0.12499604E+03</pdfrwt>
<totfact> 0.74612058E+03</totfact>
</mgrwt>
</event>
<event>
 5    1  0.3183609E-002  0.1250040E+03  0.7818608E-02  0.1235063E+00
         -4   -1    0    0    0  501 -0.00000000000E+00  0.00000000000E+00  0.20933328829E+02  0.20971818134E+02  0.12700000000E+01 0. -1.
          4   -1    0    0  501    0  0.00000000000E+00 -0.00000000000E+00 -0.18640436656E+03  0.18640869286E+03  0.12700000000E+01 0. -1.
         25    2    1    2    0    0  0.00000000000E+00  0.00000000000E+00 -0.16547103773E+03  0.20738051099E+03  0.12500404798E+03 0.  0.
    9000005    1    3    3    0    0 -0.16011644252E+02  0.59862550255E+02 -0.69298175364E+02  0.92968461230E+02  0.10000000000E+01 0.  0.
    9000005    1    3    3    0    0  0.16011644252E+02 -0.59862550255E+02 -0.96172862366E+02  0.11441204976E+03  0.10000000000E+01 0.  0.
<mgrwt>
<rscale>  0 0.12500405E+03</rscale>
<asrwt>0</asrwt>
<pdfrwt beam="2">  1        4 0.28680887E-01 0.12500405E+03</pdfrwt>
<pdfrwt beam="1">  1       -4 0.32238058E-02 0.12500405E+03</pdfrwt>
<totfact> 0.88897426E+03</totfact>
</mgrwt>
</event>
<event>
 5    1  0.3183609E-002  0.1249964E+03  0.7818608E-02  0.1235075E+00
          4   -1    0    0  501    0  0.00000000000E+00  0.00000000000E+00  0.80298809332E+02  0.80308851817E+02  0.12700000000E+01 0. -1.
         -4   -1    0    0    0  501 -0.00000000000E+00 -0.00000000000E+00 -0.48622236334E+02  0.48638819538E+02  0.12700000000E+01 0. -1.
         25    2    1    2    0    0  0.00000000000E+00  0.00000000000E+00  0.31676572999E+02  0.12894767136E+03  0.12499638663E+03 0.  0.
    9000005    1    3    3    0    0  0.47092746707E+02 -0.29459494691E+02 -0.13692393333E+02  0.57219491915E+02  0.10000000000E+01 0.  0.
    9000005    1    3    3    0    0 -0.47092746707E+02  0.29459494691E+02  0.45368966332E+02  0.71728179440E+02  0.10000000000E+01 0.  0.
<mgrwt>
<rscale>  0 0.12499639E+03</rscale>
<asrwt>0</asrwt>
<pdfrwt beam="1">  1        4 0.12355711E-01 0.12499639E+03</pdfrwt>
<pdfrwt beam="2">  1       -4 0.74823923E-02 0.12499639E+03</pdfrwt>
<totfact> 0.10367917E+04</totfact>
</mgrwt>
</event>
<event>
 5    1  0.3183609E-002  0.1249969E+03  0.7818608E-02  0.1235074E+00
         -4   -1    0    0    0  501 -0.00000000000E+00  0.00000000000E+00  0.43689234121E+03  0.43689418709E+03  0.12700000000E+01 0. -1.
          4   -1    0    0  501    0  0.00000000000E+00 -0.00000000000E+00 -0.88935727980E+01  0.89837930248E+01  0.12700000000E+01 0. -1.
         25    2    1    2    0    0  0.00000000000E+00  0.00000000000E+00  0.42799876842E+03  0.44587798011E+03  0.12499690950E+03 0.  0.
    9000005    1    3    3    0    0  0.50888261012E+02  0.13478436551E+02  0.93889182086E+02  0.10764507362E+03  0.10000000000E+01 0.  0.
    9000005    1    3    3    0    0 -0.50888261012E+02 -0.13478436551E+02  0.33410958633E+03  0.33823290650E+03  0.10000000000E+01 0.  0.
<mgrwt>
<rscale>  0 0.12499691E+03</rscale>
<asrwt>0</asrwt>
<pdfrwt beam="2">  1        4 0.13753241E-02 0.12499691E+03</pdfrwt>
<pdfrwt beam="1">  1       -4 0.67221283E-01 0.12499691E+03</pdfrwt>
<totfact> 0.60326664E+03</totfact>
</mgrwt>
</event>
<event>
 5    1  0.3183609E-002  0.1250003E+03  0.7818608E-02  0.1235069E+00
         -4   -1    0    0    0  501 -0.00000000000E+00  0.00000000000E+00  0.23359242344E+02  0.23393740677E+02  0.12700000000E+01 0. -1.
          4   -1    0    0  501    0  0.00000000000E+00 -0.00000000000E+00 -0.16706550286E+03  0.16707032994E+03  0.12700000000E+01 0. -1.
         25    2    1    2    0    0  0.00000000000E+00  0.00000000000E+00 -0.14370626052E+03  0.19046407062E+03  0.12500029154E+03 0.  0.
    9000005    1    3    3    0    0 -0.27144777105E+02 -0.20184313395E+02  0.82108232794E+01  0.34823311879E+02  0.10000000000E+01 0.  0.
    9000005    1    3    3    0    0  0.27144777105E+02  0.20184313395E+02 -0.15191708380E+03  0.15564075874E+03  0.10000000000E+01 0.  0.
<mgrwt>
<rscale>  0 0.12500029E+03</rscale>
<asrwt>0</asrwt>
<pdfrwt beam="2">  1        4 0.25705409E-01 0.12500029E+03</pdfrwt>
<pdfrwt beam="1">  1       -4 0.35967547E-02 0.12500029E+03</pdfrwt>
<totfact> 0.91766032E+03</totfact>
</mgrwt>
</event>
<event>
 5    1  0.3183609E-002  0.1249998E+03  0.7818608E-02  0.1235070E+00
          4   -1    0    0  501    0  0.00000000000E+00  0.00000000000E+00  0.14278498050E+03  0.14279062840E+03  0.12700000000E+01 0.  1.
         -4   -1    0    0    0  501 -0.00000000000E+00 -0.00000000000E+00 -0.27336536133E+02  0.27366021043E+02  0.12700000000E+01 0.  1.
         25    2    1    2    0    0  0.00000000000E+00  0.00000000000E+00  0.11544844437E+03  0.17015664944E+03  0.12499976816E+03 0.  0.
    9000005    1    3    3    0    0 -0.25640271433E+02 -0.53673977000E+02  0.83799152223E+02  0.10276972920E+03  0.10000000000E+01 0.  0.
    9000005    1    3    3    0    0  0.25640271433E+02  0.53673977000E+02  0.31649292149E+02  0.67386920242E+02  0.10000000000E+01 0.  0.
<mgrwt>
<rscale>  0 0.12499977E+03</rscale>
<asrwt>0</asrwt>
<pdfrwt beam="1">  1        4 0.21969623E-01 0.12499977E+03</pdfrwt>
<pdfrwt beam="2">  1       -4 0.42083234E-02 0.12499977E+03</pdfrwt>
<totfact> 0.95419943E+03</totfact>
</mgrwt>
</event>
<event>
 5    1  0.3183609E-002  0.1250015E+03  0.7818608E-02  0.1235067E+00
         -4   -1    0    0    0  501 -0.00000000000E+00  0.00000000000E+00  0.99238161474E+01  0.10004750218E+02  0.12700000000E+01 0.  1.
          4   -1    0    0  501    0  0.00000000000E+00 -0.00000000000E+00 -0.39195279144E+03  0.39195484895E+03  0.12700000000E+01 0.  1.
         25    2    1    2    0    0  0.00000000000E+00  0.00000000000E+00 -0.38202897529E+03  0.40195959917E+03  0.12500152560E+03 0.  0.
    9000005    1    3    3    0    0 -0.23712116539E+02 -0.52383150529E+02 -0.26972121030E+03  0.27578395569E+03  0.10000000000E+01 0.  0.
    9000005    1    3    3    0    0  0.23712116539E+02  0.52383150529E+02 -0.11230776498E+03  0.12617564347E+03  0.10000000000E+01 0.  0.
<mgrwt>
<rscale>  0 0.12500153E+03</rscale>
<asrwt>0</asrwt>
<pdfrwt beam="2">  1        4 0.60306801E-01 0.12500153E+03</pdfrwt>
<pdfrwt beam="1">  1       -4 0.15331252E-02 0.12500153E+03</pdfrwt>
<totfact> 0.64360484E+03</totfact>
</mgrwt>
</event>
<event>
 5    1  0.3183609E-002  0.1249966E+03  0.7818608E-02  0.1235075E+00
          4   -1    0    0  501    0  0.00000000000E+00  0.00000000000E+00  0.20034911161E+02  0.20075123044E+02  0.12700000000E+01 0. -1.
         -4   -1    0    0    0  501 -0.00000000000E+00 -0.00000000000E+00 -0.19472382117E+03  0.19472796263E+03  0.12700000000E+01 0. -1.
         25    2    1    2    0    0  0.00000000000E+00  0.00000000000E+00 -0.17468891001E+03  0.21480308567E+03  0.12499660130E+03 0.  0.
    9000005    1    3    3    0    0 -0.28392836994E+02  0.53011071180E+02 -0.58145065664E+02  0.83655098597E+02  0.10000000000E+01 0.  0.
    9000005    1    3    3    0    0  0.28392836994E+02 -0.53011071180E+02 -0.11654384434E+03  0.13114798708E+03  0.10000000000E+01 0.  0.
<mgrwt>
<rscale>  0 0.12499660E+03</rscale>
<asrwt>0</asrwt>
<pdfrwt beam="1">  1        4 0.30857060E-02 0.12499660E+03</pdfrwt>
<pdfrwt beam="2">  1       -4 0.29960921E-01 0.12499660E+03</pdfrwt>
<totfact> 0.87704094E+03</totfact>
</mgrwt>
</event>
<event>
 5    1  0.3183609E-002  0.1249990E+03  0.7818608E-02  0.1235071E+00
          4   -1    0    0  501    0  0.00000000000E+00  0.00000000000E+00  0.24143542614E+02  0.24176921846E+02  0.12700000000E+01 0. -1.
         -4   -1    0    0    0  501 -0.00000000000E+00 -0.00000000000E+00 -0.16164244697E+03  0.16164743599E+03  0.12700000000E+01 0. -1.
         25    2    1    2    0    0  0.00000000000E+00  0.00000000000E+00 -0.13749890436E+03  0.18582435784E+03  0.12499897306E+03 0.  0.
    9000005    1    3    3    0    0  0.13116190142E+02 -0.57264949855E+02 -0.10042070413E+03  0.11634701004E+03  0.10000000000E+01 0.  0.
    9000005    1    3    3    0    0 -0.13116190142E+02  0.57264949855E+02 -0.37078200224E+02  0.69477347802E+02  0.10000000000E+01 0.  0.
<mgrwt>
<rscale>  0 0.12499897E+03</rscale>
<asrwt>0</asrwt>
<pdfrwt beam="1">  1        4 0.37173427E-02 0.12499897E+03</pdfrwt>
<pdfrwt beam="2">  1       -4 0.24871020E-01 0.12499897E+03</pdfrwt>
<totfact> 0.92581113E+03</totfact>
</mgrwt>
</event>
<event>
 5    1  0.3183609E-002  0.1249976E+03  0.7818608E-02  0.1235073E+00
         -4   -1    0    0    0  501 -0.00000000000E+00  0.00000000000E+00  0.46335807707E+02  0.46353208906E+02  0.12700000000E+01 0.  1.
          4   -1    0    0  501    0  0.00000000000E+00 -0.00000000000E+00 -0.84261776375E+02  0.84271346600E+02  0.12700000000E+01 0.  1.
         25    2    1    2    0    0  0.00000000000E+00  0.00000000000E+00 -0.37925968668E+02  0.13062455551E+03  0.12499758158E+03 0.  0.
    9000005    1    3    3    0    0  0.49911327824E+02 -0.35257368987E+02 -0.53025683573E+01  0.61346067064E+02  0.10000000000E+01 0.  0.
    9000005    1    3    3    0    0 -0.49911327824E+02  0.35257368987E+02 -0.32623400311E+02  0.69278488442E+02  0.10000000000E+01 0.  0.
<mgrwt>
<rscale>  0 0.12499758E+03</rscale>
<asrwt>0</asrwt>
<pdfrwt beam="2">  1        4 0.12965425E-01 0.12499758E+03</pdfrwt>
<pdfrwt beam="1">  1       -4 0.71306605E-02 0.12499758E+03</pdfrwt>
<totfact> 0.10331709E+04</totfact>
</mgrwt>
</event>
<event>
 5    1  0.3183609E-002  0.1250001E+03  0.7818608E-02  0.1235069E+00
         -4   -1    0    0    0  501 -0.00000000000E+00  0.00000000000E+00  0.65219363568E+01  0.66444378124E+01  0.12700000000E+01 0. -1.
          4   -1    0    0  501    0  0.00000000000E+00 -0.00000000000E+00 -0.59324568213E+03  0.59324704152E+03  0.12700000000E+01 0. -1.
         25    2    1    2    0    0  0.00000000000E+00  0.00000000000E+00 -0.58672374578E+03  0.59989147933E+03  0.12500013246E+03 0.  0.
    9000005    1    3    3    0    0  0.90303920834E+01  0.59481314775E+02 -0.21224619692E+03  0.22061056841E+03  0.10000000000E+01 0.  0.
    9000005    1    3    3    0    0 -0.90303920834E+01 -0.59481314775E+02 -0.37447754886E+03  0.37928091092E+03  0.10000000000E+01 0.  0.
<mgrwt>
<rscale>  0 0.12500013E+03</rscale>
<asrwt>0</asrwt>
<pdfrwt beam="2">  1        4 0.91278052E-01 0.12500013E+03</pdfrwt>
<pdfrwt beam="1">  1       -4 0.10129031E-02 0.12500013E+03</pdfrwt>
<totfact> 0.48874336E+03</totfact>
</mgrwt>
</event>
<event>
 5    1  0.3183609E-002  0.1250023E+03  0.7818608E-02  0.1235066E+00
         -4   -1    0    0    0  501 -0.00000000000E+00  0.00000000000E+00  0.13092488255E+03  0.13093104205E+03  0.12700000000E+01 0.  1.
          4   -1    0    0  501    0  0.00000000000E+00 -0.00000000000E+00 -0.29816543377E+02  0.29843578186E+02  0.12700000000E+01 0.  1.
         25    2    1    2    0    0  0.00000000000E+00  0.00000000000E+00  0.10110833917E+03  0.16077462023E+03  0.12500232902E+03 0.  0.
    9000005    1    3    3    0    0  0.59768694321E+02  0.86079126759E+01  0.71253268302E+02  0.93404610299E+02  0.10000000000E+01 0.  0.
    9000005    1    3    3    0    0 -0.59768694321E+02 -0.86079126759E+01  0.29855070873E+02  0.67370009933E+02  0.10000000000E+01 0.  0.
<mgrwt>
<rscale>  0 0.12500233E+03</rscale>
<asrwt>0</asrwt>
<pdfrwt beam="2">  1        4 0.45897139E-02 0.12500233E+03</pdfrwt>
<pdfrwt beam="1">  1       -4 0.20144843E-01 0.12500233E+03</pdfrwt>
<totfact> 0.97188564E+03</totfact>
</mgrwt>
</event>
<event>
 5    1  0.3183609E-002  0.1249997E+03  0.7818608E-02  0.1235070E+00
          4   -1    0    0  501    0  0.00000000000E+00  0.00000000000E+00  0.25234168022E+02  0.25266106462E+02  0.12700000000E+01 0. -1.
         -4   -1    0    0    0  501 -0.00000000000E+00 -0.00000000000E+00 -0.15466676262E+03  0.15467197664E+03  0.12700000000E+01 0. -1.
         25    2    1    2    0    0  0.00000000000E+00  0.00000000000E+00 -0.12943259459E+03  0.17993808310E+03  0.12499966883E+03 0.  0.
    9000005    1    3    3    0    0 -0.39860747617E+02 -0.28862773343E+02 -0.92757737892E+01  0.50089708175E+02  0.10000000000E+01 0.  0.
    9000005    1    3    3    0    0  0.39860747617E+02  0.28862773343E+02 -0.12015682081E+03  0.12984837493E+03  0.10000000000E+01 0.  0.
<mgrwt>
<rscale>  0 0.12499967E+03</rscale>
<asrwt>0</asrwt>
<pdfrwt beam="1">  1        4 0.38850377E-02 0.12499967E+03</pdfrwt>
<pdfrwt beam="2">  1       -4 0.23797744E-01 0.12499967E+03</pdfrwt>
<totfact> 0.93628845E+03</totfact>
</mgrwt>
</event>
<event>
 5    1  0.3183609E-002  0.1249983E+03  0.7818608E-02  0.1235072E+00
          4   -1    0    0  501    0  0.00000000000E+00  0.00000000000E+00  0.14095556975E+04  0.14095562697E+04  0.12700000000E+01 0. -1.
         -4   -1    0    0    0  501 -0.00000000000E+00 -0.00000000000E+00 -0.26250781624E+01  0.29161507778E+01  0.12700000000E+01 0. -1.
         25    2    1    2    0    0  0.00000000000E+00  0.00000000000E+00  0.14069306194E+04  0.14124724204E+04  0.12499828313E+03 0.  0.
    9000005    1    3    3    0    0 -0.47882842724E+02 -0.35893096461E+02  0.90688349633E+03  0.90885629057E+03  0.10000000000E+01 0.  0.
    9000005    1    3    3    0    0  0.47882842724E+02  0.35893096461E+02  0.50004712303E+03  0.50361612986E+03  0.10000000000E+01 0.  0.
<mgrwt>
<rscale>  0 0.12499828E+03</rscale>
<asrwt>0</asrwt>
<pdfrwt beam="1">  1        4 0.21687717E+00 0.12499828E+03</pdfrwt>
<pdfrwt beam="2">  1       -4 0.42629236E-03 0.12499828E+03</pdfrwt>
<totfact> 0.19715583E+03</totfact>
</mgrwt>
</event>
<event>
 5    1  0.3183609E-002  0.1250235E+03  0.7818608E-02  0.1235033E+00
         -4   -1    0    0    0  501 -0.00000000000E+00  0.00000000000E+00  0.72768066744E+01  0.73868000769E+01  0.12700000000E+01 0.  1.
          4   -1    0    0  501    0  0.00000000000E+00 -0.00000000000E+00 -0.53287112621E+03  0.53287263962E+03  0.12700000000E+01 0.  1.
         25    2    1    2    0    0  0.00000000000E+00  0.00000000000E+00 -0.52559431954E+03  0.54025943969E+03  0.12502349158E+03 0.  0.
    9000005    1    3    3    0    0  0.58499537848E+02 -0.13936868544E+02 -0.18917240149E+03  0.19850347534E+03  0.10000000000E+01 0.  0.
    9000005    1    3    3    0    0 -0.58499537848E+02  0.13936868544E+02 -0.33642191805E+03  0.34175596436E+03  0.10000000000E+01 0.  0.
<mgrwt>
<rscale>  0 0.12502349E+03</rscale>
<asrwt>0</asrwt>
<pdfrwt beam="2">  1        4 0.81988720E-01 0.12502349E+03</pdfrwt>
<pdfrwt beam="1">  1       -4 0.11280866E-02 0.12502349E+03</pdfrwt>
<totfact> 0.52843402E+03</totfact>
</mgrwt>
</event>
<event>
 5    1  0.3183609E-002  0.1250002E+03  0.7818608E-02  0.1235069E+00
          4   -1    0    0  501    0  0.00000000000E+00  0.00000000000E+00  0.14810891600E+03  0.14811436088E+03  0.12700000000E+01 0.  1.
         -4   -1    0    0    0  501 -0.00000000000E+00 -0.00000000000E+00 -0.26353038192E+02  0.26383622230E+02  0.12700000000E+01 0.  1.
         25    2    1    2    0    0  0.00000000000E+00  0.00000000000E+00  0.12175587781E+03  0.17449798311E+03  0.12500020931E+03 0.  0.
    9000005    1    3    3    0    0 -0.39087358647E+02 -0.48417072239E+02  0.52830908529E+02  0.81634180257E+02  0.10000000000E+01 0.  0.
    9000005    1    3    3    0    0  0.39087358647E+02  0.48417072239E+02  0.68924969281E+02  0.92863802855E+02  0.10000000000E+01 0.  0.
<mgrwt>
<rscale>  0 0.12500021E+03</rscale>
<asrwt>0</asrwt>
<pdfrwt beam="1">  1        4 0.22788758E-01 0.12500021E+03</pdfrwt>
<pdfrwt beam="2">  1       -4 0.40570851E-02 0.12500021E+03</pdfrwt>
<totfact> 0.94616420E+03</totfact>
</mgrwt>
</event>
<event>
 5    1  0.3183609E-002  0.1249999E+03  0.7818608E-02  0.1235069E+00
          4   -1    0    0  501    0  0.00000000000E+00  0.00000000000E+00  0.66382300811E+02  0.66394448269E+02  0.12700000000E+01 0.  1.
         -4   -1    0    0    0  501 -0.00000000000E+00 -0.00000000000E+00 -0.58820318336E+02  0.58834027137E+02  0.12700000000E+01 0.  1.
         25    2    1    2    0    0  0.00000000000E+00  0.00000000000E+00  0.75619824743E+01  0.12522847541E+03  0.12499994989E+03 0.  0.
    9000005    1    3    3    0    0  0.33911154591E+02  0.24241560502E+01 -0.48749629039E+02  0.59442150615E+02  0.10000000000E+01 0.  0.
    9000005    1    3    3    0    0 -0.33911154591E+02 -0.24241560502E+01  0.56311611514E+02  0.65786324791E+02  0.10000000000E+01 0.  0.
<mgrwt>
<rscale>  0 0.12499995E+03</rscale>
<asrwt>0</asrwt>
<pdfrwt beam="1">  1        4 0.10214651E-01 0.12499995E+03</pdfrwt>
<pdfrwt beam="2">  1       -4 0.90512688E-02 0.12499995E+03</pdfrwt>
<totfact> 0.10447914E+04</totfact>
</mgrwt>
</event>
<event>
 5    1  0.3183609E-002  0.1250008E+03  0.7818608E-02  0.1235068E+00
         -4   -1    0    0    0  501 -0.00000000000E+00  0.00000000000E+00  0.82110704883E+00  0.15123216542E+01  0.12700000000E+01 0.  1.
          4   -1    0    0  501    0  0.00000000000E+00 -0.00000000000E+00 -0.33474275976E+04  0.33474278385E+04  0.12700000000E+01 0.  1.
         25    2    1    2    0    0  0.00000000000E+00  0.00000000000E+00 -0.33466064906E+04  0.33489401602E+04  0.12500077521E+03 0.  0.
    9000005    1    3    3    0    0  0.57304671830E+02 -0.11113589873E+02 -0.22711534950E+04  0.22719037249E+04  0.10000000000E+01 0.  0.
    9000005    1    3    3    0    0 -0.57304671830E+02  0.11113589873E+02 -0.10754529955E+04  0.10770364352E+04  0.10000000000E+01 0.  0.
<mgrwt>
<rscale>  0 0.12500078E+03</rscale>
<asrwt>0</asrwt>
<pdfrwt beam="2">  1        4 0.51503436E+00 0.12500078E+03</pdfrwt>
<pdfrwt beam="1">  1       -4 0.17951573E-03 0.12500078E+03</pdfrwt>
<totfact> 0.83357513E+01</totfact>
</mgrwt>
</event>
<event>
 5    1  0.3183609E-002  0.1250003E+03  0.7818608E-02  0.1235069E+00
         -4   -1    0    0    0  501 -0.00000000000E+00  0.00000000000E+00  0.22214813653E+02  0.22251086393E+02  0.12700000000E+01 0.  1.
          4   -1    0    0  501    0  0.00000000000E+00 -0.00000000000E+00 -0.17565878616E+03  0.17566337710E+03  0.12700000000E+01 0.  1.
         25    2    1    2    0    0  0.00000000000E+00  0.00000000000E+00 -0.15344397251E+03  0.19791446350E+03  0.12500032865E+03 0.  0.
    9000005    1    3    3    0    0 -0.18849894501E+02  0.59239280675E+02 -0.66626013764E+02  0.91129778930E+02  0.10000000000E+01 0.  0.
    9000005    1    3    3    0    0  0.18849894501E+02 -0.59239280675E+02 -0.86817958742E+02  0.10678468457E+03  0.10000000000E+01 0.  0.
<mgrwt>
<rscale>  0 0.12500033E+03</rscale>
<asrwt>0</asrwt>
<pdfrwt beam="2">  1        4 0.27027571E-01 0.12500033E+03</pdfrwt>
<pdfrwt beam="1">  1       -4 0.34208071E-02 0.12500033E+03</pdfrwt>
<totfact> 0.90487503E+03</totfact>
</mgrwt>
</event>
<event>
 5    1  0.3183609E-002  0.1250006E+03  0.7818608E-02  0.1235068E+00
         -4   -1    0    0    0  501 -0.00000000000E+00  0.00000000000E+00  0.29416979332E+03  0.29417253475E+03  0.12700000000E+01 0. -1.
          4   -1    0    0  501    0  0.00000000000E+00 -0.00000000000E+00 -0.13245856087E+02  0.13306599997E+02  0.12700000000E+01 0. -1.
         25    2    1    2    0    0  0.00000000000E+00  0.00000000000E+00  0.28092393723E+03  0.30747913475E+03  0.12500063918E+03 0.  0.
    9000005    1    3    3    0    0 -0.52453069580E+02  0.11796349614E+02  0.21882227455E+03  0.22533234613E+03  0.10000000000E+01 0.  0.
    9000005    1    3    3    0    0  0.52453069580E+02 -0.11796349614E+02  0.62101662683E+02  0.82146788620E+02  0.10000000000E+01 0.  0.
<mgrwt>
<rscale>  0 0.12500064E+03</rscale>
<asrwt>0</asrwt>
<pdfrwt beam="2">  1        4 0.20427074E-02 0.12500064E+03</pdfrwt>
<pdfrwt beam="1">  1       -4 0.45261776E-01 0.12500064E+03</pdfrwt>
<totfact> 0.74669084E+03</totfact>
</mgrwt>
</event>
<event>
 5    1  0.3183609E-002  0.1249998E+03  0.7818608E-02  0.1235070E+00
         -4   -1    0    0    0  501 -0.00000000000E+00  0.00000000000E+00  0.11146284778E+02  0.11218402932E+02  0.12700000000E+01 0. -1.
          4   -1    0    0  501    0  0.00000000000E+00 -0.00000000000E+00 -0.34924838611E+03  0.34925069521E+03  0.12700000000E+01 0. -1.
         25    2    1    2    0    0  0.00000000000E+00  0.00000000000E+00 -0.33810210134E+03  0.36046909814E+03  0.12499975914E+03 0.  0.
    9000005    1    3    3    0    0  0.20159425054E+02 -0.43506116369E+01  0.10639219102E+01  0.20675158281E+02  0.10000000000E+01 0.  0.
    9000005    1    3    3    0    0 -0.20159425054E+02  0.43506116369E+01 -0.33916602325E+03  0.33979393986E+03  0.10000000000E+01 0.  0.
<mgrwt>
<rscale>  0 0.12499976E+03</rscale>
<asrwt>0</asrwt>
<pdfrwt beam="2">  1        4 0.53736238E-01 0.12499976E+03</pdfrwt>
<pdfrwt beam="1">  1       -4 0.17205385E-02 0.12499976E+03</pdfrwt>
<totfact> 0.68588346E+03</totfact>
</mgrwt>
</event>
<event>
 5    1  0.3183609E-002  0.1249997E+03  0.7818608E-02  0.1235070E+00
          4   -1    0    0  501    0  0.00000000000E+00  0.00000000000E+00  0.86907829207E+02  0.86917108083E+02  0.12700000000E+01 0.  1.
         -4   -1    0    0    0  501 -0.00000000000E+00 -0.00000000000E+00 -0.44926183630E+02  0.44944130601E+02  0.12700000000E+01 0.  1.
         25    2    1    2    0    0  0.00000000000E+00  0.00000000000E+00  0.41981645578E+02  0.13186123868E+03  0.12499971081E+03 0.  0.
    9000005    1    3    3    0    0  0.10082232260E+02  0.26866063765E+02 -0.37570385048E+02  0.47286051033E+02  0.10000000000E+01 0.  0.
    9000005    1    3    3    0    0 -0.10082232260E+02 -0.26866063765E+02  0.79552030626E+02  0.84575187652E+02  0.10000000000E+01 0.  0.
<mgrwt>
<rscale>  0 0.12499971E+03</rscale>
<asrwt>0</asrwt>
<pdfrwt beam="1">  1        4 0.13372529E-01 0.12499971E+03</pdfrwt>
<pdfrwt beam="2">  1       -4 0.69138150E-02 0.12499971E+03</pdfrwt>
<totfact> 0.10304728E+04</totfact>
</mgrwt>
</event>
<event>
 5    1  0.3183609E-002  0.1249979E+03  0.7818608E-02  0.1235073E+00
          4   -1    0    0  501    0  0.00000000000E+00  0.00000000000E+00  0.45633435573E+02  0.45651104501E+02  0.12700000000E+01 0.  1.
         -4   -1    0    0    0  501 -0.00000000000E+00 -0.00000000000E+00 -0.85558730426E+02  0.85568155596E+02  0.12700000000E+01 0.  1.
         25    2    1    2    0    0  0.00000000000E+00  0.00000000000E+00 -0.39925294853E+02  0.13121926010E+03  0.12499786019E+03 0.  0.
    9000005    1    3    3    0    0 -0.17202290640E+02 -0.60033583542E+02 -0.22348727970E+02  0.66335628421E+02  0.10000000000E+01 0.  0.
    9000005    1    3    3    0    0  0.17202290640E+02  0.60033583542E+02 -0.17576566883E+02  0.64883631677E+02  0.10000000000E+01 0.  0.
<mgrwt>
<rscale>  0 0.12499786E+03</rscale>
<asrwt>0</asrwt>
<pdfrwt beam="1">  1        4 0.70226127E-02 0.12499786E+03</pdfrwt>
<pdfrwt beam="2">  1       -4 0.13164966E-01 0.12499786E+03</pdfrwt>
<totfact> 0.10318889E+04</totfact>
</mgrwt>
</event>
<event>
 5    1  0.3183609E-002  0.1250077E+03  0.7818608E-02  0.1235057E+00
          4   -1    0    0  501    0  0.00000000000E+00  0.00000000000E+00  0.55456647465E+02  0.55471187549E+02  0.12700000000E+01 0.  1.
         -4   -1    0    0    0  501 -0.00000000000E+00 -0.00000000000E+00 -0.70417033009E+02  0.70428484563E+02  0.12700000000E+01 0.  1.
         25    2    1    2    0    0  0.00000000000E+00  0.00000000000E+00 -0.14960385544E+02  0.12589967211E+03  0.12500765697E+03 0.  0.
    9000005    1    3    3    0    0  0.19288599649E+02 -0.55511142532E+02 -0.28896727755E+02  0.65494716555E+02  0.10000000000E+01 0.  0.
    9000005    1    3    3    0    0 -0.19288599649E+02  0.55511142532E+02  0.13936342212E+02  0.60404955557E+02  0.10000000000E+01 0.  0.
<mgrwt>
<rscale>  0 0.12500766E+03</rscale>
<asrwt>0</asrwt>
<pdfrwt beam="1">  1        4 0.85337913E-02 0.12500766E+03</pdfrwt>
<pdfrwt beam="2">  1       -4 0.10835389E-01 0.12500766E+03</pdfrwt>
<totfact> 0.10431354E+04</totfact>
</mgrwt>
</event>
<event>
 5    1  0.3183609E-002  0.1249877E+03  0.7818608E-02  0.1235089E+00
          4   -1    0    0  501    0  0.00000000000E+00  0.00000000000E+00  0.25749046323E+03  0.25749359517E+03  0.12700000000E+01 0. -1.
         -4   -1    0    0    0  501 -0.00000000000E+00 -0.00000000000E+00 -0.15137655542E+02  0.15190836557E+02  0.12700000000E+01 0. -1.
         25    2    1    2    0    0  0.00000000000E+00  0.00000000000E+00  0.24235280769E+03  0.27268443173E+03  0.12498766304E+03 0.  0.
    9000005    1    3    3    0    0  0.35894628970E+02 -0.37943814808E+02  0.19600303872E+03  0.20284562765E+03  0.10000000000E+01 0.  0.
    9000005    1    3    3    0    0 -0.35894628970E+02  0.37943814808E+02  0.46349768968E+02  0.69838804073E+02  0.10000000000E+01 0.  0.
<mgrwt>
<rscale>  0 0.12498766E+03</rscale>
<asrwt>0</asrwt>
<pdfrwt beam="1">  1        4 0.39618247E-01 0.12498766E+03</pdfrwt>
<pdfrwt beam="2">  1       -4 0.23332019E-02 0.12498766E+03</pdfrwt>
<totfact> 0.79179926E+03</totfact>
</mgrwt>
</event>
<event>
 5    1  0.3183609E-002  0.1250354E+03  0.7818608E-02  0.1235014E+00
          4   -1    0    0  501    0  0.00000000000E+00  0.00000000000E+00  0.18519790790E+03  0.18520226238E+03  0.12700000000E+01 0.  1.
         -4   -1    0    0    0  501 -0.00000000000E+00 -0.00000000000E+00 -0.21080551690E+02  0.21118772681E+02  0.12700000000E+01 0.  1.
         25    2    1    2    0    0  0.00000000000E+00  0.00000000000E+00  0.16411735621E+03  0.20632103506E+03  0.12503544657E+03 0.  0.
    9000005    1    3    3    0    0 -0.20373457504E+02  0.32501995760E+02  0.61643369910E+00  0.38377564925E+02  0.10000000000E+01 0.  0.
    9000005    1    3    3    0    0  0.20373457504E+02 -0.32501995760E+02  0.16350092252E+03  0.16794347014E+03  0.10000000000E+01 0.  0.
<mgrwt>
<rscale>  0 0.12503545E+03</rscale>
<asrwt>0</asrwt>
<pdfrwt beam="1">  1        4 0.28495260E-01 0.12503545E+03</pdfrwt>
<pdfrwt beam="2">  1       -4 0.32464369E-02 0.12503545E+03</pdfrwt>
<totfact> 0.89009671E+03</totfact>
</mgrwt>
</event>
<event>
 5    1  0.3183609E-002  0.1250030E+03  0.7818608E-02  0.1235065E+00
         -4   -1    0    0    0  501 -0.00000000000E+00  0.00000000000E+00  0.58047912187E+03  0.58048051115E+03  0.12700000000E+01 0.  1.
          4   -1    0    0  501    0  0.00000000000E+00 -0.00000000000E+00 -0.66683511832E+01  0.67882109206E+01  0.12700000000E+01 0.  1.
         25    2    1    2    0    0  0.00000000000E+00  0.00000000000E+00  0.57381077068E+03  0.58726872207E+03  0.12500300544E+03 0.  0.
    9000005    1    3    3    0    0 -0.59901912582E+01 -0.13405871850E+02  0.15276622019E+01  0.14796403048E+02  0.10000000000E+01 0.  0.
    9000005    1    3    3    0    0  0.59901912582E+01  0.13405871850E+02  0.57228310848E+03  0.57247231902E+03  0.10000000000E+01 0.  0.
<mgrwt>
<rscale>  0 0.12500301E+03</rscale>
<asrwt>0</asrwt>
<pdfrwt beam="2">  1        4 0.10352272E-02 0.12500301E+03</pdfrwt>
<pdfrwt beam="1">  1       -4 0.89313796E-01 0.12500301E+03</pdfrwt>
<totfact> 0.49677964E+03</totfact>
</mgrwt>
</event>
<event>
 5    1  0.3183609E-002  0.1249995E+03  0.7818608E-02  0.1235070E+00
         -4   -1    0    0    0  501 -0.00000000000E+00  0.00000000000E+00  0.63544881785E+02  0.63557571548E+02  0.12700000000E+01 0. -1.
          4   -1    0    0  501    0  0.00000000000E+00 -0.00000000000E+00 -0.61446403181E+02  0.61459526225E+02  0.12700000000E+01 0. -1.
         25    2    1    2    0    0  0.00000000000E+00  0.00000000000E+00  0.20984786041E+01  0.12501709777E+03  0.12499948449E+03 0.  0.
    9000005    1    3    3    0    0 -0.29309691428E+01  0.27575186569E+02  0.57059240042E+02  0.63448706595E+02  0.10000000000E+01 0.  0.
    9000005    1    3    3    0    0  0.29309691428E+01 -0.27575186569E+02 -0.54960761438E+02  0.61568391178E+02  0.10000000000E+01 0.  0.
<mgrwt>
<rscale>  0 0.12499948E+03</rscale>
<asrwt>0</asrwt>
<pdfrwt beam="2">  1        4 0.94552784E-02 0.12499948E+03</pdfrwt>
<pdfrwt beam="1">  1       -4 0.97781213E-02 0.12499948E+03</pdfrwt>
<totfact> 0.10452613E+04</totfact>
</mgrwt>
</event>
<event>
 5    1  0.3183609E-002  0.1250012E+03  0.7818608E-02  0.1235067E+00
         -4   -1    0    0    0  501 -0.00000000000E+00  0.00000000000E+00  0.16930805436E+04  0.16930810199E+04  0.12700000000E+01 0.  1.
          4   -1    0    0  501    0  0.00000000000E+00 -0.00000000000E+00 -0.21319515832E+01  0.24815554705E+01  0.12700000000E+01 0.  1.
         25    2    1    2    0    0  0.00000000000E+00  0.00000000000E+00  0.16909485920E+04  0.16955625754E+04  0.12500122489E+03 0.  0.
    9000005    1    3    3    0    0  0.33022667103E+02  0.34021473252E+02  0.13976905783E+04  0.13984948730E+04  0.10000000000E+01 0.  0.
    9000005    1    3    3    0    0 -0.33022667103E+02 -0.34021473252E+02  0.29325801367E+03  0.29706770232E+03  0.10000000000E+01 0.  0.
<mgrwt>
<rscale>  0 0.12500122E+03</rscale>
<asrwt>0</asrwt>
<pdfrwt beam="2">  1        4 0.35492116E-03 0.12500122E+03</pdfrwt>
<pdfrwt beam="1">  1       -4 0.26050133E+00 0.12500122E+03</pdfrwt>
<totfact> 0.14381647E+03</totfact>
</mgrwt>
</event>
<event>
 5    1  0.3183609E-002  0.1249998E+03  0.7818608E-02  0.1235070E+00
         -4   -1    0    0    0  501 -0.00000000000E+00  0.00000000000E+00  0.30073551437E+01  0.32645191009E+01  0.12700000000E+01 0. -1.
          4   -1    0    0  501    0  0.00000000000E+00 -0.00000000000E+00 -0.12453785266E+04  0.12453791742E+04  0.12700000000E+01 0. -1.
         25    2    1    2    0    0  0.00000000000E+00  0.00000000000E+00 -0.12423711715E+04  0.12486436933E+04  0.12499978016E+03 0.  0.
    9000005    1    3    3    0    0 -0.21246747789E+02  0.15966610946E+02 -0.11861592522E+04  0.11864573859E+04  0.10000000000E+01 0.  0.
    9000005    1    3    3    0    0  0.21246747789E+02 -0.15966610946E+02 -0.56211919232E+02  0.62186307339E+02  0.10000000000E+01 0.  0.
<mgrwt>
<rscale>  0 0.12499978E+03</rscale>
<asrwt>0</asrwt>
<pdfrwt beam="2">  1        4 0.19161613E+00 0.12499978E+03</pdfrwt>
<pdfrwt beam="1">  1       -4 0.48250267E-03 0.12499978E+03</pdfrwt>
<totfact> 0.23473966E+03</totfact>
</mgrwt>
</event>
<event>
 5    1  0.3183609E-002  0.1250025E+03  0.7818608E-02  0.1235065E+00
         -4   -1    0    0    0  501 -0.00000000000E+00  0.00000000000E+00  0.34159371465E+02  0.34182971768E+02  0.12700000000E+01 0. -1.
          4   -1    0    0  501    0  0.00000000000E+00 -0.00000000000E+00 -0.11429155830E+03  0.11429861416E+03  0.12700000000E+01 0. -1.
         25    2    1    2    0    0  0.00000000000E+00  0.00000000000E+00 -0.80132186839E+02  0.14848158593E+03  0.12500245595E+03 0.  0.
    9000005    1    3    3    0    0 -0.59856064211E+02 -0.55035761846E+01 -0.60376437470E+02  0.85201830821E+02  0.10000000000E+01 0.  0.
    9000005    1    3    3    0    0  0.59856064211E+02  0.55035761846E+01 -0.19755749368E+02  0.63279755110E+02  0.10000000000E+01 0.  0.
<mgrwt>
<rscale>  0 0.12500246E+03</rscale>
<asrwt>0</asrwt>
<pdfrwt beam="2">  1        4 0.17585675E-01 0.12500246E+03</pdfrwt>
<pdfrwt beam="1">  1       -4 0.52576461E-02 0.12500246E+03</pdfrwt>
<totfact> 0.99601730E+03</totfact>
</mgrwt>
</event>
<event>
 5    1  0.3183609E-002  0.1250018E+03  0.7818608E-02  0.1235066E+00
         -4   -1    0    0    0  501 -0.00000000000E+00  0.00000000000E+00  0.22564087309E+03  0.22564444710E+03  0.12700000000E+01 0.  1.
          4   -1    0    0  501    0  0.00000000000E+00 -0.00000000000E+00 -0.17285287027E+02  0.17331879517E+02  0.12700000000E+01 0.  1.
         25    2    1    2    0    0  0.00000000000E+00  0.00000000000E+00  0.20835558606E+03  0.24297632662E+03  0.12500178021E+03 0.  0.
    9000005    1    3    3    0    0 -0.33806808543E+02  0.52384132882E+02  0.95848148603E+02  0.11434537714E+03  0.10000000000E+01 0.  0.
    9000005    1    3    3    0    0  0.33806808543E+02 -0.52384132882E+02  0.11250743746E+03  0.12863094948E+03  0.10000000000E+01 0.  0.
<mgrwt>
<rscale>  0 0.12500178E+03</rscale>
<asrwt>0</asrwt>
<pdfrwt beam="2">  1        4 0.26631339E-02 0.12500178E+03</pdfrwt>
<pdfrwt beam="1">  1       -4 0.34717840E-01 0.12500178E+03</pdfrwt>
<totfact> 0.83352775E+03</totfact>
</mgrwt>
</event>
<event>
 5    1  0.3183609E-002  0.1249986E+03  0.7818608E-02  0.1235071E+00
          4   -1    0    0  501    0  0.00000000000E+00  0.00000000000E+00  0.43379818180E+03  0.43380004084E+03  0.12700000000E+01 0. -1.
         -4   -1    0    0    0  501 -0.00000000000E+00 -0.00000000000E+00 -0.89578983670E+01  0.90474771707E+01  0.12700000000E+01 0. -1.
         25    2    1    2    0    0  0.00000000000E+00  0.00000000000E+00  0.42484028343E+03  0.44284751801E+03  0.12499863112E+03 0.  0.
    9000005    1    3    3    0    0  0.48181204589E+02 -0.18321518312E+02  0.33758036553E+03  0.34149467009E+03  0.10000000000E+01 0.  0.
    9000005    1    3    3    0    0 -0.48181204589E+02  0.18321518312E+02  0.87259917897E+02  0.10135284791E+03  0.10000000000E+01 0.  0.
<mgrwt>
<rscale>  0 0.12499863E+03</rscale>
<asrwt>0</asrwt>
<pdfrwt beam="1">  1        4 0.66745198E-01 0.12499863E+03</pdfrwt>
<pdfrwt beam="2">  1       -4 0.13851723E-02 0.12499863E+03</pdfrwt>
<totfact> 0.60590295E+03</totfact>
</mgrwt>
</event>
<event>
 5    1  0.3183609E-002  0.1250020E+03  0.7818608E-02  0.1235066E+00
         -4   -1    0    0    0  501 -0.00000000000E+00  0.00000000000E+00  0.15526685347E+02  0.15578538374E+02  0.12700000000E+01 0.  1.
          4   -1    0    0  501    0  0.00000000000E+00 -0.00000000000E+00 -0.25111799656E+03  0.25112120798E+03  0.12700000000E+01 0.  1.
         25    2    1    2    0    0  0.00000000000E+00  0.00000000000E+00 -0.23559131121E+03  0.26669974635E+03  0.12500195512E+03 0.  0.
    9000005    1    3    3    0    0  0.27887267172E+02  0.16098331323E+02 -0.23206624159E+03  0.23429169091E+03  0.10000000000E+01 0.  0.
    9000005    1    3    3    0    0 -0.27887267172E+02 -0.16098331323E+02 -0.35250696194E+01  0.32408055442E+02  0.10000000000E+01 0.  0.
<mgrwt>
<rscale>  0 0.12500196E+03</rscale>
<asrwt>0</asrwt>
<pdfrwt beam="2">  1        4 0.38637771E-01 0.12500196E+03</pdfrwt>
<pdfrwt beam="1">  1       -4 0.23929567E-02 0.12500196E+03</pdfrwt>
<totfact> 0.79971467E+03</totfact>
</mgrwt>
</event>
<event>
 5    1  0.3183609E-002  0.1250048E+03  0.7818608E-02  0.1235062E+00
          4   -1    0    0  501    0  0.00000000000E+00  0.00000000000E+00  0.12623862403E+03  0.12624501217E+03  0.12700000000E+01 0.  1.
         -4   -1    0    0    0  501 -0.00000000000E+00 -0.00000000000E+00 -0.30925549029E+02  0.30951615188E+02  0.12700000000E+01 0.  1.
         25    2    1    2    0    0  0.00000000000E+00  0.00000000000E+00  0.95313075003E+02  0.15719662736E+03  0.12500478945E+03 0.  0.
    9000005    1    3    3    0    0  0.24956170737E+02 -0.46182079247E+02  0.90300434849E+02  0.10445459988E+03  0.10000000000E+01 0.  0.
    9000005    1    3    3    0    0 -0.24956170737E+02  0.46182079247E+02  0.50126401538E+01  0.52742027481E+02  0.10000000000E+01 0.  0.
<mgrwt>
<rscale>  0 0.12500479E+03</rscale>
<asrwt>0</asrwt>
<pdfrwt beam="1">  1        4 0.19423823E-01 0.12500479E+03</pdfrwt>
<pdfrwt beam="2">  1       -4 0.47602733E-02 0.12500479E+03</pdfrwt>
<totfact> 0.97875451E+03</totfact>
</mgrwt>
</event>
<event>
 5    1  0.3183609E-002  0.1250016E+03  0.7818608E-02  0.1235067E+00
          4   -1    0    0  501    0  0.00000000000E+00  0.00000000000E+00  0.33661668692E+02  0.33685617689E+02  0.12700000000E+01 0.  1.
         -4   -1    0    0    0  501 -0.00000000000E+00 -0.00000000000E+00 -0.11597878373E+03  0.11598573695E+03  0.12700000000E+01 0.  1.
         25    2    1    2    0    0  0.00000000000E+00  0.00000000000E+00 -0.82317115039E+02  0.14967135464E+03  0.12500162787E+03 0.  0.
    9000005    1    3    3    0    0 -0.42152301305E+02 -0.44339834883E+02 -0.25894542503E+02  0.66440686287E+02  0.10000000000E+01 0.  0.
    9000005    1    3    3    0    0  0.42152301305E+02  0.44339834883E+02 -0.56422572536E+02  0.83230668352E+02  0.10000000000E+01 0.  0.
<mgrwt>
<rscale>  0 0.12500163E+03</rscale>
<asrwt>0</asrwt>
<pdfrwt beam="1">  1        4 0.51810954E-02 0.12500163E+03</pdfrwt>
<pdfrwt beam="2">  1       -4 0.17845267E-01 0.12500163E+03</pdfrwt>
<totfact> 0.99365608E+03</totfact>
</mgrwt>
</event>
<event>
 5    1  0.3183609E-002  0.1250029E+03  0.7818608E-02  0.1235065E+00
          4   -1    0    0  501    0  0.00000000000E+00  0.00000000000E+00  0.37889798328E+02  0.37911076447E+02  0.12700000000E+01 0. -1.
         -4   -1    0    0    0  501 -0.00000000000E+00 -0.00000000000E+00 -0.10304576531E+03  0.10305359115E+03  0.12700000000E+01 0. -1.
         25    2    1    2    0    0  0.00000000000E+00  0.00000000000E+00 -0.65155966986E+02  0.14096466760E+03  0.12500294987E+03 0.  0.
    9000005    1    3    3    0    0  0.43932999629E+02  0.23289453368E+02  0.10109650516E+02  0.50751474148E+02  0.10000000000E+01 0.  0.
    9000005    1    3    3    0    0 -0.43932999629E+02 -0.23289453368E+02 -0.75265617501E+02  0.90213193450E+02  0.10000000000E+01 0.  0.
<mgrwt>
<rscale>  0 0.12500295E+03</rscale>
<asrwt>0</asrwt>
<pdfrwt beam="1">  1        4 0.58314386E-02 0.12500295E+03</pdfrwt>
<pdfrwt beam="2">  1       -4 0.15855433E-01 0.12500295E+03</pdfrwt>
<totfact> 0.10112960E+04</totfact>
</mgrwt>
</event>
<event>
 5    1  0.3183609E-002  0.1250033E+03  0.7818608E-02  0.1235064E+00
          4   -1    0    0  501    0  0.00000000000E+00  0.00000000000E+00  0.75873000879E+01  0.76928552972E+01  0.12700000000E+01 0. -1.
         -4   -1    0    0    0  501 -0.00000000000E+00 -0.00000000000E+00 -0.51120501742E+03  0.51120659497E+03  0.12700000000E+01 0. -1.
         25    2    1    2    0    0  0.00000000000E+00  0.00000000000E+00 -0.50361771733E+03  0.51889945026E+03  0.12500333704E+03 0.  0.
    9000005    1    3    3    0    0  0.29880669880E+02 -0.51083101079E+02 -0.16846391226E+03  0.17855931054E+03  0.10000000000E+01 0.  0.
    9000005    1    3    3    0    0 -0.29880669880E+02  0.51083101079E+02 -0.33515380508E+03  0.34034013972E+03  0.10000000000E+01 0.  0.
<mgrwt>
<rscale>  0 0.12500334E+03</rscale>
<asrwt>0</asrwt>
<pdfrwt beam="1">  1        4 0.11755183E-02 0.12500334E+03</pdfrwt>
<pdfrwt beam="2">  1       -4 0.78655140E-01 0.12500334E+03</pdfrwt>
<totfact> 0.54423270E+03</totfact>
</mgrwt>
</event>
<event>
 5    1  0.3183609E-002  0.1249995E+03  0.7818608E-02  0.1235070E+00
          4   -1    0    0  501    0  0.00000000000E+00  0.00000000000E+00  0.16126995323E+02  0.16176924249E+02  0.12700000000E+01 0.  1.
         -4   -1    0    0    0  501 -0.00000000000E+00 -0.00000000000E+00 -0.24179020555E+03  0.24179354086E+03  0.12700000000E+01 0.  1.
         25    2    1    2    0    0  0.00000000000E+00  0.00000000000E+00 -0.22566321023E+03  0.25797046510E+03  0.12499950567E+03 0.  0.
    9000005    1    3    3    0    0 -0.57846354246E+02 -0.10804241081E+02 -0.69429212613E+02  0.91018393135E+02  0.10000000000E+01 0.  0.
    9000005    1    3    3    0    0  0.57846354246E+02  0.10804241081E+02 -0.15623399761E+03  0.16695207197E+03  0.10000000000E+01 0.  0.
<mgrwt>
<rscale>  0 0.12499951E+03</rscale>
<asrwt>0</asrwt>
<pdfrwt beam="1">  1        4 0.24851736E-02 0.12499951E+03</pdfrwt>
<pdfrwt beam="2">  1       -4 0.37202588E-01 0.12499951E+03</pdfrwt>
<totfact> 0.81192618E+03</totfact>
</mgrwt>
</event>
<event>
 5    1  0.3183609E-002  0.1250086E+03  0.7818608E-02  0.1235056E+00
          4   -1    0    0  501    0  0.00000000000E+00  0.00000000000E+00  0.24223961522E+03  0.24224294434E+03  0.12700000000E+01 0. -1.
         -4   -1    0    0    0  501 -0.00000000000E+00 -0.00000000000E+00 -0.16099338623E+02  0.16149353055E+02  0.12700000000E+01 0. -1.
         25    2    1    2    0    0  0.00000000000E+00  0.00000000000E+00  0.22614027660E+03  0.25839229740E+03  0.12500861832E+03 0.  0.
    9000005    1    3    3    0    0  0.19522923395E+02 -0.58554236466E+02  0.92812996950E+02  0.11146746408E+03  0.10000000000E+01 0.  0.
    9000005    1    3    3    0    0 -0.19522923395E+02  0.58554236466E+02  0.13332727965E+03  0.14692483332E+03  0.10000000000E+01 0.  0.
<mgrwt>
<rscale>  0 0.12500862E+03</rscale>
<asrwt>0</asrwt>
<pdfrwt beam="1">  1        4 0.37271737E-01 0.12500862E+03</pdfrwt>
<pdfrwt beam="2">  1       -4 0.24809247E-02 0.12500862E+03</pdfrwt>
<totfact> 0.81116644E+03</totfact>
</mgrwt>
</event>
<event>
 5    1  0.3183609E-002  0.1249988E+03  0.7818608E-02  0.1235071E+00
          4   -1    0    0  501    0  0.00000000000E+00  0.00000000000E+00  0.64154813341E+02  0.64167382484E+02  0.12700000000E+01 0. -1.
         -4   -1    0    0    0  501 -0.00000000000E+00 -0.00000000000E+00 -0.60861504564E+02  0.60874753698E+02  0.12700000000E+01 0. -1.
         25    2    1    2    0    0  0.00000000000E+00  0.00000000000E+00  0.32933087769E+01  0.12504213618E+03  0.12499875975E+03 0.  0.
    9000005    1    3    3    0    0 -0.26329584047E+02  0.52677511686E+02 -0.19265270401E+02  0.61970298346E+02  0.10000000000E+01 0.  0.
    9000005    1    3    3    0    0  0.26329584047E+02 -0.52677511686E+02  0.22558579178E+02  0.63071837836E+02  0.10000000000E+01 0.  0.
<mgrwt>
<rscale>  0 0.12499876E+03</rscale>
<asrwt>0</asrwt>
<pdfrwt beam="1">  1        4 0.98719573E-02 0.12499876E+03</pdfrwt>
<pdfrwt beam="2">  1       -4 0.93652944E-02 0.12499876E+03</pdfrwt>
<totfact> 0.10452240E+04</totfact>
</mgrwt>
</event>
<event>
 5    1  0.3183609E-002  0.1249990E+03  0.7818608E-02  0.1235071E+00
         -4   -1    0    0    0  501 -0.00000000000E+00  0.00000000000E+00  0.38085541985E+02  0.38106710804E+02  0.12700000000E+01 0. -1.
          4   -1    0    0  501    0  0.00000000000E+00 -0.00000000000E+00 -0.10250987635E+03  0.10251774310E+03  0.12700000000E+01 0. -1.
         25    2    1    2    0    0  0.00000000000E+00  0.00000000000E+00 -0.64424334370E+02  0.14062445390E+03  0.12499896870E+03 0.  0.
    9000005    1    3    3    0    0  0.45157274327E+02  0.29288608041E+02  0.35088834833E+01  0.53947328469E+02  0.10000000000E+01 0.  0.
    9000005    1    3    3    0    0 -0.45157274327E+02 -0.29288608041E+02 -0.67933217853E+02  0.86677125434E+02  0.10000000000E+01 0.  0.
<mgrwt>
<rscale>  0 0.12499897E+03</rscale>
<asrwt>0</asrwt>
<pdfrwt beam="2">  1        4 0.15772984E-01 0.12499897E+03</pdfrwt>
<pdfrwt beam="1">  1       -4 0.58615477E-02 0.12499897E+03</pdfrwt>
<totfact> 0.10120895E+04</totfact>
</mgrwt>
</event>
<event>
 5    1  0.3183609E-002  0.1250031E+03  0.7818608E-02  0.1235064E+00
          4   -1    0    0  501    0  0.00000000000E+00  0.00000000000E+00  0.48342195176E+02  0.48358874412E+02  0.12700000000E+01 0.  1.
         -4   -1    0    0    0  501 -0.00000000000E+00 -0.00000000000E+00 -0.80772587533E+02  0.80782571120E+02  0.12700000000E+01 0.  1.
         25    2    1    2    0    0  0.00000000000E+00  0.00000000000E+00 -0.32430392357E+02  0.12914144553E+03  0.12500313038E+03 0.  0.
    9000005    1    3    3    0    0  0.34397686259E+02  0.51150529816E+02 -0.26845052084E+02  0.67240124493E+02  0.10000000000E+01 0.  0.
    9000005    1    3    3    0    0 -0.34397686259E+02 -0.51150529816E+02 -0.55853402730E+01  0.61901321039E+02  0.10000000000E+01 0.  0.
<mgrwt>
<rscale>  0 0.12500313E+03</rscale>
<asrwt>0</asrwt>
<pdfrwt beam="1">  1        4 0.74393118E-02 0.12500313E+03</pdfrwt>
<pdfrwt beam="2">  1       -4 0.12428603E-01 0.12500313E+03</pdfrwt>
<totfact> 0.10362176E+04</totfact>
</mgrwt>
</event>
<event>
 5    1  0.3183609E-002  0.1249944E+03  0.7818608E-02  0.1235078E+00
          4   -1    0    0  501    0  0.00000000000E+00  0.00000000000E+00  0.45162521974E+02  0.45180375066E+02  0.12700000000E+01 0.  1.
         -4   -1    0    0    0  501 -0.00000000000E+00 -0.00000000000E+00 -0.86445851870E+02  0.86455180328E+02  0.12700000000E+01 0.  1.
         25    2    1    2    0    0  0.00000000000E+00  0.00000000000E+00 -0.41283329896E+02  0.13163555539E+03  0.12499442434E+03 0.  0.
    9000005    1    3    3    0    0 -0.49866376290E+02 -0.37421990202E+02 -0.16193422558E+02  0.64422727116E+02  0.10000000000E+01 0.  0.
    9000005    1    3    3    0    0  0.49866376290E+02  0.37421990202E+02 -0.25089907338E+02  0.67212828278E+02  0.10000000000E+01 0.  0.
<mgrwt>
<rscale>  0 0.12499442E+03</rscale>
<asrwt>0</asrwt>
<pdfrwt beam="1">  1        4 0.69501712E-02 0.12499442E+03</pdfrwt>
<pdfrwt beam="2">  1       -4 0.13301453E-01 0.12499442E+03</pdfrwt>
<totfact> 0.10310780E+04</totfact>
</mgrwt>
</event>
<event>
 5    1  0.3183609E-002  0.1249952E+03  0.7818608E-02  0.1235077E+00
         -4   -1    0    0    0  501 -0.00000000000E+00  0.00000000000E+00  0.65354890223E+02  0.65367228609E+02  0.12700000000E+01 0.  1.
          4   -1    0    0  501    0  0.00000000000E+00 -0.00000000000E+00 -0.59740534602E+02  0.59754032287E+02  0.12700000000E+01 0.  1.
         25    2    1    2    0    0  0.00000000000E+00  0.00000000000E+00  0.56143556206E+01  0.12512126090E+03  0.12499523567E+03 0.  0.
    9000005    1    3    3    0    0 -0.42364507030E+02 -0.40258714915E+02  0.24952698561E+02  0.63554329105E+02  0.10000000000E+01 0.  0.
    9000005    1    3    3    0    0  0.42364507030E+02  0.40258714915E+02 -0.19338342940E+02  0.61566931791E+02  0.10000000000E+01 0.  0.
<mgrwt>
<rscale>  0 0.12499524E+03</rscale>
<asrwt>0</asrwt>
<pdfrwt beam="2">  1        4 0.91928388E-02 0.12499524E+03</pdfrwt>
<pdfrwt beam="1">  1       -4 0.10056586E-01 0.12499524E+03</pdfrwt>
<totfact> 0.10451355E+04</totfact>
</mgrwt>
</event>
<event>
 5    1  0.3183609E-002  0.1249845E+03  0.7818608E-02  0.1235094E+00
         -4   -1    0    0    0  501 -0.00000000000E+00  0.00000000000E+00  0.14168374706E+03  0.14168943884E+03  0.12700000000E+01 0. -1.
          4   -1    0    0  501    0  0.00000000000E+00 -0.00000000000E+00 -0.27542475663E+02  0.27571740345E+02  0.12700000000E+01 0. -1.
         25    2    1    2    0    0  0.00000000000E+00  0.00000000000E+00  0.11414127139E+03  0.16926117919E+03  0.12498446681E+03 0.  0.
    9000005    1    3    3    0    0  0.14456909576E+02 -0.54673125200E+02  0.21083892947E+02  0.60362930640E+02  0.10000000000E+01 0.  0.
    9000005    1    3    3    0    0 -0.14456909576E+02  0.54673125200E+02  0.93057378447E+02  0.10889824855E+03  0.10000000000E+01 0.  0.
<mgrwt>
<rscale>  0 0.12498447E+03</rscale>
<asrwt>0</asrwt>
<pdfrwt beam="2">  1        4 0.42399930E-02 0.12498447E+03</pdfrwt>
<pdfrwt beam="1">  1       -4 0.21800188E-01 0.12498447E+03</pdfrwt>
<totfact> 0.95619770E+03</totfact>
</mgrwt>
</event>
<event>
 5    1  0.3183609E-002  0.1250013E+03  0.7818608E-02  0.1235067E+00
         -4   -1    0    0    0  501 -0.00000000000E+00  0.00000000000E+00  0.45610203393E+02  0.45627881318E+02  0.12700000000E+01 0. -1.
          4   -1    0    0  501    0  0.00000000000E+00 -0.00000000000E+00 -0.85607015353E+02  0.85616435208E+02  0.12700000000E+01 0. -1.
         25    2    1    2    0    0  0.00000000000E+00  0.00000000000E+00 -0.39996811960E+02  0.13124431653E+03  0.12500130261E+03 0.  0.
    9000005    1    3    3    0    0  0.50624240012E+02  0.58043841629E+01  0.17986151092E+02  0.54046333672E+02  0.10000000000E+01 0.  0.
    9000005    1    3    3    0    0 -0.50624240012E+02 -0.58043841629E+01 -0.57982963052E+02  0.77197982853E+02  0.10000000000E+01 0.  0.
<mgrwt>
<rscale>  0 0.12500130E+03</rscale>
<asrwt>0</asrwt>
<pdfrwt beam="2">  1        4 0.13172394E-01 0.12500130E+03</pdfrwt>
<pdfrwt beam="1">  1       -4 0.70190388E-02 0.12500130E+03</pdfrwt>
<totfact> 0.10317551E+04</totfact>
</mgrwt>
</event>
<event>
 5    1  0.3183609E-002  0.1250024E+03  0.7818608E-02  0.1235066E+00
         -4   -1    0    0    0  501 -0.00000000000E+00  0.00000000000E+00  0.45170192887E+03  0.45170371422E+03  0.12700000000E+01 0.  1.
          4   -1    0    0  501    0  0.00000000000E+00 -0.00000000000E+00 -0.85997422827E+01  0.86930125577E+01  0.12700000000E+01 0.  1.
         25    2    1    2    0    0  0.00000000000E+00  0.00000000000E+00  0.44310218659E+03  0.46039672678E+03  0.12500239307E+03 0.  0.
    9000005    1    3    3    0    0  0.39741516451E+02 -0.46185841187E+02  0.17039976101E+03  0.18096850170E+03  0.10000000000E+01 0.  0.
    9000005    1    3    3    0    0 -0.39741516451E+02  0.46185841187E+02  0.27270242558E+03  0.27942822508E+03  0.10000000000E+01 0.  0.
<mgrwt>
<rscale>  0 0.12500239E+03</rscale>
<asrwt>0</asrwt>
<pdfrwt beam="2">  1        4 0.13303490E-02 0.12500239E+03</pdfrwt>
<pdfrwt beam="1">  1       -4 0.69499928E-01 0.12500239E+03</pdfrwt>
<totfact> 0.59070471E+03</totfact>
</mgrwt>
</event>
<event>
 5    1  0.3183609E-002  0.1249937E+03  0.7818608E-02  0.1235079E+00
         -4   -1    0    0    0  501 -0.00000000000E+00  0.00000000000E+00  0.13648426085E+03  0.13649016947E+03  0.12700000000E+01 0. -1.
          4   -1    0    0  501    0  0.00000000000E+00 -0.00000000000E+00 -0.28597016488E+02  0.28625203091E+02  0.12700000000E+01 0. -1.
         25    2    1    2    0    0  0.00000000000E+00  0.00000000000E+00  0.10788724437E+03  0.16511537256E+03  0.12499371487E+03 0.  0.
    9000005    1    3    3    0    0  0.35745908724E+02 -0.39592604865E+02  0.10945207382E+02  0.54462298107E+02  0.10000000000E+01 0.  0.
    9000005    1    3    3    0    0 -0.35745908724E+02  0.39592604865E+02  0.96942036984E+02  0.11065307445E+03  0.10000000000E+01 0.  0.
<mgrwt>
<rscale>  0 0.12499371E+03</rscale>
<asrwt>0</asrwt>
<pdfrwt beam="2">  1        4 0.44021637E-02 0.12499371E+03</pdfrwt>
<pdfrwt beam="1">  1       -4 0.21000201E-01 0.12499371E+03</pdfrwt>
<totfact> 0.96379154E+03</totfact>
</mgrwt>
</event>
<event>
 5    1  0.3183609E-002  0.1249915E+03  0.7818608E-02  0.1235083E+00
          4   -1    0    0  501    0  0.00000000000E+00  0.00000000000E+00  0.89617914641E+02  0.89626912948E+02  0.12700000000E+01 0. -1.
         -4   -1    0    0    0  501 -0.00000000000E+00 -0.00000000000E+00 -0.43561485026E+02  0.43579994007E+02  0.12700000000E+01 0. -1.
         25    2    1    2    0    0  0.00000000000E+00  0.00000000000E+00  0.46056429615E+02  0.13320690696E+03  0.12499154112E+03 0.  0.
    9000005    1    3    3    0    0  0.20245746650E+02 -0.34478137580E+02  0.74206315417E+02  0.84298336141E+02  0.10000000000E+01 0.  0.
    9000005    1    3    3    0    0 -0.20245746650E+02  0.34478137580E+02 -0.28149885802E+02  0.48908570814E+02  0.10000000000E+01 0.  0.
<mgrwt>
<rscale>  0 0.12499154E+03</rscale>
<asrwt>0</asrwt>
<pdfrwt beam="1">  1        4 0.13789487E-01 0.12499154E+03</pdfrwt>
<pdfrwt beam="2">  1       -4 0.67038829E-02 0.12499154E+03</pdfrwt>
<totfact> 0.10277965E+04</totfact>
</mgrwt>
</event>
<event>
 5    1  0.3183609E-002  0.1250440E+03  0.7818608E-02  0.1235001E+00
          4   -1    0    0  501    0  0.00000000000E+00  0.00000000000E+00  0.13408408242E+03  0.13409009680E+03  0.12700000000E+01 0. -1.
         -4   -1    0    0    0  501 -0.00000000000E+00 -0.00000000000E+00 -0.29132828029E+02  0.29160496721E+02  0.12700000000E+01 0. -1.
         25    2    1    2    0    0  0.00000000000E+00  0.00000000000E+00  0.10495125439E+03  0.16325059352E+03  0.12504395421E+03 0.  0.
    9000005    1    3    3    0    0 -0.35676025846E+02 -0.32140184593E+02  0.21746426427E+00  0.48029340788E+02  0.10000000000E+01 0.  0.
    9000005    1    3    3    0    0  0.35676025846E+02  0.32140184593E+02  0.10473379013E+03  0.11522125273E+03  0.10000000000E+01 0.  0.
<mgrwt>
<rscale>  0 0.12504395E+03</rscale>
<asrwt>0</asrwt>
<pdfrwt beam="1">  1        4 0.20630911E-01 0.12504395E+03</pdfrwt>
<pdfrwt beam="2">  1       -4 0.44845646E-02 0.12504395E+03</pdfrwt>
<totfact> 0.96624272E+03</totfact>
</mgrwt>
</event>
<event>
 5    1  0.3183609E-002  0.1250030E+03  0.7818608E-02  0.1235065E+00
         -4   -1    0    0    0  501 -0.00000000000E+00  0.00000000000E+00  0.83367898258E+02  0.83377571085E+02  0.12700000000E+01 0.  1.
          4   -1    0    0  501    0  0.00000000000E+00 -0.00000000000E+00 -0.46836838262E+02  0.46854053382E+02  0.12700000000E+01 0.  1.
         25    2    1    2    0    0  0.00000000000E+00  0.00000000000E+00  0.36531059996E+02  0.13023162447E+03  0.12500303063E+03 0.  0.
    9000005    1    3    3    0    0  0.96211009285E+01  0.16410854410E+02 -0.43752171924E+02  0.47719328092E+02  0.10000000000E+01 0.  0.
    9000005    1    3    3    0    0 -0.96211009285E+01 -0.16410854410E+02  0.80283231920E+02  0.82512296375E+02  0.10000000000E+01 0.  0.
<mgrwt>
<rscale>  0 0.12500303E+03</rscale>
<asrwt>0</asrwt>
<pdfrwt beam="2">  1        4 0.72077357E-02 0.12500303E+03</pdfrwt>
<pdfrwt beam="1">  1       -4 0.12827899E-01 0.12500303E+03</pdfrwt>
<totfact> 0.10338848E+04</totfact>
</mgrwt>
</event>
<event>
 5    1  0.3183609E-002  0.1249970E+03  0.7818608E-02  0.1235074E+00
          4   -1    0    0  501    0  0.00000000000E+00  0.00000000000E+00  0.11591508493E+03  0.11592204197E+03  0.12700000000E+01 0. -1.
         -4   -1    0    0    0  501 -0.00000000000E+00 -0.00000000000E+00 -0.33677669064E+02  0.33701606691E+02  0.12700000000E+01 0. -1.
         25    2    1    2    0    0  0.00000000000E+00  0.00000000000E+00  0.82237415862E+02  0.14962364866E+03  0.12499697464E+03 0.  0.
    9000005    1    3    3    0    0 -0.25249368383E+02  0.56365282314E+02  0.52505192626E+02  0.81070160397E+02  0.10000000000E+01 0.  0.
    9000005    1    3    3    0    0  0.25249368383E+02 -0.56365282314E+02  0.29732223237E+02  0.68553488260E+02  0.10000000000E+01 0.  0.
<mgrwt>
<rscale>  0 0.12499697E+03</rscale>
<asrwt>0</asrwt>
<pdfrwt beam="1">  1        4 0.17835466E-01 0.12499697E+03</pdfrwt>
<pdfrwt beam="2">  1       -4 0.51835564E-02 0.12499697E+03</pdfrwt>
<totfact> 0.99385538E+03</totfact>
</mgrwt>
</event>
<event>
 5    1  0.3183609E-002  0.1249975E+03  0.7818608E-02  0.1235073E+00
          4   -1    0    0  501    0  0.00000000000E+00  0.00000000000E+00  0.13283729623E+03  0.13284336705E+03  0.12700000000E+01 0.  1.
         -4   -1    0    0    0  501 -0.00000000000E+00 -0.00000000000E+00 -0.29384635475E+02  0.29412067285E+02  0.12700000000E+01 0.  1.
         25    2    1    2    0    0  0.00000000000E+00  0.00000000000E+00  0.10345266076E+03  0.16225543434E+03  0.12499749179E+03 0.  0.
    9000005    1    3    3    0    0  0.80490783948E+01 -0.49824180810E+02  0.99559031223E+02  0.11162543328E+03  0.10000000000E+01 0.  0.
    9000005    1    3    3    0    0 -0.80490783948E+01  0.49824180810E+02  0.38936295333E+01  0.50630001060E+02  0.10000000000E+01 0.  0.
<mgrwt>
<rscale>  0 0.12499749E+03</rscale>
<asrwt>0</asrwt>
<pdfrwt beam="1">  1        4 0.20439084E-01 0.12499749E+03</pdfrwt>
<pdfrwt beam="2">  1       -4 0.45232904E-02 0.12499749E+03</pdfrwt>
<totfact> 0.96915172E+03</totfact>
</mgrwt>
</event>
<event>
 5    1  0.3183609E-002  0.1250013E+03  0.7818608E-02  0.1235067E+00
          4   -1    0    0  501    0  0.00000000000E+00  0.00000000000E+00  0.10768945506E+02  0.10843573549E+02  0.12700000000E+01 0. -1.
         -4   -1    0    0    0  501 -0.00000000000E+00 -0.00000000000E+00 -0.36141194238E+03  0.36141417376E+03  0.12700000000E+01 0. -1.
         25    2    1    2    0    0  0.00000000000E+00  0.00000000000E+00 -0.35064299688E+03  0.37225774731E+03  0.12500127669E+03 0.  0.
    9000005    1    3    3    0    0  0.52988432524E+02  0.24301651963E+02 -0.24237586680E+03  0.24928980139E+03  0.10000000000E+01 0.  0.
    9000005    1    3    3    0    0 -0.52988432524E+02 -0.24301651963E+02 -0.10826713008E+03  0.12296794592E+03  0.10000000000E+01 0.  0.
<mgrwt>
<rscale>  0 0.12500128E+03</rscale>
<asrwt>0</asrwt>
<pdfrwt beam="1">  1        4 0.16626734E-02 0.12500128E+03</pdfrwt>
<pdfrwt beam="2">  1       -4 0.55607740E-01 0.12500128E+03</pdfrwt>
<totfact> 0.67341498E+03</totfact>
</mgrwt>
</event>
<event>
 5    1  0.3183609E-002  0.1250038E+03  0.7818608E-02  0.1235063E+00
         -4   -1    0    0    0  501 -0.00000000000E+00  0.00000000000E+00  0.20612772563E+03  0.20613163797E+03  0.12700000000E+01 0.  1.
          4   -1    0    0  501    0  0.00000000000E+00 -0.00000000000E+00 -0.18926397058E+02  0.18968959002E+02  0.12700000000E+01 0.  1.
         25    2    1    2    0    0  0.00000000000E+00  0.00000000000E+00  0.18720132857E+03  0.22510059698E+03  0.12500376530E+03 0.  0.
    9000005    1    3    3    0    0  0.57671786746E+00 -0.47114174922E+02  0.16752815769E+03  0.17403092168E+03  0.10000000000E+01 0.  0.
    9000005    1    3    3    0    0 -0.57671786746E+00  0.47114174922E+02  0.19673170881E+02  0.51069675293E+02  0.10000000000E+01 0.  0.
<mgrwt>
<rscale>  0 0.12500377E+03</rscale>
<asrwt>0</asrwt>
<pdfrwt beam="2">  1        4 0.29153283E-02 0.12500377E+03</pdfrwt>
<pdfrwt beam="1">  1       -4 0.31715533E-01 0.12500377E+03</pdfrwt>
<totfact> 0.86060390E+03</totfact>
</mgrwt>
</event>
<event>
 5    1  0.3183609E-002  0.1250004E+03  0.7818608E-02  0.1235069E+00
          4   -1    0    0  501    0  0.00000000000E+00  0.00000000000E+00  0.50700470650E+01  0.52266889367E+01  0.12700000000E+01 0.  1.
         -4   -1    0    0    0  501 -0.00000000000E+00 -0.00000000000E+00 -0.75858349767E+03  0.75858456077E+03  0.12700000000E+01 0.  1.
         25    2    1    2    0    0  0.00000000000E+00  0.00000000000E+00 -0.75351345060E+03  0.76381124970E+03  0.12500041974E+03 0.  0.
    9000005    1    3    3    0    0  0.29737364914E+02  0.49963964103E+02 -0.23680594236E+03  0.24384167592E+03  0.10000000000E+01 0.  0.
    9000005    1    3    3    0    0 -0.29737364914E+02 -0.49963964103E+02 -0.51670750824E+03  0.51996957378E+03  0.10000000000E+01 0.  0.
<mgrwt>
<rscale>  0 0.12500042E+03</rscale>
<asrwt>0</asrwt>
<pdfrwt beam="1">  1        4 0.79213900E-03 0.12500042E+03</pdfrwt>
<pdfrwt beam="2">  1       -4 0.11671720E+00 0.12500042E+03</pdfrwt>
<totfact> 0.39921758E+03</totfact>
</mgrwt>
</event>
<event>
 5    1  0.3183609E-002  0.1249982E+03  0.7818608E-02  0.1235072E+00
         -4   -1    0    0    0  501 -0.00000000000E+00  0.00000000000E+00  0.46285955029E+03  0.46286129261E+03  0.12700000000E+01 0. -1.
          4   -1    0    0  501    0  0.00000000000E+00 -0.00000000000E+00 -0.83895927015E+01  0.84851732862E+01  0.12700000000E+01 0. -1.
         25    2    1    2    0    0  0.00000000000E+00  0.00000000000E+00  0.45446995759E+03  0.47134646589E+03  0.12499819423E+03 0.  0.
    9000005    1    3    3    0    0 -0.50311541186E+02 -0.81621944863E+00  0.87499548555E+02  0.10094101440E+03  0.10000000000E+01 0.  0.
    9000005    1    3    3    0    0  0.50311541186E+02  0.81621944863E+00  0.36697040903E+03  0.37040545149E+03  0.10000000000E+01 0.  0.
<mgrwt>
<rscale>  0 0.12499819E+03</rscale>
<asrwt>0</asrwt>
<pdfrwt beam="2">  1        4 0.12981922E-02 0.12499819E+03</pdfrwt>
<pdfrwt beam="1">  1       -4 0.71216689E-01 0.12499819E+03</pdfrwt>
<totfact> 0.58160436E+03</totfact>
</mgrwt>
</event>
<event>
 5    1  0.3183609E-002  0.1249972E+03  0.7818608E-02  0.1235074E+00
          4   -1    0    0  501    0  0.00000000000E+00  0.00000000000E+00  0.48481320060E+02  0.48497951449E+02  0.12700000000E+01 0.  1.
         -4   -1    0    0    0  501 -0.00000000000E+00 -0.00000000000E+00 -0.80533221180E+02  0.80543234437E+02  0.12700000000E+01 0.  1.
         25    2    1    2    0    0  0.00000000000E+00  0.00000000000E+00 -0.32051901120E+02  0.12904118589E+03  0.12499721313E+03 0.  0.
    9000005    1    3    3    0    0 -0.43275165508E+02 -0.12210383261E+02  0.28774370720E+02  0.53392863002E+02  0.10000000000E+01 0.  0.
    9000005    1    3    3    0    0  0.43275165508E+02  0.12210383261E+02 -0.60826271841E+02  0.75648322884E+02  0.10000000000E+01 0.  0.
<mgrwt>
<rscale>  0 0.12499721E+03</rscale>
<asrwt>0</asrwt>
<pdfrwt beam="1">  1        4 0.74607142E-02 0.12499721E+03</pdfrwt>
<pdfrwt beam="2">  1       -4 0.12391776E-01 0.12499721E+03</pdfrwt>
<totfact> 0.10365714E+04</totfact>
</mgrwt>
</event>
<event>
 5    1  0.3183609E-002  0.1250027E+03  0.7818608E-02  0.1235065E+00
         -4   -1    0    0    0  501 -0.00000000000E+00  0.00000000000E+00  0.11804891911E+02  0.11873010277E+02  0.12700000000E+01 0.  1.
          4   -1    0    0  501    0  0.00000000000E+00 -0.00000000000E+00 -0.32989378978E+03  0.32989623435E+03  0.12700000000E+01 0.  1.
         25    2    1    2    0    0  0.00000000000E+00  0.00000000000E+00 -0.31808889787E+03  0.34176924463E+03  0.12500267846E+03 0.  0.
    9000005    1    3    3    0    0 -0.16401937289E+02 -0.27407905067E+02 -0.30590382086E+03  0.30756847111E+03  0.10000000000E+01 0.  0.
    9000005    1    3    3    0    0  0.16401937289E+02  0.27407905067E+02 -0.12185077013E+02  0.34200773512E+02  0.10000000000E+01 0.  0.
<mgrwt>
<rscale>  0 0.12500268E+03</rscale>
<asrwt>0</asrwt>
<pdfrwt beam="2">  1        4 0.50758312E-01 0.12500268E+03</pdfrwt>
<pdfrwt beam="1">  1       -4 0.18215654E-02 0.12500268E+03</pdfrwt>
<totfact> 0.70635447E+03</totfact>
</mgrwt>
</event>
<event>
 5    1  0.3183609E-002  0.1250040E+03  0.7818608E-02  0.1235063E+00
         -4   -1    0    0    0  501 -0.00000000000E+00  0.00000000000E+00  0.60968333969E+03  0.60968466242E+03  0.12700000000E+01 0. -1.
          4   -1    0    0  501    0  0.00000000000E+00 -0.00000000000E+00 -0.63431517270E+01  0.64690396375E+01  0.12700000000E+01 0. -1.
         25    2    1    2    0    0  0.00000000000E+00  0.00000000000E+00  0.60334018796E+03  0.61615370206E+03  0.12500400855E+03 0.  0.
    9000005    1    3    3    0    0 -0.29676108585E+02 -0.54272598975E+02  0.25777253491E+03  0.26509218429E+03  0.10000000000E+01 0.  0.
    9000005    1    3    3    0    0  0.29676108585E+02  0.54272598975E+02  0.34556765305E+03  0.35106151777E+03  0.10000000000E+01 0.  0.
<mgrwt>
<rscale>  0 0.12500401E+03</rscale>
<asrwt>0</asrwt>
<pdfrwt beam="2">  1        4 0.98565484E-03 0.12500401E+03</pdfrwt>
<pdfrwt beam="1">  1       -4 0.93807231E-01 0.12500401E+03</pdfrwt>
<totfact> 0.47859355E+03</totfact>
</mgrwt>
</event>
<event>
 5    1  0.3183609E-002  0.1250092E+03  0.7818608E-02  0.1235055E+00
         -4   -1    0    0    0  501 -0.00000000000E+00  0.00000000000E+00  0.25603398111E+02  0.25634876532E+02  0.12700000000E+01 0.  1.
          4   -1    0    0  501    0  0.00000000000E+00 -0.00000000000E+00 -0.15246231370E+03  0.15246760311E+03  0.12700000000E+01 0.  1.
         25    2    1    2    0    0  0.00000000000E+00  0.00000000000E+00 -0.12685891559E+03  0.17810247964E+03  0.12500923482E+03 0.  0.
    9000005    1    3    3    0    0  0.27919596561E+02  0.31629764553E-01  0.16231357164E+02  0.32310398140E+02  0.10000000000E+01 0.  0.
    9000005    1    3    3    0    0 -0.27919596561E+02 -0.31629764553E-01 -0.14309027275E+03  0.14579208150E+03  0.10000000000E+01 0.  0.
<mgrwt>
<rscale>  0 0.12500923E+03</rscale>
<asrwt>0</asrwt>
<pdfrwt beam="2">  1        4 0.23458568E-01 0.12500923E+03</pdfrwt>
<pdfrwt beam="1">  1       -4 0.39418127E-02 0.12500923E+03</pdfrwt>
<totfact> 0.93940226E+03</totfact>
</mgrwt>
</event>
<event>
 5    1  0.3183609E-002  0.1250019E+03  0.7818608E-02  0.1235066E+00
          4   -1    0    0  501    0  0.00000000000E+00  0.00000000000E+00  0.11814686139E+02  0.11882748359E+02  0.12700000000E+01 0. -1.
         -4   -1    0    0    0  501 -0.00000000000E+00 -0.00000000000E+00 -0.32961798445E+03  0.32962043106E+03  0.12700000000E+01 0. -1.
         25    2    1    2    0    0  0.00000000000E+00  0.00000000000E+00 -0.31780329831E+03  0.34150317942E+03  0.12500194053E+03 0.  0.
    9000005    1    3    3    0    0  0.99539595009E+01 -0.84676598583E+01 -0.32585663240E+03  0.32612011200E+03  0.10000000000E+01 0.  0.
    9000005    1    3    3    0    0 -0.99539595009E+01  0.84676598583E+01  0.80533340891E+01  0.15383067417E+02  0.10000000000E+01 0.  0.
<mgrwt>
<rscale>  0 0.12500194E+03</rscale>
<asrwt>0</asrwt>
<pdfrwt beam="1">  1        4 0.18230680E-02 0.12500194E+03</pdfrwt>
<pdfrwt beam="2">  1       -4 0.50715876E-01 0.12500194E+03</pdfrwt>
<totfact> 0.70666504E+03</totfact>
</mgrwt>
</event>
<event>
 5    1  0.3183609E-002  0.1250005E+03  0.7818608E-02  0.1235068E+00
         -4   -1    0    0    0  501 -0.00000000000E+00  0.00000000000E+00  0.53655129029E+02  0.53670157175E+02  0.12700000000E+01 0. -1.
          4   -1    0    0  501    0  0.00000000000E+00 -0.00000000000E+00 -0.72772766514E+02  0.72783847426E+02  0.12700000000E+01 0. -1.
         25    2    1    2    0    0  0.00000000000E+00  0.00000000000E+00 -0.19117637484E+02  0.12645400460E+03  0.12500052486E+03 0.  0.
    9000005    1    3    3    0    0 -0.21765510996E+02 -0.67897392261E+01 -0.68419951781E+02  0.72125777842E+02  0.10000000000E+01 0.  0.
    9000005    1    3    3    0    0  0.21765510996E+02  0.67897392261E+01  0.49302314296E+02  0.54328226758E+02  0.10000000000E+01 0.  0.
<mgrwt>
<rscale>  0 0.12500052E+03</rscale>
<asrwt>0</asrwt>
<pdfrwt beam="2">  1        4 0.11197819E-01 0.12500052E+03</pdfrwt>
<pdfrwt beam="1">  1       -4 0.82566436E-02 0.12500052E+03</pdfrwt>
<totfact> 0.10420908E+04</totfact>
</mgrwt>
</event>
<event>
 5    1  0.3183609E-002  0.1250016E+03  0.7818608E-02  0.1235067E+00
         -4   -1    0    0    0  501 -0.00000000000E+00  0.00000000000E+00  0.17480781584E+03  0.17481242913E+03  0.12700000000E+01 0.  1.
          4   -1    0    0  501    0  0.00000000000E+00 -0.00000000000E+00 -0.22323589912E+02  0.22359686191E+02  0.12700000000E+01 0.  1.
         25    2    1    2    0    0  0.00000000000E+00  0.00000000000E+00  0.15248422593E+03  0.19717211532E+03  0.12500161560E+03 0.  0.
    9000005    1    3    3    0    0  0.35248181235E+02 -0.31009860096E+02  0.11181074116E+02  0.48270717023E+02  0.10000000000E+01 0.  0.
    9000005    1    3    3    0    0 -0.35248181235E+02  0.31009860096E+02  0.14130315181E+03  0.14890139830E+03  0.10000000000E+01 0.  0.
<mgrwt>
<rscale>  0 0.12500162E+03</rscale>
<asrwt>0</asrwt>
<pdfrwt beam="2">  1        4 0.34375300E-02 0.12500162E+03</pdfrwt>
<pdfrwt beam="1">  1       -4 0.26896641E-01 0.12500162E+03</pdfrwt>
<totfact> 0.90610871E+03</totfact>
</mgrwt>
</event>
<event>
 5    1  0.3183609E-002  0.1250002E+03  0.7818608E-02  0.1235069E+00
          4   -1    0    0  501    0  0.00000000000E+00  0.00000000000E+00  0.37236271798E+03  0.37236488374E+03  0.12700000000E+01 0. -1.
         -4   -1    0    0    0  501 -0.00000000000E+00 -0.00000000000E+00 -0.10449827740E+02  0.10526718378E+02  0.12700000000E+01 0. -1.
         25    2    1    2    0    0  0.00000000000E+00  0.00000000000E+00  0.36191289024E+03  0.38289160212E+03  0.12500015540E+03 0.  0.
    9000005    1    3    3    0    0  0.25069155336E+02 -0.33098901828E+02  0.37896191031E+02  0.56223848553E+02  0.10000000000E+01 0.  0.
    9000005    1    3    3    0    0 -0.25069155336E+02  0.33098901828E+02  0.32401669921E+03  0.32666775357E+03  0.10000000000E+01 0.  0.
<mgrwt>
<rscale>  0 0.12500016E+03</rscale>
<asrwt>0</asrwt>
<pdfrwt beam="1">  1        4 0.57292655E-01 0.12500016E+03</pdfrwt>
<pdfrwt beam="2">  1       -4 0.16137470E-02 0.12500016E+03</pdfrwt>
<totfact> 0.66251223E+03</totfact>
</mgrwt>
</event>
<event>
 5    1  0.3183609E-002  0.1250019E+03  0.7818608E-02  0.1235066E+00
         -4   -1    0    0    0  501 -0.00000000000E+00  0.00000000000E+00  0.11561941534E+02  0.11631482796E+02  0.12700000000E+01 0.  1.
          4   -1    0    0  501    0  0.00000000000E+00 -0.00000000000E+00 -0.33678061420E+03  0.33678300878E+03  0.12700000000E+01 0.  1.
         25    2    1    2    0    0  0.00000000000E+00  0.00000000000E+00 -0.32521867267E+03  0.34841449158E+03  0.12500189154E+03 0.  0.
    9000005    1    3    3    0    0  0.60644315967E+01  0.61937301585E+02 -0.14675330940E+03  0.15940683950E+03  0.10000000000E+01 0.  0.
    9000005    1    3    3    0    0 -0.60644315967E+01 -0.61937301585E+02 -0.17846536327E+03  0.18900765208E+03  0.10000000000E+01 0.  0.
<mgrwt>
<rscale>  0 0.12500189E+03</rscale>
<asrwt>0</asrwt>
<pdfrwt beam="2">  1        4 0.51817928E-01 0.12500189E+03</pdfrwt>
<pdfrwt beam="1">  1       -4 0.17842940E-02 0.12500189E+03</pdfrwt>
<totfact> 0.69896411E+03</totfact>
</mgrwt>
</event>
<event>
 5    1  0.3183609E-002  0.1249996E+03  0.7818608E-02  0.1235070E+00
          4   -1    0    0  501    0  0.00000000000E+00  0.00000000000E+00  0.28342679149E+02  0.28371118436E+02  0.12700000000E+01 0. -1.
         -4   -1    0    0    0  501 -0.00000000000E+00 -0.00000000000E+00 -0.13772087590E+03  0.13772673146E+03  0.12700000000E+01 0. -1.
         25    2    1    2    0    0  0.00000000000E+00  0.00000000000E+00 -0.10937819675E+03  0.16609784990E+03  0.12499962326E+03 0.  0.
    9000005    1    3    3    0    0 -0.53988471364E+02  0.19883690767E+02 -0.87104695323E+02  0.10439513469E+03  0.10000000000E+01 0.  0.
    9000005    1    3    3    0    0  0.53988471364E+02 -0.19883690767E+02 -0.22273501431E+02  0.61702715214E+02  0.10000000000E+01 0.  0.
<mgrwt>
<rscale>  0 0.12499962E+03</rscale>
<asrwt>0</asrwt>
<pdfrwt beam="1">  1        4 0.43630503E-02 0.12499962E+03</pdfrwt>
<pdfrwt beam="2">  1       -4 0.21190465E-01 0.12499962E+03</pdfrwt>
<totfact> 0.96180694E+03</totfact>
</mgrwt>
</event>
<event>
 5    1  0.3183609E-002  0.1250001E+03  0.7818608E-02  0.1235069E+00
         -4   -1    0    0    0  501 -0.00000000000E+00  0.00000000000E+00  0.17994677704E+03  0.17995125859E+03  0.12700000000E+01 0. -1.
          4   -1    0    0  501    0  0.00000000000E+00 -0.00000000000E+00 -0.21684507275E+02  0.21721665585E+02  0.12700000000E+01 0. -1.
         25    2    1    2    0    0  0.00000000000E+00  0.00000000000E+00  0.15826226977E+03  0.20167292418E+03  0.12500008925E+03 0.  0.
    9000005    1    3    3    0    0 -0.42599664379E+02 -0.25055580840E+02  0.17426022971E+02  0.52413546083E+02  0.10000000000E+01 0.  0.
    9000005    1    3    3    0    0  0.42599664379E+02  0.25055580840E+02  0.14083624680E+03  0.14925937809E+03  0.10000000000E+01 0.  0.
<mgrwt>
<rscale>  0 0.12500009E+03</rscale>
<asrwt>0</asrwt>
<pdfrwt beam="2">  1        4 0.33392810E-02 0.12500009E+03</pdfrwt>
<pdfrwt beam="1">  1       -4 0.27687324E-01 0.12500009E+03</pdfrwt>
<totfact> 0.89853938E+03</totfact>
</mgrwt>
</event>
<event>
 5    1  0.3183609E-002  0.1250006E+03  0.7818608E-02  0.1235068E+00
         -4   -1    0    0    0  501 -0.00000000000E+00  0.00000000000E+00  0.66210893296E+02  0.66223072196E+02  0.12700000000E+01 0.  1.
          4   -1    0    0  501    0  0.00000000000E+00 -0.00000000000E+00 -0.58973223946E+02  0.58986897211E+02  0.12700000000E+01 0.  1.
         25    2    1    2    0    0  0.00000000000E+00  0.00000000000E+00  0.72376693500E+01  0.12520996941E+03  0.12500061032E+03 0.  0.
    9000005    1    3    3    0    0 -0.30469335887E+02 -0.64641027358E+01 -0.50648680398E+02  0.59468091273E+02  0.10000000000E+01 0.  0.
    9000005    1    3    3    0    0  0.30469335887E+02  0.64641027358E+01  0.57886349748E+02  0.65741878135E+02  0.10000000000E+01 0.  0.
<mgrwt>
<rscale>  0 0.12500061E+03</rscale>
<asrwt>0</asrwt>
<pdfrwt beam="2">  1        4 0.90747924E-02 0.12500061E+03</pdfrwt>
<pdfrwt beam="1">  1       -4 0.10188280E-01 0.12500061E+03</pdfrwt>
<totfact> 0.10448160E+04</totfact>
</mgrwt>
</event>
<event>
 4    1  0.3183609E-002  0.1249221E+03  0.7818608E-02  0.1235191E+00
          4   -1    0    0  501    0  0.00000000000E+00  0.00000000000E+00  0.18597279625E+03  0.18597713259E+03  0.12700000000E+01 0.  1.
         -4   -1    0    0    0  501 -0.00000000000E+00 -0.00000000000E+00 -0.20954434187E+02  0.20992884797E+02  0.12700000000E+01 0.  1.
    9000005    1    1    2    0    0 -0.15154398556E+02  0.27852860781E+02 -0.66340382030E+01  0.32410617275E+02  0.10000000000E+01 0.  0.
    9000005    1    1    2    0    0  0.15154398556E+02 -0.27852860781E+02  0.17165240027E+03  0.17455940011E+03  0.10000000000E+01 0.  0.
<mgrwt>
<rscale>  0 0.12492209E+03</rscale>
<asrwt>0</asrwt>
<pdfrwt beam="1">  1        4 0.28614492E-01 0.12492209E+03</pdfrwt>
<pdfrwt beam="2">  1       -4 0.32270503E-02 0.12492209E+03</pdfrwt>
<totfact> 0.89128315E+03</totfact>
</mgrwt>
</event>
<event>
 5    1  0.3183609E-002  0.1250052E+03  0.7818608E-02  0.1235061E+00
          4   -1    0    0  501    0  0.00000000000E+00  0.00000000000E+00  0.44693941062E+01  0.46463301300E+01  0.12700000000E+01 0.  1.
         -4   -1    0    0    0  501 -0.00000000000E+00 -0.00000000000E+00 -0.85692975833E+03  0.85693069942E+03  0.12700000000E+01 0.  1.
         25    2    1    2    0    0  0.00000000000E+00  0.00000000000E+00 -0.85246036423E+03  0.86157702955E+03  0.12500522101E+03 0.  0.
    9000005    1    3    3    0    0 -0.27259762851E+02  0.29326224051E+01 -0.39160962655E+02  0.47815017943E+02  0.10000000000E+01 0.  0.
    9000005    1    3    3    0    0  0.27259762851E+02 -0.29326224051E+01 -0.81329940157E+03  0.81376201161E+03  0.10000000000E+01 0.  0.
<mgrwt>
<rscale>  0 0.12500522E+03</rscale>
<asrwt>0</asrwt>
<pdfrwt beam="1">  1        4 0.70128263E-03 0.12500522E+03</pdfrwt>
<pdfrwt beam="2">  1       -4 0.13184890E+00 0.12500522E+03</pdfrwt>
<totfact> 0.35654177E+03</totfact>
</mgrwt>
</event>
<event>
 5    1  0.3183609E-002  0.1249982E+03  0.7818608E-02  0.1235072E+00
         -4   -1    0    0    0  501 -0.00000000000E+00  0.00000000000E+00  0.28388231560E+02  0.28416625259E+02  0.12700000000E+01 0.  1.
          4   -1    0    0  501    0  0.00000000000E+00 -0.00000000000E+00 -0.13749686827E+03  0.13750273337E+03  0.12700000000E+01 0.  1.
         25    2    1    2    0    0  0.00000000000E+00  0.00000000000E+00 -0.10910863671E+03  0.16591935862E+03  0.12499815584E+03 0.  0.
    9000005    1    3    3    0    0 -0.18467523142E+02  0.50728174778E+02 -0.12773900395E+02  0.55484859724E+02  0.10000000000E+01 0.  0.
    9000005    1    3    3    0    0  0.18467523142E+02 -0.50728174778E+02 -0.96334736311E+02  0.11043449890E+03  0.10000000000E+01 0.  0.
<mgrwt>
<rscale>  0 0.12499816E+03</rscale>
<asrwt>0</asrwt>
<pdfrwt beam="2">  1        4 0.21155999E-01 0.12499816E+03</pdfrwt>
<pdfrwt beam="1">  1       -4 0.43700556E-02 0.12499816E+03</pdfrwt>
<totfact> 0.96217549E+03</totfact>
</mgrwt>
</event>
<event>
 5    1  0.3183609E-002  0.1249996E+03  0.7818608E-02  0.1235070E+00
         -4   -1    0    0    0  501 -0.00000000000E+00  0.00000000000E+00  0.41626973928E+01  0.43521201252E+01  0.12700000000E+01 0.  1.
          4   -1    0    0  501    0  0.00000000000E+00 -0.00000000000E+00 -0.91732228656E+03  0.91732316570E+03  0.12700000000E+01 0.  1.
         25    2    1    2    0    0  0.00000000000E+00  0.00000000000E+00 -0.91315958917E+03  0.92167528582E+03  0.12499958881E+03 0.  0.
    9000005    1    3    3    0    0 -0.29323509586E+02  0.54056029296E+01 -0.51635965478E+02  0.59635238645E+02  0.10000000000E+01 0.  0.
    9000005    1    3    3    0    0  0.29323509586E+02 -0.54056029296E+01 -0.86152362369E+03  0.86204004718E+03  0.10000000000E+01 0.  0.
<mgrwt>
<rscale>  0 0.12499959E+03</rscale>
<asrwt>0</asrwt>
<pdfrwt beam="2">  1        4 0.14114099E+00 0.12499959E+03</pdfrwt>
<pdfrwt beam="1">  1       -4 0.65505432E-03 0.12499959E+03</pdfrwt>
<totfact> 0.33343752E+03</totfact>
</mgrwt>
</event>
<event>
 5    1  0.3183609E-002  0.1249994E+03  0.7818608E-02  0.1235070E+00
          4   -1    0    0  501    0  0.00000000000E+00  0.00000000000E+00  0.17592573350E+01  0.21697664323E+01  0.12700000000E+01 0.  1.
         -4   -1    0    0    0  501 -0.00000000000E+00 -0.00000000000E+00 -0.19879788157E+04  0.19879792214E+04  0.12700000000E+01 0.  1.
         25    2    1    2    0    0  0.00000000000E+00  0.00000000000E+00 -0.19862195584E+04  0.19901489878E+04  0.12499943837E+03 0.  0.
    9000005    1    3    3    0    0  0.71227065626E+01 -0.61773734785E+02 -0.89433679629E+03  0.89649653232E+03  0.10000000000E+01 0.  0.
    9000005    1    3    3    0    0 -0.71227065626E+01  0.61773734785E+02 -0.10918827621E+04  0.10936524555E+04  0.10000000000E+01 0.  0.
<mgrwt>
<rscale>  0 0.12499944E+03</rscale>
<asrwt>0</asrwt>
<pdfrwt beam="1">  1        4 0.30226539E-03 0.12499944E+03</pdfrwt>
<pdfrwt beam="2">  1       -4 0.30587289E+00 0.12499944E+03</pdfrwt>
<totfact> 0.99906164E+02</totfact>
</mgrwt>
</event>
<event>
 5    1  0.3183609E-002  0.1250042E+03  0.7818608E-02  0.1235063E+00
          4   -1    0    0  501    0  0.00000000000E+00  0.00000000000E+00  0.51038265320E+02  0.51054063764E+02  0.12700000000E+01 0. -1.
         -4   -1    0    0    0  501 -0.00000000000E+00 -0.00000000000E+00 -0.76507894318E+02  0.76518434335E+02  0.12700000000E+01 0. -1.
         25    2    1    2    0    0  0.00000000000E+00  0.00000000000E+00 -0.25469628999E+02  0.12757249810E+03  0.12500416101E+03 0.  0.
    9000005    1    3    3    0    0 -0.42737118204E+02 -0.39816185082E+02  0.99415296085E+01  0.59258956098E+02  0.10000000000E+01 0.  0.
    9000005    1    3    3    0    0  0.42737118204E+02  0.39816185082E+02 -0.35411158607E+02  0.68313542001E+02  0.10000000000E+01 0.  0.
<mgrwt>
<rscale>  0 0.12500416E+03</rscale>
<asrwt>0</asrwt>
<pdfrwt beam="1">  1        4 0.78540669E-02 0.12500416E+03</pdfrwt>
<pdfrwt beam="2">  1       -4 0.11772471E-01 0.12500416E+03</pdfrwt>
<totfact> 0.10395754E+04</totfact>
</mgrwt>
</event>
<event>
 5    1  0.3183609E-002  0.1249941E+03  0.7818608E-02  0.1235078E+00
         -4   -1    0    0    0  501 -0.00000000000E+00  0.00000000000E+00  0.23882619772E+02  0.23916363167E+02  0.12700000000E+01 0.  1.
          4   -1    0    0  501    0  0.00000000000E+00 -0.00000000000E+00 -0.16339328093E+03  0.16339821649E+03  0.12700000000E+01 0.  1.
         25    2    1    2    0    0  0.00000000000E+00  0.00000000000E+00 -0.13951066115E+03  0.18731457966E+03  0.12499410857E+03 0.  0.
    9000005    1    3    3    0    0  0.45959838816E+02  0.55833540064E+01 -0.13264961473E+03  0.14050053706E+03  0.10000000000E+01 0.  0.
    9000005    1    3    3    0    0 -0.45959838816E+02 -0.55833540064E+01 -0.68610464216E+01  0.46814042594E+02  0.10000000000E+01 0.  0.
<mgrwt>
<rscale>  0 0.12499411E+03</rscale>
<asrwt>0</asrwt>
<pdfrwt beam="2">  1        4 0.25140402E-01 0.12499411E+03</pdfrwt>
<pdfrwt beam="1">  1       -4 0.36772246E-02 0.12499411E+03</pdfrwt>
<totfact> 0.92328867E+03</totfact>
</mgrwt>
</event>
<event>
 5    1  0.3183609E-002  0.1250095E+03  0.7818608E-02  0.1235054E+00
         -4   -1    0    0    0  501 -0.00000000000E+00  0.00000000000E+00  0.23476990609E+03  0.23477334113E+03  0.12700000000E+01 0. -1.
          4   -1    0    0  501    0  0.00000000000E+00 -0.00000000000E+00 -0.16613368527E+02  0.16661840048E+02  0.12700000000E+01 0. -1.
         25    2    1    2    0    0  0.00000000000E+00  0.00000000000E+00  0.21815653756E+03  0.25143518118E+03  0.12500950145E+03 0.  0.
    9000005    1    3    3    0    0  0.57928014860E+02  0.30857723633E+00  0.15625212424E+03  0.16664776163E+03  0.10000000000E+01 0.  0.
    9000005    1    3    3    0    0 -0.57928014860E+02 -0.30857723633E+00  0.61904413324E+02  0.84787419553E+02  0.10000000000E+01 0.  0.
<mgrwt>
<rscale>  0 0.12500950E+03</rscale>
<asrwt>0</asrwt>
<pdfrwt beam="2">  1        4 0.25598959E-02 0.12500950E+03</pdfrwt>
<pdfrwt beam="1">  1       -4 0.36122436E-01 0.12500950E+03</pdfrwt>
<totfact> 0.82105866E+03</totfact>
</mgrwt>
</event>
<event>
 5    1  0.3183609E-002  0.1250096E+03  0.7818608E-02  0.1235054E+00
          4   -1    0    0  501    0  0.00000000000E+00  0.00000000000E+00  0.24685574156E+02  0.24718221445E+02  0.12700000000E+01 0.  1.
         -4   -1    0    0    0  501 -0.00000000000E+00 -0.00000000000E+00 -0.15812482622E+03  0.15812992623E+03  0.12700000000E+01 0.  1.
         25    2    1    2    0    0  0.00000000000E+00  0.00000000000E+00 -0.13343925207E+03  0.18284814767E+03  0.12500964409E+03 0.  0.
    9000005    1    3    3    0    0 -0.51997262713E+02 -0.82739384183E+01 -0.11596803135E+03  0.12736466418E+03  0.10000000000E+01 0.  0.
    9000005    1    3    3    0    0  0.51997262713E+02  0.82739384183E+01 -0.17471220714E+02  0.55483483487E+02  0.10000000000E+01 0.  0.
<mgrwt>
<rscale>  0 0.12500964E+03</rscale>
<asrwt>0</asrwt>
<pdfrwt beam="1">  1        4 0.38006844E-02 0.12500964E+03</pdfrwt>
<pdfrwt beam="2">  1       -4 0.24329799E-01 0.12500964E+03</pdfrwt>
<totfact> 0.93086701E+03</totfact>
</mgrwt>
</event>
<event>
 5    1  0.3183609E-002  0.1249998E+03  0.7818608E-02  0.1235070E+00
          4   -1    0    0  501    0  0.00000000000E+00  0.00000000000E+00  0.12882549311E+02  0.12944998136E+02  0.12700000000E+01 0. -1.
         -4   -1    0    0    0  501 -0.00000000000E+00 -0.00000000000E+00 -0.30242249242E+03  0.30242515904E+03  0.12700000000E+01 0. -1.
         25    2    1    2    0    0  0.00000000000E+00  0.00000000000E+00 -0.28953994311E+03  0.31537015718E+03  0.12499982953E+03 0.  0.
    9000005    1    3    3    0    0 -0.12240763861E+02 -0.48693670710E+02 -0.23864085548E+03  0.24386752094E+03  0.10000000000E+01 0.  0.
    9000005    1    3    3    0    0  0.12240763861E+02  0.48693670710E+02 -0.50899087635E+02  0.71502636240E+02  0.10000000000E+01 0.  0.
<mgrwt>
<rscale>  0 0.12499983E+03</rscale>
<asrwt>0</asrwt>
<pdfrwt beam="1">  1        4 0.19869398E-02 0.12499983E+03</pdfrwt>
<pdfrwt beam="2">  1       -4 0.46531541E-01 0.12499983E+03</pdfrwt>
<totfact> 0.73710469E+03</totfact>
</mgrwt>
</event>
<event>
 5    1  0.3183609E-002  0.1250001E+03  0.7818608E-02  0.1235069E+00
         -4   -1    0    0    0  501 -0.00000000000E+00  0.00000000000E+00  0.59622665921E+02  0.59636190283E+02  0.12700000000E+01 0. -1.
          4   -1    0    0  501    0  0.00000000000E+00 -0.00000000000E+00 -0.65489220899E+02  0.65501533981E+02  0.12700000000E+01 0. -1.
         25    2    1    2    0    0  0.00000000000E+00  0.00000000000E+00 -0.58665549780E+01  0.12513772426E+03  0.12500013427E+03 0.  0.
    9000005    1    3    3    0    0  0.17243143569E+02 -0.67868599552E+00 -0.63061621650E+02  0.65387726218E+02  0.10000000000E+01 0.  0.
    9000005    1    3    3    0    0 -0.17243143569E+02  0.67868599552E+00  0.57195066672E+02  0.59749998046E+02  0.10000000000E+01 0.  0.
<mgrwt>
<rscale>  0 0.12500013E+03</rscale>
<asrwt>0</asrwt>
<pdfrwt beam="2">  1        4 0.10077252E-01 0.12500013E+03</pdfrwt>
<pdfrwt beam="1">  1       -4 0.91747054E-02 0.12500013E+03</pdfrwt>
<totfact> 0.10449840E+04</totfact>
</mgrwt>
</event>
<event>
 5    1  0.3183609E-002  0.1250045E+03  0.7818608E-02  0.1235062E+00
         -4   -1    0    0    0  501 -0.00000000000E+00  0.00000000000E+00  0.29223364555E+02  0.29250947607E+02  0.12700000000E+01 0.  1.
          4   -1    0    0  501    0  0.00000000000E+00 -0.00000000000E+00 -0.13358461140E+03  0.13359064826E+03  0.12700000000E+01 0.  1.
         25    2    1    2    0    0  0.00000000000E+00  0.00000000000E+00 -0.10436124685E+03  0.16284159587E+03  0.12500446193E+03 0.  0.
    9000005    1    3    3    0    0 -0.15674863418E+02  0.15621981517E+02  0.23954465341E+02  0.32627657891E+02  0.10000000000E+01 0.  0.
    9000005    1    3    3    0    0  0.15674863418E+02 -0.15621981517E+02 -0.12831571219E+03  0.13021393798E+03  0.10000000000E+01 0.  0.
<mgrwt>
<rscale>  0 0.12500446E+03</rscale>
<asrwt>0</asrwt>
<pdfrwt beam="2">  1        4 0.20554064E-01 0.12500446E+03</pdfrwt>
<pdfrwt beam="1">  1       -4 0.44984885E-02 0.12500446E+03</pdfrwt>
<totfact> 0.96788024E+03</totfact>
</mgrwt>
</event>
<event>
 5    1  0.3183609E-002  0.1250038E+03  0.7818608E-02  0.1235063E+00
         -4   -1    0    0    0  501 -0.00000000000E+00  0.00000000000E+00  0.13168644759E+03  0.13169257147E+03  0.12700000000E+01 0. -1.
          4   -1    0    0  501    0  0.00000000000E+00 -0.00000000000E+00 -0.29644680403E+02  0.29671871802E+02  0.12700000000E+01 0. -1.
         25    2    1    2    0    0  0.00000000000E+00  0.00000000000E+00  0.10204176719E+03  0.16136444327E+03  0.12500384514E+03 0.  0.
    9000005    1    3    3    0    0  0.61029623418E+02  0.80685818507E+01  0.64910454315E+02  0.89465546592E+02  0.10000000000E+01 0.  0.
    9000005    1    3    3    0    0 -0.61029623418E+02 -0.80685818507E+01  0.37131312875E+02  0.71898896677E+02  0.10000000000E+01 0.  0.
<mgrwt>
<rscale>  0 0.12500385E+03</rscale>
<asrwt>0</asrwt>
<pdfrwt beam="2">  1        4 0.45632829E-02 0.12500385E+03</pdfrwt>
<pdfrwt beam="1">  1       -4 0.20262016E-01 0.12500385E+03</pdfrwt>
<totfact> 0.97071986E+03</totfact>
</mgrwt>
</event>
<event>
 5    1  0.3183609E-002  0.1250002E+03  0.7818608E-02  0.1235069E+00
          4   -1    0    0  501    0  0.00000000000E+00  0.00000000000E+00  0.10918941147E+03  0.10919679701E+03  0.12700000000E+01 0.  1.
         -4   -1    0    0    0  501 -0.00000000000E+00 -0.00000000000E+00 -0.35755212835E+02  0.35777760479E+02  0.12700000000E+01 0.  1.
         25    2    1    2    0    0  0.00000000000E+00  0.00000000000E+00  0.73434198635E+02  0.14497455749E+03  0.12500016316E+03 0.  0.
    9000005    1    3    3    0    0  0.21655720852E+02 -0.57021548867E+02  0.20949307752E+02  0.64500393612E+02  0.10000000000E+01 0.  0.
    9000005    1    3    3    0    0 -0.21655720852E+02  0.57021548867E+02  0.52484890883E+02  0.80474163878E+02  0.10000000000E+01 0.  0.
<mgrwt>
<rscale>  0 0.12500016E+03</rscale>
<asrwt>0</asrwt>
<pdfrwt beam="1">  1        4 0.16800673E-01 0.12500016E+03</pdfrwt>
<pdfrwt beam="2">  1       -4 0.55031047E-02 0.12500016E+03</pdfrwt>
<totfact> 0.10031469E+04</totfact>
</mgrwt>
</event>
<event>
 5    1  0.3183609E-002  0.1250011E+03  0.7818608E-02  0.1235068E+00
         -4   -1    0    0    0  501 -0.00000000000E+00  0.00000000000E+00  0.74584673915E+02  0.74595485675E+02  0.12700000000E+01 0. -1.
          4   -1    0    0  501    0  0.00000000000E+00 -0.00000000000E+00 -0.52351984546E+02  0.52367386663E+02  0.12700000000E+01 0. -1.
         25    2    1    2    0    0  0.00000000000E+00  0.00000000000E+00  0.22232689370E+02  0.12696287234E+03  0.12500111390E+03 0.  0.
    9000005    1    3    3    0    0 -0.61597683194E+02  0.72477293932E+01  0.33467533266E+01  0.62120889514E+02  0.10000000000E+01 0.  0.
    9000005    1    3    3    0    0  0.61597683194E+02 -0.72477293932E+01  0.18885936043E+02  0.64841982823E+02  0.10000000000E+01 0.  0.
<mgrwt>
<rscale>  0 0.12500111E+03</rscale>
<asrwt>0</asrwt>
<pdfrwt beam="2">  1        4 0.80561680E-02 0.12500111E+03</pdfrwt>
<pdfrwt beam="1">  1       -4 0.11476582E-01 0.12500111E+03</pdfrwt>
<totfact> 0.10409691E+04</totfact>
</mgrwt>
</event>
<event>
 5    1  0.3183609E-002  0.1250131E+03  0.7818608E-02  0.1235049E+00
         -4   -1    0    0    0  501 -0.00000000000E+00  0.00000000000E+00  0.22703996556E+03  0.22704351755E+03  0.12700000000E+01 0. -1.
          4   -1    0    0  501    0  0.00000000000E+00 -0.00000000000E+00 -0.17181609135E+02  0.17228482013E+02  0.12700000000E+01 0. -1.
         25    2    1    2    0    0  0.00000000000E+00  0.00000000000E+00  0.20985835643E+03  0.24427199956E+03  0.12501311935E+03 0.  0.
    9000005    1    3    3    0    0 -0.50211556953E+02 -0.37126489829E+02  0.99950077029E+02  0.11785836668E+03  0.10000000000E+01 0.  0.
    9000005    1    3    3    0    0  0.50211556953E+02  0.37126489829E+02  0.10990827940E+03  0.12641363288E+03  0.10000000000E+01 0.  0.
<mgrwt>
<rscale>  0 0.12501312E+03</rscale>
<asrwt>0</asrwt>
<pdfrwt beam="2">  1        4 0.26472033E-02 0.12501312E+03</pdfrwt>
<pdfrwt beam="1">  1       -4 0.34933104E-01 0.12501312E+03</pdfrwt>
<totfact> 0.83140902E+03</totfact>
</mgrwt>
</event>
<event>
 5    1  0.3183609E-002  0.1250000E+03  0.7818608E-02  0.1235069E+00
          4   -1    0    0  501    0  0.00000000000E+00  0.00000000000E+00  0.26887800397E+03  0.26888100327E+03  0.12700000000E+01 0. -1.
         -4   -1    0    0    0  501 -0.00000000000E+00 -0.00000000000E+00 -0.14497111699E+02  0.14552633700E+02  0.12700000000E+01 0. -1.
         25    2    1    2    0    0  0.00000000000E+00  0.00000000000E+00  0.25438089227E+03  0.28343363697E+03  0.12499995285E+03 0.  0.
    9000005    1    3    3    0    0 -0.36934432336E+02  0.36517449648E+02  0.48395600015E+02  0.70998665633E+02  0.10000000000E+01 0.  0.
    9000005    1    3    3    0    0  0.36934432336E+02 -0.36517449648E+02  0.20598529226E+03  0.21243497134E+03  0.10000000000E+01 0.  0.
<mgrwt>
<rscale>  0 0.12499995E+03</rscale>
<asrwt>0</asrwt>
<pdfrwt beam="1">  1        4 0.41370346E-01 0.12499995E+03</pdfrwt>
<pdfrwt beam="2">  1       -4 0.22348266E-02 0.12499995E+03</pdfrwt>
<totfact> 0.77725104E+03</totfact>
</mgrwt>
</event>
<event>
 4    1  0.3183609E-002  0.1252767E+03  0.7818608E-02  0.1234637E+00
         -4   -1    0    0    0  501 -0.00000000000E+00  0.00000000000E+00  0.13563292781E+02  0.13622621299E+02  0.12700000000E+01 0. -1.
          4   -1    0    0  501    0  0.00000000000E+00 -0.00000000000E+00 -0.28858614383E+03  0.28858893830E+03  0.12700000000E+01 0. -1.
    9000005    1    1    2    0    0  0.43798903097E+01  0.43563313004E+02 -0.24554652559E+03  0.24942141430E+03  0.10000000000E+01 0.  0.
    9000005    1    1    2    0    0 -0.43798903097E+01 -0.43563313004E+02 -0.29476325456E+02  0.52790145305E+02  0.10000000000E+01 0.  0.
<mgrwt>
<rscale>  0 0.12527673E+03</rscale>
<asrwt>0</asrwt>
<pdfrwt beam="2">  1        4 0.44402643E-01 0.12527673E+03</pdfrwt>
<pdfrwt beam="1">  1       -4 0.20914393E-02 0.12527673E+03</pdfrwt>
<totfact> 0.74861482E+03</totfact>
</mgrwt>
</event>
<event>
 5    1  0.3183609E-002  0.1249785E+03  0.7818608E-02  0.1235103E+00
          4   -1    0    0  501    0  0.00000000000E+00  0.00000000000E+00  0.17020044756E+02  0.17067361351E+02  0.12700000000E+01 0.  1.
         -4   -1    0    0    0  501 -0.00000000000E+00 -0.00000000000E+00 -0.22906212928E+03  0.22906564991E+03  0.12700000000E+01 0.  1.
         25    2    1    2    0    0  0.00000000000E+00  0.00000000000E+00 -0.21204208452E+03  0.24613301126E+03  0.12497845264E+03 0.  0.
    9000005    1    3    3    0    0  0.21981141481E+02  0.37412713049E+02 -0.17484977842E+02  0.46793227380E+02  0.10000000000E+01 0.  0.
    9000005    1    3    3    0    0 -0.21981141481E+02 -0.37412713049E+02 -0.19455710668E+03  0.19933978388E+03  0.10000000000E+01 0.  0.
<mgrwt>
<rscale>  0 0.12497845E+03</rscale>
<asrwt>0</asrwt>
<pdfrwt beam="1">  1        4 0.26223791E-02 0.12497845E+03</pdfrwt>
<pdfrwt beam="2">  1       -4 0.35244236E-01 0.12497845E+03</pdfrwt>
<totfact> 0.82932173E+03</totfact>
</mgrwt>
</event>
<event>
 5    1  0.3183609E-002  0.1249858E+03  0.7818608E-02  0.1235092E+00
         -4   -1    0    0    0  501 -0.00000000000E+00  0.00000000000E+00  0.74068701935E+03  0.74068810814E+03  0.12700000000E+01 0.  1.
          4   -1    0    0  501    0  0.00000000000E+00 -0.00000000000E+00 -0.51950340047E+01  0.53480162967E+01  0.12700000000E+01 0.  1.
         25    2    1    2    0    0  0.00000000000E+00  0.00000000000E+00  0.73549198535E+03  0.74603612443E+03  0.12498575299E+03 0.  0.
    9000005    1    3    3    0    0 -0.40193949975E+02 -0.39496191834E+02  0.20659964758E+03  0.21414928710E+03  0.10000000000E+01 0.  0.
    9000005    1    3    3    0    0  0.40193949975E+02  0.39496191834E+02  0.52889233777E+03  0.53188683734E+03  0.10000000000E+01 0.  0.
<mgrwt>
<rscale>  0 0.12498575E+03</rscale>
<asrwt>0</asrwt>
<pdfrwt beam="2">  1        4 0.81108783E-03 0.12498575E+03</pdfrwt>
<pdfrwt beam="1">  1       -4 0.11396367E+00 0.12498575E+03</pdfrwt>
<totfact> 0.40777157E+03</totfact>
</mgrwt>
</event>
<event>
 5    1  0.3183609E-002  0.1250010E+03  0.7818608E-02  0.1235068E+00
         -4   -1    0    0    0  501 -0.00000000000E+00  0.00000000000E+00  0.19403939847E+03  0.19404355454E+03  0.12700000000E+01 0.  1.
          4   -1    0    0  501    0  0.00000000000E+00 -0.00000000000E+00 -0.20107140922E+02  0.20147208642E+02  0.12700000000E+01 0.  1.
         25    2    1    2    0    0  0.00000000000E+00  0.00000000000E+00  0.17393225755E+03  0.21419076318E+03  0.12500101126E+03 0.  0.
    9000005    1    3    3    0    0 -0.60170467420E+02 -0.13712692400E+02  0.70108257626E+02  0.93406053711E+02  0.10000000000E+01 0.  0.
    9000005    1    3    3    0    0  0.60170467420E+02  0.13712692400E+02  0.10382399992E+03  0.12078470947E+03  0.10000000000E+01 0.  0.
<mgrwt>
<rscale>  0 0.12500101E+03</rscale>
<asrwt>0</asrwt>
<pdfrwt beam="2">  1        4 0.30968083E-02 0.12500101E+03</pdfrwt>
<pdfrwt beam="1">  1       -4 0.29855616E-01 0.12500101E+03</pdfrwt>
<totfact> 0.87794032E+03</totfact>
</mgrwt>
</event>
<event>
 5    1  0.3183609E-002  0.1249924E+03  0.7818608E-02  0.1235081E+00
          4   -1    0    0  501    0  0.00000000000E+00  0.00000000000E+00  0.54450217018E+03  0.54450365126E+03  0.12700000000E+01 0. -1.
         -4   -1    0    0    0  501 -0.00000000000E+00 -0.00000000000E+00 -0.71153941595E+01  0.72278443567E+01  0.12700000000E+01 0. -1.
         25    2    1    2    0    0  0.00000000000E+00  0.00000000000E+00  0.53738677602E+03  0.55173149562E+03  0.12499238460E+03 0.  0.
    9000005    1    3    3    0    0  0.95596418169E+01  0.51250820362E+02  0.42075589409E+03  0.42397471122E+03  0.10000000000E+01 0.  0.
    9000005    1    3    3    0    0 -0.95596418169E+01 -0.51250820362E+02  0.11663088193E+03  0.12775678440E+03  0.10000000000E+01 0.  0.
<mgrwt>
<rscale>  0 0.12499238E+03</rscale>
<asrwt>0</asrwt>
<pdfrwt beam="1">  1        4 0.83778345E-01 0.12499238E+03</pdfrwt>
<pdfrwt beam="2">  1       -4 0.11034398E-02 0.12499238E+03</pdfrwt>
<totfact> 0.52072154E+03</totfact>
</mgrwt>
</event>
<event>
 5    1  0.3183609E-002  0.1250171E+03  0.7818608E-02  0.1235043E+00
          4   -1    0    0  501    0  0.00000000000E+00  0.00000000000E+00  0.40272025791E+03  0.40272226041E+03  0.12700000000E+01 0. -1.
         -4   -1    0    0    0  501 -0.00000000000E+00 -0.00000000000E+00 -0.96587209897E+01  0.97418576851E+01  0.12700000000E+01 0. -1.
         25    2    1    2    0    0  0.00000000000E+00  0.00000000000E+00  0.39306153692E+03  0.41246411810E+03  0.12501710647E+03 0.  0.
    9000005    1    3    3    0    0 -0.58190123619E+02  0.50506747818E+00  0.12129793865E+03  0.13453823063E+03  0.10000000000E+01 0.  0.
    9000005    1    3    3    0    0  0.58190123619E+02 -0.50506747818E+00  0.27176359827E+03  0.27792588747E+03  0.10000000000E+01 0.  0.
<mgrwt>
<rscale>  0 0.12501711E+03</rscale>
<asrwt>0</asrwt>
<pdfrwt beam="1">  1        4 0.61963508E-01 0.12501711E+03</pdfrwt>
<pdfrwt beam="2">  1       -4 0.14925063E-02 0.12501711E+03</pdfrwt>
<totfact> 0.63334424E+03</totfact>
</mgrwt>
</event>
<event>
 5    1  0.3183609E-002  0.1250014E+03  0.7818608E-02  0.1235067E+00
         -4   -1    0    0    0  501 -0.00000000000E+00  0.00000000000E+00  0.74054902260E+02  0.74065791353E+02  0.12700000000E+01 0. -1.
          4   -1    0    0  501    0  0.00000000000E+00 -0.00000000000E+00 -0.52726807284E+02  0.52742099942E+02  0.12700000000E+01 0. -1.
         25    2    1    2    0    0  0.00000000000E+00  0.00000000000E+00  0.21328094976E+02  0.12680789130E+03  0.12500141463E+03 0.  0.
    9000005    1    3    3    0    0  0.23554826109E+02  0.57372547935E+02  0.28785474216E+01  0.62094485462E+02  0.10000000000E+01 0.  0.
    9000005    1    3    3    0    0 -0.23554826109E+02 -0.57372547935E+02  0.18449547555E+02  0.64713405833E+02  0.10000000000E+01 0.  0.
<mgrwt>
<rscale>  0 0.12500141E+03</rscale>
<asrwt>0</asrwt>
<pdfrwt beam="2">  1        4 0.81138306E-02 0.12500141E+03</pdfrwt>
<pdfrwt beam="1">  1       -4 0.11395076E-01 0.12500141E+03</pdfrwt>
<totfact> 0.10412990E+04</totfact>
</mgrwt>
</event>
<event>
 5    1  0.3183609E-002  0.1249492E+03  0.7818608E-02  0.1235149E+00
          4   -1    0    0  501    0  0.00000000000E+00  0.00000000000E+00  0.41863983823E+03  0.41864176459E+03  0.12700000000E+01 0.  1.
         -4   -1    0    0    0  501 -0.00000000000E+00 -0.00000000000E+00 -0.92780298769E+01  0.93645468869E+01  0.12700000000E+01 0.  1.
         25    2    1    2    0    0  0.00000000000E+00  0.00000000000E+00  0.40936180836E+03  0.42800631147E+03  0.12494923977E+03 0.  0.
    9000005    1    3    3    0    0  0.46966496278E+01 -0.81911415199E+01  0.41619809791E+03  0.41630638960E+03  0.10000000000E+01 0.  0.
    9000005    1    3    3    0    0 -0.46966496278E+01  0.81911415199E+01 -0.68362895503E+01  0.11699921878E+02  0.10000000000E+01 0.  0.
<mgrwt>
<rscale>  0 0.12494924E+03</rscale>
<asrwt>0</asrwt>
<pdfrwt beam="1">  1        4 0.64412927E-01 0.12494924E+03</pdfrwt>
<pdfrwt beam="2">  1       -4 0.14341927E-02 0.12494924E+03</pdfrwt>
<totfact> 0.61986479E+03</totfact>
</mgrwt>
</event>
<event>
 5    1  0.3183609E-002  0.1249943E+03  0.7818608E-02  0.1235078E+00
         -4   -1    0    0    0  501 -0.00000000000E+00  0.00000000000E+00  0.14550715097E+03  0.14551269320E+03  0.12700000000E+01 0.  1.
          4   -1    0    0  501    0  0.00000000000E+00 -0.00000000000E+00 -0.26822231977E+02  0.26852281621E+02  0.12700000000E+01 0.  1.
         25    2    1    2    0    0  0.00000000000E+00  0.00000000000E+00  0.11868491899E+03  0.17236497482E+03  0.12499429807E+03 0.  0.
    9000005    1    3    3    0    0 -0.45278133263E+01 -0.52424247580E+02  0.12862542740E+02  0.54177927549E+02  0.10000000000E+01 0.  0.
    9000005    1    3    3    0    0  0.45278133263E+01  0.52424247580E+02  0.10582237625E+03  0.11818704727E+03  0.10000000000E+01 0.  0.
<mgrwt>
<rscale>  0 0.12499430E+03</rscale>
<asrwt>0</asrwt>
<pdfrwt beam="2">  1        4 0.41292351E-02 0.12499430E+03</pdfrwt>
<pdfrwt beam="1">  1       -4 0.22388453E-01 0.12499430E+03</pdfrwt>
<totfact> 0.95021824E+03</totfact>
</mgrwt>
</event>
<event>
 5    1  0.3183609E-002  0.1250063E+03  0.7818608E-02  0.1235059E+00
         -4   -1    0    0    0  501 -0.00000000000E+00  0.00000000000E+00  0.48901292890E+02  0.48917781494E+02  0.12700000000E+01 0. -1.
          4   -1    0    0  501    0  0.00000000000E+00 -0.00000000000E+00 -0.79853376217E+02  0.79863474713E+02  0.12700000000E+01 0. -1.
         25    2    1    2    0    0  0.00000000000E+00  0.00000000000E+00 -0.30952083327E+02  0.12878125621E+03  0.12500632179E+03 0.  0.
    9000005    1    3    3    0    0 -0.24995924005E+02  0.56192994427E+02 -0.40414810285E+01  0.61642375104E+02  0.10000000000E+01 0.  0.
    9000005    1    3    3    0    0  0.24995924005E+02 -0.56192994427E+02 -0.26910602299E+02  0.67138881102E+02  0.10000000000E+01 0.  0.
<mgrwt>
<rscale>  0 0.12500632E+03</rscale>
<asrwt>0</asrwt>
<pdfrwt beam="2">  1        4 0.12287180E-01 0.12500632E+03</pdfrwt>
<pdfrwt beam="1">  1       -4 0.75253210E-02 0.12500632E+03</pdfrwt>
<totfact> 0.10369170E+04</totfact>
</mgrwt>
</event>
<event>
 5    1  0.3183609E-002  0.1249799E+03  0.7818608E-02  0.1235101E+00
          4   -1    0    0  501    0  0.00000000000E+00  0.00000000000E+00  0.23343461474E+02  0.23377983095E+02  0.12700000000E+01 0.  1.
         -4   -1    0    0    0  501 -0.00000000000E+00 -0.00000000000E+00 -0.16712382787E+03  0.16712865326E+03  0.12700000000E+01 0.  1.
         25    2    1    2    0    0  0.00000000000E+00  0.00000000000E+00 -0.14378036640E+03  0.19050663636E+03  0.12497993733E+03 0.  0.
    9000005    1    3    3    0    0  0.37729606052E+02 -0.49525708429E+02 -0.79909382473E+02  0.10130561868E+03  0.10000000000E+01 0.  0.
    9000005    1    3    3    0    0 -0.37729606052E+02  0.49525708429E+02 -0.63870983922E+02  0.89201017682E+02  0.10000000000E+01 0.  0.
<mgrwt>
<rscale>  0 0.12497994E+03</rscale>
<asrwt>0</asrwt>
<pdfrwt beam="1">  1        4 0.35943286E-02 0.12497994E+03</pdfrwt>
<pdfrwt beam="2">  1       -4 0.25714384E-01 0.12497994E+03</pdfrwt>
<totfact> 0.91800483E+03</totfact>
</mgrwt>
</event>
<event>
 5    1  0.3183609E-002  0.1250002E+03  0.7818608E-02  0.1235069E+00
          4   -1    0    0  501    0  0.00000000000E+00  0.00000000000E+00  0.14753411695E+02  0.14807972739E+02  0.12700000000E+01 0.  1.
         -4   -1    0    0    0  501 -0.00000000000E+00 -0.00000000000E+00 -0.26422525090E+03  0.26422830301E+03  0.12700000000E+01 0.  1.
         25    2    1    2    0    0  0.00000000000E+00  0.00000000000E+00 -0.24947183920E+03  0.27903627575E+03  0.12500017852E+03 0.  0.
    9000005    1    3    3    0    0 -0.52989249478E+02 -0.20084331463E+02 -0.65927961879E+02  0.86940997740E+02  0.10000000000E+01 0.  0.
    9000005    1    3    3    0    0  0.52989249478E+02  0.20084331463E+02 -0.18354387732E+03  0.19209527801E+03  0.10000000000E+01 0.  0.
<mgrwt>
<rscale>  0 0.12500018E+03</rscale>
<asrwt>0</asrwt>
<pdfrwt beam="1">  1        4 0.22741876E-02 0.12500018E+03</pdfrwt>
<pdfrwt beam="2">  1       -4 0.40654467E-01 0.12500018E+03</pdfrwt>
<totfact> 0.78305752E+03</totfact>
</mgrwt>
</event>
<event>
 5    1  0.3183609E-002  0.1249997E+03  0.7818608E-02  0.1235070E+00
         -4   -1    0    0    0  501 -0.00000000000E+00  0.00000000000E+00  0.24536713488E+02  0.24569558580E+02  0.12700000000E+01 0.  1.
          4   -1    0    0  501    0  0.00000000000E+00 -0.00000000000E+00 -0.15905763357E+03  0.15906270367E+03  0.12700000000E+01 0.  1.
         25    2    1    2    0    0  0.00000000000E+00  0.00000000000E+00 -0.13452092008E+03  0.18363226225E+03  0.12499971919E+03 0.  0.
    9000005    1    3    3    0    0 -0.48757292344E+01 -0.96680587183E+00 -0.15877396519E+03  0.15885490068E+03  0.10000000000E+01 0.  0.
    9000005    1    3    3    0    0  0.48757292344E+01  0.96680587183E+00  0.24253045105E+02  0.24777361563E+02  0.10000000000E+01 0.  0.
<mgrwt>
<rscale>  0 0.12499972E+03</rscale>
<asrwt>0</asrwt>
<pdfrwt beam="2">  1        4 0.24473321E-01 0.12499972E+03</pdfrwt>
<pdfrwt beam="1">  1       -4 0.37777957E-02 0.12499972E+03</pdfrwt>
<totfact> 0.92967826E+03</totfact>
</mgrwt>
</event>
<event>
 5    1  0.3183609E-002  0.1249969E+03  0.7818608E-02  0.1235074E+00
         -4   -1    0    0    0  501 -0.00000000000E+00  0.00000000000E+00  0.81573935550E+01  0.82556628814E+01  0.12700000000E+01 0.  1.
          4   -1    0    0  501    0  0.00000000000E+00 -0.00000000000E+00 -0.47587063633E+03  0.47587233101E+03  0.12700000000E+01 0.  1.
         25    2    1    2    0    0  0.00000000000E+00  0.00000000000E+00 -0.46771324277E+03  0.48412799389E+03  0.12499694797E+03 0.  0.
    9000005    1    3    3    0    0  0.40984097657E+01 -0.56823773575E+02 -0.33330764459E+03  0.33814305278E+03  0.10000000000E+01 0.  0.
    9000005    1    3    3    0    0 -0.40984097657E+01  0.56823773575E+02 -0.13440559819E+03  0.14598494111E+03  0.10000000000E+01 0.  0.
<mgrwt>
<rscale>  0 0.12499695E+03</rscale>
<asrwt>0</asrwt>
<pdfrwt beam="2">  1        4 0.73218535E-01 0.12499695E+03</pdfrwt>
<pdfrwt beam="1">  1       -4 0.12626735E-02 0.12499695E+03</pdfrwt>
<totfact> 0.57121061E+03</totfact>
</mgrwt>
</event>
<event>
 5    1  0.3183609E-002  0.1249779E+03  0.7818608E-02  0.1235104E+00
          4   -1    0    0  501    0  0.00000000000E+00  0.00000000000E+00  0.14454104742E+03  0.14454662670E+03  0.12700000000E+01 0.  1.
         -4   -1    0    0    0  501 -0.00000000000E+00 -0.00000000000E+00 -0.26994630662E+02  0.27024488609E+02  0.12700000000E+01 0.  1.
         25    2    1    2    0    0  0.00000000000E+00  0.00000000000E+00  0.11754641676E+03  0.17157111530E+03  0.12497794811E+03 0.  0.
    9000005    1    3    3    0    0  0.17347891888E+02  0.46859013278E+02  0.11027019481E+03  0.12106705721E+03  0.10000000000E+01 0.  0.
    9000005    1    3    3    0    0 -0.17347891888E+02 -0.46859013278E+02  0.72762219518E+01  0.50504058097E+02  0.10000000000E+01 0.  0.
<mgrwt>
<rscale>  0 0.12497795E+03</rscale>
<asrwt>0</asrwt>
<pdfrwt beam="1">  1        4 0.22239810E-01 0.12497795E+03</pdfrwt>
<pdfrwt beam="2">  1       -4 0.41557460E-02 0.12497795E+03</pdfrwt>
<totfact> 0.95203716E+03</totfact>
</mgrwt>
</event>
<event>
 5    1  0.3183609E-002  0.1250041E+03  0.7818608E-02  0.1235063E+00
          4   -1    0    0  501    0  0.00000000000E+00  0.00000000000E+00  0.33072461492E+03  0.33072705335E+03  0.12700000000E+01 0. -1.
         -4   -1    0    0    0  501 -0.00000000000E+00 -0.00000000000E+00 -0.11775329372E+02  0.11843617768E+02  0.12700000000E+01 0. -1.
         25    2    1    2    0    0  0.00000000000E+00  0.00000000000E+00  0.31894928555E+03  0.34257067111E+03  0.12500407175E+03 0.  0.
    9000005    1    3    3    0    0 -0.40585195435E+02  0.48009894904E+01  0.29907874375E+02  0.50652626173E+02  0.10000000000E+01 0.  0.
    9000005    1    3    3    0    0  0.40585195435E+02 -0.48009894904E+01  0.28904141117E+03  0.29191804494E+03  0.10000000000E+01 0.  0.
<mgrwt>
<rscale>  0 0.12500407E+03</rscale>
<asrwt>0</asrwt>
<pdfrwt beam="1">  1        4 0.50886155E-01 0.12500407E+03</pdfrwt>
<pdfrwt beam="2">  1       -4 0.18170295E-02 0.12500407E+03</pdfrwt>
<totfact> 0.70543316E+03</totfact>
</mgrwt>
</event>
<event>
 5    1  0.3183609E-002  0.1249988E+03  0.7818608E-02  0.1235071E+00
          4   -1    0    0  501    0  0.00000000000E+00  0.00000000000E+00  0.32333859894E+03  0.32334109306E+03  0.12700000000E+01 0.  1.
         -4   -1    0    0    0  501 -0.00000000000E+00 -0.00000000000E+00 -0.12044832276E+02  0.12111601238E+02  0.12700000000E+01 0.  1.
         25    2    1    2    0    0  0.00000000000E+00  0.00000000000E+00  0.31129376666E+03  0.33545269430E+03  0.12499880380E+03 0.  0.
    9000005    1    3    3    0    0 -0.87797311562E+01  0.61862574186E+02  0.15281506478E+03  0.16509847300E+03  0.10000000000E+01 0.  0.
    9000005    1    3    3    0    0  0.87797311562E+01 -0.61862574186E+02  0.15847870188E+03  0.17035422130E+03  0.10000000000E+01 0.  0.
<mgrwt>
<rscale>  0 0.12499880E+03</rscale>
<asrwt>0</asrwt>
<pdfrwt beam="1">  1        4 0.49749726E-01 0.12499880E+03</pdfrwt>
<pdfrwt beam="2">  1       -4 0.18583791E-02 0.12499880E+03</pdfrwt>
<totfact> 0.71357046E+03</totfact>
</mgrwt>
</event>
<event>
 5    1  0.3183609E-002  0.1250011E+03  0.7818608E-02  0.1235067E+00
         -4   -1    0    0    0  501 -0.00000000000E+00  0.00000000000E+00  0.99375110443E+01  0.10018334480E+02  0.12700000000E+01 0.  1.
          4   -1    0    0  501    0  0.00000000000E+00 -0.00000000000E+00 -0.39141463582E+03  0.39141669617E+03  0.12700000000E+01 0.  1.
         25    2    1    2    0    0  0.00000000000E+00  0.00000000000E+00 -0.38147712478E+03  0.40143503065E+03  0.12500114839E+03 0.  0.
    9000005    1    3    3    0    0 -0.26388197517E+02 -0.50579226342E+02 -0.10881655830E+03  0.12286837863E+03  0.10000000000E+01 0.  0.
    9000005    1    3    3    0    0  0.26388197517E+02  0.50579226342E+02 -0.27266056648E+03  0.27856665202E+03  0.10000000000E+01 0.  0.
<mgrwt>
<rscale>  0 0.12500115E+03</rscale>
<asrwt>0</asrwt>
<pdfrwt beam="2">  1        4 0.60224000E-01 0.12500115E+03</pdfrwt>
<pdfrwt beam="1">  1       -4 0.15352238E-02 0.12500115E+03</pdfrwt>
<totfact> 0.64411831E+03</totfact>
</mgrwt>
</event>
<event>
 5    1  0.3183609E-002  0.1249905E+03  0.7818608E-02  0.1235084E+00
         -4   -1    0    0    0  501 -0.00000000000E+00  0.00000000000E+00  0.40713345790E+02  0.40733148975E+02  0.12700000000E+01 0. -1.
          4   -1    0    0  501    0  0.00000000000E+00 -0.00000000000E+00 -0.95883243762E+02  0.95891654143E+02  0.12700000000E+01 0. -1.
         25    2    1    2    0    0  0.00000000000E+00  0.00000000000E+00 -0.55169897972E+02  0.13662480312E+03  0.12499047638E+03 0.  0.
    9000005    1    3    3    0    0 -0.50683787318E+00  0.58574028557E+02 -0.51369992225E+02  0.77916941722E+02  0.10000000000E+01 0.  0.
    9000005    1    3    3    0    0  0.50683787318E+00 -0.58574028557E+02 -0.37999057475E+01  0.58707861396E+02  0.10000000000E+01 0.  0.
<mgrwt>
<rscale>  0 0.12499048E+03</rscale>
<asrwt>0</asrwt>
<pdfrwt beam="2">  1        4 0.14753439E-01 0.12499048E+03</pdfrwt>
<pdfrwt beam="1">  1       -4 0.62657620E-02 0.12499048E+03</pdfrwt>
<totfact> 0.10206128E+04</totfact>
</mgrwt>
</event>
<event>
 5    1  0.3183609E-002  0.1249990E+03  0.7818608E-02  0.1235071E+00
         -4   -1    0    0    0  501 -0.00000000000E+00  0.00000000000E+00  0.23439409962E+02  0.23473790477E+02  0.12700000000E+01 0. -1.
          4   -1    0    0  501    0  0.00000000000E+00 -0.00000000000E+00 -0.16649140789E+03  0.16649625161E+03  0.12700000000E+01 0. -1.
         25    2    1    2    0    0  0.00000000000E+00  0.00000000000E+00 -0.14305199793E+03  0.18997004209E+03  0.12499897112E+03 0.  0.
    9000005    1    3    3    0    0 -0.13938033466E+02 -0.60168073475E+02 -0.57050623129E+02  0.84084715864E+02  0.10000000000E+01 0.  0.
    9000005    1    3    3    0    0  0.13938033466E+02  0.60168073475E+02 -0.86001374796E+02  0.10588532622E+03  0.10000000000E+01 0.  0.
<mgrwt>
<rscale>  0 0.12499897E+03</rscale>
<asrwt>0</asrwt>
<pdfrwt beam="2">  1        4 0.25617079E-01 0.12499897E+03</pdfrwt>
<pdfrwt beam="1">  1       -4 0.36090804E-02 0.12499897E+03</pdfrwt>
<totfact> 0.91854645E+03</totfact>
</mgrwt>
</event>
<event>
 5    1  0.3183609E-002  0.1249963E+03  0.7818608E-02  0.1235075E+00
          4   -1    0    0  501    0  0.00000000000E+00  0.00000000000E+00  0.16203507798E+02  0.16253201683E+02  0.12700000000E+01 0.  1.
         -4   -1    0    0    0  501 -0.00000000000E+00 -0.00000000000E+00 -0.24063945872E+03  0.24064280997E+03  0.12700000000E+01 0.  1.
         25    2    1    2    0    0  0.00000000000E+00  0.00000000000E+00 -0.22443595092E+03  0.25689601166E+03  0.12499625890E+03 0.  0.
    9000005    1    3    3    0    0 -0.15974201181E+02 -0.43952838628E+02 -0.27031520843E+02  0.54025274140E+02  0.10000000000E+01 0.  0.
    9000005    1    3    3    0    0  0.15974201181E+02  0.43952838628E+02 -0.19740443008E+03  0.20287073752E+03  0.10000000000E+01 0.  0.
<mgrwt>
<rscale>  0 0.12499626E+03</rscale>
<asrwt>0</asrwt>
<pdfrwt beam="1">  1        4 0.24969279E-02 0.12499626E+03</pdfrwt>
<pdfrwt beam="2">  1       -4 0.37025533E-01 0.12499626E+03</pdfrwt>
<totfact> 0.81350421E+03</totfact>
</mgrwt>
</event>
<event>
 5    1  0.3183609E-002  0.1249839E+03  0.7818608E-02  0.1235094E+00
         -4   -1    0    0    0  501 -0.00000000000E+00  0.00000000000E+00  0.19593387795E+02  0.19634503948E+02  0.12700000000E+01 0.  1.
          4   -1    0    0  501    0  0.00000000000E+00 -0.00000000000E+00 -0.19906229547E+03  0.19906634667E+03  0.12700000000E+01 0.  1.
         25    2    1    2    0    0  0.00000000000E+00  0.00000000000E+00 -0.17946890767E+03  0.21870085062E+03  0.12498389192E+03 0.  0.
    9000005    1    3    3    0    0  0.58030585616E+02  0.23165098515E+02 -0.89262797284E+02  0.10896337749E+03  0.10000000000E+01 0.  0.
    9000005    1    3    3    0    0 -0.58030585616E+02 -0.23165098515E+02 -0.90206110386E+02  0.10973747312E+03  0.10000000000E+01 0.  0.
<mgrwt>
<rscale>  0 0.12498389E+03</rscale>
<asrwt>0</asrwt>
<pdfrwt beam="2">  1        4 0.30628442E-01 0.12498389E+03</pdfrwt>
<pdfrwt beam="1">  1       -4 0.30178419E-02 0.12498389E+03</pdfrwt>
<totfact> 0.87105682E+03</totfact>
</mgrwt>
</event>
<event>
 5    1  0.3183609E-002  0.1249985E+03  0.7818608E-02  0.1235072E+00
         -4   -1    0    0    0  501 -0.00000000000E+00  0.00000000000E+00  0.19076100644E+03  0.19076523393E+03  0.12700000000E+01 0.  1.
          4   -1    0    0  501    0  0.00000000000E+00 -0.00000000000E+00 -0.20452558467E+02  0.20491950806E+02  0.12700000000E+01 0.  1.
         25    2    1    2    0    0  0.00000000000E+00  0.00000000000E+00  0.17030844797E+03  0.21125718474E+03  0.12499852260E+03 0.  0.
    9000005    1    3    3    0    0  0.30926026833E+02  0.17789652997E+01  0.17688003553E+03  0.17957486133E+03  0.10000000000E+01 0.  0.
    9000005    1    3    3    0    0 -0.30926026833E+02 -0.17789652997E+01 -0.65715875622E+01  0.31682323404E+02  0.10000000000E+01 0.  0.
<mgrwt>
<rscale>  0 0.12499852E+03</rscale>
<asrwt>0</asrwt>
<pdfrwt beam="2">  1        4 0.31499028E-02 0.12499852E+03</pdfrwt>
<pdfrwt beam="1">  1       -4 0.29351203E-01 0.12499852E+03</pdfrwt>
<totfact> 0.88273891E+03</totfact>
</mgrwt>
</event>
<event>
 5    1  0.3183609E-002  0.1249856E+03  0.7818608E-02  0.1235092E+00
         -4   -1    0    0    0  501 -0.00000000000E+00  0.00000000000E+00  0.41473916190E+02  0.41493356385E+02  0.12700000000E+01 0. -1.
          4   -1    0    0  501    0  0.00000000000E+00 -0.00000000000E+00 -0.94118273033E+02  0.94126841117E+02  0.12700000000E+01 0. -1.
         25    2    1    2    0    0  0.00000000000E+00  0.00000000000E+00 -0.52644356843E+02  0.13562019750E+03  0.12498563783E+03 0.  0.
    9000005    1    3    3    0    0  0.52800982155E+02  0.28685238467E+02 -0.77305690221E+01  0.60593302599E+02  0.10000000000E+01 0.  0.
    9000005    1    3    3    0    0 -0.52800982155E+02 -0.28685238467E+02 -0.44913787821E+02  0.75026894904E+02  0.10000000000E+01 0.  0.
<mgrwt>
<rscale>  0 0.12498564E+03</rscale>
<asrwt>0</asrwt>
<pdfrwt beam="2">  1        4 0.14481889E-01 0.12498564E+03</pdfrwt>
<pdfrwt beam="1">  1       -4 0.63827570E-02 0.12498564E+03</pdfrwt>
<totfact> 0.10228328E+04</totfact>
</mgrwt>
</event>
<event>
 5    1  0.3183609E-002  0.1249724E+03  0.7818608E-02  0.1235112E+00
         -4   -1    0    0    0  501 -0.00000000000E+00  0.00000000000E+00  0.40529698898E+02  0.40549591771E+02  0.12700000000E+01 0.  1.
          4   -1    0    0  501    0  0.00000000000E+00 -0.00000000000E+00 -0.96289677691E+02  0.96298052575E+02  0.12700000000E+01 0.  1.
         25    2    1    2    0    0  0.00000000000E+00  0.00000000000E+00 -0.55759978792E+02  0.13684764435E+03  0.12497240707E+03 0.  0.
    9000005    1    3    3    0    0 -0.23785569845E+02  0.57773155319E+02 -0.27675646248E+02  0.68340560458E+02  0.10000000000E+01 0.  0.
    9000005    1    3    3    0    0  0.23785569845E+02 -0.57773155319E+02 -0.28084332544E+02  0.68507083888E+02  0.10000000000E+01 0.  0.
<mgrwt>
<rscale>  0 0.12497241E+03</rscale>
<asrwt>0</asrwt>
<pdfrwt beam="2">  1        4 0.14815971E-01 0.12497241E+03</pdfrwt>
<pdfrwt beam="1">  1       -4 0.62375128E-02 0.12497241E+03</pdfrwt>
<totfact> 0.10205620E+04</totfact>
</mgrwt>
</event>
<event>
 5    1  0.3183609E-002  0.1250077E+03  0.7818608E-02  0.1235057E+00
         -4   -1    0    0    0  501 -0.00000000000E+00  0.00000000000E+00  0.48046712386E+03  0.48046880232E+03  0.12700000000E+01 0.  1.
          4   -1    0    0  501    0  0.00000000000E+00 -0.00000000000E+00 -0.80798187411E+01  0.81790201668E+01  0.12700000000E+01 0.  1.
         25    2    1    2    0    0  0.00000000000E+00  0.00000000000E+00  0.47238730512E+03  0.48864782249E+03  0.12500771333E+03 0.  0.
    9000005    1    3    3    0    0  0.22360425384E+02 -0.58195576491E+02  0.21914674562E+03  0.22784426669E+03  0.10000000000E+01 0.  0.
    9000005    1    3    3    0    0 -0.22360425384E+02  0.58195576491E+02  0.25324055949E+03  0.26080355580E+03  0.10000000000E+01 0.  0.
<mgrwt>
<rscale>  0 0.12500771E+03</rscale>
<asrwt>0</asrwt>
<pdfrwt beam="2">  1        4 0.12508083E-02 0.12500771E+03</pdfrwt>
<pdfrwt beam="1">  1       -4 0.73925825E-01 0.12500771E+03</pdfrwt>
<totfact> 0.56746386E+03</totfact>
</mgrwt>
</event>
<event>
 5    1  0.3183609E-002  0.1249923E+03  0.7818608E-02  0.1235081E+00
          4   -1    0    0  501    0  0.00000000000E+00  0.00000000000E+00  0.54224145278E+02  0.54239015765E+02  0.12700000000E+01 0.  1.
         -4   -1    0    0    0  501 -0.00000000000E+00 -0.00000000000E+00 -0.71999749424E+02  0.72010949286E+02  0.12700000000E+01 0.  1.
         25    2    1    2    0    0  0.00000000000E+00  0.00000000000E+00 -0.17775604146E+02  0.12624996505E+03  0.12499232605E+03 0.  0.
    9000005    1    3    3    0    0 -0.19995585915E+02  0.65702741335E+01  0.50541078595E+02  0.54757580149E+02  0.10000000000E+01 0.  0.
    9000005    1    3    3    0    0  0.19995585915E+02 -0.65702741335E+01 -0.68316682741E+02  0.71492384902E+02  0.10000000000E+01 0.  0.
<mgrwt>
<rscale>  0 0.12499233E+03</rscale>
<asrwt>0</asrwt>
<pdfrwt beam="1">  1        4 0.83441816E-02 0.12499233E+03</pdfrwt>
<pdfrwt beam="2">  1       -4 0.11078890E-01 0.12499233E+03</pdfrwt>
<totfact> 0.10427292E+04</totfact>
</mgrwt>
</event>
<event>
 5    1  0.3183609E-002  0.1250130E+03  0.7818608E-02  0.1235049E+00
         -4   -1    0    0    0  501 -0.00000000000E+00  0.00000000000E+00  0.48404997350E+02  0.48421654954E+02  0.12700000000E+01 0.  1.
          4   -1    0    0  501    0  0.00000000000E+00 -0.00000000000E+00 -0.80680556948E+02  0.80690551922E+02  0.12700000000E+01 0.  1.
         25    2    1    2    0    0  0.00000000000E+00  0.00000000000E+00 -0.32275559598E+02  0.12911220688E+03  0.12501300019E+03 0.  0.
    9000005    1    3    3    0    0  0.24833277160E+02  0.55522519670E+02 -0.30983424089E+02  0.68267227960E+02  0.10000000000E+01 0.  0.
    9000005    1    3    3    0    0 -0.24833277160E+02 -0.55522519670E+02 -0.12921355085E+01  0.60844978916E+02  0.10000000000E+01 0.  0.
<mgrwt>
<rscale>  0 0.12501300E+03</rscale>
<asrwt>0</asrwt>
<pdfrwt beam="2">  1        4 0.12414444E-01 0.12501300E+03</pdfrwt>
<pdfrwt beam="1">  1       -4 0.74489728E-02 0.12501300E+03</pdfrwt>
<totfact> 0.10360496E+04</totfact>
</mgrwt>
</event>
<event>
 5    1  0.3183609E-002  0.1250029E+03  0.7818608E-02  0.1235065E+00
          4   -1    0    0  501    0  0.00000000000E+00  0.00000000000E+00  0.13249112048E+04  0.13249118134E+04  0.12700000000E+01 0. -1.
         -4   -1    0    0    0  501 -0.00000000000E+00 -0.00000000000E+00 -0.28110525831E+01  0.30846258484E+01  0.12700000000E+01 0. -1.
         25    2    1    2    0    0  0.00000000000E+00  0.00000000000E+00  0.13221001522E+04  0.13279964393E+04  0.12500292149E+03 0.  0.
    9000005    1    3    3    0    0 -0.60495791791E+02  0.11684144410E+02  0.55004739828E+03  0.55348839230E+03  0.10000000000E+01 0.  0.
    9000005    1    3    3    0    0  0.60495791791E+02 -0.11684144410E+02  0.77205275389E+03  0.77450804699E+03  0.10000000000E+01 0.  0.
<mgrwt>
<rscale>  0 0.12500292E+03</rscale>
<asrwt>0</asrwt>
<pdfrwt beam="1">  1        4 0.20385353E+00 0.12500292E+03</pdfrwt>
<pdfrwt beam="2">  1       -4 0.45356067E-03 0.12500292E+03</pdfrwt>
<totfact> 0.21575881E+03</totfact>
</mgrwt>
</event>
<event>
 5    1  0.3183609E-002  0.1250007E+03  0.7818608E-02  0.1235068E+00
          4   -1    0    0  501    0  0.00000000000E+00  0.00000000000E+00  0.25729026478E+03  0.25729339916E+03  0.12700000000E+01 0. -1.
         -4   -1    0    0    0  501 -0.00000000000E+00 -0.00000000000E+00 -0.15152657088E+02  0.15205785637E+02  0.12700000000E+01 0. -1.
         25    2    1    2    0    0  0.00000000000E+00  0.00000000000E+00  0.24213760769E+03  0.27249918480E+03  0.12500073862E+03 0.  0.
    9000005    1    3    3    0    0 -0.15792490158E+02  0.39172855064E+02  0.22147533184E+03  0.22546892897E+03  0.10000000000E+01 0.  0.
    9000005    1    3    3    0    0  0.15792490158E+02 -0.39172855064E+02  0.20662275853E+02  0.47030255822E+02  0.10000000000E+01 0.  0.
<mgrwt>
<rscale>  0 0.12500074E+03</rscale>
<asrwt>0</asrwt>
<pdfrwt beam="1">  1        4 0.39587444E-01 0.12500074E+03</pdfrwt>
<pdfrwt beam="2">  1       -4 0.23355060E-02 0.12500074E+03</pdfrwt>
<totfact> 0.79181986E+03</totfact>
</mgrwt>
</event>
<event>
 5    1  0.3183609E-002  0.1249874E+03  0.7818608E-02  0.1235089E+00
         -4   -1    0    0    0  501 -0.00000000000E+00  0.00000000000E+00  0.16709867759E+02  0.16758060166E+02  0.12700000000E+01 0.  1.
          4   -1    0    0  501    0  0.00000000000E+00 -0.00000000000E+00 -0.23333536708E+03  0.23333882324E+03  0.12700000000E+01 0.  1.
         25    2    1    2    0    0  0.00000000000E+00  0.00000000000E+00 -0.21662549932E+03  0.25009688341E+03  0.12498737589E+03 0.  0.
    9000005    1    3    3    0    0  0.11489615130E+02 -0.21348815270E+02 -0.22355023580E+03  0.22486327200E+03  0.10000000000E+01 0.  0.
    9000005    1    3    3    0    0 -0.11489615130E+02  0.21348815270E+02  0.69247364770E+01  0.25233611405E+02  0.10000000000E+01 0.  0.
<mgrwt>
<rscale>  0 0.12498738E+03</rscale>
<asrwt>0</asrwt>
<pdfrwt beam="2">  1        4 0.35901719E-01 0.12498738E+03</pdfrwt>
<pdfrwt beam="1">  1       -4 0.25747220E-02 0.12498738E+03</pdfrwt>
<totfact> 0.82339381E+03</totfact>
</mgrwt>
</event>
<event>
 5    1  0.3183609E-002  0.1250028E+03  0.7818608E-02  0.1235065E+00
          4   -1    0    0  501    0  0.00000000000E+00  0.00000000000E+00  0.16540853260E+03  0.16541340803E+03  0.12700000000E+01 0. -1.
         -4   -1    0    0    0  501 -0.00000000000E+00 -0.00000000000E+00 -0.23594518841E+02  0.23628673668E+02  0.12700000000E+01 0. -1.
         25    2    1    2    0    0  0.00000000000E+00  0.00000000000E+00  0.14181401376E+03  0.18904208170E+03  0.12500277659E+03 0.  0.
    9000005    1    3    3    0    0 -0.18331779808E+02 -0.50529788721E+02  0.11911390190E+03  0.13068448770E+03  0.10000000000E+01 0.  0.
    9000005    1    3    3    0    0  0.18331779808E+02  0.50529788721E+02  0.22700111856E+02  0.58357594000E+02  0.10000000000E+01 0.  0.
<mgrwt>
<rscale>  0 0.12500278E+03</rscale>
<asrwt>0</asrwt>
<pdfrwt beam="1">  1        4 0.25450468E-01 0.12500278E+03</pdfrwt>
<pdfrwt beam="2">  1       -4 0.36329285E-02 0.12500278E+03</pdfrwt>
<totfact> 0.92008534E+03</totfact>
</mgrwt>
</event>
<event>
 5    1  0.3183609E-002  0.1249991E+03  0.7818608E-02  0.1235071E+00
         -4   -1    0    0    0  501 -0.00000000000E+00  0.00000000000E+00  0.13096955618E+03  0.13097571357E+03  0.12700000000E+01 0.  1.
          4   -1    0    0  501    0  0.00000000000E+00 -0.00000000000E+00 -0.29804825536E+02  0.29831870964E+02  0.12700000000E+01 0.  1.
         25    2    1    2    0    0  0.00000000000E+00  0.00000000000E+00  0.10116473064E+03  0.16080758453E+03  0.12499910607E+03 0.  0.
    9000005    1    3    3    0    0 -0.54849904301E+02 -0.29905018095E+02  0.48601026113E+02  0.79157323403E+02  0.10000000000E+01 0.  0.
    9000005    1    3    3    0    0  0.54849904301E+02  0.29905018095E+02  0.52563704529E+02  0.81650261132E+02  0.10000000000E+01 0.  0.
<mgrwt>
<rscale>  0 0.12499911E+03</rscale>
<asrwt>0</asrwt>
<pdfrwt beam="2">  1        4 0.45879119E-02 0.12499911E+03</pdfrwt>
<pdfrwt beam="1">  1       -4 0.20151716E-01 0.12499911E+03</pdfrwt>
<totfact> 0.97189267E+03</totfact>
</mgrwt>
</event>
<event>
 5    1  0.3183609E-002  0.1250116E+03  0.7818608E-02  0.1235051E+00
          4   -1    0    0  501    0  0.00000000000E+00  0.00000000000E+00  0.18788453932E+02  0.18831327653E+02  0.12700000000E+01 0. -1.
         -4   -1    0    0    0  501 -0.00000000000E+00 -0.00000000000E+00 -0.20766365762E+03  0.20766754102E+03  0.12700000000E+01 0. -1.
         25    2    1    2    0    0  0.00000000000E+00  0.00000000000E+00 -0.18887520368E+03  0.22649886868E+03  0.12501157924E+03 0.  0.
    9000005    1    3    3    0    0  0.35512237848E+02 -0.37815734007E+02 -0.31287704498E+02  0.60589349132E+02  0.10000000000E+01 0.  0.
    9000005    1    3    3    0    0 -0.35512237848E+02  0.37815734007E+02 -0.15758749919E+03  0.16590951954E+03  0.10000000000E+01 0.  0.
<mgrwt>
<rscale>  0 0.12501158E+03</rscale>
<asrwt>0</asrwt>
<pdfrwt beam="1">  1        4 0.28941282E-02 0.12501158E+03</pdfrwt>
<pdfrwt beam="2">  1       -4 0.31951850E-01 0.12501158E+03</pdfrwt>
<totfact> 0.85827933E+03</totfact>
</mgrwt>
</event>
<event>
 5    1  0.3183609E-002  0.1250021E+03  0.7818608E-02  0.1235066E+00
          4   -1    0    0  501    0  0.00000000000E+00  0.00000000000E+00  0.17352836847E+02  0.17399248450E+02  0.12700000000E+01 0. -1.
         -4   -1    0    0    0  501 -0.00000000000E+00 -0.00000000000E+00 -0.22476606551E+03  0.22476965343E+03  0.12700000000E+01 0. -1.
         25    2    1    2    0    0  0.00000000000E+00  0.00000000000E+00 -0.20741322866E+03  0.24216890188E+03  0.12500211844E+03 0.  0.
    9000005    1    3    3    0    0 -0.36671678223E+01 -0.58582838922E+01  0.16619648568E+02  0.18027210781E+02  0.10000000000E+01 0.  0.
    9000005    1    3    3    0    0  0.36671678223E+01  0.58582838922E+01 -0.22403287723E+03  0.22414169110E+03  0.10000000000E+01 0.  0.
<mgrwt>
<rscale>  0 0.12500212E+03</rscale>
<asrwt>0</asrwt>
<pdfrwt beam="1">  1        4 0.26735135E-02 0.12500212E+03</pdfrwt>
<pdfrwt beam="2">  1       -4 0.34583239E-01 0.12500212E+03</pdfrwt>
<totfact> 0.83471464E+03</totfact>
</mgrwt>
</event>
<event>
 5    1  0.3183609E-002  0.1249963E+03  0.7818608E-02  0.1235075E+00
          4   -1    0    0  501    0  0.00000000000E+00  0.00000000000E+00  0.23340400738E+02  0.23374926880E+02  0.12700000000E+01 0.  1.
         -4   -1    0    0    0  501 -0.00000000000E+00 -0.00000000000E+00 -0.16718937325E+03  0.16719419675E+03  0.12700000000E+01 0.  1.
         25    2    1    2    0    0  0.00000000000E+00  0.00000000000E+00 -0.14384897251E+03  0.19056912363E+03  0.12499625590E+03 0.  0.
    9000005    1    3    3    0    0 -0.64166121185E+01 -0.47065024488E+02 -0.13383007367E+03  0.14201330241E+03  0.10000000000E+01 0.  0.
    9000005    1    3    3    0    0  0.64166121185E+01  0.47065024488E+02 -0.10018898841E+02  0.48555821228E+02  0.10000000000E+01 0.  0.
<mgrwt>
<rscale>  0 0.12499626E+03</rscale>
<asrwt>0</asrwt>
<pdfrwt beam="1">  1        4 0.35938579E-02 0.12499626E+03</pdfrwt>
<pdfrwt beam="2">  1       -4 0.25724468E-01 0.12499626E+03</pdfrwt>
<totfact> 0.91756078E+03</totfact>
</mgrwt>
</event>
<event>
 5    1  0.3183609E-002  0.1250062E+03  0.7818608E-02  0.1235060E+00
         -4   -1    0    0    0  501 -0.00000000000E+00  0.00000000000E+00  0.19094211144E+03  0.19094633492E+03  0.12700000000E+01 0. -1.
          4   -1    0    0  501    0  0.00000000000E+00 -0.00000000000E+00 -0.20435645845E+02  0.20475070723E+02  0.12700000000E+01 0. -1.
         25    2    1    2    0    0  0.00000000000E+00  0.00000000000E+00  0.17050646559E+03  0.21142140565E+03  0.12500622367E+03 0.  0.
    9000005    1    3    3    0    0 -0.60356202393E+02 -0.16209870947E+02  0.85102854846E+02  0.10558942649E+03  0.10000000000E+01 0.  0.
    9000005    1    3    3    0    0  0.60356202393E+02  0.16209870947E+02  0.85403610747E+02  0.10583197916E+03  0.10000000000E+01 0.  0.
<mgrwt>
<rscale>  0 0.12500622E+03</rscale>
<asrwt>0</asrwt>
<pdfrwt beam="2">  1        4 0.31473030E-02 0.12500622E+03</pdfrwt>
<pdfrwt beam="1">  1       -4 0.29379068E-01 0.12500622E+03</pdfrwt>
<totfact> 0.88231995E+03</totfact>
</mgrwt>
</event>
<event>
 5    1  0.3183609E-002  0.1249977E+03  0.7818608E-02  0.1235073E+00
         -4   -1    0    0    0  501 -0.00000000000E+00  0.00000000000E+00  0.16222554319E+03  0.16223051428E+03  0.12700000000E+01 0.  1.
          4   -1    0    0  501    0  0.00000000000E+00 -0.00000000000E+00 -0.24056148141E+02  0.24089648469E+02  0.12700000000E+01 0.  1.
         25    2    1    2    0    0  0.00000000000E+00  0.00000000000E+00  0.13816939505E+03  0.18632016275E+03  0.12499768525E+03 0.  0.
    9000005    1    3    3    0    0 -0.40342165535E+02  0.47589495565E+02  0.74429019259E+02  0.97123268664E+02  0.10000000000E+01 0.  0.
    9000005    1    3    3    0    0  0.40342165535E+02 -0.47589495565E+02  0.63740375787E+02  0.89196894081E+02  0.10000000000E+01 0.  0.
<mgrwt>
<rscale>  0 0.12499769E+03</rscale>
<asrwt>0</asrwt>
<pdfrwt beam="2">  1        4 0.37039053E-02 0.12499769E+03</pdfrwt>
<pdfrwt beam="1">  1       -4 0.24960734E-01 0.12499769E+03</pdfrwt>
<totfact> 0.92496364E+03</totfact>
</mgrwt>
</event>
<event>
 5    1  0.3183609E-002  0.1249989E+03  0.7818608E-02  0.1235071E+00
         -4   -1    0    0    0  501 -0.00000000000E+00  0.00000000000E+00  0.24609303529E+03  0.24609631228E+03  0.12700000000E+01 0.  1.
          4   -1    0    0  501    0  0.00000000000E+00 -0.00000000000E+00 -0.15843978670E+02  0.15894796636E+02  0.12700000000E+01 0.  1.
         25    2    1    2    0    0  0.00000000000E+00  0.00000000000E+00  0.23024905662E+03  0.26199110892E+03  0.12499885230E+03 0.  0.
    9000005    1    3    3    0    0 -0.26294161941E+02  0.52105207762E+02  0.16193707979E+03  0.17213643844E+03  0.10000000000E+01 0.  0.
    9000005    1    3    3    0    0  0.26294161941E+02 -0.52105207762E+02  0.68311976831E+02  0.89854670478E+02  0.10000000000E+01 0.  0.
<mgrwt>
<rscale>  0 0.12499885E+03</rscale>
<asrwt>0</asrwt>
<pdfrwt beam="2">  1        4 0.24416963E-02 0.12499885E+03</pdfrwt>
<pdfrwt beam="1">  1       -4 0.37864629E-01 0.12499885E+03</pdfrwt>
<totfact> 0.80629504E+03</totfact>
</mgrwt>
</event>
<event>
 5    1  0.3183609E-002  0.1250068E+03  0.7818608E-02  0.1235059E+00
          4   -1    0    0  501    0  0.00000000000E+00  0.00000000000E+00  0.96623060493E+01  0.97454121611E+01  0.12700000000E+01 0.  1.
         -4   -1    0    0    0  501 -0.00000000000E+00 -0.00000000000E+00 -0.40250544738E+03  0.40250745095E+03  0.12700000000E+01 0.  1.
         25    2    1    2    0    0  0.00000000000E+00  0.00000000000E+00 -0.39284314133E+03  0.41225286311E+03  0.12500675763E+03 0.  0.
    9000005    1    3    3    0    0 -0.38921123540E+02 -0.48883972741E+02 -0.19999743611E+03  0.20953393782E+03  0.10000000000E+01 0.  0.
    9000005    1    3    3    0    0  0.38921123540E+02  0.48883972741E+02 -0.19284570523E+03  0.20271892530E+03  0.10000000000E+01 0.  0.
<mgrwt>
<rscale>  0 0.12500676E+03</rscale>
<asrwt>0</asrwt>
<pdfrwt beam="1">  1        4 0.14930558E-02 0.12500676E+03</pdfrwt>
<pdfrwt beam="2">  1       -4 0.61930449E-01 0.12500676E+03</pdfrwt>
<totfact> 0.63368841E+03</totfact>
</mgrwt>
</event>
<event>
 5    1  0.3183609E-002  0.1249994E+03  0.7818608E-02  0.1235070E+00
         -4   -1    0    0    0  501 -0.00000000000E+00  0.00000000000E+00  0.73676183586E+01  0.74762758295E+01  0.12700000000E+01 0.  1.
          4   -1    0    0  501    0  0.00000000000E+00 -0.00000000000E+00 -0.52619615884E+03  0.52619769144E+03  0.12700000000E+01 0.  1.
         25    2    1    2    0    0  0.00000000000E+00  0.00000000000E+00 -0.51882854048E+03  0.53367396727E+03  0.12499939570E+03 0.  0.
    9000005    1    3    3    0    0  0.62984967498E+01  0.59590037101E+02 -0.18369161699E+03  0.19322073837E+03  0.10000000000E+01 0.  0.
    9000005    1    3    3    0    0 -0.62984967498E+01 -0.59590037101E+02 -0.33513692349E+03  0.34045322890E+03  0.10000000000E+01 0.  0.
<mgrwt>
<rscale>  0 0.12499940E+03</rscale>
<asrwt>0</asrwt>
<pdfrwt beam="2">  1        4 0.80961702E-01 0.12499940E+03</pdfrwt>
<pdfrwt beam="1">  1       -4 0.11419563E-02 0.12499940E+03</pdfrwt>
<totfact> 0.53343892E+03</totfact>
</mgrwt>
</event>
<event>
 5    1  0.3183609E-002  0.1249994E+03  0.7818608E-02  0.1235070E+00
         -4   -1    0    0    0  501 -0.00000000000E+00  0.00000000000E+00  0.30324525637E+02  0.30351107972E+02  0.12700000000E+01 0. -1.
          4   -1    0    0  501    0  0.00000000000E+00 -0.00000000000E+00 -0.12872741431E+03  0.12873367895E+03  0.12700000000E+01 0. -1.
         25    2    1    2    0    0  0.00000000000E+00  0.00000000000E+00 -0.98402888676E+02  0.15908478692E+03  0.12499936372E+03 0.  0.
    9000005    1    3    3    0    0 -0.52677498800E+02  0.20207022859E+02 -0.15005098845E+02  0.58390030347E+02  0.10000000000E+01 0.  0.
    9000005    1    3    3    0    0  0.52677498800E+02 -0.20207022859E+02 -0.83397789831E+02  0.10069475657E+03  0.10000000000E+01 0.  0.
<mgrwt>
<rscale>  0 0.12499936E+03</rscale>
<asrwt>0</asrwt>
<pdfrwt beam="2">  1        4 0.19806744E-01 0.12499936E+03</pdfrwt>
<pdfrwt beam="1">  1       -4 0.46678384E-02 0.12499936E+03</pdfrwt>
<totfact> 0.97520916E+03</totfact>
</mgrwt>
</event>
<event>
 5    1  0.3183609E-002  0.1249956E+03  0.7818608E-02  0.1235076E+00
         -4   -1    0    0    0  501 -0.00000000000E+00  0.00000000000E+00  0.24836952654E+02  0.24869401222E+02  0.12700000000E+01 0. -1.
          4   -1    0    0  501    0  0.00000000000E+00 -0.00000000000E+00 -0.15712690465E+03  0.15713203704E+03  0.12700000000E+01 0. -1.
         25    2    1    2    0    0  0.00000000000E+00  0.00000000000E+00 -0.13228995200E+03  0.18200143826E+03  0.12499556844E+03 0.  0.
    9000005    1    3    3    0    0 -0.24003311267E+02 -0.27331945267E+02  0.78393502770E+01  0.37224314589E+02  0.10000000000E+01 0.  0.
    9000005    1    3    3    0    0  0.24003311267E+02  0.27331945267E+02 -0.14012930227E+03  0.14477712367E+03  0.10000000000E+01 0.  0.
<mgrwt>
<rscale>  0 0.12499557E+03</rscale>
<asrwt>0</asrwt>
<pdfrwt beam="2">  1        4 0.24176260E-01 0.12499557E+03</pdfrwt>
<pdfrwt beam="1">  1       -4 0.38239606E-02 0.12499557E+03</pdfrwt>
<totfact> 0.93267239E+03</totfact>
</mgrwt>
</event>
<event>
 5    1  0.3183609E-002  0.1250017E+03  0.7818608E-02  0.1235067E+00
          4   -1    0    0  501    0  0.00000000000E+00  0.00000000000E+00  0.18954988657E+02  0.18997486544E+02  0.12700000000E+01 0.  1.
         -4   -1    0    0    0  501 -0.00000000000E+00 -0.00000000000E+00 -0.20581068283E+03  0.20581460120E+03  0.12700000000E+01 0.  1.
         25    2    1    2    0    0  0.00000000000E+00  0.00000000000E+00 -0.18685569417E+03  0.22481208774E+03  0.12500169739E+03 0.  0.
    9000005    1    3    3    0    0  0.25321888373E+02 -0.43914459001E+02 -0.15915649389E+03  0.16703732304E+03  0.10000000000E+01 0.  0.
    9000005    1    3    3    0    0 -0.25321888373E+02  0.43914459001E+02 -0.27699200277E+02  0.57774764700E+02  0.10000000000E+01 0.  0.
<mgrwt>
<rscale>  0 0.12500170E+03</rscale>
<asrwt>0</asrwt>
<pdfrwt beam="1">  1        4 0.29197227E-02 0.12500170E+03</pdfrwt>
<pdfrwt beam="2">  1       -4 0.31666751E-01 0.12500170E+03</pdfrwt>
<totfact> 0.86109318E+03</totfact>
</mgrwt>
</event>
<event>
 5    1  0.3183609E-002  0.1250021E+03  0.7818608E-02  0.1235066E+00
         -4   -1    0    0    0  501 -0.00000000000E+00  0.00000000000E+00  0.33784263844E+03  0.33784502549E+03  0.12700000000E+01 0. -1.
          4   -1    0    0  501    0  0.00000000000E+00 -0.00000000000E+00 -0.11525416866E+02  0.11595177185E+02  0.12700000000E+01 0. -1.
         25    2    1    2    0    0  0.00000000000E+00  0.00000000000E+00  0.32631722158E+03  0.34944020268E+03  0.12500210458E+03 0.  0.
    9000005    1    3    3    0    0  0.46233263662E+02  0.21417930489E+02  0.26430454833E+03  0.26917306084E+03  0.10000000000E+01 0.  0.
    9000005    1    3    3    0    0 -0.46233263662E+02 -0.21417930489E+02  0.62012673248E+02  0.80267141837E+02  0.10000000000E+01 0.  0.
<mgrwt>
<rscale>  0 0.12500210E+03</rscale>
<asrwt>0</asrwt>
<pdfrwt beam="2">  1        4 0.17786910E-02 0.12500210E+03</pdfrwt>
<pdfrwt beam="1">  1       -4 0.51981336E-01 0.12500210E+03</pdfrwt>
<totfact> 0.69782935E+03</totfact>
</mgrwt>
</event>
<event>
 5    1  0.3183609E-002  0.1249988E+03  0.7818608E-02  0.1235071E+00
         -4   -1    0    0    0  501 -0.00000000000E+00  0.00000000000E+00  0.26380857482E+02  0.26411409305E+02  0.12700000000E+01 0.  1.
          4   -1    0    0  501    0  0.00000000000E+00 -0.00000000000E+00 -0.14794964185E+03  0.14795509259E+03  0.12700000000E+01 0.  1.
         25    2    1    2    0    0  0.00000000000E+00  0.00000000000E+00 -0.12156878437E+03  0.17436650190E+03  0.12499883060E+03 0.  0.
    9000005    1    3    3    0    0  0.57922319234E+02 -0.22944170408E+02 -0.67582068628E+02  0.91922608868E+02  0.10000000000E+01 0.  0.
    9000005    1    3    3    0    0 -0.57922319234E+02  0.22944170408E+02 -0.53986715741E+02  0.82443893028E+02  0.10000000000E+01 0.  0.
<mgrwt>
<rscale>  0 0.12499883E+03</rscale>
<asrwt>0</asrwt>
<pdfrwt beam="2">  1        4 0.22764252E-01 0.12499883E+03</pdfrwt>
<pdfrwt beam="1">  1       -4 0.40613630E-02 0.12499883E+03</pdfrwt>
<totfact> 0.94643475E+03</totfact>
</mgrwt>
</event>
<event>
 5    1  0.3183609E-002  0.1249990E+03  0.7818608E-02  0.1235071E+00
         -4   -1    0    0    0  501 -0.00000000000E+00  0.00000000000E+00  0.59236387310E+01  0.60582502272E+01  0.12700000000E+01 0. -1.
          4   -1    0    0  501    0  0.00000000000E+00 -0.00000000000E+00 -0.65188028512E+03  0.65188152223E+03  0.12700000000E+01 0. -1.
         25    2    1    2    0    0  0.00000000000E+00  0.00000000000E+00 -0.64595664638E+03  0.65793977246E+03  0.12499902068E+03 0.  0.
    9000005    1    3    3    0    0 -0.68578338921E+01 -0.21678121752E+02 -0.16594946061E+02  0.28166701674E+02  0.10000000000E+01 0.  0.
    9000005    1    3    3    0    0  0.68578338921E+01  0.21678121752E+02 -0.62936170032E+03  0.62977307078E+03  0.10000000000E+01 0.  0.
<mgrwt>
<rscale>  0 0.12499902E+03</rscale>
<asrwt>0</asrwt>
<pdfrwt beam="2">  1        4 0.10029967E+00 0.12499902E+03</pdfrwt>
<pdfrwt beam="1">  1       -4 0.92177944E-03 0.12499902E+03</pdfrwt>
<totfact> 0.45402706E+03</totfact>
</mgrwt>
</event>
<event>
 5    1  0.3183609E-002  0.1250005E+03  0.7818608E-02  0.1235068E+00
         -4   -1    0    0    0  501 -0.00000000000E+00  0.00000000000E+00  0.57309363951E+01  0.58699686511E+01  0.12700000000E+01 0.  1.
          4   -1    0    0  501    0  0.00000000000E+00 -0.00000000000E+00 -0.67330481328E+03  0.67330601103E+03  0.12700000000E+01 0.  1.
         25    2    1    2    0    0  0.00000000000E+00  0.00000000000E+00 -0.66757387688E+03  0.67917597968E+03  0.12500052109E+03 0.  0.
    9000005    1    3    3    0    0  0.84687015203E+01 -0.35735005483E+02 -0.59061043168E+02  0.69555131676E+02  0.10000000000E+01 0.  0.
    9000005    1    3    3    0    0 -0.84687015203E+01  0.35735005483E+02 -0.60851283371E+03  0.60962084800E+03  0.10000000000E+01 0.  0.
<mgrwt>
<rscale>  0 0.12500052E+03</rscale>
<asrwt>0</asrwt>
<pdfrwt beam="2">  1        4 0.10359608E+00 0.12500052E+03</pdfrwt>
<pdfrwt beam="1">  1       -4 0.89246998E-03 0.12500052E+03</pdfrwt>
<totfact> 0.44208521E+03</totfact>
</mgrwt>
</event>
<event>
 5    1  0.3183609E-002  0.1250016E+03  0.7818608E-02  0.1235067E+00
          4   -1    0    0  501    0  0.00000000000E+00  0.00000000000E+00  0.10206750393E+02  0.10285458356E+02  0.12700000000E+01 0. -1.
         -4   -1    0    0    0  501 -0.00000000000E+00 -0.00000000000E+00 -0.38117241202E+03  0.38117452772E+03  0.12700000000E+01 0. -1.
         25    2    1    2    0    0  0.00000000000E+00  0.00000000000E+00 -0.37096566163E+03  0.39145998608E+03  0.12500159437E+03 0.  0.
    9000005    1    3    3    0    0  0.62054386335E+02  0.50084487637E+01 -0.20249724310E+03  0.21185364024E+03  0.10000000000E+01 0.  0.
    9000005    1    3    3    0    0 -0.62054386335E+02 -0.50084487637E+01 -0.16846841853E+03  0.17960634583E+03  0.10000000000E+01 0.  0.
<mgrwt>
<rscale>  0 0.12500159E+03</rscale>
<asrwt>0</asrwt>
<pdfrwt beam="1">  1        4 0.15764868E-02 0.12500159E+03</pdfrwt>
<pdfrwt beam="2">  1       -4 0.58648116E-01 0.12500159E+03</pdfrwt>
<totfact> 0.65389645E+03</totfact>
</mgrwt>
</event>
<event>
 5    1  0.3183609E-002  0.1249978E+03  0.7818608E-02  0.1235073E+00
          4   -1    0    0  501    0  0.00000000000E+00  0.00000000000E+00  0.86377421366E+02  0.86386757214E+02  0.12700000000E+01 0. -1.
         -4   -1    0    0    0  501 -0.00000000000E+00 -0.00000000000E+00 -0.45200738839E+02  0.45218576842E+02  0.12700000000E+01 0. -1.
         25    2    1    2    0    0  0.00000000000E+00  0.00000000000E+00  0.41176682527E+02  0.13160533406E+03  0.12499777905E+03 0.  0.
    9000005    1    3    3    0    0 -0.16071276362E+02  0.60040322138E+02  0.27410443126E+02  0.67937166549E+02  0.10000000000E+01 0.  0.
    9000005    1    3    3    0    0  0.16071276362E+02 -0.60040322138E+02  0.13766239401E+02  0.63668167506E+02  0.10000000000E+01 0.  0.
<mgrwt>
<rscale>  0 0.12499778E+03</rscale>
<asrwt>0</asrwt>
<pdfrwt beam="1">  1        4 0.13290924E-01 0.12499778E+03</pdfrwt>
<pdfrwt beam="2">  1       -4 0.69560502E-02 0.12499778E+03</pdfrwt>
<totfact> 0.10310646E+04</totfact>
</mgrwt>
</event>
<event>
 5    1  0.3183609E-002  0.1249929E+03  0.7818608E-02  0.1235080E+00
         -4   -1    0    0    0  501 -0.00000000000E+00  0.00000000000E+00  0.94921660547E+02  0.94930156120E+02  0.12700000000E+01 0.  1.
          4   -1    0    0  501    0  0.00000000000E+00 -0.00000000000E+00 -0.41127558604E+02  0.41147162438E+02  0.12700000000E+01 0.  1.
         25    2    1    2    0    0  0.00000000000E+00  0.00000000000E+00  0.53794101943E+02  0.13607731856E+03  0.12499292469E+03 0.  0.
    9000005    1    3    3    0    0 -0.57979154492E+02  0.88153182464E+01  0.34078935300E+01  0.58752922733E+02  0.10000000000E+01 0.  0.
    9000005    1    3    3    0    0  0.57979154492E+02 -0.88153182464E+01  0.50386208413E+02  0.77324395825E+02  0.10000000000E+01 0.  0.
<mgrwt>
<rscale>  0 0.12499292E+03</rscale>
<asrwt>0</asrwt>
<pdfrwt beam="2">  1        4 0.63294782E-02 0.12499292E+03</pdfrwt>
<pdfrwt beam="1">  1       -4 0.14605494E-01 0.12499292E+03</pdfrwt>
<totfact> 0.10217043E+04</totfact>
</mgrwt>
</event>
<event>
 5    1  0.3183609E-002  0.1249989E+03  0.7818608E-02  0.1235071E+00
          4   -1    0    0  501    0  0.00000000000E+00  0.00000000000E+00  0.19382186611E+03  0.19382602685E+03  0.12700000000E+01 0. -1.
         -4   -1    0    0    0  501 -0.00000000000E+00 -0.00000000000E+00 -0.20129076274E+02  0.20169100417E+02  0.12700000000E+01 0. -1.
         25    2    1    2    0    0  0.00000000000E+00  0.00000000000E+00  0.17369278984E+03  0.21399512727E+03  0.12499891700E+03 0.  0.
    9000005    1    3    3    0    0 -0.16736915379E+02 -0.58983239030E+02  0.66157997983E+02  0.90205473892E+02  0.10000000000E+01 0.  0.
    9000005    1    3    3    0    0  0.16736915379E+02  0.58983239030E+02  0.10753479186E+03  0.12378965338E+03  0.10000000000E+01 0.  0.
<mgrwt>
<rscale>  0 0.12499892E+03</rscale>
<asrwt>0</asrwt>
<pdfrwt beam="1">  1        4 0.29822147E-01 0.12499892E+03</pdfrwt>
<pdfrwt beam="2">  1       -4 0.31001798E-02 0.12499892E+03</pdfrwt>
<totfact> 0.87829678E+03</totfact>
</mgrwt>
</event>
<event>
 5    1  0.3183609E-002  0.1249988E+03  0.7818608E-02  0.1235071E+00
          4   -1    0    0  501    0  0.00000000000E+00  0.00000000000E+00  0.10724162133E+01  0.16622203628E+01  0.12700000000E+01 0. -1.
         -4   -1    0    0    0  501 -0.00000000000E+00 -0.00000000000E+00 -0.28562266717E+04  0.28562269540E+04  0.12700000000E+01 0. -1.
         25    2    1    2    0    0  0.00000000000E+00  0.00000000000E+00 -0.28551542554E+04  0.28578891744E+04  0.12499884236E+03 0.  0.
    9000005    1    3    3    0    0  0.55142691715E+02  0.14836267949E+01 -0.75621239329E+03  0.75822232977E+03  0.10000000000E+01 0.  0.
    9000005    1    3    3    0    0 -0.55142691715E+02 -0.14836267949E+01 -0.20989418622E+04  0.20996668446E+04  0.10000000000E+01 0.  0.
<mgrwt>
<rscale>  0 0.12499884E+03</rscale>
<asrwt>0</asrwt>
<pdfrwt beam="1">  1        4 0.21038067E-03 0.12499884E+03</pdfrwt>
<pdfrwt beam="2">  1       -4 0.43946010E+00 0.12499884E+03</pdfrwt>
<totfact> 0.24275749E+02</totfact>
</mgrwt>
</event>
<event>
 5    1  0.3183609E-002  0.1250013E+03  0.7818608E-02  0.1235067E+00
         -4   -1    0    0    0  501 -0.00000000000E+00  0.00000000000E+00  0.81083935457E+02  0.81093880713E+02  0.12700000000E+01 0. -1.
          4   -1    0    0  501    0  0.00000000000E+00 -0.00000000000E+00 -0.48155138674E+02  0.48171882677E+02  0.12700000000E+01 0. -1.
         25    2    1    2    0    0  0.00000000000E+00  0.00000000000E+00  0.32928796783E+02  0.12926576339E+03  0.12500132770E+03 0.  0.
    9000005    1    3    3    0    0  0.47918508798E+02  0.32302256390E+02  0.41060554936E+02  0.70898437394E+02  0.10000000000E+01 0.  0.
    9000005    1    3    3    0    0 -0.47918508798E+02 -0.32302256390E+02 -0.81317581527E+01  0.58367325996E+02  0.10000000000E+01 0.  0.
<mgrwt>
<rscale>  0 0.12500133E+03</rscale>
<asrwt>0</asrwt>
<pdfrwt beam="2">  1        4 0.74105359E-02 0.12500133E+03</pdfrwt>
<pdfrwt beam="1">  1       -4 0.12476505E-01 0.12500133E+03</pdfrwt>
<totfact> 0.10359929E+04</totfact>
</mgrwt>
</event>
<event>
 5    1  0.3183609E-002  0.1250007E+03  0.7818608E-02  0.1235068E+00
          4   -1    0    0  501    0  0.00000000000E+00  0.00000000000E+00  0.20611576122E+03  0.20611967379E+03  0.12700000000E+01 0. -1.
         -4   -1    0    0    0  501 -0.00000000000E+00 -0.00000000000E+00 -0.18926564123E+02  0.18969125691E+02  0.12700000000E+01 0. -1.
         25    2    1    2    0    0  0.00000000000E+00  0.00000000000E+00  0.18718919710E+03  0.22508879949E+03  0.12500068857E+03 0.  0.
    9000005    1    3    3    0    0  0.27407071707E+02 -0.13622503116E+02  0.19170506403E+03  0.19413539539E+03  0.10000000000E+01 0.  0.
    9000005    1    3    3    0    0 -0.27407071707E+02  0.13622503116E+02 -0.45158669274E+01  0.30953404091E+02  0.10000000000E+01 0.  0.
<mgrwt>
<rscale>  0 0.12500069E+03</rscale>
<asrwt>0</asrwt>
<pdfrwt beam="1">  1        4 0.31713695E-01 0.12500069E+03</pdfrwt>
<pdfrwt beam="2">  1       -4 0.29153537E-02 0.12500069E+03</pdfrwt>
<totfact> 0.86068137E+03</totfact>
</mgrwt>
</event>
<event>
 5    1  0.3183609E-002  0.1250004E+03  0.7818608E-02  0.1235069E+00
         -4   -1    0    0    0  501 -0.00000000000E+00  0.00000000000E+00  0.15725704508E+03  0.15726217323E+03  0.12700000000E+01 0. -1.
          4   -1    0    0  501    0  0.00000000000E+00 -0.00000000000E+00 -0.24818288502E+02  0.24850761440E+02  0.12700000000E+01 0. -1.
         25    2    1    2    0    0  0.00000000000E+00  0.00000000000E+00  0.13243875658E+03  0.18211293467E+03  0.12500038691E+03 0.  0.
    9000005    1    3    3    0    0 -0.56090395464E+02  0.66965612459E+01  0.10515697007E+03  0.11937321622E+03  0.10000000000E+01 0.  0.
    9000005    1    3    3    0    0  0.56090395464E+02 -0.66965612459E+01  0.27281786509E+02  0.62739718448E+02  0.10000000000E+01 0.  0.
<mgrwt>
<rscale>  0 0.12500039E+03</rscale>
<asrwt>0</asrwt>
<pdfrwt beam="2">  1        4 0.38210906E-02 0.12500039E+03</pdfrwt>
<pdfrwt beam="1">  1       -4 0.24196284E-01 0.12500039E+03</pdfrwt>
<totfact> 0.93237236E+03</totfact>
</mgrwt>
</event>
<event>
 5    1  0.3183609E-002  0.1250010E+03  0.7818608E-02  0.1235068E+00
          4   -1    0    0  501    0  0.00000000000E+00  0.00000000000E+00  0.46173876222E+01  0.47888587841E+01  0.12700000000E+01 0. -1.
         -4   -1    0    0    0  501 -0.00000000000E+00 -0.00000000000E+00 -0.83040624487E+03  0.83040721602E+03  0.12700000000E+01 0. -1.
         25    2    1    2    0    0  0.00000000000E+00  0.00000000000E+00 -0.82578885725E+03  0.83519607481E+03  0.12500098645E+03 0.  0.
    9000005    1    3    3    0    0 -0.12400636510E+02 -0.19088016028E+02 -0.24033447476E+02  0.33116985662E+02  0.10000000000E+01 0.  0.
    9000005    1    3    3    0    0  0.12400636510E+02  0.19088016028E+02 -0.80175540977E+03  0.80207908914E+03  0.10000000000E+01 0.  0.
<mgrwt>
<rscale>  0 0.12500099E+03</rscale>
<asrwt>0</asrwt>
<pdfrwt beam="1">  1        4 0.72363278E-03 0.12500099E+03</pdfrwt>
<pdfrwt beam="2">  1       -4 0.12776795E+00 0.12500099E+03</pdfrwt>
<totfact> 0.36740129E+03</totfact>
</mgrwt>
</event>
<event>
 5    1  0.3183609E-002  0.1249999E+03  0.7818608E-02  0.1235069E+00
          4   -1    0    0  501    0  0.00000000000E+00  0.00000000000E+00  0.40689084720E+02  0.40708899707E+02  0.12700000000E+01 0. -1.
         -4   -1    0    0    0  501 -0.00000000000E+00 -0.00000000000E+00 -0.95954844556E+02  0.95963248662E+02  0.12700000000E+01 0. -1.
         25    2    1    2    0    0  0.00000000000E+00  0.00000000000E+00 -0.55265759836E+02  0.13667214837E+03  0.12499988772E+03 0.  0.
    9000005    1    3    3    0    0  0.60791665467E+02 -0.11456508355E+02 -0.17953869961E+02  0.64422198197E+02  0.10000000000E+01 0.  0.
    9000005    1    3    3    0    0 -0.60791665467E+02  0.11456508355E+02 -0.37311889875E+02  0.72249950173E+02  0.10000000000E+01 0.  0.
<mgrwt>
<rscale>  0 0.12499989E+03</rscale>
<asrwt>0</asrwt>
<pdfrwt beam="1">  1        4 0.62620299E-02 0.12499989E+03</pdfrwt>
<pdfrwt beam="2">  1       -4 0.14764454E-01 0.12499989E+03</pdfrwt>
<totfact> 0.10202971E+04</totfact>
</mgrwt>
</event>
<event>
 5    1  0.3183609E-002  0.1250067E+03  0.7818608E-02  0.1235059E+00
          4   -1    0    0  501    0  0.00000000000E+00  0.00000000000E+00  0.24408767507E+03  0.24409097898E+03  0.12700000000E+01 0. -1.
         -4   -1    0    0    0  501 -0.00000000000E+00 -0.00000000000E+00 -0.15976574279E+02  0.16026971820E+02  0.12700000000E+01 0. -1.
         25    2    1    2    0    0  0.00000000000E+00  0.00000000000E+00  0.22811110079E+03  0.26011795080E+03  0.12500669592E+03 0.  0.
    9000005    1    3    3    0    0 -0.36001605788E+02 -0.12241939947E+02  0.21725491908E+03  0.22055992514E+03  0.10000000000E+01 0.  0.
    9000005    1    3    3    0    0  0.36001605788E+02  0.12241939947E+02  0.10856181710E+02  0.39558025663E+02  0.10000000000E+01 0.  0.
<mgrwt>
<rscale>  0 0.12500670E+03</rscale>
<asrwt>0</asrwt>
<pdfrwt beam="1">  1        4 0.37556084E-01 0.12500670E+03</pdfrwt>
<pdfrwt beam="2">  1       -4 0.24620652E-02 0.12500670E+03</pdfrwt>
<totfact> 0.80877452E+03</totfact>
</mgrwt>
</event>
<event>
 5    1  0.3183609E-002  0.1249974E+03  0.7818608E-02  0.1235073E+00
          4   -1    0    0  501    0  0.00000000000E+00  0.00000000000E+00  0.84587242614E+02  0.84596776021E+02  0.12700000000E+01 0.  1.
         -4   -1    0    0    0  501 -0.00000000000E+00 -0.00000000000E+00 -0.46157315743E+02  0.46174784208E+02  0.12700000000E+01 0.  1.
         25    2    1    2    0    0  0.00000000000E+00  0.00000000000E+00  0.38429926871E+02  0.13077156023E+03  0.12499736671E+03 0.  0.
    9000005    1    3    3    0    0 -0.53283518780E+02 -0.32647930342E+02  0.18948867613E+02  0.65307582355E+02  0.10000000000E+01 0.  0.
    9000005    1    3    3    0    0  0.53283518780E+02  0.32647930342E+02  0.19481059258E+02  0.65463977873E+02  0.10000000000E+01 0.  0.
<mgrwt>
<rscale>  0 0.12499737E+03</rscale>
<asrwt>0</asrwt>
<pdfrwt beam="1">  1        4 0.13015499E-01 0.12499737E+03</pdfrwt>
<pdfrwt beam="2">  1       -4 0.71032026E-02 0.12499737E+03</pdfrwt>
<totfact> 0.10328603E+04</totfact>
</mgrwt>
</event>
<event>
 5    1  0.3183609E-002  0.1249963E+03  0.7818608E-02  0.1235075E+00
         -4   -1    0    0    0  501 -0.00000000000E+00  0.00000000000E+00  0.34463505084E+03  0.34463739085E+03  0.12700000000E+01 0.  1.
          4   -1    0    0  501    0  0.00000000000E+00 -0.00000000000E+00 -0.11295817592E+02  0.11366987071E+02  0.12700000000E+01 0.  1.
         25    2    1    2    0    0  0.00000000000E+00  0.00000000000E+00  0.33333923325E+03  0.35600437792E+03  0.12499629063E+03 0.  0.
    9000005    1    3    3    0    0  0.50293417208E+02  0.12862512904E+02  0.26574759102E+03  0.27077232906E+03  0.10000000000E+01 0.  0.
    9000005    1    3    3    0    0 -0.50293417208E+02 -0.12862512904E+02  0.67591642228E+02  0.85232048853E+02  0.10000000000E+01 0.  0.
<mgrwt>
<rscale>  0 0.12499629E+03</rscale>
<asrwt>0</asrwt>
<pdfrwt beam="2">  1        4 0.17434729E-02 0.12499629E+03</pdfrwt>
<pdfrwt beam="1">  1       -4 0.53026423E-01 0.12499629E+03</pdfrwt>
<totfact> 0.69074685E+03</totfact>
</mgrwt>
</event>
<event>
 5    1  0.3183609E-002  0.1250035E+03  0.7818608E-02  0.1235064E+00
          4   -1    0    0  501    0  0.00000000000E+00  0.00000000000E+00  0.75449196772E+02  0.75459884664E+02  0.12700000000E+01 0.  1.
         -4   -1    0    0    0  501 -0.00000000000E+00 -0.00000000000E+00 -0.51753964477E+02  0.51769544513E+02  0.12700000000E+01 0.  1.
         25    2    1    2    0    0  0.00000000000E+00  0.00000000000E+00  0.23695232295E+02  0.12722942918E+03  0.12500345441E+03 0.  0.
    9000005    1    3    3    0    0  0.13840565411E+02 -0.12692650418E+01 -0.50165952408E+02  0.52065296173E+02  0.10000000000E+01 0.  0.
    9000005    1    3    3    0    0 -0.13840565411E+02  0.12692650418E+01  0.73861184702E+02  0.75164133004E+02  0.10000000000E+01 0.  0.
<mgrwt>
<rscale>  0 0.12500345E+03</rscale>
<asrwt>0</asrwt>
<pdfrwt beam="1">  1        4 0.11609589E-01 0.12500345E+03</pdfrwt>
<pdfrwt beam="2">  1       -4 0.79641690E-02 0.12500345E+03</pdfrwt>
<totfact> 0.10403354E+04</totfact>
</mgrwt>
</event>
<event>
 5    1  0.3183609E-002  0.1249998E+03  0.7818608E-02  0.1235070E+00
         -4   -1    0    0    0  501 -0.00000000000E+00  0.00000000000E+00  0.96425681897E+01  0.97258429605E+01  0.12700000000E+01 0. -1.
          4   -1    0    0  501    0  0.00000000000E+00 -0.00000000000E+00 -0.40327751239E+03  0.40327951213E+03  0.12700000000E+01 0. -1.
         25    2    1    2    0    0  0.00000000000E+00  0.00000000000E+00 -0.39363494420E+03  0.41300535509E+03  0.12499981613E+03 0.  0.
    9000005    1    3    3    0    0  0.19108039764E+02  0.49143060302E+02 -0.85992356234E+02  0.10087538297E+03  0.10000000000E+01 0.  0.
    9000005    1    3    3    0    0 -0.19108039764E+02 -0.49143060302E+02 -0.30764258797E+03  0.31212997211E+03  0.10000000000E+01 0.  0.
<mgrwt>
<rscale>  0 0.12499982E+03</rscale>
<asrwt>0</asrwt>
<pdfrwt beam="2">  1        4 0.62049241E-01 0.12499982E+03</pdfrwt>
<pdfrwt beam="1">  1       -4 0.14900319E-02 0.12499982E+03</pdfrwt>
<totfact> 0.63307520E+03</totfact>
</mgrwt>
</event>
<event>
 5    1  0.3183609E-002  0.1250180E+03  0.7818608E-02  0.1235041E+00
         -4   -1    0    0    0  501 -0.00000000000E+00  0.00000000000E+00  0.66132537608E+02  0.66144730935E+02  0.12700000000E+01 0.  1.
          4   -1    0    0  501    0  0.00000000000E+00 -0.00000000000E+00 -0.59059526584E+02  0.59073179873E+02  0.12700000000E+01 0.  1.
         25    2    1    2    0    0  0.00000000000E+00  0.00000000000E+00  0.70730110241E+01  0.12521791081E+03  0.12501798951E+03 0.  0.
    9000005    1    3    3    0    0  0.57748404006E+01 -0.55302817068E+02 -0.25050756470E+02  0.60994186256E+02  0.10000000000E+01 0.  0.
    9000005    1    3    3    0    0 -0.57748404006E+01  0.55302817068E+02  0.32123767494E+02  0.64223724552E+02  0.10000000000E+01 0.  0.
<mgrwt>
<rscale>  0 0.12501799E+03</rscale>
<asrwt>0</asrwt>
<pdfrwt beam="2">  1        4 0.90880693E-02 0.12501799E+03</pdfrwt>
<pdfrwt beam="1">  1       -4 0.10176225E-01 0.12501799E+03</pdfrwt>
<totfact> 0.10443885E+04</totfact>
</mgrwt>
</event>
<event>
 5    1  0.3183609E-002  0.1249907E+03  0.7818608E-02  0.1235084E+00
          4   -1    0    0  501    0  0.00000000000E+00  0.00000000000E+00  0.30898990753E+02  0.30925079298E+02  0.12700000000E+01 0.  1.
         -4   -1    0    0    0  501 -0.00000000000E+00 -0.00000000000E+00 -0.12631858879E+03  0.12632497288E+03  0.12700000000E+01 0.  1.
         25    2    1    2    0    0  0.00000000000E+00  0.00000000000E+00 -0.95419598037E+02  0.15725005218E+03  0.12499071654E+03 0.  0.
    9000005    1    3    3    0    0  0.57787208950E+02  0.23723183320E+02 -0.49706509412E+02  0.79836633340E+02  0.10000000000E+01 0.  0.
    9000005    1    3    3    0    0 -0.57787208950E+02 -0.23723183320E+02 -0.45713088624E+02  0.77413418841E+02  0.10000000000E+01 0.  0.
<mgrwt>
<rscale>  0 0.12499072E+03</rscale>
<asrwt>0</asrwt>
<pdfrwt beam="1">  1        4 0.47561889E-02 0.12499072E+03</pdfrwt>
<pdfrwt beam="2">  1       -4 0.19436127E-01 0.12499072E+03</pdfrwt>
<totfact> 0.97896021E+03</totfact>
</mgrwt>
</event>
<event>
 5    1  0.3183609E-002  0.1249974E+03  0.7818608E-02  0.1235073E+00
          4   -1    0    0  501    0  0.00000000000E+00  0.00000000000E+00  0.30723701094E+03  0.30723963578E+03  0.12700000000E+01 0.  1.
         -4   -1    0    0    0  501 -0.00000000000E+00 -0.00000000000E+00 -0.12679203583E+02  0.12742648998E+02  0.12700000000E+01 0.  1.
         25    2    1    2    0    0  0.00000000000E+00  0.00000000000E+00  0.29455780736E+03  0.31998228478E+03  0.12499744275E+03 0.  0.
    9000005    1    3    3    0    0  0.60552004013E+02  0.14478678154E+02  0.16104371779E+03  0.17266226093E+03  0.10000000000E+01 0.  0.
    9000005    1    3    3    0    0 -0.60552004013E+02 -0.14478678154E+02  0.13351408957E+03  0.14732002384E+03  0.10000000000E+01 0.  0.
<mgrwt>
<rscale>  0 0.12499744E+03</rscale>
<asrwt>0</asrwt>
<pdfrwt beam="1">  1        4 0.47272317E-01 0.12499744E+03</pdfrwt>
<pdfrwt beam="2">  1       -4 0.19557289E-02 0.12499744E+03</pdfrwt>
<totfact> 0.73162376E+03</totfact>
</mgrwt>
</event>
<event>
 5    1  0.3183609E-002  0.1249964E+03  0.7818608E-02  0.1235075E+00
          4   -1    0    0  501    0  0.00000000000E+00  0.00000000000E+00  0.24975629437E+02  0.25007898068E+02  0.12700000000E+01 0. -1.
         -4   -1    0    0    0  501 -0.00000000000E+00 -0.00000000000E+00 -0.15625767369E+03  0.15626283463E+03  0.12700000000E+01 0. -1.
         25    2    1    2    0    0  0.00000000000E+00  0.00000000000E+00 -0.13128204425E+03  0.18127073270E+03  0.12499641351E+03 0.  0.
    9000005    1    3    3    0    0 -0.21604010972E+01  0.24030552596E+02 -0.14923754034E+03  0.15117863023E+03  0.10000000000E+01 0.  0.
    9000005    1    3    3    0    0  0.21604010972E+01 -0.24030552596E+02  0.17955496092E+02  0.30092102467E+02  0.10000000000E+01 0.  0.
<mgrwt>
<rscale>  0 0.12499641E+03</rscale>
<asrwt>0</asrwt>
<pdfrwt beam="1">  1        4 0.38452838E-02 0.12499641E+03</pdfrwt>
<pdfrwt beam="2">  1       -4 0.24042521E-01 0.12499641E+03</pdfrwt>
<totfact> 0.93396276E+03</totfact>
</mgrwt>
</event>
<event>
 5    1  0.3183609E-002  0.1249979E+03  0.7818608E-02  0.1235073E+00
          4   -1    0    0  501    0  0.00000000000E+00  0.00000000000E+00  0.72559752243E+01  0.73662796889E+01  0.12700000000E+01 0. -1.
         -4   -1    0    0    0  501 -0.00000000000E+00 -0.00000000000E+00 -0.53415938015E+03  0.53416088990E+03  0.12700000000E+01 0. -1.
         25    2    1    2    0    0  0.00000000000E+00  0.00000000000E+00 -0.52690340493E+03  0.54152716959E+03  0.12499790912E+03 0.  0.
    9000005    1    3    3    0    0 -0.56964096941E+02  0.17971175443E+02 -0.34301121014E+03  0.34817461391E+03  0.10000000000E+01 0.  0.
    9000005    1    3    3    0    0  0.56964096941E+02 -0.17971175443E+02 -0.18389219479E+03  0.19335255569E+03  0.10000000000E+01 0.  0.
<mgrwt>
<rscale>  0 0.12499791E+03</rscale>
<asrwt>0</asrwt>
<pdfrwt beam="1">  1        4 0.11249054E-02 0.12499791E+03</pdfrwt>
<pdfrwt beam="2">  1       -4 0.82186937E-01 0.12499791E+03</pdfrwt>
<totfact> 0.52782872E+03</totfact>
</mgrwt>
</event>
<event>
 5    1  0.3183609E-002  0.1250035E+03  0.7818608E-02  0.1235064E+00
          4   -1    0    0  501    0  0.00000000000E+00  0.00000000000E+00  0.11724033731E+03  0.11724721571E+03  0.12700000000E+01 0.  1.
         -4   -1    0    0    0  501 -0.00000000000E+00 -0.00000000000E+00 -0.33300232491E+02  0.33324441240E+02  0.12700000000E+01 0.  1.
         25    2    1    2    0    0  0.00000000000E+00  0.00000000000E+00  0.83940104816E+02  0.15057165695E+03  0.12500353067E+03 0.  0.
    9000005    1    3    3    0    0  0.18660186534E+02 -0.59396308681E+02  0.35444759336E+02  0.71648133338E+02  0.10000000000E+01 0.  0.
    9000005    1    3    3    0    0 -0.18660186534E+02  0.59396308681E+02  0.48495345480E+02  0.78923523613E+02  0.10000000000E+01 0.  0.
<mgrwt>
<rscale>  0 0.12500353E+03</rscale>
<asrwt>0</asrwt>
<pdfrwt beam="1">  1        4 0.18039366E-01 0.12500353E+03</pdfrwt>
<pdfrwt beam="2">  1       -4 0.51255040E-02 0.12500353E+03</pdfrwt>
<totfact> 0.99181988E+03</totfact>
</mgrwt>
</event>
<event>
 5    1  0.3183609E-002  0.1249990E+03  0.7818608E-02  0.1235071E+00
         -4   -1    0    0    0  501 -0.00000000000E+00  0.00000000000E+00  0.30589802527E+02  0.30616154537E+02  0.12700000000E+01 0.  1.
          4   -1    0    0  501    0  0.00000000000E+00 -0.00000000000E+00 -0.12761130379E+03  0.12761762321E+03  0.12700000000E+01 0.  1.
         25    2    1    2    0    0  0.00000000000E+00  0.00000000000E+00 -0.97021501260E+02  0.15823377775E+03  0.12499902685E+03 0.  0.
    9000005    1    3    3    0    0 -0.14453786410E+02  0.51034595959E+02 -0.66840489761E+01  0.53470725047E+02  0.10000000000E+01 0.  0.
    9000005    1    3    3    0    0  0.14453786410E+02 -0.51034595959E+02 -0.90337452284E+02  0.10476305270E+03  0.10000000000E+01 0.  0.
<mgrwt>
<rscale>  0 0.12499903E+03</rscale>
<asrwt>0</asrwt>
<pdfrwt beam="2">  1        4 0.19635021E-01 0.12499903E+03</pdfrwt>
<pdfrwt beam="1">  1       -4 0.47086367E-02 0.12499903E+03</pdfrwt>
<totfact> 0.97686520E+03</totfact>
</mgrwt>
</event>
<event>
 5    1  0.3183609E-002  0.1250028E+03  0.7818608E-02  0.1235065E+00
         -4   -1    0    0    0  501 -0.00000000000E+00  0.00000000000E+00  0.73952364445E+01  0.75034939908E+01  0.12700000000E+01 0. -1.
          4   -1    0    0  501    0  0.00000000000E+00 -0.00000000000E+00 -0.52428798813E+03  0.52428952631E+03  0.12700000000E+01 0. -1.
         25    2    1    2    0    0  0.00000000000E+00  0.00000000000E+00 -0.51689275169E+03  0.53179302030E+03  0.12500279875E+03 0.  0.
    9000005    1    3    3    0    0 -0.45416870817E+02 -0.35152193353E+02 -0.15362803048E+03  0.16401506212E+03  0.10000000000E+01 0.  0.
    9000005    1    3    3    0    0  0.45416870817E+02  0.35152193353E+02 -0.36326472120E+03  0.36777795818E+03  0.10000000000E+01 0.  0.
<mgrwt>
<rscale>  0 0.12500280E+03</rscale>
<asrwt>0</asrwt>
<pdfrwt beam="2">  1        4 0.80668107E-01 0.12500280E+03</pdfrwt>
<pdfrwt beam="1">  1       -4 0.11461749E-02 0.12500280E+03</pdfrwt>
<totfact> 0.53476051E+03</totfact>
</mgrwt>
</event>
<event>
 5    1  0.3183609E-002  0.1249744E+03  0.7818608E-02  0.1235109E+00
         -4   -1    0    0    0  501 -0.00000000000E+00  0.00000000000E+00  0.23987318976E+03  0.23987655172E+03  0.12700000000E+01 0. -1.
          4   -1    0    0  501    0  0.00000000000E+00 -0.00000000000E+00 -0.16249729628E+02  0.16299282591E+02  0.12700000000E+01 0. -1.
         25    2    1    2    0    0  0.00000000000E+00  0.00000000000E+00  0.22362346013E+03  0.25617583431E+03  0.12497442204E+03 0.  0.
    9000005    1    3    3    0    0  0.39579952087E+02  0.26140802447E+01  0.12861259698E+02  0.41711125899E+02  0.10000000000E+01 0.  0.
    9000005    1    3    3    0    0 -0.39579952087E+02 -0.26140802447E+01  0.21076220043E+03  0.21446470841E+03  0.10000000000E+01 0.  0.
<mgrwt>
<rscale>  0 0.12497442E+03</rscale>
<asrwt>0</asrwt>
<pdfrwt beam="2">  1        4 0.25040289E-02 0.12497442E+03</pdfrwt>
<pdfrwt beam="1">  1       -4 0.36907636E-01 0.12497442E+03</pdfrwt>
<totfact> 0.81492144E+03</totfact>
</mgrwt>
</event>
<event>
 5    1  0.3183609E-002  0.1250005E+03  0.7818608E-02  0.1235068E+00
         -4   -1    0    0    0  501 -0.00000000000E+00  0.00000000000E+00  0.34609263780E+01  0.36865853298E+01  0.12700000000E+01 0.  1.
          4   -1    0    0  501    0  0.00000000000E+00 -0.00000000000E+00 -0.10928210681E+04  0.10928218060E+04  0.12700000000E+01 0.  1.
         25    2    1    2    0    0  0.00000000000E+00  0.00000000000E+00 -0.10893601417E+04  0.10965083913E+04  0.12500053599E+03 0.  0.
    9000005    1    3    3    0    0  0.58178770449E+02  0.21569908378E+02 -0.47947537327E+03  0.48347457416E+03  0.10000000000E+01 0.  0.
    9000005    1    3    3    0    0 -0.58178770449E+02 -0.21569908378E+02 -0.60988476840E+03  0.61303381718E+03  0.10000000000E+01 0.  0.
<mgrwt>
<rscale>  0 0.12500054E+03</rscale>
<asrwt>0</asrwt>
<pdfrwt beam="2">  1        4 0.16814347E+00 0.12500054E+03</pdfrwt>
<pdfrwt beam="1">  1       -4 0.54986623E-03 0.12500054E+03</pdfrwt>
<totfact> 0.27585529E+03</totfact>
</mgrwt>
</event>
<event>
 5    1  0.3183609E-002  0.1249998E+03  0.7818608E-02  0.1235070E+00
          4   -1    0    0  501    0  0.00000000000E+00  0.00000000000E+00  0.12092550966E+03  0.12093217846E+03  0.12700000000E+01 0. -1.
         -4   -1    0    0    0  501 -0.00000000000E+00 -0.00000000000E+00 -0.32282820843E+02  0.32307791964E+02  0.12700000000E+01 0. -1.
         25    2    1    2    0    0  0.00000000000E+00  0.00000000000E+00  0.88642688821E+02  0.15323997043E+03  0.12499984902E+03 0.  0.
    9000005    1    3    3    0    0 -0.35189400312E+02  0.46239755083E+02  0.72513047908E+02  0.92927665210E+02  0.10000000000E+01 0.  0.
    9000005    1    3    3    0    0  0.35189400312E+02 -0.46239755083E+02  0.16129640913E+02  0.60312305216E+02  0.10000000000E+01 0.  0.
<mgrwt>
<rscale>  0 0.12499985E+03</rscale>
<asrwt>0</asrwt>
<pdfrwt beam="1">  1        4 0.18606358E-01 0.12499985E+03</pdfrwt>
<pdfrwt beam="2">  1       -4 0.49690217E-02 0.12499985E+03</pdfrwt>
<totfact> 0.98662070E+03</totfact>
</mgrwt>
</event>
<event>
 5    1  0.3183609E-002  0.1249957E+03  0.7818608E-02  0.1235076E+00
          4   -1    0    0  501    0  0.00000000000E+00  0.00000000000E+00  0.13161423723E+02  0.13222555518E+02  0.12700000000E+01 0.  1.
         -4   -1    0    0    0  501 -0.00000000000E+00 -0.00000000000E+00 -0.29602499957E+03  0.29602772382E+03  0.12700000000E+01 0.  1.
         25    2    1    2    0    0  0.00000000000E+00  0.00000000000E+00 -0.28286357584E+03  0.30925027933E+03  0.12499573085E+03 0.  0.
    9000005    1    3    3    0    0 -0.29070556114E+02 -0.18962800811E+02 -0.12867372739E+02  0.37030451369E+02  0.10000000000E+01 0.  0.
    9000005    1    3    3    0    0  0.29070556114E+02  0.18962800811E+02 -0.26999620310E+03  0.27221982796E+03  0.10000000000E+01 0.  0.
<mgrwt>
<rscale>  0 0.12499573E+03</rscale>
<asrwt>0</asrwt>
<pdfrwt beam="1">  1        4 0.20297467E-02 0.12499573E+03</pdfrwt>
<pdfrwt beam="2">  1       -4 0.45547214E-01 0.12499573E+03</pdfrwt>
<totfact> 0.74460015E+03</totfact>
</mgrwt>
</event>
<event>
 5    1  0.3183609E-002  0.1250047E+03  0.7818608E-02  0.1235062E+00
          4   -1    0    0  501    0  0.00000000000E+00  0.00000000000E+00  0.34471366211E+02  0.34494753057E+02  0.12700000000E+01 0.  1.
         -4   -1    0    0    0  501 -0.00000000000E+00 -0.00000000000E+00 -0.11326188723E+03  0.11326900723E+03  0.12700000000E+01 0.  1.
         25    2    1    2    0    0  0.00000000000E+00  0.00000000000E+00 -0.78790521020E+02  0.14776376029E+03  0.12500473052E+03 0.  0.
    9000005    1    3    3    0    0  0.15989174964E+02  0.50741230589E+02 -0.63470030179E+00  0.53213992917E+02  0.10000000000E+01 0.  0.
    9000005    1    3    3    0    0 -0.15989174964E+02 -0.50741230589E+02 -0.78155820718E+02  0.94549767371E+02  0.10000000000E+01 0.  0.
<mgrwt>
<rscale>  0 0.12500473E+03</rscale>
<asrwt>0</asrwt>
<pdfrwt beam="1">  1        4 0.53056338E-02 0.12500473E+03</pdfrwt>
<pdfrwt beam="2">  1       -4 0.17427252E-01 0.12500473E+03</pdfrwt>
<totfact> 0.99740719E+03</totfact>
</mgrwt>
</event>
<event>
 4    1  0.3183609E-002  0.1251386E+03  0.7818608E-02  0.1234853E+00
          4   -1    0    0  501    0  0.00000000000E+00  0.00000000000E+00  0.21717310205E+02  0.21754412485E+02  0.12700000000E+01 0. -1.
         -4   -1    0    0    0  501 -0.00000000000E+00 -0.00000000000E+00 -0.18007393108E+03  0.18007840946E+03  0.12700000000E+01 0. -1.
    9000005    1    1    2    0    0 -0.34480655992E+02 -0.47758084757E+02 -0.11317006526E+03  0.12758610414E+03  0.10000000000E+01 0.  0.
    9000005    1    1    2    0    0  0.34480655992E+02  0.47758084757E+02 -0.45186555607E+02  0.74246717806E+02  0.10000000000E+01 0.  0.
<mgrwt>
<rscale>  0 0.12513860E+03</rscale>
<asrwt>0</asrwt>
<pdfrwt beam="1">  1        4 0.33443233E-02 0.12513860E+03</pdfrwt>
<pdfrwt beam="2">  1       -4 0.27706879E-01 0.12513860E+03</pdfrwt>
<totfact> 0.89549326E+03</totfact>
</mgrwt>
</event>
<event>
 5    1  0.3183609E-002  0.1249987E+03  0.7818608E-02  0.1235071E+00
         -4   -1    0    0    0  501 -0.00000000000E+00  0.00000000000E+00  0.29355488920E+02  0.29382947942E+02  0.12700000000E+01 0.  1.
          4   -1    0    0  501    0  0.00000000000E+00 -0.00000000000E+00 -0.13297168254E+03  0.13297774723E+03  0.12700000000E+01 0.  1.
         25    2    1    2    0    0  0.00000000000E+00  0.00000000000E+00 -0.10361619362E+03  0.16236069517E+03  0.12499871902E+03 0.  0.
    9000005    1    3    3    0    0  0.31793193196E+02  0.16607993168E+02 -0.11827489027E+03  0.12359847183E+03  0.10000000000E+01 0.  0.
    9000005    1    3    3    0    0 -0.31793193196E+02 -0.16607993168E+02  0.14658696649E+02  0.38762223338E+02  0.10000000000E+01 0.  0.
<mgrwt>
<rscale>  0 0.12499872E+03</rscale>
<asrwt>0</asrwt>
<pdfrwt beam="2">  1        4 0.20459760E-01 0.12499872E+03</pdfrwt>
<pdfrwt beam="1">  1       -4 0.45188079E-02 0.12499872E+03</pdfrwt>
<totfact> 0.96892372E+03</totfact>
</mgrwt>
</event>
<event>
 5    1  0.3183609E-002  0.1249999E+03  0.7818608E-02  0.1235069E+00
          4   -1    0    0  501    0  0.00000000000E+00  0.00000000000E+00  0.43801939982E+03  0.43802124094E+03  0.12700000000E+01 0. -1.
         -4   -1    0    0    0  501 -0.00000000000E+00 -0.00000000000E+00 -0.88708900515E+01  0.89613386447E+01  0.12700000000E+01 0. -1.
         25    2    1    2    0    0  0.00000000000E+00  0.00000000000E+00  0.42914850977E+03  0.44698257959E+03  0.12499993208E+03 0.  0.
    9000005    1    3    3    0    0 -0.12673628454E+02 -0.52089203763E+02  0.99737291903E+02  0.11323618416E+03  0.10000000000E+01 0.  0.
    9000005    1    3    3    0    0  0.12673628454E+02  0.52089203763E+02  0.32941121787E+03  0.33374639543E+03  0.10000000000E+01 0.  0.
<mgrwt>
<rscale>  0 0.12499993E+03</rscale>
<asrwt>0</asrwt>
<pdfrwt beam="1">  1        4 0.67394689E-01 0.12499993E+03</pdfrwt>
<pdfrwt beam="2">  1       -4 0.13718517E-02 0.12499993E+03</pdfrwt>
<totfact> 0.60226181E+03</totfact>
</mgrwt>
</event>
<event>
 5    1  0.3183609E-002  0.1250134E+03  0.7818608E-02  0.1235048E+00
          4   -1    0    0  501    0  0.00000000000E+00  0.00000000000E+00  0.96402066657E+02  0.96410431779E+02  0.12700000000E+01 0. -1.
         -4   -1    0    0    0  501 -0.00000000000E+00 -0.00000000000E+00 -0.40508993917E+02  0.40528896952E+02  0.12700000000E+01 0. -1.
         25    2    1    2    0    0  0.00000000000E+00  0.00000000000E+00  0.55893072740E+02  0.13693932873E+03  0.12501337598E+03 0.  0.
    9000005    1    3    3    0    0  0.30373944826E+02  0.30179296141E+02  0.77816837278E+02  0.88824695912E+02  0.10000000000E+01 0.  0.
    9000005    1    3    3    0    0 -0.30373944826E+02 -0.30179296141E+02 -0.21923764537E+02  0.48114632819E+02  0.10000000000E+01 0.  0.
<mgrwt>
<rscale>  0 0.12501338E+03</rscale>
<asrwt>0</asrwt>
<pdfrwt beam="1">  1        4 0.14833261E-01 0.12501338E+03</pdfrwt>
<pdfrwt beam="2">  1       -4 0.62343275E-02 0.12501338E+03</pdfrwt>
<totfact> 0.10194280E+04</totfact>
</mgrwt>
</event>
<event>
 5    1  0.3183609E-002  0.1249985E+03  0.7818608E-02  0.1235072E+00
         -4   -1    0    0    0  501 -0.00000000000E+00  0.00000000000E+00  0.55549591477E+03  0.55549736654E+03  0.12700000000E+01 0.  1.
          4   -1    0    0  501    0  0.00000000000E+00 -0.00000000000E+00 -0.69730152257E+01  0.70877246940E+01  0.12700000000E+01 0.  1.
         25    2    1    2    0    0  0.00000000000E+00  0.00000000000E+00  0.54852289955E+03  0.56258509123E+03  0.12499845418E+03 0.  0.
    9000005    1    3    3    0    0  0.60481082227E+01 -0.40751913627E+02  0.48574124495E+03  0.48748626147E+03  0.10000000000E+01 0.  0.
    9000005    1    3    3    0    0 -0.60481082227E+01  0.40751913627E+02  0.62781654596E+02  0.75098829758E+02  0.10000000000E+01 0.  0.
<mgrwt>
<rscale>  0 0.12499845E+03</rscale>
<asrwt>0</asrwt>
<pdfrwt beam="2">  1        4 0.10817065E-02 0.12499845E+03</pdfrwt>
<pdfrwt beam="1">  1       -4 0.85469892E-01 0.12499845E+03</pdfrwt>
<totfact> 0.51319573E+03</totfact>
</mgrwt>
</event>
<event>
 5    1  0.3183609E-002  0.1249778E+03  0.7818608E-02  0.1235104E+00
         -4   -1    0    0    0  501 -0.00000000000E+00  0.00000000000E+00  0.77199145723E+02  0.77209591376E+02  0.12700000000E+01 0. -1.
          4   -1    0    0  501    0  0.00000000000E+00 -0.00000000000E+00 -0.50559826325E+02  0.50575774221E+02  0.12700000000E+01 0. -1.
         25    2    1    2    0    0  0.00000000000E+00  0.00000000000E+00  0.26639319398E+02  0.12778536560E+03  0.12497778332E+03 0.  0.
    9000005    1    3    3    0    0 -0.24115535214E+01  0.26512906783E+02  0.71114800949E+02  0.75941192580E+02  0.10000000000E+01 0.  0.
    9000005    1    3    3    0    0  0.24115535214E+01 -0.26512906783E+02 -0.44475481552E+02  0.51844173016E+02  0.10000000000E+01 0.  0.
<mgrwt>
<rscale>  0 0.12497778E+03</rscale>
<asrwt>0</asrwt>
<pdfrwt beam="2">  1        4 0.77804651E-02 0.12497778E+03</pdfrwt>
<pdfrwt beam="1">  1       -4 0.11878822E-01 0.12497778E+03</pdfrwt>
<totfact> 0.10397339E+04</totfact>
</mgrwt>
</event>
<event>
 5    1  0.3183609E-002  0.1249996E+03  0.7818608E-02  0.1235070E+00
          4   -1    0    0  501    0  0.00000000000E+00  0.00000000000E+00  0.38850564513E+02  0.38871316713E+02  0.12700000000E+01 0. -1.
         -4   -1    0    0    0  501 -0.00000000000E+00 -0.00000000000E+00 -0.10049320978E+03  0.10050123438E+03  0.12700000000E+01 0. -1.
         25    2    1    2    0    0  0.00000000000E+00  0.00000000000E+00 -0.61642645269E+02  0.13937255110E+03  0.12499956913E+03 0.  0.
    9000005    1    3    3    0    0 -0.59156776457E+02  0.12573395900E+02 -0.48366250344E+02  0.77446166190E+02  0.10000000000E+01 0.  0.
    9000005    1    3    3    0    0  0.59156776457E+02 -0.12573395900E+02 -0.13276394925E+02  0.61926384905E+02  0.10000000000E+01 0.  0.
<mgrwt>
<rscale>  0 0.12499957E+03</rscale>
<asrwt>0</asrwt>
<pdfrwt beam="1">  1        4 0.59792236E-02 0.12499957E+03</pdfrwt>
<pdfrwt beam="2">  1       -4 0.15462707E-01 0.12499957E+03</pdfrwt>
<totfact> 0.10146705E+04</totfact>
</mgrwt>
</event>
<event>
 5    1  0.3183609E-002  0.1249982E+03  0.7818608E-02  0.1235072E+00
          4   -1    0    0  501    0  0.00000000000E+00  0.00000000000E+00  0.54162122110E+03  0.54162271006E+03  0.12700000000E+01 0. -1.
         -4   -1    0    0    0  501 -0.00000000000E+00 -0.00000000000E+00 -0.71545158682E+01  0.72663606646E+01  0.12700000000E+01 0. -1.
         25    2    1    2    0    0  0.00000000000E+00  0.00000000000E+00  0.53446670523E+03  0.54888907072E+03  0.12499821180E+03 0.  0.
    9000005    1    3    3    0    0 -0.49800825808E+02  0.32966316814E+02  0.34799254092E+03  0.35308173110E+03  0.10000000000E+01 0.  0.
    9000005    1    3    3    0    0  0.49800825808E+02 -0.32966316814E+02  0.18647416431E+03  0.19580733962E+03  0.10000000000E+01 0.  0.
<mgrwt>
<rscale>  0 0.12499821E+03</rscale>
<asrwt>0</asrwt>
<pdfrwt beam="1">  1        4 0.83335056E-01 0.12499821E+03</pdfrwt>
<pdfrwt beam="2">  1       -4 0.11094128E-02 0.12499821E+03</pdfrwt>
<totfact> 0.52263502E+03</totfact>
</mgrwt>
</event>
<event>
 5    1  0.3183609E-002  0.1249919E+03  0.7818608E-02  0.1235082E+00
         -4   -1    0    0    0  501 -0.00000000000E+00  0.00000000000E+00  0.16070862287E+02  0.16120965065E+02  0.12700000000E+01 0. -1.
          4   -1    0    0  501    0  0.00000000000E+00 -0.00000000000E+00 -0.24260278969E+03  0.24260611383E+03  0.12700000000E+01 0. -1.
         25    2    1    2    0    0  0.00000000000E+00  0.00000000000E+00 -0.22653192740E+03  0.25872707889E+03  0.12499194861E+03 0.  0.
    9000005    1    3    3    0    0  0.12600817409E+02  0.30671661151E+02 -0.36325456729E+01  0.33372545381E+02  0.10000000000E+01 0.  0.
    9000005    1    3    3    0    0 -0.12600817409E+02 -0.30671661151E+02 -0.22289938173E+03  0.22535453351E+03  0.10000000000E+01 0.  0.
<mgrwt>
<rscale>  0 0.12499195E+03</rscale>
<asrwt>0</asrwt>
<pdfrwt beam="2">  1        4 0.37327613E-01 0.12499195E+03</pdfrwt>
<pdfrwt beam="1">  1       -4 0.24765503E-02 0.12499195E+03</pdfrwt>
<totfact> 0.81099566E+03</totfact>
</mgrwt>
</event>
<event>
 5    1  0.3183609E-002  0.1249969E+03  0.7818608E-02  0.1235074E+00
          4   -1    0    0  501    0  0.00000000000E+00  0.00000000000E+00  0.25636408559E+01  0.28609708908E+01  0.12700000000E+01 0.  1.
         -4   -1    0    0    0  501 -0.00000000000E+00 -0.00000000000E+00 -0.14398269997E+04  0.14398275598E+04  0.12700000000E+01 0.  1.
         25    2    1    2    0    0  0.00000000000E+00  0.00000000000E+00 -0.14372633588E+04  0.14426885306E+04  0.12499693563E+03 0.  0.
    9000005    1    3    3    0    0  0.80843712149E+01  0.48844539050E+02 -0.11587225274E+04  0.11597801695E+04  0.10000000000E+01 0.  0.
    9000005    1    3    3    0    0 -0.80843712149E+01 -0.48844539050E+02 -0.27854083142E+03  0.28290836117E+03  0.10000000000E+01 0.  0.
<mgrwt>
<rscale>  0 0.12499694E+03</rscale>
<asrwt>0</asrwt>
<pdfrwt beam="1">  1        4 0.41732206E-03 0.12499694E+03</pdfrwt>
<pdfrwt beam="2">  1       -4 0.22153415E+00 0.12499694E+03</pdfrwt>
<totfact> 0.19084344E+03</totfact>
</mgrwt>
</event>
<event>
 5    1  0.3183609E-002  0.1250013E+03  0.7818608E-02  0.1235067E+00
          4   -1    0    0  501    0  0.00000000000E+00  0.00000000000E+00  0.11821415492E+02  0.11889439190E+02  0.12700000000E+01 0.  1.
         -4   -1    0    0    0  501 -0.00000000000E+00 -0.00000000000E+00 -0.32942825366E+03  0.32943070168E+03  0.12700000000E+01 0.  1.
         25    2    1    2    0    0  0.00000000000E+00  0.00000000000E+00 -0.31760683816E+03  0.34132014087E+03  0.12500133964E+03 0.  0.
    9000005    1    3    3    0    0  0.11750361345E+02 -0.60732524315E+02 -0.13456108940E+03  0.14810198270E+03  0.10000000000E+01 0.  0.
    9000005    1    3    3    0    0 -0.11750361345E+02  0.60732524315E+02 -0.18304574877E+03  0.19321815816E+03  0.10000000000E+01 0.  0.
<mgrwt>
<rscale>  0 0.12500134E+03</rscale>
<asrwt>0</asrwt>
<pdfrwt beam="1">  1        4 0.18241005E-02 0.12500134E+03</pdfrwt>
<pdfrwt beam="2">  1       -4 0.50686684E-01 0.12500134E+03</pdfrwt>
<totfact> 0.70688028E+03</totfact>
</mgrwt>
</event>
<event>
 4    1  0.3183609E-002  0.1249197E+03  0.7818608E-02  0.1235195E+00
          4   -1    0    0  501    0  0.00000000000E+00  0.00000000000E+00  0.51780999078E+01  0.53315681234E+01  0.12700000000E+01 0.  1.
         -4   -1    0    0    0  501 -0.00000000000E+00 -0.00000000000E+00 -0.74225459366E+03  0.74225568014E+03  0.12700000000E+01 0.  1.
    9000005    1    1    2    0    0  0.22997643631E+02  0.48797192890E+02 -0.18022226899E+03  0.18812528774E+03  0.10000000000E+01 0.  0.
    9000005    1    1    2    0    0 -0.22997643631E+02 -0.48797192890E+02 -0.55685422476E+03  0.55946196053E+03  0.10000000000E+01 0.  0.
<mgrwt>
<rscale>  0 0.12491972E+03</rscale>
<asrwt>0</asrwt>
<pdfrwt beam="1">  1        4 0.80852017E-03 0.12491972E+03</pdfrwt>
<pdfrwt beam="2">  1       -4 0.11420482E+00 0.12491972E+03</pdfrwt>
<totfact> 0.40761331E+03</totfact>
</mgrwt>
</event>
<event>
 5    1  0.3183609E-002  0.1249988E+03  0.7818608E-02  0.1235071E+00
          4   -1    0    0  501    0  0.00000000000E+00  0.00000000000E+00  0.28618467405E+03  0.28618749198E+03  0.12700000000E+01 0.  1.
         -4   -1    0    0    0  501 -0.00000000000E+00 -0.00000000000E+00 -0.13616696630E+02  0.13675793473E+02  0.12700000000E+01 0.  1.
         25    2    1    2    0    0  0.00000000000E+00  0.00000000000E+00  0.27256797742E+03  0.29986328545E+03  0.12499875057E+03 0.  0.
    9000005    1    3    3    0    0  0.28511711491E+01 -0.50105379021E+02  0.46958258001E+02  0.68736861859E+02  0.10000000000E+01 0.  0.
    9000005    1    3    3    0    0 -0.28511711491E+01  0.50105379021E+02  0.22560971942E+03  0.23112642359E+03  0.10000000000E+01 0.  0.
<mgrwt>
<rscale>  0 0.12499875E+03</rscale>
<asrwt>0</asrwt>
<pdfrwt beam="1">  1        4 0.44033171E-01 0.12499875E+03</pdfrwt>
<pdfrwt beam="2">  1       -4 0.20996392E-02 0.12499875E+03</pdfrwt>
<totfact> 0.75618090E+03</totfact>
</mgrwt>
</event>
<event>
 5    1  0.3183609E-002  0.1249998E+03  0.7818608E-02  0.1235070E+00
          4   -1    0    0  501    0  0.00000000000E+00  0.00000000000E+00  0.90631799798E+02  0.90640697453E+02  0.12700000000E+01 0. -1.
         -4   -1    0    0    0  501 -0.00000000000E+00 -0.00000000000E+00 -0.43079672426E+02  0.43098388326E+02  0.12700000000E+01 0. -1.
         25    2    1    2    0    0  0.00000000000E+00  0.00000000000E+00  0.47552127373E+02  0.13373908578E+03  0.12499975299E+03 0.  0.
    9000005    1    3    3    0    0  0.16611846906E+02  0.41114434327E+02 -0.23335243301E+02  0.50118696587E+02  0.10000000000E+01 0.  0.
    9000005    1    3    3    0    0 -0.16611846906E+02 -0.41114434327E+02  0.70887370673E+02  0.83620389192E+02  0.10000000000E+01 0.  0.
<mgrwt>
<rscale>  0 0.12499975E+03</rscale>
<asrwt>0</asrwt>
<pdfrwt beam="1">  1        4 0.13945478E-01 0.12499975E+03</pdfrwt>
<pdfrwt beam="2">  1       -4 0.66297662E-02 0.12499975E+03</pdfrwt>
<totfact> 0.10264774E+04</totfact>
</mgrwt>
</event>
<event>
 5    1  0.3183609E-002  0.1250013E+03  0.7818608E-02  0.1235067E+00
         -4   -1    0    0    0  501 -0.00000000000E+00  0.00000000000E+00  0.56588064332E+02  0.56602313776E+02  0.12700000000E+01 0.  1.
          4   -1    0    0  501    0  0.00000000000E+00 -0.00000000000E+00 -0.69002222867E+02  0.69013909182E+02  0.12700000000E+01 0.  1.
         25    2    1    2    0    0  0.00000000000E+00  0.00000000000E+00 -0.12414158536E+02  0.12561622296E+03  0.12500129655E+03 0.  0.
    9000005    1    3    3    0    0  0.22742502613E+00  0.61080420157E+02 -0.19480446835E+02  0.64119866326E+02  0.10000000000E+01 0.  0.
    9000005    1    3    3    0    0 -0.22742502613E+00 -0.61080420157E+02  0.70662882993E+01  0.61496356632E+02  0.10000000000E+01 0.  0.
<mgrwt>
<rscale>  0 0.12500130E+03</rscale>
<asrwt>0</asrwt>
<pdfrwt beam="2">  1        4 0.10617722E-01 0.12500130E+03</pdfrwt>
<pdfrwt beam="1">  1       -4 0.87078511E-02 0.12500130E+03</pdfrwt>
<totfact> 0.10439084E+04</totfact>
</mgrwt>
</event>
<event>
 5    1  0.3183609E-002  0.1249997E+03  0.7818608E-02  0.1235070E+00
         -4   -1    0    0    0  501 -0.00000000000E+00  0.00000000000E+00  0.34521690380E+03  0.34521923986E+03  0.12700000000E+01 0.  1.
          4   -1    0    0  501    0  0.00000000000E+00 -0.00000000000E+00 -0.11277273739E+02  0.11348559512E+02  0.12700000000E+01 0.  1.
         25    2    1    2    0    0  0.00000000000E+00  0.00000000000E+00  0.33393963007E+03  0.35656779938E+03  0.12499967609E+03 0.  0.
    9000005    1    3    3    0    0 -0.53682600283E+01 -0.24346011233E+02  0.35089233452E+01  0.25196408905E+02  0.10000000000E+01 0.  0.
    9000005    1    3    3    0    0  0.53682600283E+01  0.24346011233E+02  0.33043070672E+03  0.33137139047E+03  0.10000000000E+01 0.  0.
<mgrwt>
<rscale>  0 0.12499968E+03</rscale>
<asrwt>0</asrwt>
<pdfrwt beam="2">  1        4 0.17406287E-02 0.12499968E+03</pdfrwt>
<pdfrwt beam="1">  1       -4 0.53115947E-01 0.12499968E+03</pdfrwt>
<totfact> 0.69008509E+03</totfact>
</mgrwt>
</event>
<event>
 5    1  0.3183609E-002  0.1249968E+03  0.7818608E-02  0.1235074E+00
         -4   -1    0    0    0  501 -0.00000000000E+00  0.00000000000E+00  0.30901014485E+02  0.30927101323E+02  0.12700000000E+01 0. -1.
          4   -1    0    0  501    0  0.00000000000E+00 -0.00000000000E+00 -0.12632270283E+03  0.12632908671E+03  0.12700000000E+01 0. -1.
         25    2    1    2    0    0  0.00000000000E+00  0.00000000000E+00 -0.95421688342E+02  0.15725618804E+03  0.12499684024E+03 0.  0.
    9000005    1    3    3    0    0 -0.42791688990E+02 -0.39842378814E+02 -0.19961416891E+02  0.61789982687E+02  0.10000000000E+01 0.  0.
    9000005    1    3    3    0    0  0.42791688990E+02  0.39842378814E+02 -0.75460271452E+02  0.95466205349E+02  0.10000000000E+01 0.  0.
<mgrwt>
<rscale>  0 0.12499684E+03</rscale>
<asrwt>0</asrwt>
<pdfrwt beam="2">  1        4 0.19436759E-01 0.12499684E+03</pdfrwt>
<pdfrwt beam="1">  1       -4 0.47565001E-02 0.12499684E+03</pdfrwt>
<totfact> 0.97881347E+03</totfact>
</mgrwt>
</event>
<event>
 4    1  0.3183609E-002  0.1254711E+03  0.7818608E-02  0.1234335E+00
         -4   -1    0    0    0  501 -0.00000000000E+00  0.00000000000E+00  0.44709005023E+03  0.44709185400E+03  0.12700000000E+01 0. -1.
          4   -1    0    0  501    0  0.00000000000E+00 -0.00000000000E+00 -0.87554017866E+01  0.88470311656E+01  0.12700000000E+01 0. -1.
    9000005    1    1    2    0    0  0.29597794676E+02 -0.46499387792E+02  0.32797131598E+03  0.33257240809E+03  0.10000000000E+01 0.  0.
    9000005    1    1    2    0    0 -0.29597794676E+02  0.46499387792E+02  0.11036333246E+03  0.12336647707E+03  0.10000000000E+01 0.  0.
<mgrwt>
<rscale>  0 0.12547112E+03</rscale>
<asrwt>0</asrwt>
<pdfrwt beam="2">  1        4 0.13541721E-02 0.12547112E+03</pdfrwt>
<pdfrwt beam="1">  1       -4 0.68790269E-01 0.12547112E+03</pdfrwt>
<totfact> 0.58840115E+03</totfact>
</mgrwt>
</event>
<event>
 5    1  0.3183609E-002  0.1250056E+03  0.7818608E-02  0.1235061E+00
         -4   -1    0    0    0  501 -0.00000000000E+00  0.00000000000E+00  0.28656187160E+02  0.28684315619E+02  0.12700000000E+01 0.  1.
          4   -1    0    0  501    0  0.00000000000E+00 -0.00000000000E+00 -0.13622856380E+03  0.13623448350E+03  0.12700000000E+01 0.  1.
         25    2    1    2    0    0  0.00000000000E+00  0.00000000000E+00 -0.10757237664E+03  0.16491879912E+03  0.12500557623E+03 0.  0.
    9000005    1    3    3    0    0 -0.21759160367E+02 -0.54693557067E+02 -0.26088848470E+02  0.64393122762E+02  0.10000000000E+01 0.  0.
    9000005    1    3    3    0    0  0.21759160367E+02  0.54693557067E+02 -0.81483528173E+02  0.10052567636E+03  0.10000000000E+01 0.  0.
<mgrwt>
<rscale>  0 0.12500558E+03</rscale>
<asrwt>0</asrwt>
<pdfrwt beam="2">  1        4 0.20960859E-01 0.12500558E+03</pdfrwt>
<pdfrwt beam="1">  1       -4 0.44112634E-02 0.12500558E+03</pdfrwt>
<totfact> 0.96390697E+03</totfact>
</mgrwt>
</event>
<event>
 4    1  0.3183609E-002  0.1247016E+03  0.7818608E-02  0.1235536E+00
         -4   -1    0    0    0  501 -0.00000000000E+00  0.00000000000E+00  0.49643635968E+03  0.49643798415E+03  0.12700000000E+01 0. -1.
          4   -1    0    0  501    0  0.00000000000E+00 -0.00000000000E+00 -0.77779173190E+01  0.78809198588E+01  0.12700000000E+01 0. -1.
    9000005    1    1    2    0    0 -0.57925899416E+02 -0.15257320521E+02  0.17446560062E+03  0.18446528523E+03  0.10000000000E+01 0.  0.
    9000005    1    1    2    0    0  0.57925899416E+02  0.15257320521E+02  0.31419284173E+03  0.31985361878E+03  0.10000000000E+01 0.  0.
<mgrwt>
<rscale>  0 0.12470158E+03</rscale>
<asrwt>0</asrwt>
<pdfrwt beam="2">  1        4 0.12046509E-02 0.12470158E+03</pdfrwt>
<pdfrwt beam="1">  1       -4 0.76382874E-01 0.12470158E+03</pdfrwt>
<totfact> 0.55896739E+03</totfact>
</mgrwt>
</event>
<event>
 5    1  0.3183609E-002  0.1250001E+03  0.7818608E-02  0.1235069E+00
          4   -1    0    0  501    0  0.00000000000E+00  0.00000000000E+00  0.47041553703E+02  0.47058693934E+02  0.12700000000E+01 0.  1.
         -4   -1    0    0    0  501 -0.00000000000E+00 -0.00000000000E+00 -0.83001331804E+02  0.83011047345E+02  0.12700000000E+01 0.  1.
         25    2    1    2    0    0  0.00000000000E+00  0.00000000000E+00 -0.35959778102E+02  0.13006974128E+03  0.12500012782E+03 0.  0.
    9000005    1    3    3    0    0 -0.52619103972E+02  0.33419893342E+02 -0.13373310196E+02  0.63761311149E+02  0.10000000000E+01 0.  0.
    9000005    1    3    3    0    0  0.52619103972E+02 -0.33419893342E+02 -0.22586467906E+02  0.66308430130E+02  0.10000000000E+01 0.  0.
<mgrwt>
<rscale>  0 0.12500013E+03</rscale>
<asrwt>0</asrwt>
<pdfrwt beam="1">  1        4 0.72392280E-02 0.12500013E+03</pdfrwt>
<pdfrwt beam="2">  1       -4 0.12771501E-01 0.12500013E+03</pdfrwt>
<totfact> 0.10342986E+04</totfact>
</mgrwt>
</event>
<event>
 5    1  0.3183609E-002  0.1249986E+03  0.7818608E-02  0.1235071E+00
         -4   -1    0    0    0  501 -0.00000000000E+00  0.00000000000E+00  0.12881424131E+03  0.12882050173E+03  0.12700000000E+01 0. -1.
          4   -1    0    0  501    0  0.00000000000E+00 -0.00000000000E+00 -0.30303689257E+02  0.30330289854E+02  0.12700000000E+01 0. -1.
         25    2    1    2    0    0  0.00000000000E+00  0.00000000000E+00  0.98510552056E+02  0.15915079158E+03  0.12499858237E+03 0.  0.
    9000005    1    3    3    0    0  0.45450766435E+02  0.42784944795E+02  0.45470205031E+02  0.77232526931E+02  0.10000000000E+01 0.  0.
    9000005    1    3    3    0    0 -0.45450766435E+02 -0.42784944795E+02  0.53040347026E+02  0.81918264650E+02  0.10000000000E+01 0.  0.
<mgrwt>
<rscale>  0 0.12499858E+03</rscale>
<asrwt>0</asrwt>
<pdfrwt beam="2">  1        4 0.46646339E-02 0.12499858E+03</pdfrwt>
<pdfrwt beam="1">  1       -4 0.19820103E-01 0.12499858E+03</pdfrwt>
<totfact> 0.97509863E+03</totfact>
</mgrwt>
</event>
<event>
 5    1  0.3183609E-002  0.1249992E+03  0.7818608E-02  0.1235071E+00
         -4   -1    0    0    0  501 -0.00000000000E+00  0.00000000000E+00  0.51103957577E+02  0.51119735720E+02  0.12700000000E+01 0.  1.
          4   -1    0    0  501    0  0.00000000000E+00 -0.00000000000E+00 -0.76403463111E+02  0.76414017531E+02  0.12700000000E+01 0.  1.
         25    2    1    2    0    0  0.00000000000E+00  0.00000000000E+00 -0.25299505533E+02  0.12753375325E+03  0.12499917295E+03 0.  0.
    9000005    1    3    3    0    0 -0.22642621367E+02 -0.58100362236E+02 -0.16838845107E+02  0.64597887728E+02  0.10000000000E+01 0.  0.
    9000005    1    3    3    0    0  0.22642621367E+02  0.58100362236E+02 -0.84606604267E+01  0.62935865524E+02  0.10000000000E+01 0.  0.
<mgrwt>
<rscale>  0 0.12499917E+03</rscale>
<asrwt>0</asrwt>
<pdfrwt beam="2">  1        4 0.11756405E-01 0.12499917E+03</pdfrwt>
<pdfrwt beam="1">  1       -4 0.78641729E-02 0.12499917E+03</pdfrwt>
<totfact> 0.10397764E+04</totfact>
</mgrwt>
</event>
<event>
 5    1  0.3183609E-002  0.1250009E+03  0.7818608E-02  0.1235068E+00
         -4   -1    0    0    0  501 -0.00000000000E+00  0.00000000000E+00  0.77094731198E+02  0.77105190995E+02  0.12700000000E+01 0.  1.
          4   -1    0    0  501    0  0.00000000000E+00 -0.00000000000E+00 -0.50647072944E+02  0.50662993376E+02  0.12700000000E+01 0.  1.
         25    2    1    2    0    0  0.00000000000E+00  0.00000000000E+00  0.26447658253E+02  0.12776818437E+03  0.12500092124E+03 0.  0.
    9000005    1    3    3    0    0 -0.27189250413E+02 -0.54461779806E+01  0.70467125632E+02  0.75733295105E+02  0.10000000000E+01 0.  0.
    9000005    1    3    3    0    0  0.27189250413E+02  0.54461779806E+01 -0.44019467379E+02  0.52034889266E+02  0.10000000000E+01 0.  0.
<mgrwt>
<rscale>  0 0.12500092E+03</rscale>
<asrwt>0</asrwt>
<pdfrwt beam="2">  1        4 0.77938866E-02 0.12500092E+03</pdfrwt>
<pdfrwt beam="1">  1       -4 0.11862757E-01 0.12500092E+03</pdfrwt>
<totfact> 0.10392281E+04</totfact>
</mgrwt>
</event>
<event>
 5    1  0.3183609E-002  0.1250087E+03  0.7818608E-02  0.1235056E+00
         -4   -1    0    0    0  501 -0.00000000000E+00  0.00000000000E+00  0.78173823379E+01  0.79198716288E+01  0.12700000000E+01 0.  1.
          4   -1    0    0  501    0  0.00000000000E+00 -0.00000000000E+00 -0.49639942401E+03  0.49640104860E+03  0.12700000000E+01 0.  1.
         25    2    1    2    0    0  0.00000000000E+00  0.00000000000E+00 -0.48858204167E+03  0.50432092023E+03  0.12500871627E+03 0.  0.
    9000005    1    3    3    0    0 -0.19523909029E+02 -0.37900566264E+02 -0.42864327570E+03  0.43075943838E+03  0.10000000000E+01 0.  0.
    9000005    1    3    3    0    0  0.19523909029E+02  0.37900566264E+02 -0.59938765965E+02  0.73561481853E+02  0.10000000000E+01 0.  0.
<mgrwt>
<rscale>  0 0.12500872E+03</rscale>
<asrwt>0</asrwt>
<pdfrwt beam="2">  1        4 0.76377127E-01 0.12500872E+03</pdfrwt>
<pdfrwt beam="1">  1       -4 0.12106834E-02 0.12500872E+03</pdfrwt>
<totfact> 0.55520039E+03</totfact>
</mgrwt>
</event>
<event>
 5    1  0.3183609E-002  0.1250002E+03  0.7818608E-02  0.1235069E+00
          4   -1    0    0  501    0  0.00000000000E+00  0.00000000000E+00  0.86058881110E+01  0.86990924917E+01  0.12700000000E+01 0.  1.
         -4   -1    0    0    0  501 -0.00000000000E+00 -0.00000000000E+00 -0.45136702896E+03  0.45136881564E+03  0.12700000000E+01 0.  1.
         25    2    1    2    0    0  0.00000000000E+00  0.00000000000E+00 -0.44276114085E+03  0.46006790813E+03  0.12500020899E+03 0.  0.
    9000005    1    3    3    0    0  0.23119999782E+01  0.52845667216E+02 -0.98909174435E+02  0.11216966914E+03  0.10000000000E+01 0.  0.
    9000005    1    3    3    0    0 -0.23119999782E+01 -0.52845667216E+02 -0.34385196641E+03  0.34789823899E+03  0.10000000000E+01 0.  0.
<mgrwt>
<rscale>  0 0.12500021E+03</rscale>
<asrwt>0</asrwt>
<pdfrwt beam="1">  1        4 0.13312901E-02 0.12500021E+03</pdfrwt>
<pdfrwt beam="2">  1       -4 0.69448370E-01 0.12500021E+03</pdfrwt>
<totfact> 0.59101165E+03</totfact>
</mgrwt>
</event>
<event>
 5    1  0.3183609E-002  0.1249973E+03  0.7818608E-02  0.1235073E+00
         -4   -1    0    0    0  501 -0.00000000000E+00  0.00000000000E+00  0.36580776489E+03  0.36580996945E+03  0.12700000000E+01 0. -1.
          4   -1    0    0  501    0  0.00000000000E+00 -0.00000000000E+00 -0.10637959917E+02  0.10713500418E+02  0.12700000000E+01 0. -1.
         25    2    1    2    0    0  0.00000000000E+00  0.00000000000E+00  0.35516980497E+03  0.37652346987E+03  0.12499733198E+03 0.  0.
    9000005    1    3    3    0    0 -0.10871404988E+01 -0.40966955159E+01  0.36538905779E+03  0.36541500837E+03  0.10000000000E+01 0.  0.
    9000005    1    3    3    0    0  0.10871404988E+01  0.40966955159E+01 -0.10219252824E+02  0.11108461499E+02  0.10000000000E+01 0.  0.
<mgrwt>
<rscale>  0 0.12499733E+03</rscale>
<asrwt>0</asrwt>
<pdfrwt beam="2">  1        4 0.16425898E-02 0.12499733E+03</pdfrwt>
<pdfrwt beam="1">  1       -4 0.56284092E-01 0.12499733E+03</pdfrwt>
<totfact> 0.66905885E+03</totfact>
</mgrwt>
</event>
<event>
 5    1  0.3183609E-002  0.1249977E+03  0.7818608E-02  0.1235073E+00
         -4   -1    0    0    0  501 -0.00000000000E+00  0.00000000000E+00  0.22903745302E+02  0.22938928677E+02  0.12700000000E+01 0. -1.
          4   -1    0    0  501    0  0.00000000000E+00 -0.00000000000E+00 -0.17037610550E+03  0.17038083879E+03  0.12700000000E+01 0. -1.
         25    2    1    2    0    0  0.00000000000E+00  0.00000000000E+00 -0.14747236020E+03  0.19331976746E+03  0.12499774186E+03 0.  0.
    9000005    1    3    3    0    0  0.16823515633E+01  0.47296798149E+02 -0.10623122267E+02  0.48514617886E+02  0.10000000000E+01 0.  0.
    9000005    1    3    3    0    0 -0.16823515633E+01 -0.47296798149E+02 -0.13684923793E+03  0.14480514958E+03  0.10000000000E+01 0.  0.
<mgrwt>
<rscale>  0 0.12499774E+03</rscale>
<asrwt>0</asrwt>
<pdfrwt beam="2">  1        4 0.26214778E-01 0.12499774E+03</pdfrwt>
<pdfrwt beam="1">  1       -4 0.35267237E-02 0.12499774E+03</pdfrwt>
<totfact> 0.91277489E+03</totfact>
</mgrwt>
</event>
<event>
 5    1  0.3183609E-002  0.1249887E+03  0.7818608E-02  0.1235087E+00
         -4   -1    0    0    0  501 -0.00000000000E+00  0.00000000000E+00  0.84146042455E+01  0.85099039130E+01  0.12700000000E+01 0. -1.
          4   -1    0    0  501    0  0.00000000000E+00 -0.00000000000E+00 -0.46142878133E+03  0.46143052905E+03  0.12700000000E+01 0. -1.
         25    2    1    2    0    0  0.00000000000E+00  0.00000000000E+00 -0.45301417708E+03  0.46994043296E+03  0.12498866306E+03 0.  0.
    9000005    1    3    3    0    0  0.55150374269E+02  0.15880075564E+02 -0.31942983151E+03  0.32454607969E+03  0.10000000000E+01 0.  0.
    9000005    1    3    3    0    0 -0.55150374269E+02 -0.15880075564E+02 -0.13358434557E+03  0.14539435327E+03  0.10000000000E+01 0.  0.
<mgrwt>
<rscale>  0 0.12498866E+03</rscale>
<asrwt>0</asrwt>
<pdfrwt beam="2">  1        4 0.70996489E-01 0.12498866E+03</pdfrwt>
<pdfrwt beam="1">  1       -4 0.13020200E-02 0.12498866E+03</pdfrwt>
<totfact> 0.58289008E+03</totfact>
</mgrwt>
</event>
<event>
 5    1  0.3183609E-002  0.1249937E+03  0.7818608E-02  0.1235079E+00
         -4   -1    0    0    0  501 -0.00000000000E+00  0.00000000000E+00  0.48170108661E+02  0.48186847463E+02  0.12700000000E+01 0. -1.
          4   -1    0    0  501    0  0.00000000000E+00 -0.00000000000E+00 -0.81048852848E+02  0.81058802408E+02  0.12700000000E+01 0. -1.
         25    2    1    2    0    0  0.00000000000E+00  0.00000000000E+00 -0.32878744187E+02  0.12924564987E+03  0.12499370461E+03 0.  0.
    9000005    1    3    3    0    0  0.54301585389E+02  0.71007363890E+01  0.14680492545E+02  0.56706256219E+02  0.10000000000E+01 0.  0.
    9000005    1    3    3    0    0 -0.54301585389E+02 -0.71007363890E+01 -0.47559236731E+02  0.72539393652E+02  0.10000000000E+01 0.  0.
<mgrwt>
<rscale>  0 0.12499370E+03</rscale>
<asrwt>0</asrwt>
<pdfrwt beam="2">  1        4 0.12471107E-01 0.12499370E+03</pdfrwt>
<pdfrwt beam="1">  1       -4 0.74128389E-02 0.12499370E+03</pdfrwt>
<totfact> 0.10362144E+04</totfact>
</mgrwt>
</event>
<event>
 5    1  0.3183609E-002  0.1250018E+03  0.7818608E-02  0.1235066E+00
          4   -1    0    0  501    0  0.00000000000E+00  0.00000000000E+00  0.16632287952E+02  0.16680704497E+02  0.12700000000E+01 0.  1.
         -4   -1    0    0    0  501 -0.00000000000E+00 -0.00000000000E+00 -0.23447476419E+03  0.23447820356E+03  0.12700000000E+01 0.  1.
         25    2    1    2    0    0  0.00000000000E+00  0.00000000000E+00 -0.21784247624E+03  0.25115890805E+03  0.12500181055E+03 0.  0.
    9000005    1    3    3    0    0 -0.70794154151E+01  0.52792223195E+02 -0.17459076646E+03  0.18253786645E+03  0.10000000000E+01 0.  0.
    9000005    1    3    3    0    0  0.70794154151E+01 -0.52792223195E+02 -0.43251709776E+02  0.68621041606E+02  0.10000000000E+01 0.  0.
<mgrwt>
<rscale>  0 0.12500181E+03</rscale>
<asrwt>0</asrwt>
<pdfrwt beam="1">  1        4 0.25628026E-02 0.12500181E+03</pdfrwt>
<pdfrwt beam="2">  1       -4 0.36077027E-01 0.12500181E+03</pdfrwt>
<totfact> 0.82159705E+03</totfact>
</mgrwt>
</event>
<event>
 5    1  0.3183609E-002  0.1250007E+03  0.7818608E-02  0.1235068E+00
          4   -1    0    0  501    0  0.00000000000E+00  0.00000000000E+00  0.43569219843E+03  0.43569404939E+03  0.12700000000E+01 0.  1.
         -4   -1    0    0    0  501 -0.00000000000E+00 -0.00000000000E+00 -0.89188671953E+01  0.90088341114E+01  0.12700000000E+01 0.  1.
         25    2    1    2    0    0  0.00000000000E+00  0.00000000000E+00  0.42677333123E+03  0.44470288350E+03  0.12500071336E+03 0.  0.
    9000005    1    3    3    0    0 -0.45541774028E+02 -0.12982169824E+02  0.68320873989E+02  0.83134419692E+02  0.10000000000E+01 0.  0.
    9000005    1    3    3    0    0  0.45541774028E+02  0.12982169824E+02  0.35845245725E+03  0.36156846381E+03  0.10000000000E+01 0.  0.
<mgrwt>
<rscale>  0 0.12500071E+03</rscale>
<asrwt>0</asrwt>
<pdfrwt beam="1">  1        4 0.67036612E-01 0.12500071E+03</pdfrwt>
<pdfrwt beam="2">  1       -4 0.13791967E-02 0.12500071E+03</pdfrwt>
<totfact> 0.60424506E+03</totfact>
</mgrwt>
</event>
<event>
 5    1  0.3183609E-002  0.1249977E+03  0.7818608E-02  0.1235073E+00
         -4   -1    0    0    0  501 -0.00000000000E+00  0.00000000000E+00  0.29490799457E+02  0.29518132607E+02  0.12700000000E+01 0.  1.
          4   -1    0    0  501    0  0.00000000000E+00 -0.00000000000E+00 -0.13235988233E+03  0.13236597505E+03  0.12700000000E+01 0.  1.
         25    2    1    2    0    0  0.00000000000E+00  0.00000000000E+00 -0.10286908287E+03  0.16188410765E+03  0.12499766438E+03 0.  0.
    9000005    1    3    3    0    0  0.21475824929E+02  0.47923235056E+02 -0.75680819930E+01  0.53067159144E+02  0.10000000000E+01 0.  0.
    9000005    1    3    3    0    0 -0.21475824929E+02 -0.47923235056E+02 -0.95301000879E+02  0.10881694851E+03  0.10000000000E+01 0.  0.
<mgrwt>
<rscale>  0 0.12499766E+03</rscale>
<asrwt>0</asrwt>
<pdfrwt beam="2">  1        4 0.20365630E-01 0.12499766E+03</pdfrwt>
<pdfrwt beam="1">  1       -4 0.45396174E-02 0.12499766E+03</pdfrwt>
<totfact> 0.96985860E+03</totfact>
</mgrwt>
</event>
<event>
 5    1  0.3183609E-002  0.1250067E+03  0.7818608E-02  0.1235059E+00
          4   -1    0    0  501    0  0.00000000000E+00  0.00000000000E+00  0.11348556524E+03  0.11349267121E+03  0.12700000000E+01 0.  1.
         -4   -1    0    0    0  501 -0.00000000000E+00 -0.00000000000E+00 -0.34404481374E+02  0.34427913655E+02  0.12700000000E+01 0.  1.
         25    2    1    2    0    0  0.00000000000E+00  0.00000000000E+00  0.79081083866E+02  0.14792058486E+03  0.12500672622E+03 0.  0.
    9000005    1    3    3    0    0  0.25696922747E+01  0.28001822691E+01 -0.34273411174E+02  0.34497986211E+02  0.10000000000E+01 0.  0.
    9000005    1    3    3    0    0 -0.25696922747E+01 -0.28001822691E+01  0.11335449504E+03  0.11342259865E+03  0.10000000000E+01 0.  0.
<mgrwt>
<rscale>  0 0.12500673E+03</rscale>
<asrwt>0</asrwt>
<pdfrwt beam="1">  1        4 0.17461667E-01 0.12500673E+03</pdfrwt>
<pdfrwt beam="2">  1       -4 0.52953463E-02 0.12500673E+03</pdfrwt>
<totfact> 0.99704727E+03</totfact>
</mgrwt>
</event>
<event>
 5    1  0.3183609E-002  0.1249921E+03  0.7818608E-02  0.1235082E+00
         -4   -1    0    0    0  501 -0.00000000000E+00  0.00000000000E+00  0.27810057267E+03  0.27810347250E+03  0.12700000000E+01 0.  1.
          4   -1    0    0  501    0  0.00000000000E+00 -0.00000000000E+00 -0.14012703224E+02  0.14070136874E+02  0.12700000000E+01 0.  1.
         25    2    1    2    0    0  0.00000000000E+00  0.00000000000E+00  0.26408786944E+03  0.29217360938E+03  0.12499206066E+03 0.  0.
    9000005    1    3    3    0    0 -0.48597856162E+02 -0.25271919443E+02  0.61749236288E+02  0.82549316884E+02  0.10000000000E+01 0.  0.
    9000005    1    3    3    0    0  0.48597856162E+02  0.25271919443E+02  0.20233863315E+03  0.20962429249E+03  0.10000000000E+01 0.  0.
<mgrwt>
<rscale>  0 0.12499206E+03</rscale>
<asrwt>0</asrwt>
<pdfrwt beam="2">  1        4 0.21604418E-02 0.12499206E+03</pdfrwt>
<pdfrwt beam="1">  1       -4 0.42789340E-01 0.12499206E+03</pdfrwt>
<totfact> 0.76604682E+03</totfact>
</mgrwt>
</event>
<event>
 5    1  0.3183609E-002  0.1249997E+03  0.7818608E-02  0.1235070E+00
          4   -1    0    0  501    0  0.00000000000E+00  0.00000000000E+00  0.46293787600E+03  0.46293961802E+03  0.12700000000E+01 0. -1.
         -4   -1    0    0    0  501 -0.00000000000E+00 -0.00000000000E+00 -0.83883636241E+01  0.84839580556E+01  0.12700000000E+01 0. -1.
         25    2    1    2    0    0  0.00000000000E+00  0.00000000000E+00  0.45454951237E+03  0.47142357608E+03  0.12499971553E+03 0.  0.
    9000005    1    3    3    0    0  0.57402817801E+02 -0.16520125273E+02  0.15801705497E+03  0.16893308643E+03  0.10000000000E+01 0.  0.
    9000005    1    3    3    0    0 -0.57402817801E+02  0.16520125273E+02  0.29653245741E+03  0.30249048965E+03  0.10000000000E+01 0.  0.
<mgrwt>
<rscale>  0 0.12499972E+03</rscale>
<asrwt>0</asrwt>
<pdfrwt beam="1">  1        4 0.71228701E-01 0.12499972E+03</pdfrwt>
<pdfrwt beam="2">  1       -4 0.12980049E-02 0.12499972E+03</pdfrwt>
<totfact> 0.58152140E+03</totfact>
</mgrwt>
</event>
<event>
 4    1  0.3183609E-002  0.1251533E+03  0.7818608E-02  0.1234830E+00
         -4   -1    0    0    0  501 -0.00000000000E+00  0.00000000000E+00  0.12412372920E+03  0.12413022617E+03  0.12700000000E+01 0. -1.
          4   -1    0    0  501    0  0.00000000000E+00 -0.00000000000E+00 -0.31527737859E+02  0.31553306554E+02  0.12700000000E+01 0. -1.
    9000005    1    1    2    0    0 -0.26685381433E+02 -0.53407606313E+02  0.23014183648E+02  0.63993239043E+02  0.10000000000E+01 0.  0.
    9000005    1    1    2    0    0  0.26685381433E+02  0.53407606313E+02  0.69581807690E+02  0.91690293683E+02  0.10000000000E+01 0.  0.
<mgrwt>
<rscale>  0 0.12515329E+03</rscale>
<asrwt>0</asrwt>
<pdfrwt beam="2">  1        4 0.48528878E-02 0.12515329E+03</pdfrwt>
<pdfrwt beam="1">  1       -4 0.19098425E-01 0.12515329E+03</pdfrwt>
<totfact> 0.97843804E+03</totfact>
</mgrwt>
</event>
