<event>
 5    1  0.3184438E-002  0.1250009E+03  0.7818608E-02  0.1235068E+00
         -4   -1    0    0    0  501 -0.00000000000E+00  0.00000000000E+00  0.21881664387E+03  0.21882032935E+03  0.12700000000E+01 0. -1.
          4   -1    0    0  501    0  0.00000000000E+00 -0.00000000000E+00 -0.17825522216E+02  0.17870706261E+02  0.12700000000E+01 0. -1.
         25    2    1    2    0    0  0.00000000000E+00  0.00000000000E+00  0.20099112166E+03  0.23669103561E+03  0.12500086141E+03 0.  0.
    9000005    1    3    3    0    0  0.48509342300E+02  0.33081003982E+02  0.59981647441E+02  0.83942284605E+02  0.10000000000E+01 0.  0.
    9000005    1    3    3    0    0 -0.48509342300E+02 -0.33081003982E+02  0.14100947422E+03  0.15274875100E+03  0.10000000000E+01 0.  0.
<mgrwt>
<rscale>  0 0.12500086E+03</rscale>
<asrwt>0</asrwt>
<pdfrwt beam="2">  1        4 0.27461472E-02 0.12500086E+03</pdfrwt>
<pdfrwt beam="1">  1       -4 0.33667858E-01 0.12500086E+03</pdfrwt>
<totfact> 0.84291040E+03</totfact>
</mgrwt>
</event>
<event>
 5    1  0.3184438E-002  0.1250056E+03  0.7818608E-02  0.1235061E+00
          4   -1    0    0  501    0  0.00000000000E+00  0.00000000000E+00  0.28189443193E+03  0.28189729274E+03  0.12700000000E+01 0.  1.
         -4   -1    0    0    0  501 -0.00000000000E+00 -0.00000000000E+00 -0.13826343832E+02  0.13884548382E+02  0.12700000000E+01 0.  1.
         25    2    1    2    0    0  0.00000000000E+00  0.00000000000E+00  0.26806808810E+03  0.29578184112E+03  0.12500559059E+03 0.  0.
    9000005    1    3    3    0    0 -0.59271922823E+02  0.15981347332E+02  0.16173265674E+03  0.17299426740E+03  0.10000000000E+01 0.  0.
    9000005    1    3    3    0    0  0.59271922823E+02 -0.15981347332E+02  0.10633543137E+03  0.12278757373E+03  0.10000000000E+01 0.  0.
<mgrwt>
<rscale>  0 0.12500559E+03</rscale>
<asrwt>0</asrwt>
<pdfrwt beam="1">  1        4 0.43373070E-01 0.12500559E+03</pdfrwt>
<pdfrwt beam="2">  1       -4 0.21318272E-02 0.12500559E+03</pdfrwt>
<totfact> 0.76121571E+03</totfact>
</mgrwt>
</event>
<event>
 5    1  0.3184438E-002  0.1249975E+03  0.7818608E-02  0.1235073E+00
         -4   -1    0    0    0  501 -0.00000000000E+00  0.00000000000E+00  0.36971037786E+02  0.36992844376E+02  0.12700000000E+01 0.  1.
          4   -1    0    0  501    0  0.00000000000E+00 -0.00000000000E+00 -0.10559609462E+03  0.10560373146E+03  0.12700000000E+01 0.  1.
         25    2    1    2    0    0  0.00000000000E+00  0.00000000000E+00 -0.68625056831E+02  0.14259657584E+03  0.12499754004E+03 0.  0.
    9000005    1    3    3    0    0 -0.18640003575E+01  0.19783494923E+02 -0.10190148347E+03  0.10382568806E+03  0.10000000000E+01 0.  0.
    9000005    1    3    3    0    0  0.18640003575E+01 -0.19783494923E+02  0.33276426639E+02  0.38770887771E+02  0.10000000000E+01 0.  0.
<mgrwt>
<rscale>  0 0.12499754E+03</rscale>
<asrwt>0</asrwt>
<pdfrwt beam="2">  1        4 0.16247818E-01 0.12499754E+03</pdfrwt>
<pdfrwt beam="1">  1       -4 0.56901169E-02 0.12499754E+03</pdfrwt>
<totfact> 0.10080610E+04</totfact>
</mgrwt>
</event>
<event>
 5    1  0.3184438E-002  0.1249929E+03  0.7818608E-02  0.1235080E+00
          4   -1    0    0  501    0  0.00000000000E+00  0.00000000000E+00  0.64432372145E+02  0.64444887154E+02  0.12700000000E+01 0. -1.
         -4   -1    0    0    0  501 -0.00000000000E+00 -0.00000000000E+00 -0.60593684485E+02  0.60606992167E+02  0.12700000000E+01 0. -1.
         25    2    1    2    0    0  0.00000000000E+00  0.00000000000E+00  0.38386876598E+01  0.12505187932E+03  0.12499294780E+03 0.  0.
    9000005    1    3    3    0    0  0.44404396365E+02  0.74893113669E+01  0.45263771013E+02  0.63856473185E+02  0.10000000000E+01 0.  0.
    9000005    1    3    3    0    0 -0.44404396365E+02 -0.74893113669E+01 -0.41425083354E+02  0.61195406136E+02  0.10000000000E+01 0.  0.
<mgrwt>
<rscale>  0 0.12499295E+03</rscale>
<asrwt>0</asrwt>
<pdfrwt beam="1">  1        4 0.99146589E-02 0.12499295E+03</pdfrwt>
<pdfrwt beam="2">  1       -4 0.93240917E-02 0.12499295E+03</pdfrwt>
<totfact> 0.10453402E+04</totfact>
</mgrwt>
</event>
<event>
 5    1  0.3184438E-002  0.1249980E+03  0.7818608E-02  0.1235072E+00
          4   -1    0    0  501    0  0.00000000000E+00  0.00000000000E+00  0.53456989694E+01  0.54944879171E+01  0.12700000000E+01 0.  1.
         -4   -1    0    0    0  501 -0.00000000000E+00 -0.00000000000E+00 -0.72052498899E+03  0.72052610825E+03  0.12700000000E+01 0.  1.
         25    2    1    2    0    0  0.00000000000E+00  0.00000000000E+00 -0.71517929003E+03  0.72602059616E+03  0.12499795668E+03 0.  0.
    9000005    1    3    3    0    0  0.24060402256E+02 -0.26574818925E+02 -0.65489075810E+03  0.65587196083E+03  0.10000000000E+01 0.  0.
    9000005    1    3    3    0    0 -0.24060402256E+02  0.26574818925E+02 -0.60288531924E+02  0.70148635333E+02  0.10000000000E+01 0.  0.
<mgrwt>
<rscale>  0 0.12499796E+03</rscale>
<asrwt>0</asrwt>
<pdfrwt beam="1">  1        4 0.83394719E-03 0.12499796E+03</pdfrwt>
<pdfrwt beam="2">  1       -4 0.11086145E+00 0.12499796E+03</pdfrwt>
<totfact> 0.41750046E+03</totfact>
</mgrwt>
</event>
<event>
 5    1  0.3184438E-002  0.1249998E+03  0.7818608E-02  0.1235070E+00
         -4   -1    0    0    0  501 -0.00000000000E+00  0.00000000000E+00  0.10496097036E+03  0.10496865341E+03  0.12700000000E+01 0.  1.
          4   -1    0    0  501    0  0.00000000000E+00 -0.00000000000E+00 -0.37196203114E+02  0.37217877775E+02  0.12700000000E+01 0.  1.
         25    2    1    2    0    0  0.00000000000E+00  0.00000000000E+00  0.67764767245E+02  0.14218653119E+03  0.12499978388E+03 0.  0.
    9000005    1    3    3    0    0 -0.32378114651E+02 -0.25066158276E+02  0.87581049495E+02  0.96685546127E+02  0.10000000000E+01 0.  0.
    9000005    1    3    3    0    0  0.32378114651E+02  0.25066158276E+02 -0.19816282251E+02  0.45500985059E+02  0.10000000000E+01 0.  0.
<mgrwt>
<rscale>  0 0.12499978E+03</rscale>
<asrwt>0</asrwt>
<pdfrwt beam="2">  1        4 0.57247512E-02 0.12499978E+03</pdfrwt>
<pdfrwt beam="1">  1       -4 0.16150099E-01 0.12499978E+03</pdfrwt>
<totfact> 0.10088517E+04</totfact>
</mgrwt>
</event>
<event>
 5    1  0.3184438E-002  0.1249990E+03  0.7818608E-02  0.1235071E+00
         -4   -1    0    0    0  501 -0.00000000000E+00  0.00000000000E+00  0.66305157850E+02  0.66317319438E+02  0.12700000000E+01 0.  1.
          4   -1    0    0  501    0  0.00000000000E+00 -0.00000000000E+00 -0.58887877026E+02  0.58901570103E+02  0.12700000000E+01 0.  1.
         25    2    1    2    0    0  0.00000000000E+00  0.00000000000E+00  0.74172808243E+01  0.12521888954E+03  0.12499901697E+03 0.  0.
    9000005    1    3    3    0    0 -0.31593855518E+02 -0.51821677638E+02  0.18618724536E+02  0.63492636448E+02  0.10000000000E+01 0.  0.
    9000005    1    3    3    0    0  0.31593855518E+02  0.51821677638E+02 -0.11201443712E+02  0.61726253094E+02  0.10000000000E+01 0.  0.
<mgrwt>
<rscale>  0 0.12499902E+03</rscale>
<asrwt>0</asrwt>
<pdfrwt beam="2">  1        4 0.90616622E-02 0.12499902E+03</pdfrwt>
<pdfrwt beam="1">  1       -4 0.10202782E-01 0.12499902E+03</pdfrwt>
<totfact> 0.10448342E+04</totfact>
</mgrwt>
</event>
<event>
 5    1  0.3184438E-002  0.1250013E+03  0.7818608E-02  0.1235067E+00
         -4   -1    0    0    0  501 -0.00000000000E+00  0.00000000000E+00  0.61799628852E+02  0.61812676906E+02  0.12700000000E+01 0. -1.
          4   -1    0    0  501    0  0.00000000000E+00 -0.00000000000E+00 -0.63183475696E+02  0.63196238030E+02  0.12700000000E+01 0. -1.
         25    2    1    2    0    0  0.00000000000E+00  0.00000000000E+00 -0.13838468445E+01  0.12500891494E+03  0.12500125512E+03 0.  0.
    9000005    1    3    3    0    0  0.15787341216E+02  0.54688098126E+02 -0.26486918381E+02  0.62790007681E+02  0.10000000000E+01 0.  0.
    9000005    1    3    3    0    0 -0.15787341216E+02 -0.54688098126E+02  0.25103071537E+02  0.62218907254E+02  0.10000000000E+01 0.  0.
<mgrwt>
<rscale>  0 0.12500126E+03</rscale>
<asrwt>0</asrwt>
<pdfrwt beam="2">  1        4 0.97225202E-02 0.12500126E+03</pdfrwt>
<pdfrwt beam="1">  1       -4 0.95096206E-02 0.12500126E+03</pdfrwt>
<totfact> 0.10452372E+04</totfact>
</mgrwt>
</event>
<event>
 5    1  0.3184438E-002  0.1250021E+03  0.7818608E-02  0.1235066E+00
         -4   -1    0    0    0  501 -0.00000000000E+00  0.00000000000E+00  0.54393478463E+02  0.54408302669E+02  0.12700000000E+01 0.  1.
          4   -1    0    0  501    0  0.00000000000E+00 -0.00000000000E+00 -0.71786859008E+02  0.71798092080E+02  0.12700000000E+01 0.  1.
         25    2    1    2    0    0  0.00000000000E+00  0.00000000000E+00 -0.17393380545E+02  0.12620639475E+03  0.12500209754E+03 0.  0.
    9000005    1    3    3    0    0 -0.54799557423E+02 -0.15991217443E+02  0.16978023334E+02  0.59564786622E+02  0.10000000000E+01 0.  0.
    9000005    1    3    3    0    0  0.54799557423E+02  0.15991217443E+02 -0.34371403879E+02  0.66641608126E+02  0.10000000000E+01 0.  0.
<mgrwt>
<rscale>  0 0.12500210E+03</rscale>
<asrwt>0</asrwt>
<pdfrwt beam="2">  1        4 0.11046137E-01 0.12500210E+03</pdfrwt>
<pdfrwt beam="1">  1       -4 0.83702319E-02 0.12500210E+03</pdfrwt>
<totfact> 0.10425945E+04</totfact>
</mgrwt>
</event>
<event>
 5    1  0.3184438E-002  0.1250008E+03  0.7818608E-02  0.1235068E+00
         -4   -1    0    0    0  501 -0.00000000000E+00  0.00000000000E+00  0.13061076785E+03  0.13061694216E+03  0.12700000000E+01 0. -1.
          4   -1    0    0  501    0  0.00000000000E+00 -0.00000000000E+00 -0.29887574212E+02  0.29914544828E+02  0.12700000000E+01 0. -1.
         25    2    1    2    0    0  0.00000000000E+00  0.00000000000E+00  0.10072319364E+03  0.16053148699E+03  0.12500078631E+03 0.  0.
    9000005    1    3    3    0    0  0.42072618670E+02 -0.68835242274E+01  0.10904199796E+03  0.11708392488E+03  0.10000000000E+01 0.  0.
    9000005    1    3    3    0    0 -0.42072618670E+02  0.68835242274E+01 -0.83188043174E+01  0.43447562104E+02  0.10000000000E+01 0.  0.
<mgrwt>
<rscale>  0 0.12500079E+03</rscale>
<asrwt>0</asrwt>
<pdfrwt beam="2">  1        4 0.46006381E-02 0.12500079E+03</pdfrwt>
<pdfrwt beam="1">  1       -4 0.20096513E-01 0.12500079E+03</pdfrwt>
<totfact> 0.97238698E+03</totfact>
</mgrwt>
</event>
<event>
 5    1  0.3184438E-002  0.1250029E+03  0.7818608E-02  0.1235065E+00
         -4   -1    0    0    0  501 -0.00000000000E+00  0.00000000000E+00  0.22660647585E+03  0.22661003464E+03  0.12700000000E+01 0.  1.
          4   -1    0    0  501    0  0.00000000000E+00 -0.00000000000E+00 -0.17211737532E+02  0.17258528583E+02  0.12700000000E+01 0.  1.
         25    2    1    2    0    0  0.00000000000E+00  0.00000000000E+00  0.20939473832E+03  0.24386856322E+03  0.12500287873E+03 0.  0.
    9000005    1    3    3    0    0  0.36555052653E+02 -0.46839633979E+02  0.14248686682E+03  0.15438176836E+03  0.10000000000E+01 0.  0.
    9000005    1    3    3    0    0 -0.36555052653E+02  0.46839633979E+02  0.66907871506E+02  0.89486794865E+02  0.10000000000E+01 0.  0.
<mgrwt>
<rscale>  0 0.12500288E+03</rscale>
<asrwt>0</asrwt>
<pdfrwt beam="2">  1        4 0.26518328E-02 0.12500288E+03</pdfrwt>
<pdfrwt beam="1">  1       -4 0.34866407E-01 0.12500288E+03</pdfrwt>
<totfact> 0.83219227E+03</totfact>
</mgrwt>
</event>
<event>
 5    1  0.3184438E-002  0.1250012E+03  0.7818608E-02  0.1235067E+00
         -4   -1    0    0    0  501 -0.00000000000E+00  0.00000000000E+00  0.26084398593E+03  0.26084707760E+03  0.12700000000E+01 0.  1.
          4   -1    0    0  501    0  0.00000000000E+00 -0.00000000000E+00 -0.14945612442E+02  0.14999474367E+02  0.12700000000E+01 0.  1.
         25    2    1    2    0    0  0.00000000000E+00  0.00000000000E+00  0.24589837348E+03  0.27584655197E+03  0.12500124060E+03 0.  0.
    9000005    1    3    3    0    0 -0.15096948821E+02 -0.45281247846E+02  0.21196136951E+03  0.21727156150E+03  0.10000000000E+01 0.  0.
    9000005    1    3    3    0    0  0.15096948821E+02  0.45281247846E+02  0.33937003973E+02  0.58574990473E+02  0.10000000000E+01 0.  0.
<mgrwt>
<rscale>  0 0.12500124E+03</rscale>
<asrwt>0</asrwt>
<pdfrwt beam="2">  1        4 0.23037061E-02 0.12500124E+03</pdfrwt>
<pdfrwt beam="1">  1       -4 0.40134223E-01 0.12500124E+03</pdfrwt>
<totfact> 0.78729893E+03</totfact>
</mgrwt>
</event>
<event>
 5    1  0.3184438E-002  0.1250002E+03  0.7818608E-02  0.1235069E+00
          4   -1    0    0  501    0  0.00000000000E+00  0.00000000000E+00  0.77085558998E+02  0.77096020040E+02  0.12700000000E+01 0. -1.
         -4   -1    0    0    0  501 -0.00000000000E+00 -0.00000000000E+00 -0.50652550834E+02  0.50668469544E+02  0.12700000000E+01 0. -1.
         25    2    1    2    0    0  0.00000000000E+00  0.00000000000E+00  0.26433008164E+02  0.12776448958E+03  0.12500024351E+03 0.  0.
    9000005    1    3    3    0    0  0.42893264205E+02 -0.29000157968E+02 -0.22549070955E+02  0.56482757345E+02  0.10000000000E+01 0.  0.
    9000005    1    3    3    0    0 -0.42893264205E+02  0.29000157968E+02  0.48982079118E+02  0.71281732240E+02  0.10000000000E+01 0.  0.
<mgrwt>
<rscale>  0 0.12500024E+03</rscale>
<asrwt>0</asrwt>
<pdfrwt beam="1">  1        4 0.11861346E-01 0.12500024E+03</pdfrwt>
<pdfrwt beam="2">  1       -4 0.77947294E-02 0.12500024E+03</pdfrwt>
<totfact> 0.10392520E+04</totfact>
</mgrwt>
</event>
<event>
 5    1  0.3184438E-002  0.1250150E+03  0.7818608E-02  0.1235046E+00
          4   -1    0    0  501    0  0.00000000000E+00  0.00000000000E+00  0.86670517193E+03  0.86670610240E+03  0.12700000000E+01 0.  1.
         -4   -1    0    0    0  501 -0.00000000000E+00 -0.00000000000E+00 -0.44176955947E+01  0.45966220605E+01  0.12700000000E+01 0.  1.
         25    2    1    2    0    0  0.00000000000E+00  0.00000000000E+00  0.86228747633E+03  0.87130272447E+03  0.12501498238E+03 0.  0.
    9000005    1    3    3    0    0  0.53484078326E+02  0.67801134286E+01  0.21078244512E+03  0.21757011684E+03  0.10000000000E+01 0.  0.
    9000005    1    3    3    0    0 -0.53484078326E+02 -0.67801134286E+01  0.65150503122E+03  0.65373260763E+03  0.10000000000E+01 0.  0.
<mgrwt>
<rscale>  0 0.12501498E+03</rscale>
<asrwt>0</asrwt>
<pdfrwt beam="1">  1        4 0.13335321E+00 0.12501498E+03</pdfrwt>
<pdfrwt beam="2">  1       -4 0.69348001E-03 0.12501498E+03</pdfrwt>
<totfact> 0.35259538E+03</totfact>
</mgrwt>
</event>
<event>
 4    1  0.3184438E-002  0.1245375E+03  0.7818608E-02  0.1235794E+00
          4   -1    0    0  501    0  0.00000000000E+00  0.00000000000E+00  0.13691489702E+03  0.13692078705E+03  0.12700000000E+01 0.  1.
         -4   -1    0    0    0  501 -0.00000000000E+00 -0.00000000000E+00 -0.28299041282E+02  0.28327524380E+02  0.12700000000E+01 0.  1.
    9000005    1    1    2    0    0  0.45110577651E+02 -0.86170129278E+01 -0.14719403347E+01  0.45960675976E+02  0.10000000000E+01 0.  0.
    9000005    1    1    2    0    0 -0.45110577651E+02  0.86170129278E+01  0.11008779608E+03  0.11928763546E+03  0.10000000000E+01 0.  0.
<mgrwt>
<rscale>  0 0.12453755E+03</rscale>
<asrwt>0</asrwt>
<pdfrwt beam="1">  1        4 0.21066475E-01 0.12453755E+03</pdfrwt>
<pdfrwt beam="2">  1       -4 0.43563427E-02 0.12453755E+03</pdfrwt>
<totfact> 0.97348102E+03</totfact>
</mgrwt>
</event>
<event>
 5    1  0.3184438E-002  0.1250047E+03  0.7818608E-02  0.1235062E+00
          4   -1    0    0  501    0  0.00000000000E+00  0.00000000000E+00  0.89323585986E+02  0.89332613940E+02  0.12700000000E+01 0. -1.
         -4   -1    0    0    0  501 -0.00000000000E+00 -0.00000000000E+00 -0.43714285651E+02  0.43732729963E+02  0.12700000000E+01 0. -1.
         25    2    1    2    0    0  0.00000000000E+00  0.00000000000E+00  0.45609300334E+02  0.13306534390E+03  0.12500470980E+03 0.  0.
    9000005    1    3    3    0    0 -0.43285942855E+02 -0.68773163197E+01 -0.24616516837E+02  0.50278655807E+02  0.10000000000E+01 0.  0.
    9000005    1    3    3    0    0  0.43285942855E+02  0.68773163197E+01  0.70225817171E+02  0.82786688096E+02  0.10000000000E+01 0.  0.
<mgrwt>
<rscale>  0 0.12500471E+03</rscale>
<asrwt>0</asrwt>
<pdfrwt beam="1">  1        4 0.13744203E-01 0.12500471E+03</pdfrwt>
<pdfrwt beam="2">  1       -4 0.67273879E-02 0.12500471E+03</pdfrwt>
<totfact> 0.10277919E+04</totfact>
</mgrwt>
</event>
<event>
 5    1  0.3184438E-002  0.1250001E+03  0.7818608E-02  0.1235069E+00
         -4   -1    0    0    0  501 -0.00000000000E+00  0.00000000000E+00  0.57816842561E+02  0.57830789236E+02  0.12700000000E+01 0. -1.
          4   -1    0    0  501    0  0.00000000000E+00 -0.00000000000E+00 -0.67534528623E+02  0.67546468867E+02  0.12700000000E+01 0. -1.
         25    2    1    2    0    0  0.00000000000E+00  0.00000000000E+00 -0.97176860625E+01  0.12537725810E+03  0.12500009371E+03 0.  0.
    9000005    1    3    3    0    0 -0.11654168538E+02  0.24241627431E+02  0.51718621823E+02  0.58303447480E+02  0.10000000000E+01 0.  0.
    9000005    1    3    3    0    0  0.11654168538E+02 -0.24241627431E+02 -0.61436307885E+02  0.67073810622E+02  0.10000000000E+01 0.  0.
<mgrwt>
<rscale>  0 0.12500009E+03</rscale>
<asrwt>0</asrwt>
<pdfrwt beam="2">  1        4 0.10391919E-01 0.12500009E+03</pdfrwt>
<pdfrwt beam="1">  1       -4 0.88968901E-02 0.12500009E+03</pdfrwt>
<totfact> 0.10444649E+04</totfact>
</mgrwt>
</event>
<event>
 5    1  0.3184438E-002  0.1249984E+03  0.7818608E-02  0.1235072E+00
          4   -1    0    0  501    0  0.00000000000E+00  0.00000000000E+00  0.13456956290E+02  0.13516751555E+02  0.12700000000E+01 0. -1.
         -4   -1    0    0    0  501 -0.00000000000E+00 -0.00000000000E+00 -0.28956507657E+03  0.28956786160E+03  0.12700000000E+01 0. -1.
         25    2    1    2    0    0  0.00000000000E+00  0.00000000000E+00 -0.27610812028E+03  0.30308461315E+03  0.12499835457E+03 0.  0.
    9000005    1    3    3    0    0  0.60478536846E+02  0.24030940022E+01 -0.17575176244E+03  0.18588466930E+03  0.10000000000E+01 0.  0.
    9000005    1    3    3    0    0 -0.60478536846E+02 -0.24030940022E+01 -0.10035635784E+03  0.11719994385E+03  0.10000000000E+01 0.  0.
<mgrwt>
<rscale>  0 0.12499835E+03</rscale>
<asrwt>0</asrwt>
<pdfrwt beam="1">  1        4 0.20751150E-02 0.12499835E+03</pdfrwt>
<pdfrwt beam="2">  1       -4 0.44553283E-01 0.12499835E+03</pdfrwt>
<totfact> 0.75216281E+03</totfact>
</mgrwt>
</event>
<event>
 5    1  0.3184438E-002  0.1250031E+03  0.7818608E-02  0.1235064E+00
          4   -1    0    0  501    0  0.00000000000E+00  0.00000000000E+00  0.12823906381E+03  0.12824535230E+03  0.12700000000E+01 0. -1.
         -4   -1    0    0    0  501 -0.00000000000E+00 -0.00000000000E+00 -0.30441935525E+02  0.30468415425E+02  0.12700000000E+01 0. -1.
         25    2    1    2    0    0  0.00000000000E+00  0.00000000000E+00  0.97797128285E+02  0.15871376773E+03  0.12500312702E+03 0.  0.
    9000005    1    3    3    0    0  0.15126985490E+02  0.55863555361E+02  0.18963141457E+02  0.60911109344E+02  0.10000000000E+01 0.  0.
    9000005    1    3    3    0    0 -0.15126985490E+02 -0.55863555361E+02  0.78833986827E+02  0.97802658382E+02  0.10000000000E+01 0.  0.
<mgrwt>
<rscale>  0 0.12500313E+03</rscale>
<asrwt>0</asrwt>
<pdfrwt beam="1">  1        4 0.19731607E-01 0.12500313E+03</pdfrwt>
<pdfrwt beam="2">  1       -4 0.46858953E-02 0.12500313E+03</pdfrwt>
<totfact> 0.97584474E+03</totfact>
</mgrwt>
</event>
<event>
 5    1  0.3184438E-002  0.1250004E+03  0.7818608E-02  0.1235069E+00
          4   -1    0    0  501    0  0.00000000000E+00  0.00000000000E+00  0.35438505136E+02  0.35461254155E+02  0.12700000000E+01 0.  1.
         -4   -1    0    0    0  501 -0.00000000000E+00 -0.00000000000E+00 -0.11016499339E+03  0.11017231353E+03  0.12700000000E+01 0.  1.
         25    2    1    2    0    0  0.00000000000E+00  0.00000000000E+00 -0.74726488256E+02  0.14563356769E+03  0.12500035196E+03 0.  0.
    9000005    1    3    3    0    0  0.49775522607E+02 -0.27643530558E+02 -0.73528146491E+01  0.57418039985E+02  0.10000000000E+01 0.  0.
    9000005    1    3    3    0    0 -0.49775522607E+02  0.27643530558E+02 -0.67373673607E+02  0.88215527703E+02  0.10000000000E+01 0.  0.
<mgrwt>
<rscale>  0 0.12500035E+03</rscale>
<asrwt>0</asrwt>
<pdfrwt beam="1">  1        4 0.54543908E-02 0.12500035E+03</pdfrwt>
<pdfrwt beam="2">  1       -4 0.16950773E-01 0.12500035E+03</pdfrwt>
<totfact> 0.10018052E+04</totfact>
</mgrwt>
</event>
<event>
 5    1  0.3184438E-002  0.1250046E+03  0.7818608E-02  0.1235062E+00
          4   -1    0    0  501    0  0.00000000000E+00  0.00000000000E+00  0.47560028614E+02  0.47576982058E+02  0.12700000000E+01 0.  1.
         -4   -1    0    0    0  501 -0.00000000000E+00 -0.00000000000E+00 -0.82102635531E+02  0.82112457405E+02  0.12700000000E+01 0.  1.
         25    2    1    2    0    0  0.00000000000E+00  0.00000000000E+00 -0.34542606917E+02  0.12968943946E+03  0.12500463598E+03 0.  0.
    9000005    1    3    3    0    0 -0.25473903377E+01  0.60045081888E+02 -0.35049394990E+02  0.69579890383E+02  0.10000000000E+01 0.  0.
    9000005    1    3    3    0    0  0.25473903377E+01 -0.60045081888E+02  0.50678807224E+00  0.60109549081E+02  0.10000000000E+01 0.  0.
<mgrwt>
<rscale>  0 0.12500464E+03</rscale>
<asrwt>0</asrwt>
<pdfrwt beam="1">  1        4 0.73189871E-02 0.12500464E+03</pdfrwt>
<pdfrwt beam="2">  1       -4 0.12633234E-01 0.12500464E+03</pdfrwt>
<totfact> 0.10350072E+04</totfact>
</mgrwt>
</event>
<event>
 5    1  0.3184438E-002  0.1249906E+03  0.7818608E-02  0.1235084E+00
         -4   -1    0    0    0  501 -0.00000000000E+00  0.00000000000E+00  0.44869277962E+03  0.44869457695E+03  0.12700000000E+01 0.  1.
          4   -1    0    0  501    0  0.00000000000E+00 -0.00000000000E+00 -0.86563941978E+01  0.87490605500E+01  0.12700000000E+01 0.  1.
         25    2    1    2    0    0  0.00000000000E+00  0.00000000000E+00  0.44003638542E+03  0.45744363750E+03  0.12499064362E+03 0.  0.
    9000005    1    3    3    0    0  0.54381705865E+02 -0.29421298562E+02  0.25309507854E+03  0.26054001904E+03  0.10000000000E+01 0.  0.
    9000005    1    3    3    0    0 -0.54381705865E+02  0.29421298562E+02  0.18694130688E+03  0.19690361845E+03  0.10000000000E+01 0.  0.
<mgrwt>
<rscale>  0 0.12499064E+03</rscale>
<asrwt>0</asrwt>
<pdfrwt beam="2">  1        4 0.13390193E-02 0.12499064E+03</pdfrwt>
<pdfrwt beam="1">  1       -4 0.69036930E-01 0.12499064E+03</pdfrwt>
<totfact> 0.59336554E+03</totfact>
</mgrwt>
</event>
<event>
 5    1  0.3184438E-002  0.1250001E+03  0.7818608E-02  0.1235069E+00
          4   -1    0    0  501    0  0.00000000000E+00  0.00000000000E+00  0.45650122456E+02  0.45667784928E+02  0.12700000000E+01 0. -1.
         -4   -1    0    0    0  501 -0.00000000000E+00 -0.00000000000E+00 -0.85530492076E+02  0.85539920357E+02  0.12700000000E+01 0. -1.
         25    2    1    2    0    0  0.00000000000E+00  0.00000000000E+00 -0.39880369619E+02  0.13120770529E+03  0.12500007218E+03 0.  0.
    9000005    1    3    3    0    0  0.60066669651E+02  0.60040676000E+00 -0.38026341570E+02  0.71101110712E+02  0.10000000000E+01 0.  0.
    9000005    1    3    3    0    0 -0.60066669651E+02 -0.60040676000E+00 -0.18540280490E+01  0.60106594574E+02  0.10000000000E+01 0.  0.
<mgrwt>
<rscale>  0 0.12500007E+03</rscale>
<asrwt>0</asrwt>
<pdfrwt beam="1">  1        4 0.70251797E-02 0.12500007E+03</pdfrwt>
<pdfrwt beam="2">  1       -4 0.13160621E-01 0.12500007E+03</pdfrwt>
<totfact> 0.10318622E+04</totfact>
</mgrwt>
</event>
<event>
 5    1  0.3184438E-002  0.1250008E+03  0.7818608E-02  0.1235068E+00
         -4   -1    0    0    0  501 -0.00000000000E+00  0.00000000000E+00  0.30384813323E+03  0.30385078734E+03  0.12700000000E+01 0.  1.
          4   -1    0    0  501    0  0.00000000000E+00 -0.00000000000E+00 -0.12822004681E+02  0.12884746953E+02  0.12700000000E+01 0.  1.
         25    2    1    2    0    0  0.00000000000E+00  0.00000000000E+00  0.29102612855E+03  0.31673553429E+03  0.12500076474E+03 0.  0.
    9000005    1    3    3    0    0  0.44966898067E+02 -0.40482902536E+02  0.18512663843E+03  0.19476590969E+03  0.10000000000E+01 0.  0.
    9000005    1    3    3    0    0 -0.44966898067E+02  0.40482902536E+02  0.10589949012E+03  0.12196962460E+03  0.10000000000E+01 0.  0.
<mgrwt>
<rscale>  0 0.12500076E+03</rscale>
<asrwt>0</asrwt>
<pdfrwt beam="2">  1        4 0.19776467E-02 0.12500076E+03</pdfrwt>
<pdfrwt beam="1">  1       -4 0.46750894E-01 0.12500076E+03</pdfrwt>
<totfact> 0.73544833E+03</totfact>
</mgrwt>
</event>
<event>
 5    1  0.3184438E-002  0.1250010E+03  0.7818608E-02  0.1235068E+00
         -4   -1    0    0    0  501 -0.00000000000E+00  0.00000000000E+00  0.86452739061E+02  0.86462066776E+02  0.12700000000E+01 0.  1.
          4   -1    0    0  501    0  0.00000000000E+00 -0.00000000000E+00 -0.45163648147E+02  0.45181500794E+02  0.12700000000E+01 0.  1.
         25    2    1    2    0    0  0.00000000000E+00  0.00000000000E+00  0.41289090914E+02  0.13164356757E+03  0.12500095941E+03 0.  0.
    9000005    1    3    3    0    0 -0.89469172494E+01 -0.52601280385E+01  0.85543925080E+02  0.86177023581E+02  0.10000000000E+01 0.  0.
    9000005    1    3    3    0    0  0.89469172494E+01  0.52601280385E+01 -0.44254834166E+02  0.45466543989E+02  0.10000000000E+01 0.  0.
<mgrwt>
<rscale>  0 0.12500096E+03</rscale>
<asrwt>0</asrwt>
<pdfrwt beam="2">  1        4 0.69503444E-02 0.12500096E+03</pdfrwt>
<pdfrwt beam="1">  1       -4 0.13302512E-01 0.12500096E+03</pdfrwt>
<totfact> 0.10309089E+04</totfact>
</mgrwt>
</event>
<event>
 5    1  0.3184438E-002  0.1250028E+03  0.7818608E-02  0.1235065E+00
          4   -1    0    0  501    0  0.00000000000E+00  0.00000000000E+00  0.42876118152E+03  0.42876306239E+03  0.12700000000E+01 0. -1.
         -4   -1    0    0    0  501 -0.00000000000E+00 -0.00000000000E+00 -0.90647882693E+01  0.91533210567E+01  0.12700000000E+01 0. -1.
         25    2    1    2    0    0  0.00000000000E+00  0.00000000000E+00  0.41969639325E+03  0.43791638345E+03  0.12500278554E+03 0.  0.
    9000005    1    3    3    0    0  0.17613813776E+02 -0.24668200396E+02  0.40130209654E+03  0.40244644269E+03  0.10000000000E+01 0.  0.
    9000005    1    3    3    0    0 -0.17613813776E+02  0.24668200396E+02  0.18394296711E+02  0.35469940766E+02  0.10000000000E+01 0.  0.
<mgrwt>
<rscale>  0 0.12500279E+03</rscale>
<asrwt>0</asrwt>
<pdfrwt beam="1">  1        4 0.65970189E-01 0.12500279E+03</pdfrwt>
<pdfrwt beam="2">  1       -4 0.14015382E-02 0.12500279E+03</pdfrwt>
<totfact> 0.61021182E+03</totfact>
</mgrwt>
</event>
<event>
 5    1  0.3184438E-002  0.1250019E+03  0.7818608E-02  0.1235066E+00
         -4   -1    0    0    0  501 -0.00000000000E+00  0.00000000000E+00  0.11500543366E+04  0.11500550378E+04  0.12700000000E+01 0. -1.
          4   -1    0    0  501    0  0.00000000000E+00 -0.00000000000E+00 -0.32772408039E+01  0.35147129736E+01  0.12700000000E+01 0. -1.
         25    2    1    2    0    0  0.00000000000E+00  0.00000000000E+00  0.11467770958E+04  0.11535697508E+04  0.12500185007E+03 0.  0.
    9000005    1    3    3    0    0  0.12840900529E+02  0.46414467690E+02  0.94092705308E+03  0.94215917485E+03  0.10000000000E+01 0.  0.
    9000005    1    3    3    0    0 -0.12840900529E+02 -0.46414467690E+02  0.20585004270E+03  0.21141057593E+03  0.10000000000E+01 0.  0.
<mgrwt>
<rscale>  0 0.12500185E+03</rscale>
<asrwt>0</asrwt>
<pdfrwt beam="2">  1        4 0.52251144E-03 0.12500185E+03</pdfrwt>
<pdfrwt beam="1">  1       -4 0.17694992E+00 0.12500185E+03</pdfrwt>
<totfact> 0.25960315E+03</totfact>
</mgrwt>
</event>
<event>
 5    1  0.3184438E-002  0.1249980E+03  0.7818608E-02  0.1235072E+00
         -4   -1    0    0    0  501 -0.00000000000E+00  0.00000000000E+00  0.14160148189E+03  0.14160717699E+03  0.12700000000E+01 0.  1.
          4   -1    0    0  501    0  0.00000000000E+00 -0.00000000000E+00 -0.27564455529E+02  0.27593696900E+02  0.12700000000E+01 0.  1.
         25    2    1    2    0    0  0.00000000000E+00  0.00000000000E+00  0.11403702636E+03  0.16920087389E+03  0.12499796935E+03 0.  0.
    9000005    1    3    3    0    0 -0.49399462597E+02 -0.27687240960E+02  0.21250090546E+02  0.60493442331E+02  0.10000000000E+01 0.  0.
    9000005    1    3    3    0    0  0.49399462597E+02  0.27687240960E+02  0.92786935816E+02  0.10870743155E+03  0.10000000000E+01 0.  0.
<mgrwt>
<rscale>  0 0.12499797E+03</rscale>
<asrwt>0</asrwt>
<pdfrwt beam="2">  1        4 0.42433730E-02 0.12499797E+03</pdfrwt>
<pdfrwt beam="1">  1       -4 0.21787530E-01 0.12499797E+03</pdfrwt>
<totfact> 0.95602035E+03</totfact>
</mgrwt>
</event>
<event>
 5    1  0.3184438E-002  0.1250080E+03  0.7818608E-02  0.1235057E+00
         -4   -1    0    0    0  501 -0.00000000000E+00  0.00000000000E+00  0.22439673620E+03  0.22440033003E+03  0.12700000000E+01 0.  1.
          4   -1    0    0  501    0  0.00000000000E+00 -0.00000000000E+00 -0.17383120372E+02  0.17429451336E+02  0.12700000000E+01 0.  1.
         25    2    1    2    0    0  0.00000000000E+00  0.00000000000E+00  0.20701361583E+03  0.24182978137E+03  0.12500802381E+03 0.  0.
    9000005    1    3    3    0    0 -0.15295749987E+02 -0.60311895861E+02  0.11483103002E+03  0.13060876772E+03  0.10000000000E+01 0.  0.
    9000005    1    3    3    0    0  0.15295749987E+02  0.60311895861E+02  0.92182585810E+02  0.11122101365E+03  0.10000000000E+01 0.  0.
<mgrwt>
<rscale>  0 0.12500802E+03</rscale>
<asrwt>0</asrwt>
<pdfrwt beam="2">  1        4 0.26781667E-02 0.12500802E+03</pdfrwt>
<pdfrwt beam="1">  1       -4 0.34526413E-01 0.12500802E+03</pdfrwt>
<totfact> 0.83510670E+03</totfact>
</mgrwt>
</event>
<event>
 5    1  0.3184438E-002  0.1249985E+03  0.7818608E-02  0.1235072E+00
          4   -1    0    0  501    0  0.00000000000E+00  0.00000000000E+00  0.11532748851E+03  0.11533448100E+03  0.12700000000E+01 0.  1.
         -4   -1    0    0    0  501 -0.00000000000E+00 -0.00000000000E+00 -0.33850210242E+02  0.33874025940E+02  0.12700000000E+01 0.  1.
         25    2    1    2    0    0  0.00000000000E+00  0.00000000000E+00  0.81477278271E+02  0.14920850694E+03  0.12499852666E+03 0.  0.
    9000005    1    3    3    0    0  0.10927714471E+02  0.44325987695E+02 -0.10198866692E+02  0.46789154839E+02  0.10000000000E+01 0.  0.
    9000005    1    3    3    0    0 -0.10927714471E+02 -0.44325987695E+02  0.91676144964E+02  0.10241935210E+03  0.10000000000E+01 0.  0.
<mgrwt>
<rscale>  0 0.12499853E+03</rscale>
<asrwt>0</asrwt>
<pdfrwt beam="1">  1        4 0.17745060E-01 0.12499853E+03</pdfrwt>
<pdfrwt beam="2">  1       -4 0.52100945E-02 0.12499853E+03</pdfrwt>
<totfact> 0.99465003E+03</totfact>
</mgrwt>
</event>
<event>
 5    1  0.3184438E-002  0.1249986E+03  0.7818608E-02  0.1235072E+00
         -4   -1    0    0    0  501 -0.00000000000E+00  0.00000000000E+00  0.23213030455E+02  0.23247745760E+02  0.12700000000E+01 0. -1.
          4   -1    0    0  501    0  0.00000000000E+00 -0.00000000000E+00 -0.16811159315E+03  0.16811639019E+03  0.12700000000E+01 0. -1.
         25    2    1    2    0    0  0.00000000000E+00  0.00000000000E+00 -0.14489856269E+03  0.19136413595E+03  0.12499855622E+03 0.  0.
    9000005    1    3    3    0    0 -0.16552406854E+02 -0.60206521567E+02 -0.68590742782E+02  0.92760430181E+02  0.10000000000E+01 0.  0.
    9000005    1    3    3    0    0  0.16552406854E+02  0.60206521567E+02 -0.76307819911E+02  0.98603705769E+02  0.10000000000E+01 0.  0.
<mgrwt>
<rscale>  0 0.12499856E+03</rscale>
<asrwt>0</asrwt>
<pdfrwt beam="2">  1        4 0.25866361E-01 0.12499856E+03</pdfrwt>
<pdfrwt beam="1">  1       -4 0.35742750E-02 0.12499856E+03</pdfrwt>
<totfact> 0.91613463E+03</totfact>
</mgrwt>
</event>
<event>
 4    1  0.3184438E-002  0.1249355E+03  0.7818608E-02  0.1235170E+00
         -4   -1    0    0    0  501 -0.00000000000E+00  0.00000000000E+00  0.55122660399E+02  0.55137288557E+02  0.12700000000E+01 0.  1.
          4   -1    0    0  501    0  0.00000000000E+00 -0.00000000000E+00 -0.70761904568E+02  0.70773300320E+02  0.12700000000E+01 0.  1.
    9000005    1    1    2    0    0 -0.40074399093E+01 -0.34579762460E+02  0.44444563408E+02  0.56463605649E+02  0.10000000000E+01 0.  0.
    9000005    1    1    2    0    0  0.40074399093E+01  0.34579762460E+02 -0.60083807577E+02  0.69446983227E+02  0.10000000000E+01 0.  0.
<mgrwt>
<rscale>  0 0.12493555E+03</rscale>
<asrwt>0</asrwt>
<pdfrwt beam="2">  1        4 0.10888449E-01 0.12493555E+03</pdfrwt>
<pdfrwt beam="1">  1       -4 0.84824111E-02 0.12493555E+03</pdfrwt>
<totfact> 0.10448106E+04</totfact>
</mgrwt>
</event>
<event>
 5    1  0.3184438E-002  0.1249995E+03  0.7818608E-02  0.1235070E+00
          4   -1    0    0  501    0  0.00000000000E+00  0.00000000000E+00  0.45728193617E+03  0.45728369974E+03  0.12700000000E+01 0. -1.
         -4   -1    0    0    0  501 -0.00000000000E+00 -0.00000000000E+00 -0.84932603207E+01  0.85876871668E+01  0.12700000000E+01 0. -1.
         25    2    1    2    0    0  0.00000000000E+00  0.00000000000E+00  0.44878867585E+03  0.46587138690E+03  0.12499949427E+03 0.  0.
    9000005    1    3    3    0    0  0.58174324550E+01  0.52956731927E+02  0.10265471977E+03  0.11566005995E+03  0.10000000000E+01 0.  0.
    9000005    1    3    3    0    0 -0.58174324550E+01 -0.52956731927E+02  0.34613395608E+03  0.35021132695E+03  0.10000000000E+01 0.  0.
<mgrwt>
<rscale>  0 0.12499949E+03</rscale>
<asrwt>0</asrwt>
<pdfrwt beam="1">  1        4 0.70358472E-01 0.12499949E+03</pdfrwt>
<pdfrwt beam="2">  1       -4 0.13140546E-02 0.12499949E+03</pdfrwt>
<totfact> 0.58613748E+03</totfact>
</mgrwt>
</event>
<event>
 5    1  0.3184438E-002  0.1249946E+03  0.7818608E-02  0.1235078E+00
          4   -1    0    0  501    0  0.00000000000E+00  0.00000000000E+00  0.13404252269E+02  0.13464281596E+02  0.12700000000E+01 0.  1.
         -4   -1    0    0    0  501 -0.00000000000E+00 -0.00000000000E+00 -0.29068127903E+03  0.29068405336E+03  0.12700000000E+01 0.  1.
         25    2    1    2    0    0  0.00000000000E+00  0.00000000000E+00 -0.27727702676E+03  0.30414833496E+03  0.12499464024E+03 0.  0.
    9000005    1    3    3    0    0  0.54323481311E+00  0.42574132446E+02 -0.24993499845E+03  0.25353768025E+03  0.10000000000E+01 0.  0.
    9000005    1    3    3    0    0 -0.54323481311E+00 -0.42574132446E+02 -0.27342028314E+02  0.50610654707E+02  0.10000000000E+01 0.  0.
<mgrwt>
<rscale>  0 0.12499464E+03</rscale>
<asrwt>0</asrwt>
<pdfrwt beam="1">  1        4 0.20670239E-02 0.12499464E+03</pdfrwt>
<pdfrwt beam="2">  1       -4 0.44725023E-01 0.12499464E+03</pdfrwt>
<totfact> 0.75090342E+03</totfact>
</mgrwt>
</event>
<event>
 5    1  0.3184438E-002  0.1249998E+03  0.7818608E-02  0.1235070E+00
          4   -1    0    0  501    0  0.00000000000E+00  0.00000000000E+00  0.36376331365E+01  0.38529566356E+01  0.12700000000E+01 0. -1.
         -4   -1    0    0    0  501 -0.00000000000E+00 -0.00000000000E+00 -0.10427566400E+04  0.10427574133E+04  0.12700000000E+01 0. -1.
         25    2    1    2    0    0  0.00000000000E+00  0.00000000000E+00 -0.10391190068E+04  0.10466103700E+04  0.12499982481E+03 0.  0.
    9000005    1    3    3    0    0 -0.53949909870E+02  0.30687032895E+02 -0.45863135303E+03  0.46281314237E+03  0.10000000000E+01 0.  0.
    9000005    1    3    3    0    0  0.53949909870E+02 -0.30687032895E+02 -0.58048765380E+03  0.58379722762E+03  0.10000000000E+01 0.  0.
<mgrwt>
<rscale>  0 0.12499982E+03</rscale>
<asrwt>0</asrwt>
<pdfrwt beam="1">  1        4 0.57625954E-03 0.12499982E+03</pdfrwt>
<pdfrwt beam="2">  1       -4 0.16044049E+00 0.12499982E+03</pdfrwt>
<totfact> 0.29100998E+03</totfact>
</mgrwt>
</event>
<event>
 5    1  0.3184438E-002  0.1249952E+03  0.7818608E-02  0.1235077E+00
         -4   -1    0    0    0  501 -0.00000000000E+00  0.00000000000E+00  0.10958716461E+02  0.11032060844E+02  0.12700000000E+01 0.  1.
          4   -1    0    0  501    0  0.00000000000E+00 -0.00000000000E+00 -0.35516088326E+03  0.35516315391E+03  0.12700000000E+01 0.  1.
         25    2    1    2    0    0  0.00000000000E+00  0.00000000000E+00 -0.34420216679E+03  0.36619521475E+03  0.12499521464E+03 0.  0.
    9000005    1    3    3    0    0  0.43627391671E+02 -0.71207391174E+01 -0.30150172041E+03  0.30472666710E+03  0.10000000000E+01 0.  0.
    9000005    1    3    3    0    0 -0.43627391671E+02  0.71207391174E+01 -0.42700446385E+02  0.61468547657E+02  0.10000000000E+01 0.  0.
<mgrwt>
<rscale>  0 0.12499521E+03</rscale>
<asrwt>0</asrwt>
<pdfrwt beam="2">  1        4 0.54645943E-01 0.12499521E+03</pdfrwt>
<pdfrwt beam="1">  1       -4 0.16917732E-02 0.12499521E+03</pdfrwt>
<totfact> 0.67986074E+03</totfact>
</mgrwt>
</event>
<event>
 5    1  0.3184438E-002  0.1249980E+03  0.7818608E-02  0.1235072E+00
          4   -1    0    0  501    0  0.00000000000E+00  0.00000000000E+00  0.85892388726E+03  0.85892482617E+03  0.12700000000E+01 0.  1.
         -4   -1    0    0    0  501 -0.00000000000E+00 -0.00000000000E+00 -0.44580739264E+01  0.46354420645E+01  0.12700000000E+01 0.  1.
         25    2    1    2    0    0  0.00000000000E+00  0.00000000000E+00  0.85446581334E+03  0.86356026824E+03  0.12499804283E+03 0.  0.
    9000005    1    3    3    0    0  0.39710149186E+02 -0.24239577506E+02  0.13899689683E+03  0.14657963840E+03  0.10000000000E+01 0.  0.
    9000005    1    3    3    0    0 -0.39710149186E+02  0.24239577506E+02  0.71546891651E+03  0.71698062983E+03  0.10000000000E+01 0.  0.
<mgrwt>
<rscale>  0 0.12499804E+03</rscale>
<asrwt>0</asrwt>
<pdfrwt beam="1">  1        4 0.13215597E+00 0.12499804E+03</pdfrwt>
<pdfrwt beam="2">  1       -4 0.69957282E-03 0.12499804E+03</pdfrwt>
<totfact> 0.35580250E+03</totfact>
</mgrwt>
</event>
<event>
 5    1  0.3184438E-002  0.1250137E+03  0.7818608E-02  0.1235048E+00
          4   -1    0    0  501    0  0.00000000000E+00  0.00000000000E+00  0.15355563081E+03  0.15356088257E+03  0.12700000000E+01 0.  1.
         -4   -1    0    0    0  501 -0.00000000000E+00 -0.00000000000E+00 -0.25422691997E+02  0.25454393891E+02  0.12700000000E+01 0.  1.
         25    2    1    2    0    0  0.00000000000E+00  0.00000000000E+00  0.12813293882E+03  0.17901527646E+03  0.12501367603E+03 0.  0.
    9000005    1    3    3    0    0 -0.59689278340E+02 -0.98085972330E+01  0.86575504323E+02  0.10561882634E+03  0.10000000000E+01 0.  0.
    9000005    1    3    3    0    0  0.59689278340E+02  0.98085972330E+01  0.41557434495E+02  0.73396450120E+02  0.10000000000E+01 0.  0.
<mgrwt>
<rscale>  0 0.12501368E+03</rscale>
<asrwt>0</asrwt>
<pdfrwt beam="1">  1        4 0.23626785E-01 0.12501368E+03</pdfrwt>
<pdfrwt beam="2">  1       -4 0.39140261E-02 0.12501368E+03</pdfrwt>
<totfact> 0.93765799E+03</totfact>
</mgrwt>
</event>
<event>
 5    1  0.3184438E-002  0.1249976E+03  0.7818608E-02  0.1235073E+00
         -4   -1    0    0    0  501 -0.00000000000E+00  0.00000000000E+00  0.54364150800E+02  0.54378983000E+02  0.12700000000E+01 0.  1.
          4   -1    0    0  501    0  0.00000000000E+00 -0.00000000000E+00 -0.71820445565E+02  0.71831673384E+02  0.12700000000E+01 0.  1.
         25    2    1    2    0    0  0.00000000000E+00  0.00000000000E+00 -0.17456294765E+02  0.12621065638E+03  0.12499763021E+03 0.  0.
    9000005    1    3    3    0    0  0.14633882829E+02 -0.38075931967E+02  0.39072316151E+02  0.56494008631E+02  0.10000000000E+01 0.  0.
    9000005    1    3    3    0    0 -0.14633882829E+02  0.38075931967E+02 -0.56528610916E+02  0.69716647753E+02  0.10000000000E+01 0.  0.
<mgrwt>
<rscale>  0 0.12499763E+03</rscale>
<asrwt>0</asrwt>
<pdfrwt beam="2">  1        4 0.11051304E-01 0.12499763E+03</pdfrwt>
<pdfrwt beam="1">  1       -4 0.83657202E-02 0.12499763E+03</pdfrwt>
<totfact> 0.10426904E+04</totfact>
</mgrwt>
</event>
<event>
 5    1  0.3184438E-002  0.1249980E+03  0.7818608E-02  0.1235072E+00
         -4   -1    0    0    0  501 -0.00000000000E+00  0.00000000000E+00  0.41021967213E+02  0.41041621484E+02  0.12700000000E+01 0.  1.
          4   -1    0    0  501    0  0.00000000000E+00 -0.00000000000E+00 -0.95173563083E+02  0.95182036172E+02  0.12700000000E+01 0.  1.
         25    2    1    2    0    0  0.00000000000E+00  0.00000000000E+00 -0.54151595870E+02  0.13622365766E+03  0.12499795826E+03 0.  0.
    9000005    1    3    3    0    0 -0.12974182756E+02  0.54819199482E+02 -0.56553987978E+02  0.79829991897E+02  0.10000000000E+01 0.  0.
    9000005    1    3    3    0    0  0.12974182756E+02 -0.54819199482E+02  0.24023921081E+01  0.56393665760E+02  0.10000000000E+01 0.  0.
<mgrwt>
<rscale>  0 0.12499796E+03</rscale>
<asrwt>0</asrwt>
<pdfrwt beam="2">  1        4 0.14644250E-01 0.12499796E+03</pdfrwt>
<pdfrwt beam="1">  1       -4 0.63132356E-02 0.12499796E+03</pdfrwt>
<totfact> 0.10212813E+04</totfact>
</mgrwt>
</event>
<event>
 5    1  0.3184438E-002  0.1249948E+03  0.7818608E-02  0.1235077E+00
          4   -1    0    0  501    0  0.00000000000E+00  0.00000000000E+00  0.10626165065E+03  0.10626923967E+03  0.12700000000E+01 0.  1.
         -4   -1    0    0    0  501 -0.00000000000E+00 -0.00000000000E+00 -0.36737750907E+02  0.36759695887E+02  0.12700000000E+01 0.  1.
         25    2    1    2    0    0  0.00000000000E+00  0.00000000000E+00  0.69523899746E+02  0.14302893555E+03  0.12499481497E+03 0.  0.
    9000005    1    3    3    0    0 -0.50229365428E+02  0.16621900495E+02  0.72810717035E+02  0.90009317532E+02  0.10000000000E+01 0.  0.
    9000005    1    3    3    0    0  0.50229365428E+02 -0.16621900495E+02 -0.32868172890E+01  0.53019618023E+02  0.10000000000E+01 0.  0.
<mgrwt>
<rscale>  0 0.12499481E+03</rscale>
<asrwt>0</asrwt>
<pdfrwt beam="1">  1        4 0.16350218E-01 0.12499481E+03</pdfrwt>
<pdfrwt beam="2">  1       -4 0.56542336E-02 0.12499481E+03</pdfrwt>
<totfact> 0.10072367E+04</totfact>
</mgrwt>
</event>
<event>
 5    1  0.3184438E-002  0.1249984E+03  0.7818608E-02  0.1235072E+00
         -4   -1    0    0    0  501 -0.00000000000E+00  0.00000000000E+00  0.95038043678E+02  0.95046528849E+02  0.12700000000E+01 0.  1.
          4   -1    0    0  501    0  0.00000000000E+00 -0.00000000000E+00 -0.41080775348E+02  0.41100401497E+02  0.12700000000E+01 0.  1.
         25    2    1    2    0    0  0.00000000000E+00  0.00000000000E+00  0.53957268330E+02  0.13614693035E+03  0.12499839934E+03 0.  0.
    9000005    1    3    3    0    0  0.16333744464E+02 -0.28744478664E+02 -0.30780389049E+02  0.45182614045E+02  0.10000000000E+01 0.  0.
    9000005    1    3    3    0    0 -0.16333744464E+02  0.28744478664E+02  0.84737657380E+02  0.90964316301E+02  0.10000000000E+01 0.  0.
<mgrwt>
<rscale>  0 0.12499840E+03</rscale>
<asrwt>0</asrwt>
<pdfrwt beam="2">  1        4 0.63222818E-02 0.12499840E+03</pdfrwt>
<pdfrwt beam="1">  1       -4 0.14623400E-01 0.12499840E+03</pdfrwt>
<totfact> 0.10214321E+04</totfact>
</mgrwt>
</event>
<event>
 5    1  0.3184438E-002  0.1250008E+03  0.7818608E-02  0.1235068E+00
         -4   -1    0    0    0  501 -0.00000000000E+00  0.00000000000E+00  0.17115575798E+04  0.17115580510E+04  0.12700000000E+01 0.  1.
          4   -1    0    0  501    0  0.00000000000E+00 -0.00000000000E+00 -0.21051237289E+01  0.24585454875E+01  0.12700000000E+01 0.  1.
         25    2    1    2    0    0  0.00000000000E+00  0.00000000000E+00  0.17094524561E+04  0.17140165964E+04  0.12500077358E+03 0.  0.
    9000005    1    3    3    0    0  0.91838710340E+01 -0.14459424848E+02  0.16788054654E+04  0.16788931500E+04  0.10000000000E+01 0.  0.
    9000005    1    3    3    0    0 -0.91838710340E+01  0.14459424848E+02  0.30646990614E+02  0.35123446411E+02  0.10000000000E+01 0.  0.
<mgrwt>
<rscale>  0 0.12500077E+03</rscale>
<asrwt>0</asrwt>
<pdfrwt beam="2">  1        4 0.35108709E-03 0.12500077E+03</pdfrwt>
<pdfrwt beam="1">  1       -4 0.26334425E+00 0.12500077E+03</pdfrwt>
<totfact> 0.14075102E+03</totfact>
</mgrwt>
</event>
<event>
 5    1  0.3184438E-002  0.1250005E+03  0.7818608E-02  0.1235068E+00
         -4   -1    0    0    0  501 -0.00000000000E+00  0.00000000000E+00  0.10339176896E+03  0.10339956861E+03  0.12700000000E+01 0. -1.
          4   -1    0    0  501    0  0.00000000000E+00 -0.00000000000E+00 -0.37761471523E+02  0.37782821911E+02  0.12700000000E+01 0. -1.
         25    2    1    2    0    0  0.00000000000E+00  0.00000000000E+00  0.65630297435E+02  0.14118239052E+03  0.12500052580E+03 0.  0.
    9000005    1    3    3    0    0  0.10272982560E+02 -0.12914574665E+01  0.10242180835E+03  0.10294867099E+03  0.10000000000E+01 0.  0.
    9000005    1    3    3    0    0 -0.10272982560E+02  0.12914574665E+01 -0.36791510918E+02  0.38233719525E+02  0.10000000000E+01 0.  0.
<mgrwt>
<rscale>  0 0.12500053E+03</rscale>
<asrwt>0</asrwt>
<pdfrwt beam="2">  1        4 0.58116995E-02 0.12500053E+03</pdfrwt>
<pdfrwt beam="1">  1       -4 0.15908668E-01 0.12500053E+03</pdfrwt>
<totfact> 0.10109019E+04</totfact>
</mgrwt>
</event>
<event>
 5    1  0.3184438E-002  0.1250000E+03  0.7818608E-02  0.1235069E+00
         -4   -1    0    0    0  501 -0.00000000000E+00  0.00000000000E+00  0.28067285642E+03  0.28067572968E+03  0.12700000000E+01 0.  1.
          4   -1    0    0  501    0  0.00000000000E+00 -0.00000000000E+00 -0.13885531314E+02  0.13943488799E+02  0.12700000000E+01 0.  1.
         25    2    1    2    0    0  0.00000000000E+00  0.00000000000E+00  0.26678732511E+03  0.29461921848E+03  0.12500002824E+03 0.  0.
    9000005    1    3    3    0    0 -0.45754391962E+02 -0.27298125078E+02  0.21036901755E+03  0.21701330734E+03  0.10000000000E+01 0.  0.
    9000005    1    3    3    0    0  0.45754391962E+02  0.27298125078E+02  0.56418307556E+02  0.77605911142E+02  0.10000000000E+01 0.  0.
<mgrwt>
<rscale>  0 0.12500003E+03</rscale>
<asrwt>0</asrwt>
<pdfrwt beam="2">  1        4 0.21409149E-02 0.12500003E+03</pdfrwt>
<pdfrwt beam="1">  1       -4 0.43185119E-01 0.12500003E+03</pdfrwt>
<totfact> 0.76278740E+03</totfact>
</mgrwt>
</event>
<event>
 5    1  0.3184438E-002  0.1250008E+03  0.7818608E-02  0.1235068E+00
          4   -1    0    0  501    0  0.00000000000E+00  0.00000000000E+00  0.99121705316E+03  0.99121786676E+03  0.12700000000E+01 0. -1.
         -4   -1    0    0    0  501 -0.00000000000E+00 -0.00000000000E+00 -0.38377581326E+01  0.40424358355E+01  0.12700000000E+01 0. -1.
         25    2    1    2    0    0  0.00000000000E+00  0.00000000000E+00  0.98737929503E+03  0.99526030259E+03  0.12500079066E+03 0.  0.
    9000005    1    3    3    0    0  0.10572597988E+02 -0.50148836942E+02  0.20898562339E+03  0.21518056710E+03  0.10000000000E+01 0.  0.
    9000005    1    3    3    0    0 -0.10572597988E+02  0.50148836942E+02  0.77839367164E+03  0.78007973549E+03  0.10000000000E+01 0.  0.
<mgrwt>
<rscale>  0 0.12500079E+03</rscale>
<asrwt>0</asrwt>
<pdfrwt beam="1">  1        4 0.15251081E+00 0.12500079E+03</pdfrwt>
<pdfrwt beam="2">  1       -4 0.60623105E-03 0.12500079E+03</pdfrwt>
<totfact> 0.30760947E+03</totfact>
</mgrwt>
</event>
<event>
 5    1  0.3184438E-002  0.1250026E+03  0.7818608E-02  0.1235065E+00
         -4   -1    0    0    0  501 -0.00000000000E+00  0.00000000000E+00  0.52685590964E+01  0.54194662978E+01  0.12700000000E+01 0.  1.
          4   -1    0    0  501    0  0.00000000000E+00 -0.00000000000E+00 -0.73083716723E+03  0.73083827069E+03  0.12700000000E+01 0.  1.
         25    2    1    2    0    0  0.00000000000E+00  0.00000000000E+00 -0.72556860813E+03  0.73625773699E+03  0.12500260063E+03 0.  0.
    9000005    1    3    3    0    0  0.11070980720E+02  0.56390884178E+02 -0.21816091094E+03  0.22560514510E+03  0.10000000000E+01 0.  0.
    9000005    1    3    3    0    0 -0.11070980720E+02 -0.56390884178E+02 -0.50740769719E+03  0.51065259189E+03  0.10000000000E+01 0.  0.
<mgrwt>
<rscale>  0 0.12500260E+03</rscale>
<asrwt>0</asrwt>
<pdfrwt beam="2">  1        4 0.11244810E+00 0.12500260E+03</pdfrwt>
<pdfrwt beam="1">  1       -4 0.82224126E-03 0.12500260E+03</pdfrwt>
<totfact> 0.41237892E+03</totfact>
</mgrwt>
</event>
<event>
 5    1  0.3184438E-002  0.1250000E+03  0.7818608E-02  0.1235069E+00
          4   -1    0    0  501    0  0.00000000000E+00  0.00000000000E+00  0.87425833542E+01  0.88343456863E+01  0.12700000000E+01 0. -1.
         -4   -1    0    0    0  501 -0.00000000000E+00 -0.00000000000E+00 -0.44438204684E+03  0.44438386160E+03  0.12700000000E+01 0. -1.
         25    2    1    2    0    0  0.00000000000E+00  0.00000000000E+00 -0.43563946349E+03  0.45321820729E+03  0.12500000509E+03 0.  0.
    9000005    1    3    3    0    0  0.38364239346E+02  0.48540554074E+02 -0.18595232287E+03  0.19597771973E+03  0.10000000000E+01 0.  0.
    9000005    1    3    3    0    0 -0.38364239346E+02 -0.48540554074E+02 -0.24968714061E+03  0.25724048756E+03  0.10000000000E+01 0.  0.
<mgrwt>
<rscale>  0 0.12500001E+03</rscale>
<asrwt>0</asrwt>
<pdfrwt beam="1">  1        4 0.13522114E-02 0.12500001E+03</pdfrwt>
<pdfrwt beam="2">  1       -4 0.68373649E-01 0.12500001E+03</pdfrwt>
<totfact> 0.59686013E+03</totfact>
</mgrwt>
</event>
<event>
 5    1  0.3184438E-002  0.1250037E+03  0.7818608E-02  0.1235063E+00
          4   -1    0    0  501    0  0.00000000000E+00  0.00000000000E+00  0.78125315738E+01  0.79150836756E+01  0.12700000000E+01 0. -1.
         -4   -1    0    0    0  501 -0.00000000000E+00 -0.00000000000E+00 -0.49666404026E+03  0.49666566399E+03  0.12700000000E+01 0. -1.
         25    2    1    2    0    0  0.00000000000E+00  0.00000000000E+00 -0.48885150868E+03  0.50458074766E+03  0.12500373343E+03 0.  0.
    9000005    1    3    3    0    0 -0.37417200198E+02  0.38753760377E+02 -0.37230033953E+03  0.37617873893E+03  0.10000000000E+01 0.  0.
    9000005    1    3    3    0    0  0.37417200198E+02 -0.38753760377E+02 -0.11655116916E+03  0.12840200873E+03  0.10000000000E+01 0.  0.
<mgrwt>
<rscale>  0 0.12500373E+03</rscale>
<asrwt>0</asrwt>
<pdfrwt beam="1">  1        4 0.12099418E-02 0.12500373E+03</pdfrwt>
<pdfrwt beam="2">  1       -4 0.76417841E-01 0.12500373E+03</pdfrwt>
<totfact> 0.55506155E+03</totfact>
</mgrwt>
</event>
<event>
 5    1  0.3184438E-002  0.1250010E+03  0.7818608E-02  0.1235068E+00
          4   -1    0    0  501    0  0.00000000000E+00  0.00000000000E+00  0.30631515392E+02  0.30657831548E+02  0.12700000000E+01 0. -1.
         -4   -1    0    0    0  501 -0.00000000000E+00 -0.00000000000E+00 -0.12744172086E+03  0.12744804869E+03  0.12700000000E+01 0. -1.
         25    2    1    2    0    0  0.00000000000E+00  0.00000000000E+00 -0.96810205469E+02  0.15810588024E+03  0.12500101393E+03 0.  0.
    9000005    1    3    3    0    0  0.87434513011E+01  0.28989585019E+01  0.29774309088E+02  0.31182709676E+02  0.10000000000E+01 0.  0.
    9000005    1    3    3    0    0 -0.87434513011E+01 -0.28989585019E+01 -0.12658451456E+03  0.12692317057E+03  0.10000000000E+01 0.  0.
<mgrwt>
<rscale>  0 0.12500101E+03</rscale>
<asrwt>0</asrwt>
<pdfrwt beam="1">  1        4 0.47150520E-02 0.12500101E+03</pdfrwt>
<pdfrwt beam="2">  1       -4 0.19608929E-01 0.12500101E+03</pdfrwt>
<totfact> 0.97706977E+03</totfact>
</mgrwt>
</event>
<event>
 5    1  0.3184438E-002  0.1249986E+03  0.7818608E-02  0.1235071E+00
         -4   -1    0    0    0  501 -0.00000000000E+00  0.00000000000E+00  0.22703251038E+03  0.22703606248E+03  0.12700000000E+01 0.  1.
          4   -1    0    0  501    0  0.00000000000E+00 -0.00000000000E+00 -0.17178180027E+02  0.17225062236E+02  0.12700000000E+01 0.  1.
         25    2    1    2    0    0  0.00000000000E+00  0.00000000000E+00  0.20985433035E+03  0.24426112472E+03  0.12499862832E+03 0.  0.
    9000005    1    3    3    0    0 -0.92620120467E+01  0.60228247664E+02  0.77854617918E+02  0.98871473211E+02  0.10000000000E+01 0.  0.
    9000005    1    3    3    0    0  0.92620120467E+01 -0.60228247664E+02  0.13199971243E+03  0.14538965151E+03  0.10000000000E+01 0.  0.
<mgrwt>
<rscale>  0 0.12499863E+03</rscale>
<asrwt>0</asrwt>
<pdfrwt beam="2">  1        4 0.26466763E-02 0.12499863E+03</pdfrwt>
<pdfrwt beam="1">  1       -4 0.34931960E-01 0.12499863E+03</pdfrwt>
<totfact> 0.83169353E+03</totfact>
</mgrwt>
</event>
<event>
 5    1  0.3184438E-002  0.1249921E+03  0.7818608E-02  0.1235082E+00
          4   -1    0    0  501    0  0.00000000000E+00  0.00000000000E+00  0.35850616189E+03  0.35850841136E+03  0.12700000000E+01 0.  1.
         -4   -1    0    0    0  501 -0.00000000000E+00 -0.00000000000E+00 -0.10855226169E+02  0.10929265079E+02  0.12700000000E+01 0.  1.
         25    2    1    2    0    0  0.00000000000E+00  0.00000000000E+00  0.34765093572E+03  0.36943767644E+03  0.12499209440E+03 0.  0.
    9000005    1    3    3    0    0  0.11323304583E+02 -0.61184768542E+02  0.15685590703E+03  0.16875001836E+03  0.10000000000E+01 0.  0.
    9000005    1    3    3    0    0 -0.11323304583E+02  0.61184768542E+02  0.19079502870E+03  0.20068765807E+03  0.10000000000E+01 0.  0.
<mgrwt>
<rscale>  0 0.12499209E+03</rscale>
<asrwt>0</asrwt>
<pdfrwt beam="1">  1        4 0.55160665E-01 0.12499209E+03</pdfrwt>
<pdfrwt beam="2">  1       -4 0.16759031E-02 0.12499209E+03</pdfrwt>
<totfact> 0.67649627E+03</totfact>
</mgrwt>
</event>
<event>
 5    1  0.3184438E-002  0.1249969E+03  0.7818608E-02  0.1235074E+00
         -4   -1    0    0    0  501 -0.00000000000E+00  0.00000000000E+00  0.46100666094E+02  0.46118156016E+02  0.12700000000E+01 0. -1.
          4   -1    0    0  501    0  0.00000000000E+00 -0.00000000000E+00 -0.84690500940E+02  0.84700022724E+02  0.12700000000E+01 0. -1.
         25    2    1    2    0    0  0.00000000000E+00  0.00000000000E+00 -0.38589834846E+02  0.13081817874E+03  0.12499688210E+03 0.  0.
    9000005    1    3    3    0    0  0.10565153330E+02  0.11105629473E+02  0.44107779115E+02  0.46706034399E+02  0.10000000000E+01 0.  0.
    9000005    1    3    3    0    0 -0.10565153330E+02 -0.11105629473E+02 -0.82697613961E+02  0.84112144341E+02  0.10000000000E+01 0.  0.
<mgrwt>
<rscale>  0 0.12499688E+03</rscale>
<asrwt>0</asrwt>
<pdfrwt beam="2">  1        4 0.13031386E-01 0.12499688E+03</pdfrwt>
<pdfrwt beam="1">  1       -4 0.70944880E-02 0.12499688E+03</pdfrwt>
<totfact> 0.10327715E+04</totfact>
</mgrwt>
</event>
<event>
 5    1  0.3184438E-002  0.1249975E+03  0.7818608E-02  0.1235073E+00
         -4   -1    0    0    0  501 -0.00000000000E+00  0.00000000000E+00  0.24679866983E+03  0.24680193745E+03  0.12700000000E+01 0. -1.
          4   -1    0    0  501    0  0.00000000000E+00 -0.00000000000E+00 -0.15798198856E+02  0.15849163609E+02  0.12700000000E+01 0. -1.
         25    2    1    2    0    0  0.00000000000E+00  0.00000000000E+00  0.23100047098E+03  0.26265110106E+03  0.12499753317E+03 0.  0.
    9000005    1    3    3    0    0  0.39787309551E+01  0.49429758597E+02  0.19540204178E+03  0.20159883251E+03  0.10000000000E+01 0.  0.
    9000005    1    3    3    0    0 -0.39787309551E+01 -0.49429758597E+02  0.35598429195E+02  0.61052268558E+02  0.10000000000E+01 0.  0.
<mgrwt>
<rscale>  0 0.12499753E+03</rscale>
<asrwt>0</asrwt>
<pdfrwt beam="2">  1        4 0.24346640E-02 0.12499753E+03</pdfrwt>
<pdfrwt beam="1">  1       -4 0.37973196E-01 0.12499753E+03</pdfrwt>
<totfact> 0.80539872E+03</totfact>
</mgrwt>
</event>
<event>
 5    1  0.3184438E-002  0.1249976E+03  0.7818608E-02  0.1235073E+00
         -4   -1    0    0    0  501 -0.00000000000E+00  0.00000000000E+00  0.78970246845E+02  0.78980458259E+02  0.12700000000E+01 0. -1.
          4   -1    0    0  501    0  0.00000000000E+00 -0.00000000000E+00 -0.49441382476E+02  0.49457691021E+02  0.12700000000E+01 0. -1.
         25    2    1    2    0    0  0.00000000000E+00  0.00000000000E+00  0.29528864369E+02  0.12843814928E+03  0.12499761742E+03 0.  0.
    9000005    1    3    3    0    0 -0.44816624011E+02  0.36889502290E+02 -0.90186254422E+01  0.58751176769E+02  0.10000000000E+01 0.  0.
    9000005    1    3    3    0    0  0.44816624011E+02 -0.36889502290E+02  0.38547489811E+02  0.69686972511E+02  0.10000000000E+01 0.  0.
<mgrwt>
<rscale>  0 0.12499762E+03</rscale>
<asrwt>0</asrwt>
<pdfrwt beam="2">  1        4 0.76084066E-02 0.12499762E+03</pdfrwt>
<pdfrwt beam="1">  1       -4 0.12151309E-01 0.12499762E+03</pdfrwt>
<totfact> 0.10378594E+04</totfact>
</mgrwt>
</event>
<event>
 5    1  0.3184438E-002  0.1250009E+03  0.7818608E-02  0.1235068E+00
         -4   -1    0    0    0  501 -0.00000000000E+00  0.00000000000E+00  0.13552247605E+03  0.13552842659E+03  0.12700000000E+01 0. -1.
          4   -1    0    0  501    0  0.00000000000E+00 -0.00000000000E+00 -0.28803467069E+02  0.28831451839E+02  0.12700000000E+01 0. -1.
         25    2    1    2    0    0  0.00000000000E+00  0.00000000000E+00  0.10671900898E+03  0.16435987843E+03  0.12500089104E+03 0.  0.
    9000005    1    3    3    0    0 -0.42199305070E+02  0.14655514750E+02 -0.41010550740E+01  0.44870748976E+02  0.10000000000E+01 0.  0.
    9000005    1    3    3    0    0  0.42199305070E+02 -0.14655514750E+02  0.11082006406E+03  0.11948912946E+03  0.10000000000E+01 0.  0.
<mgrwt>
<rscale>  0 0.12500089E+03</rscale>
<asrwt>0</asrwt>
<pdfrwt beam="2">  1        4 0.44339130E-02 0.12500089E+03</pdfrwt>
<pdfrwt beam="1">  1       -4 0.20852222E-01 0.12500089E+03</pdfrwt>
<totfact> 0.96506826E+03</totfact>
</mgrwt>
</event>
<event>
 5    1  0.3184438E-002  0.1250010E+03  0.7818608E-02  0.1235068E+00
          4   -1    0    0  501    0  0.00000000000E+00  0.00000000000E+00  0.15168625388E+03  0.15169157035E+03  0.12700000000E+01 0.  1.
         -4   -1    0    0    0  501 -0.00000000000E+00 -0.00000000000E+00 -0.25731138654E+02  0.25762460994E+02  0.12700000000E+01 0.  1.
         25    2    1    2    0    0  0.00000000000E+00  0.00000000000E+00  0.12595511522E+03  0.17745403134E+03  0.12500096875E+03 0.  0.
    9000005    1    3    3    0    0 -0.24591738539E+02 -0.13616388212E+02  0.14221164073E+03  0.14496658371E+03  0.10000000000E+01 0.  0.
    9000005    1    3    3    0    0  0.24591738539E+02  0.13616388212E+02 -0.16256525508E+02  0.32487447637E+02  0.10000000000E+01 0.  0.
<mgrwt>
<rscale>  0 0.12500097E+03</rscale>
<asrwt>0</asrwt>
<pdfrwt beam="1">  1        4 0.23339165E-01 0.12500097E+03</pdfrwt>
<pdfrwt beam="2">  1       -4 0.39614551E-02 0.12500097E+03</pdfrwt>
<totfact> 0.94075259E+03</totfact>
</mgrwt>
</event>
<event>
 5    1  0.3184438E-002  0.1249973E+03  0.7818608E-02  0.1235073E+00
          4   -1    0    0  501    0  0.00000000000E+00  0.00000000000E+00  0.15853689148E+03  0.15854197823E+03  0.12700000000E+01 0. -1.
         -4   -1    0    0    0  501 -0.00000000000E+00 -0.00000000000E+00 -0.24616463272E+02  0.24649202097E+02  0.12700000000E+01 0. -1.
         25    2    1    2    0    0  0.00000000000E+00  0.00000000000E+00  0.13392042821E+03  0.18319118032E+03  0.12499730980E+03 0.  0.
    9000005    1    3    3    0    0 -0.57587143421E+02  0.24130145261E+02  0.63212597701E+02  0.88855925552E+02  0.10000000000E+01 0.  0.
    9000005    1    3    3    0    0  0.57587143421E+02 -0.24130145261E+02  0.70707830506E+02  0.94335254771E+02  0.10000000000E+01 0.  0.
<mgrwt>
<rscale>  0 0.12499731E+03</rscale>
<asrwt>0</asrwt>
<pdfrwt beam="1">  1        4 0.24393200E-01 0.12499731E+03</pdfrwt>
<pdfrwt beam="2">  1       -4 0.37900579E-02 0.12499731E+03</pdfrwt>
<totfact> 0.93051325E+03</totfact>
</mgrwt>
</event>
<event>
 5    1  0.3184438E-002  0.1249990E+03  0.7818608E-02  0.1235071E+00
          4   -1    0    0  501    0  0.00000000000E+00  0.00000000000E+00  0.37336034896E+02  0.37357628428E+02  0.12700000000E+01 0. -1.
         -4   -1    0    0    0  501 -0.00000000000E+00 -0.00000000000E+00 -0.10456681839E+03  0.10457453040E+03  0.12700000000E+01 0. -1.
         25    2    1    2    0    0  0.00000000000E+00  0.00000000000E+00 -0.67230783492E+02  0.14193215883E+03  0.12499903784E+03 0.  0.
    9000005    1    3    3    0    0  0.13911754027E+02  0.32529181627E+01  0.35462309277E+02  0.38245179512E+02  0.10000000000E+01 0.  0.
    9000005    1    3    3    0    0 -0.13911754027E+02 -0.32529181627E+01 -0.10269309277E+03  0.10368697931E+03  0.10000000000E+01 0.  0.
<mgrwt>
<rscale>  0 0.12499904E+03</rscale>
<asrwt>0</asrwt>
<pdfrwt beam="1">  1        4 0.57462597E-02 0.12499904E+03</pdfrwt>
<pdfrwt beam="2">  1       -4 0.16089457E-01 0.12499904E+03</pdfrwt>
<totfact> 0.10093915E+04</totfact>
</mgrwt>
</event>
<event>
 5    1  0.3184438E-002  0.1249941E+03  0.7818608E-02  0.1235078E+00
          4   -1    0    0  501    0  0.00000000000E+00  0.00000000000E+00  0.14810818580E+02  0.14865168920E+02  0.12700000000E+01 0. -1.
         -4   -1    0    0    0  501 -0.00000000000E+00 -0.00000000000E+00 -0.26317939664E+03  0.26318246089E+03  0.12700000000E+01 0. -1.
         25    2    1    2    0    0  0.00000000000E+00  0.00000000000E+00 -0.24836857806E+03  0.27804762981E+03  0.12499413535E+03 0.  0.
    9000005    1    3    3    0    0  0.45578168604E+02  0.32385009992E+02 -0.18625999381E+03  0.19447350365E+03  0.10000000000E+01 0.  0.
    9000005    1    3    3    0    0 -0.45578168604E+02 -0.32385009992E+02 -0.62108584252E+02  0.83574126159E+02  0.10000000000E+01 0.  0.
<mgrwt>
<rscale>  0 0.12499414E+03</rscale>
<asrwt>0</asrwt>
<pdfrwt beam="1">  1        4 0.22830042E-02 0.12499414E+03</pdfrwt>
<pdfrwt beam="2">  1       -4 0.40493551E-01 0.12499414E+03</pdfrwt>
<totfact> 0.78447918E+03</totfact>
</mgrwt>
</event>
<event>
 5    1  0.3184438E-002  0.1249870E+03  0.7818608E-02  0.1235090E+00
          4   -1    0    0  501    0  0.00000000000E+00  0.00000000000E+00  0.58462966011E+02  0.58476758587E+02  0.12700000000E+01 0.  1.
         -4   -1    0    0    0  501 -0.00000000000E+00 -0.00000000000E+00 -0.66774150963E+02  0.66786227149E+02  0.12700000000E+01 0.  1.
         25    2    1    2    0    0  0.00000000000E+00  0.00000000000E+00 -0.83111849518E+01  0.12526298574E+03  0.12498695852E+03 0.  0.
    9000005    1    3    3    0    0 -0.46465950767E+02 -0.30467483540E+02  0.24492195768E+02  0.60730715355E+02  0.10000000000E+01 0.  0.
    9000005    1    3    3    0    0  0.46465950767E+02  0.30467483540E+02 -0.32803380720E+02  0.64532270382E+02  0.10000000000E+01 0.  0.
<mgrwt>
<rscale>  0 0.12498696E+03</rscale>
<asrwt>0</asrwt>
<pdfrwt beam="1">  1        4 0.89962923E-02 0.12498696E+03</pdfrwt>
<pdfrwt beam="2">  1       -4 0.10274936E-01 0.12498696E+03</pdfrwt>
<totfact> 0.10450233E+04</totfact>
</mgrwt>
</event>
<event>
 5    1  0.3184438E-002  0.1250007E+03  0.7818608E-02  0.1235068E+00
         -4   -1    0    0    0  501 -0.00000000000E+00  0.00000000000E+00  0.45366394300E+02  0.45384167192E+02  0.12700000000E+01 0.  1.
          4   -1    0    0  501    0  0.00000000000E+00 -0.00000000000E+00 -0.86066145164E+02  0.86075514773E+02  0.12700000000E+01 0.  1.
         25    2    1    2    0    0  0.00000000000E+00  0.00000000000E+00 -0.40699750864E+02  0.13145968197E+03  0.12500071305E+03 0.  0.
    9000005    1    3    3    0    0 -0.73952281204E+01 -0.18971712712E+02 -0.82484697809E+02  0.84966703212E+02  0.10000000000E+01 0.  0.
    9000005    1    3    3    0    0  0.73952281204E+01  0.18971712712E+02  0.41784946944E+02  0.46492978753E+02  0.10000000000E+01 0.  0.
<mgrwt>
<rscale>  0 0.12500071E+03</rscale>
<asrwt>0</asrwt>
<pdfrwt beam="2">  1        4 0.13243033E-01 0.12500071E+03</pdfrwt>
<pdfrwt beam="1">  1       -4 0.69815332E-02 0.12500071E+03</pdfrwt>
<totfact> 0.10313079E+04</totfact>
</mgrwt>
</event>
<event>
 5    1  0.3184438E-002  0.1250032E+03  0.7818608E-02  0.1235064E+00
         -4   -1    0    0    0  501 -0.00000000000E+00  0.00000000000E+00  0.13765161481E+03  0.13765747332E+03  0.12700000000E+01 0. -1.
          4   -1    0    0  501    0  0.00000000000E+00 -0.00000000000E+00 -0.28358570355E+02  0.28386993722E+02  0.12700000000E+01 0. -1.
         25    2    1    2    0    0  0.00000000000E+00  0.00000000000E+00  0.10929304446E+03  0.16604446704E+03  0.12500318183E+03 0.  0.
    9000005    1    3    3    0    0  0.83433780632E+01  0.49263953612E+02  0.10450550252E+03  0.11584018793E+03  0.10000000000E+01 0.  0.
    9000005    1    3    3    0    0 -0.83433780632E+01 -0.49263953612E+02  0.47875419367E+01  0.50204279108E+02  0.10000000000E+01 0.  0.
<mgrwt>
<rscale>  0 0.12500318E+03</rscale>
<asrwt>0</asrwt>
<pdfrwt beam="2">  1        4 0.43654941E-02 0.12500318E+03</pdfrwt>
<pdfrwt beam="1">  1       -4 0.21179808E-01 0.12500318E+03</pdfrwt>
<totfact> 0.96183077E+03</totfact>
</mgrwt>
</event>
<event>
 4    1  0.3184438E-002  0.1247586E+03  0.7818608E-02  0.1235447E+00
          4   -1    0    0  501    0  0.00000000000E+00  0.00000000000E+00  0.17691801393E+02  0.17737326081E+02  0.12700000000E+01 0.  1.
         -4   -1    0    0    0  501 -0.00000000000E+00 -0.00000000000E+00 -0.21961226617E+03  0.21961593829E+03  0.12700000000E+01 0.  1.
    9000005    1    1    2    0    0  0.44810471490E+02 -0.34902457279E+02 -0.51935674963E+02  0.76970606163E+02  0.10000000000E+01 0.  0.
    9000005    1    1    2    0    0 -0.44810471490E+02  0.34902457279E+02 -0.14998478981E+03  0.16038265821E+03  0.10000000000E+01 0.  0.
<mgrwt>
<rscale>  0 0.12475856E+03</rscale>
<asrwt>0</asrwt>
<pdfrwt beam="1">  1        4 0.27256001E-02 0.12475856E+03</pdfrwt>
<pdfrwt beam="2">  1       -4 0.33790285E-01 0.12475856E+03</pdfrwt>
<totfact> 0.84648022E+03</totfact>
</mgrwt>
</event>
<event>
 5    1  0.3184438E-002  0.1249976E+03  0.7818608E-02  0.1235073E+00
         -4   -1    0    0    0  501 -0.00000000000E+00  0.00000000000E+00  0.37249357747E+02  0.37271001496E+02  0.12700000000E+01 0.  1.
          4   -1    0    0  501    0  0.00000000000E+00 -0.00000000000E+00 -0.10480767544E+03  0.10481536973E+03  0.12700000000E+01 0.  1.
         25    2    1    2    0    0  0.00000000000E+00  0.00000000000E+00 -0.67558317691E+02  0.14208637122E+03  0.12499764237E+03 0.  0.
    9000005    1    3    3    0    0  0.46168544982E+02  0.39736441218E+02 -0.49635516434E+02  0.78582464953E+02  0.10000000000E+01 0.  0.
    9000005    1    3    3    0    0 -0.46168544982E+02 -0.39736441218E+02 -0.17922801257E+02  0.63503906268E+02  0.10000000000E+01 0.  0.
<mgrwt>
<rscale>  0 0.12499764E+03</rscale>
<asrwt>0</asrwt>
<pdfrwt beam="2">  1        4 0.16126514E-01 0.12499764E+03</pdfrwt>
<pdfrwt beam="1">  1       -4 0.57329272E-02 0.12499764E+03</pdfrwt>
<totfact> 0.10091062E+04</totfact>
</mgrwt>
</event>
<event>
 5    1  0.3184438E-002  0.1250153E+03  0.7818608E-02  0.1235045E+00
          4   -1    0    0  501    0  0.00000000000E+00  0.00000000000E+00  0.33410726097E+02  0.33434854842E+02  0.12700000000E+01 0. -1.
         -4   -1    0    0    0  501 -0.00000000000E+00 -0.00000000000E+00 -0.11687492559E+03  0.11688182550E+03  0.12700000000E+01 0. -1.
         25    2    1    2    0    0  0.00000000000E+00  0.00000000000E+00 -0.83464199498E+02  0.15031668034E+03  0.12501532623E+03 0.  0.
    9000005    1    3    3    0    0 -0.28937415261E+01  0.30385163107E+02  0.23845642058E+02  0.38745922653E+02  0.10000000000E+01 0.  0.
    9000005    1    3    3    0    0  0.28937415261E+01 -0.30385163107E+02 -0.10730984156E+03  0.11157075769E+03  0.10000000000E+01 0.  0.
<mgrwt>
<rscale>  0 0.12501533E+03</rscale>
<asrwt>0</asrwt>
<pdfrwt beam="1">  1        4 0.51424986E-02 0.12501533E+03</pdfrwt>
<pdfrwt beam="2">  1       -4 0.17983144E-01 0.12501533E+03</pdfrwt>
<totfact> 0.99206388E+03</totfact>
</mgrwt>
</event>
<event>
 5    1  0.3184438E-002  0.1249896E+03  0.7818608E-02  0.1235086E+00
          4   -1    0    0  501    0  0.00000000000E+00  0.00000000000E+00  0.27581369606E+02  0.27610593064E+02  0.12700000000E+01 0. -1.
         -4   -1    0    0    0  501 -0.00000000000E+00 -0.00000000000E+00 -0.14149569529E+03  0.14150139464E+03  0.12700000000E+01 0. -1.
         25    2    1    2    0    0  0.00000000000E+00  0.00000000000E+00 -0.11391432568E+03  0.16911198770E+03  0.12498956272E+03 0.  0.
    9000005    1    3    3    0    0 -0.44413081193E+02 -0.33018807959E+02 -0.96213876275E+02  0.11099942994E+03  0.10000000000E+01 0.  0.
    9000005    1    3    3    0    0  0.44413081193E+02  0.33018807959E+02 -0.17700449405E+02  0.58112557758E+02  0.10000000000E+01 0.  0.
<mgrwt>
<rscale>  0 0.12498956E+03</rscale>
<asrwt>0</asrwt>
<pdfrwt beam="1">  1        4 0.42459741E-02 0.12498956E+03</pdfrwt>
<pdfrwt beam="2">  1       -4 0.21771254E-01 0.12498956E+03</pdfrwt>
<totfact> 0.95636677E+03</totfact>
</mgrwt>
</event>
<event>
 5    1  0.3184438E-002  0.1249983E+03  0.7818608E-02  0.1235072E+00
         -4   -1    0    0    0  501 -0.00000000000E+00  0.00000000000E+00  0.10791337862E+03  0.10792085148E+03  0.12700000000E+01 0.  1.
          4   -1    0    0  501    0  0.00000000000E+00 -0.00000000000E+00 -0.36177177984E+02  0.36199462799E+02  0.12700000000E+01 0.  1.
         25    2    1    2    0    0  0.00000000000E+00  0.00000000000E+00  0.71736200636E+02  0.14412031428E+03  0.12499833002E+03 0.  0.
    9000005    1    3    3    0    0  0.31389446689E+02  0.53962153163E+02  0.39115793620E+02  0.73676703563E+02  0.10000000000E+01 0.  0.
    9000005    1    3    3    0    0 -0.31389446689E+02 -0.53962153163E+02  0.32620407016E+02  0.70443610720E+02  0.10000000000E+01 0.  0.
<mgrwt>
<rscale>  0 0.12499833E+03</rscale>
<asrwt>0</asrwt>
<pdfrwt beam="2">  1        4 0.55680087E-02 0.12499833E+03</pdfrwt>
<pdfrwt beam="1">  1       -4 0.16604347E-01 0.12499833E+03</pdfrwt>
<totfact> 0.10049270E+04</totfact>
</mgrwt>
</event>
<event>
 5    1  0.3184438E-002  0.1249964E+03  0.7818608E-02  0.1235075E+00
         -4   -1    0    0    0  501 -0.00000000000E+00  0.00000000000E+00  0.26908567368E+02  0.26938520706E+02  0.12700000000E+01 0. -1.
          4   -1    0    0  501    0  0.00000000000E+00 -0.00000000000E+00 -0.14504565146E+03  0.14505121132E+03  0.12700000000E+01 0. -1.
         25    2    1    2    0    0  0.00000000000E+00  0.00000000000E+00 -0.11813708409E+03  0.17198973203E+03  0.12499638909E+03 0.  0.
    9000005    1    3    3    0    0 -0.51012225821E+02 -0.31762494588E+02 -0.35478950725E+02  0.69791540965E+02  0.10000000000E+01 0.  0.
    9000005    1    3    3    0    0  0.51012225821E+02  0.31762494588E+02 -0.82658133364E+02  0.10219819106E+03  0.10000000000E+01 0.  0.
<mgrwt>
<rscale>  0 0.12499639E+03</rscale>
<asrwt>0</asrwt>
<pdfrwt beam="2">  1        4 0.22317447E-01 0.12499639E+03</pdfrwt>
<pdfrwt beam="1">  1       -4 0.41425115E-02 0.12499639E+03</pdfrwt>
<totfact> 0.95086778E+03</totfact>
</mgrwt>
</event>
<event>
 5    1  0.3184438E-002  0.1250130E+03  0.7818608E-02  0.1235049E+00
          4   -1    0    0  501    0  0.00000000000E+00  0.00000000000E+00  0.25320203648E+02  0.25352033701E+02  0.12700000000E+01 0.  1.
         -4   -1    0    0    0  501 -0.00000000000E+00 -0.00000000000E+00 -0.15417477771E+03  0.15418000837E+03  0.12700000000E+01 0.  1.
         25    2    1    2    0    0  0.00000000000E+00  0.00000000000E+00 -0.12885457406E+03  0.17953204208E+03  0.12501301082E+03 0.  0.
    9000005    1    3    3    0    0  0.25467562042E+02  0.13304862968E+02  0.15279193866E+02  0.32558714044E+02  0.10000000000E+01 0.  0.
    9000005    1    3    3    0    0 -0.25467562042E+02 -0.13304862968E+02 -0.14413376793E+03  0.14697332803E+03  0.10000000000E+01 0.  0.
<mgrwt>
<rscale>  0 0.12501301E+03</rscale>
<asrwt>0</asrwt>
<pdfrwt beam="1">  1        4 0.38982669E-02 0.12501301E+03</pdfrwt>
<pdfrwt beam="2">  1       -4 0.23722047E-01 0.12501301E+03</pdfrwt>
<totfact> 0.93673974E+03</totfact>
</mgrwt>
</event>
<event>
 5    1  0.3184438E-002  0.1250040E+03  0.7818608E-02  0.1235063E+00
          4   -1    0    0  501    0  0.00000000000E+00  0.00000000000E+00  0.10055661189E+03  0.10056463143E+03  0.12700000000E+01 0. -1.
         -4   -1    0    0    0  501 -0.00000000000E+00 -0.00000000000E+00 -0.38828835420E+02  0.38849599227E+02  0.12700000000E+01 0. -1.
         25    2    1    2    0    0  0.00000000000E+00  0.00000000000E+00  0.61727776468E+02  0.13941423066E+03  0.12500403722E+03 0.  0.
    9000005    1    3    3    0    0 -0.22684551355E+02 -0.43498623000E+02  0.74040890204E+02  0.88824391331E+02  0.10000000000E+01 0.  0.
    9000005    1    3    3    0    0  0.22684551355E+02  0.43498623000E+02 -0.12313113735E+02  0.50589839326E+02  0.10000000000E+01 0.  0.
<mgrwt>
<rscale>  0 0.12500404E+03</rscale>
<asrwt>0</asrwt>
<pdfrwt beam="1">  1        4 0.15472462E-01 0.12500404E+03</pdfrwt>
<pdfrwt beam="2">  1       -4 0.59758811E-02 0.12500404E+03</pdfrwt>
<totfact> 0.10144818E+04</totfact>
</mgrwt>
</event>
<event>
 5    1  0.3184438E-002  0.1250004E+03  0.7818608E-02  0.1235069E+00
         -4   -1    0    0    0  501 -0.00000000000E+00  0.00000000000E+00  0.24260625086E+03  0.24260957495E+03  0.12700000000E+01 0. -1.
          4   -1    0    0  501    0  0.00000000000E+00 -0.00000000000E+00 -0.16072809016E+02  0.16122905745E+02  0.12700000000E+01 0. -1.
         25    2    1    2    0    0  0.00000000000E+00  0.00000000000E+00  0.22653344185E+03  0.25873248070E+03  0.12500038517E+03 0.  0.
    9000005    1    3    3    0    0  0.41996560256E+02 -0.42521438800E+02  0.75467646391E+02  0.96271228738E+02  0.10000000000E+01 0.  0.
    9000005    1    3    3    0    0 -0.41996560256E+02  0.42521438800E+02  0.15106579546E+03  0.16246125196E+03  0.10000000000E+01 0.  0.
<mgrwt>
<rscale>  0 0.12500039E+03</rscale>
<asrwt>0</asrwt>
<pdfrwt beam="2">  1        4 0.24768492E-02 0.12500039E+03</pdfrwt>
<pdfrwt beam="1">  1       -4 0.37328147E-01 0.12500039E+03</pdfrwt>
<totfact> 0.81083573E+03</totfact>
</mgrwt>
</event>
<event>
 5    1  0.3184438E-002  0.1249915E+03  0.7818608E-02  0.1235083E+00
         -4   -1    0    0    0  501 -0.00000000000E+00  0.00000000000E+00  0.24361442004E+03  0.24361773037E+03  0.12700000000E+01 0. -1.
          4   -1    0    0  501    0  0.00000000000E+00 -0.00000000000E+00 -0.16003794398E+02  0.16054106488E+02  0.12700000000E+01 0. -1.
         25    2    1    2    0    0  0.00000000000E+00  0.00000000000E+00  0.22761062564E+03  0.25967183686E+03  0.12499146352E+03 0.  0.
    9000005    1    3    3    0    0 -0.39926664587E+02  0.36297955683E+02  0.48337614685E+02  0.72451398366E+02  0.10000000000E+01 0.  0.
    9000005    1    3    3    0    0  0.39926664587E+02 -0.36297955683E+02  0.17927301095E+03  0.18722043849E+03  0.10000000000E+01 0.  0.
<mgrwt>
<rscale>  0 0.12499146E+03</rscale>
<asrwt>0</asrwt>
<pdfrwt beam="2">  1        4 0.24662472E-02 0.12499146E+03</pdfrwt>
<pdfrwt beam="1">  1       -4 0.37483264E-01 0.12499146E+03</pdfrwt>
<totfact> 0.80967522E+03</totfact>
</mgrwt>
</event>
<event>
 5    1  0.3184438E-002  0.1249997E+03  0.7818608E-02  0.1235070E+00
          4   -1    0    0  501    0  0.00000000000E+00  0.00000000000E+00  0.27275960099E+03  0.27276255761E+03  0.12700000000E+01 0. -1.
         -4   -1    0    0    0  501 -0.00000000000E+00 -0.00000000000E+00 -0.14289949538E+02  0.14346273307E+02  0.12700000000E+01 0. -1.
         25    2    1    2    0    0  0.00000000000E+00  0.00000000000E+00  0.25846965145E+03  0.28710883091E+03  0.12499968027E+03 0.  0.
    9000005    1    3    3    0    0 -0.23954331121E+02 -0.50780770130E+02  0.19225190179E+03  0.20028552203E+03  0.10000000000E+01 0.  0.
    9000005    1    3    3    0    0  0.23954331121E+02  0.50780770130E+02  0.66217749662E+02  0.86823308879E+02  0.10000000000E+01 0.  0.
<mgrwt>
<rscale>  0 0.12499968E+03</rscale>
<asrwt>0</asrwt>
<pdfrwt beam="1">  1        4 0.41967571E-01 0.12499968E+03</pdfrwt>
<pdfrwt beam="2">  1       -4 0.22030140E-02 0.12499968E+03</pdfrwt>
<totfact> 0.77245421E+03</totfact>
</mgrwt>
</event>
<event>
 5    1  0.3184438E-002  0.1249985E+03  0.7818608E-02  0.1235072E+00
          4   -1    0    0  501    0  0.00000000000E+00  0.00000000000E+00  0.60706622882E+03  0.60706755726E+03  0.12700000000E+01 0. -1.
         -4   -1    0    0    0  501 -0.00000000000E+00 -0.00000000000E+00 -0.63704655449E+01  0.64958241400E+01  0.12700000000E+01 0. -1.
         25    2    1    2    0    0  0.00000000000E+00  0.00000000000E+00  0.60069576328E+03  0.61356338140E+03  0.12499849189E+03 0.  0.
    9000005    1    3    3    0    0 -0.36326888128E+02  0.31883360128E+02  0.49477694697E+03  0.49713320017E+03  0.10000000000E+01 0.  0.
    9000005    1    3    3    0    0  0.36326888128E+02 -0.31883360128E+02  0.10591881631E+03  0.11643018123E+03  0.10000000000E+01 0.  0.
<mgrwt>
<rscale>  0 0.12499849E+03</rscale>
<asrwt>0</asrwt>
<pdfrwt beam="1">  1        4 0.93404556E-01 0.12499849E+03</pdfrwt>
<pdfrwt beam="2">  1       -4 0.98981671E-03 0.12499849E+03</pdfrwt>
<totfact> 0.48024077E+03</totfact>
</mgrwt>
</event>
<event>
 5    1  0.3184438E-002  0.1249991E+03  0.7818608E-02  0.1235071E+00
          4   -1    0    0  501    0  0.00000000000E+00  0.00000000000E+00  0.47832496071E+02  0.47849352978E+02  0.12700000000E+01 0.  1.
         -4   -1    0    0    0  501 -0.00000000000E+00 -0.00000000000E+00 -0.81627875062E+02  0.81637754055E+02  0.12700000000E+01 0.  1.
         25    2    1    2    0    0  0.00000000000E+00  0.00000000000E+00 -0.33795378991E+02  0.12948710703E+03  0.12499913298E+03 0.  0.
    9000005    1    3    3    0    0 -0.47409036117E+02 -0.47839155963E+00 -0.59069930153E+02  0.75750262127E+02  0.10000000000E+01 0.  0.
    9000005    1    3    3    0    0  0.47409036117E+02  0.47839155963E+00  0.25274551161E+02  0.53736844906E+02  0.10000000000E+01 0.  0.
<mgrwt>
<rscale>  0 0.12499913E+03</rscale>
<asrwt>0</asrwt>
<pdfrwt beam="1">  1        4 0.73609022E-02 0.12499913E+03</pdfrwt>
<pdfrwt beam="2">  1       -4 0.12560191E-01 0.12499913E+03</pdfrwt>
<totfact> 0.10355694E+04</totfact>
</mgrwt>
</event>
<event>
 5    1  0.3184438E-002  0.1250003E+03  0.7818608E-02  0.1235069E+00
          4   -1    0    0  501    0  0.00000000000E+00  0.00000000000E+00  0.36077922464E+01  0.38247960591E+01  0.12700000000E+01 0. -1.
         -4   -1    0    0    0  501 -0.00000000000E+00 -0.00000000000E+00 -0.10509019778E+04  0.10509027452E+04  0.12700000000E+01 0. -1.
         25    2    1    2    0    0  0.00000000000E+00  0.00000000000E+00 -0.10472941855E+04  0.10547275412E+04  0.12500030068E+03 0.  0.
    9000005    1    3    3    0    0  0.21788464798E+02 -0.40713637709E+02 -0.87893071042E+03  0.88014347195E+03  0.10000000000E+01 0.  0.
    9000005    1    3    3    0    0 -0.21788464798E+02  0.40713637709E+02 -0.16836347512E+03  0.17458406929E+03  0.10000000000E+01 0.  0.
<mgrwt>
<rscale>  0 0.12500030E+03</rscale>
<asrwt>0</asrwt>
<pdfrwt beam="1">  1        4 0.57179743E-03 0.12500030E+03</pdfrwt>
<pdfrwt beam="2">  1       -4 0.16169374E+00 0.12500030E+03</pdfrwt>
<totfact> 0.28847471E+03</totfact>
</mgrwt>
</event>
<event>
 5    1  0.3184438E-002  0.1249936E+03  0.7818608E-02  0.1235079E+00
          4   -1    0    0  501    0  0.00000000000E+00  0.00000000000E+00  0.19114132411E+01  0.22948639564E+01  0.12700000000E+01 0. -1.
         -4   -1    0    0    0  501 -0.00000000000E+00 -0.00000000000E+00 -0.18567696468E+04  0.18567700812E+04  0.12700000000E+01 0. -1.
         25    2    1    2    0    0  0.00000000000E+00  0.00000000000E+00 -0.18548582336E+04  0.18590649451E+04  0.12499361362E+03 0.  0.
    9000005    1    3    3    0    0  0.37123368994E+02 -0.32686329808E+02 -0.14954073489E+04  0.14962254776E+04  0.10000000000E+01 0.  0.
    9000005    1    3    3    0    0 -0.37123368994E+02  0.32686329808E+02 -0.35945088465E+03  0.36283946747E+03  0.10000000000E+01 0.  0.
<mgrwt>
<rscale>  0 0.12499361E+03</rscale>
<asrwt>0</asrwt>
<pdfrwt beam="1">  1        4 0.32359468E-03 0.12499361E+03</pdfrwt>
<pdfrwt beam="2">  1       -4 0.28568509E+00 0.12499361E+03</pdfrwt>
<totfact> 0.11816760E+03</totfact>
</mgrwt>
</event>
<event>
 5    1  0.3184438E-002  0.1250000E+03  0.7818608E-02  0.1235069E+00
         -4   -1    0    0    0  501 -0.00000000000E+00  0.00000000000E+00  0.15513523580E+03  0.15514043408E+03  0.12700000000E+01 0.  1.
          4   -1    0    0  501    0  0.00000000000E+00 -0.00000000000E+00 -0.25157990072E+02  0.25190025099E+02  0.12700000000E+01 0.  1.
         25    2    1    2    0    0  0.00000000000E+00  0.00000000000E+00  0.12997724573E+03  0.18033045918E+03  0.12499996040E+03 0.  0.
    9000005    1    3    3    0    0  0.37928286294E+02  0.17840348597E+02 -0.18793656535E+01  0.41968618687E+02  0.10000000000E+01 0.  0.
    9000005    1    3    3    0    0 -0.37928286294E+02 -0.17840348597E+02  0.13185661138E+03  0.13836184049E+03  0.10000000000E+01 0.  0.
<mgrwt>
<rscale>  0 0.12499996E+03</rscale>
<asrwt>0</asrwt>
<pdfrwt beam="2">  1        4 0.38733241E-02 0.12499996E+03</pdfrwt>
<pdfrwt beam="1">  1       -4 0.23869823E-01 0.12499996E+03</pdfrwt>
<totfact> 0.93557636E+03</totfact>
</mgrwt>
</event>
<event>
 5    1  0.3184438E-002  0.1250066E+03  0.7818608E-02  0.1235059E+00
         -4   -1    0    0    0  501 -0.00000000000E+00  0.00000000000E+00  0.27225936902E+02  0.27255541458E+02  0.12700000000E+01 0.  1.
          4   -1    0    0  501    0  0.00000000000E+00 -0.00000000000E+00 -0.14338008591E+03  0.14338571036E+03  0.12700000000E+01 0.  1.
         25    2    1    2    0    0  0.00000000000E+00  0.00000000000E+00 -0.11615414900E+03  0.17064125181E+03  0.12500660179E+03 0.  0.
    9000005    1    3    3    0    0  0.68500787364E+01 -0.39594421359E+02  0.72608897592E+01  0.40845590969E+02  0.10000000000E+01 0.  0.
    9000005    1    3    3    0    0 -0.68500787364E+01  0.39594421359E+02 -0.12341503876E+03  0.12979566085E+03  0.10000000000E+01 0.  0.
<mgrwt>
<rscale>  0 0.12500660E+03</rscale>
<asrwt>0</asrwt>
<pdfrwt beam="2">  1        4 0.22061184E-01 0.12500660E+03</pdfrwt>
<pdfrwt beam="1">  1       -4 0.41913157E-02 0.12500660E+03</pdfrwt>
<totfact> 0.95315127E+03</totfact>
</mgrwt>
</event>
<event>
 5    1  0.3184438E-002  0.1250010E+03  0.7818608E-02  0.1235068E+00
          4   -1    0    0  501    0  0.00000000000E+00  0.00000000000E+00  0.45656178028E+02  0.45673838159E+02  0.12700000000E+01 0.  1.
         -4   -1    0    0    0  501 -0.00000000000E+00 -0.00000000000E+00 -0.85520413878E+02  0.85529843270E+02  0.12700000000E+01 0.  1.
         25    2    1    2    0    0  0.00000000000E+00  0.00000000000E+00 -0.39864235849E+02  0.13120368143E+03  0.12500099488E+03 0.  0.
    9000005    1    3    3    0    0  0.48511369637E+02 -0.10705263180E+02  0.19861626431E+02  0.53511118922E+02  0.10000000000E+01 0.  0.
    9000005    1    3    3    0    0 -0.48511369637E+02  0.10705263180E+02 -0.59725862281E+02  0.77692562507E+02  0.10000000000E+01 0.  0.
<mgrwt>
<rscale>  0 0.12500099E+03</rscale>
<asrwt>0</asrwt>
<pdfrwt beam="1">  1        4 0.70261112E-02 0.12500099E+03</pdfrwt>
<pdfrwt beam="2">  1       -4 0.13159071E-01 0.12500099E+03</pdfrwt>
<totfact> 0.10318493E+04</totfact>
</mgrwt>
</event>
<event>
 5    1  0.3184438E-002  0.1249957E+03  0.7818608E-02  0.1235076E+00
         -4   -1    0    0    0  501 -0.00000000000E+00  0.00000000000E+00  0.63031183413E+03  0.63031311357E+03  0.12700000000E+01 0.  1.
          4   -1    0    0  501    0  0.00000000000E+00 -0.00000000000E+00 -0.61305332179E+01  0.62606978473E+01  0.12700000000E+01 0.  1.
         25    2    1    2    0    0  0.00000000000E+00  0.00000000000E+00  0.62418130091E+03  0.63657381142E+03  0.12499568385E+03 0.  0.
    9000005    1    3    3    0    0 -0.32393943057E+02 -0.45162789169E+02  0.16661792405E+03  0.17564617186E+03  0.10000000000E+01 0.  0.
    9000005    1    3    3    0    0  0.32393943057E+02  0.45162789169E+02  0.45756337686E+03  0.46092763956E+03  0.10000000000E+01 0.  0.
<mgrwt>
<rscale>  0 0.12499568E+03</rscale>
<asrwt>0</asrwt>
<pdfrwt beam="2">  1        4 0.95327025E-03 0.12499568E+03</pdfrwt>
<pdfrwt beam="1">  1       -4 0.96981141E-01 0.12499568E+03</pdfrwt>
<totfact> 0.46641867E+03</totfact>
</mgrwt>
</event>
<event>
 5    1  0.3184438E-002  0.1250002E+03  0.7818608E-02  0.1235069E+00
         -4   -1    0    0    0  501 -0.00000000000E+00  0.00000000000E+00  0.69778010310E+02  0.69789566719E+02  0.12700000000E+01 0. -1.
          4   -1    0    0  501    0  0.00000000000E+00 -0.00000000000E+00 -0.55957917211E+02  0.55972327079E+02  0.12700000000E+01 0. -1.
         25    2    1    2    0    0  0.00000000000E+00  0.00000000000E+00  0.13820093099E+02  0.12576189380E+03  0.12500023583E+03 0.  0.
    9000005    1    3    3    0    0  0.14271457901E+02  0.71842186472E+01 -0.53873118969E+02  0.56201427523E+02  0.10000000000E+01 0.  0.
    9000005    1    3    3    0    0 -0.14271457901E+02 -0.71842186472E+01  0.67693212068E+02  0.69560466274E+02  0.10000000000E+01 0.  0.
<mgrwt>
<rscale>  0 0.12500024E+03</rscale>
<asrwt>0</asrwt>
<pdfrwt beam="2">  1        4 0.86109078E-02 0.12500024E+03</pdfrwt>
<pdfrwt beam="1">  1       -4 0.10737076E-01 0.12500024E+03</pdfrwt>
<totfact> 0.10436127E+04</totfact>
</mgrwt>
</event>
<event>
 5    1  0.3184438E-002  0.1250018E+03  0.7818608E-02  0.1235067E+00
         -4   -1    0    0    0  501 -0.00000000000E+00  0.00000000000E+00  0.22526937393E+02  0.22562708355E+02  0.12700000000E+01 0. -1.
          4   -1    0    0  501    0  0.00000000000E+00 -0.00000000000E+00 -0.17323274872E+03  0.17323740396E+03  0.12700000000E+01 0. -1.
         25    2    1    2    0    0  0.00000000000E+00  0.00000000000E+00 -0.15070581133E+03  0.19580011231E+03  0.12500176964E+03 0.  0.
    9000005    1    3    3    0    0 -0.26534495409E+01  0.46542096985E+02 -0.14054424485E+03  0.14807731881E+03  0.10000000000E+01 0.  0.
    9000005    1    3    3    0    0  0.26534495409E+01 -0.46542096985E+02 -0.10161566481E+02  0.47722793502E+02  0.10000000000E+01 0.  0.
<mgrwt>
<rscale>  0 0.12500177E+03</rscale>
<asrwt>0</asrwt>
<pdfrwt beam="2">  1        4 0.26654301E-01 0.12500177E+03</pdfrwt>
<pdfrwt beam="1">  1       -4 0.34687925E-02 0.12500177E+03</pdfrwt>
<totfact> 0.90844195E+03</totfact>
</mgrwt>
</event>
<event>
 5    1  0.3184438E-002  0.1249976E+03  0.7818608E-02  0.1235073E+00
          4   -1    0    0  501    0  0.00000000000E+00  0.00000000000E+00  0.41277938842E+02  0.41297471291E+02  0.12700000000E+01 0. -1.
         -4   -1    0    0    0  501 -0.00000000000E+00 -0.00000000000E+00 -0.94583125970E+02  0.94591651948E+02  0.12700000000E+01 0. -1.
         25    2    1    2    0    0  0.00000000000E+00  0.00000000000E+00 -0.53305187128E+02  0.13588912324E+03  0.12499764334E+03 0.  0.
    9000005    1    3    3    0    0 -0.59636136593E+02  0.76808006676E+01 -0.45154290324E+02  0.75202216865E+02  0.10000000000E+01 0.  0.
    9000005    1    3    3    0    0  0.59636136593E+02 -0.76808006676E+01 -0.81508968038E+01  0.60686906375E+02  0.10000000000E+01 0.  0.
<mgrwt>
<rscale>  0 0.12499764E+03</rscale>
<asrwt>0</asrwt>
<pdfrwt beam="1">  1        4 0.63526105E-02 0.12499764E+03</pdfrwt>
<pdfrwt beam="2">  1       -4 0.14553408E-01 0.12499764E+03</pdfrwt>
<totfact> 0.10219907E+04</totfact>
</mgrwt>
</event>
<event>
 5    1  0.3184438E-002  0.1250062E+03  0.7818608E-02  0.1235060E+00
          4   -1    0    0  501    0  0.00000000000E+00  0.00000000000E+00  0.55389000466E+02  0.55403558303E+02  0.12700000000E+01 0.  1.
         -4   -1    0    0    0  501 -0.00000000000E+00 -0.00000000000E+00 -0.70501381940E+02  0.70512819795E+02  0.12700000000E+01 0.  1.
         25    2    1    2    0    0  0.00000000000E+00  0.00000000000E+00 -0.15112381474E+02  0.12591637810E+03  0.12500620064E+03 0.  0.
    9000005    1    3    3    0    0  0.17262773413E+02 -0.20354179674E+02 -0.64477299987E+02  0.69789814370E+02  0.10000000000E+01 0.  0.
    9000005    1    3    3    0    0 -0.17262773413E+02  0.20354179674E+02  0.49364918513E+02  0.56126563728E+02  0.10000000000E+01 0.  0.
<mgrwt>
<rscale>  0 0.12500620E+03</rscale>
<asrwt>0</asrwt>
<pdfrwt beam="1">  1        4 0.85233843E-02 0.12500620E+03</pdfrwt>
<pdfrwt beam="2">  1       -4 0.10848366E-01 0.12500620E+03</pdfrwt>
<totfact> 0.10431331E+04</totfact>
</mgrwt>
</event>
<event>
 5    1  0.3184438E-002  0.1250010E+03  0.7818608E-02  0.1235068E+00
          4   -1    0    0  501    0  0.00000000000E+00  0.00000000000E+00  0.68935832408E+03  0.68935949394E+03  0.12700000000E+01 0. -1.
         -4   -1    0    0    0  501 -0.00000000000E+00 -0.00000000000E+00 -0.55942477080E+01  0.57365937122E+01  0.12700000000E+01 0. -1.
         25    2    1    2    0    0  0.00000000000E+00  0.00000000000E+00  0.68376407638E+03  0.69509608765E+03  0.12500103570E+03 0.  0.
    9000005    1    3    3    0    0  0.17186549273E+02 -0.42840775776E+02  0.10763068629E+03  0.11711564446E+03  0.10000000000E+01 0.  0.
    9000005    1    3    3    0    0 -0.17186549273E+02  0.42840775776E+02  0.57613339008E+03  0.57798044319E+03  0.10000000000E+01 0.  0.
<mgrwt>
<rscale>  0 0.12500104E+03</rscale>
<asrwt>0</asrwt>
<pdfrwt beam="1">  1        4 0.10606619E+00 0.12500104E+03</pdfrwt>
<pdfrwt beam="2">  1       -4 0.87169294E-03 0.12500104E+03</pdfrwt>
<totfact> 0.43345833E+03</totfact>
</mgrwt>
</event>
<event>
 5    1  0.3184438E-002  0.1250025E+03  0.7818608E-02  0.1235065E+00
          4   -1    0    0  501    0  0.00000000000E+00  0.00000000000E+00  0.59265028988E+02  0.59278634945E+02  0.12700000000E+01 0.  1.
         -4   -1    0    0    0  501 -0.00000000000E+00 -0.00000000000E+00 -0.65886848966E+02  0.65899087753E+02  0.12700000000E+01 0.  1.
         25    2    1    2    0    0  0.00000000000E+00  0.00000000000E+00 -0.66218199783E+01  0.12517772270E+03  0.12500245502E+03 0.  0.
    9000005    1    3    3    0    0  0.35856296020E+02  0.50982463715E+02 -0.78469265653E+01  0.62828813671E+02  0.10000000000E+01 0.  0.
    9000005    1    3    3    0    0 -0.35856296020E+02 -0.50982463715E+02  0.12251065870E+01  0.62348909027E+02  0.10000000000E+01 0.  0.
<mgrwt>
<rscale>  0 0.12500246E+03</rscale>
<asrwt>0</asrwt>
<pdfrwt beam="1">  1        4 0.91196848E-02 0.12500246E+03</pdfrwt>
<pdfrwt beam="2">  1       -4 0.10138426E-01 0.12500246E+03</pdfrwt>
<totfact> 0.10448424E+04</totfact>
</mgrwt>
</event>
<event>
 5    1  0.3184438E-002  0.1249933E+03  0.7818608E-02  0.1235080E+00
          4   -1    0    0  501    0  0.00000000000E+00  0.00000000000E+00  0.11542833845E+02  0.11612489534E+02  0.12700000000E+01 0. -1.
         -4   -1    0    0    0  501 -0.00000000000E+00 -0.00000000000E+00 -0.33728817710E+03  0.33729056807E+03  0.12700000000E+01 0. -1.
         25    2    1    2    0    0  0.00000000000E+00  0.00000000000E+00 -0.32574534325E+03  0.34890305761E+03  0.12499325964E+03 0.  0.
    9000005    1    3    3    0    0  0.29263761591E+02  0.17861427178E+01 -0.31691182846E+03  0.31826665717E+03  0.10000000000E+01 0.  0.
    9000005    1    3    3    0    0 -0.29263761591E+02 -0.17861427178E+01 -0.88335147973E+01  0.30636400440E+02  0.10000000000E+01 0.  0.
<mgrwt>
<rscale>  0 0.12499326E+03</rscale>
<asrwt>0</asrwt>
<pdfrwt beam="1">  1        4 0.17813629E-02 0.12499326E+03</pdfrwt>
<pdfrwt beam="2">  1       -4 0.51896023E-01 0.12499326E+03</pdfrwt>
<totfact> 0.69855825E+03</totfact>
</mgrwt>
</event>
<event>
 5    1  0.3184438E-002  0.1249999E+03  0.7818608E-02  0.1235069E+00
         -4   -1    0    0    0  501 -0.00000000000E+00  0.00000000000E+00  0.70635871026E+02  0.70647287108E+02  0.12700000000E+01 0. -1.
          4   -1    0    0  501    0  0.00000000000E+00 -0.00000000000E+00 -0.55277983357E+02  0.55292570424E+02  0.12700000000E+01 0. -1.
         25    2    1    2    0    0  0.00000000000E+00  0.00000000000E+00  0.15357887669E+02  0.12593985753E+03  0.12499993201E+03 0.  0.
    9000005    1    3    3    0    0 -0.13090322672E+02  0.56916291102E+02  0.30081812680E+02  0.65701873600E+02  0.10000000000E+01 0.  0.
    9000005    1    3    3    0    0  0.13090322672E+02 -0.56916291102E+02 -0.14723925011E+02  0.60237983932E+02  0.10000000000E+01 0.  0.
<mgrwt>
<rscale>  0 0.12499993E+03</rscale>
<asrwt>0</asrwt>
<pdfrwt beam="2">  1        4 0.85063054E-02 0.12499993E+03</pdfrwt>
<pdfrwt beam="1">  1       -4 0.10869057E-01 0.12499993E+03</pdfrwt>
<totfact> 0.10432291E+04</totfact>
</mgrwt>
</event>
<event>
 5    1  0.3184438E-002  0.1250002E+03  0.7818608E-02  0.1235069E+00
         -4   -1    0    0    0  501 -0.00000000000E+00  0.00000000000E+00  0.92653154527E+01  0.93519500875E+01  0.12700000000E+01 0.  1.
          4   -1    0    0  501    0  0.00000000000E+00 -0.00000000000E+00 -0.41955092034E+03  0.41955284251E+03  0.12700000000E+01 0.  1.
         25    2    1    2    0    0  0.00000000000E+00  0.00000000000E+00 -0.41028560489E+03  0.42890479260E+03  0.12500017414E+03 0.  0.
    9000005    1    3    3    0    0 -0.24358740883E+02 -0.26954392629E+02 -0.30676356365E+02  0.47559713826E+02  0.10000000000E+01 0.  0.
    9000005    1    3    3    0    0  0.24358740883E+02  0.26954392629E+02 -0.37960924853E+03  0.38134507877E+03  0.10000000000E+01 0.  0.
<mgrwt>
<rscale>  0 0.12500017E+03</rscale>
<asrwt>0</asrwt>
<pdfrwt beam="2">  1        4 0.64553093E-01 0.12500017E+03</pdfrwt>
<pdfrwt beam="1">  1       -4 0.14322455E-02 0.12500017E+03</pdfrwt>
<totfact> 0.61835160E+03</totfact>
</mgrwt>
</event>
<event>
 5    1  0.3184438E-002  0.1249997E+03  0.7818608E-02  0.1235070E+00
         -4   -1    0    0    0  501 -0.00000000000E+00  0.00000000000E+00  0.34423998510E+02  0.34447417514E+02  0.12700000000E+01 0.  1.
          4   -1    0    0  501    0  0.00000000000E+00 -0.00000000000E+00 -0.11340851354E+03  0.11341562434E+03  0.12700000000E+01 0.  1.
         25    2    1    2    0    0  0.00000000000E+00  0.00000000000E+00 -0.78984515031E+02  0.14786304185E+03  0.12499970212E+03 0.  0.
    9000005    1    3    3    0    0  0.32544667495E+02 -0.51809288841E+02 -0.54542332287E+02  0.81970871679E+02  0.10000000000E+01 0.  0.
    9000005    1    3    3    0    0 -0.32544667495E+02  0.51809288841E+02 -0.24442182744E+02  0.65892170171E+02  0.10000000000E+01 0.  0.
<mgrwt>
<rscale>  0 0.12499970E+03</rscale>
<asrwt>0</asrwt>
<pdfrwt beam="2">  1        4 0.17449812E-01 0.12499970E+03</pdfrwt>
<pdfrwt beam="1">  1       -4 0.52983483E-02 0.12499970E+03</pdfrwt>
<totfact> 0.99732055E+03</totfact>
</mgrwt>
</event>
<event>
 5    1  0.3184438E-002  0.1249992E+03  0.7818608E-02  0.1235071E+00
          4   -1    0    0  501    0  0.00000000000E+00  0.00000000000E+00  0.14535778251E+03  0.14536333043E+03  0.12700000000E+01 0. -1.
         -4   -1    0    0    0  501 -0.00000000000E+00 -0.00000000000E+00 -0.26851927722E+02  0.26881944171E+02  0.12700000000E+01 0. -1.
         25    2    1    2    0    0  0.00000000000E+00  0.00000000000E+00  0.11850585478E+03  0.17224527461E+03  0.12499918802E+03 0.  0.
    9000005    1    3    3    0    0 -0.30290336463E+02  0.53065183926E+02  0.41192512737E+02  0.73696956068E+02  0.10000000000E+01 0.  0.
    9000005    1    3    3    0    0  0.30290336463E+02 -0.53065183926E+02  0.77313342047E+02  0.98548318537E+02  0.10000000000E+01 0.  0.
<mgrwt>
<rscale>  0 0.12499919E+03</rscale>
<asrwt>0</asrwt>
<pdfrwt beam="1">  1        4 0.22365472E-01 0.12499919E+03</pdfrwt>
<pdfrwt beam="2">  1       -4 0.41338015E-02 0.12499919E+03</pdfrwt>
<totfact> 0.95033528E+03</totfact>
</mgrwt>
</event>
<event>
 5    1  0.3184438E-002  0.1250047E+03  0.7818608E-02  0.1235062E+00
          4   -1    0    0  501    0  0.00000000000E+00  0.00000000000E+00  0.32538558926E+03  0.32538806770E+03  0.12700000000E+01 0.  1.
         -4   -1    0    0    0  501 -0.00000000000E+00 -0.00000000000E+00 -0.11969773253E+02  0.12036958575E+02  0.12700000000E+01 0.  1.
         25    2    1    2    0    0  0.00000000000E+00  0.00000000000E+00  0.31341581601E+03  0.33742502627E+03  0.12500469843E+03 0.  0.
    9000005    1    3    3    0    0  0.51954776492E+02 -0.25283913645E+02  0.92434630723E+02  0.10901254995E+03  0.10000000000E+01 0.  0.
    9000005    1    3    3    0    0 -0.51954776492E+02  0.25283913645E+02  0.22098118529E+03  0.22841247632E+03  0.10000000000E+01 0.  0.
<mgrwt>
<rscale>  0 0.12500470E+03</rscale>
<asrwt>0</asrwt>
<pdfrwt beam="1">  1        4 0.50064680E-01 0.12500470E+03</pdfrwt>
<pdfrwt beam="2">  1       -4 0.18468624E-02 0.12500470E+03</pdfrwt>
<totfact> 0.71123076E+03</totfact>
</mgrwt>
</event>
<event>
 5    1  0.3184438E-002  0.1250019E+03  0.7818608E-02  0.1235066E+00
         -4   -1    0    0    0  501 -0.00000000000E+00  0.00000000000E+00  0.31624761740E+03  0.31625016745E+03  0.12700000000E+01 0.  1.
          4   -1    0    0  501    0  0.00000000000E+00 -0.00000000000E+00 -0.12316999898E+02  0.12382301341E+02  0.12700000000E+01 0.  1.
         25    2    1    2    0    0  0.00000000000E+00  0.00000000000E+00  0.30393061750E+03  0.32863246879E+03  0.12500191714E+03 0.  0.
    9000005    1    3    3    0    0 -0.45886660239E+02  0.16106640297E+02  0.48783065790E+02  0.68889744937E+02  0.10000000000E+01 0.  0.
    9000005    1    3    3    0    0  0.45886660239E+02 -0.16106640297E+02  0.25514755171E+03  0.25974272385E+03  0.10000000000E+01 0.  0.
<mgrwt>
<rscale>  0 0.12500192E+03</rscale>
<asrwt>0</asrwt>
<pdfrwt beam="2">  1        4 0.19001426E-02 0.12500192E+03</pdfrwt>
<pdfrwt beam="1">  1       -4 0.48658694E-01 0.12500192E+03</pdfrwt>
<totfact> 0.72137973E+03</totfact>
</mgrwt>
</event>
<event>
 5    1  0.3184438E-002  0.1249998E+03  0.7818608E-02  0.1235070E+00
          4   -1    0    0  501    0  0.00000000000E+00  0.00000000000E+00  0.20592720577E+03  0.20593112192E+03  0.12700000000E+01 0. -1.
         -4   -1    0    0    0  501 -0.00000000000E+00 -0.00000000000E+00 -0.18943669620E+02  0.18986192843E+02  0.12700000000E+01 0. -1.
         25    2    1    2    0    0  0.00000000000E+00  0.00000000000E+00  0.18698353615E+03  0.22491731476E+03  0.12499982276E+03 0.  0.
    9000005    1    3    3    0    0 -0.49646849789E+02 -0.34581777234E+02  0.65354658081E+02  0.89067055321E+02  0.10000000000E+01 0.  0.
    9000005    1    3    3    0    0  0.49646849789E+02  0.34581777234E+02  0.12162887807E+03  0.13585025944E+03  0.10000000000E+01 0.  0.
<mgrwt>
<rscale>  0 0.12499982E+03</rscale>
<asrwt>0</asrwt>
<pdfrwt beam="1">  1        4 0.31684678E-01 0.12499982E+03</pdfrwt>
<pdfrwt beam="2">  1       -4 0.29179832E-02 0.12499982E+03</pdfrwt>
<totfact> 0.86096523E+03</totfact>
</mgrwt>
</event>
<event>
 5    1  0.3184438E-002  0.1249993E+03  0.7818608E-02  0.1235070E+00
         -4   -1    0    0    0  501 -0.00000000000E+00  0.00000000000E+00  0.16190961573E+03  0.16191459652E+03  0.12700000000E+01 0. -1.
          4   -1    0    0  501    0  0.00000000000E+00 -0.00000000000E+00 -0.24103783354E+02  0.24137217569E+02  0.12700000000E+01 0. -1.
         25    2    1    2    0    0  0.00000000000E+00  0.00000000000E+00  0.13780583238E+03  0.18605181409E+03  0.12499932035E+03 0.  0.
    9000005    1    3    3    0    0 -0.35152787600E+02  0.21693299493E+02 -0.89267495974E+00  0.41329342936E+02  0.10000000000E+01 0.  0.
    9000005    1    3    3    0    0  0.35152787600E+02 -0.21693299493E+02  0.13869850734E+03  0.14472247115E+03  0.10000000000E+01 0.  0.
<mgrwt>
<rscale>  0 0.12499932E+03</rscale>
<asrwt>0</asrwt>
<pdfrwt beam="2">  1        4 0.37112293E-02 0.12499932E+03</pdfrwt>
<pdfrwt beam="1">  1       -4 0.24912127E-01 0.12499932E+03</pdfrwt>
<totfact> 0.92540269E+03</totfact>
</mgrwt>
</event>
<event>
 5    1  0.3184438E-002  0.1249950E+03  0.7818608E-02  0.1235077E+00
          4   -1    0    0  501    0  0.00000000000E+00  0.00000000000E+00  0.24843715349E+02  0.24876155096E+02  0.12700000000E+01 0.  1.
         -4   -1    0    0    0  501 -0.00000000000E+00 -0.00000000000E+00 -0.15708279373E+03  0.15708792756E+03  0.12700000000E+01 0.  1.
         25    2    1    2    0    0  0.00000000000E+00  0.00000000000E+00 -0.13223907838E+03  0.18196408266E+03  0.12499501401E+03 0.  0.
    9000005    1    3    3    0    0 -0.35940792414E+02  0.47566758422E+02 -0.93377901108E+02  0.11079155871E+03  0.10000000000E+01 0.  0.
    9000005    1    3    3    0    0  0.35940792414E+02 -0.47566758422E+02 -0.38861177271E+02  0.71172523947E+02  0.10000000000E+01 0.  0.
<mgrwt>
<rscale>  0 0.12499501E+03</rscale>
<asrwt>0</asrwt>
<pdfrwt beam="1">  1        4 0.38250004E-02 0.12499501E+03</pdfrwt>
<pdfrwt beam="2">  1       -4 0.24169473E-01 0.12499501E+03</pdfrwt>
<totfact> 0.93275078E+03</totfact>
</mgrwt>
</event>
<event>
 5    1  0.3184438E-002  0.1249999E+03  0.7818608E-02  0.1235069E+00
         -4   -1    0    0    0  501 -0.00000000000E+00  0.00000000000E+00  0.38527125532E+02  0.38548051854E+02  0.12700000000E+01 0. -1.
          4   -1    0    0  501    0  0.00000000000E+00 -0.00000000000E+00 -0.10133703842E+03  0.10134499620E+03  0.12700000000E+01 0. -1.
         25    2    1    2    0    0  0.00000000000E+00  0.00000000000E+00 -0.62809912886E+02  0.13989304806E+03  0.12499991895E+03 0.  0.
    9000005    1    3    3    0    0  0.46058682251E+01  0.50825294040E+02 -0.71769037600E+02  0.88069400443E+02  0.10000000000E+01 0.  0.
    9000005    1    3    3    0    0 -0.46058682251E+01 -0.50825294040E+02  0.89591247137E+01  0.51823647614E+02  0.10000000000E+01 0.  0.
<mgrwt>
<rscale>  0 0.12499992E+03</rscale>
<asrwt>0</asrwt>
<pdfrwt beam="2">  1        4 0.15592535E-01 0.12499992E+03</pdfrwt>
<pdfrwt beam="1">  1       -4 0.59294720E-02 0.12499992E+03</pdfrwt>
<totfact> 0.10135821E+04</totfact>
</mgrwt>
</event>
<event>
 5    1  0.3184438E-002  0.1250014E+03  0.7818608E-02  0.1235067E+00
         -4   -1    0    0    0  501 -0.00000000000E+00  0.00000000000E+00  0.59257365289E+03  0.59257501381E+03  0.12700000000E+01 0. -1.
          4   -1    0    0  501    0  0.00000000000E+00 -0.00000000000E+00 -0.65296035588E+01  0.66519638179E+01  0.12700000000E+01 0. -1.
         25    2    1    2    0    0  0.00000000000E+00  0.00000000000E+00  0.58604404933E+03  0.59922697763E+03  0.12500137186E+03 0.  0.
    9000005    1    3    3    0    0 -0.22337992757E+02  0.57227999344E+02  0.34795317823E+03  0.35333616298E+03  0.10000000000E+01 0.  0.
    9000005    1    3    3    0    0  0.22337992757E+02 -0.57227999344E+02  0.23809087110E+03  0.24589081465E+03  0.10000000000E+01 0.  0.
<mgrwt>
<rscale>  0 0.12500137E+03</rscale>
<asrwt>0</asrwt>
<pdfrwt beam="2">  1        4 0.10140712E-02 0.12500137E+03</pdfrwt>
<pdfrwt beam="1">  1       -4 0.91174714E-01 0.12500137E+03</pdfrwt>
<totfact> 0.48914962E+03</totfact>
</mgrwt>
</event>
<event>
 5    1  0.3184438E-002  0.1250039E+03  0.7818608E-02  0.1235063E+00
          4   -1    0    0  501    0  0.00000000000E+00  0.00000000000E+00  0.49781708170E+02  0.49797905261E+02  0.12700000000E+01 0.  1.
         -4   -1    0    0    0  501 -0.00000000000E+00 -0.00000000000E+00 -0.78438333625E+02  0.78448614276E+02  0.12700000000E+01 0.  1.
         25    2    1    2    0    0  0.00000000000E+00  0.00000000000E+00 -0.28656625455E+02  0.12824651954E+03  0.12500387030E+03 0.  0.
    9000005    1    3    3    0    0 -0.44544133545E+02  0.30077204358E+02 -0.47040753779E+02  0.71432839587E+02  0.10000000000E+01 0.  0.
    9000005    1    3    3    0    0  0.44544133545E+02 -0.30077204358E+02  0.18384128325E+02  0.56813679950E+02  0.10000000000E+01 0.  0.
<mgrwt>
<rscale>  0 0.12500387E+03</rscale>
<asrwt>0</asrwt>
<pdfrwt beam="1">  1        4 0.76607611E-02 0.12500387E+03</pdfrwt>
<pdfrwt beam="2">  1       -4 0.12069473E-01 0.12500387E+03</pdfrwt>
<totfact> 0.10381260E+04</totfact>
</mgrwt>
</event>
<event>
 5    1  0.3184438E-002  0.1249965E+03  0.7818608E-02  0.1235075E+00
         -4   -1    0    0    0  501 -0.00000000000E+00  0.00000000000E+00  0.25131463528E+02  0.25163532324E+02  0.12700000000E+01 0.  1.
          4   -1    0    0  501    0  0.00000000000E+00 -0.00000000000E+00 -0.15529027223E+03  0.15529546532E+03  0.12700000000E+01 0.  1.
         25    2    1    2    0    0  0.00000000000E+00  0.00000000000E+00 -0.13015880871E+03  0.18045899765E+03  0.12499653735E+03 0.  0.
    9000005    1    3    3    0    0 -0.47737812516E+02  0.18332972744E+02 -0.13225479502E+02  0.52829063416E+02  0.10000000000E+01 0.  0.
    9000005    1    3    3    0    0  0.47737812516E+02 -0.18332972744E+02 -0.11693332920E+03  0.12762993423E+03  0.10000000000E+01 0.  0.
<mgrwt>
<rscale>  0 0.12499654E+03</rscale>
<asrwt>0</asrwt>
<pdfrwt beam="2">  1        4 0.23893677E-01 0.12499654E+03</pdfrwt>
<pdfrwt beam="1">  1       -4 0.38692454E-02 0.12499654E+03</pdfrwt>
<totfact> 0.93541710E+03</totfact>
</mgrwt>
</event>
<event>
 5    1  0.3184438E-002  0.1249995E+03  0.7818608E-02  0.1235070E+00
          4   -1    0    0  501    0  0.00000000000E+00  0.00000000000E+00  0.10098999711E+02  0.10178540915E+02  0.12700000000E+01 0. -1.
         -4   -1    0    0    0  501 -0.00000000000E+00 -0.00000000000E+00 -0.38519451847E+03  0.38519661208E+03  0.12700000000E+01 0. -1.
         25    2    1    2    0    0  0.00000000000E+00  0.00000000000E+00 -0.37509551876E+03  0.39537515299E+03  0.12499945366E+03 0.  0.
    9000005    1    3    3    0    0 -0.43559447133E+02 -0.38539643444E+01 -0.32875211212E+03  0.33164925705E+03  0.10000000000E+01 0.  0.
    9000005    1    3    3    0    0  0.43559447133E+02  0.38539643444E+01 -0.46343406635E+02  0.63725895947E+02  0.10000000000E+01 0.  0.
<mgrwt>
<rscale>  0 0.12499945E+03</rscale>
<asrwt>0</asrwt>
<pdfrwt beam="1">  1        4 0.15599722E-02 0.12499945E+03</pdfrwt>
<pdfrwt beam="2">  1       -4 0.59266964E-01 0.12499945E+03</pdfrwt>
<totfact> 0.65005885E+03</totfact>
</mgrwt>
</event>
<event>
 5    1  0.3184438E-002  0.1250070E+03  0.7818608E-02  0.1235058E+00
         -4   -1    0    0    0  501 -0.00000000000E+00  0.00000000000E+00  0.87087890049E+03  0.87087982651E+03  0.12700000000E+01 0.  1.
          4   -1    0    0  501    0  0.00000000000E+00 -0.00000000000E+00 -0.43950820638E+01  0.45748930422E+01  0.12700000000E+01 0.  1.
         25    2    1    2    0    0  0.00000000000E+00  0.00000000000E+00  0.86648381842E+03  0.87545471955E+03  0.12500703336E+03 0.  0.
    9000005    1    3    3    0    0  0.28189861750E+02  0.31281129553E+02  0.75664562422E+03  0.75781711384E+03  0.10000000000E+01 0.  0.
    9000005    1    3    3    0    0 -0.28189861750E+02 -0.31281129553E+02  0.10983819420E+03  0.11763760571E+03  0.10000000000E+01 0.  0.
<mgrwt>
<rscale>  0 0.12500703E+03</rscale>
<asrwt>0</asrwt>
<pdfrwt beam="2">  1        4 0.69006936E-03 0.12500703E+03</pdfrwt>
<pdfrwt beam="1">  1       -4 0.13399526E+00 0.12500703E+03</pdfrwt>
<totfact> 0.35102340E+03</totfact>
</mgrwt>
</event>
<event>
 5    1  0.3184438E-002  0.1250005E+03  0.7818608E-02  0.1235068E+00
         -4   -1    0    0    0  501 -0.00000000000E+00  0.00000000000E+00  0.18083599043E+03  0.18084044994E+03  0.12700000000E+01 0. -1.
          4   -1    0    0  501    0  0.00000000000E+00 -0.00000000000E+00 -0.21577853312E+02  0.21615194969E+02  0.12700000000E+01 0. -1.
         25    2    1    2    0    0  0.00000000000E+00  0.00000000000E+00  0.15925813712E+03  0.20245564491E+03  0.12500053567E+03 0.  0.
    9000005    1    3    3    0    0 -0.16059386083E+02  0.27573330610E+02 -0.73967777664E+01  0.32770486167E+02  0.10000000000E+01 0.  0.
    9000005    1    3    3    0    0  0.16059386083E+02 -0.27573330610E+02  0.16665491488E+03  0.16968515874E+03  0.10000000000E+01 0.  0.
<mgrwt>
<rscale>  0 0.12500054E+03</rscale>
<asrwt>0</asrwt>
<pdfrwt beam="2">  1        4 0.33228852E-02 0.12500054E+03</pdfrwt>
<pdfrwt beam="1">  1       -4 0.27824137E-01 0.12500054E+03</pdfrwt>
<totfact> 0.89721913E+03</totfact>
</mgrwt>
</event>
<event>
 5    1  0.3184438E-002  0.1250004E+03  0.7818608E-02  0.1235069E+00
         -4   -1    0    0    0  501 -0.00000000000E+00  0.00000000000E+00  0.12261786309E+02  0.12327380236E+02  0.12700000000E+01 0. -1.
          4   -1    0    0  501    0  0.00000000000E+00 -0.00000000000E+00 -0.31765615235E+03  0.31765869109E+03  0.12700000000E+01 0. -1.
         25    2    1    2    0    0  0.00000000000E+00  0.00000000000E+00 -0.30539436604E+03  0.32998607133E+03  0.12500035384E+03 0.  0.
    9000005    1    3    3    0    0  0.98515050120E+01 -0.39596897200E+02 -0.27746680260E+02  0.49354277265E+02  0.10000000000E+01 0.  0.
    9000005    1    3    3    0    0 -0.98515050120E+01  0.39596897200E+02 -0.27764768578E+03  0.28063179406E+03  0.10000000000E+01 0.  0.
<mgrwt>
<rscale>  0 0.12500035E+03</rscale>
<asrwt>0</asrwt>
<pdfrwt beam="2">  1        4 0.48875412E-01 0.12500035E+03</pdfrwt>
<pdfrwt beam="1">  1       -4 0.18916699E-02 0.12500035E+03</pdfrwt>
<totfact> 0.71983386E+03</totfact>
</mgrwt>
</event>
<event>
 5    1  0.3184438E-002  0.1249983E+03  0.7818608E-02  0.1235072E+00
          4   -1    0    0  501    0  0.00000000000E+00  0.00000000000E+00  0.18104874023E+03  0.18105319450E+03  0.12700000000E+01 0. -1.
         -4   -1    0    0    0  501 -0.00000000000E+00 -0.00000000000E+00 -0.21551683789E+02  0.21589070710E+02  0.12700000000E+01 0. -1.
         25    2    1    2    0    0  0.00000000000E+00  0.00000000000E+00  0.15949705644E+03  0.20264226521E+03  0.12499830653E+03 0.  0.
    9000005    1    3    3    0    0  0.33838898934E+02  0.21743144308E+02  0.15728183345E+03  0.16234657539E+03  0.10000000000E+01 0.  0.
    9000005    1    3    3    0    0 -0.33838898934E+02 -0.21743144308E+02  0.22152229877E+01  0.40295689823E+02  0.10000000000E+01 0.  0.
<mgrwt>
<rscale>  0 0.12499831E+03</rscale>
<asrwt>0</asrwt>
<pdfrwt beam="1">  1        4 0.27856870E-01 0.12499831E+03</pdfrwt>
<pdfrwt beam="2">  1       -4 0.33188623E-02 0.12499831E+03</pdfrwt>
<totfact> 0.89695171E+03</totfact>
</mgrwt>
</event>
<event>
 5    1  0.3184438E-002  0.1249989E+03  0.7818608E-02  0.1235071E+00
          4   -1    0    0  501    0  0.00000000000E+00  0.00000000000E+00  0.91357046199E+01  0.92235567381E+01  0.12700000000E+01 0. -1.
         -4   -1    0    0    0  501 -0.00000000000E+00 -0.00000000000E+00 -0.42543851037E+03  0.42544040594E+03  0.12700000000E+01 0. -1.
         25    2    1    2    0    0  0.00000000000E+00  0.00000000000E+00 -0.41630280575E+03  0.43466396267E+03  0.12499893750E+03 0.  0.
    9000005    1    3    3    0    0  0.52702875812E+02 -0.19680404752E+02 -0.11354010130E+03  0.12671726817E+03  0.10000000000E+01 0.  0.
    9000005    1    3    3    0    0 -0.52702875812E+02  0.19680404752E+02 -0.30276270445E+03  0.30794669450E+03  0.10000000000E+01 0.  0.
<mgrwt>
<rscale>  0 0.12499894E+03</rscale>
<asrwt>0</asrwt>
<pdfrwt beam="1">  1        4 0.14123970E-02 0.12499894E+03</pdfrwt>
<pdfrwt beam="2">  1       -4 0.65458967E-01 0.12499894E+03</pdfrwt>
<totfact> 0.61316938E+03</totfact>
</mgrwt>
</event>
<event>
 5    1  0.3184438E-002  0.1249948E+03  0.7818608E-02  0.1235077E+00
          4   -1    0    0  501    0  0.00000000000E+00  0.00000000000E+00  0.14994631005E+02  0.15048317480E+02  0.12700000000E+01 0.  1.
         -4   -1    0    0    0  501 -0.00000000000E+00 -0.00000000000E+00 -0.25996753713E+03  0.25997063923E+03  0.12700000000E+01 0.  1.
         25    2    1    2    0    0  0.00000000000E+00  0.00000000000E+00 -0.24497290612E+03  0.27501895671E+03  0.12499480715E+03 0.  0.
    9000005    1    3    3    0    0 -0.31953779432E+02 -0.48079401397E+02 -0.17512023110E+03  0.18439297221E+03  0.10000000000E+01 0.  0.
    9000005    1    3    3    0    0  0.31953779432E+02  0.48079401397E+02 -0.69852675020E+02  0.90625984497E+02  0.10000000000E+01 0.  0.
<mgrwt>
<rscale>  0 0.12499481E+03</rscale>
<asrwt>0</asrwt>
<pdfrwt beam="1">  1        4 0.23112349E-02 0.12499481E+03</pdfrwt>
<pdfrwt beam="2">  1       -4 0.39999371E-01 0.12499481E+03</pdfrwt>
<totfact> 0.78852331E+03</totfact>
</mgrwt>
</event>
<event>
 5    1  0.3184438E-002  0.1249980E+03  0.7818608E-02  0.1235072E+00
          4   -1    0    0  501    0  0.00000000000E+00  0.00000000000E+00  0.10563169570E+02  0.10639241108E+02  0.12700000000E+01 0. -1.
         -4   -1    0    0    0  501 -0.00000000000E+00 -0.00000000000E+00 -0.36838301990E+03  0.36838520906E+03  0.12700000000E+01 0. -1.
         25    2    1    2    0    0  0.00000000000E+00  0.00000000000E+00 -0.35781985033E+03  0.37902445017E+03  0.12499795411E+03 0.  0.
    9000005    1    3    3    0    0 -0.26125051960E+02  0.50207646232E+02 -0.25923844827E+03  0.26534675265E+03  0.10000000000E+01 0.  0.
    9000005    1    3    3    0    0  0.26125051960E+02 -0.50207646232E+02 -0.98581402065E+02  0.11367769752E+03  0.10000000000E+01 0.  0.
<mgrwt>
<rscale>  0 0.12499795E+03</rscale>
<asrwt>0</asrwt>
<pdfrwt beam="1">  1        4 0.16311233E-02 0.12499795E+03</pdfrwt>
<pdfrwt beam="2">  1       -4 0.56680321E-01 0.12499795E+03</pdfrwt>
<totfact> 0.66648278E+03</totfact>
</mgrwt>
</event>
<event>
 5    1  0.3184438E-002  0.1250011E+03  0.7818608E-02  0.1235067E+00
          4   -1    0    0  501    0  0.00000000000E+00  0.00000000000E+00  0.13007406857E+02  0.13069259089E+02  0.12700000000E+01 0.  1.
         -4   -1    0    0    0  501 -0.00000000000E+00 -0.00000000000E+00 -0.29953962304E+03  0.29954231532E+03  0.12700000000E+01 0.  1.
         25    2    1    2    0    0  0.00000000000E+00  0.00000000000E+00 -0.28653221618E+03  0.31261157441E+03  0.12500114219E+03 0.  0.
    9000005    1    3    3    0    0 -0.99234748407E+01  0.14687519567E+02 -0.29313317257E+03  0.29367031761E+03  0.10000000000E+01 0.  0.
    9000005    1    3    3    0    0  0.99234748407E+01 -0.14687519567E+02  0.66009563917E+01  0.18941256801E+02  0.10000000000E+01 0.  0.
<mgrwt>
<rscale>  0 0.12500114E+03</rscale>
<asrwt>0</asrwt>
<pdfrwt beam="1">  1        4 0.20061047E-02 0.12500114E+03</pdfrwt>
<pdfrwt beam="2">  1       -4 0.46087979E-01 0.12500114E+03</pdfrwt>
<totfact> 0.74041711E+03</totfact>
</mgrwt>
</event>
<event>
 4    1  0.3184438E-002  0.1172773E+03  0.7818608E-02  0.1247657E+00
          4   -1    0    0  501    0  0.00000000000E+00  0.00000000000E+00  0.36086139248E+03  0.36086362727E+03  0.12700000000E+01 0.  1.
         -4   -1    0    0    0  501 -0.00000000000E+00 -0.00000000000E+00 -0.94839677840E+01  0.95686229379E+01  0.12700000000E+01 0.  1.
    9000005    1    1    2    0    0 -0.42573400625E+02 -0.39962093652E+02  0.19241021746E+03  0.20107748545E+03  0.10000000000E+01 0.  0.
    9000005    1    1    2    0    0  0.42573400625E+02  0.39962093652E+02  0.15896720724E+03  0.16935476476E+03  0.10000000000E+01 0.  0.
<mgrwt>
<rscale>  0 0.11727727E+03</rscale>
<asrwt>0</asrwt>
<pdfrwt beam="1">  1        4 0.55523822E-01 0.11727727E+03</pdfrwt>
<pdfrwt beam="2">  1       -4 0.14657558E-02 0.11727727E+03</pdfrwt>
<totfact> 0.80496483E+03</totfact>
</mgrwt>
</event>
<event>
 5    1  0.3184438E-002  0.1249542E+03  0.7818608E-02  0.1235141E+00
         -4   -1    0    0    0  501 -0.00000000000E+00  0.00000000000E+00  0.13563145356E+03  0.13563739932E+03  0.12700000000E+01 0.  1.
          4   -1    0    0  501    0  0.00000000000E+00 -0.00000000000E+00 -0.28758777381E+02  0.28786805596E+02  0.12700000000E+01 0.  1.
         25    2    1    2    0    0  0.00000000000E+00  0.00000000000E+00  0.10687267618E+03  0.16442420492E+03  0.12495419260E+03 0.  0.
    9000005    1    3    3    0    0 -0.58209389848E+02  0.13712372418E+02  0.29676657657E+02  0.66768751924E+02  0.10000000000E+01 0.  0.
    9000005    1    3    3    0    0  0.58209389848E+02 -0.13712372418E+02  0.77196018523E+02  0.97655452995E+02  0.10000000000E+01 0.  0.
<mgrwt>
<rscale>  0 0.12495419E+03</rscale>
<asrwt>0</asrwt>
<pdfrwt beam="2">  1        4 0.44270406E-02 0.12495419E+03</pdfrwt>
<pdfrwt beam="1">  1       -4 0.20868991E-01 0.12495419E+03</pdfrwt>
<totfact> 0.96595923E+03</totfact>
</mgrwt>
</event>
<event>
 5    1  0.3184438E-002  0.1249998E+03  0.7818608E-02  0.1235070E+00
          4   -1    0    0  501    0  0.00000000000E+00  0.00000000000E+00  0.53622657670E+02  0.53637694913E+02  0.12700000000E+01 0.  1.
         -4   -1    0    0    0  501 -0.00000000000E+00 -0.00000000000E+00 -0.72816024269E+02  0.72827098599E+02  0.12700000000E+01 0.  1.
         25    2    1    2    0    0  0.00000000000E+00  0.00000000000E+00 -0.19193366600E+02  0.12646479351E+03  0.12499983471E+03 0.  0.
    9000005    1    3    3    0    0  0.46450605481E+02 -0.18721223134E+02 -0.47412495949E+02  0.68971644299E+02  0.10000000000E+01 0.  0.
    9000005    1    3    3    0    0 -0.46450605481E+02  0.18721223134E+02  0.28219129349E+02  0.57493149213E+02  0.10000000000E+01 0.  0.
<mgrwt>
<rscale>  0 0.12499983E+03</rscale>
<asrwt>0</asrwt>
<pdfrwt beam="1">  1        4 0.82516482E-02 0.12499983E+03</pdfrwt>
<pdfrwt beam="2">  1       -4 0.11204474E-01 0.12499983E+03</pdfrwt>
<totfact> 0.10420835E+04</totfact>
</mgrwt>
</event>
<event>
 5    1  0.3184438E-002  0.1250001E+03  0.7818608E-02  0.1235069E+00
          4   -1    0    0  501    0  0.00000000000E+00  0.00000000000E+00  0.19318478272E+03  0.19318895718E+03  0.12700000000E+01 0. -1.
         -4   -1    0    0    0  501 -0.00000000000E+00 -0.00000000000E+00 -0.20195982222E+02  0.20235874034E+02  0.12700000000E+01 0. -1.
         25    2    1    2    0    0  0.00000000000E+00  0.00000000000E+00  0.17298880050E+03  0.21342483121E+03  0.12500013392E+03 0.  0.
    9000005    1    3    3    0    0 -0.20487675157E+02 -0.39963368038E+02  0.16069140611E+03  0.16685186129E+03  0.10000000000E+01 0.  0.
    9000005    1    3    3    0    0  0.20487675157E+02  0.39963368038E+02  0.12297394388E+02  0.46572969919E+02  0.10000000000E+01 0.  0.
<mgrwt>
<rscale>  0 0.12500013E+03</rscale>
<asrwt>0</asrwt>
<pdfrwt beam="1">  1        4 0.29724125E-01 0.12500013E+03</pdfrwt>
<pdfrwt beam="2">  1       -4 0.31104640E-02 0.12500013E+03</pdfrwt>
<totfact> 0.87919335E+03</totfact>
</mgrwt>
</event>
<event>
 5    1  0.3184438E-002  0.1249989E+03  0.7818608E-02  0.1235071E+00
         -4   -1    0    0    0  501 -0.00000000000E+00  0.00000000000E+00  0.22424133350E+03  0.22424492982E+03  0.12700000000E+01 0. -1.
          4   -1    0    0  501    0  0.00000000000E+00 -0.00000000000E+00 -0.17392650882E+02  0.17438956526E+02  0.12700000000E+01 0. -1.
         25    2    1    2    0    0  0.00000000000E+00  0.00000000000E+00  0.20684868262E+03  0.24168388634E+03  0.12499889367E+03 0.  0.
    9000005    1    3    3    0    0 -0.13369155411E+02  0.31645879837E+02  0.24935749209E+01  0.34458873211E+02  0.10000000000E+01 0.  0.
    9000005    1    3    3    0    0  0.13369155411E+02 -0.31645879837E+02  0.20435510770E+03  0.20722501313E+03  0.10000000000E+01 0.  0.
<mgrwt>
<rscale>  0 0.12499889E+03</rscale>
<asrwt>0</asrwt>
<pdfrwt beam="2">  1        4 0.26796312E-02 0.12499889E+03</pdfrwt>
<pdfrwt beam="1">  1       -4 0.34502503E-01 0.12499889E+03</pdfrwt>
<totfact> 0.83549281E+03</totfact>
</mgrwt>
</event>
<event>
 5    1  0.3184438E-002  0.1250289E+03  0.7818608E-02  0.1235024E+00
         -4   -1    0    0    0  501 -0.00000000000E+00  0.00000000000E+00  0.23533793140E+03  0.23534135815E+03  0.12700000000E+01 0.  1.
          4   -1    0    0  501    0  0.00000000000E+00 -0.00000000000E+00 -0.16578309672E+02  0.16626883399E+02  0.12700000000E+01 0.  1.
         25    2    1    2    0    0  0.00000000000E+00  0.00000000000E+00  0.21875962173E+03  0.25196824155E+03  0.12502888726E+03 0.  0.
    9000005    1    3    3    0    0  0.55534005379E+02  0.72486293309E+01  0.53440362894E+02  0.77417315679E+02  0.10000000000E+01 0.  0.
    9000005    1    3    3    0    0 -0.55534005379E+02 -0.72486293309E+01  0.16531925884E+03  0.17455092587E+03  0.10000000000E+01 0.  0.
<mgrwt>
<rscale>  0 0.12502889E+03</rscale>
<asrwt>0</asrwt>
<pdfrwt beam="2">  1        4 0.25545092E-02 0.12502889E+03</pdfrwt>
<pdfrwt beam="1">  1       -4 0.36209836E-01 0.12502889E+03</pdfrwt>
<totfact> 0.81993817E+03</totfact>
</mgrwt>
</event>
<event>
 5    1  0.3184438E-002  0.1250017E+03  0.7818608E-02  0.1235067E+00
          4   -1    0    0  501    0  0.00000000000E+00  0.00000000000E+00  0.41303743419E+03  0.41303938667E+03  0.12700000000E+01 0.  1.
         -4   -1    0    0    0  501 -0.00000000000E+00 -0.00000000000E+00 -0.94130087574E+01  0.94982963665E+01  0.12700000000E+01 0.  1.
         25    2    1    2    0    0  0.00000000000E+00  0.00000000000E+00  0.40362442543E+03  0.42253768304E+03  0.12500166711E+03 0.  0.
    9000005    1    3    3    0    0  0.56003243992E+02  0.26856494264E+02  0.17846161947E+03  0.18896344685E+03  0.10000000000E+01 0.  0.
    9000005    1    3    3    0    0 -0.56003243992E+02 -0.26856494264E+02  0.22516280596E+03  0.23357423618E+03  0.10000000000E+01 0.  0.
<mgrwt>
<rscale>  0 0.12500167E+03</rscale>
<asrwt>0</asrwt>
<pdfrwt beam="1">  1        4 0.63550922E-01 0.12500167E+03</pdfrwt>
<pdfrwt beam="2">  1       -4 0.14548662E-02 0.12500167E+03</pdfrwt>
<totfact> 0.62415987E+03</totfact>
</mgrwt>
</event>
<event>
 5    1  0.3184438E-002  0.1249980E+03  0.7818608E-02  0.1235072E+00
          4   -1    0    0  501    0  0.00000000000E+00  0.00000000000E+00  0.81486009126E+01  0.82469750110E+01  0.12700000000E+01 0. -1.
         -4   -1    0    0    0  501 -0.00000000000E+00 -0.00000000000E+00 -0.47638601684E+03  0.47638770969E+03  0.12700000000E+01 0. -1.
         25    2    1    2    0    0  0.00000000000E+00  0.00000000000E+00 -0.46823741593E+03  0.48463468470E+03  0.12499799974E+03 0.  0.
    9000005    1    3    3    0    0  0.39399497244E+02 -0.48491084913E+02 -0.23873769017E+03  0.24678004459E+03  0.10000000000E+01 0.  0.
    9000005    1    3    3    0    0 -0.39399497244E+02  0.48491084913E+02 -0.22949972576E+03  0.23785464011E+03  0.10000000000E+01 0.  0.
<mgrwt>
<rscale>  0 0.12499800E+03</rscale>
<asrwt>0</asrwt>
<pdfrwt beam="1">  1        4 0.12613287E-02 0.12499800E+03</pdfrwt>
<pdfrwt beam="2">  1       -4 0.73297832E-01 0.12499800E+03</pdfrwt>
<totfact> 0.57079071E+03</totfact>
</mgrwt>
</event>
<event>
 5    1  0.3184438E-002  0.1249999E+03  0.7818608E-02  0.1235069E+00
          4   -1    0    0  501    0  0.00000000000E+00  0.00000000000E+00  0.32554473639E+03  0.32554721362E+03  0.12700000000E+01 0. -1.
         -4   -1    0    0    0  501 -0.00000000000E+00 -0.00000000000E+00 -0.11962962476E+02  0.12030185834E+02  0.12700000000E+01 0. -1.
         25    2    1    2    0    0  0.00000000000E+00  0.00000000000E+00  0.31358177392E+03  0.33757739945E+03  0.12499988675E+03 0.  0.
    9000005    1    3    3    0    0  0.30988105502E+02 -0.52782722572E+02  0.12274115230E+03  0.13715928315E+03  0.10000000000E+01 0.  0.
    9000005    1    3    3    0    0 -0.30988105502E+02  0.52782722572E+02  0.19084062162E+03  0.20041811630E+03  0.10000000000E+01 0.  0.
<mgrwt>
<rscale>  0 0.12499989E+03</rscale>
<asrwt>0</asrwt>
<pdfrwt beam="1">  1        4 0.50089169E-01 0.12499989E+03</pdfrwt>
<pdfrwt beam="2">  1       -4 0.18458173E-02 0.12499989E+03</pdfrwt>
<totfact> 0.71113343E+03</totfact>
</mgrwt>
</event>
<event>
 5    1  0.3184438E-002  0.1250003E+03  0.7818608E-02  0.1235069E+00
         -4   -1    0    0    0  501 -0.00000000000E+00  0.00000000000E+00  0.11736360288E+04  0.11736367159E+04  0.12700000000E+01 0. -1.
          4   -1    0    0  501    0  0.00000000000E+00 -0.00000000000E+00 -0.32064835988E+01  0.34488312614E+01  0.12700000000E+01 0. -1.
         25    2    1    2    0    0  0.00000000000E+00  0.00000000000E+00  0.11704295452E+04  0.11770855472E+04  0.12500026058E+03 0.  0.
    9000005    1    3    3    0    0  0.10501845448E+02 -0.54384133420E+02  0.31272578751E+03  0.31759461724E+03  0.10000000000E+01 0.  0.
    9000005    1    3    3    0    0 -0.10501845448E+02  0.54384133420E+02  0.85770375766E+03  0.85949092993E+03  0.10000000000E+01 0.  0.
<mgrwt>
<rscale>  0 0.12500026E+03</rscale>
<asrwt>0</asrwt>
<pdfrwt beam="2">  1        4 0.51200019E-03 0.12500026E+03</pdfrwt>
<pdfrwt beam="1">  1       -4 0.18057807E+00 0.12500026E+03</pdfrwt>
<totfact> 0.25320393E+03</totfact>
</mgrwt>
</event>
<event>
 5    1  0.3184438E-002  0.1250010E+03  0.7818608E-02  0.1235068E+00
         -4   -1    0    0    0  501 -0.00000000000E+00  0.00000000000E+00  0.35496415651E+02  0.35519127580E+02  0.12700000000E+01 0.  1.
          4   -1    0    0  501    0  0.00000000000E+00 -0.00000000000E+00 -0.10998656765E+03  0.10999389967E+03  0.12700000000E+01 0.  1.
         25    2    1    2    0    0  0.00000000000E+00  0.00000000000E+00 -0.74490152004E+02  0.14551302725E+03  0.12500103341E+03 0.  0.
    9000005    1    3    3    0    0 -0.37823641408E+02 -0.19312593555E+02 -0.90612312721E+02  0.10007594784E+03  0.10000000000E+01 0.  0.
    9000005    1    3    3    0    0  0.37823641408E+02  0.19312593555E+02  0.16122160717E+02  0.45437079411E+02  0.10000000000E+01 0.  0.
<mgrwt>
<rscale>  0 0.12500103E+03</rscale>
<asrwt>0</asrwt>
<pdfrwt beam="2">  1        4 0.16923321E-01 0.12500103E+03</pdfrwt>
<pdfrwt beam="1">  1       -4 0.54632982E-02 0.12500103E+03</pdfrwt>
<totfact> 0.10020342E+04</totfact>
</mgrwt>
</event>
<event>
 5    1  0.3184438E-002  0.1249997E+03  0.7818608E-02  0.1235070E+00
         -4   -1    0    0    0  501 -0.00000000000E+00  0.00000000000E+00  0.81550874124E+03  0.81550973013E+03  0.12700000000E+01 0. -1.
          4   -1    0    0  501    0  0.00000000000E+00 -0.00000000000E+00 -0.47047396933E+01  0.48731381657E+01  0.12700000000E+01 0. -1.
         25    2    1    2    0    0  0.00000000000E+00  0.00000000000E+00  0.81080400154E+03  0.82038286829E+03  0.12499968668E+03 0.  0.
    9000005    1    3    3    0    0  0.55425397674E+01 -0.61378453105E+02  0.33745077700E+03  0.34303361519E+03  0.10000000000E+01 0.  0.
    9000005    1    3    3    0    0 -0.55425397674E+01  0.61378453105E+02  0.47335322454E+03  0.47734925310E+03  0.10000000000E+01 0.  0.
<mgrwt>
<rscale>  0 0.12499969E+03</rscale>
<asrwt>0</asrwt>
<pdfrwt beam="2">  1        4 0.73683693E-03 0.12499969E+03</pdfrwt>
<pdfrwt beam="1">  1       -4 0.12547574E+00 0.12499969E+03</pdfrwt>
<totfact> 0.37371125E+03</totfact>
</mgrwt>
</event>
<event>
 5    1  0.3184438E-002  0.1250247E+03  0.7818608E-02  0.1235031E+00
         -4   -1    0    0    0  501 -0.00000000000E+00  0.00000000000E+00  0.19399423030E+01  0.23186798267E+01  0.12700000000E+01 0.  1.
          4   -1    0    0  501    0  0.00000000000E+00 -0.00000000000E+00 -0.18348593795E+04  0.18348598190E+04  0.12700000000E+01 0.  1.
         25    2    1    2    0    0  0.00000000000E+00  0.00000000000E+00 -0.18329194372E+04  0.18371784988E+04  0.12502469098E+03 0.  0.
    9000005    1    3    3    0    0 -0.36659433635E+02 -0.26108204986E+02 -0.15538093955E+04  0.15544613826E+04  0.10000000000E+01 0.  0.
    9000005    1    3    3    0    0  0.36659433635E+02  0.26108204986E+02 -0.27911004170E+03  0.28271711625E+03  0.10000000000E+01 0.  0.
<mgrwt>
<rscale>  0 0.12502469E+03</rscale>
<asrwt>0</asrwt>
<pdfrwt beam="2">  1        4 0.28231396E+00 0.12502469E+03</pdfrwt>
<pdfrwt beam="1">  1       -4 0.32762159E-03 0.12502469E+03</pdfrwt>
<totfact> 0.12132910E+03</totfact>
</mgrwt>
</event>
<event>
 5    1  0.3184438E-002  0.1249979E+03  0.7818608E-02  0.1235073E+00
          4   -1    0    0  501    0  0.00000000000E+00  0.00000000000E+00  0.66866285244E+01  0.68061663970E+01  0.12700000000E+01 0. -1.
         -4   -1    0    0    0  501 -0.00000000000E+00 -0.00000000000E+00 -0.57887340499E+03  0.57887479813E+03  0.12700000000E+01 0. -1.
         25    2    1    2    0    0  0.00000000000E+00  0.00000000000E+00 -0.57218677647E+03  0.58568096452E+03  0.12499794015E+03 0.  0.
    9000005    1    3    3    0    0 -0.38754542729E+02 -0.25131532564E+02 -0.48330961765E+03  0.48551281654E+03  0.10000000000E+01 0.  0.
    9000005    1    3    3    0    0  0.38754542729E+02  0.25131532564E+02 -0.88877158815E+02  0.10016814798E+03  0.10000000000E+01 0.  0.
<mgrwt>
<rscale>  0 0.12499794E+03</rscale>
<asrwt>0</asrwt>
<pdfrwt beam="1">  1        4 0.10380149E-02 0.12499794E+03</pdfrwt>
<pdfrwt beam="2">  1       -4 0.89066710E-01 0.12499794E+03</pdfrwt>
<totfact> 0.49786391E+03</totfact>
</mgrwt>
</event>
<event>
 5    1  0.3184438E-002  0.1250000E+03  0.7818608E-02  0.1235069E+00
          4   -1    0    0  501    0  0.00000000000E+00  0.00000000000E+00  0.11348902317E+02  0.11419740969E+02  0.12700000000E+01 0.  1.
         -4   -1    0    0    0  501 -0.00000000000E+00 -0.00000000000E+00 -0.34305347472E+03  0.34305582552E+03  0.12700000000E+01 0.  1.
         25    2    1    2    0    0  0.00000000000E+00  0.00000000000E+00 -0.33170457241E+03  0.35447556648E+03  0.12500001552E+03 0.  0.
    9000005    1    3    3    0    0  0.25904869131E+02  0.53814813792E+02 -0.21799982917E+03  0.22603544400E+03  0.10000000000E+01 0.  0.
    9000005    1    3    3    0    0 -0.25904869131E+02 -0.53814813792E+02 -0.11370474324E+03  0.12844012248E+03  0.10000000000E+01 0.  0.
<mgrwt>
<rscale>  0 0.12500002E+03</rscale>
<asrwt>0</asrwt>
<pdfrwt beam="1">  1        4 0.17516152E-02 0.12500002E+03</pdfrwt>
<pdfrwt beam="2">  1       -4 0.52783080E-01 0.12500002E+03</pdfrwt>
<totfact> 0.69234959E+03</totfact>
</mgrwt>
</event>
<event>
 4    1  0.3184438E-002  0.1250685E+03  0.7818608E-02  0.1234962E+00
          4   -1    0    0  501    0  0.00000000000E+00  0.00000000000E+00  0.82199871340E+01  0.83175169662E+01  0.12700000000E+01 0.  1.
         -4   -1    0    0    0  501 -0.00000000000E+00 -0.00000000000E+00 -0.47283044665E+03  0.47283215223E+03  0.12700000000E+01 0.  1.
    9000005    1    1    2    0    0  0.18795144864E+02 -0.52552442311E+02 -0.34074366869E+03  0.34528577210E+03  0.10000000000E+01 0.  0.
    9000005    1    1    2    0    0 -0.18795144864E+02  0.52552442311E+02 -0.12386679082E+03  0.13586389709E+03  0.10000000000E+01 0.  0.
<mgrwt>
<rscale>  0 0.12506848E+03</rscale>
<asrwt>0</asrwt>
<pdfrwt beam="1">  1        4 0.12722473E-02 0.12506848E+03</pdfrwt>
<pdfrwt beam="2">  1       -4 0.72750758E-01 0.12506848E+03</pdfrwt>
<totfact> 0.57270841E+03</totfact>
</mgrwt>
</event>
<event>
 5    1  0.3184438E-002  0.1250026E+03  0.7818608E-02  0.1235065E+00
         -4   -1    0    0    0  501 -0.00000000000E+00  0.00000000000E+00  0.19377809560E+03  0.19378225728E+03  0.12700000000E+01 0. -1.
          4   -1    0    0  501    0  0.00000000000E+00 -0.00000000000E+00 -0.20134805316E+02  0.20174818094E+02  0.12700000000E+01 0. -1.
         25    2    1    2    0    0  0.00000000000E+00  0.00000000000E+00  0.17364329029E+03  0.21395707537E+03  0.12500255133E+03 0.  0.
    9000005    1    3    3    0    0  0.32180566729E+02 -0.53371868583E+02  0.94714472345E+02  0.11338419865E+03  0.10000000000E+01 0.  0.
    9000005    1    3    3    0    0 -0.32180566729E+02  0.53371868583E+02  0.78928817942E+02  0.10057287672E+03  0.10000000000E+01 0.  0.
<mgrwt>
<rscale>  0 0.12500255E+03</rscale>
<asrwt>0</asrwt>
<pdfrwt beam="2">  1        4 0.31010604E-02 0.12500255E+03</pdfrwt>
<pdfrwt beam="1">  1       -4 0.29815413E-01 0.12500255E+03</pdfrwt>
<totfact> 0.87828680E+03</totfact>
</mgrwt>
</event>
<event>
 5    1  0.3184438E-002  0.1249997E+03  0.7818608E-02  0.1235070E+00
         -4   -1    0    0    0  501 -0.00000000000E+00  0.00000000000E+00  0.59926050100E+03  0.59926184674E+03  0.12700000000E+01 0. -1.
          4   -1    0    0  501    0  0.00000000000E+00 -0.00000000000E+00 -0.64551905007E+01  0.65789348986E+01  0.12700000000E+01 0. -1.
         25    2    1    2    0    0  0.00000000000E+00  0.00000000000E+00  0.59280531050E+03  0.60584078164E+03  0.12499966616E+03 0.  0.
    9000005    1    3    3    0    0  0.10794733514E+02 -0.11080078384E+02  0.29473164790E+01  0.15779134420E+02  0.10000000000E+01 0.  0.
    9000005    1    3    3    0    0 -0.10794733514E+02  0.11080078384E+02  0.58985799402E+03  0.59006164722E+03  0.10000000000E+01 0.  0.
<mgrwt>
<rscale>  0 0.12499967E+03</rscale>
<asrwt>0</asrwt>
<pdfrwt beam="2">  1        4 0.10027283E-02 0.12499967E+03</pdfrwt>
<pdfrwt beam="1">  1       -4 0.92203572E-01 0.12499967E+03</pdfrwt>
<totfact> 0.48501331E+03</totfact>
</mgrwt>
</event>
<event>
 5    1  0.3184438E-002  0.1249999E+03  0.7818608E-02  0.1235069E+00
          4   -1    0    0  501    0  0.00000000000E+00  0.00000000000E+00  0.27628086413E+02  0.27657260508E+02  0.12700000000E+01 0. -1.
         -4   -1    0    0    0  501 -0.00000000000E+00 -0.00000000000E+00 -0.14128012196E+03  0.14128583001E+03  0.12700000000E+01 0. -1.
         25    2    1    2    0    0  0.00000000000E+00  0.00000000000E+00 -0.11365203554E+03  0.16894309051E+03  0.12499993060E+03 0.  0.
    9000005    1    3    3    0    0  0.40051219104E+02 -0.19985174449E+02  0.21134270442E+01  0.44821578769E+02  0.10000000000E+01 0.  0.
    9000005    1    3    3    0    0 -0.40051219104E+02  0.19985174449E+02 -0.11576546259E+03  0.12412151175E+03  0.10000000000E+01 0.  0.
<mgrwt>
<rscale>  0 0.12499993E+03</rscale>
<asrwt>0</asrwt>
<pdfrwt beam="1">  1        4 0.42531582E-02 0.12499993E+03</pdfrwt>
<pdfrwt beam="2">  1       -4 0.21738086E-01 0.12499993E+03</pdfrwt>
<totfact> 0.95645950E+03</totfact>
</mgrwt>
</event>
<event>
 5    1  0.3184438E-002  0.1250018E+03  0.7818608E-02  0.1235067E+00
         -4   -1    0    0    0  501 -0.00000000000E+00  0.00000000000E+00  0.50201321425E+02  0.50217383174E+02  0.12700000000E+01 0. -1.
          4   -1    0    0  501    0  0.00000000000E+00 -0.00000000000E+00 -0.77780190001E+02  0.77790557631E+02  0.12700000000E+01 0. -1.
         25    2    1    2    0    0  0.00000000000E+00  0.00000000000E+00 -0.27578868575E+02  0.12800794080E+03  0.12500175566E+03 0.  0.
    9000005    1    3    3    0    0 -0.57608410941E+02  0.15163929135E+02 -0.33129761298E+02  0.68170777035E+02  0.10000000000E+01 0.  0.
    9000005    1    3    3    0    0  0.57608410941E+02 -0.15163929135E+02  0.55508927229E+01  0.59837163769E+02  0.10000000000E+01 0.  0.
<mgrwt>
<rscale>  0 0.12500176E+03</rscale>
<asrwt>0</asrwt>
<pdfrwt beam="2">  1        4 0.11968216E-01 0.12500176E+03</pdfrwt>
<pdfrwt beam="1">  1       -4 0.77253132E-02 0.12500176E+03</pdfrwt>
<totfact> 0.10386904E+04</totfact>
</mgrwt>
</event>
<event>
 5    1  0.3184438E-002  0.1249999E+03  0.7818608E-02  0.1235069E+00
         -4   -1    0    0    0  501 -0.00000000000E+00  0.00000000000E+00  0.72391164652E+03  0.72391276054E+03  0.12700000000E+01 0. -1.
          4   -1    0    0  501    0  0.00000000000E+00 -0.00000000000E+00 -0.53201607875E+01  0.54696444861E+01  0.12700000000E+01 0. -1.
         25    2    1    2    0    0  0.00000000000E+00  0.00000000000E+00  0.71859148574E+03  0.72938240503E+03  0.12499987756E+03 0.  0.
    9000005    1    3    3    0    0 -0.44247920254E+02 -0.86081973604E+01  0.10674709139E+03  0.11587890675E+03  0.10000000000E+01 0.  0.
    9000005    1    3    3    0    0  0.44247920254E+02  0.86081973604E+01  0.61184439434E+03  0.61350349828E+03  0.10000000000E+01 0.  0.
<mgrwt>
<rscale>  0 0.12499988E+03</rscale>
<asrwt>0</asrwt>
<pdfrwt beam="2">  1        4 0.83007076E-03 0.12499988E+03</pdfrwt>
<pdfrwt beam="1">  1       -4 0.11138260E+00 0.12499988E+03</pdfrwt>
<totfact> 0.41580332E+03</totfact>
</mgrwt>
</event>
<event>
 5    1  0.3184438E-002  0.1250415E+03  0.7818608E-02  0.1235004E+00
         -4   -1    0    0    0  501 -0.00000000000E+00  0.00000000000E+00  0.30602633762E+02  0.30628974733E+02  0.12700000000E+01 0. -1.
          4   -1    0    0  501    0  0.00000000000E+00 -0.00000000000E+00 -0.12764465476E+03  0.12765097253E+03  0.12700000000E+01 0. -1.
         25    2    1    2    0    0  0.00000000000E+00  0.00000000000E+00 -0.97042020997E+02  0.15827994727E+03  0.12504154457E+03 0.  0.
    9000005    1    3    3    0    0  0.14820805315E+02 -0.11037584160E+02 -0.12411448469E+03  0.12548661221E+03  0.10000000000E+01 0.  0.
    9000005    1    3    3    0    0 -0.14820805315E+02  0.11037584160E+02  0.27072463688E+02  0.32793335060E+02  0.10000000000E+01 0.  0.
<mgrwt>
<rscale>  0 0.12504154E+03</rscale>
<asrwt>0</asrwt>
<pdfrwt beam="2">  1        4 0.19640151E-01 0.12504154E+03</pdfrwt>
<pdfrwt beam="1">  1       -4 0.47106098E-02 0.12504154E+03</pdfrwt>
<totfact> 0.97584254E+03</totfact>
</mgrwt>
</event>
<event>
 5    1  0.3184438E-002  0.1249992E+03  0.7818608E-02  0.1235071E+00
         -4   -1    0    0    0  501 -0.00000000000E+00  0.00000000000E+00  0.10260935420E+03  0.10261721332E+03  0.12700000000E+01 0. -1.
          4   -1    0    0  501    0  0.00000000000E+00 -0.00000000000E+00 -0.38048731818E+02  0.38069921105E+02  0.12700000000E+01 0. -1.
         25    2    1    2    0    0  0.00000000000E+00  0.00000000000E+00  0.64560622379E+02  0.14068713442E+03  0.12499918332E+03 0.  0.
    9000005    1    3    3    0    0 -0.45098253883E+02  0.16690064693E+02 -0.12638289888E+02  0.49730645824E+02  0.10000000000E+01 0.  0.
    9000005    1    3    3    0    0  0.45098253883E+02 -0.16690064693E+02  0.77198912266E+02  0.90956488597E+02  0.10000000000E+01 0.  0.
<mgrwt>
<rscale>  0 0.12499918E+03</rscale>
<asrwt>0</asrwt>
<pdfrwt beam="2">  1        4 0.58558855E-02 0.12499918E+03</pdfrwt>
<pdfrwt beam="1">  1       -4 0.15788289E-01 0.12499918E+03</pdfrwt>
<totfact> 0.10119551E+04</totfact>
</mgrwt>
</event>
<event>
 5    1  0.3184438E-002  0.1249945E+03  0.7818608E-02  0.1235078E+00
          4   -1    0    0  501    0  0.00000000000E+00  0.00000000000E+00  0.12514832646E+03  0.12515477025E+03  0.12700000000E+01 0.  1.
         -4   -1    0    0    0  501 -0.00000000000E+00 -0.00000000000E+00 -0.31190052780E+02  0.31215898072E+02  0.12700000000E+01 0.  1.
         25    2    1    2    0    0  0.00000000000E+00  0.00000000000E+00  0.93958273681E+02  0.15637066832E+03  0.12499451475E+03 0.  0.
    9000005    1    3    3    0    0 -0.44092625911E+02  0.24515079970E+02  0.84788835086E+00  0.50466500972E+02  0.10000000000E+01 0.  0.
    9000005    1    3    3    0    0  0.44092625911E+02 -0.24515079970E+02  0.93110385331E+02  0.10590416735E+03  0.10000000000E+01 0.  0.
<mgrwt>
<rscale>  0 0.12499451E+03</rscale>
<asrwt>0</asrwt>
<pdfrwt beam="1">  1        4 0.19256072E-01 0.12499451E+03</pdfrwt>
<pdfrwt beam="2">  1       -4 0.48009534E-02 0.12499451E+03</pdfrwt>
<totfact> 0.98059184E+03</totfact>
</mgrwt>
</event>
<event>
 5    1  0.3184438E-002  0.1249969E+03  0.7818608E-02  0.1235074E+00
          4   -1    0    0  501    0  0.00000000000E+00  0.00000000000E+00  0.17484478917E+02  0.17530542005E+02  0.12700000000E+01 0. -1.
         -4   -1    0    0    0  501 -0.00000000000E+00 -0.00000000000E+00 -0.22305962946E+03  0.22306324483E+03  0.12700000000E+01 0. -1.
         25    2    1    2    0    0  0.00000000000E+00  0.00000000000E+00 -0.20557515054E+03  0.24059378684E+03  0.12499691094E+03 0.  0.
    9000005    1    3    3    0    0  0.27546974575E+02 -0.15026092255E+01  0.51378729211E+01  0.28080088690E+02  0.10000000000E+01 0.  0.
    9000005    1    3    3    0    0 -0.27546974575E+02  0.15026092255E+01 -0.21071302346E+03  0.21251369815E+03  0.10000000000E+01 0.  0.
<mgrwt>
<rscale>  0 0.12499691E+03</rscale>
<asrwt>0</asrwt>
<pdfrwt beam="1">  1        4 0.26937414E-02 0.12499691E+03</pdfrwt>
<pdfrwt beam="2">  1       -4 0.34320686E-01 0.12499691E+03</pdfrwt>
<totfact> 0.83714778E+03</totfact>
</mgrwt>
</event>
<event>
 5    1  0.3184438E-002  0.1250013E+03  0.7818608E-02  0.1235067E+00
          4   -1    0    0  501    0  0.00000000000E+00  0.00000000000E+00  0.99330792867E+02  0.99338911367E+02  0.12700000000E+01 0.  1.
         -4   -1    0    0    0  501 -0.00000000000E+00 -0.00000000000E+00 -0.39306489345E+02  0.39327000962E+02  0.12700000000E+01 0.  1.
         25    2    1    2    0    0  0.00000000000E+00  0.00000000000E+00  0.60024303522E+02  0.13866591233E+03  0.12500127291E+03 0.  0.
    9000005    1    3    3    0    0 -0.13506822336E+02 -0.54701935550E+02  0.59996402165E+02  0.82312236486E+02  0.10000000000E+01 0.  0.
    9000005    1    3    3    0    0  0.13506822336E+02  0.54701935550E+02  0.27901356788E-01  0.56353675843E+02  0.10000000000E+01 0.  0.
<mgrwt>
<rscale>  0 0.12500127E+03</rscale>
<asrwt>0</asrwt>
<pdfrwt beam="1">  1        4 0.15283862E-01 0.12500127E+03</pdfrwt>
<pdfrwt beam="2">  1       -4 0.60493547E-02 0.12500127E+03</pdfrwt>
<totfact> 0.10161019E+04</totfact>
</mgrwt>
</event>
<event>
 5    1  0.3184438E-002  0.1250003E+03  0.7818608E-02  0.1235069E+00
         -4   -1    0    0    0  501 -0.00000000000E+00  0.00000000000E+00  0.16281014608E+03  0.16281509932E+03  0.12700000000E+01 0.  1.
          4   -1    0    0  501    0  0.00000000000E+00 -0.00000000000E+00 -0.23970638303E+02  0.24004257970E+02  0.12700000000E+01 0.  1.
         25    2    1    2    0    0  0.00000000000E+00  0.00000000000E+00  0.13883950778E+03  0.18681935729E+03  0.12500025335E+03 0.  0.
    9000005    1    3    3    0    0 -0.49965147369E+01 -0.46195358275E+02  0.69644813498E+01  0.46994470804E+02  0.10000000000E+01 0.  0.
    9000005    1    3    3    0    0  0.49965147369E+01  0.46195358275E+02  0.13187502643E+03  0.13982488649E+03  0.10000000000E+01 0.  0.
<mgrwt>
<rscale>  0 0.12500025E+03</rscale>
<asrwt>0</asrwt>
<pdfrwt beam="2">  1        4 0.36907575E-02 0.12500025E+03</pdfrwt>
<pdfrwt beam="1">  1       -4 0.25050683E-01 0.12500025E+03</pdfrwt>
<totfact> 0.92403174E+03</totfact>
</mgrwt>
</event>
<event>
 5    1  0.3184438E-002  0.1250000E+03  0.7818608E-02  0.1235069E+00
         -4   -1    0    0    0  501 -0.00000000000E+00  0.00000000000E+00  0.81888416316E+02  0.81898263881E+02  0.12700000000E+01 0.  1.
          4   -1    0    0  501    0  0.00000000000E+00 -0.00000000000E+00 -0.47680900163E+02  0.47697810645E+02  0.12700000000E+01 0.  1.
         25    2    1    2    0    0  0.00000000000E+00  0.00000000000E+00  0.34207516153E+02  0.12959607453E+03  0.12499995348E+03 0.  0.
    9000005    1    3    3    0    0 -0.59636780108E+02  0.10633223811E+02  0.11888948379E+01  0.60597231465E+02  0.10000000000E+01 0.  0.
    9000005    1    3    3    0    0  0.59636780108E+02 -0.10633223811E+02  0.33018621315E+02  0.68998843061E+02  0.10000000000E+01 0.  0.
<mgrwt>
<rscale>  0 0.12499995E+03</rscale>
<asrwt>0</asrwt>
<pdfrwt beam="2">  1        4 0.73375815E-02 0.12499995E+03</pdfrwt>
<pdfrwt beam="1">  1       -4 0.12600276E-01 0.12499995E+03</pdfrwt>
<totfact> 0.10353167E+04</totfact>
</mgrwt>
</event>
<event>
 5    1  0.3184438E-002  0.1249964E+03  0.7818608E-02  0.1235075E+00
         -4   -1    0    0    0  501 -0.00000000000E+00  0.00000000000E+00  0.25747501377E+01  0.28709298619E+01  0.12700000000E+01 0.  1.
          4   -1    0    0  501    0  0.00000000000E+00 -0.00000000000E+00 -0.14342440796E+04  0.14342446419E+04  0.12700000000E+01 0.  1.
         25    2    1    2    0    0  0.00000000000E+00  0.00000000000E+00 -0.14316693295E+04  0.14371155718E+04  0.12499639045E+03 0.  0.
    9000005    1    3    3    0    0 -0.18892782661E+02 -0.49836134521E+02 -0.34072675934E+03  0.34487142832E+03  0.10000000000E+01 0.  0.
    9000005    1    3    3    0    0  0.18892782661E+02  0.49836134521E+02 -0.10909425702E+04  0.10922441435E+04  0.10000000000E+01 0.  0.
<mgrwt>
<rscale>  0 0.12499639E+03</rscale>
<asrwt>0</asrwt>
<pdfrwt beam="2">  1        4 0.22067516E+00 0.12499639E+03</pdfrwt>
<pdfrwt beam="1">  1       -4 0.41894286E-03 0.12499639E+03</pdfrwt>
<totfact> 0.19199788E+03</totfact>
</mgrwt>
</event>
<event>
 5    1  0.3184438E-002  0.1249790E+03  0.7818608E-02  0.1235102E+00
         -4   -1    0    0    0  501 -0.00000000000E+00  0.00000000000E+00  0.35358382594E+01  0.37570004254E+01  0.12700000000E+01 0. -1.
          4   -1    0    0  501    0  0.00000000000E+00 -0.00000000000E+00 -0.10706745815E+04  0.10706753347E+04  0.12700000000E+01 0. -1.
         25    2    1    2    0    0  0.00000000000E+00  0.00000000000E+00 -0.10671387433E+04  0.10744323352E+04  0.12497898013E+03 0.  0.
    9000005    1    3    3    0    0 -0.44335999407E+02 -0.44015742036E+02 -0.52555081489E+03  0.52925204338E+03  0.10000000000E+01 0.  0.
    9000005    1    3    3    0    0  0.44335999407E+02  0.44015742036E+02 -0.54158792836E+03  0.54518029178E+03  0.10000000000E+01 0.  0.
<mgrwt>
<rscale>  0 0.12497898E+03</rscale>
<asrwt>0</asrwt>
<pdfrwt beam="2">  1        4 0.16473599E+00 0.12497898E+03</pdfrwt>
<pdfrwt beam="1">  1       -4 0.56104639E-03 0.12497898E+03</pdfrwt>
<totfact> 0.28256996E+03</totfact>
</mgrwt>
</event>
<event>
 5    1  0.3184438E-002  0.1250006E+03  0.7818608E-02  0.1235068E+00
         -4   -1    0    0    0  501 -0.00000000000E+00  0.00000000000E+00  0.13557264775E+03  0.13557859609E+03  0.12700000000E+01 0.  1.
          4   -1    0    0  501    0  0.00000000000E+00 -0.00000000000E+00 -0.28792649838E+02  0.28820645112E+02  0.12700000000E+01 0.  1.
         25    2    1    2    0    0  0.00000000000E+00  0.00000000000E+00  0.10677999791E+03  0.16439924120E+03  0.12500057022E+03 0.  0.
    9000005    1    3    3    0    0  0.45739844601E+00  0.52091870452E+01  0.13529084758E+03  0.13539556227E+03  0.10000000000E+01 0.  0.
    9000005    1    3    3    0    0 -0.45739844601E+00 -0.52091870452E+01 -0.28510849668E+02  0.29003678935E+02  0.10000000000E+01 0.  0.
<mgrwt>
<rscale>  0 0.12500057E+03</rscale>
<asrwt>0</asrwt>
<pdfrwt beam="2">  1        4 0.44322494E-02 0.12500057E+03</pdfrwt>
<pdfrwt beam="1">  1       -4 0.20859942E-01 0.12500057E+03</pdfrwt>
<totfact> 0.96500051E+03</totfact>
</mgrwt>
</event>
<event>
 5    1  0.3184438E-002  0.1250077E+03  0.7818608E-02  0.1235057E+00
          4   -1    0    0  501    0  0.00000000000E+00  0.00000000000E+00  0.25841501329E+02  0.25872690060E+02  0.12700000000E+01 0. -1.
         -4   -1    0    0    0  501 -0.00000000000E+00 -0.00000000000E+00 -0.15105541526E+03  0.15106075393E+03  0.12700000000E+01 0. -1.
         25    2    1    2    0    0  0.00000000000E+00  0.00000000000E+00 -0.12521391393E+03  0.17693344399E+03  0.12500767721E+03 0.  0.
    9000005    1    3    3    0    0 -0.55740246048E+02  0.24910430605E+02 -0.43711479447E+02  0.75094593799E+02  0.10000000000E+01 0.  0.
    9000005    1    3    3    0    0  0.55740246048E+02 -0.24910430605E+02 -0.81502434481E+02  0.10183885019E+03  0.10000000000E+01 0.  0.
<mgrwt>
<rscale>  0 0.12500768E+03</rscale>
<asrwt>0</asrwt>
<pdfrwt beam="1">  1        4 0.39784255E-02 0.12500768E+03</pdfrwt>
<pdfrwt beam="2">  1       -4 0.23242104E-01 0.12500768E+03</pdfrwt>
<totfact> 0.94155710E+03</totfact>
</mgrwt>
</event>
<event>
 5    1  0.3184438E-002  0.1249967E+03  0.7818608E-02  0.1235074E+00
          4   -1    0    0  501    0  0.00000000000E+00  0.00000000000E+00  0.25576198109E+03  0.25576513420E+03  0.12700000000E+01 0.  1.
         -4   -1    0    0    0  501 -0.00000000000E+00 -0.00000000000E+00 -0.15242538657E+02  0.15295355004E+02  0.12700000000E+01 0.  1.
         25    2    1    2    0    0  0.00000000000E+00  0.00000000000E+00  0.24051944243E+03  0.27106048920E+03  0.12499674643E+03 0.  0.
    9000005    1    3    3    0    0 -0.52553183361E+02  0.18765623666E+02  0.59267776645E+02  0.81410411259E+02  0.10000000000E+01 0.  0.
    9000005    1    3    3    0    0  0.52553183361E+02 -0.18765623666E+02  0.18125166579E+03  0.18965007794E+03  0.10000000000E+01 0.  0.
<mgrwt>
<rscale>  0 0.12499675E+03</rscale>
<asrwt>0</asrwt>
<pdfrwt beam="1">  1        4 0.39352304E-01 0.12499675E+03</pdfrwt>
<pdfrwt beam="2">  1       -4 0.23493112E-02 0.12499675E+03</pdfrwt>
<totfact> 0.79384248E+03</totfact>
</mgrwt>
</event>
<event>
 4    1  0.3184438E-002  0.1249153E+03  0.7818608E-02  0.1235202E+00
          4   -1    0    0  501    0  0.00000000000E+00  0.00000000000E+00  0.33496032019E+01  0.35822816207E+01  0.12700000000E+01 0. -1.
         -4   -1    0    0    0  501 -0.00000000000E+00 -0.00000000000E+00 -0.11252781002E+04  0.11252788168E+04  0.12700000000E+01 0. -1.
    9000005    1    1    2    0    0 -0.57330760744E+02 -0.24423208066E+02 -0.52409189730E+03  0.52778463982E+03  0.10000000000E+01 0.  0.
    9000005    1    1    2    0    0  0.57330760744E+02  0.24423208066E+02 -0.59783659966E+03  0.60107645863E+03  0.10000000000E+01 0.  0.
<mgrwt>
<rscale>  0 0.12491528E+03</rscale>
<asrwt>0</asrwt>
<pdfrwt beam="1">  1        4 0.53327794E-03 0.12491528E+03</pdfrwt>
<pdfrwt beam="2">  1       -4 0.17313737E+00 0.12491528E+03</pdfrwt>
<totfact> 0.26703046E+03</totfact>
</mgrwt>
</event>
<event>
 4    1  0.3184438E-002  0.1244315E+03  0.7818608E-02  0.1235960E+00
          4   -1    0    0  501    0  0.00000000000E+00  0.00000000000E+00  0.95628426135E+01  0.96468056294E+01  0.12700000000E+01 0.  1.
         -4   -1    0    0    0  501 -0.00000000000E+00 -0.00000000000E+00 -0.40292107818E+03  0.40292307969E+03  0.12700000000E+01 0.  1.
    9000005    1    1    2    0    0 -0.39220150404E+02  0.46931095300E+02 -0.23434544406E+03  0.24219730605E+03  0.10000000000E+01 0.  0.
    9000005    1    1    2    0    0  0.39220150404E+02 -0.46931095300E+02 -0.15901279151E+03  0.17037257927E+03  0.10000000000E+01 0.  0.
<mgrwt>
<rscale>  0 0.12443154E+03</rscale>
<asrwt>0</asrwt>
<pdfrwt beam="1">  1        4 0.14778195E-02 0.12443154E+03</pdfrwt>
<pdfrwt beam="2">  1       -4 0.61994458E-01 0.12443154E+03</pdfrwt>
<totfact> 0.64149547E+03</totfact>
</mgrwt>
</event>
<event>
 5    1  0.3184438E-002  0.1250049E+03  0.7818608E-02  0.1235062E+00
          4   -1    0    0  501    0  0.00000000000E+00  0.00000000000E+00  0.21569690211E+02  0.21607045976E+02  0.12700000000E+01 0. -1.
         -4   -1    0    0    0  501 -0.00000000000E+00 -0.00000000000E+00 -0.18091687823E+03  0.18092133575E+03  0.12700000000E+01 0. -1.
         25    2    1    2    0    0  0.00000000000E+00  0.00000000000E+00 -0.15934718802E+03  0.20252838173E+03  0.12500487620E+03 0.  0.
    9000005    1    3    3    0    0 -0.46498919190E+02 -0.36816294528E+02 -0.11158571180E+03  0.12637230751E+03  0.10000000000E+01 0.  0.
    9000005    1    3    3    0    0  0.46498919190E+02  0.36816294528E+02 -0.47761476226E+02  0.76156074215E+02  0.10000000000E+01 0.  0.
<mgrwt>
<rscale>  0 0.12500488E+03</rscale>
<asrwt>0</asrwt>
<pdfrwt beam="1">  1        4 0.33216304E-02 0.12500488E+03</pdfrwt>
<pdfrwt beam="2">  1       -4 0.27836581E-01 0.12500488E+03</pdfrwt>
<totfact> 0.89701034E+03</totfact>
</mgrwt>
</event>
<event>
 5    1  0.3184438E-002  0.1249978E+03  0.7818608E-02  0.1235073E+00
          4   -1    0    0  501    0  0.00000000000E+00  0.00000000000E+00  0.18676135196E+03  0.18676566999E+03  0.12700000000E+01 0. -1.
         -4   -1    0    0    0  501 -0.00000000000E+00 -0.00000000000E+00 -0.20891142565E+02  0.20929709450E+02  0.12700000000E+01 0. -1.
         25    2    1    2    0    0  0.00000000000E+00  0.00000000000E+00  0.16587020940E+03  0.20769537944E+03  0.12499777708E+03 0.  0.
    9000005    1    3    3    0    0  0.38539772701E+02 -0.11653578140E+02  0.35257349032E+01  0.40429577909E+02  0.10000000000E+01 0.  0.
    9000005    1    3    3    0    0 -0.38539772701E+02  0.11653578140E+02  0.16234447449E+03  0.16726580153E+03  0.10000000000E+01 0.  0.
<mgrwt>
<rscale>  0 0.12499778E+03</rscale>
<asrwt>0</asrwt>
<pdfrwt beam="1">  1        4 0.28735815E-01 0.12499778E+03</pdfrwt>
<pdfrwt beam="2">  1       -4 0.32173207E-02 0.12499778E+03</pdfrwt>
<totfact> 0.88858060E+03</totfact>
</mgrwt>
</event>
<event>
 5    1  0.3184438E-002  0.1249982E+03  0.7818608E-02  0.1235072E+00
          4   -1    0    0  501    0  0.00000000000E+00  0.00000000000E+00  0.10612534932E+02  0.10688255128E+02  0.12700000000E+01 0. -1.
         -4   -1    0    0    0  501 -0.00000000000E+00 -0.00000000000E+00 -0.36668276405E+03  0.36668496335E+03  0.12700000000E+01 0. -1.
         25    2    1    2    0    0  0.00000000000E+00  0.00000000000E+00 -0.35607022912E+03  0.37737321848E+03  0.12499815184E+03 0.  0.
    9000005    1    3    3    0    0 -0.62777175000E+01  0.62113148699E+02 -0.16966770819E+03  0.18079154897E+03  0.10000000000E+01 0.  0.
    9000005    1    3    3    0    0  0.62777175000E+01 -0.62113148699E+02 -0.18640252093E+03  0.19658166951E+03  0.10000000000E+01 0.  0.
<mgrwt>
<rscale>  0 0.12499815E+03</rscale>
<asrwt>0</asrwt>
<pdfrwt beam="1">  1        4 0.16386918E-02 0.12499815E+03</pdfrwt>
<pdfrwt beam="2">  1       -4 0.56418717E-01 0.12499815E+03</pdfrwt>
<totfact> 0.66817284E+03</totfact>
</mgrwt>
</event>
<event>
 5    1  0.3184438E-002  0.1250001E+03  0.7818608E-02  0.1235069E+00
          4   -1    0    0  501    0  0.00000000000E+00  0.00000000000E+00  0.41679159652E+03  0.41679353142E+03  0.12700000000E+01 0. -1.
         -4   -1    0    0    0  501 -0.00000000000E+00 -0.00000000000E+00 -0.93272156070E+01  0.94132805642E+01  0.12700000000E+01 0. -1.
         25    2    1    2    0    0  0.00000000000E+00  0.00000000000E+00  0.40746438091E+03  0.42620681198E+03  0.12500009946E+03 0.  0.
    9000005    1    3    3    0    0 -0.16884113247E+02  0.26824913257E+02  0.20097608420E+02  0.37544148886E+02  0.10000000000E+01 0.  0.
    9000005    1    3    3    0    0  0.16884113247E+02 -0.26824913257E+02  0.38736677249E+03  0.38866266310E+03  0.10000000000E+01 0.  0.
<mgrwt>
<rscale>  0 0.12500010E+03</rscale>
<asrwt>0</asrwt>
<pdfrwt beam="1">  1        4 0.64128543E-01 0.12500010E+03</pdfrwt>
<pdfrwt beam="2">  1       -4 0.14417257E-02 0.12500010E+03</pdfrwt>
<totfact> 0.62081200E+03</totfact>
</mgrwt>
</event>
<event>
 5    1  0.3184438E-002  0.1249927E+03  0.7818608E-02  0.1235081E+00
          4   -1    0    0  501    0  0.00000000000E+00  0.00000000000E+00  0.35408539305E+03  0.35408767061E+03  0.12700000000E+01 0. -1.
         -4   -1    0    0    0  501 -0.00000000000E+00 -0.00000000000E+00 -0.10991781068E+02  0.11064906283E+02  0.12700000000E+01 0. -1.
         25    2    1    2    0    0  0.00000000000E+00  0.00000000000E+00  0.34309361199E+03  0.36515257689E+03  0.12499271108E+03 0.  0.
    9000005    1    3    3    0    0  0.26128385715E+02  0.93743400054E+01  0.33509835984E+03  0.33624764915E+03  0.10000000000E+01 0.  0.
    9000005    1    3    3    0    0 -0.26128385715E+02 -0.93743400054E+01  0.79952521430E+01  0.28904927736E+02  0.10000000000E+01 0.  0.
<mgrwt>
<rscale>  0 0.12499271E+03</rscale>
<asrwt>0</asrwt>
<pdfrwt beam="1">  1        4 0.54480482E-01 0.12499271E+03</pdfrwt>
<pdfrwt beam="2">  1       -4 0.16968433E-02 0.12499271E+03</pdfrwt>
<totfact> 0.68100105E+03</totfact>
</mgrwt>
</event>
<event>
 5    1  0.3184438E-002  0.1250029E+03  0.7818608E-02  0.1235065E+00
         -4   -1    0    0    0  501 -0.00000000000E+00  0.00000000000E+00  0.81263888655E+03  0.81263987893E+03  0.12700000000E+01 0. -1.
          4   -1    0    0  501    0  0.00000000000E+00 -0.00000000000E+00 -0.47221970195E+01  0.48899943447E+01  0.12700000000E+01 0. -1.
         25    2    1    2    0    0  0.00000000000E+00  0.00000000000E+00  0.80791668953E+03  0.81752987328E+03  0.12500286589E+03 0.  0.
    9000005    1    3    3    0    0 -0.19460870805E+02 -0.33428842842E+02  0.72497054547E+03  0.72600241379E+03  0.10000000000E+01 0.  0.
    9000005    1    3    3    0    0  0.19460870805E+02  0.33428842842E+02  0.82946144057E+02  0.91527459487E+02  0.10000000000E+01 0.  0.
<mgrwt>
<rscale>  0 0.12500287E+03</rscale>
<asrwt>0</asrwt>
<pdfrwt beam="2">  1        4 0.73947647E-03 0.12500287E+03</pdfrwt>
<pdfrwt beam="1">  1       -4 0.12503422E+00 0.12500287E+03</pdfrwt>
<totfact> 0.37491719E+03</totfact>
</mgrwt>
</event>
<event>
 5    1  0.3184438E-002  0.1250089E+03  0.7818608E-02  0.1235055E+00
          4   -1    0    0  501    0  0.00000000000E+00  0.00000000000E+00  0.76478531959E+03  0.76478637407E+03  0.12700000000E+01 0. -1.
         -4   -1    0    0    0  501 -0.00000000000E+00 -0.00000000000E+00 -0.50283648420E+01  0.51862658034E+01  0.12700000000E+01 0. -1.
         25    2    1    2    0    0  0.00000000000E+00  0.00000000000E+00  0.75975695475E+03  0.76997263987E+03  0.12500894313E+03 0.  0.
    9000005    1    3    3    0    0  0.96527521539E+01  0.59391764260E+02  0.48390601411E+03  0.48763366145E+03  0.10000000000E+01 0.  0.
    9000005    1    3    3    0    0 -0.96527521539E+01 -0.59391764260E+02  0.27585094064E+03  0.28233897842E+03  0.10000000000E+01 0.  0.
<mgrwt>
<rscale>  0 0.12500894E+03</rscale>
<asrwt>0</asrwt>
<pdfrwt beam="1">  1        4 0.11767144E+00 0.12500894E+03</pdfrwt>
<pdfrwt beam="2">  1       -4 0.78582241E-03 0.12500894E+03</pdfrwt>
<totfact> 0.39628842E+03</totfact>
</mgrwt>
</event>
<event>
 4    1  0.3184438E-002  0.1251184E+03  0.7818608E-02  0.1234884E+00
         -4   -1    0    0    0  501 -0.00000000000E+00  0.00000000000E+00  0.26305592927E+03  0.26305899495E+03  0.12700000000E+01 0. -1.
          4   -1    0    0  501    0  0.00000000000E+00 -0.00000000000E+00 -0.14847376269E+02  0.14901593273E+02  0.12700000000E+01 0. -1.
    9000005    1    1    2    0    0  0.38755458465E+02 -0.41507058135E+02  0.65839978028E+02  0.86952424593E+02  0.10000000000E+01 0.  0.
    9000005    1    1    2    0    0 -0.38755458465E+02  0.41507058135E+02  0.18236857498E+03  0.19100816363E+03  0.10000000000E+01 0.  0.
<mgrwt>
<rscale>  0 0.12511836E+03</rscale>
<asrwt>0</asrwt>
<pdfrwt beam="2">  1        4 0.22886181E-02 0.12511836E+03</pdfrwt>
<pdfrwt beam="1">  1       -4 0.40474549E-01 0.12511836E+03</pdfrwt>
<totfact> 0.78243236E+03</totfact>
</mgrwt>
</event>
<event>
 5    1  0.3184438E-002  0.1249984E+03  0.7818608E-02  0.1235072E+00
         -4   -1    0    0    0  501 -0.00000000000E+00  0.00000000000E+00  0.12904137807E+03  0.12904762746E+03  0.12700000000E+01 0.  1.
          4   -1    0    0  501    0  0.00000000000E+00 -0.00000000000E+00 -0.30250219081E+02  0.30276866655E+02  0.12700000000E+01 0.  1.
         25    2    1    2    0    0  0.00000000000E+00  0.00000000000E+00  0.98791158987E+02  0.15932449412E+03  0.12499840532E+03 0.  0.
    9000005    1    3    3    0    0  0.42098974425E+02 -0.31436845539E+02  0.62738936298E+01  0.52924102698E+02  0.10000000000E+01 0.  0.
    9000005    1    3    3    0    0 -0.42098974425E+02  0.31436845539E+02  0.92517265357E+02  0.10640039142E+03  0.10000000000E+01 0.  0.
<mgrwt>
<rscale>  0 0.12499841E+03</rscale>
<asrwt>0</asrwt>
<pdfrwt beam="2">  1        4 0.46564104E-02 0.12499841E+03</pdfrwt>
<pdfrwt beam="1">  1       -4 0.19855050E-01 0.12499841E+03</pdfrwt>
<totfact> 0.97476669E+03</totfact>
</mgrwt>
</event>
<event>
 5    1  0.3184438E-002  0.1250005E+03  0.7818608E-02  0.1235069E+00
          4   -1    0    0  501    0  0.00000000000E+00  0.00000000000E+00  0.32220950692E+03  0.32221200978E+03  0.12700000000E+01 0. -1.
         -4   -1    0    0    0  501 -0.00000000000E+00 -0.00000000000E+00 -0.12087600220E+02  0.12154134239E+02  0.12700000000E+01 0. -1.
         25    2    1    2    0    0  0.00000000000E+00  0.00000000000E+00  0.31012190670E+03  0.33436614402E+03  0.12500048502E+03 0.  0.
    9000005    1    3    3    0    0  0.69404147599E+01 -0.58826918032E+02  0.10179683376E+03  0.11778102991E+03  0.10000000000E+01 0.  0.
    9000005    1    3    3    0    0 -0.69404147599E+01  0.58826918032E+02  0.20832507293E+03  0.21658511411E+03  0.10000000000E+01 0.  0.
<mgrwt>
<rscale>  0 0.12500049E+03</rscale>
<asrwt>0</asrwt>
<pdfrwt beam="1">  1        4 0.49576013E-01 0.12500049E+03</pdfrwt>
<pdfrwt beam="2">  1       -4 0.18649410E-02 0.12500049E+03</pdfrwt>
<totfact> 0.71478647E+03</totfact>
</mgrwt>
</event>
<event>
 5    1  0.3184438E-002  0.1249998E+03  0.7818608E-02  0.1235070E+00
          4   -1    0    0  501    0  0.00000000000E+00  0.00000000000E+00  0.13257406222E+03  0.13258014509E+03  0.12700000000E+01 0.  1.
         -4   -1    0    0    0  501 -0.00000000000E+00 -0.00000000000E+00 -0.29444120591E+02  0.29471497034E+02  0.12700000000E+01 0.  1.
         25    2    1    2    0    0  0.00000000000E+00  0.00000000000E+00  0.10312994163E+03  0.16205164213E+03  0.12499979942E+03 0.  0.
    9000005    1    3    3    0    0  0.59298670442E+02 -0.21065087788E+01  0.76984885501E+02  0.97203098155E+02  0.10000000000E+01 0.  0.
    9000005    1    3    3    0    0 -0.59298670442E+02  0.21065087788E+01  0.26145056125E+02  0.64848543971E+02  0.10000000000E+01 0.  0.
<mgrwt>
<rscale>  0 0.12499980E+03</rscale>
<asrwt>0</asrwt>
<pdfrwt beam="1">  1        4 0.20398584E-01 0.12499980E+03</pdfrwt>
<pdfrwt beam="2">  1       -4 0.45324384E-02 0.12499980E+03</pdfrwt>
<totfact> 0.96949133E+03</totfact>
</mgrwt>
</event>
<event>
 5    1  0.3184438E-002  0.1250019E+03  0.7818608E-02  0.1235066E+00
         -4   -1    0    0    0  501 -0.00000000000E+00  0.00000000000E+00  0.55798658286E+01  0.57225695859E+01  0.12700000000E+01 0. -1.
          4   -1    0    0  501    0  0.00000000000E+00 -0.00000000000E+00 -0.69110059536E+03  0.69110176227E+03  0.12700000000E+01 0. -1.
         25    2    1    2    0    0  0.00000000000E+00  0.00000000000E+00 -0.68552072953E+03  0.69682433185E+03  0.12500191536E+03 0.  0.
    9000005    1    3    3    0    0 -0.24594216644E+02  0.54315348369E+02 -0.44710010131E+03  0.45105934549E+03  0.10000000000E+01 0.  0.
    9000005    1    3    3    0    0  0.24594216644E+02 -0.54315348369E+02 -0.23842062822E+03  0.24576498636E+03  0.10000000000E+01 0.  0.
<mgrwt>
<rscale>  0 0.12500192E+03</rscale>
<asrwt>0</asrwt>
<pdfrwt beam="2">  1        4 0.10633417E+00 0.12500192E+03</pdfrwt>
<pdfrwt beam="1">  1       -4 0.86950842E-03 0.12500192E+03</pdfrwt>
<totfact> 0.43253068E+03</totfact>
</mgrwt>
</event>
<event>
 5    1  0.3184438E-002  0.1250011E+03  0.7818608E-02  0.1235068E+00
          4   -1    0    0  501    0  0.00000000000E+00  0.00000000000E+00  0.43576830002E+02  0.43595332469E+02  0.12700000000E+01 0. -1.
         -4   -1    0    0    0  501 -0.00000000000E+00 -0.00000000000E+00 -0.89600060264E+02  0.89609060364E+02  0.12700000000E+01 0. -1.
         25    2    1    2    0    0  0.00000000000E+00  0.00000000000E+00 -0.46023230261E+02  0.13320439283E+03  0.12500109018E+03 0.  0.
    9000005    1    3    3    0    0  0.21127606244E+02  0.39457090925E+02  0.23463361282E+02  0.50544703901E+02  0.10000000000E+01 0.  0.
    9000005    1    3    3    0    0 -0.21127606244E+02 -0.39457090925E+02 -0.69486591543E+02  0.82659688931E+02  0.10000000000E+01 0.  0.
<mgrwt>
<rscale>  0 0.12500109E+03</rscale>
<asrwt>0</asrwt>
<pdfrwt beam="1">  1        4 0.67062432E-02 0.12500109E+03</pdfrwt>
<pdfrwt beam="2">  1       -4 0.13786740E-01 0.12500109E+03</pdfrwt>
<totfact> 0.10275805E+04</totfact>
</mgrwt>
</event>
<event>
 5    1  0.3184438E-002  0.1250018E+03  0.7818608E-02  0.1235066E+00
          4   -1    0    0  501    0  0.00000000000E+00  0.00000000000E+00  0.39002463243E+02  0.39023134664E+02  0.12700000000E+01 0. -1.
         -4   -1    0    0    0  501 -0.00000000000E+00 -0.00000000000E+00 -0.10010557487E+03  0.10011363054E+03  0.12700000000E+01 0. -1.
         25    2    1    2    0    0  0.00000000000E+00  0.00000000000E+00 -0.61103111623E+02  0.13913676520E+03  0.12500179671E+03 0.  0.
    9000005    1    3    3    0    0  0.53538573405E+02 -0.32117209160E+02 -0.27509708861E+02  0.68232529251E+02  0.10000000000E+01 0.  0.
    9000005    1    3    3    0    0 -0.53538573405E+02  0.32117209160E+02 -0.33593402762E+02  0.70904235949E+02  0.10000000000E+01 0.  0.
<mgrwt>
<rscale>  0 0.12500180E+03</rscale>
<asrwt>0</asrwt>
<pdfrwt beam="1">  1        4 0.60025888E-02 0.12500180E+03</pdfrwt>
<pdfrwt beam="2">  1       -4 0.15403067E-01 0.12500180E+03</pdfrwt>
<totfact> 0.10151097E+04</totfact>
</mgrwt>
</event>
<event>
 5    1  0.3184438E-002  0.1249994E+03  0.7818608E-02  0.1235070E+00
          4   -1    0    0  501    0  0.00000000000E+00  0.00000000000E+00  0.36903097741E+02  0.36924944454E+02  0.12700000000E+01 0.  1.
         -4   -1    0    0    0  501 -0.00000000000E+00 -0.00000000000E+00 -0.10579361394E+03  0.10580123653E+03  0.12700000000E+01 0.  1.
         25    2    1    2    0    0  0.00000000000E+00  0.00000000000E+00 -0.68890516203E+02  0.14272618098E+03  0.12499943806E+03 0.  0.
    9000005    1    3    3    0    0 -0.23203522270E+02  0.36544312499E+02 -0.85907091529E+02  0.96202487477E+02  0.10000000000E+01 0.  0.
    9000005    1    3    3    0    0  0.23203522270E+02 -0.36544312499E+02  0.17016575326E+02  0.46523693507E+02  0.10000000000E+01 0.  0.
<mgrwt>
<rscale>  0 0.12499944E+03</rscale>
<asrwt>0</asrwt>
<pdfrwt beam="1">  1        4 0.56796666E-02 0.12499944E+03</pdfrwt>
<pdfrwt beam="2">  1       -4 0.16278207E-01 0.12499944E+03</pdfrwt>
<totfact> 0.10077521E+04</totfact>
</mgrwt>
</event>
<event>
 5    1  0.3184438E-002  0.1249990E+03  0.7818608E-02  0.1235071E+00
          4   -1    0    0  501    0  0.00000000000E+00  0.00000000000E+00  0.27147268413E+02  0.27176958665E+02  0.12700000000E+01 0. -1.
         -4   -1    0    0    0  501 -0.00000000000E+00 -0.00000000000E+00 -0.14377764859E+03  0.14378325749E+03  0.12700000000E+01 0. -1.
         25    2    1    2    0    0  0.00000000000E+00  0.00000000000E+00 -0.11663038017E+03  0.17096021615E+03  0.12499899970E+03 0.  0.
    9000005    1    3    3    0    0  0.10344775412E+02  0.26906638018E+02 -0.13414762463E+03  0.13721358075E+03  0.10000000000E+01 0.  0.
    9000005    1    3    3    0    0 -0.10344775412E+02 -0.26906638018E+02  0.17517244455E+02  0.33746635404E+02  0.10000000000E+01 0.  0.
<mgrwt>
<rscale>  0 0.12499900E+03</rscale>
<asrwt>0</asrwt>
<pdfrwt beam="1">  1        4 0.41792182E-02 0.12499900E+03</pdfrwt>
<pdfrwt beam="2">  1       -4 0.22122353E-01 0.12499900E+03</pdfrwt>
<totfact> 0.95272107E+03</totfact>
</mgrwt>
</event>
<event>
 5    1  0.3184438E-002  0.1250042E+03  0.7818608E-02  0.1235063E+00
          4   -1    0    0  501    0  0.00000000000E+00  0.00000000000E+00  0.68453654773E+01  0.69621784319E+01  0.12700000000E+01 0. -1.
         -4   -1    0    0    0  501 -0.00000000000E+00 -0.00000000000E+00 -0.56573449778E+03  0.56573592327E+03  0.12700000000E+01 0. -1.
         25    2    1    2    0    0  0.00000000000E+00  0.00000000000E+00 -0.55888913231E+03  0.57269810170E+03  0.12500421388E+03 0.  0.
    9000005    1    3    3    0    0  0.32981636978E+02  0.42280034448E+02 -0.42648804733E+03  0.42984700093E+03  0.10000000000E+01 0.  0.
    9000005    1    3    3    0    0 -0.32981636978E+02 -0.42280034448E+02 -0.13240108498E+03  0.14285110078E+03  0.10000000000E+01 0.  0.
<mgrwt>
<rscale>  0 0.12500421E+03</rscale>
<asrwt>0</asrwt>
<pdfrwt beam="1">  1        4 0.10622289E-02 0.12500421E+03</pdfrwt>
<pdfrwt beam="2">  1       -4 0.87045135E-01 0.12500421E+03</pdfrwt>
<totfact> 0.50632950E+03</totfact>
</mgrwt>
</event>
<event>
 5    1  0.3184438E-002  0.1249962E+03  0.7818608E-02  0.1235075E+00
          4   -1    0    0  501    0  0.00000000000E+00  0.00000000000E+00  0.15459332255E+01  0.20007022611E+01  0.12700000000E+01 0.  1.
         -4   -1    0    0    0  501 -0.00000000000E+00 -0.00000000000E+00 -0.22022037571E+04  0.22022041233E+04  0.12700000000E+01 0.  1.
         25    2    1    2    0    0  0.00000000000E+00  0.00000000000E+00 -0.22006578239E+04  0.22042048256E+04  0.12499622096E+03 0.  0.
    9000005    1    3    3    0    0  0.23766437135E+02 -0.19900714981E+01 -0.21188774947E+04  0.21190119493E+04  0.10000000000E+01 0.  0.
    9000005    1    3    3    0    0 -0.23766437135E+02  0.19900714981E+01 -0.81780329211E+02  0.85192876255E+02  0.10000000000E+01 0.  0.
<mgrwt>
<rscale>  0 0.12499622E+03</rscale>
<asrwt>0</asrwt>
<pdfrwt beam="1">  1        4 0.27284805E-03 0.12499622E+03</pdfrwt>
<pdfrwt beam="2">  1       -4 0.33883340E+00 0.12499622E+03</pdfrwt>
<totfact> 0.74266780E+02</totfact>
</mgrwt>
</event>
<event>
 5    1  0.3184438E-002  0.1249993E+03  0.7818608E-02  0.1235070E+00
          4   -1    0    0  501    0  0.00000000000E+00  0.00000000000E+00  0.88265374991E+01  0.89174359668E+01  0.12700000000E+01 0. -1.
         -4   -1    0    0    0  501 -0.00000000000E+00 -0.00000000000E+00 -0.44019363316E+03  0.44019546519E+03  0.12700000000E+01 0. -1.
         25    2    1    2    0    0  0.00000000000E+00  0.00000000000E+00 -0.43136709566E+03  0.44911290115E+03  0.12499930707E+03 0.  0.
    9000005    1    3    3    0    0 -0.30998810518E+02 -0.30740892547E+02 -0.55032147745E+02  0.70252871924E+02  0.10000000000E+01 0.  0.
    9000005    1    3    3    0    0  0.30998810518E+02  0.30740892547E+02 -0.37633494791E+03  0.37886002923E+03  0.10000000000E+01 0.  0.
<mgrwt>
<rscale>  0 0.12499931E+03</rscale>
<asrwt>0</asrwt>
<pdfrwt beam="1">  1        4 0.13650623E-02 0.12499931E+03</pdfrwt>
<pdfrwt beam="2">  1       -4 0.67729213E-01 0.12499931E+03</pdfrwt>
<totfact> 0.60041645E+03</totfact>
</mgrwt>
</event>
<event>
 5    1  0.3184438E-002  0.1249997E+03  0.7818608E-02  0.1235070E+00
          4   -1    0    0  501    0  0.00000000000E+00  0.00000000000E+00  0.94610554646E+02  0.94619078152E+02  0.12700000000E+01 0.  1.
         -4   -1    0    0    0  501 -0.00000000000E+00 -0.00000000000E+00 -0.41267300661E+02  0.41286838143E+02  0.12700000000E+01 0.  1.
         25    2    1    2    0    0  0.00000000000E+00  0.00000000000E+00  0.53343253984E+02  0.13590591630E+03  0.12499966135E+03 0.  0.
    9000005    1    3    3    0    0 -0.29168313459E+02  0.35409875810E+02 -0.19463914181E+02  0.49844696509E+02  0.10000000000E+01 0.  0.
    9000005    1    3    3    0    0  0.29168313459E+02 -0.35409875810E+02  0.72807168165E+02  0.86061219786E+02  0.10000000000E+01 0.  0.
<mgrwt>
<rscale>  0 0.12499966E+03</rscale>
<asrwt>0</asrwt>
<pdfrwt beam="1">  1        4 0.14557628E-01 0.12499966E+03</pdfrwt>
<pdfrwt beam="2">  1       -4 0.63509741E-02 0.12499966E+03</pdfrwt>
<totfact> 0.10219090E+04</totfact>
</mgrwt>
</event>
<event>
 5    1  0.3184438E-002  0.1250017E+03  0.7818608E-02  0.1235067E+00
         -4   -1    0    0    0  501 -0.00000000000E+00  0.00000000000E+00  0.51735073221E+02  0.51750658944E+02  0.12700000000E+01 0. -1.
          4   -1    0    0  501    0  0.00000000000E+00 -0.00000000000E+00 -0.75474666393E+02  0.75485350679E+02  0.12700000000E+01 0. -1.
         25    2    1    2    0    0  0.00000000000E+00  0.00000000000E+00 -0.23739593172E+02  0.12723600962E+03  0.12500173543E+03 0.  0.
    9000005    1    3    3    0    0  0.22578057709E+02 -0.35761829867E+01  0.47331634227E+02  0.52572249079E+02  0.10000000000E+01 0.  0.
    9000005    1    3    3    0    0 -0.22578057709E+02  0.35761829867E+01 -0.71071227399E+02  0.74663760545E+02  0.10000000000E+01 0.  0.
<mgrwt>
<rscale>  0 0.12500174E+03</rscale>
<asrwt>0</asrwt>
<pdfrwt beam="2">  1        4 0.11613508E-01 0.12500174E+03</pdfrwt>
<pdfrwt beam="1">  1       -4 0.79612628E-02 0.12500174E+03</pdfrwt>
<totfact> 0.10403615E+04</totfact>
</mgrwt>
</event>
<event>
 5    1  0.3184438E-002  0.1250036E+03  0.7818608E-02  0.1235064E+00
         -4   -1    0    0    0  501 -0.00000000000E+00  0.00000000000E+00  0.57022684931E+03  0.57022826357E+03  0.12700000000E+01 0. -1.
          4   -1    0    0  501    0  0.00000000000E+00 -0.00000000000E+00 -0.67904498124E+01  0.69081914171E+01  0.12700000000E+01 0. -1.
         25    2    1    2    0    0  0.00000000000E+00  0.00000000000E+00  0.56343639949E+03  0.57713645498E+03  0.12500364553E+03 0.  0.
    9000005    1    3    3    0    0 -0.15716453584E+02  0.44998701585E+02  0.46832482909E+03  0.47074519180E+03  0.10000000000E+01 0.  0.
    9000005    1    3    3    0    0  0.15716453584E+02 -0.44998701585E+02  0.95111570399E+02  0.10639126318E+03  0.10000000000E+01 0.  0.
<mgrwt>
<rscale>  0 0.12500365E+03</rscale>
<asrwt>0</asrwt>
<pdfrwt beam="2">  1        4 0.10538501E-02 0.12500365E+03</pdfrwt>
<pdfrwt beam="1">  1       -4 0.87736402E-01 0.12500365E+03</pdfrwt>
<totfact> 0.50339337E+03</totfact>
</mgrwt>
</event>
<event>
 5    1  0.3184438E-002  0.1250021E+03  0.7818608E-02  0.1235066E+00
         -4   -1    0    0    0  501 -0.00000000000E+00  0.00000000000E+00  0.62664693622E+03  0.62664822315E+03  0.12700000000E+01 0. -1.
          4   -1    0    0  501    0  0.00000000000E+00 -0.00000000000E+00 -0.61677911038E+01  0.62971856492E+01  0.12700000000E+01 0. -1.
         25    2    1    2    0    0  0.00000000000E+00  0.00000000000E+00  0.62047914511E+03  0.63294540880E+03  0.12500208395E+03 0.  0.
    9000005    1    3    3    0    0  0.61806887679E+02  0.56960539686E+01  0.34704791307E+03  0.35255608116E+03  0.10000000000E+01 0.  0.
    9000005    1    3    3    0    0 -0.61806887679E+02 -0.56960539686E+01  0.27343123205E+03  0.28038932764E+03  0.10000000000E+01 0.  0.
<mgrwt>
<rscale>  0 0.12500208E+03</rscale>
<asrwt>0</asrwt>
<pdfrwt beam="2">  1        4 0.95894323E-03 0.12500208E+03</pdfrwt>
<pdfrwt beam="1">  1       -4 0.96417286E-01 0.12500208E+03</pdfrwt>
<totfact> 0.46849774E+03</totfact>
</mgrwt>
</event>
<event>
 5    1  0.3184438E-002  0.1249912E+03  0.7818608E-02  0.1235083E+00
         -4   -1    0    0    0  501 -0.00000000000E+00  0.00000000000E+00  0.16164769715E+03  0.16165268601E+03  0.12700000000E+01 0. -1.
          4   -1    0    0  501    0  0.00000000000E+00 -0.00000000000E+00 -0.24139762864E+02  0.24173147316E+02  0.12700000000E+01 0. -1.
         25    2    1    2    0    0  0.00000000000E+00  0.00000000000E+00  0.13750793429E+03  0.18582583333E+03  0.12499123305E+03 0.  0.
    9000005    1    3    3    0    0  0.18058611761E+02 -0.37488600110E+02  0.13806074908E+03  0.14419874838E+03  0.10000000000E+01 0.  0.
    9000005    1    3    3    0    0 -0.18058611761E+02  0.37488600110E+02 -0.55281479604E+00  0.41627084946E+02  0.10000000000E+01 0.  0.
<mgrwt>
<rscale>  0 0.12499123E+03</rscale>
<asrwt>0</asrwt>
<pdfrwt beam="2">  1        4 0.37167614E-02 0.12499123E+03</pdfrwt>
<pdfrwt beam="1">  1       -4 0.24871828E-01 0.12499123E+03</pdfrwt>
<totfact> 0.92596911E+03</totfact>
</mgrwt>
</event>
<event>
 5    1  0.3184438E-002  0.1249951E+03  0.7818608E-02  0.1235077E+00
         -4   -1    0    0    0  501 -0.00000000000E+00  0.00000000000E+00  0.18952006250E+04  0.18952010505E+04  0.12700000000E+01 0. -1.
          4   -1    0    0  501    0  0.00000000000E+00 -0.00000000000E+00 -0.18648507736E+01  0.22562288022E+01  0.12700000000E+01 0. -1.
         25    2    1    2    0    0  0.00000000000E+00  0.00000000000E+00  0.18933357742E+04  0.18974572793E+04  0.12499509149E+03 0.  0.
    9000005    1    3    3    0    0  0.12527746751E+02 -0.60381433571E+02  0.79329377211E+03  0.79568767165E+03  0.10000000000E+01 0.  0.
    9000005    1    3    3    0    0 -0.12527746751E+02  0.60381433571E+02  0.11000420021E+04  0.11017696077E+04  0.10000000000E+01 0.  0.
<mgrwt>
<rscale>  0 0.12499509E+03</rscale>
<asrwt>0</asrwt>
<pdfrwt beam="2">  1        4 0.31703780E-03 0.12499509E+03</pdfrwt>
<pdfrwt beam="1">  1       -4 0.29160043E+00 0.12499509E+03</pdfrwt>
<totfact> 0.11260756E+03</totfact>
</mgrwt>
</event>
<event>
 5    1  0.3184438E-002  0.1249986E+03  0.7818608E-02  0.1235072E+00
         -4   -1    0    0    0  501 -0.00000000000E+00  0.00000000000E+00  0.27911241858E+03  0.27911530790E+03  0.12700000000E+01 0. -1.
          4   -1    0    0  501    0  0.00000000000E+00 -0.00000000000E+00 -0.13963155101E+02  0.14020791717E+02  0.12700000000E+01 0. -1.
         25    2    1    2    0    0  0.00000000000E+00  0.00000000000E+00  0.26514926348E+03  0.29313609962E+03  0.12499856390E+03 0.  0.
    9000005    1    3    3    0    0 -0.59969910692E+02 -0.14833088257E+02  0.11048200487E+03  0.12658469140E+03  0.10000000000E+01 0.  0.
    9000005    1    3    3    0    0  0.59969910692E+02  0.14833088257E+02  0.15466725860E+03  0.16655140822E+03  0.10000000000E+01 0.  0.
<mgrwt>
<rscale>  0 0.12499856E+03</rscale>
<asrwt>0</asrwt>
<pdfrwt beam="2">  1        4 0.21528336E-02 0.12499856E+03</pdfrwt>
<pdfrwt beam="1">  1       -4 0.42945028E-01 0.12499856E+03</pdfrwt>
<totfact> 0.76470418E+03</totfact>
</mgrwt>
</event>
<event>
 5    1  0.3184438E-002  0.1250017E+03  0.7818608E-02  0.1235067E+00
          4   -1    0    0  501    0  0.00000000000E+00  0.00000000000E+00  0.26085683309E+03  0.26085992461E+03  0.12700000000E+01 0. -1.
         -4   -1    0    0    0  501 -0.00000000000E+00 -0.00000000000E+00 -0.14944994583E+02  0.14998858726E+02  0.12700000000E+01 0. -1.
         25    2    1    2    0    0  0.00000000000E+00  0.00000000000E+00  0.24591183851E+03  0.27585878334E+03  0.12500174410E+03 0.  0.
    9000005    1    3    3    0    0  0.19017476440E+02 -0.54815717846E+02  0.71724357159E+02  0.92259475085E+02  0.10000000000E+01 0.  0.
    9000005    1    3    3    0    0 -0.19017476440E+02  0.54815717846E+02  0.17418748135E+03  0.18359930825E+03  0.10000000000E+01 0.  0.
<mgrwt>
<rscale>  0 0.12500174E+03</rscale>
<asrwt>0</asrwt>
<pdfrwt beam="1">  1        4 0.40136199E-01 0.12500174E+03</pdfrwt>
<pdfrwt beam="2">  1       -4 0.23036113E-02 0.12500174E+03</pdfrwt>
<totfact> 0.78727372E+03</totfact>
</mgrwt>
</event>
<event>
 5    1  0.3184438E-002  0.1249995E+03  0.7818608E-02  0.1235070E+00
          4   -1    0    0  501    0  0.00000000000E+00  0.00000000000E+00  0.19484701338E+02  0.19526046355E+02  0.12700000000E+01 0. -1.
         -4   -1    0    0    0  501 -0.00000000000E+00 -0.00000000000E+00 -0.20022033027E+03  0.20022435804E+03  0.12700000000E+01 0. -1.
         25    2    1    2    0    0  0.00000000000E+00  0.00000000000E+00 -0.18073562893E+03  0.21975040440E+03  0.12499949067E+03 0.  0.
    9000005    1    3    3    0    0 -0.35717338135E+02 -0.10214005342E+02 -0.17870961279E+03  0.18253268160E+03  0.10000000000E+01 0.  0.
    9000005    1    3    3    0    0  0.35717338135E+02  0.10214005342E+02 -0.20260161396E+01  0.37217722794E+02  0.10000000000E+01 0.  0.
<mgrwt>
<rscale>  0 0.12499949E+03</rscale>
<asrwt>0</asrwt>
<pdfrwt beam="1">  1        4 0.30011367E-02 0.12499949E+03</pdfrwt>
<pdfrwt beam="2">  1       -4 0.30806617E-01 0.12499949E+03</pdfrwt>
<totfact> 0.86908850E+03</totfact>
</mgrwt>
</event>
<event>
 5    1  0.3184438E-002  0.1250016E+03  0.7818608E-02  0.1235067E+00
         -4   -1    0    0    0  501 -0.00000000000E+00  0.00000000000E+00  0.70477102103E+02  0.70488543898E+02  0.12700000000E+01 0. -1.
          4   -1    0    0  501    0  0.00000000000E+00 -0.00000000000E+00 -0.55403973121E+02  0.55418527025E+02  0.12700000000E+01 0. -1.
         25    2    1    2    0    0  0.00000000000E+00  0.00000000000E+00  0.15073128982E+02  0.12590707092E+03  0.12500156515E+03 0.  0.
    9000005    1    3    3    0    0  0.28633569061E+02  0.52459992715E+02 -0.10855382197E+02  0.60751719609E+02  0.10000000000E+01 0.  0.
    9000005    1    3    3    0    0 -0.28633569061E+02 -0.52459992715E+02  0.25928511179E+02  0.65155351313E+02  0.10000000000E+01 0.  0.
<mgrwt>
<rscale>  0 0.12500157E+03</rscale>
<asrwt>0</asrwt>
<pdfrwt beam="2">  1        4 0.85256879E-02 0.12500157E+03</pdfrwt>
<pdfrwt beam="1">  1       -4 0.10844631E-01 0.12500157E+03</pdfrwt>
<totfact> 0.10432626E+04</totfact>
</mgrwt>
</event>
<event>
 5    1  0.3184438E-002  0.1249982E+03  0.7818608E-02  0.1235072E+00
         -4   -1    0    0    0  501 -0.00000000000E+00  0.00000000000E+00  0.11107537220E+03  0.11108263235E+03  0.12700000000E+01 0.  1.
          4   -1    0    0  501    0  0.00000000000E+00 -0.00000000000E+00 -0.35146686756E+02  0.35169624535E+02  0.12700000000E+01 0.  1.
         25    2    1    2    0    0  0.00000000000E+00  0.00000000000E+00  0.75928685442E+02  0.14625225688E+03  0.12499822947E+03 0.  0.
    9000005    1    3    3    0    0  0.66182712132E+00  0.32234071163E+02 -0.24669852173E+02  0.40608804035E+02  0.10000000000E+01 0.  0.
    9000005    1    3    3    0    0 -0.66182712132E+00 -0.32234071163E+02  0.10059853762E+03  0.10564345285E+03  0.10000000000E+01 0.  0.
<mgrwt>
<rscale>  0 0.12499823E+03</rscale>
<asrwt>0</asrwt>
<pdfrwt beam="2">  1        4 0.54095056E-02 0.12499823E+03</pdfrwt>
<pdfrwt beam="1">  1       -4 0.17090841E-01 0.12499823E+03</pdfrwt>
<totfact> 0.10006006E+04</totfact>
</mgrwt>
</event>
<event>
 5    1  0.3184438E-002  0.1249579E+03  0.7818608E-02  0.1235135E+00
          4   -1    0    0  501    0  0.00000000000E+00  0.00000000000E+00  0.36081188214E+03  0.36081411723E+03  0.12700000000E+01 0.  1.
         -4   -1    0    0    0  501 -0.00000000000E+00 -0.00000000000E+00 -0.10779437102E+02  0.10853993008E+02  0.12700000000E+01 0.  1.
         25    2    1    2    0    0  0.00000000000E+00  0.00000000000E+00  0.35003244504E+03  0.37166811024E+03  0.12495787926E+03 0.  0.
    9000005    1    3    3    0    0  0.26872119449E+02  0.42601464534E+02  0.28493122036E+03  0.28935064527E+03  0.10000000000E+01 0.  0.
    9000005    1    3    3    0    0 -0.26872119449E+02 -0.42601464534E+02  0.65101224684E+02  0.82317464972E+02  0.10000000000E+01 0.  0.
<mgrwt>
<rscale>  0 0.12495788E+03</rscale>
<asrwt>0</asrwt>
<pdfrwt beam="1">  1        4 0.55515432E-01 0.12495788E+03</pdfrwt>
<pdfrwt beam="2">  1       -4 0.16642818E-02 0.12495788E+03</pdfrwt>
<totfact> 0.67467578E+03</totfact>
</mgrwt>
</event>
<event>
 5    1  0.3184438E-002  0.1250004E+03  0.7818608E-02  0.1235069E+00
         -4   -1    0    0    0  501 -0.00000000000E+00  0.00000000000E+00  0.19894412946E+03  0.19894818307E+03  0.12700000000E+01 0. -1.
          4   -1    0    0  501    0  0.00000000000E+00 -0.00000000000E+00 -0.19610250017E+02  0.19651330890E+02  0.12700000000E+01 0. -1.
         25    2    1    2    0    0  0.00000000000E+00  0.00000000000E+00  0.17933387944E+03  0.21859951396E+03  0.12500042875E+03 0.  0.
    9000005    1    3    3    0    0 -0.23966848753E+01 -0.61860962546E+02  0.74750466228E+02  0.97062634349E+02  0.10000000000E+01 0.  0.
    9000005    1    3    3    0    0  0.23966848753E+01  0.61860962546E+02  0.10458341321E+03  0.12153687961E+03  0.10000000000E+01 0.  0.
<mgrwt>
<rscale>  0 0.12500043E+03</rscale>
<asrwt>0</asrwt>
<pdfrwt beam="2">  1        4 0.30204334E-02 0.12500043E+03</pdfrwt>
<pdfrwt beam="1">  1       -4 0.30610262E-01 0.12500043E+03</pdfrwt>
<totfact> 0.87089609E+03</totfact>
</mgrwt>
</event>
<event>
 5    1  0.3184438E-002  0.1250017E+03  0.7818608E-02  0.1235067E+00
         -4   -1    0    0    0  501 -0.00000000000E+00  0.00000000000E+00  0.79335558529E+01  0.80345633653E+01  0.12700000000E+01 0.  1.
          4   -1    0    0  501    0  0.00000000000E+00 -0.00000000000E+00 -0.48916764812E+03  0.48916929674E+03  0.12700000000E+01 0.  1.
         25    2    1    2    0    0  0.00000000000E+00  0.00000000000E+00 -0.48123409227E+03  0.49720386010E+03  0.12500170774E+03 0.  0.
    9000005    1    3    3    0    0  0.51215363394E+02 -0.26142328125E+01 -0.98560804106E+02  0.11110841447E+03  0.10000000000E+01 0.  0.
    9000005    1    3    3    0    0 -0.51215363394E+02  0.26142328125E+01 -0.38267328816E+03  0.38609544563E+03  0.10000000000E+01 0.  0.
<mgrwt>
<rscale>  0 0.12500171E+03</rscale>
<asrwt>0</asrwt>
<pdfrwt beam="2">  1        4 0.75264434E-01 0.12500171E+03</pdfrwt>
<pdfrwt beam="1">  1       -4 0.12284441E-02 0.12500171E+03</pdfrwt>
<totfact> 0.56079871E+03</totfact>
</mgrwt>
</event>
<event>
 5    1  0.3184438E-002  0.1250010E+03  0.7818608E-02  0.1235068E+00
         -4   -1    0    0    0  501 -0.00000000000E+00  0.00000000000E+00  0.89890120745E+03  0.89890210460E+03  0.12700000000E+01 0. -1.
          4   -1    0    0  501    0  0.00000000000E+00 -0.00000000000E+00 -0.42519483903E+01  0.44375629701E+01  0.12700000000E+01 0. -1.
         25    2    1    2    0    0  0.00000000000E+00  0.00000000000E+00  0.89464925906E+03  0.90333966757E+03  0.12500103308E+03 0.  0.
    9000005    1    3    3    0    0 -0.51881013620E+02  0.32607105179E+02  0.35868335181E+03  0.36388131272E+03  0.10000000000E+01 0.  0.
    9000005    1    3    3    0    0  0.51881013620E+02 -0.32607105179E+02  0.53596590725E+03  0.53945835485E+03  0.10000000000E+01 0.  0.
<mgrwt>
<rscale>  0 0.12500103E+03</rscale>
<asrwt>0</asrwt>
<pdfrwt beam="2">  1        4 0.66849272E-03 0.12500103E+03</pdfrwt>
<pdfrwt beam="1">  1       -4 0.13830689E+00 0.12500103E+03</pdfrwt>
<totfact> 0.34031579E+03</totfact>
</mgrwt>
</event>
<event>
 5    1  0.3184438E-002  0.1249996E+03  0.7818608E-02  0.1235070E+00
          4   -1    0    0  501    0  0.00000000000E+00  0.00000000000E+00  0.43615844491E+01  0.45427215308E+01  0.12700000000E+01 0.  1.
         -4   -1    0    0    0  501 -0.00000000000E+00 -0.00000000000E+00 -0.87719691890E+03  0.87719783824E+03  0.12700000000E+01 0.  1.
         25    2    1    2    0    0  0.00000000000E+00  0.00000000000E+00 -0.87283533445E+03  0.88174055978E+03  0.12499957477E+03 0.  0.
    9000005    1    3    3    0    0  0.24077387750E+02 -0.12578674051E+02 -0.39431387558E+02  0.47893402119E+02  0.10000000000E+01 0.  0.
    9000005    1    3    3    0    0 -0.24077387750E+02  0.12578674051E+02 -0.83340394689E+03  0.83384715766E+03  0.10000000000E+01 0.  0.
<mgrwt>
<rscale>  0 0.12499957E+03</rscale>
<asrwt>0</asrwt>
<pdfrwt beam="1">  1        4 0.68501803E-03 0.12499957E+03</pdfrwt>
<pdfrwt beam="2">  1       -4 0.13496724E+00 0.12499957E+03</pdfrwt>
<totfact> 0.34862838E+03</totfact>
</mgrwt>
</event>
<event>
 5    1  0.3184438E-002  0.1249994E+03  0.7818608E-02  0.1235070E+00
          4   -1    0    0  501    0  0.00000000000E+00  0.00000000000E+00  0.12737943255E+02  0.12801097545E+02  0.12700000000E+01 0.  1.
         -4   -1    0    0    0  501 -0.00000000000E+00 -0.00000000000E+00 -0.30583672261E+03  0.30583935947E+03  0.12700000000E+01 0.  1.
         25    2    1    2    0    0  0.00000000000E+00  0.00000000000E+00 -0.29309877936E+03  0.31864045701E+03  0.12499938553E+03 0.  0.
    9000005    1    3    3    0    0 -0.53812364480E+02 -0.29993472752E+02 -0.11983417280E+03  0.13474645803E+03  0.10000000000E+01 0.  0.
    9000005    1    3    3    0    0  0.53812364480E+02  0.29993472752E+02 -0.17326460655E+03  0.18389399898E+03  0.10000000000E+01 0.  0.
<mgrwt>
<rscale>  0 0.12499939E+03</rscale>
<asrwt>0</asrwt>
<pdfrwt beam="1">  1        4 0.19647447E-02 0.12499939E+03</pdfrwt>
<pdfrwt beam="2">  1       -4 0.47056859E-01 0.12499939E+03</pdfrwt>
<totfact> 0.73319118E+03</totfact>
</mgrwt>
</event>
<event>
 5    1  0.3184438E-002  0.1249909E+03  0.7818608E-02  0.1235083E+00
          4   -1    0    0  501    0  0.00000000000E+00  0.00000000000E+00  0.13633080984E+02  0.13692107110E+02  0.12700000000E+01 0.  1.
         -4   -1    0    0    0  501 -0.00000000000E+00 -0.00000000000E+00 -0.28580645920E+03  0.28580928085E+03  0.12700000000E+01 0.  1.
         25    2    1    2    0    0  0.00000000000E+00  0.00000000000E+00 -0.27217337822E+03  0.29950138796E+03  0.12499093399E+03 0.  0.
    9000005    1    3    3    0    0 -0.28762145465E+02  0.54394484626E+02 -0.16218887853E+03  0.17347118864E+03  0.10000000000E+01 0.  0.
    9000005    1    3    3    0    0  0.28762145465E+02 -0.54394484626E+02 -0.10998449968E+03  0.12603019932E+03  0.10000000000E+01 0.  0.
<mgrwt>
<rscale>  0 0.12499093E+03</rscale>
<asrwt>0</asrwt>
<pdfrwt beam="1">  1        4 0.21021548E-02 0.12499093E+03</pdfrwt>
<pdfrwt beam="2">  1       -4 0.43974978E-01 0.12499093E+03</pdfrwt>
<totfact> 0.75676658E+03</totfact>
</mgrwt>
</event>
<event>
 5    1  0.3184438E-002  0.1249997E+03  0.7818608E-02  0.1235070E+00
         -4   -1    0    0    0  501 -0.00000000000E+00  0.00000000000E+00  0.45631659312E+01  0.47366003965E+01  0.12700000000E+01 0. -1.
          4   -1    0    0  501    0  0.00000000000E+00 -0.00000000000E+00 -0.83989664396E+03  0.83989760414E+03  0.12700000000E+01 0. -1.
         25    2    1    2    0    0  0.00000000000E+00  0.00000000000E+00 -0.83533347803E+03  0.84463420454E+03  0.12499967981E+03 0.  0.
    9000005    1    3    3    0    0  0.84450278467E+01  0.15811911112E+02 -0.13149159024E+02  0.22253885310E+02  0.10000000000E+01 0.  0.
    9000005    1    3    3    0    0 -0.84450278467E+01 -0.15811911112E+02 -0.82218431901E+03  0.82238031923E+03  0.10000000000E+01 0.  0.
<mgrwt>
<rscale>  0 0.12499968E+03</rscale>
<asrwt>0</asrwt>
<pdfrwt beam="2">  1        4 0.12922816E+00 0.12499968E+03</pdfrwt>
<pdfrwt beam="1">  1       -4 0.71544117E-03 0.12499968E+03</pdfrwt>
<totfact> 0.36348194E+03</totfact>
</mgrwt>
</event>
<event>
 5    1  0.3184438E-002  0.1249989E+03  0.7818608E-02  0.1235071E+00
          4   -1    0    0  501    0  0.00000000000E+00  0.00000000000E+00  0.55155282167E+02  0.55169901675E+02  0.12700000000E+01 0. -1.
         -4   -1    0    0    0  501 -0.00000000000E+00 -0.00000000000E+00 -0.70791786128E+02  0.70803177070E+02  0.12700000000E+01 0. -1.
         25    2    1    2    0    0  0.00000000000E+00  0.00000000000E+00 -0.15636503961E+02  0.12597307875E+03  0.12499886524E+03 0.  0.
    9000005    1    3    3    0    0 -0.24689872110E+02 -0.61171818642E+01 -0.65343500288E+02  0.70126904457E+02  0.10000000000E+01 0.  0.
    9000005    1    3    3    0    0  0.24689872110E+02  0.61171818642E+01  0.49706996327E+02  0.55846174288E+02  0.10000000000E+01 0.  0.
<mgrwt>
<rscale>  0 0.12499887E+03</rscale>
<asrwt>0</asrwt>
<pdfrwt beam="1">  1        4 0.84874288E-02 0.12499887E+03</pdfrwt>
<pdfrwt beam="2">  1       -4 0.10893045E-01 0.12499887E+03</pdfrwt>
<totfact> 0.10431814E+04</totfact>
</mgrwt>
</event>
<event>
 5    1  0.3184438E-002  0.1249965E+03  0.7818608E-02  0.1235075E+00
          4   -1    0    0  501    0  0.00000000000E+00  0.00000000000E+00  0.73997348727E+02  0.74008246288E+02  0.12700000000E+01 0.  1.
         -4   -1    0    0    0  501 -0.00000000000E+00 -0.00000000000E+00 -0.52763665224E+02  0.52778947203E+02  0.12700000000E+01 0.  1.
         25    2    1    2    0    0  0.00000000000E+00  0.00000000000E+00  0.21233683503E+02  0.12678719349E+03  0.12499649242E+03 0.  0.
    9000005    1    3    3    0    0  0.39426451822E+02  0.20744198237E+02 -0.33831751730E+02  0.55949569157E+02  0.10000000000E+01 0.  0.
    9000005    1    3    3    0    0 -0.39426451822E+02 -0.20744198237E+02  0.55065435233E+02  0.70837624333E+02  0.10000000000E+01 0.  0.
<mgrwt>
<rscale>  0 0.12499649E+03</rscale>
<asrwt>0</asrwt>
<pdfrwt beam="1">  1        4 0.11386221E-01 0.12499649E+03</pdfrwt>
<pdfrwt beam="2">  1       -4 0.81195008E-02 0.12499649E+03</pdfrwt>
<totfact> 0.10414597E+04</totfact>
</mgrwt>
</event>
<event>
 5    1  0.3184438E-002  0.1249951E+03  0.7818608E-02  0.1235077E+00
          4   -1    0    0  501    0  0.00000000000E+00  0.00000000000E+00  0.59730321412E+01  0.61065549175E+01  0.12700000000E+01 0.  1.
         -4   -1    0    0    0  501 -0.00000000000E+00 -0.00000000000E+00 -0.64656749378E+03  0.64656874106E+03  0.12700000000E+01 0.  1.
         25    2    1    2    0    0  0.00000000000E+00  0.00000000000E+00 -0.64059446164E+03  0.65267529597E+03  0.12499511068E+03 0.  0.
    9000005    1    3    3    0    0 -0.15343664248E+02  0.57328149015E+02 -0.21810841220E+03  0.22604031538E+03  0.10000000000E+01 0.  0.
    9000005    1    3    3    0    0  0.15343664248E+02 -0.57328149015E+02 -0.42248604944E+03  0.42663498060E+03  0.10000000000E+01 0.  0.
<mgrwt>
<rscale>  0 0.12499511E+03</rscale>
<asrwt>0</asrwt>
<pdfrwt beam="1">  1        4 0.92929546E-03 0.12499511E+03</pdfrwt>
<pdfrwt beam="2">  1       -4 0.99482234E-01 0.12499511E+03</pdfrwt>
<totfact> 0.45707609E+03</totfact>
</mgrwt>
</event>
<event>
 5    1  0.3184438E-002  0.1250022E+03  0.7818608E-02  0.1235066E+00
         -4   -1    0    0    0  501 -0.00000000000E+00  0.00000000000E+00  0.45538542800E+02  0.45556248533E+02  0.12700000000E+01 0.  1.
          4   -1    0    0  501    0  0.00000000000E+00 -0.00000000000E+00 -0.85742937900E+02  0.85752342823E+02  0.12700000000E+01 0.  1.
         25    2    1    2    0    0  0.00000000000E+00  0.00000000000E+00 -0.40204395100E+02  0.13130859136E+03  0.12500221109E+03 0.  0.
    9000005    1    3    3    0    0  0.72547135451E+00 -0.55619095593E+02  0.98195590413E+01  0.56492776910E+02  0.10000000000E+01 0.  0.
    9000005    1    3    3    0    0 -0.72547135451E+00  0.55619095593E+02 -0.50023954141E+02  0.74815814446E+02  0.10000000000E+01 0.  0.
<mgrwt>
<rscale>  0 0.12500221E+03</rscale>
<asrwt>0</asrwt>
<pdfrwt beam="2">  1        4 0.13193307E-01 0.12500221E+03</pdfrwt>
<pdfrwt beam="1">  1       -4 0.70080151E-02 0.12500221E+03</pdfrwt>
<totfact> 0.10315964E+04</totfact>
</mgrwt>
</event>
<event>
 5    1  0.3184438E-002  0.1250026E+03  0.7818608E-02  0.1235065E+00
          4   -1    0    0  501    0  0.00000000000E+00  0.00000000000E+00  0.17540641416E+03  0.17541101171E+03  0.12700000000E+01 0.  1.
         -4   -1    0    0    0  501 -0.00000000000E+00 -0.00000000000E+00 -0.22247654833E+02  0.22283874115E+02  0.12700000000E+01 0.  1.
         25    2    1    2    0    0  0.00000000000E+00  0.00000000000E+00  0.15315875933E+03  0.19769488582E+03  0.12500264926E+03 0.  0.
    9000005    1    3    3    0    0 -0.49933684413E+02  0.14841837228E+02  0.13117667074E+03  0.14114521571E+03  0.10000000000E+01 0.  0.
    9000005    1    3    3    0    0  0.49933684413E+02 -0.14841837228E+02  0.21982088588E+02  0.56549670115E+02  0.10000000000E+01 0.  0.
<mgrwt>
<rscale>  0 0.12500265E+03</rscale>
<asrwt>0</asrwt>
<pdfrwt beam="1">  1        4 0.26988743E-01 0.12500265E+03</pdfrwt>
<pdfrwt beam="2">  1       -4 0.34258557E-02 0.12500265E+03</pdfrwt>
<totfact> 0.90520030E+03</totfact>
</mgrwt>
</event>
<event>
 5    1  0.3184438E-002  0.1250030E+03  0.7818608E-02  0.1235065E+00
          4   -1    0    0  501    0  0.00000000000E+00  0.00000000000E+00  0.39365433790E+03  0.39365638652E+03  0.12700000000E+01 0.  1.
         -4   -1    0    0    0  501 -0.00000000000E+00 -0.00000000000E+00 -0.98808103795E+01  0.99620938439E+01  0.12700000000E+01 0.  1.
         25    2    1    2    0    0  0.00000000000E+00  0.00000000000E+00  0.38377352753E+03  0.40361848037E+03  0.12500302903E+03 0.  0.
    9000005    1    3    3    0    0  0.43033079104E+01 -0.26821579779E+02  0.37360999219E+03  0.37459757323E+03  0.10000000000E+01 0.  0.
    9000005    1    3    3    0    0 -0.43033079104E+01  0.26821579779E+02  0.10163535330E+02  0.29020907140E+02  0.10000000000E+01 0.  0.
<mgrwt>
<rscale>  0 0.12500303E+03</rscale>
<asrwt>0</asrwt>
<pdfrwt beam="1">  1        4 0.60568619E-01 0.12500303E+03</pdfrwt>
<pdfrwt beam="2">  1       -4 0.15265348E-02 0.12500303E+03</pdfrwt>
<totfact> 0.64198079E+03</totfact>
</mgrwt>
</event>
<event>
 5    1  0.3184438E-002  0.1249986E+03  0.7818608E-02  0.1235071E+00
          4   -1    0    0  501    0  0.00000000000E+00  0.00000000000E+00  0.91453173729E+01  0.92330780269E+01  0.12700000000E+01 0. -1.
         -4   -1    0    0    0  501 -0.00000000000E+00 -0.00000000000E+00 -0.42499344325E+03  0.42499534081E+03  0.12700000000E+01 0. -1.
         25    2    1    2    0    0  0.00000000000E+00  0.00000000000E+00 -0.41584812588E+03  0.43422841884E+03  0.12499862369E+03 0.  0.
    9000005    1    3    3    0    0  0.84851319515E+01 -0.14802273717E+02 -0.41676260070E+03  0.41711289852E+03  0.10000000000E+01 0.  0.
    9000005    1    3    3    0    0 -0.84851319515E+01  0.14802273717E+02  0.91447481819E+00  0.17115520314E+02  0.10000000000E+01 0.  0.
<mgrwt>
<rscale>  0 0.12499862E+03</rscale>
<asrwt>0</asrwt>
<pdfrwt beam="1">  1        4 0.14138690E-02 0.12499862E+03</pdfrwt>
<pdfrwt beam="2">  1       -4 0.65390488E-01 0.12499862E+03</pdfrwt>
<totfact> 0.61356441E+03</totfact>
</mgrwt>
</event>
<event>
 5    1  0.3184438E-002  0.1250004E+03  0.7818608E-02  0.1235069E+00
          4   -1    0    0  501    0  0.00000000000E+00  0.00000000000E+00  0.29480742110E+02  0.29508084576E+02  0.12700000000E+01 0.  1.
         -4   -1    0    0    0  501 -0.00000000000E+00 -0.00000000000E+00 -0.13241073128E+03  0.13241682165E+03  0.12700000000E+01 0.  1.
         25    2    1    2    0    0  0.00000000000E+00  0.00000000000E+00 -0.10292998917E+03  0.16192490623E+03  0.12500037035E+03 0.  0.
    9000005    1    3    3    0    0  0.53226524265E+01  0.12090254399E+02 -0.13058776613E+03  0.13125802659E+03  0.10000000000E+01 0.  0.
    9000005    1    3    3    0    0 -0.53226524265E+01 -0.12090254399E+02  0.27657776966E+02  0.30666879642E+02  0.10000000000E+01 0.  0.
<mgrwt>
<rscale>  0 0.12500037E+03</rscale>
<asrwt>0</asrwt>
<pdfrwt beam="1">  1        4 0.45380706E-02 0.12500037E+03</pdfrwt>
<pdfrwt beam="2">  1       -4 0.20373453E-01 0.12500037E+03</pdfrwt>
<totfact> 0.96972150E+03</totfact>
</mgrwt>
</event>
<event>
 5    1  0.3184438E-002  0.1249992E+03  0.7818608E-02  0.1235071E+00
          4   -1    0    0  501    0  0.00000000000E+00  0.00000000000E+00  0.16896190965E+03  0.16896668255E+03  0.12700000000E+01 0. -1.
         -4   -1    0    0    0  501 -0.00000000000E+00 -0.00000000000E+00 -0.23096277624E+02  0.23131168152E+02  0.12700000000E+01 0. -1.
         25    2    1    2    0    0  0.00000000000E+00  0.00000000000E+00  0.14586563203E+03  0.19209785071E+03  0.12499920655E+03 0.  0.
    9000005    1    3    3    0    0 -0.41377459366E+02  0.24961325062E+02  0.13382624115E+03  0.14228712069E+03  0.10000000000E+01 0.  0.
    9000005    1    3    3    0    0  0.41377459366E+02 -0.24961325062E+02  0.12039390875E+02  0.49810730019E+02  0.10000000000E+01 0.  0.
<mgrwt>
<rscale>  0 0.12499921E+03</rscale>
<asrwt>0</asrwt>
<pdfrwt beam="1">  1        4 0.25997191E-01 0.12499921E+03</pdfrwt>
<pdfrwt beam="2">  1       -4 0.35563245E-02 0.12499921E+03</pdfrwt>
<totfact> 0.91485197E+03</totfact>
</mgrwt>
</event>
<event>
 5    1  0.3184438E-002  0.1250031E+03  0.7818608E-02  0.1235064E+00
         -4   -1    0    0    0  501 -0.00000000000E+00  0.00000000000E+00  0.25815608449E+02  0.25846828424E+02  0.12700000000E+01 0. -1.
          4   -1    0    0  501    0  0.00000000000E+00 -0.00000000000E+00 -0.15119560980E+03  0.15120094353E+03  0.12700000000E+01 0. -1.
         25    2    1    2    0    0  0.00000000000E+00  0.00000000000E+00 -0.12538000135E+03  0.17704777195E+03  0.12500307522E+03 0.  0.
    9000005    1    3    3    0    0 -0.13762934774E+02 -0.59899197768E+02 -0.46658979916E+02  0.77171190697E+02  0.10000000000E+01 0.  0.
    9000005    1    3    3    0    0  0.13762934774E+02  0.59899197768E+02 -0.78721021437E+02  0.99876581253E+02  0.10000000000E+01 0.  0.
<mgrwt>
<rscale>  0 0.12500308E+03</rscale>
<asrwt>0</asrwt>
<pdfrwt beam="2">  1        4 0.23263674E-01 0.12500308E+03</pdfrwt>
<pdfrwt beam="1">  1       -4 0.39744440E-02 0.12500308E+03</pdfrwt>
<totfact> 0.94144636E+03</totfact>
</mgrwt>
</event>
<event>
 5    1  0.3184438E-002  0.1250043E+03  0.7818608E-02  0.1235063E+00
          4   -1    0    0  501    0  0.00000000000E+00  0.00000000000E+00  0.27133300386E+04  0.27133303358E+04  0.12700000000E+01 0.  1.
         -4   -1    0    0    0  501 -0.00000000000E+00 -0.00000000000E+00 -0.11593297004E+01  0.17195770859E+01  0.12700000000E+01 0.  1.
         25    2    1    2    0    0  0.00000000000E+00  0.00000000000E+00  0.27121707089E+04  0.27150499129E+04  0.12500430131E+03 0.  0.
    9000005    1    3    3    0    0  0.56061146830E+02  0.20480325408E+02  0.17584696329E+04  0.17594825222E+04  0.10000000000E+01 0.  0.
    9000005    1    3    3    0    0 -0.56061146830E+02 -0.20480325408E+02  0.95370107596E+03  0.95556739072E+03  0.10000000000E+01 0.  0.
<mgrwt>
<rscale>  0 0.12500430E+03</rscale>
<asrwt>0</asrwt>
<pdfrwt beam="1">  1        4 0.41747432E+00 0.12500430E+03</pdfrwt>
<pdfrwt beam="2">  1       -4 0.22147945E-03 0.12500430E+03</pdfrwt>
<totfact> 0.31915219E+02</totfact>
</mgrwt>
</event>
<event>
 5    1  0.3184438E-002  0.1249966E+03  0.7818608E-02  0.1235075E+00
         -4   -1    0    0    0  501 -0.00000000000E+00  0.00000000000E+00  0.33735676196E+03  0.33735915245E+03  0.12700000000E+01 0. -1.
          4   -1    0    0  501    0  0.00000000000E+00 -0.00000000000E+00 -0.11541088209E+02  0.11610754370E+02  0.12700000000E+01 0. -1.
         25    2    1    2    0    0  0.00000000000E+00  0.00000000000E+00  0.32581567375E+03  0.34896990682E+03  0.12499657036E+03 0.  0.
    9000005    1    3    3    0    0 -0.61941090369E+02 -0.49611740549E+01  0.18136854965E+03  0.19172079367E+03  0.10000000000E+01 0.  0.
    9000005    1    3    3    0    0  0.61941090369E+02  0.49611740549E+01  0.14444712410E+03  0.15724911315E+03  0.10000000000E+01 0.  0.
<mgrwt>
<rscale>  0 0.12499657E+03</rscale>
<asrwt>0</asrwt>
<pdfrwt beam="2">  1        4 0.17810950E-02 0.12499657E+03</pdfrwt>
<pdfrwt beam="1">  1       -4 0.51906578E-01 0.12499657E+03</pdfrwt>
<totfact> 0.69843330E+03</totfact>
</mgrwt>
</event>
<event>
 5    1  0.3184438E-002  0.1250040E+03  0.7818608E-02  0.1235063E+00
          4   -1    0    0  501    0  0.00000000000E+00  0.00000000000E+00  0.44175556055E+03  0.44175738610E+03  0.12700000000E+01 0. -1.
         -4   -1    0    0    0  501 -0.00000000000E+00 -0.00000000000E+00 -0.87956682118E+01  0.88868824282E+01  0.12700000000E+01 0. -1.
         25    2    1    2    0    0  0.00000000000E+00  0.00000000000E+00  0.43295989234E+03  0.45064426853E+03  0.12500395348E+03 0.  0.
    9000005    1    3    3    0    0  0.14347254087E+02 -0.97102600012E+01  0.16445716254E-01  0.17353187592E+02  0.10000000000E+01 0.  0.
    9000005    1    3    3    0    0 -0.14347254087E+02  0.97102600012E+01  0.43294344662E+03  0.43329108094E+03  0.10000000000E+01 0.  0.
<mgrwt>
<rscale>  0 0.12500395E+03</rscale>
<asrwt>0</asrwt>
<pdfrwt beam="1">  1        4 0.67969561E-01 0.12500395E+03</pdfrwt>
<pdfrwt beam="2">  1       -4 0.13603364E-02 0.12500395E+03</pdfrwt>
<totfact> 0.59902798E+03</totfact>
</mgrwt>
</event>
<event>
 5    1  0.3184438E-002  0.1249997E+03  0.7818608E-02  0.1235070E+00
         -4   -1    0    0    0  501 -0.00000000000E+00  0.00000000000E+00  0.42114009853E+02  0.42133154711E+02  0.12700000000E+01 0.  1.
          4   -1    0    0  501    0  0.00000000000E+00 -0.00000000000E+00 -0.92709197899E+02  0.92717896197E+02  0.12700000000E+01 0.  1.
         25    2    1    2    0    0  0.00000000000E+00  0.00000000000E+00 -0.50595188047E+02  0.13485105091E+03  0.12499973151E+03 0.  0.
    9000005    1    3    3    0    0  0.11641917473E+02 -0.26186796594E+02 -0.85207545217E+02  0.89903327637E+02  0.10000000000E+01 0.  0.
    9000005    1    3    3    0    0 -0.11641917473E+02  0.26186796594E+02  0.34612357170E+02  0.44947723270E+02  0.10000000000E+01 0.  0.
<mgrwt>
<rscale>  0 0.12499973E+03</rscale>
<asrwt>0</asrwt>
<pdfrwt beam="2">  1        4 0.14265095E-01 0.12499973E+03</pdfrwt>
<pdfrwt beam="1">  1       -4 0.64812203E-02 0.12499973E+03</pdfrwt>
<totfact> 0.10241273E+04</totfact>
</mgrwt>
</event>
<event>
 5    1  0.3184438E-002  0.1249975E+03  0.7818608E-02  0.1235073E+00
         -4   -1    0    0    0  501 -0.00000000000E+00  0.00000000000E+00  0.20284285695E+03  0.20284683265E+03  0.12700000000E+01 0. -1.
          4   -1    0    0  501    0  0.00000000000E+00 -0.00000000000E+00 -0.19231637436E+02  0.19273525326E+02  0.12700000000E+01 0. -1.
         25    2    1    2    0    0  0.00000000000E+00  0.00000000000E+00  0.18361121951E+03  0.22212035797E+03  0.12499749396E+03 0.  0.
    9000005    1    3    3    0    0  0.96135962169E+00 -0.39760082640E+02  0.61530845629E+01  0.40257282987E+02  0.10000000000E+01 0.  0.
    9000005    1    3    3    0    0 -0.96135962169E+00  0.39760082640E+02  0.17745813495E+03  0.18186307499E+03  0.10000000000E+01 0.  0.
<mgrwt>
<rscale>  0 0.12499749E+03</rscale>
<asrwt>0</asrwt>
<pdfrwt beam="2">  1        4 0.29622413E-02 0.12499749E+03</pdfrwt>
<pdfrwt beam="1">  1       -4 0.31210122E-01 0.12499749E+03</pdfrwt>
<totfact> 0.86538780E+03</totfact>
</mgrwt>
</event>
<event>
 5    1  0.3184438E-002  0.1250021E+03  0.7818608E-02  0.1235066E+00
         -4   -1    0    0    0  501 -0.00000000000E+00  0.00000000000E+00  0.11284602709E+03  0.11285317333E+03  0.12700000000E+01 0.  1.
          4   -1    0    0  501    0  0.00000000000E+00 -0.00000000000E+00 -0.34597008534E+02  0.34620310506E+02  0.12700000000E+01 0.  1.
         25    2    1    2    0    0  0.00000000000E+00  0.00000000000E+00  0.78249018555E+02  0.14747348383E+03  0.12500207810E+03 0.  0.
    9000005    1    3    3    0    0  0.10261787281E+02  0.26592886905E+02 -0.26486878351E+02  0.38923522925E+02  0.10000000000E+01 0.  0.
    9000005    1    3    3    0    0 -0.10261787281E+02 -0.26592886905E+02  0.10473589691E+03  0.10854996091E+03  0.10000000000E+01 0.  0.
<mgrwt>
<rscale>  0 0.12500208E+03</rscale>
<asrwt>0</asrwt>
<pdfrwt beam="2">  1        4 0.53249590E-02 0.12500208E+03</pdfrwt>
<pdfrwt beam="1">  1       -4 0.17363269E-01 0.12500208E+03</pdfrwt>
<totfact> 0.99805057E+03</totfact>
</mgrwt>
</event>
<event>
 5    1  0.3184438E-002  0.1250015E+03  0.7818608E-02  0.1235067E+00
         -4   -1    0    0    0  501 -0.00000000000E+00  0.00000000000E+00  0.13151121360E+03  0.13151734563E+03  0.12700000000E+01 0.  1.
          4   -1    0    0  501    0  0.00000000000E+00 -0.00000000000E+00 -0.29683120823E+02  0.29710277040E+02  0.12700000000E+01 0.  1.
         25    2    1    2    0    0  0.00000000000E+00  0.00000000000E+00  0.10182809277E+03  0.16122762267E+03  0.12500154333E+03 0.  0.
    9000005    1    3    3    0    0  0.33910146988E+01 -0.61944606115E+02  0.41200756561E+02  0.74479094709E+02  0.10000000000E+01 0.  0.
    9000005    1    3    3    0    0 -0.33910146988E+01  0.61944606115E+02  0.60627336211E+02  0.86748527961E+02  0.10000000000E+01 0.  0.
<mgrwt>
<rscale>  0 0.12500154E+03</rscale>
<asrwt>0</asrwt>
<pdfrwt beam="2">  1        4 0.45691946E-02 0.12500154E+03</pdfrwt>
<pdfrwt beam="1">  1       -4 0.20235055E-01 0.12500154E+03</pdfrwt>
<totfact> 0.97103262E+03</totfact>
</mgrwt>
</event>
<event>
 5    1  0.3184438E-002  0.1250052E+03  0.7818608E-02  0.1235061E+00
          4   -1    0    0  501    0  0.00000000000E+00  0.00000000000E+00  0.39896987692E+01  0.41869554892E+01  0.12700000000E+01 0.  1.
         -4   -1    0    0    0  501 -0.00000000000E+00 -0.00000000000E+00 -0.95534593713E+03  0.95534678127E+03  0.12700000000E+01 0.  1.
         25    2    1    2    0    0  0.00000000000E+00  0.00000000000E+00 -0.95135623836E+03  0.95953373676E+03  0.12500519877E+03 0.  0.
    9000005    1    3    3    0    0  0.38874902688E+02 -0.23052379385E+02 -0.14437350058E+03  0.15128574924E+03  0.10000000000E+01 0.  0.
    9000005    1    3    3    0    0 -0.38874902688E+02  0.23052379385E+02 -0.80698273778E+03  0.80824798752E+03  0.10000000000E+01 0.  0.
<mgrwt>
<rscale>  0 0.12500520E+03</rscale>
<asrwt>0</asrwt>
<pdfrwt beam="1">  1        4 0.62903910E-03 0.12500520E+03</pdfrwt>
<pdfrwt beam="2">  1       -4 0.14699136E+00 0.12500520E+03</pdfrwt>
<totfact> 0.31976297E+03</totfact>
</mgrwt>
</event>
<event>
 5    1  0.3184438E-002  0.1250002E+03  0.7818608E-02  0.1235069E+00
         -4   -1    0    0    0  501 -0.00000000000E+00  0.00000000000E+00  0.34480790693E+03  0.34481024576E+03  0.12700000000E+01 0.  1.
          4   -1    0    0  501    0  0.00000000000E+00 -0.00000000000E+00 -0.11290826403E+02  0.11362027146E+02  0.12700000000E+01 0.  1.
         25    2    1    2    0    0  0.00000000000E+00  0.00000000000E+00  0.33351708053E+03  0.35617227291E+03  0.12500017994E+03 0.  0.
    9000005    1    3    3    0    0 -0.19832508176E+02  0.19007843941E+02  0.32669537540E+03  0.32784980528E+03  0.10000000000E+01 0.  0.
    9000005    1    3    3    0    0  0.19832508176E+02 -0.19007843941E+02  0.68217051272E+01  0.28322467631E+02  0.10000000000E+01 0.  0.
<mgrwt>
<rscale>  0 0.12500018E+03</rscale>
<asrwt>0</asrwt>
<pdfrwt beam="2">  1        4 0.17427073E-02 0.12500018E+03</pdfrwt>
<pdfrwt beam="1">  1       -4 0.53053020E-01 0.12500018E+03</pdfrwt>
<totfact> 0.69050554E+03</totfact>
</mgrwt>
</event>
<event>
 5    1  0.3184438E-002  0.1250116E+03  0.7818608E-02  0.1235051E+00
          4   -1    0    0  501    0  0.00000000000E+00  0.00000000000E+00  0.31642208204E+01  0.34095737857E+01  0.12700000000E+01 0. -1.
         -4   -1    0    0    0  501 -0.00000000000E+00 -0.00000000000E+00 -0.11884060177E+04  0.11884066963E+04  0.12700000000E+01 0. -1.
         25    2    1    2    0    0  0.00000000000E+00  0.00000000000E+00 -0.11852417969E+04  0.11918162701E+04  0.12501161772E+03 0.  0.
    9000005    1    3    3    0    0 -0.39658613439E+02 -0.20103476770E+02 -0.10113444448E+04  0.10123218566E+04  0.10000000000E+01 0.  0.
    9000005    1    3    3    0    0  0.39658613439E+02  0.20103476770E+02 -0.17389735209E+03  0.17949441345E+03  0.10000000000E+01 0.  0.
<mgrwt>
<rscale>  0 0.12501162E+03</rscale>
<asrwt>0</asrwt>
<pdfrwt beam="1">  1        4 0.50572965E-03 0.12501162E+03</pdfrwt>
<pdfrwt beam="2">  1       -4 0.18285028E+00 0.12501162E+03</pdfrwt>
<totfact> 0.24921708E+03</totfact>
</mgrwt>
</event>
<event>
 5    1  0.3184438E-002  0.1249978E+03  0.7818608E-02  0.1235073E+00
          4   -1    0    0  501    0  0.00000000000E+00  0.00000000000E+00  0.76586448476E+02  0.76596977683E+02  0.12700000000E+01 0.  1.
         -4   -1    0    0    0  501 -0.00000000000E+00 -0.00000000000E+00 -0.50980684572E+02  0.50996500855E+02  0.12700000000E+01 0.  1.
         25    2    1    2    0    0  0.00000000000E+00  0.00000000000E+00  0.25605763904E+02  0.12759347854E+03  0.12499776246E+03 0.  0.
    9000005    1    3    3    0    0 -0.43944316308E+02 -0.41998986932E+02 -0.19926751699E+01  0.60827531541E+02  0.10000000000E+01 0.  0.
    9000005    1    3    3    0    0  0.43944316308E+02  0.41998986932E+02  0.27598439073E+02  0.66765946996E+02  0.10000000000E+01 0.  0.
<mgrwt>
<rscale>  0 0.12499776E+03</rscale>
<asrwt>0</asrwt>
<pdfrwt beam="1">  1        4 0.11784557E-01 0.12499776E+03</pdfrwt>
<pdfrwt beam="2">  1       -4 0.78452089E-02 0.12499776E+03</pdfrwt>
<totfact> 0.10396802E+04</totfact>
</mgrwt>
</event>
<event>
 5    1  0.3184438E-002  0.1250013E+03  0.7818608E-02  0.1235067E+00
          4   -1    0    0  501    0  0.00000000000E+00  0.00000000000E+00  0.13243130670E+02  0.13303887023E+02  0.12700000000E+01 0. -1.
         -4   -1    0    0    0  501 -0.00000000000E+00 -0.00000000000E+00 -0.29423309598E+03  0.29423583682E+03  0.12700000000E+01 0. -1.
         25    2    1    2    0    0  0.00000000000E+00  0.00000000000E+00 -0.28098996531E+03  0.30753972385E+03  0.12500128454E+03 0.  0.
    9000005    1    3    3    0    0 -0.52021926865E+02 -0.30308180788E+02 -0.18169761720E+03  0.19141549256E+03  0.10000000000E+01 0.  0.
    9000005    1    3    3    0    0  0.52021926865E+02  0.30308180788E+02 -0.99292348114E+02  0.11612423128E+03  0.10000000000E+01 0.  0.
<mgrwt>
<rscale>  0 0.12500128E+03</rscale>
<asrwt>0</asrwt>
<pdfrwt beam="1">  1        4 0.20422893E-02 0.12500128E+03</pdfrwt>
<pdfrwt beam="2">  1       -4 0.45271510E-01 0.12500128E+03</pdfrwt>
<totfact> 0.74660573E+03</totfact>
</mgrwt>
</event>
<event>
 5    1  0.3184438E-002  0.1250060E+03  0.7818608E-02  0.1235060E+00
          4   -1    0    0  501    0  0.00000000000E+00  0.00000000000E+00  0.76353168649E+02  0.76363730022E+02  0.12700000000E+01 0.  1.
         -4   -1    0    0    0  501 -0.00000000000E+00 -0.00000000000E+00 -0.51143178294E+02  0.51158944341E+02  0.12700000000E+01 0.  1.
         25    2    1    2    0    0  0.00000000000E+00  0.00000000000E+00  0.25209990355E+02  0.12752267436E+03  0.12500595531E+03 0.  0.
    9000005    1    3    3    0    0  0.62063028686E+02 -0.38273609452E+01  0.62217026895E+01  0.62499422444E+02  0.10000000000E+01 0.  0.
    9000005    1    3    3    0    0 -0.62063028686E+02  0.38273609452E+01  0.18988287666E+02  0.65023251918E+02  0.10000000000E+01 0.  0.
<mgrwt>
<rscale>  0 0.12500596E+03</rscale>
<asrwt>0</asrwt>
<pdfrwt beam="1">  1        4 0.11748666E-01 0.12500596E+03</pdfrwt>
<pdfrwt beam="2">  1       -4 0.78702065E-02 0.12500596E+03</pdfrwt>
<totfact> 0.10396412E+04</totfact>
</mgrwt>
</event>
<event>
 5    1  0.3184438E-002  0.1250016E+03  0.7818608E-02  0.1235067E+00
         -4   -1    0    0    0  501 -0.00000000000E+00  0.00000000000E+00  0.30527079862E+02  0.30553485970E+02  0.12700000000E+01 0.  1.
          4   -1    0    0  501    0  0.00000000000E+00 -0.00000000000E+00 -0.12787853893E+03  0.12788484515E+03  0.12700000000E+01 0.  1.
         25    2    1    2    0    0  0.00000000000E+00  0.00000000000E+00 -0.97351459071E+02  0.15843833112E+03  0.12500159273E+03 0.  0.
    9000005    1    3    3    0    0  0.45787384005E+02  0.41621118343E+02 -0.59765186389E+02  0.86033014188E+02  0.10000000000E+01 0.  0.
    9000005    1    3    3    0    0 -0.45787384005E+02 -0.41621118343E+02 -0.37586272681E+02  0.72405316934E+02  0.10000000000E+01 0.  0.
<mgrwt>
<rscale>  0 0.12500159E+03</rscale>
<asrwt>0</asrwt>
<pdfrwt beam="2">  1        4 0.19676137E-01 0.12500159E+03</pdfrwt>
<pdfrwt beam="1">  1       -4 0.46989902E-02 0.12500159E+03</pdfrwt>
<totfact> 0.97641214E+03</totfact>
</mgrwt>
</event>
<event>
 5    1  0.3184438E-002  0.1250009E+03  0.7818608E-02  0.1235068E+00
         -4   -1    0    0    0  501 -0.00000000000E+00  0.00000000000E+00  0.16120466159E+02  0.16170415245E+02  0.12700000000E+01 0.  1.
          4   -1    0    0  501    0  0.00000000000E+00 -0.00000000000E+00 -0.24189317272E+03  0.24189650661E+03  0.12700000000E+01 0.  1.
         25    2    1    2    0    0  0.00000000000E+00  0.00000000000E+00 -0.22577270656E+03  0.25806692185E+03  0.12500088450E+03 0.  0.
    9000005    1    3    3    0    0  0.46966934768E+02  0.40968518736E+02 -0.10342715426E+03  0.12075797583E+03  0.10000000000E+01 0.  0.
    9000005    1    3    3    0    0 -0.46966934768E+02 -0.40968518736E+02 -0.12234555230E+03  0.13730894602E+03  0.10000000000E+01 0.  0.
<mgrwt>
<rscale>  0 0.12500088E+03</rscale>
<asrwt>0</asrwt>
<pdfrwt beam="2">  1        4 0.37218430E-01 0.12500088E+03</pdfrwt>
<pdfrwt beam="1">  1       -4 0.24841706E-02 0.12500088E+03</pdfrwt>
<totfact> 0.81176511E+03</totfact>
</mgrwt>
</event>
<event>
 5    1  0.3184438E-002  0.1249988E+03  0.7818608E-02  0.1235071E+00
          4   -1    0    0  501    0  0.00000000000E+00  0.00000000000E+00  0.22023455681E+02  0.22060043067E+02  0.12700000000E+01 0. -1.
         -4   -1    0    0    0  501 -0.00000000000E+00 -0.00000000000E+00 -0.17717836202E+03  0.17718291359E+03  0.12700000000E+01 0. -1.
         25    2    1    2    0    0  0.00000000000E+00  0.00000000000E+00 -0.15515490634E+03  0.19924295666E+03  0.12499884326E+03 0.  0.
    9000005    1    3    3    0    0 -0.40113951414E+02  0.25202842081E+02 -0.12617725284E+02  0.49035898466E+02  0.10000000000E+01 0.  0.
    9000005    1    3    3    0    0  0.40113951414E+02 -0.25202842081E+02 -0.14253718106E+03  0.15020705819E+03  0.10000000000E+01 0.  0.
<mgrwt>
<rscale>  0 0.12499884E+03</rscale>
<asrwt>0</asrwt>
<pdfrwt beam="1">  1        4 0.33913886E-02 0.12499884E+03</pdfrwt>
<pdfrwt beam="2">  1       -4 0.27261373E-01 0.12499884E+03</pdfrwt>
<totfact> 0.90265682E+03</totfact>
</mgrwt>
</event>
<event>
 5    1  0.3184438E-002  0.1249962E+03  0.7818608E-02  0.1235075E+00
          4   -1    0    0  501    0  0.00000000000E+00  0.00000000000E+00  0.33387583893E+03  0.33387825434E+03  0.12700000000E+01 0. -1.
         -4   -1    0    0    0  501 -0.00000000000E+00 -0.00000000000E+00 -0.11662062051E+02  0.11731009815E+02  0.12700000000E+01 0. -1.
         25    2    1    2    0    0  0.00000000000E+00  0.00000000000E+00  0.32221377688E+03  0.34560926416E+03  0.12499618178E+03 0.  0.
    9000005    1    3    3    0    0 -0.13845753340E+02 -0.51785298746E+01  0.32898540297E+03  0.32931886892E+03  0.10000000000E+01 0.  0.
    9000005    1    3    3    0    0  0.13845753340E+02  0.51785298746E+01 -0.67716260887E+01  0.16290395241E+02  0.10000000000E+01 0.  0.
<mgrwt>
<rscale>  0 0.12499618E+03</rscale>
<asrwt>0</asrwt>
<pdfrwt beam="1">  1        4 0.51370994E-01 0.12499618E+03</pdfrwt>
<pdfrwt beam="2">  1       -4 0.17996532E-02 0.12499618E+03</pdfrwt>
<totfact> 0.70216246E+03</totfact>
</mgrwt>
</event>
<event>
 5    1  0.3184438E-002  0.1249999E+03  0.7818608E-02  0.1235069E+00
         -4   -1    0    0    0  501 -0.00000000000E+00  0.00000000000E+00  0.24252426892E+02  0.24285656470E+02  0.12700000000E+01 0.  1.
          4   -1    0    0  501    0  0.00000000000E+00 -0.00000000000E+00 -0.16092007628E+03  0.16092508770E+03  0.12700000000E+01 0.  1.
         25    2    1    2    0    0  0.00000000000E+00  0.00000000000E+00 -0.13666764939E+03  0.18521074417E+03  0.12499989346E+03 0.  0.
    9000005    1    3    3    0    0 -0.14720667680E+02  0.26414660562E+02  0.12697141601E+02  0.32812341495E+02  0.10000000000E+01 0.  0.
    9000005    1    3    3    0    0  0.14720667680E+02 -0.26414660562E+02 -0.14936479099E+03  0.15239840268E+03  0.10000000000E+01 0.  0.
<mgrwt>
<rscale>  0 0.12499989E+03</rscale>
<asrwt>0</asrwt>
<pdfrwt beam="2">  1        4 0.24759876E-01 0.12499989E+03</pdfrwt>
<pdfrwt beam="1">  1       -4 0.37340843E-02 0.12499989E+03</pdfrwt>
<totfact> 0.92687594E+03</totfact>
</mgrwt>
</event>
<event>
 5    1  0.3184438E-002  0.1250008E+03  0.7818608E-02  0.1235068E+00
         -4   -1    0    0    0  501 -0.00000000000E+00  0.00000000000E+00  0.82639567066E+02  0.82649325133E+02  0.12700000000E+01 0. -1.
          4   -1    0    0  501    0  0.00000000000E+00 -0.00000000000E+00 -0.47248046351E+02  0.47265111700E+02  0.12700000000E+01 0. -1.
         25    2    1    2    0    0  0.00000000000E+00  0.00000000000E+00  0.35391520716E+02  0.12991443683E+03  0.12500080463E+03 0.  0.
    9000005    1    3    3    0    0 -0.18679383543E+02  0.54822274537E+02  0.42089627355E+02  0.71602638819E+02  0.10000000000E+01 0.  0.
    9000005    1    3    3    0    0  0.18679383543E+02 -0.54822274537E+02 -0.66981066390E+01  0.58311798013E+02  0.10000000000E+01 0.  0.
<mgrwt>
<rscale>  0 0.12500080E+03</rscale>
<asrwt>0</asrwt>
<pdfrwt beam="2">  1        4 0.72709935E-02 0.12500080E+03</pdfrwt>
<pdfrwt beam="1">  1       -4 0.12715843E-01 0.12500080E+03</pdfrwt>
<totfact> 0.10346150E+04</totfact>
</mgrwt>
</event>
<event>
 5    1  0.3184438E-002  0.1250028E+03  0.7818608E-02  0.1235065E+00
         -4   -1    0    0    0  501 -0.00000000000E+00  0.00000000000E+00  0.77424676276E+02  0.77435091505E+02  0.12700000000E+01 0.  1.
          4   -1    0    0  501    0  0.00000000000E+00 -0.00000000000E+00 -0.50432713944E+02  0.50448702023E+02  0.12700000000E+01 0.  1.
         25    2    1    2    0    0  0.00000000000E+00  0.00000000000E+00  0.26991962332E+02  0.12788379353E+03  0.12500279443E+03 0.  0.
    9000005    1    3    3    0    0 -0.56678218157E+02  0.20908058545E+02 -0.28682165976E+01  0.60487965680E+02  0.10000000000E+01 0.  0.
    9000005    1    3    3    0    0  0.56678218157E+02 -0.20908058545E+02  0.29860178929E+02  0.67395827848E+02  0.10000000000E+01 0.  0.
<mgrwt>
<rscale>  0 0.12500279E+03</rscale>
<asrwt>0</asrwt>
<pdfrwt beam="2">  1        4 0.77609101E-02 0.12500279E+03</pdfrwt>
<pdfrwt beam="1">  1       -4 0.11913520E-01 0.12500279E+03</pdfrwt>
<totfact> 0.10389343E+04</totfact>
</mgrwt>
</event>
<event>
 5    1  0.3184438E-002  0.1250025E+03  0.7818608E-02  0.1235065E+00
          4   -1    0    0  501    0  0.00000000000E+00  0.00000000000E+00  0.21662502922E+03  0.21662875198E+03  0.12700000000E+01 0.  1.
         -4   -1    0    0    0  501 -0.00000000000E+00 -0.00000000000E+00 -0.18006778153E+02  0.18051508509E+02  0.12700000000E+01 0.  1.
         25    2    1    2    0    0  0.00000000000E+00  0.00000000000E+00  0.19861825106E+03  0.23468026048E+03  0.12500246000E+03 0.  0.
    9000005    1    3    3    0    0 -0.13874738989E+02 -0.57637826296E+02  0.13642179018E+03  0.14874989828E+03  0.10000000000E+01 0.  0.
    9000005    1    3    3    0    0  0.13874738989E+02  0.57637826296E+02  0.62196460879E+02  0.85930362201E+02  0.10000000000E+01 0.  0.
<mgrwt>
<rscale>  0 0.12500246E+03</rscale>
<asrwt>0</asrwt>
<pdfrwt beam="1">  1        4 0.33330656E-01 0.12500246E+03</pdfrwt>
<pdfrwt beam="2">  1       -4 0.27740006E-02 0.12500246E+03</pdfrwt>
<totfact> 0.84591438E+03</totfact>
</mgrwt>
</event>
<event>
 5    1  0.3184438E-002  0.1250024E+03  0.7818608E-02  0.1235066E+00
          4   -1    0    0  501    0  0.00000000000E+00  0.00000000000E+00  0.66694785478E+01  0.67893183826E+01  0.12700000000E+01 0.  1.
         -4   -1    0    0    0  501 -0.00000000000E+00 -0.00000000000E+00 -0.58037705884E+03  0.58037844837E+03  0.12700000000E+01 0.  1.
         25    2    1    2    0    0  0.00000000000E+00  0.00000000000E+00 -0.57370758030E+03  0.58716776675E+03  0.12500239447E+03 0.  0.
    9000005    1    3    3    0    0 -0.11469659586E+02 -0.51783145837E+02 -0.13160606243E+03  0.14189504202E+03  0.10000000000E+01 0.  0.
    9000005    1    3    3    0    0  0.11469659586E+02  0.51783145837E+02 -0.44210151787E+03  0.44527272473E+03  0.10000000000E+01 0.  0.
<mgrwt>
<rscale>  0 0.12500239E+03</rscale>
<asrwt>0</asrwt>
<pdfrwt beam="1">  1        4 0.10353994E-02 0.12500239E+03</pdfrwt>
<pdfrwt beam="2">  1       -4 0.89298064E-01 0.12500239E+03</pdfrwt>
<totfact> 0.49685174E+03</totfact>
</mgrwt>
</event>
<event>
 5    1  0.3184438E-002  0.1249742E+03  0.7818608E-02  0.1235110E+00
          4   -1    0    0  501    0  0.00000000000E+00  0.00000000000E+00  0.10021608766E+02  0.10101759364E+02  0.12700000000E+01 0.  1.
         -4   -1    0    0    0  501 -0.00000000000E+00 -0.00000000000E+00 -0.38798859790E+03  0.38799067643E+03  0.12700000000E+01 0.  1.
         25    2    1    2    0    0  0.00000000000E+00  0.00000000000E+00 -0.37796698913E+03  0.39809243580E+03  0.12497416759E+03 0.  0.
    9000005    1    3    3    0    0  0.31122433299E+02 -0.53544740660E+02 -0.16271785983E+03  0.17410843465E+03  0.10000000000E+01 0.  0.
    9000005    1    3    3    0    0 -0.31122433299E+02  0.53544740660E+02 -0.21524912930E+03  0.22398400115E+03  0.10000000000E+01 0.  0.
<mgrwt>
<rscale>  0 0.12497417E+03</rscale>
<asrwt>0</asrwt>
<pdfrwt beam="1">  1        4 0.15481116E-02 0.12497417E+03</pdfrwt>
<pdfrwt beam="2">  1       -4 0.59696867E-01 0.12497417E+03</pdfrwt>
<totfact> 0.64775683E+03</totfact>
</mgrwt>
</event>
<event>
 5    1  0.3184438E-002  0.1249993E+03  0.7818608E-02  0.1235070E+00
         -4   -1    0    0    0  501 -0.00000000000E+00  0.00000000000E+00  0.57585045480E+01  0.58968868591E+01  0.12700000000E+01 0.  1.
          4   -1    0    0  501    0  0.00000000000E+00 -0.00000000000E+00 -0.67014418896E+03  0.67014539235E+03  0.12700000000E+01 0.  1.
         25    2    1    2    0    0  0.00000000000E+00  0.00000000000E+00 -0.66438568441E+03  0.67604227921E+03  0.12499930254E+03 0.  0.
    9000005    1    3    3    0    0 -0.92351060120E+01  0.41373193916E+02 -0.58051753747E+03  0.58206411990E+03  0.10000000000E+01 0.  0.
    9000005    1    3    3    0    0  0.92351060120E+01 -0.41373193916E+02 -0.83868146934E+02  0.93978159314E+02  0.10000000000E+01 0.  0.
<mgrwt>
<rscale>  0 0.12499930E+03</rscale>
<asrwt>0</asrwt>
<pdfrwt beam="2">  1        4 0.10310978E+00 0.12499930E+03</pdfrwt>
<pdfrwt beam="1">  1       -4 0.89666167E-03 0.12499930E+03</pdfrwt>
<totfact> 0.44382624E+03</totfact>
</mgrwt>
</event>
<event>
 5    1  0.3184438E-002  0.1249975E+03  0.7818608E-02  0.1235073E+00
          4   -1    0    0  501    0  0.00000000000E+00  0.00000000000E+00  0.80106961955E+02  0.80117028488E+02  0.12700000000E+01 0.  1.
         -4   -1    0    0    0  501 -0.00000000000E+00 -0.00000000000E+00 -0.48739557226E+02  0.48756100527E+02  0.12700000000E+01 0.  1.
         25    2    1    2    0    0  0.00000000000E+00  0.00000000000E+00  0.31367404729E+02  0.12887312901E+03  0.12499747718E+03 0.  0.
    9000005    1    3    3    0    0  0.57410269767E+01 -0.40910763657E+01 -0.48333342622E+02  0.48854972169E+02  0.10000000000E+01 0.  0.
    9000005    1    3    3    0    0 -0.57410269767E+01  0.40910763657E+01  0.79700747352E+02  0.80018156846E+02  0.10000000000E+01 0.  0.
<mgrwt>
<rscale>  0 0.12499748E+03</rscale>
<asrwt>0</asrwt>
<pdfrwt beam="1">  1        4 0.12326195E-01 0.12499748E+03</pdfrwt>
<pdfrwt beam="2">  1       -4 0.75004403E-02 0.12499748E+03</pdfrwt>
<totfact> 0.10369264E+04</totfact>
</mgrwt>
</event>
<event>
 5    1  0.3184438E-002  0.1249703E+03  0.7818608E-02  0.1235116E+00
         -4   -1    0    0    0  501 -0.00000000000E+00  0.00000000000E+00  0.21636759274E+02  0.21673999444E+02  0.12700000000E+01 0. -1.
          4   -1    0    0  501    0  0.00000000000E+00 -0.00000000000E+00 -0.18025714123E+03  0.18026161506E+03  0.12700000000E+01 0. -1.
         25    2    1    2    0    0  0.00000000000E+00  0.00000000000E+00 -0.15862038195E+03  0.20193561450E+03  0.12497026380E+03 0.  0.
    9000005    1    3    3    0    0 -0.59995685571E+02  0.65155280461E+01 -0.53182162985E+02  0.80444246858E+02  0.10000000000E+01 0.  0.
    9000005    1    3    3    0    0  0.59995685571E+02 -0.65155280461E+01 -0.10543821897E+03  0.12149136764E+03  0.10000000000E+01 0.  0.
<mgrwt>
<rscale>  0 0.12497026E+03</rscale>
<asrwt>0</asrwt>
<pdfrwt beam="2">  1        4 0.27735076E-01 0.12497026E+03</pdfrwt>
<pdfrwt beam="1">  1       -4 0.33319411E-02 0.12497026E+03</pdfrwt>
<totfact> 0.89869850E+03</totfact>
</mgrwt>
</event>
<event>
 5    1  0.3184438E-002  0.1250028E+03  0.7818608E-02  0.1235065E+00
          4   -1    0    0  501    0  0.00000000000E+00  0.00000000000E+00  0.17212805223E+03  0.17213273734E+03  0.12700000000E+01 0. -1.
         -4   -1    0    0    0  501 -0.00000000000E+00 -0.00000000000E+00 -0.22672122437E+02  0.22707664693E+02  0.12700000000E+01 0. -1.
         25    2    1    2    0    0  0.00000000000E+00  0.00000000000E+00  0.14945592979E+03  0.19484040204E+03  0.12500282923E+03 0.  0.
    9000005    1    3    3    0    0  0.55963021506E+02 -0.27758642956E+02  0.77438824743E+02  0.99499616142E+02  0.10000000000E+01 0.  0.
    9000005    1    3    3    0    0 -0.55963021506E+02  0.27758642956E+02  0.72017105051E+02  0.95340785893E+02  0.10000000000E+01 0.  0.
<mgrwt>
<rscale>  0 0.12500283E+03</rscale>
<asrwt>0</asrwt>
<pdfrwt beam="1">  1        4 0.26484333E-01 0.12500283E+03</pdfrwt>
<pdfrwt beam="2">  1       -4 0.34911133E-02 0.12500283E+03</pdfrwt>
<totfact> 0.91006090E+03</totfact>
</mgrwt>
</event>
<event>
 5    1  0.3184438E-002  0.1250008E+03  0.7818608E-02  0.1235068E+00
          4   -1    0    0  501    0  0.00000000000E+00  0.00000000000E+00  0.40282255404E+02  0.40302270413E+02  0.12700000000E+01 0.  1.
         -4   -1    0    0    0  501 -0.00000000000E+00 -0.00000000000E+00 -0.96924962696E+02  0.96933282693E+02  0.12700000000E+01 0.  1.
         25    2    1    2    0    0  0.00000000000E+00  0.00000000000E+00 -0.56642707292E+02  0.13723555311E+03  0.12500080299E+03 0.  0.
    9000005    1    3    3    0    0 -0.70087656776E+01 -0.61989636883E+02 -0.24293129574E+02  0.66955164265E+02  0.10000000000E+01 0.  0.
    9000005    1    3    3    0    0  0.70087656776E+01  0.61989636883E+02 -0.32349577717E+02  0.70280388841E+02  0.10000000000E+01 0.  0.
<mgrwt>
<rscale>  0 0.12500080E+03</rscale>
<asrwt>0</asrwt>
<pdfrwt beam="1">  1        4 0.61994497E-02 0.12500080E+03</pdfrwt>
<pdfrwt beam="2">  1       -4 0.14913712E-01 0.12500080E+03</pdfrwt>
<totfact> 0.10190978E+04</totfact>
</mgrwt>
</event>
<event>
 5    1  0.3184438E-002  0.1249988E+03  0.7818608E-02  0.1235071E+00
          4   -1    0    0  501    0  0.00000000000E+00  0.00000000000E+00  0.28126112982E+02  0.28154771025E+02  0.12700000000E+01 0. -1.
         -4   -1    0    0    0  501 -0.00000000000E+00 -0.00000000000E+00 -0.13877850848E+03  0.13878431942E+03  0.12700000000E+01 0. -1.
         25    2    1    2    0    0  0.00000000000E+00  0.00000000000E+00 -0.11065239550E+03  0.16693909045E+03  0.12499882915E+03 0.  0.
    9000005    1    3    3    0    0 -0.61399019288E+02 -0.71264812302E+01 -0.43045862199E+02  0.75329758773E+02  0.10000000000E+01 0.  0.
    9000005    1    3    3    0    0  0.61399019288E+02  0.71264812302E+01 -0.67606533304E+02  0.91609331674E+02  0.10000000000E+01 0.  0.
<mgrwt>
<rscale>  0 0.12499883E+03</rscale>
<asrwt>0</asrwt>
<pdfrwt beam="1">  1        4 0.43297459E-02 0.12499883E+03</pdfrwt>
<pdfrwt beam="2">  1       -4 0.21353191E-01 0.12499883E+03</pdfrwt>
<totfact> 0.96023940E+03</totfact>
</mgrwt>
</event>
<event>
 4    1  0.3184438E-002  0.1248396E+03  0.7818608E-02  0.1235320E+00
          4   -1    0    0  501    0  0.00000000000E+00  0.00000000000E+00  0.11672564253E+02  0.11741450346E+02  0.12700000000E+01 0.  1.
         -4   -1    0    0    0  501 -0.00000000000E+00 -0.00000000000E+00 -0.33274162679E+03  0.33274405043E+03  0.12700000000E+01 0.  1.
    9000005    1    1    2    0    0  0.43233525280E+02  0.41981552483E+02 -0.20533938545E+03  0.21400198989E+03  0.10000000000E+01 0.  0.
    9000005    1    1    2    0    0 -0.43233525280E+02 -0.41981552483E+02 -0.11572967708E+03  0.13048351089E+03  0.10000000000E+01 0.  0.
<mgrwt>
<rscale>  0 0.12483957E+03</rscale>
<asrwt>0</asrwt>
<pdfrwt beam="1">  1        4 0.18012647E-02 0.12483957E+03</pdfrwt>
<pdfrwt beam="2">  1       -4 0.51196498E-01 0.12483957E+03</pdfrwt>
<totfact> 0.70585895E+03</totfact>
</mgrwt>
</event>
<event>
 5    1  0.3184438E-002  0.1249752E+03  0.7818608E-02  0.1235108E+00
         -4   -1    0    0    0  501 -0.00000000000E+00  0.00000000000E+00  0.45093634534E+02  0.45111514888E+02  0.12700000000E+01 0. -1.
          4   -1    0    0  501    0  0.00000000000E+00 -0.00000000000E+00 -0.86551253829E+02  0.86560570928E+02  0.12700000000E+01 0. -1.
         25    2    1    2    0    0  0.00000000000E+00  0.00000000000E+00 -0.41457619295E+02  0.13167208582E+03  0.12497521348E+03 0.  0.
    9000005    1    3    3    0    0  0.27214280016E+01 -0.40269172460E+02 -0.70978200473E+02  0.81657316656E+02  0.10000000000E+01 0.  0.
    9000005    1    3    3    0    0 -0.27214280016E+01  0.40269172460E+02  0.29520581179E+02  0.50014769160E+02  0.10000000000E+01 0.  0.
<mgrwt>
<rscale>  0 0.12497521E+03</rscale>
<asrwt>0</asrwt>
<pdfrwt beam="2">  1        4 0.13317670E-01 0.12497521E+03</pdfrwt>
<pdfrwt beam="1">  1       -4 0.69395744E-02 0.12497521E+03</pdfrwt>
<totfact> 0.10314469E+04</totfact>
</mgrwt>
</event>
<event>
 5    1  0.3184438E-002  0.1250028E+03  0.7818608E-02  0.1235065E+00
          4   -1    0    0  501    0  0.00000000000E+00  0.00000000000E+00  0.24530796696E+04  0.24530799984E+04  0.12700000000E+01 0. -1.
         -4   -1    0    0    0  501 -0.00000000000E+00 -0.00000000000E+00 -0.13388665174E+01  0.18453898101E+01  0.12700000000E+01 0. -1.
         25    2    1    2    0    0  0.00000000000E+00  0.00000000000E+00  0.24517408031E+04  0.24549253882E+04  0.12500278370E+03 0.  0.
    9000005    1    3    3    0    0 -0.57782100718E+02 -0.34584551029E+01  0.16884053235E+04  0.16893976052E+04  0.10000000000E+01 0.  0.
    9000005    1    3    3    0    0  0.57782100718E+02  0.34584551029E+01  0.76333547964E+03  0.76552778300E+03  0.10000000000E+01 0.  0.
<mgrwt>
<rscale>  0 0.12500278E+03</rscale>
<asrwt>0</asrwt>
<pdfrwt beam="1">  1        4 0.37743848E+00 0.12500278E+03</pdfrwt>
<pdfrwt beam="2">  1       -4 0.24496638E-03 0.12500278E+03</pdfrwt>
<totfact> 0.50327821E+02</totfact>
</mgrwt>
</event>
<event>
 5    1  0.3184438E-002  0.1249997E+03  0.7818608E-02  0.1235070E+00
          4   -1    0    0  501    0  0.00000000000E+00  0.00000000000E+00  0.14687805030E+03  0.14688354081E+03  0.12700000000E+01 0. -1.
         -4   -1    0    0    0  501 -0.00000000000E+00 -0.00000000000E+00 -0.26573914726E+02  0.26604244847E+02  0.12700000000E+01 0. -1.
         25    2    1    2    0    0  0.00000000000E+00  0.00000000000E+00  0.12030413557E+03  0.17348778565E+03  0.12499970694E+03 0.  0.
    9000005    1    3    3    0    0  0.44208119040E+02 -0.30170515080E+02  0.15380250433E+02  0.55697126251E+02  0.10000000000E+01 0.  0.
    9000005    1    3    3    0    0 -0.44208119040E+02  0.30170515080E+02  0.10492388514E+03  0.11779065940E+03  0.10000000000E+01 0.  0.
<mgrwt>
<rscale>  0 0.12499971E+03</rscale>
<asrwt>0</asrwt>
<pdfrwt beam="1">  1        4 0.22599379E-01 0.12499971E+03</pdfrwt>
<pdfrwt beam="2">  1       -4 0.40910500E-02 0.12499971E+03</pdfrwt>
<totfact> 0.94803154E+03</totfact>
</mgrwt>
</event>
<event>
 5    1  0.3184438E-002  0.1250049E+03  0.7818608E-02  0.1235062E+00
          4   -1    0    0  501    0  0.00000000000E+00  0.00000000000E+00  0.12543987520E+03  0.12544630401E+03  0.12700000000E+01 0. -1.
         -4   -1    0    0    0  501 -0.00000000000E+00 -0.00000000000E+00 -0.31122684516E+02  0.31148585706E+02  0.12700000000E+01 0. -1.
         25    2    1    2    0    0  0.00000000000E+00  0.00000000000E+00  0.94317190680E+02  0.15659488971E+03  0.12500490801E+03 0.  0.
    9000005    1    3    3    0    0  0.26821879512E+02 -0.31429313337E+02 -0.11576561024E+02  0.42921226946E+02  0.10000000000E+01 0.  0.
    9000005    1    3    3    0    0 -0.26821879512E+02  0.31429313337E+02  0.10589375170E+03  0.11367366277E+03  0.10000000000E+01 0.  0.
<mgrwt>
<rscale>  0 0.12500491E+03</rscale>
<asrwt>0</asrwt>
<pdfrwt beam="1">  1        4 0.19300929E-01 0.12500491E+03</pdfrwt>
<pdfrwt beam="2">  1       -4 0.47905922E-02 0.12500491E+03</pdfrwt>
<totfact> 0.97992494E+03</totfact>
</mgrwt>
</event>
<event>
 4    1  0.3184438E-002  0.1250850E+03  0.7818608E-02  0.1234936E+00
         -4   -1    0    0    0  501 -0.00000000000E+00  0.00000000000E+00  0.17332374352E+03  0.17332839631E+03  0.12700000000E+01 0.  1.
          4   -1    0    0  501    0  0.00000000000E+00 -0.00000000000E+00 -0.22545155087E+02  0.22580897190E+02  0.12700000000E+01 0.  1.
    9000005    1    1    2    0    0 -0.58301633444E+02 -0.20640520134E+02  0.60910915836E+02  0.86811584490E+02  0.10000000000E+01 0.  0.
    9000005    1    1    2    0    0  0.58301633444E+02  0.20640520134E+02  0.89867672600E+02  0.10909770901E+03  0.10000000000E+01 0.  0.
<mgrwt>
<rscale>  0 0.12508505E+03</rscale>
<asrwt>0</asrwt>
<pdfrwt beam="2">  1        4 0.34715926E-02 0.12508505E+03</pdfrwt>
<pdfrwt beam="1">  1       -4 0.26668299E-01 0.12508505E+03</pdfrwt>
<totfact> 0.90656446E+03</totfact>
</mgrwt>
</event>
<event>
 5    1  0.3184438E-002  0.1249988E+03  0.7818608E-02  0.1235071E+00
          4   -1    0    0  501    0  0.00000000000E+00  0.00000000000E+00  0.36035689813E+03  0.36035913604E+03  0.12700000000E+01 0. -1.
         -4   -1    0    0    0  501 -0.00000000000E+00 -0.00000000000E+00 -0.10800264041E+02  0.10874677161E+02  0.12700000000E+01 0. -1.
         25    2    1    2    0    0  0.00000000000E+00  0.00000000000E+00  0.34955663409E+03  0.37123381320E+03  0.12499881451E+03 0.  0.
    9000005    1    3    3    0    0  0.48573621751E+02  0.21590460574E+02  0.77194153610E+02  0.93730902425E+02  0.10000000000E+01 0.  0.
    9000005    1    3    3    0    0 -0.48573621751E+02 -0.21590460574E+02  0.27236248048E+03  0.27750291078E+03  0.10000000000E+01 0.  0.
<mgrwt>
<rscale>  0 0.12499881E+03</rscale>
<asrwt>0</asrwt>
<pdfrwt beam="1">  1        4 0.55445425E-01 0.12499881E+03</pdfrwt>
<pdfrwt beam="2">  1       -4 0.16674751E-02 0.12499881E+03</pdfrwt>
<totfact> 0.67451816E+03</totfact>
</mgrwt>
</event>
<event>
 5    1  0.3184438E-002  0.1250004E+03  0.7818608E-02  0.1235069E+00
          4   -1    0    0  501    0  0.00000000000E+00  0.00000000000E+00  0.16907154770E+02  0.16954786416E+02  0.12700000000E+01 0.  1.
         -4   -1    0    0    0  501 -0.00000000000E+00 -0.00000000000E+00 -0.23066825638E+03  0.23067175250E+03  0.12700000000E+01 0.  1.
         25    2    1    2    0    0  0.00000000000E+00  0.00000000000E+00 -0.21376110161E+03  0.24762653892E+03  0.12500037686E+03 0.  0.
    9000005    1    3    3    0    0  0.47515704967E+01  0.53655865626E+01  0.16100006993E+02  0.17651548559E+02  0.10000000000E+01 0.  0.
    9000005    1    3    3    0    0 -0.47515704967E+01 -0.53655865626E+01 -0.22986110861E+03  0.22997499036E+03  0.10000000000E+01 0.  0.
<mgrwt>
<rscale>  0 0.12500038E+03</rscale>
<asrwt>0</asrwt>
<pdfrwt beam="1">  1        4 0.26050338E-02 0.12500038E+03</pdfrwt>
<pdfrwt beam="2">  1       -4 0.35491355E-01 0.12500038E+03</pdfrwt>
<totfact> 0.82673788E+03</totfact>
</mgrwt>
</event>
<event>
 5    1  0.3184438E-002  0.1250026E+03  0.7818608E-02  0.1235065E+00
         -4   -1    0    0    0  501 -0.00000000000E+00  0.00000000000E+00  0.29147045340E+03  0.29147322022E+03  0.12700000000E+01 0. -1.
          4   -1    0    0  501    0  0.00000000000E+00 -0.00000000000E+00 -0.13369499772E+02  0.13429684440E+02  0.12700000000E+01 0. -1.
         25    2    1    2    0    0  0.00000000000E+00  0.00000000000E+00  0.27810095363E+03  0.30490290466E+03  0.12500256342E+03 0.  0.
    9000005    1    3    3    0    0  0.51930240882E+01  0.45604789238E+01  0.29054738092E+03  0.29063128880E+03  0.10000000000E+01 0.  0.
    9000005    1    3    3    0    0 -0.51930240882E+01 -0.45604789238E+01 -0.12446427290E+02  0.14271615868E+02  0.10000000000E+01 0.  0.
<mgrwt>
<rscale>  0 0.12500256E+03</rscale>
<asrwt>0</asrwt>
<pdfrwt beam="2">  1        4 0.20616884E-02 0.12500256E+03</pdfrwt>
<pdfrwt beam="1">  1       -4 0.44846454E-01 0.12500256E+03</pdfrwt>
<totfact> 0.74983645E+03</totfact>
</mgrwt>
</event>
<event>
 5    1  0.3184438E-002  0.1249999E+03  0.7818608E-02  0.1235069E+00
          4   -1    0    0  501    0  0.00000000000E+00  0.00000000000E+00  0.10905656467E+03  0.10906395921E+03  0.12700000000E+01 0. -1.
         -4   -1    0    0    0  501 -0.00000000000E+00 -0.00000000000E+00 -0.35798628440E+02  0.35821148756E+02  0.12700000000E+01 0. -1.
         25    2    1    2    0    0  0.00000000000E+00  0.00000000000E+00  0.73257936231E+02  0.14488510796E+03  0.12499987715E+03 0.  0.
    9000005    1    3    3    0    0 -0.85048552213E+01 -0.50100120558E+02  0.78786545752E+02  0.93758596586E+02  0.10000000000E+01 0.  0.
    9000005    1    3    3    0    0  0.85048552213E+01  0.50100120558E+02 -0.55286095210E+01  0.51126511376E+02  0.10000000000E+01 0.  0.
<mgrwt>
<rscale>  0 0.12499988E+03</rscale>
<asrwt>0</asrwt>
<pdfrwt beam="1">  1        4 0.16780234E-01 0.12499988E+03</pdfrwt>
<pdfrwt beam="2">  1       -4 0.55097825E-02 0.12499988E+03</pdfrwt>
<totfact> 0.10033351E+04</totfact>
</mgrwt>
</event>
<event>
 5    1  0.3184438E-002  0.1250049E+03  0.7818608E-02  0.1235062E+00
          4   -1    0    0  501    0  0.00000000000E+00  0.00000000000E+00  0.43757345100E+02  0.43775771269E+02  0.12700000000E+01 0. -1.
         -4   -1    0    0    0  501 -0.00000000000E+00 -0.00000000000E+00 -0.89236014883E+02  0.89245051696E+02  0.12700000000E+01 0. -1.
         25    2    1    2    0    0  0.00000000000E+00  0.00000000000E+00 -0.45478669783E+02  0.13302082297E+03  0.12500491965E+03 0.  0.
    9000005    1    3    3    0    0  0.28216832832E+02  0.55619912343E+02 -0.18510435815E+02  0.65064587436E+02  0.10000000000E+01 0.  0.
    9000005    1    3    3    0    0 -0.28216832832E+02 -0.55619912343E+02 -0.26968233968E+02  0.67956235530E+02  0.10000000000E+01 0.  0.
<mgrwt>
<rscale>  0 0.12500492E+03</rscale>
<asrwt>0</asrwt>
<pdfrwt beam="1">  1        4 0.67340118E-02 0.12500492E+03</pdfrwt>
<pdfrwt beam="2">  1       -4 0.13730730E-01 0.12500492E+03</pdfrwt>
<totfact> 0.10278817E+04</totfact>
</mgrwt>
</event>
<event>
 5    1  0.3184438E-002  0.1249990E+03  0.7818608E-02  0.1235071E+00
          4   -1    0    0  501    0  0.00000000000E+00  0.00000000000E+00  0.37170889627E+03  0.37171106583E+03  0.12700000000E+01 0. -1.
         -4   -1    0    0    0  501 -0.00000000000E+00 -0.00000000000E+00 -0.10468154031E+02  0.10544911039E+02  0.12700000000E+01 0. -1.
         25    2    1    2    0    0  0.00000000000E+00  0.00000000000E+00  0.36124074223E+03  0.38225597687E+03  0.12499903201E+03 0.  0.
    9000005    1    3    3    0    0  0.31820791849E+02 -0.35254904447E+02  0.30482922275E+03  0.30850822699E+03  0.10000000000E+01 0.  0.
    9000005    1    3    3    0    0 -0.31820791849E+02  0.35254904447E+02  0.56411519488E+02  0.73747749880E+02  0.10000000000E+01 0.  0.
<mgrwt>
<rscale>  0 0.12499903E+03</rscale>
<asrwt>0</asrwt>
<pdfrwt beam="1">  1        4 0.57192050E-01 0.12499903E+03</pdfrwt>
<pdfrwt beam="2">  1       -4 0.16165567E-02 0.12499903E+03</pdfrwt>
<totfact> 0.66317349E+03</totfact>
</mgrwt>
</event>
<event>
 5    1  0.3184438E-002  0.1250236E+03  0.7818608E-02  0.1235032E+00
          4   -1    0    0  501    0  0.00000000000E+00  0.00000000000E+00  0.99657630743E+01  0.10046359224E+02  0.12700000000E+01 0. -1.
         -4   -1    0    0    0  501 -0.00000000000E+00 -0.00000000000E+00 -0.39045427749E+03  0.39045634290E+03  0.12700000000E+01 0. -1.
         25    2    1    2    0    0  0.00000000000E+00  0.00000000000E+00 -0.38048851442E+03  0.40050270213E+03  0.12502361699E+03 0.  0.
    9000005    1    3    3    0    0 -0.62823421160E+01  0.58574824082E+02 -0.12333591084E+03  0.13668659313E+03  0.10000000000E+01 0.  0.
    9000005    1    3    3    0    0  0.62823421160E+01 -0.58574824082E+02 -0.25715260358E+03  0.26381610900E+03  0.10000000000E+01 0.  0.
<mgrwt>
<rscale>  0 0.12502362E+03</rscale>
<asrwt>0</asrwt>
<pdfrwt beam="1">  1        4 0.15395532E-02 0.12502362E+03</pdfrwt>
<pdfrwt beam="2">  1       -4 0.60076236E-01 0.12502362E+03</pdfrwt>
<totfact> 0.64470312E+03</totfact>
</mgrwt>
</event>
<event>
 5    1  0.3184438E-002  0.1249992E+03  0.7818608E-02  0.1235071E+00
         -4   -1    0    0    0  501 -0.00000000000E+00  0.00000000000E+00  0.95788449065E+01  0.96626688727E+01  0.12700000000E+01 0. -1.
          4   -1    0    0  501    0  0.00000000000E+00 -0.00000000000E+00 -0.40593282415E+03  0.40593481081E+03  0.12700000000E+01 0. -1.
         25    2    1    2    0    0  0.00000000000E+00  0.00000000000E+00 -0.39635397925E+03  0.41559747968E+03  0.12499915300E+03 0.  0.
    9000005    1    3    3    0    0  0.23034175089E+02 -0.23029861769E+02 -0.20860279278E+02  0.38692363674E+02  0.10000000000E+01 0.  0.
    9000005    1    3    3    0    0 -0.23034175089E+02  0.23029861769E+02 -0.37549369997E+03  0.37690511600E+03  0.10000000000E+01 0.  0.
<mgrwt>
<rscale>  0 0.12499915E+03</rscale>
<asrwt>0</asrwt>
<pdfrwt beam="2">  1        4 0.62457791E-01 0.12499915E+03</pdfrwt>
<pdfrwt beam="1">  1       -4 0.14802696E-02 0.12499915E+03</pdfrwt>
<totfact> 0.63064734E+03</totfact>
</mgrwt>
</event>
<event>
 5    1  0.3184438E-002  0.1249891E+03  0.7818608E-02  0.1235086E+00
          4   -1    0    0  501    0  0.00000000000E+00  0.00000000000E+00  0.55221535984E+02  0.55236137958E+02  0.12700000000E+01 0. -1.
         -4   -1    0    0    0  501 -0.00000000000E+00 -0.00000000000E+00 -0.70695778013E+02  0.70707184422E+02  0.12700000000E+01 0. -1.
         25    2    1    2    0    0  0.00000000000E+00  0.00000000000E+00 -0.15474242028E+02  0.12594332238E+03  0.12498907266E+03 0.  0.
    9000005    1    3    3    0    0  0.60308961239E+02  0.82631294882E+01  0.64814916288E+01  0.61224666993E+02  0.10000000000E+01 0.  0.
    9000005    1    3    3    0    0 -0.60308961239E+02 -0.82631294882E+01 -0.21955733657E+02  0.64718655387E+02  0.10000000000E+01 0.  0.
<mgrwt>
<rscale>  0 0.12498907E+03</rscale>
<asrwt>0</asrwt>
<pdfrwt beam="1">  1        4 0.84976215E-02 0.12498907E+03</pdfrwt>
<pdfrwt beam="2">  1       -4 0.10878274E-01 0.12498907E+03</pdfrwt>
<totfact> 0.10434772E+04</totfact>
</mgrwt>
</event>
<event>
 5    1  0.3184438E-002  0.1250007E+03  0.7818608E-02  0.1235068E+00
          4   -1    0    0  501    0  0.00000000000E+00  0.00000000000E+00  0.14547743058E+02  0.14603072556E+02  0.12700000000E+01 0.  1.
         -4   -1    0    0    0  501 -0.00000000000E+00 -0.00000000000E+00 -0.26794915601E+03  0.26795216571E+03  0.12700000000E+01 0.  1.
         25    2    1    2    0    0  0.00000000000E+00  0.00000000000E+00 -0.25340141295E+03  0.28255523826E+03  0.12500074633E+03 0.  0.
    9000005    1    3    3    0    0 -0.12372717322E+02  0.37021208477E+02 -0.16387107126E+02  0.42346089442E+02  0.10000000000E+01 0.  0.
    9000005    1    3    3    0    0  0.12372717322E+02 -0.37021208477E+02 -0.23701430582E+03  0.24020914882E+03  0.10000000000E+01 0.  0.
<mgrwt>
<rscale>  0 0.12500075E+03</rscale>
<asrwt>0</asrwt>
<pdfrwt beam="1">  1        4 0.22426021E-02 0.12500075E+03</pdfrwt>
<pdfrwt beam="2">  1       -4 0.41227431E-01 0.12500075E+03</pdfrwt>
<totfact> 0.77839225E+03</totfact>
</mgrwt>
</event>
<event>
 5    1  0.3184438E-002  0.1249988E+03  0.7818608E-02  0.1235071E+00
         -4   -1    0    0    0  501 -0.00000000000E+00  0.00000000000E+00  0.85833419852E+03  0.85833513808E+03  0.12700000000E+01 0. -1.
          4   -1    0    0  501    0  0.00000000000E+00 -0.00000000000E+00 -0.44613116471E+01  0.46385559835E+01  0.12700000000E+01 0. -1.
         25    2    1    2    0    0  0.00000000000E+00  0.00000000000E+00  0.85387288688E+03  0.86297369406E+03  0.12499875877E+03 0.  0.
    9000005    1    3    3    0    0 -0.51959327896E+01  0.44143739999E+02  0.73019621435E+03  0.73154848025E+03  0.10000000000E+01 0.  0.
    9000005    1    3    3    0    0  0.51959327896E+01 -0.44143739999E+02  0.12367667253E+03  0.13142521381E+03  0.10000000000E+01 0.  0.
<mgrwt>
<rscale>  0 0.12499876E+03</rscale>
<asrwt>0</asrwt>
<pdfrwt beam="2">  1        4 0.70006146E-03 0.12499876E+03</pdfrwt>
<pdfrwt beam="1">  1       -4 0.13206524E+00 0.12499876E+03</pdfrwt>
<totfact> 0.35603166E+03</totfact>
</mgrwt>
</event>
<event>
 4    1  0.3184438E-002  0.1252807E+03  0.7818608E-02  0.1234631E+00
         -4   -1    0    0    0  501 -0.00000000000E+00  0.00000000000E+00  0.14876305566E+02  0.14930417519E+02  0.12700000000E+01 0. -1.
          4   -1    0    0  501    0  0.00000000000E+00 -0.00000000000E+00 -0.26322794933E+03  0.26323101300E+03  0.12700000000E+01 0. -1.
    9000005    1    1    2    0    0 -0.28869546869E+02 -0.87237524765E+01 -0.22962519139E+01  0.30262639782E+02  0.10000000000E+01 0.  0.
    9000005    1    1    2    0    0  0.28869546869E+02  0.87237524765E+01 -0.24605539185E+03  0.24789879074E+03  0.10000000000E+01 0.  0.
<mgrwt>
<rscale>  0 0.12528065E+03</rscale>
<asrwt>0</asrwt>
<pdfrwt beam="2">  1        4 0.40501002E-01 0.12528065E+03</pdfrwt>
<pdfrwt beam="1">  1       -4 0.22930607E-02 0.12528065E+03</pdfrwt>
<totfact> 0.77935226E+03</totfact>
</mgrwt>
</event>
<event>
 5    1  0.3184438E-002  0.1249960E+03  0.7818608E-02  0.1235075E+00
          4   -1    0    0  501    0  0.00000000000E+00  0.00000000000E+00  0.27820414142E+01  0.30582109853E+01  0.12700000000E+01 0. -1.
         -4   -1    0    0    0  501 -0.00000000000E+00 -0.00000000000E+00 -0.13373378297E+04  0.13373384327E+04  0.12700000000E+01 0. -1.
         25    2    1    2    0    0  0.00000000000E+00  0.00000000000E+00 -0.13345557882E+04  0.13403966437E+04  0.12499604164E+03 0.  0.
    9000005    1    3    3    0    0  0.11500835075E+02 -0.53392903790E+02 -0.34167644163E+03  0.34601569639E+03  0.10000000000E+01 0.  0.
    9000005    1    3    3    0    0 -0.11500835075E+02  0.53392903790E+02 -0.99287934661E+03  0.99438094727E+03  0.10000000000E+01 0.  0.
<mgrwt>
<rscale>  0 0.12499604E+03</rscale>
<asrwt>0</asrwt>
<pdfrwt beam="1">  1        4 0.44929764E-03 0.12499604E+03</pdfrwt>
<pdfrwt beam="2">  1       -4 0.20576508E+00 0.12499604E+03</pdfrwt>
<totfact> 0.21296591E+03</totfact>
</mgrwt>
</event>
<event>
 5    1  0.3184438E-002  0.1250007E+03  0.7818608E-02  0.1235068E+00
         -4   -1    0    0    0  501 -0.00000000000E+00  0.00000000000E+00  0.26680354946E+02  0.26710564203E+02  0.12700000000E+01 0.  1.
          4   -1    0    0  501    0  0.00000000000E+00 -0.00000000000E+00 -0.14629500084E+03  0.14630051323E+03  0.12700000000E+01 0.  1.
         25    2    1    2    0    0  0.00000000000E+00  0.00000000000E+00 -0.11961464590E+03  0.17301107743E+03  0.12500067761E+03 0.  0.
    9000005    1    3    3    0    0 -0.56083823560E+02 -0.27533759574E+02 -0.57955978496E+02  0.85225574946E+02  0.10000000000E+01 0.  0.
    9000005    1    3    3    0    0  0.56083823560E+02  0.27533759574E+02 -0.61658667402E+02  0.87785502489E+02  0.10000000000E+01 0.  0.
<mgrwt>
<rscale>  0 0.12500068E+03</rscale>
<asrwt>0</asrwt>
<pdfrwt beam="2">  1        4 0.22509670E-01 0.12500068E+03</pdfrwt>
<pdfrwt beam="1">  1       -4 0.41074179E-02 0.12500068E+03</pdfrwt>
<totfact> 0.94888932E+03</totfact>
</mgrwt>
</event>
<event>
 5    1  0.3184438E-002  0.1249979E+03  0.7818608E-02  0.1235073E+00
          4   -1    0    0  501    0  0.00000000000E+00  0.00000000000E+00  0.10694822350E+03  0.10695576380E+03  0.12700000000E+01 0. -1.
         -4   -1    0    0    0  501 -0.00000000000E+00 -0.00000000000E+00 -0.36503570766E+02  0.36525656444E+02  0.12700000000E+01 0. -1.
         25    2    1    2    0    0  0.00000000000E+00  0.00000000000E+00  0.70444652734E+02  0.14348142024E+03  0.12499787541E+03 0.  0.
    9000005    1    3    3    0    0  0.49388652146E+02  0.38189197891E+02  0.32086428504E+02  0.70201087531E+02  0.10000000000E+01 0.  0.
    9000005    1    3    3    0    0 -0.49388652146E+02 -0.38189197891E+02  0.38358224230E+02  0.73280332713E+02  0.10000000000E+01 0.  0.
<mgrwt>
<rscale>  0 0.12499788E+03</rscale>
<asrwt>0</asrwt>
<pdfrwt beam="1">  1        4 0.16455852E-01 0.12499788E+03</pdfrwt>
<pdfrwt beam="2">  1       -4 0.56182130E-02 0.12499788E+03</pdfrwt>
<totfact> 0.10062416E+04</totfact>
</mgrwt>
</event>
<event>
 5    1  0.3184438E-002  0.1250021E+03  0.7818608E-02  0.1235066E+00
          4   -1    0    0  501    0  0.00000000000E+00  0.00000000000E+00  0.20095616877E+03  0.20096018179E+03  0.12700000000E+01 0.  1.
         -4   -1    0    0    0  501 -0.00000000000E+00 -0.00000000000E+00 -0.19414028649E+02  0.19455523853E+02  0.12700000000E+01 0.  1.
         25    2    1    2    0    0  0.00000000000E+00  0.00000000000E+00  0.18154214012E+03  0.22041570564E+03  0.12500213860E+03 0.  0.
    9000005    1    3    3    0    0  0.59203841402E+02  0.24875473413E+01  0.12577596886E+03  0.13903912065E+03  0.10000000000E+01 0.  0.
    9000005    1    3    3    0    0 -0.59203841402E+02 -0.24875473413E+01  0.55766171262E+02  0.81376584997E+02  0.10000000000E+01 0.  0.
<mgrwt>
<rscale>  0 0.12500214E+03</rscale>
<asrwt>0</asrwt>
<pdfrwt beam="1">  1        4 0.30919833E-01 0.12500214E+03</pdfrwt>
<pdfrwt beam="2">  1       -4 0.29902744E-02 0.12500214E+03</pdfrwt>
<totfact> 0.86798466E+03</totfact>
</mgrwt>
</event>
<event>
 5    1  0.3184438E-002  0.1250164E+03  0.7818608E-02  0.1235044E+00
          4   -1    0    0  501    0  0.00000000000E+00  0.00000000000E+00  0.14010168721E+02  0.14067612719E+02  0.12700000000E+01 0.  1.
         -4   -1    0    0    0  501 -0.00000000000E+00 -0.00000000000E+00 -0.27825895282E+03  0.27826185100E+03  0.12700000000E+01 0.  1.
         25    2    1    2    0    0  0.00000000000E+00  0.00000000000E+00 -0.26424878410E+03  0.29232946372E+03  0.12501638078E+03 0.  0.
    9000005    1    3    3    0    0 -0.27644142713E+02  0.21268630106E+02 -0.10852751265E+02  0.36542242172E+02  0.10000000000E+01 0.  0.
    9000005    1    3    3    0    0  0.27644142713E+02 -0.21268630106E+02 -0.25339603283E+03  0.25578722155E+03  0.10000000000E+01 0.  0.
<mgrwt>
<rscale>  0 0.12501638E+03</rscale>
<asrwt>0</asrwt>
<pdfrwt beam="1">  1        4 0.21600525E-02 0.12501638E+03</pdfrwt>
<pdfrwt beam="2">  1       -4 0.42813708E-01 0.12501638E+03</pdfrwt>
<totfact> 0.76543352E+03</totfact>
</mgrwt>
</event>
<event>
 5    1  0.3184438E-002  0.1250025E+03  0.7818608E-02  0.1235065E+00
         -4   -1    0    0    0  501 -0.00000000000E+00  0.00000000000E+00  0.56137355395E+02  0.56151719215E+02  0.12700000000E+01 0.  1.
          4   -1    0    0  501    0  0.00000000000E+00 -0.00000000000E+00 -0.69557513165E+02  0.69569106202E+02  0.12700000000E+01 0.  1.
         25    2    1    2    0    0  0.00000000000E+00  0.00000000000E+00 -0.13420157770E+02  0.12572082542E+03  0.12500250121E+03 0.  0.
    9000005    1    3    3    0    0  0.22006153925E+01  0.55129325167E+02  0.22806843300E+02  0.59709608128E+02  0.10000000000E+01 0.  0.
    9000005    1    3    3    0    0 -0.22006153925E+01 -0.55129325167E+02 -0.36227001070E+02  0.66011217289E+02  0.10000000000E+01 0.  0.
<mgrwt>
<rscale>  0 0.12500250E+03</rscale>
<asrwt>0</asrwt>
<pdfrwt beam="2">  1        4 0.10703152E-01 0.12500250E+03</pdfrwt>
<pdfrwt beam="1">  1       -4 0.86385130E-02 0.12500250E+03</pdfrwt>
<totfact> 0.10436497E+04</totfact>
</mgrwt>
</event>
<event>
 5    1  0.3184438E-002  0.1250025E+03  0.7818608E-02  0.1235065E+00
          4   -1    0    0  501    0  0.00000000000E+00  0.00000000000E+00  0.77033632648E+03  0.77033737336E+03  0.12700000000E+01 0.  1.
         -4   -1    0    0    0  501 -0.00000000000E+00 -0.00000000000E+00 -0.49904551355E+01  0.51495186629E+01  0.12700000000E+01 0.  1.
         25    2    1    2    0    0  0.00000000000E+00  0.00000000000E+00  0.76534587134E+03  0.77548689202E+03  0.12500246763E+03 0.  0.
    9000005    1    3    3    0    0  0.11618066702E+02 -0.46883706726E+02  0.13667611571E+03  0.14496351968E+03  0.10000000000E+01 0.  0.
    9000005    1    3    3    0    0 -0.11618066702E+02  0.46883706726E+02  0.62866975563E+03  0.63052337235E+03  0.10000000000E+01 0.  0.
<mgrwt>
<rscale>  0 0.12500247E+03</rscale>
<asrwt>0</asrwt>
<pdfrwt beam="1">  1        4 0.11852558E+00 0.12500247E+03</pdfrwt>
<pdfrwt beam="2">  1       -4 0.78007866E-03 0.12500247E+03</pdfrwt>
<totfact> 0.39380621E+03</totfact>
</mgrwt>
</event>
<event>
 5    1  0.3184438E-002  0.1249984E+03  0.7818608E-02  0.1235072E+00
         -4   -1    0    0    0  501 -0.00000000000E+00  0.00000000000E+00  0.26711946487E+03  0.26712248392E+03  0.12700000000E+01 0.  1.
          4   -1    0    0  501    0  0.00000000000E+00 -0.00000000000E+00 -0.14592545676E+02  0.14647705941E+02  0.12700000000E+01 0.  1.
         25    2    1    2    0    0  0.00000000000E+00  0.00000000000E+00  0.25252691920E+03  0.28177018986E+03  0.12499837988E+03 0.  0.
    9000005    1    3    3    0    0 -0.45544377418E+02 -0.18602043565E+02  0.21312507792E+03  0.21873185679E+03  0.10000000000E+01 0.  0.
    9000005    1    3    3    0    0  0.45544377418E+02  0.18602043565E+02  0.39401841278E+02  0.63038333062E+02  0.10000000000E+01 0.  0.
<mgrwt>
<rscale>  0 0.12499838E+03</rscale>
<asrwt>0</asrwt>
<pdfrwt beam="2">  1        4 0.22494823E-02 0.12499838E+03</pdfrwt>
<pdfrwt beam="1">  1       -4 0.41099778E-01 0.12499838E+03</pdfrwt>
<totfact> 0.77946780E+03</totfact>
</mgrwt>
</event>
<event>
 5    1  0.3184438E-002  0.1249992E+03  0.7818608E-02  0.1235071E+00
          4   -1    0    0  501    0  0.00000000000E+00  0.00000000000E+00  0.16059042865E+02  0.16109182405E+02  0.12700000000E+01 0. -1.
         -4   -1    0    0    0  501 -0.00000000000E+00 -0.00000000000E+00 -0.24280895850E+03  0.24281227982E+03  0.12700000000E+01 0. -1.
         25    2    1    2    0    0  0.00000000000E+00  0.00000000000E+00 -0.22674991564E+03  0.25892146222E+03  0.12499919742E+03 0.  0.
    9000005    1    3    3    0    0 -0.58108101276E+02 -0.10944568588E+02 -0.71490711940E+02  0.92780692545E+02  0.10000000000E+01 0.  0.
    9000005    1    3    3    0    0  0.58108101276E+02  0.10944568588E+02 -0.15525920370E+03  0.16614076967E+03  0.10000000000E+01 0.  0.
<mgrwt>
<rscale>  0 0.12499920E+03</rscale>
<asrwt>0</asrwt>
<pdfrwt beam="1">  1        4 0.24747345E-02 0.12499920E+03</pdfrwt>
<pdfrwt beam="2">  1       -4 0.37359334E-01 0.12499920E+03</pdfrwt>
<totfact> 0.81059106E+03</totfact>
</mgrwt>
</event>
<event>
 5    1  0.3184438E-002  0.1249986E+03  0.7818608E-02  0.1235072E+00
         -4   -1    0    0    0  501 -0.00000000000E+00  0.00000000000E+00  0.10520587346E+03  0.10521353863E+03  0.12700000000E+01 0. -1.
          4   -1    0    0  501    0  0.00000000000E+00 -0.00000000000E+00 -0.37108849727E+02  0.37130575380E+02  0.12700000000E+01 0. -1.
         25    2    1    2    0    0  0.00000000000E+00  0.00000000000E+00  0.68097023737E+02  0.14234411401E+03  0.12499856860E+03 0.  0.
    9000005    1    3    3    0    0  0.38075036251E+02 -0.21199555162E+01 -0.22328545408E+02  0.44201431390E+02  0.10000000000E+01 0.  0.
    9000005    1    3    3    0    0 -0.38075036251E+02  0.21199555162E+01  0.90425569145E+02  0.98142682621E+02  0.10000000000E+01 0.  0.
<mgrwt>
<rscale>  0 0.12499857E+03</rscale>
<asrwt>0</asrwt>
<pdfrwt beam="2">  1        4 0.57113147E-02 0.12499857E+03</pdfrwt>
<pdfrwt beam="1">  1       -4 0.16187780E-01 0.12499857E+03</pdfrwt>
<totfact> 0.10085557E+04</totfact>
</mgrwt>
</event>
<event>
 5    1  0.3184438E-002  0.1250034E+03  0.7818608E-02  0.1235064E+00
          4   -1    0    0  501    0  0.00000000000E+00  0.00000000000E+00  0.28755812500E+01  0.31435437846E+01  0.12700000000E+01 0.  1.
         -4   -1    0    0    0  501 -0.00000000000E+00 -0.00000000000E+00 -0.12977475988E+04  0.12977482202E+04  0.12700000000E+01 0.  1.
         25    2    1    2    0    0  0.00000000000E+00  0.00000000000E+00 -0.12948720176E+04  0.13008917640E+04  0.12500335927E+03 0.  0.
    9000005    1    3    3    0    0  0.26417561044E+02 -0.54917091747E+02 -0.79151944763E+03  0.79386258917E+03  0.10000000000E+01 0.  0.
    9000005    1    3    3    0    0 -0.26417561044E+02  0.54917091747E+02 -0.50335256994E+03  0.50702917486E+03  0.10000000000E+01 0.  0.
<mgrwt>
<rscale>  0 0.12500336E+03</rscale>
<asrwt>0</asrwt>
<pdfrwt beam="1">  1        4 0.46305846E-03 0.12500336E+03</pdfrwt>
<pdfrwt beam="2">  1       -4 0.19967369E+00 0.12500336E+03</pdfrwt>
<totfact> 0.22205917E+03</totfact>
</mgrwt>
</event>
<event>
 5    1  0.3184438E-002  0.1250072E+03  0.7818608E-02  0.1235058E+00
         -4   -1    0    0    0  501 -0.00000000000E+00  0.00000000000E+00  0.16121593400E+03  0.16122093622E+03  0.12700000000E+01 0.  1.
          4   -1    0    0  501    0  0.00000000000E+00 -0.00000000000E+00 -0.24210687392E+02  0.24243974179E+02  0.12700000000E+01 0.  1.
         25    2    1    2    0    0  0.00000000000E+00  0.00000000000E+00  0.13700524661E+03  0.18546491040E+03  0.12500718136E+03 0.  0.
    9000005    1    3    3    0    0 -0.54993829001E+02  0.28313501042E+02  0.55255567505E+02  0.82946689565E+02  0.10000000000E+01 0.  0.
    9000005    1    3    3    0    0  0.54993829001E+02 -0.28313501042E+02  0.81749679105E+02  0.10251822084E+03  0.10000000000E+01 0.  0.
<mgrwt>
<rscale>  0 0.12500718E+03</rscale>
<asrwt>0</asrwt>
<pdfrwt beam="2">  1        4 0.37276665E-02 0.12500718E+03</pdfrwt>
<pdfrwt beam="1">  1       -4 0.24805396E-01 0.12500718E+03</pdfrwt>
<totfact> 0.92627541E+03</totfact>
</mgrwt>
</event>
<event>
 5    1  0.3184438E-002  0.1249971E+03  0.7818608E-02  0.1235074E+00
         -4   -1    0    0    0  501 -0.00000000000E+00  0.00000000000E+00  0.23120642304E+02  0.23155496120E+02  0.12700000000E+01 0.  1.
          4   -1    0    0  501    0  0.00000000000E+00 -0.00000000000E+00 -0.16877845716E+03  0.16878323525E+03  0.12700000000E+01 0.  1.
         25    2    1    2    0    0  0.00000000000E+00  0.00000000000E+00 -0.14565781485E+03  0.19193873137E+03  0.12499711025E+03 0.  0.
    9000005    1    3    3    0    0  0.16918459114E+02 -0.43055864650E+02 -0.83172196662E+01  0.47012954412E+02  0.10000000000E+01 0.  0.
    9000005    1    3    3    0    0 -0.16918459114E+02  0.43055864650E+02 -0.13734059519E+03  0.14492577696E+03  0.10000000000E+01 0.  0.
<mgrwt>
<rscale>  0 0.12499711E+03</rscale>
<asrwt>0</asrwt>
<pdfrwt beam="2">  1        4 0.25968964E-01 0.12499711E+03</pdfrwt>
<pdfrwt beam="1">  1       -4 0.35600706E-02 0.12499711E+03</pdfrwt>
<totfact> 0.91516995E+03</totfact>
</mgrwt>
</event>
<event>
 5    1  0.3184438E-002  0.1250000E+03  0.7818608E-02  0.1235069E+00
          4   -1    0    0  501    0  0.00000000000E+00  0.00000000000E+00  0.28628114269E+01  0.31318667383E+01  0.12700000000E+01 0. -1.
         -4   -1    0    0    0  501 -0.00000000000E+00 -0.00000000000E+00 -0.13029690573E+04  0.13029696762E+04  0.12700000000E+01 0. -1.
         25    2    1    2    0    0  0.00000000000E+00  0.00000000000E+00 -0.13001062458E+04  0.13061015429E+04  0.12499995997E+03 0.  0.
    9000005    1    3    3    0    0 -0.12072329073E+02  0.11284554586E+02 -0.20329674638E+02  0.26217894125E+02  0.10000000000E+01 0.  0.
    9000005    1    3    3    0    0  0.12072329073E+02 -0.11284554586E+02 -0.12797765712E+04  0.12798836488E+04  0.10000000000E+01 0.  0.
<mgrwt>
<rscale>  0 0.12499996E+03</rscale>
<asrwt>0</asrwt>
<pdfrwt beam="1">  1        4 0.46117774E-03 0.12499996E+03</pdfrwt>
<pdfrwt beam="2">  1       -4 0.20047707E+00 0.12499996E+03</pdfrwt>
<totfact> 0.22085052E+03</totfact>
</mgrwt>
</event>
<event>
 5    1  0.3184438E-002  0.1250006E+03  0.7818608E-02  0.1235068E+00
         -4   -1    0    0    0  501 -0.00000000000E+00  0.00000000000E+00  0.69404249520E+02  0.69415868153E+02  0.12700000000E+01 0. -1.
          4   -1    0    0  501    0  0.00000000000E+00 -0.00000000000E+00 -0.56259605442E+02  0.56273938058E+02  0.12700000000E+01 0. -1.
         25    2    1    2    0    0  0.00000000000E+00  0.00000000000E+00  0.13144644078E+02  0.12568980621E+03  0.12500058287E+03 0.  0.
    9000005    1    3    3    0    0  0.58595273070E+02 -0.20022667508E+02 -0.18986876496E+01  0.61959004633E+02  0.10000000000E+01 0.  0.
    9000005    1    3    3    0    0 -0.58595273070E+02  0.20022667508E+02  0.15043331728E+02  0.63730801578E+02  0.10000000000E+01 0.  0.
<mgrwt>
<rscale>  0 0.12500058E+03</rscale>
<asrwt>0</asrwt>
<pdfrwt beam="2">  1        4 0.86573202E-02 0.12500058E+03</pdfrwt>
<pdfrwt beam="1">  1       -4 0.10679573E-01 0.12500058E+03</pdfrwt>
<totfact> 0.10437631E+04</totfact>
</mgrwt>
</event>
<event>
 5    1  0.3184438E-002  0.1250022E+03  0.7818608E-02  0.1235066E+00
         -4   -1    0    0    0  501 -0.00000000000E+00  0.00000000000E+00  0.22739268574E+02  0.22774706042E+02  0.12700000000E+01 0.  1.
          4   -1    0    0  501    0  0.00000000000E+00 -0.00000000000E+00 -0.17161882402E+03  0.17162352303E+03  0.12700000000E+01 0.  1.
         25    2    1    2    0    0  0.00000000000E+00  0.00000000000E+00 -0.14887955545E+03  0.19439822907E+03  0.12500219773E+03 0.  0.
    9000005    1    3    3    0    0 -0.13392579802E+02  0.38989652667E+02 -0.14747981485E+03  0.15313670362E+03  0.10000000000E+01 0.  0.
    9000005    1    3    3    0    0  0.13392579802E+02 -0.38989652667E+02 -0.13997405989E+01  0.41261525452E+02  0.10000000000E+01 0.  0.
<mgrwt>
<rscale>  0 0.12500220E+03</rscale>
<asrwt>0</asrwt>
<pdfrwt beam="2">  1        4 0.26405983E-01 0.12500220E+03</pdfrwt>
<pdfrwt beam="1">  1       -4 0.35014365E-02 0.12500220E+03</pdfrwt>
<totfact> 0.91083137E+03</totfact>
</mgrwt>
</event>
<event>
 5    1  0.3184438E-002  0.1249635E+03  0.7818608E-02  0.1235126E+00
         -4   -1    0    0    0  501 -0.00000000000E+00  0.00000000000E+00  0.47212202281E+02  0.47229280581E+02  0.12700000000E+01 0.  1.
          4   -1    0    0  501    0  0.00000000000E+00 -0.00000000000E+00 -0.82652871238E+02  0.82662627734E+02  0.12700000000E+01 0.  1.
         25    2    1    2    0    0  0.00000000000E+00  0.00000000000E+00 -0.35440668957E+02  0.12989190832E+03  0.12496346198E+03 0.  0.
    9000005    1    3    3    0    0  0.50955610448E+02  0.42513671441E+01 -0.55030527814E+02  0.75125943257E+02  0.10000000000E+01 0.  0.
    9000005    1    3    3    0    0 -0.50955610448E+02 -0.42513671441E+01  0.19589858857E+02  0.54765965059E+02  0.10000000000E+01 0.  0.
<mgrwt>
<rscale>  0 0.12496346E+03</rscale>
<asrwt>0</asrwt>
<pdfrwt beam="2">  1        4 0.12717891E-01 0.12496346E+03</pdfrwt>
<pdfrwt beam="1">  1       -4 0.72654800E-02 0.12496346E+03</pdfrwt>
<totfact> 0.10355359E+04</totfact>
</mgrwt>
</event>
<event>
 5    1  0.3184438E-002  0.1249984E+03  0.7818608E-02  0.1235072E+00
          4   -1    0    0  501    0  0.00000000000E+00  0.00000000000E+00  0.97679765376E+01  0.98501911473E+01  0.12700000000E+01 0. -1.
         -4   -1    0    0    0  501 -0.00000000000E+00 -0.00000000000E+00 -0.39813410447E+03  0.39813613004E+03  0.12700000000E+01 0. -1.
         25    2    1    2    0    0  0.00000000000E+00  0.00000000000E+00 -0.38836612793E+03  0.40798632119E+03  0.12499835579E+03 0.  0.
    9000005    1    3    3    0    0  0.20631109237E+02 -0.47387185684E+02 -0.30883772180E+03  0.31313403909E+03  0.10000000000E+01 0.  0.
    9000005    1    3    3    0    0 -0.20631109237E+02  0.47387185684E+02 -0.79528406137E+02  0.94852282092E+02  0.10000000000E+01 0.  0.
<mgrwt>
<rscale>  0 0.12499836E+03</rscale>
<asrwt>0</asrwt>
<pdfrwt beam="1">  1        4 0.15092459E-02 0.12499836E+03</pdfrwt>
<pdfrwt beam="2">  1       -4 0.61257868E-01 0.12499836E+03</pdfrwt>
<totfact> 0.63785711E+03</totfact>
</mgrwt>
</event>
<event>
 5    1  0.3184438E-002  0.1249997E+03  0.7818608E-02  0.1235070E+00
          4   -1    0    0  501    0  0.00000000000E+00  0.00000000000E+00  0.61187646024E+02  0.61200824553E+02  0.12700000000E+01 0. -1.
         -4   -1    0    0    0  501 -0.00000000000E+00 -0.00000000000E+00 -0.63813844827E+02  0.63826481116E+02  0.12700000000E+01 0. -1.
         25    2    1    2    0    0  0.00000000000E+00  0.00000000000E+00 -0.26261988026E+01  0.12502730567E+03  0.12499972097E+03 0.  0.
    9000005    1    3    3    0    0 -0.49972951497E+02 -0.20427518280E+02  0.30168489749E+02  0.61852381992E+02  0.10000000000E+01 0.  0.
    9000005    1    3    3    0    0  0.49972951497E+02  0.20427518280E+02 -0.32794688551E+02  0.63174923677E+02  0.10000000000E+01 0.  0.
<mgrwt>
<rscale>  0 0.12499972E+03</rscale>
<asrwt>0</asrwt>
<pdfrwt beam="1">  1        4 0.94154697E-02 0.12499972E+03</pdfrwt>
<pdfrwt beam="2">  1       -4 0.98195004E-02 0.12499972E+03</pdfrwt>
<totfact> 0.10452335E+04</totfact>
</mgrwt>
</event>
<event>
 5    1  0.3184438E-002  0.1250009E+03  0.7818608E-02  0.1235068E+00
          4   -1    0    0  501    0  0.00000000000E+00  0.00000000000E+00  0.44578426156E+01  0.46352196048E+01  0.12700000000E+01 0.  1.
         -4   -1    0    0    0  501 -0.00000000000E+00 -0.00000000000E+00 -0.85900659427E+03  0.85900753309E+03  0.12700000000E+01 0.  1.
         25    2    1    2    0    0  0.00000000000E+00  0.00000000000E+00 -0.85454875166E+03  0.86364275270E+03  0.12500094129E+03 0.  0.
    9000005    1    3    3    0    0 -0.10571911844E+00 -0.16809005202E+02 -0.11420903868E+02  0.20346765777E+02  0.10000000000E+01 0.  0.
    9000005    1    3    3    0    0  0.10571911844E+00  0.16809005202E+02 -0.84312784779E+03  0.84329598692E+03  0.10000000000E+01 0.  0.
<mgrwt>
<rscale>  0 0.12500094E+03</rscale>
<asrwt>0</asrwt>
<pdfrwt beam="1">  1        4 0.69953922E-03 0.12500094E+03</pdfrwt>
<pdfrwt beam="2">  1       -4 0.13216845E+00 0.12500094E+03</pdfrwt>
<totfact> 0.35574765E+03</totfact>
</mgrwt>
</event>
<event>
 5    1  0.3184438E-002  0.1250003E+03  0.7818608E-02  0.1235069E+00
          4   -1    0    0  501    0  0.00000000000E+00  0.00000000000E+00  0.24601853478E+02  0.24634611719E+02  0.12700000000E+01 0. -1.
         -4   -1    0    0    0  501 -0.00000000000E+00 -0.00000000000E+00 -0.15863847726E+03  0.15864356075E+03  0.12700000000E+01 0. -1.
         25    2    1    2    0    0  0.00000000000E+00  0.00000000000E+00 -0.13403662378E+03  0.18327817247E+03  0.12500028796E+03 0.  0.
    9000005    1    3    3    0    0 -0.56165177850E+02  0.96366907297E+01 -0.29411075573E+02  0.64135827565E+02  0.10000000000E+01 0.  0.
    9000005    1    3    3    0    0  0.56165177850E+02 -0.96366907297E+01 -0.10462554821E+03  0.11914234491E+03  0.10000000000E+01 0.  0.
<mgrwt>
<rscale>  0 0.12500029E+03</rscale>
<asrwt>0</asrwt>
<pdfrwt beam="1">  1        4 0.37878115E-02 0.12500029E+03</pdfrwt>
<pdfrwt beam="2">  1       -4 0.24408830E-01 0.12500029E+03</pdfrwt>
<totfact> 0.93029627E+03</totfact>
</mgrwt>
</event>
<event>
 5    1  0.3184438E-002  0.1249445E+03  0.7818608E-02  0.1235156E+00
         -4   -1    0    0    0  501 -0.00000000000E+00  0.00000000000E+00  0.23813693970E+03  0.23814032617E+03  0.12700000000E+01 0. -1.
          4   -1    0    0  501    0  0.00000000000E+00 -0.00000000000E+00 -0.16360700895E+02  0.16409918762E+02  0.12700000000E+01 0. -1.
         25    2    1    2    0    0  0.00000000000E+00  0.00000000000E+00  0.22177623881E+03  0.25455024494E+03  0.12494449607E+03 0.  0.
    9000005    1    3    3    0    0 -0.91916680890E+01 -0.48653362275E+02  0.33305907584E+02  0.59681822215E+02  0.10000000000E+01 0.  0.
    9000005    1    3    3    0    0  0.91916680890E+01  0.48653362275E+02  0.18847033122E+03  0.19486842272E+03  0.10000000000E+01 0.  0.
<mgrwt>
<rscale>  0 0.12494450E+03</rscale>
<asrwt>0</asrwt>
<pdfrwt beam="2">  1        4 0.25210777E-02 0.12494450E+03</pdfrwt>
<pdfrwt beam="1">  1       -4 0.36640494E-01 0.12494450E+03</pdfrwt>
<totfact> 0.81778030E+03</totfact>
</mgrwt>
</event>
<event>
 5    1  0.3184438E-002  0.1250139E+03  0.7818608E-02  0.1235048E+00
          4   -1    0    0  501    0  0.00000000000E+00  0.00000000000E+00  0.73933705222E+01  0.75016549960E+01  0.12700000000E+01 0. -1.
         -4   -1    0    0    0  501 -0.00000000000E+00 -0.00000000000E+00 -0.52451155239E+03  0.52451308992E+03  0.12700000000E+01 0. -1.
         25    2    1    2    0    0  0.00000000000E+00  0.00000000000E+00 -0.51711818187E+03  0.53201474491E+03  0.12501389836E+03 0.  0.
    9000005    1    3    3    0    0 -0.10904597696E+02  0.60166195221E+02 -0.20352496529E+03  0.21251421786E+03  0.10000000000E+01 0.  0.
    9000005    1    3    3    0    0  0.10904597696E+02 -0.60166195221E+02 -0.31359321658E+03  0.31950052705E+03  0.10000000000E+01 0.  0.
<mgrwt>
<rscale>  0 0.12501390E+03</rscale>
<asrwt>0</asrwt>
<pdfrwt beam="1">  1        4 0.11458899E-02 0.12501390E+03</pdfrwt>
<pdfrwt beam="2">  1       -4 0.80702503E-01 0.12501390E+03</pdfrwt>
<totfact> 0.53446943E+03</totfact>
</mgrwt>
</event>
<event>
 5    1  0.3184438E-002  0.1250045E+03  0.7818608E-02  0.1235062E+00
          4   -1    0    0  501    0  0.00000000000E+00  0.00000000000E+00  0.23654112186E+02  0.23688181089E+02  0.12700000000E+01 0.  1.
         -4   -1    0    0    0  501 -0.00000000000E+00 -0.00000000000E+00 -0.16499703378E+03  0.16500192138E+03  0.12700000000E+01 0.  1.
         25    2    1    2    0    0  0.00000000000E+00  0.00000000000E+00 -0.14134292160E+03  0.18869010246E+03  0.12500453305E+03 0.  0.
    9000005    1    3    3    0    0 -0.61497135257E+01  0.60107428851E+02 -0.94766782825E+02  0.11239423965E+03  0.10000000000E+01 0.  0.
    9000005    1    3    3    0    0  0.61497135257E+01 -0.60107428851E+02 -0.46576138774E+02  0.76295862814E+02  0.10000000000E+01 0.  0.
<mgrwt>
<rscale>  0 0.12500453E+03</rscale>
<asrwt>0</asrwt>
<pdfrwt beam="1">  1        4 0.36420909E-02 0.12500453E+03</pdfrwt>
<pdfrwt beam="2">  1       -4 0.25387155E-01 0.12500453E+03</pdfrwt>
<totfact> 0.92066383E+03</totfact>
</mgrwt>
</event>
<event>
 5    1  0.3184438E-002  0.1249967E+03  0.7818608E-02  0.1235075E+00
         -4   -1    0    0    0  501 -0.00000000000E+00  0.00000000000E+00  0.81027205576E+03  0.81027305105E+03  0.12700000000E+01 0.  1.
          4   -1    0    0  501    0  0.00000000000E+00 -0.00000000000E+00 -0.47359925282E+01  0.49033177775E+01  0.12700000000E+01 0.  1.
         25    2    1    2    0    0  0.00000000000E+00  0.00000000000E+00  0.80553606324E+03  0.81517636882E+03  0.12499665242E+03 0.  0.
    9000005    1    3    3    0    0 -0.18309410510E+02 -0.78841383511E+00  0.79238486177E+03  0.79259739166E+03  0.10000000000E+01 0.  0.
    9000005    1    3    3    0    0  0.18309410510E+02  0.78841383511E+00  0.13151201465E+02  0.22578977160E+02  0.10000000000E+01 0.  0.
<mgrwt>
<rscale>  0 0.12499665E+03</rscale>
<asrwt>0</asrwt>
<pdfrwt beam="2">  1        4 0.74156234E-03 0.12499665E+03</pdfrwt>
<pdfrwt beam="1">  1       -4 0.12467012E+00 0.12499665E+03</pdfrwt>
<totfact> 0.37598896E+03</totfact>
</mgrwt>
</event>
<event>
 5    1  0.3184438E-002  0.1249989E+03  0.7818608E-02  0.1235071E+00
          4   -1    0    0  501    0  0.00000000000E+00  0.00000000000E+00  0.78839129791E+02  0.78849358185E+02  0.12700000000E+01 0. -1.
         -4   -1    0    0    0  501 -0.00000000000E+00 -0.00000000000E+00 -0.49524603758E+02  0.49540884907E+02  0.12700000000E+01 0. -1.
         25    2    1    2    0    0  0.00000000000E+00  0.00000000000E+00  0.29314526034E+02  0.12839024309E+03  0.12499885233E+03 0.  0.
    9000005    1    3    3    0    0 -0.17459358950E+01  0.27147013466E+02  0.72443510227E+02  0.77389087126E+02  0.10000000000E+01 0.  0.
    9000005    1    3    3    0    0  0.17459358950E+01 -0.27147013466E+02 -0.43128984193E+02  0.51001155966E+02  0.10000000000E+01 0.  0.
<mgrwt>
<rscale>  0 0.12499885E+03</rscale>
<asrwt>0</asrwt>
<pdfrwt beam="1">  1        4 0.12131136E-01 0.12499885E+03</pdfrwt>
<pdfrwt beam="2">  1       -4 0.76212089E-02 0.12499885E+03</pdfrwt>
<totfact> 0.10379337E+04</totfact>
</mgrwt>
</event>
<event>
 5    1  0.3184438E-002  0.1250019E+03  0.7818608E-02  0.1235066E+00
         -4   -1    0    0    0  501 -0.00000000000E+00  0.00000000000E+00  0.20760136554E+02  0.20798946361E+02  0.12700000000E+01 0. -1.
          4   -1    0    0  501    0  0.00000000000E+00 -0.00000000000E+00 -0.18795011775E+03  0.18795440846E+03  0.12700000000E+01 0. -1.
         25    2    1    2    0    0  0.00000000000E+00  0.00000000000E+00 -0.16718998119E+03  0.20875335483E+03  0.12500189334E+03 0.  0.
    9000005    1    3    3    0    0 -0.41350022104E+02  0.10749554336E+02 -0.15975861623E+03  0.16537591332E+03  0.10000000000E+01 0.  0.
    9000005    1    3    3    0    0  0.41350022104E+02 -0.10749554336E+02 -0.74313649634E+01  0.43377441506E+02  0.10000000000E+01 0.  0.
<mgrwt>
<rscale>  0 0.12500189E+03</rscale>
<asrwt>0</asrwt>
<pdfrwt beam="2">  1        4 0.28918717E-01 0.12500189E+03</pdfrwt>
<pdfrwt beam="1">  1       -4 0.31971827E-02 0.12500189E+03</pdfrwt>
<totfact> 0.88676126E+03</totfact>
</mgrwt>
</event>
<event>
 5    1  0.3184438E-002  0.1249882E+03  0.7818608E-02  0.1235088E+00
         -4   -1    0    0    0  501 -0.00000000000E+00  0.00000000000E+00  0.11140036667E+02  0.11212195010E+02  0.12700000000E+01 0.  1.
          4   -1    0    0  501    0  0.00000000000E+00 -0.00000000000E+00 -0.34937821959E+03  0.34938052782E+03  0.12700000000E+01 0.  1.
         25    2    1    2    0    0  0.00000000000E+00  0.00000000000E+00 -0.33823818292E+03  0.36059272283E+03  0.12498817294E+03 0.  0.
    9000005    1    3    3    0    0 -0.23084317742E+02  0.36107259541E+02 -0.37925732324E+02  0.57236186888E+02  0.10000000000E+01 0.  0.
    9000005    1    3    3    0    0  0.23084317742E+02 -0.36107259541E+02 -0.30031245060E+03  0.30335653594E+03  0.10000000000E+01 0.  0.
<mgrwt>
<rscale>  0 0.12498817E+03</rscale>
<asrwt>0</asrwt>
<pdfrwt beam="2">  1        4 0.53756215E-01 0.12498817E+03</pdfrwt>
<pdfrwt beam="1">  1       -4 0.17195803E-02 0.12498817E+03</pdfrwt>
<totfact> 0.68592680E+03</totfact>
</mgrwt>
</event>
<event>
 5    1  0.3184438E-002  0.1249966E+03  0.7818608E-02  0.1235075E+00
         -4   -1    0    0    0  501 -0.00000000000E+00  0.00000000000E+00  0.76178190137E+02  0.76188775764E+02  0.12700000000E+01 0.  1.
          4   -1    0    0  501    0  0.00000000000E+00 -0.00000000000E+00 -0.51252983418E+02  0.51268715698E+02  0.12700000000E+01 0.  1.
         25    2    1    2    0    0  0.00000000000E+00  0.00000000000E+00  0.24925206718E+02  0.12745749146E+03  0.12499658475E+03 0.  0.
    9000005    1    3    3    0    0 -0.44736811274E+02 -0.41950299522E+02  0.23371774997E+00  0.61337301350E+02  0.10000000000E+01 0.  0.
    9000005    1    3    3    0    0  0.44736811274E+02  0.41950299522E+02  0.24691488968E+02  0.66120190112E+02  0.10000000000E+01 0.  0.
<mgrwt>
<rscale>  0 0.12499658E+03</rscale>
<asrwt>0</asrwt>
<pdfrwt beam="2">  1        4 0.78870988E-02 0.12499658E+03</pdfrwt>
<pdfrwt beam="1">  1       -4 0.11721746E-01 0.12499658E+03</pdfrwt>
<totfact> 0.10400023E+04</totfact>
</mgrwt>
</event>
<event>
 5    1  0.3184438E-002  0.1250005E+03  0.7818608E-02  0.1235068E+00
         -4   -1    0    0    0  501 -0.00000000000E+00  0.00000000000E+00  0.55466192190E+03  0.55466337585E+03  0.12700000000E+01 0. -1.
          4   -1    0    0  501    0  0.00000000000E+00 -0.00000000000E+00 -0.69839094088E+01  0.70984428314E+01  0.12700000000E+01 0. -1.
         25    2    1    2    0    0  0.00000000000E+00  0.00000000000E+00  0.54767801249E+03  0.56176181868E+03  0.12500054223E+03 0.  0.
    9000005    1    3    3    0    0 -0.49937373400E+02 -0.29764186853E+02  0.17080447658E+03  0.18042953555E+03  0.10000000000E+01 0.  0.
    9000005    1    3    3    0    0  0.49937373400E+02  0.29764186853E+02  0.37687353592E+03  0.38133228313E+03  0.10000000000E+01 0.  0.
<mgrwt>
<rscale>  0 0.12500054E+03</rscale>
<asrwt>0</asrwt>
<pdfrwt beam="2">  1        4 0.10833696E-02 0.12500054E+03</pdfrwt>
<pdfrwt beam="1">  1       -4 0.85341536E-01 0.12500054E+03</pdfrwt>
<totfact> 0.51373221E+03</totfact>
</mgrwt>
</event>
<event>
 5    1  0.3184438E-002  0.1250032E+03  0.7818608E-02  0.1235064E+00
          4   -1    0    0  501    0  0.00000000000E+00  0.00000000000E+00  0.18475709906E+03  0.18476146392E+03  0.12700000000E+01 0. -1.
         -4   -1    0    0    0  501 -0.00000000000E+00 -0.00000000000E+00 -0.21120032157E+02  0.21158181829E+02  0.12700000000E+01 0. -1.
         25    2    1    2    0    0  0.00000000000E+00  0.00000000000E+00  0.16363706690E+03  0.20591964575E+03  0.12500324333E+03 0.  0.
    9000005    1    3    3    0    0  0.14686977786E+02 -0.16279149017E+02 -0.14584337623E+02  0.26351867355E+02  0.10000000000E+01 0.  0.
    9000005    1    3    3    0    0 -0.14686977786E+02  0.16279149017E+02  0.17822140452E+03  0.17956777840E+03  0.10000000000E+01 0.  0.
<mgrwt>
<rscale>  0 0.12500324E+03</rscale>
<asrwt>0</asrwt>
<pdfrwt beam="1">  1        4 0.28427438E-01 0.12500324E+03</pdfrwt>
<pdfrwt beam="2">  1       -4 0.32525062E-02 0.12500324E+03</pdfrwt>
<totfact> 0.89140157E+03</totfact>
</mgrwt>
</event>
<event>
 5    1  0.3184438E-002  0.1250007E+03  0.7818608E-02  0.1235068E+00
          4   -1    0    0  501    0  0.00000000000E+00  0.00000000000E+00  0.13427986571E+02  0.13487910266E+02  0.12700000000E+01 0.  1.
         -4   -1    0    0    0  501 -0.00000000000E+00 -0.00000000000E+00 -0.29019798559E+03  0.29020076454E+03  0.12700000000E+01 0.  1.
         25    2    1    2    0    0  0.00000000000E+00  0.00000000000E+00 -0.27676999902E+03  0.30368867481E+03  0.12500071540E+03 0.  0.
    9000005    1    3    3    0    0 -0.45818637607E+02  0.38363684731E+02 -0.18279727054E+03  0.19231994690E+03  0.10000000000E+01 0.  0.
    9000005    1    3    3    0    0  0.45818637607E+02 -0.38363684731E+02 -0.93972728482E+02  0.11136872791E+03  0.10000000000E+01 0.  0.
<mgrwt>
<rscale>  0 0.12500072E+03</rscale>
<asrwt>0</asrwt>
<pdfrwt beam="1">  1        4 0.20706676E-02 0.12500072E+03</pdfrwt>
<pdfrwt beam="2">  1       -4 0.44650662E-01 0.12500072E+03</pdfrwt>
<totfact> 0.75137265E+03</totfact>
</mgrwt>
</event>
<event>
 5    1  0.3184438E-002  0.1250046E+03  0.7818608E-02  0.1235062E+00
         -4   -1    0    0    0  501 -0.00000000000E+00  0.00000000000E+00  0.40190061641E+02  0.40210122541E+02  0.12700000000E+01 0.  1.
          4   -1    0    0  501    0  0.00000000000E+00 -0.00000000000E+00 -0.97153067319E+02  0.97161367783E+02  0.12700000000E+01 0.  1.
         25    2    1    2    0    0  0.00000000000E+00  0.00000000000E+00 -0.56963005677E+02  0.13737149032E+03  0.12500456927E+03 0.  0.
    9000005    1    3    3    0    0  0.21051037594E+02 -0.56860646210E+02 -0.11842343756E+02  0.61786085625E+02  0.10000000000E+01 0.  0.
    9000005    1    3    3    0    0 -0.21051037594E+02  0.56860646210E+02 -0.45120661921E+02  0.75585404699E+02  0.10000000000E+01 0.  0.
<mgrwt>
<rscale>  0 0.12500457E+03</rscale>
<asrwt>0</asrwt>
<pdfrwt beam="2">  1        4 0.14948807E-01 0.12500457E+03</pdfrwt>
<pdfrwt beam="1">  1       -4 0.61852681E-02 0.12500457E+03</pdfrwt>
<totfact> 0.10187275E+04</totfact>
</mgrwt>
</event>
<event>
 5    1  0.3184438E-002  0.1249970E+03  0.7818608E-02  0.1235074E+00
         -4   -1    0    0    0  501 -0.00000000000E+00  0.00000000000E+00  0.38339298388E+02  0.38360327174E+02  0.12700000000E+01 0.  1.
          4   -1    0    0  501    0  0.00000000000E+00 -0.00000000000E+00 -0.10182846372E+03  0.10183638310E+03  0.12700000000E+01 0.  1.
         25    2    1    2    0    0  0.00000000000E+00  0.00000000000E+00 -0.63489165332E+02  0.14019671028E+03  0.12499697380E+03 0.  0.
    9000005    1    3    3    0    0 -0.28339971668E+02  0.34866388087E+02  0.16967535285E+02  0.48038695507E+02  0.10000000000E+01 0.  0.
    9000005    1    3    3    0    0  0.28339971668E+02 -0.34866388087E+02 -0.80456700616E+02  0.92158014770E+02  0.10000000000E+01 0.  0.
<mgrwt>
<rscale>  0 0.12499697E+03</rscale>
<asrwt>0</asrwt>
<pdfrwt beam="2">  1        4 0.15668144E-01 0.12499697E+03</pdfrwt>
<pdfrwt beam="1">  1       -4 0.59005804E-02 0.12499697E+03</pdfrwt>
<totfact> 0.10130201E+04</totfact>
</mgrwt>
</event>
<event>
 5    1  0.3184438E-002  0.1250036E+03  0.7818608E-02  0.1235064E+00
         -4   -1    0    0    0  501 -0.00000000000E+00  0.00000000000E+00  0.21149054781E+02  0.21187152195E+02  0.12700000000E+01 0.  1.
          4   -1    0    0  501    0  0.00000000000E+00 -0.00000000000E+00 -0.18450501353E+03  0.18450938436E+03  0.12700000000E+01 0.  1.
         25    2    1    2    0    0  0.00000000000E+00  0.00000000000E+00 -0.16335595875E+03  0.20569653656E+03  0.12500358352E+03 0.  0.
    9000005    1    3    3    0    0 -0.50589270590E+02  0.30888699533E+02 -0.49094591030E+02  0.76971845022E+02  0.10000000000E+01 0.  0.
    9000005    1    3    3    0    0  0.50589270590E+02 -0.30888699533E+02 -0.11426136772E+03  0.12872469154E+03  0.10000000000E+01 0.  0.
<mgrwt>
<rscale>  0 0.12500358E+03</rscale>
<asrwt>0</asrwt>
<pdfrwt beam="2">  1        4 0.28388652E-01 0.12500358E+03</pdfrwt>
<pdfrwt beam="1">  1       -4 0.32569676E-02 0.12500358E+03</pdfrwt>
<totfact> 0.89176404E+03</totfact>
</mgrwt>
</event>
<event>
 5    1  0.3184438E-002  0.1250094E+03  0.7818608E-02  0.1235055E+00
          4   -1    0    0  501    0  0.00000000000E+00  0.00000000000E+00  0.18251105961E+02  0.18295238966E+02  0.12700000000E+01 0. -1.
         -4   -1    0    0    0  501 -0.00000000000E+00 -0.00000000000E+00 -0.21375596600E+03  0.21375973873E+03  0.12700000000E+01 0. -1.
         25    2    1    2    0    0  0.00000000000E+00  0.00000000000E+00 -0.19550486004E+03  0.23205497769E+03  0.12500944914E+03 0.  0.
    9000005    1    3    3    0    0  0.26506241046E+02 -0.15067861092E+02  0.35175010966E+01  0.30708208451E+02  0.10000000000E+01 0.  0.
    9000005    1    3    3    0    0 -0.26506241046E+02  0.15067861092E+02 -0.19902236113E+03  0.20134676924E+03  0.10000000000E+01 0.  0.
<mgrwt>
<rscale>  0 0.12500945E+03</rscale>
<asrwt>0</asrwt>
<pdfrwt beam="1">  1        4 0.28115477E-02 0.12500945E+03</pdfrwt>
<pdfrwt beam="2">  1       -4 0.32889217E-01 0.12500945E+03</pdfrwt>
<totfact> 0.84977136E+03</totfact>
</mgrwt>
</event>
<event>
 5    1  0.3184438E-002  0.1249981E+03  0.7818608E-02  0.1235072E+00
         -4   -1    0    0    0  501 -0.00000000000E+00  0.00000000000E+00  0.26753897140E+01  0.29615215890E+01  0.12700000000E+01 0. -1.
          4   -1    0    0  501    0  0.00000000000E+00 -0.00000000000E+00 -0.13856256652E+04  0.13856262473E+04  0.12700000000E+01 0. -1.
         25    2    1    2    0    0  0.00000000000E+00  0.00000000000E+00 -0.13829502755E+04  0.13885877688E+04  0.12499810877E+03 0.  0.
    9000005    1    3    3    0    0  0.44530703048E+01 -0.51273675812E+02 -0.29772685720E+03  0.30214417282E+03  0.10000000000E+01 0.  0.
    9000005    1    3    3    0    0 -0.44530703048E+01  0.51273675812E+02 -0.10852234183E+04  0.10864435960E+04  0.10000000000E+01 0.  0.
<mgrwt>
<rscale>  0 0.12499811E+03</rscale>
<asrwt>0</asrwt>
<pdfrwt beam="2">  1        4 0.21319469E+00 0.12499811E+03</pdfrwt>
<pdfrwt beam="1">  1       -4 0.43365444E-03 0.12499811E+03</pdfrwt>
<totfact> 0.20228067E+03</totfact>
</mgrwt>
</event>
<event>
 5    1  0.3184438E-002  0.1250045E+03  0.7818608E-02  0.1235062E+00
          4   -1    0    0  501    0  0.00000000000E+00  0.00000000000E+00  0.13484208810E+02  0.13543883758E+02  0.12700000000E+01 0.  1.
         -4   -1    0    0    0  501 -0.00000000000E+00 -0.00000000000E+00 -0.28901069607E+03  0.28901348644E+03  0.12700000000E+01 0.  1.
         25    2    1    2    0    0  0.00000000000E+00  0.00000000000E+00 -0.27552648726E+03  0.30255737020E+03  0.12500446823E+03 0.  0.
    9000005    1    3    3    0    0  0.14219502015E+02 -0.27459078087E+02 -0.63182096508E+01  0.31577127484E+02  0.10000000000E+01 0.  0.
    9000005    1    3    3    0    0 -0.14219502015E+02  0.27459078087E+02 -0.26920827761E+03  0.27098024272E+03  0.10000000000E+01 0.  0.
<mgrwt>
<rscale>  0 0.12500447E+03</rscale>
<asrwt>0</asrwt>
<pdfrwt beam="1">  1        4 0.20792989E-02 0.12500447E+03</pdfrwt>
<pdfrwt beam="2">  1       -4 0.44467984E-01 0.12500447E+03</pdfrwt>
<totfact> 0.75271699E+03</totfact>
</mgrwt>
</event>
<event>
 5    1  0.3184438E-002  0.1250003E+03  0.7818608E-02  0.1235069E+00
          4   -1    0    0  501    0  0.00000000000E+00  0.00000000000E+00  0.78412216946E+01  0.79434034056E+01  0.12700000000E+01 0. -1.
         -4   -1    0    0    0  501 -0.00000000000E+00 -0.00000000000E+00 -0.49484307140E+03  0.49484470110E+03  0.12700000000E+01 0. -1.
         25    2    1    2    0    0  0.00000000000E+00  0.00000000000E+00 -0.48700184970E+03  0.50278810451E+03  0.12500030569E+03 0.  0.
    9000005    1    3    3    0    0 -0.25977103815E+01 -0.14917339142E+02  0.37072474860E+00  0.15179345939E+02  0.10000000000E+01 0.  0.
    9000005    1    3    3    0    0  0.25977103815E+01  0.14917339142E+02 -0.48737257445E+03  0.48760875857E+03  0.10000000000E+01 0.  0.
<mgrwt>
<rscale>  0 0.12500031E+03</rscale>
<asrwt>0</asrwt>
<pdfrwt beam="1">  1        4 0.12143277E-02 0.12500031E+03</pdfrwt>
<pdfrwt beam="2">  1       -4 0.76137664E-01 0.12500031E+03</pdfrwt>
<totfact> 0.55648328E+03</totfact>
</mgrwt>
</event>
<event>
 5    1  0.3184438E-002  0.1250075E+03  0.7818608E-02  0.1235058E+00
         -4   -1    0    0    0  501 -0.00000000000E+00  0.00000000000E+00  0.51509859883E+03  0.51510016445E+03  0.12700000000E+01 0. -1.
          4   -1    0    0  501    0  0.00000000000E+00 -0.00000000000E+00 -0.75296567721E+01  0.76360088466E+01  0.12700000000E+01 0. -1.
         25    2    1    2    0    0  0.00000000000E+00  0.00000000000E+00  0.50756894205E+03  0.52273617329E+03  0.12500750350E+03 0.  0.
    9000005    1    3    3    0    0  0.34638918794E+01  0.41985049265E+02  0.44681933728E+03  0.44880203105E+03  0.10000000000E+01 0.  0.
    9000005    1    3    3    0    0 -0.34638918794E+01 -0.41985049265E+02  0.60749604774E+02  0.73934142241E+02  0.10000000000E+01 0.  0.
<mgrwt>
<rscale>  0 0.12500750E+03</rscale>
<asrwt>0</asrwt>
<pdfrwt beam="2">  1        4 0.11667100E-02 0.12500750E+03</pdfrwt>
<pdfrwt beam="1">  1       -4 0.79254244E-01 0.12500750E+03</pdfrwt>
<totfact> 0.54133556E+03</totfact>
</mgrwt>
</event>
<event>
 5    1  0.3184438E-002  0.1250052E+03  0.7818608E-02  0.1235061E+00
         -4   -1    0    0    0  501 -0.00000000000E+00  0.00000000000E+00  0.55012207006E+03  0.55012353600E+03  0.12700000000E+01 0.  1.
          4   -1    0    0  501    0  0.00000000000E+00 -0.00000000000E+00 -0.70430168646E+01  0.71566044011E+01  0.12700000000E+01 0.  1.
         25    2    1    2    0    0  0.00000000000E+00  0.00000000000E+00  0.54307905319E+03  0.55728014040E+03  0.12500518738E+03 0.  0.
    9000005    1    3    3    0    0 -0.15578832025E+02 -0.48536085568E+02  0.43271675905E+03  0.43571004714E+03  0.10000000000E+01 0.  0.
    9000005    1    3    3    0    0  0.15578832025E+02  0.48536085568E+02  0.11036229414E+03  0.12157009327E+03  0.10000000000E+01 0.  0.
<mgrwt>
<rscale>  0 0.12500519E+03</rscale>
<asrwt>0</asrwt>
<pdfrwt beam="2">  1        4 0.10923915E-02 0.12500519E+03</pdfrwt>
<pdfrwt beam="1">  1       -4 0.84643004E-01 0.12500519E+03</pdfrwt>
<totfact> 0.51674359E+03</totfact>
</mgrwt>
</event>
<event>
 5    1  0.3184438E-002  0.1250014E+03  0.7818608E-02  0.1235067E+00
         -4   -1    0    0    0  501 -0.00000000000E+00  0.00000000000E+00  0.21657037611E+03  0.21657409981E+03  0.12700000000E+01 0. -1.
          4   -1    0    0  501    0  0.00000000000E+00 -0.00000000000E+00 -0.18011013675E+02  0.18055733538E+02  0.12700000000E+01 0. -1.
         25    2    1    2    0    0  0.00000000000E+00  0.00000000000E+00  0.19855936243E+03  0.23462983335E+03  0.12500135314E+03 0.  0.
    9000005    1    3    3    0    0 -0.47660650609E+02 -0.40163663940E+02  0.90744497990E+02  0.11009187723E+03  0.10000000000E+01 0.  0.
    9000005    1    3    3    0    0  0.47660650609E+02  0.40163663940E+02  0.10781486444E+03  0.12453795611E+03  0.10000000000E+01 0.  0.
<mgrwt>
<rscale>  0 0.12500135E+03</rscale>
<asrwt>0</asrwt>
<pdfrwt beam="2">  1        4 0.27746514E-02 0.12500135E+03</pdfrwt>
<pdfrwt beam="1">  1       -4 0.33322248E-01 0.12500135E+03</pdfrwt>
<totfact> 0.84601159E+03</totfact>
</mgrwt>
</event>
<event>
 5    1  0.3184438E-002  0.1249998E+03  0.7818608E-02  0.1235070E+00
          4   -1    0    0  501    0  0.00000000000E+00  0.00000000000E+00  0.71957650571E+02  0.71968856985E+02  0.12700000000E+01 0. -1.
         -4   -1    0    0    0  501 -0.00000000000E+00 -0.00000000000E+00 -0.54262333885E+02  0.54277193909E+02  0.12700000000E+01 0. -1.
         25    2    1    2    0    0  0.00000000000E+00  0.00000000000E+00  0.17695316687E+02  0.12624605089E+03  0.12499976453E+03 0.  0.
    9000005    1    3    3    0    0 -0.44591761567E+02  0.14623734337E+02  0.50525995289E+02  0.68964882408E+02  0.10000000000E+01 0.  0.
    9000005    1    3    3    0    0  0.44591761567E+02 -0.14623734337E+02 -0.32830678603E+02  0.57281168486E+02  0.10000000000E+01 0.  0.
<mgrwt>
<rscale>  0 0.12499976E+03</rscale>
<asrwt>0</asrwt>
<pdfrwt beam="1">  1        4 0.11072413E-01 0.12499976E+03</pdfrwt>
<pdfrwt beam="2">  1       -4 0.83500565E-02 0.12499976E+03</pdfrwt>
<totfact> 0.10425628E+04</totfact>
</mgrwt>
</event>
<event>
 5    1  0.3184438E-002  0.1250098E+03  0.7818608E-02  0.1235054E+00
         -4   -1    0    0    0  501 -0.00000000000E+00  0.00000000000E+00  0.60955699355E+02  0.60968928020E+02  0.12700000000E+01 0.  1.
          4   -1    0    0  501    0  0.00000000000E+00 -0.00000000000E+00 -0.64066994617E+02  0.64079580986E+02  0.12700000000E+01 0.  1.
         25    2    1    2    0    0  0.00000000000E+00  0.00000000000E+00 -0.31112952624E+01  0.12504850901E+03  0.12500979740E+03 0.  0.
    9000005    1    3    3    0    0  0.31373737992E+02 -0.48201356118E+02  0.22909648747E+02  0.61915540642E+02  0.10000000000E+01 0.  0.
    9000005    1    3    3    0    0 -0.31373737992E+02  0.48201356118E+02 -0.26020944009E+02  0.63132968364E+02  0.10000000000E+01 0.  0.
<mgrwt>
<rscale>  0 0.12500980E+03</rscale>
<asrwt>0</asrwt>
<pdfrwt beam="2">  1        4 0.98584465E-02 0.12500980E+03</pdfrwt>
<pdfrwt beam="1">  1       -4 0.93797857E-02 0.12500980E+03</pdfrwt>
<totfact> 0.10449495E+04</totfact>
</mgrwt>
</event>
<event>
 5    1  0.3184438E-002  0.1249992E+03  0.7818608E-02  0.1235071E+00
          4   -1    0    0  501    0  0.00000000000E+00  0.00000000000E+00  0.17464626708E+02  0.17510742019E+02  0.12700000000E+01 0. -1.
         -4   -1    0    0    0  501 -0.00000000000E+00 -0.00000000000E+00 -0.22332060138E+03  0.22332421253E+03  0.12700000000E+01 0. -1.
         25    2    1    2    0    0  0.00000000000E+00  0.00000000000E+00 -0.20585597467E+03  0.24083495455E+03  0.12499917209E+03 0.  0.
    9000005    1    3    3    0    0  0.50513339649E+02  0.26995567200E+02 -0.15108913627E+03  0.16158367872E+03  0.10000000000E+01 0.  0.
    9000005    1    3    3    0    0 -0.50513339649E+02 -0.26995567200E+02 -0.54766838407E+02  0.79251275826E+02  0.10000000000E+01 0.  0.
<mgrwt>
<rscale>  0 0.12499917E+03</rscale>
<asrwt>0</asrwt>
<pdfrwt beam="1">  1        4 0.26906909E-02 0.12499917E+03</pdfrwt>
<pdfrwt beam="2">  1       -4 0.34360839E-01 0.12499917E+03</pdfrwt>
<totfact> 0.83674718E+03</totfact>
</mgrwt>
</event>
<event>
 5    1  0.3184438E-002  0.1249957E+03  0.7818608E-02  0.1235076E+00
          4   -1    0    0  501    0  0.00000000000E+00  0.00000000000E+00  0.44014023243E+02  0.44032342000E+02  0.12700000000E+01 0. -1.
         -4   -1    0    0    0  501 -0.00000000000E+00 -0.00000000000E+00 -0.88702696787E+02  0.88711787928E+02  0.12700000000E+01 0. -1.
         25    2    1    2    0    0  0.00000000000E+00  0.00000000000E+00 -0.44688673545E+02  0.13274412993E+03  0.12499570587E+03 0.  0.
    9000005    1    3    3    0    0 -0.31360653184E+00  0.51417480870E+02 -0.60058064390E+02  0.79068494272E+02  0.10000000000E+01 0.  0.
    9000005    1    3    3    0    0  0.31360653184E+00 -0.51417480870E+02  0.15369390845E+02  0.53675635656E+02  0.10000000000E+01 0.  0.
<mgrwt>
<rscale>  0 0.12499571E+03</rscale>
<asrwt>0</asrwt>
<pdfrwt beam="1">  1        4 0.67734967E-02 0.12499571E+03</pdfrwt>
<pdfrwt beam="2">  1       -4 0.13648677E-01 0.12499571E+03</pdfrwt>
<totfact> 0.10286837E+04</totfact>
</mgrwt>
</event>
<event>
 5    1  0.3184438E-002  0.1250045E+03  0.7818608E-02  0.1235062E+00
         -4   -1    0    0    0  501 -0.00000000000E+00  0.00000000000E+00  0.11837668588E+02  0.11905599422E+02  0.12700000000E+01 0.  1.
          4   -1    0    0  501    0  0.00000000000E+00 -0.00000000000E+00 -0.32899509237E+03  0.32899754361E+03  0.12700000000E+01 0.  1.
         25    2    1    2    0    0  0.00000000000E+00  0.00000000000E+00 -0.31715742378E+03  0.34090314304E+03  0.12500448580E+03 0.  0.
    9000005    1    3    3    0    0  0.13372772402E+01 -0.29164438299E+02 -0.30926767370E+03  0.31064424471E+03  0.10000000000E+01 0.  0.
    9000005    1    3    3    0    0 -0.13372772402E+01  0.29164438299E+02 -0.78897500797E+01  0.30258898328E+02  0.10000000000E+01 0.  0.
<mgrwt>
<rscale>  0 0.12500449E+03</rscale>
<asrwt>0</asrwt>
<pdfrwt beam="2">  1        4 0.50620037E-01 0.12500449E+03</pdfrwt>
<pdfrwt beam="1">  1       -4 0.18265940E-02 0.12500449E+03</pdfrwt>
<totfact> 0.70730031E+03</totfact>
</mgrwt>
</event>
<event>
 5    1  0.3184438E-002  0.1250016E+03  0.7818608E-02  0.1235067E+00
         -4   -1    0    0    0  501 -0.00000000000E+00  0.00000000000E+00  0.99452578511E+01  0.10026018837E+02  0.12700000000E+01 0.  1.
          4   -1    0    0  501    0  0.00000000000E+00 -0.00000000000E+00 -0.39111515945E+03  0.39111722137E+03  0.12700000000E+01 0.  1.
         25    2    1    2    0    0  0.00000000000E+00  0.00000000000E+00 -0.38116990160E+03  0.40114324021E+03  0.12500162110E+03 0.  0.
    9000005    1    3    3    0    0 -0.37021742871E+01 -0.59539993925E+02 -0.25033243604E+03  0.25734421600E+03  0.10000000000E+01 0.  0.
    9000005    1    3    3    0    0  0.37021742871E+01  0.59539993925E+02 -0.13083746556E+03  0.14379902421E+03  0.10000000000E+01 0.  0.
<mgrwt>
<rscale>  0 0.12500162E+03</rscale>
<asrwt>0</asrwt>
<pdfrwt beam="2">  1        4 0.60177922E-01 0.12500162E+03</pdfrwt>
<pdfrwt beam="1">  1       -4 0.15364110E-02 0.12500162E+03</pdfrwt>
<totfact> 0.64439450E+03</totfact>
</mgrwt>
</event>
<event>
 5    1  0.3184438E-002  0.1249984E+03  0.7818608E-02  0.1235072E+00
         -4   -1    0    0    0  501 -0.00000000000E+00  0.00000000000E+00  0.41701702053E+02  0.41721036110E+02  0.12700000000E+01 0. -1.
          4   -1    0    0  501    0  0.00000000000E+00 -0.00000000000E+00 -0.93623530896E+02  0.93632144253E+02  0.12700000000E+01 0. -1.
         25    2    1    2    0    0  0.00000000000E+00  0.00000000000E+00 -0.51921828843E+02  0.13535318036E+03  0.12499842849E+03 0.  0.
    9000005    1    3    3    0    0 -0.46740182102E+02 -0.37538564514E+02 -0.68536882179E+01  0.60347008964E+02  0.10000000000E+01 0.  0.
    9000005    1    3    3    0    0  0.46740182102E+02  0.37538564514E+02 -0.45068140625E+02  0.75006171400E+02  0.10000000000E+01 0.  0.
<mgrwt>
<rscale>  0 0.12499843E+03</rscale>
<asrwt>0</asrwt>
<pdfrwt beam="2">  1        4 0.14405770E-01 0.12499843E+03</pdfrwt>
<pdfrwt beam="1">  1       -4 0.64177963E-02 0.12499843E+03</pdfrwt>
<totfact> 0.10230995E+04</totfact>
</mgrwt>
</event>
<event>
 5    1  0.3184438E-002  0.1249973E+03  0.7818608E-02  0.1235073E+00
         -4   -1    0    0    0  501 -0.00000000000E+00  0.00000000000E+00  0.11486702109E+02  0.11556696126E+02  0.12700000000E+01 0. -1.
          4   -1    0    0  501    0  0.00000000000E+00 -0.00000000000E+00 -0.33894856712E+03  0.33895094638E+03  0.12700000000E+01 0. -1.
         25    2    1    2    0    0  0.00000000000E+00  0.00000000000E+00 -0.32746186501E+03  0.35050764251E+03  0.12499733765E+03 0.  0.
    9000005    1    3    3    0    0 -0.12412815909E+02  0.53159307527E+02 -0.24901925529E+03  0.25493446114E+03  0.10000000000E+01 0.  0.
    9000005    1    3    3    0    0  0.12412815909E+02 -0.53159307527E+02 -0.78442609729E+02  0.95573181367E+02  0.10000000000E+01 0.  0.
<mgrwt>
<rscale>  0 0.12499734E+03</rscale>
<asrwt>0</asrwt>
<pdfrwt beam="2">  1        4 0.52151493E-01 0.12499734E+03</pdfrwt>
<pdfrwt beam="1">  1       -4 0.17727524E-02 0.12499734E+03</pdfrwt>
<totfact> 0.69672853E+03</totfact>
</mgrwt>
</event>
<event>
 5    1  0.3184438E-002  0.1250002E+03  0.7818608E-02  0.1235069E+00
         -4   -1    0    0    0  501 -0.00000000000E+00  0.00000000000E+00  0.84977660204E+03  0.84977755105E+03  0.12700000000E+01 0. -1.
          4   -1    0    0  501    0  0.00000000000E+00 -0.00000000000E+00 -0.45081226044E+01  0.46835957785E+01  0.12700000000E+01 0. -1.
         25    2    1    2    0    0  0.00000000000E+00  0.00000000000E+00  0.84526847943E+03  0.85446114683E+03  0.12500019647E+03 0.  0.
    9000005    1    3    3    0    0  0.62328765302E+02  0.31155439933E+01  0.44497413325E+03  0.44933012458E+03  0.10000000000E+01 0.  0.
    9000005    1    3    3    0    0 -0.62328765302E+02 -0.31155439933E+01  0.40029434618E+03  0.40513102225E+03  0.10000000000E+01 0.  0.
<mgrwt>
<rscale>  0 0.12500020E+03</rscale>
<asrwt>0</asrwt>
<pdfrwt beam="2">  1        4 0.70712857E-03 0.12500020E+03</pdfrwt>
<pdfrwt beam="1">  1       -4 0.13074838E+00 0.12500020E+03</pdfrwt>
<totfact> 0.35945321E+03</totfact>
</mgrwt>
</event>
<event>
 5    1  0.3184438E-002  0.1249948E+03  0.7818608E-02  0.1235077E+00
         -4   -1    0    0    0  501 -0.00000000000E+00  0.00000000000E+00  0.40986380320E+03  0.40986577081E+03  0.12700000000E+01 0.  1.
          4   -1    0    0  501    0  0.00000000000E+00 -0.00000000000E+00 -0.94855067792E+01  0.95701483196E+01  0.12700000000E+01 0.  1.
         25    2    1    2    0    0  0.00000000000E+00  0.00000000000E+00  0.40037829643E+03  0.41943591912E+03  0.12499483991E+03 0.  0.
    9000005    1    3    3    0    0 -0.75901087266E+01  0.54181635834E+02  0.98869911048E+02  0.11300229521E+03  0.10000000000E+01 0.  0.
    9000005    1    3    3    0    0  0.75901087266E+01 -0.54181635834E+02  0.30150838538E+03  0.30643362391E+03  0.10000000000E+01 0.  0.
<mgrwt>
<rscale>  0 0.12499484E+03</rscale>
<asrwt>0</asrwt>
<pdfrwt beam="2">  1        4 0.14659711E-02 0.12499484E+03</pdfrwt>
<pdfrwt beam="1">  1       -4 0.63062625E-01 0.12499484E+03</pdfrwt>
<totfact> 0.62712515E+03</totfact>
</mgrwt>
</event>
<event>
 5    1  0.3184438E-002  0.1249963E+03  0.7818608E-02  0.1235075E+00
          4   -1    0    0  501    0  0.00000000000E+00  0.00000000000E+00  0.13061762382E+03  0.13062379780E+03  0.12700000000E+01 0.  1.
         -4   -1    0    0    0  501 -0.00000000000E+00 -0.00000000000E+00 -0.29883875118E+02  0.29910849070E+02  0.12700000000E+01 0.  1.
         25    2    1    2    0    0  0.00000000000E+00  0.00000000000E+00  0.10073374870E+03  0.16053464687E+03  0.12499633882E+03 0.  0.
    9000005    1    3    3    0    0 -0.27821261031E+02 -0.51181969442E+02  0.21323049618E+02  0.62042638615E+02  0.10000000000E+01 0.  0.
    9000005    1    3    3    0    0  0.27821261031E+02  0.51181969442E+02  0.79410699080E+02  0.98492008253E+02  0.10000000000E+01 0.  0.
<mgrwt>
<rscale>  0 0.12499634E+03</rscale>
<asrwt>0</asrwt>
<pdfrwt beam="1">  1        4 0.20097569E-01 0.12499634E+03</pdfrwt>
<pdfrwt beam="2">  1       -4 0.46000691E-02 0.12499634E+03</pdfrwt>
<totfact> 0.97247810E+03</totfact>
</mgrwt>
</event>
<event>
 5    1  0.3184438E-002  0.1249979E+03  0.7818608E-02  0.1235073E+00
         -4   -1    0    0    0  501 -0.00000000000E+00  0.00000000000E+00  0.51821534175E+03  0.51821689796E+03  0.12700000000E+01 0.  1.
          4   -1    0    0  501    0  0.00000000000E+00 -0.00000000000E+00 -0.74825607004E+01  0.75895727570E+01  0.12700000000E+01 0.  1.
         25    2    1    2    0    0  0.00000000000E+00  0.00000000000E+00  0.51073278105E+03  0.52580647071E+03  0.12499788399E+03 0.  0.
    9000005    1    3    3    0    0  0.38323852965E+02  0.21631331390E+02  0.44199979589E+03  0.44418628048E+03  0.10000000000E+01 0.  0.
    9000005    1    3    3    0    0 -0.38323852965E+02 -0.21631331390E+02  0.68732985164E+02  0.81620190231E+02  0.10000000000E+01 0.  0.
<mgrwt>
<rscale>  0 0.12499788E+03</rscale>
<asrwt>0</asrwt>
<pdfrwt beam="2">  1        4 0.11595147E-02 0.12499788E+03</pdfrwt>
<pdfrwt beam="1">  1       -4 0.79733782E-01 0.12499788E+03</pdfrwt>
<totfact> 0.53918767E+03</totfact>
</mgrwt>
</event>
<event>
 5    1  0.3184438E-002  0.1250067E+03  0.7818608E-02  0.1235059E+00
          4   -1    0    0  501    0  0.00000000000E+00  0.00000000000E+00  0.16304723184E+03  0.16305217788E+03  0.12700000000E+01 0. -1.
         -4   -1    0    0    0  501 -0.00000000000E+00 -0.00000000000E+00 -0.23938224838E+02  0.23971889963E+02  0.12700000000E+01 0. -1.
         25    2    1    2    0    0  0.00000000000E+00  0.00000000000E+00  0.13910900700E+03  0.18702406784E+03  0.12500674431E+03 0.  0.
    9000005    1    3    3    0    0  0.40216426731E+02 -0.32105292811E+02  0.16499232519E+02  0.54049380008E+02  0.10000000000E+01 0.  0.
    9000005    1    3    3    0    0 -0.40216426731E+02  0.32105292811E+02  0.12260977448E+03  0.13297468783E+03  0.10000000000E+01 0.  0.
<mgrwt>
<rscale>  0 0.12500674E+03</rscale>
<asrwt>0</asrwt>
<pdfrwt beam="1">  1        4 0.25087159E-01 0.12500674E+03</pdfrwt>
<pdfrwt beam="2">  1       -4 0.36857739E-02 0.12500674E+03</pdfrwt>
<totfact> 0.92353754E+03</totfact>
</mgrwt>
</event>
<event>
 5    1  0.3184438E-002  0.1250001E+03  0.7818608E-02  0.1235069E+00
          4   -1    0    0  501    0  0.00000000000E+00  0.00000000000E+00  0.90704605332E+03  0.90704694241E+03  0.12700000000E+01 0.  1.
         -4   -1    0    0    0  501 -0.00000000000E+00 -0.00000000000E+00 -0.42120252387E+01  0.43993245631E+01  0.12700000000E+01 0.  1.
         25    2    1    2    0    0  0.00000000000E+00  0.00000000000E+00  0.90283402808E+03  0.91144626697E+03  0.12500006130E+03 0.  0.
    9000005    1    3    3    0    0  0.50641555526E+02 -0.28575331003E+02  0.28448358546E+03  0.29036705579E+03  0.10000000000E+01 0.  0.
    9000005    1    3    3    0    0 -0.50641555526E+02  0.28575331003E+02  0.61835044261E+03  0.62107921119E+03  0.10000000000E+01 0.  0.
<mgrwt>
<rscale>  0 0.12500006E+03</rscale>
<asrwt>0</asrwt>
<pdfrwt beam="1">  1        4 0.13955995E+00 0.12500006E+03</pdfrwt>
<pdfrwt beam="2">  1       -4 0.66248025E-03 0.12500006E+03</pdfrwt>
<totfact> 0.33725377E+03</totfact>
</mgrwt>
</event>
<event>
 5    1  0.3184438E-002  0.1250023E+03  0.7818608E-02  0.1235066E+00
         -4   -1    0    0    0  501 -0.00000000000E+00  0.00000000000E+00  0.22609129755E+02  0.22644770881E+02  0.12700000000E+01 0. -1.
          4   -1    0    0  501    0  0.00000000000E+00 -0.00000000000E+00 -0.17260549103E+03  0.17261016318E+03  0.12700000000E+01 0. -1.
         25    2    1    2    0    0  0.00000000000E+00  0.00000000000E+00 -0.14999636127E+03  0.19525493406E+03  0.12500232350E+03 0.  0.
    9000005    1    3    3    0    0  0.35874753753E+02 -0.38687496839E+02 -0.22684241463E+02  0.57439491461E+02  0.10000000000E+01 0.  0.
    9000005    1    3    3    0    0 -0.35874753753E+02  0.38687496839E+02 -0.12731211981E+03  0.13781544260E+03  0.10000000000E+01 0.  0.
<mgrwt>
<rscale>  0 0.12500232E+03</rscale>
<asrwt>0</asrwt>
<pdfrwt beam="2">  1        4 0.26557791E-01 0.12500232E+03</pdfrwt>
<pdfrwt beam="1">  1       -4 0.34814288E-02 0.12500232E+03</pdfrwt>
<totfact> 0.90936197E+03</totfact>
</mgrwt>
</event>
<event>
 5    1  0.3184438E-002  0.1249992E+03  0.7818608E-02  0.1235071E+00
         -4   -1    0    0    0  501 -0.00000000000E+00  0.00000000000E+00  0.10490952695E+03  0.10491721377E+03  0.12700000000E+01 0.  1.
          4   -1    0    0  501    0  0.00000000000E+00 -0.00000000000E+00 -0.37214106956E+02  0.37235771196E+02  0.12700000000E+01 0.  1.
         25    2    1    2    0    0  0.00000000000E+00  0.00000000000E+00  0.67695419995E+02  0.14215298496E+03  0.12499920498E+03 0.  0.
    9000005    1    3    3    0    0 -0.40171449840E+01 -0.60168943362E+02  0.52491403205E+02  0.79954903599E+02  0.10000000000E+01 0.  0.
    9000005    1    3    3    0    0  0.40171449840E+01  0.60168943362E+02  0.15204016790E+02  0.62198081366E+02  0.10000000000E+01 0.  0.
<mgrwt>
<rscale>  0 0.12499920E+03</rscale>
<asrwt>0</asrwt>
<pdfrwt beam="2">  1        4 0.57275051E-02 0.12499920E+03</pdfrwt>
<pdfrwt beam="1">  1       -4 0.16142185E-01 0.12499920E+03</pdfrwt>
<totfact> 0.10089338E+04</totfact>
</mgrwt>
</event>
<event>
 5    1  0.3184438E-002  0.1249759E+03  0.7818608E-02  0.1235107E+00
         -4   -1    0    0    0  501 -0.00000000000E+00  0.00000000000E+00  0.12949211195E+02  0.13011340076E+02  0.12700000000E+01 0. -1.
          4   -1    0    0  501    0  0.00000000000E+00 -0.00000000000E+00 -0.30075770125E+03  0.30076038263E+03  0.12700000000E+01 0. -1.
         25    2    1    2    0    0  0.00000000000E+00  0.00000000000E+00 -0.28780849005E+03  0.31377172271E+03  0.12497586577E+03 0.  0.
    9000005    1    3    3    0    0  0.27443536594E+02  0.47170055680E+02 -0.67521615337E+02  0.86823558965E+02  0.10000000000E+01 0.  0.
    9000005    1    3    3    0    0 -0.27443536594E+02 -0.47170055680E+02 -0.22028687472E+03  0.22694816374E+03  0.10000000000E+01 0.  0.
<mgrwt>
<rscale>  0 0.12497587E+03</rscale>
<asrwt>0</asrwt>
<pdfrwt beam="2">  1        4 0.46275396E-01 0.12497587E+03</pdfrwt>
<pdfrwt beam="1">  1       -4 0.19971720E-02 0.12497587E+03</pdfrwt>
<totfact> 0.73942639E+03</totfact>
</mgrwt>
</event>
<event>
 5    1  0.3184438E-002  0.1250016E+03  0.7818608E-02  0.1235067E+00
         -4   -1    0    0    0  501 -0.00000000000E+00  0.00000000000E+00  0.21842217499E+03  0.21842586712E+03  0.12700000000E+01 0.  1.
          4   -1    0    0  501    0  0.00000000000E+00 -0.00000000000E+00 -0.17857999808E+02  0.17903101886E+02  0.12700000000E+01 0.  1.
         25    2    1    2    0    0  0.00000000000E+00  0.00000000000E+00  0.20056417518E+03  0.23632896901E+03  0.12500157289E+03 0.  0.
    9000005    1    3    3    0    0 -0.41200310568E+02 -0.32677428341E+02  0.36445901034E+02  0.63988933543E+02  0.10000000000E+01 0.  0.
    9000005    1    3    3    0    0  0.41200310568E+02  0.32677428341E+02  0.16411827415E+03  0.17234003546E+03  0.10000000000E+01 0.  0.
<mgrwt>
<rscale>  0 0.12500157E+03</rscale>
<asrwt>0</asrwt>
<pdfrwt beam="2">  1        4 0.27511381E-02 0.12500157E+03</pdfrwt>
<pdfrwt beam="1">  1       -4 0.33607164E-01 0.12500157E+03</pdfrwt>
<totfact> 0.84344199E+03</totfact>
</mgrwt>
</event>
<event>
 5    1  0.3184438E-002  0.1250129E+03  0.7818608E-02  0.1235049E+00
         -4   -1    0    0    0  501 -0.00000000000E+00  0.00000000000E+00  0.37016987686E+02  0.37038767222E+02  0.12700000000E+01 0.  1.
          4   -1    0    0  501    0  0.00000000000E+00 -0.00000000000E+00 -0.10549104464E+03  0.10549868909E+03  0.12700000000E+01 0.  1.
         25    2    1    2    0    0  0.00000000000E+00  0.00000000000E+00 -0.68474056954E+02  0.14253745631E+03  0.12501291923E+03 0.  0.
    9000005    1    3    3    0    0  0.41785436416E+02  0.35365365164E+02 -0.68619243408E+02  0.87785718175E+02  0.10000000000E+01 0.  0.
    9000005    1    3    3    0    0 -0.41785436416E+02 -0.35365365164E+02  0.14518645374E+00  0.54751738135E+02  0.10000000000E+01 0.  0.
<mgrwt>
<rscale>  0 0.12501292E+03</rscale>
<asrwt>0</asrwt>
<pdfrwt beam="2">  1        4 0.16231655E-01 0.12501292E+03</pdfrwt>
<pdfrwt beam="1">  1       -4 0.56971846E-02 0.12501292E+03</pdfrwt>
<totfact> 0.10078331E+04</totfact>
</mgrwt>
</event>
<event>
 5    1  0.3184438E-002  0.1249999E+03  0.7818608E-02  0.1235069E+00
          4   -1    0    0  501    0  0.00000000000E+00  0.00000000000E+00  0.46937705062E+02  0.46954883201E+02  0.12700000000E+01 0.  1.
         -4   -1    0    0    0  501 -0.00000000000E+00 -0.00000000000E+00 -0.83184635000E+02  0.83194329134E+02  0.12700000000E+01 0.  1.
         25    2    1    2    0    0  0.00000000000E+00  0.00000000000E+00 -0.36246929939E+02  0.13014921234E+03  0.12499991017E+03 0.  0.
    9000005    1    3    3    0    0 -0.46490908313E+02 -0.24874708387E+02  0.16800635344E+02  0.55348143791E+02  0.10000000000E+01 0.  0.
    9000005    1    3    3    0    0  0.46490908313E+02  0.24874708387E+02 -0.53047565282E+02  0.74801068545E+02  0.10000000000E+01 0.  0.
<mgrwt>
<rscale>  0 0.12499991E+03</rscale>
<asrwt>0</asrwt>
<pdfrwt beam="1">  1        4 0.72232525E-02 0.12499991E+03</pdfrwt>
<pdfrwt beam="2">  1       -4 0.12799703E-01 0.12499991E+03</pdfrwt>
<totfact> 0.10341338E+04</totfact>
</mgrwt>
</event>
<event>
 5    1  0.3184438E-002  0.1249986E+03  0.7818608E-02  0.1235072E+00
          4   -1    0    0  501    0  0.00000000000E+00  0.00000000000E+00  0.80024942551E+03  0.80025043326E+03  0.12700000000E+01 0.  1.
         -4   -1    0    0    0  501 -0.00000000000E+00 -0.00000000000E+00 -0.47975418447E+01  0.49627923342E+01  0.12700000000E+01 0.  1.
         25    2    1    2    0    0  0.00000000000E+00  0.00000000000E+00  0.79545188366E+03  0.80521322559E+03  0.12499855776E+03 0.  0.
    9000005    1    3    3    0    0  0.45056210090E+02  0.23272569831E+02  0.16249198631E+03  0.17022432314E+03  0.10000000000E+01 0.  0.
    9000005    1    3    3    0    0 -0.45056210090E+02 -0.23272569831E+02  0.63295989736E+03  0.63498890245E+03  0.10000000000E+01 0.  0.
<mgrwt>
<rscale>  0 0.12499856E+03</rscale>
<asrwt>0</asrwt>
<pdfrwt beam="1">  1        4 0.12312802E+00 0.12499856E+03</pdfrwt>
<pdfrwt beam="2">  1       -4 0.75087288E-03 0.12499856E+03</pdfrwt>
<totfact> 0.38034267E+03</totfact>
</mgrwt>
</event>
<event>
 5    1  0.3184438E-002  0.1249946E+03  0.7818608E-02  0.1235078E+00
         -4   -1    0    0    0  501 -0.00000000000E+00  0.00000000000E+00  0.16835800559E+02  0.16883633508E+02  0.12700000000E+01 0.  1.
          4   -1    0    0  501    0  0.00000000000E+00 -0.00000000000E+00 -0.23162189603E+03  0.23162537776E+03  0.12700000000E+01 0.  1.
         25    2    1    2    0    0  0.00000000000E+00  0.00000000000E+00 -0.21478609548E+03  0.24850901127E+03  0.12499464737E+03 0.  0.
    9000005    1    3    3    0    0 -0.22235289948E+02  0.53847669802E+02 -0.15233313331E+03  0.16309617766E+03  0.10000000000E+01 0.  0.
    9000005    1    3    3    0    0  0.22235289948E+02 -0.53847669802E+02 -0.62452962162E+02  0.85412833609E+02  0.10000000000E+01 0.  0.
<mgrwt>
<rscale>  0 0.12499465E+03</rscale>
<asrwt>0</asrwt>
<pdfrwt beam="2">  1        4 0.35638083E-01 0.12499465E+03</pdfrwt>
<pdfrwt beam="1">  1       -4 0.25940706E-02 0.12499465E+03</pdfrwt>
<totfact> 0.82556046E+03</totfact>
</mgrwt>
</event>
<event>
 5    1  0.3184438E-002  0.1249999E+03  0.7818608E-02  0.1235070E+00
         -4   -1    0    0    0  501 -0.00000000000E+00  0.00000000000E+00  0.43260249278E+03  0.43260435696E+03  0.12700000000E+01 0.  1.
          4   -1    0    0  501    0  0.00000000000E+00 -0.00000000000E+00 -0.89830824749E+01  0.90724126202E+01  0.12700000000E+01 0.  1.
         25    2    1    2    0    0  0.00000000000E+00  0.00000000000E+00  0.42361941031E+03  0.44167676958E+03  0.12499985599E+03 0.  0.
    9000005    1    3    3    0    0  0.23672542517E+02 -0.53723282883E+01  0.41528029276E+03  0.41599035173E+03  0.10000000000E+01 0.  0.
    9000005    1    3    3    0    0 -0.23672542517E+02  0.53723282883E+01  0.83391175502E+01  0.25686417850E+02  0.10000000000E+01 0.  0.
<mgrwt>
<rscale>  0 0.12499986E+03</rscale>
<asrwt>0</asrwt>
<pdfrwt beam="2">  1        4 0.13890276E-02 0.12499986E+03</pdfrwt>
<pdfrwt beam="1">  1       -4 0.66561244E-01 0.12499986E+03</pdfrwt>
<totfact> 0.60691829E+03</totfact>
</mgrwt>
</event>
<event>
 5    1  0.3184438E-002  0.1250013E+03  0.7818608E-02  0.1235067E+00
         -4   -1    0    0    0  501 -0.00000000000E+00  0.00000000000E+00  0.53077809651E+02  0.53093001208E+02  0.12700000000E+01 0.  1.
          4   -1    0    0  501    0  0.00000000000E+00 -0.00000000000E+00 -0.73565150493E+02  0.73576112068E+02  0.12700000000E+01 0.  1.
         25    2    1    2    0    0  0.00000000000E+00  0.00000000000E+00 -0.20487340843E+02  0.12666911328E+03  0.12500133249E+03 0.  0.
    9000005    1    3    3    0    0  0.47412648536E+02 -0.25765870922E+02  0.21696608035E+02  0.58168566647E+02  0.10000000000E+01 0.  0.
    9000005    1    3    3    0    0 -0.47412648536E+02  0.25765870922E+02 -0.42183948878E+02  0.68500546629E+02  0.10000000000E+01 0.  0.
<mgrwt>
<rscale>  0 0.12500133E+03</rscale>
<asrwt>0</asrwt>
<pdfrwt beam="2">  1        4 0.11319727E-01 0.12500133E+03</pdfrwt>
<pdfrwt beam="1">  1       -4 0.81678286E-02 0.12500133E+03</pdfrwt>
<totfact> 0.10416029E+04</totfact>
</mgrwt>
</event>
<event>
 5    1  0.3184438E-002  0.1250033E+03  0.7818608E-02  0.1235064E+00
         -4   -1    0    0    0  501 -0.00000000000E+00  0.00000000000E+00  0.34535558473E+03  0.34535791985E+03  0.12700000000E+01 0. -1.
          4   -1    0    0  501    0  0.00000000000E+00 -0.00000000000E+00 -0.11273377248E+02  0.11344687505E+02  0.12700000000E+01 0. -1.
         25    2    1    2    0    0  0.00000000000E+00  0.00000000000E+00  0.33408220748E+03  0.35670260736E+03  0.12500331491E+03 0.  0.
    9000005    1    3    3    0    0 -0.29331821844E+02  0.54636921949E+02  0.18912764892E+03  0.19903722416E+03  0.10000000000E+01 0.  0.
    9000005    1    3    3    0    0  0.29331821844E+02 -0.54636921949E+02  0.14495455856E+03  0.15766538320E+03  0.10000000000E+01 0.  0.
<mgrwt>
<rscale>  0 0.12500331E+03</rscale>
<asrwt>0</asrwt>
<pdfrwt beam="2">  1        4 0.17400309E-02 0.12500331E+03</pdfrwt>
<pdfrwt beam="1">  1       -4 0.53137290E-01 0.12500331E+03</pdfrwt>
<totfact> 0.68988369E+03</totfact>
</mgrwt>
</event>
<event>
 5    1  0.3184438E-002  0.1250004E+03  0.7818608E-02  0.1235069E+00
          4   -1    0    0  501    0  0.00000000000E+00  0.00000000000E+00  0.16543623934E+02  0.16592299204E+02  0.12700000000E+01 0. -1.
         -4   -1    0    0    0  501 -0.00000000000E+00 -0.00000000000E+00 -0.23572241009E+03  0.23572583125E+03  0.12700000000E+01 0. -1.
         25    2    1    2    0    0  0.00000000000E+00  0.00000000000E+00 -0.21917878616E+03  0.25231813046E+03  0.12500039462E+03 0.  0.
    9000005    1    3    3    0    0  0.89432293160E+01 -0.51456528573E+02 -0.40323245771E+02  0.65990301051E+02  0.10000000000E+01 0.  0.
    9000005    1    3    3    0    0 -0.89432293160E+01  0.51456528573E+02 -0.17885554039E+03  0.18632782941E+03  0.10000000000E+01 0.  0.
<mgrwt>
<rscale>  0 0.12500039E+03</rscale>
<asrwt>0</asrwt>
<pdfrwt beam="1">  1        4 0.25491805E-02 0.12500039E+03</pdfrwt>
<pdfrwt beam="2">  1       -4 0.36268991E-01 0.12500039E+03</pdfrwt>
<totfact> 0.81995617E+03</totfact>
</mgrwt>
</event>
<event>
 5    1  0.3184438E-002  0.1249678E+03  0.7818608E-02  0.1235120E+00
         -4   -1    0    0    0  501 -0.00000000000E+00  0.00000000000E+00  0.25577167707E+02  0.25608678371E+02  0.12700000000E+01 0. -1.
          4   -1    0    0  501    0  0.00000000000E+00 -0.00000000000E+00 -0.15251722606E+03  0.15252251356E+03  0.12700000000E+01 0. -1.
         25    2    1    2    0    0  0.00000000000E+00  0.00000000000E+00 -0.12694005835E+03  0.17813119194E+03  0.12496776835E+03 0.  0.
    9000005    1    3    3    0    0 -0.45140979949E+02 -0.38449217166E+02 -0.35422058052E+02  0.69078017980E+02  0.10000000000E+01 0.  0.
    9000005    1    3    3    0    0  0.45140979949E+02  0.38449217166E+02 -0.91518000297E+02  0.10905317396E+03  0.10000000000E+01 0.  0.
<mgrwt>
<rscale>  0 0.12496777E+03</rscale>
<asrwt>0</asrwt>
<pdfrwt beam="2">  1        4 0.23467019E-01 0.12496777E+03</pdfrwt>
<pdfrwt beam="1">  1       -4 0.39377796E-02 0.12496777E+03</pdfrwt>
<totfact> 0.94022426E+03</totfact>
</mgrwt>
</event>
<event>
 5    1  0.3184438E-002  0.1250063E+03  0.7818608E-02  0.1235059E+00
          4   -1    0    0  501    0  0.00000000000E+00  0.00000000000E+00  0.10383862584E+02  0.10461238080E+02  0.12700000000E+01 0.  1.
         -4   -1    0    0    0  501 -0.00000000000E+00 -0.00000000000E+00 -0.37474747943E+03  0.37474963141E+03  0.12700000000E+01 0.  1.
         25    2    1    2    0    0  0.00000000000E+00  0.00000000000E+00 -0.36436361685E+03  0.38521086949E+03  0.12500627460E+03 0.  0.
    9000005    1    3    3    0    0 -0.26159667412E+02 -0.55643758925E+02 -0.21664624533E+03  0.22520468850E+03  0.10000000000E+01 0.  0.
    9000005    1    3    3    0    0  0.26159667412E+02  0.55643758925E+02 -0.14771737151E+03  0.16000618098E+03  0.10000000000E+01 0.  0.
<mgrwt>
<rscale>  0 0.12500627E+03</rscale>
<asrwt>0</asrwt>
<pdfrwt beam="1">  1        4 0.16036351E-02 0.12500627E+03</pdfrwt>
<pdfrwt beam="2">  1       -4 0.57659565E-01 0.12500627E+03</pdfrwt>
<totfact> 0.66007889E+03</totfact>
</mgrwt>
</event>
<event>
 5    1  0.3184438E-002  0.1250004E+03  0.7818608E-02  0.1235069E+00
         -4   -1    0    0    0  501 -0.00000000000E+00  0.00000000000E+00  0.50677554267E+02  0.50693465126E+02  0.12700000000E+01 0.  1.
          4   -1    0    0  501    0  0.00000000000E+00 -0.00000000000E+00 -0.77047705790E+02  0.77058171971E+02  0.12700000000E+01 0.  1.
         25    2    1    2    0    0  0.00000000000E+00  0.00000000000E+00 -0.26370151523E+02  0.12775163710E+03  0.12500038356E+03 0.  0.
    9000005    1    3    3    0    0  0.25764536064E+02  0.13356540619E+02 -0.69748184278E+02  0.75551424248E+02  0.10000000000E+01 0.  0.
    9000005    1    3    3    0    0 -0.25764536064E+02 -0.13356540619E+02  0.43378032754E+02  0.52200212849E+02  0.10000000000E+01 0.  0.
<mgrwt>
<rscale>  0 0.12500038E+03</rscale>
<asrwt>0</asrwt>
<pdfrwt beam="2">  1        4 0.11855522E-01 0.12500038E+03</pdfrwt>
<pdfrwt beam="1">  1       -4 0.77985758E-02 0.12500038E+03</pdfrwt>
<totfact> 0.10392765E+04</totfact>
</mgrwt>
</event>
<event>
 5    1  0.3184438E-002  0.1250022E+03  0.7818608E-02  0.1235066E+00
         -4   -1    0    0    0  501 -0.00000000000E+00  0.00000000000E+00  0.68871974268E+02  0.68883682680E+02  0.12700000000E+01 0.  1.
          4   -1    0    0  501    0  0.00000000000E+00 -0.00000000000E+00 -0.56695903900E+02  0.56710126248E+02  0.12700000000E+01 0.  1.
         25    2    1    2    0    0  0.00000000000E+00  0.00000000000E+00  0.12176070368E+02  0.12559380893E+03  0.12500219259E+03 0.  0.
    9000005    1    3    3    0    0 -0.12351896381E+01  0.43253591317E+02 -0.39214032850E+02  0.58404958930E+02  0.10000000000E+01 0.  0.
    9000005    1    3    3    0    0  0.12351896381E+01 -0.43253591317E+02  0.51390103218E+02  0.67188849998E+02  0.10000000000E+01 0.  0.
<mgrwt>
<rscale>  0 0.12500219E+03</rscale>
<asrwt>0</asrwt>
<pdfrwt beam="2">  1        4 0.87244414E-02 0.12500219E+03</pdfrwt>
<pdfrwt beam="1">  1       -4 0.10597683E-01 0.12500219E+03</pdfrwt>
<totfact> 0.10439367E+04</totfact>
</mgrwt>
</event>
<event>
 5    1  0.3184438E-002  0.1249990E+03  0.7818608E-02  0.1235071E+00
          4   -1    0    0  501    0  0.00000000000E+00  0.00000000000E+00  0.28238756276E+02  0.28267300119E+02  0.12700000000E+01 0.  1.
         -4   -1    0    0    0  501 -0.00000000000E+00 -0.00000000000E+00 -0.13822590055E+03  0.13823173471E+03  0.12700000000E+01 0.  1.
         25    2    1    2    0    0  0.00000000000E+00  0.00000000000E+00 -0.10998714427E+03  0.16649903483E+03  0.12499902678E+03 0.  0.
    9000005    1    3    3    0    0 -0.55805456978E+02 -0.13174043928E+02 -0.88090144928E+02  0.10511269236E+03  0.10000000000E+01 0.  0.
    9000005    1    3    3    0    0  0.55805456978E+02  0.13174043928E+02 -0.21896999344E+02  0.61386342473E+02  0.10000000000E+01 0.  0.
<mgrwt>
<rscale>  0 0.12499903E+03</rscale>
<asrwt>0</asrwt>
<pdfrwt beam="1">  1        4 0.43470686E-02 0.12499903E+03</pdfrwt>
<pdfrwt beam="2">  1       -4 0.21268167E-01 0.12499903E+03</pdfrwt>
<totfact> 0.96106351E+03</totfact>
</mgrwt>
</event>
<event>
 5    1  0.3184438E-002  0.1249984E+03  0.7818608E-02  0.1235072E+00
         -4   -1    0    0    0  501 -0.00000000000E+00  0.00000000000E+00  0.16125499452E+03  0.16125999553E+03  0.12700000000E+01 0. -1.
          4   -1    0    0  501    0  0.00000000000E+00 -0.00000000000E+00 -0.24201397073E+02  0.24234696621E+02  0.12700000000E+01 0. -1.
         25    2    1    2    0    0  0.00000000000E+00  0.00000000000E+00  0.13705359745E+03  0.18549469215E+03  0.12499836896E+03 0.  0.
    9000005    1    3    3    0    0  0.37376629684E+02 -0.24350483023E+02  0.13346990048E+03  0.14073085235E+03  0.10000000000E+01 0.  0.
    9000005    1    3    3    0    0 -0.37376629684E+02  0.24350483023E+02  0.35836969757E+01  0.44763839804E+02  0.10000000000E+01 0.  0.
<mgrwt>
<rscale>  0 0.12499837E+03</rscale>
<asrwt>0</asrwt>
<pdfrwt beam="2">  1        4 0.37262382E-02 0.12499837E+03</pdfrwt>
<pdfrwt beam="1">  1       -4 0.24811406E-01 0.12499837E+03</pdfrwt>
<totfact> 0.92640573E+03</totfact>
</mgrwt>
</event>
<event>
 5    1  0.3184438E-002  0.1249921E+03  0.7818608E-02  0.1235082E+00
         -4   -1    0    0    0  501 -0.00000000000E+00  0.00000000000E+00  0.39189285147E+03  0.39189490930E+03  0.12700000000E+01 0. -1.
          4   -1    0    0  501    0  0.00000000000E+00 -0.00000000000E+00 -0.99238423475E+01  0.10004776206E+02  0.12700000000E+01 0. -1.
         25    2    1    2    0    0  0.00000000000E+00  0.00000000000E+00  0.38196900913E+03  0.40189968551E+03  0.12499213287E+03 0.  0.
    9000005    1    3    3    0    0  0.18169242672E+02 -0.41755185675E+02  0.53391634614E+02  0.70180364467E+02  0.10000000000E+01 0.  0.
    9000005    1    3    3    0    0 -0.18169242672E+02  0.41755185675E+02  0.32857737451E+03  0.33171932104E+03  0.10000000000E+01 0.  0.
<mgrwt>
<rscale>  0 0.12499213E+03</rscale>
<asrwt>0</asrwt>
<pdfrwt beam="2">  1        4 0.15331289E-02 0.12499213E+03</pdfrwt>
<pdfrwt beam="1">  1       -4 0.60297593E-01 0.12499213E+03</pdfrwt>
<totfact> 0.64379624E+03</totfact>
</mgrwt>
</event>
<event>
 5    1  0.3184438E-002  0.1250021E+03  0.7818608E-02  0.1235066E+00
          4   -1    0    0  501    0  0.00000000000E+00  0.00000000000E+00  0.38319910412E+01  0.40369611517E+01  0.12700000000E+01 0.  1.
         -4   -1    0    0    0  501 -0.00000000000E+00 -0.00000000000E+00 -0.99265321586E+03  0.99265402827E+03  0.12700000000E+01 0.  1.
         25    2    1    2    0    0  0.00000000000E+00  0.00000000000E+00 -0.98882122481E+03  0.99669098943E+03  0.12500205502E+03 0.  0.
    9000005    1    3    3    0    0  0.23675797167E+02  0.51147289650E+02 -0.70966129182E+03  0.71189657797E+03  0.10000000000E+01 0.  0.
    9000005    1    3    3    0    0 -0.23675797167E+02 -0.51147289650E+02 -0.27915993299E+03  0.28479441146E+03  0.10000000000E+01 0.  0.
<mgrwt>
<rscale>  0 0.12500206E+03</rscale>
<asrwt>0</asrwt>
<pdfrwt beam="1">  1        4 0.60536730E-03 0.12500206E+03</pdfrwt>
<pdfrwt beam="2">  1       -4 0.15273151E+00 0.12500206E+03</pdfrwt>
<totfact> 0.30712656E+03</totfact>
</mgrwt>
</event>
<event>
 5    1  0.3184438E-002  0.1250003E+03  0.7818608E-02  0.1235069E+00
         -4   -1    0    0    0  501 -0.00000000000E+00  0.00000000000E+00  0.19951278261E+03  0.19951682466E+03  0.12700000000E+01 0. -1.
          4   -1    0    0  501    0  0.00000000000E+00 -0.00000000000E+00 -0.19554188385E+02  0.19595386789E+02  0.12700000000E+01 0. -1.
         25    2    1    2    0    0  0.00000000000E+00  0.00000000000E+00  0.17995859422E+03  0.21911221145E+03  0.12500026229E+03 0.  0.
    9000005    1    3    3    0    0  0.12152892183E+02 -0.61290775307E+02  0.88213769040E+02  0.10810606354E+03  0.10000000000E+01 0.  0.
    9000005    1    3    3    0    0 -0.12152892183E+02  0.61290775307E+02  0.91744825181E+02  0.11100614791E+03  0.10000000000E+01 0.  0.
<mgrwt>
<rscale>  0 0.12500026E+03</rscale>
<asrwt>0</asrwt>
<pdfrwt beam="2">  1        4 0.30118167E-02 0.12500026E+03</pdfrwt>
<pdfrwt beam="1">  1       -4 0.30697754E-01 0.12500026E+03</pdfrwt>
<totfact> 0.87008515E+03</totfact>
</mgrwt>
</event>
<event>
 5    1  0.3184438E-002  0.1249994E+03  0.7818608E-02  0.1235070E+00
          4   -1    0    0  501    0  0.00000000000E+00  0.00000000000E+00  0.27161640658E+02  0.27191315217E+02  0.12700000000E+01 0. -1.
         -4   -1    0    0    0  501 -0.00000000000E+00 -0.00000000000E+00 -0.14370250078E+03  0.14370811261E+03  0.12700000000E+01 0. -1.
         25    2    1    2    0    0  0.00000000000E+00  0.00000000000E+00 -0.11654086013E+03  0.17089942783E+03  0.12499936942E+03 0.  0.
    9000005    1    3    3    0    0 -0.37032956358E+02  0.29699852747E+02 -0.11383487595E+03  0.12334058575E+03  0.10000000000E+01 0.  0.
    9000005    1    3    3    0    0  0.37032956358E+02 -0.29699852747E+02 -0.27059841720E+01  0.47558842082E+02  0.10000000000E+01 0.  0.
<mgrwt>
<rscale>  0 0.12499937E+03</rscale>
<asrwt>0</asrwt>
<pdfrwt beam="1">  1        4 0.41814284E-02 0.12499937E+03</pdfrwt>
<pdfrwt beam="2">  1       -4 0.22110791E-01 0.12499937E+03</pdfrwt>
<totfact> 0.95282609E+03</totfact>
</mgrwt>
</event>
<event>
 5    1  0.3184438E-002  0.1249662E+03  0.7818608E-02  0.1235122E+00
         -4   -1    0    0    0  501 -0.00000000000E+00  0.00000000000E+00  0.52985544316E+02  0.53000762320E+02  0.12700000000E+01 0. -1.
          4   -1    0    0  501    0  0.00000000000E+00 -0.00000000000E+00 -0.73651761214E+02  0.73662709901E+02  0.12700000000E+01 0. -1.
         25    2    1    2    0    0  0.00000000000E+00  0.00000000000E+00 -0.20666216898E+02  0.12666347222E+03  0.12496616612E+03 0.  0.
    9000005    1    3    3    0    0  0.51928431046E+02  0.31462122645E+02 -0.25254075538E+02  0.65766218103E+02  0.10000000000E+01 0.  0.
    9000005    1    3    3    0    0 -0.51928431046E+02 -0.31462122645E+02  0.45878586401E+01  0.60897254118E+02  0.10000000000E+01 0.  0.
<mgrwt>
<rscale>  0 0.12496617E+03</rscale>
<asrwt>0</asrwt>
<pdfrwt beam="2">  1        4 0.11333053E-01 0.12496617E+03</pdfrwt>
<pdfrwt beam="1">  1       -4 0.81536350E-02 0.12496617E+03</pdfrwt>
<totfact> 0.10424425E+04</totfact>
</mgrwt>
</event>
<event>
 5    1  0.3184438E-002  0.1249620E+03  0.7818608E-02  0.1235129E+00
          4   -1    0    0  501    0  0.00000000000E+00  0.00000000000E+00  0.33705035785E+02  0.33728953990E+02  0.12700000000E+01 0. -1.
         -4   -1    0    0    0  501 -0.00000000000E+00 -0.00000000000E+00 -0.11575627941E+03  0.11576324599E+03  0.12700000000E+01 0. -1.
         25    2    1    2    0    0  0.00000000000E+00  0.00000000000E+00 -0.82051243621E+02  0.14949219998E+03  0.12496203934E+03 0.  0.
    9000005    1    3    3    0    0 -0.33272853047E+02  0.50244777166E+02 -0.21322671794E+02  0.63931813010E+02  0.10000000000E+01 0.  0.
    9000005    1    3    3    0    0  0.33272853047E+02 -0.50244777166E+02 -0.60728571827E+02  0.85560386970E+02  0.10000000000E+01 0.  0.
<mgrwt>
<rscale>  0 0.12496204E+03</rscale>
<asrwt>0</asrwt>
<pdfrwt beam="1">  1        4 0.51877659E-02 0.12496204E+03</pdfrwt>
<pdfrwt beam="2">  1       -4 0.17811034E-01 0.12496204E+03</pdfrwt>
<totfact> 0.99489993E+03</totfact>
</mgrwt>
</event>
<event>
 5    1  0.3184438E-002  0.1249995E+03  0.7818608E-02  0.1235070E+00
         -4   -1    0    0    0  501 -0.00000000000E+00  0.00000000000E+00  0.69168213317E+01  0.70324474640E+01  0.12700000000E+01 0.  1.
          4   -1    0    0  501    0  0.00000000000E+00 -0.00000000000E+00 -0.55994475686E+03  0.55994619709E+03  0.12700000000E+01 0.  1.
         25    2    1    2    0    0  0.00000000000E+00  0.00000000000E+00 -0.55302793553E+03  0.56697864455E+03  0.12499954362E+03 0.  0.
    9000005    1    3    3    0    0  0.20907620117E+02 -0.19757964138E+02 -0.52814982550E+03  0.52893359121E+03  0.10000000000E+01 0.  0.
    9000005    1    3    3    0    0 -0.20907620117E+02  0.19757964138E+02 -0.24878110025E+02  0.38045053348E+02  0.10000000000E+01 0.  0.
<mgrwt>
<rscale>  0 0.12499954E+03</rscale>
<asrwt>0</asrwt>
<pdfrwt beam="2">  1        4 0.86154317E-01 0.12499954E+03</pdfrwt>
<pdfrwt beam="1">  1       -4 0.10731319E-02 0.12499954E+03</pdfrwt>
<totfact> 0.51021162E+03</totfact>
</mgrwt>
</event>
<event>
 5    1  0.3184438E-002  0.1249997E+03  0.7818608E-02  0.1235070E+00
          4   -1    0    0  501    0  0.00000000000E+00  0.00000000000E+00  0.26664882231E+03  0.26665184668E+03  0.12700000000E+01 0.  1.
         -4   -1    0    0    0  501 -0.00000000000E+00 -0.00000000000E+00 -0.14618714170E+02  0.14673776064E+02  0.12700000000E+01 0.  1.
         25    2    1    2    0    0  0.00000000000E+00  0.00000000000E+00  0.25203010814E+03  0.28132562274E+03  0.12499972242E+03 0.  0.
    9000005    1    3    3    0    0 -0.23929747652E+02  0.36846399703E+02  0.25997210783E+02  0.51060209188E+02  0.10000000000E+01 0.  0.
    9000005    1    3    3    0    0  0.23929747652E+02 -0.36846399703E+02  0.22603289735E+03  0.23026541356E+03  0.10000000000E+01 0.  0.
<mgrwt>
<rscale>  0 0.12499972E+03</rscale>
<asrwt>0</asrwt>
<pdfrwt beam="1">  1        4 0.41027359E-01 0.12499972E+03</pdfrwt>
<pdfrwt beam="2">  1       -4 0.22535014E-02 0.12499972E+03</pdfrwt>
<totfact> 0.78003149E+03</totfact>
</mgrwt>
</event>
<event>
 4    1  0.3184438E-002  0.1251500E+03  0.7818608E-02  0.1234835E+00
         -4   -1    0    0    0  501 -0.00000000000E+00  0.00000000000E+00  0.52193295140E+01  0.53716199210E+01  0.12700000000E+01 0.  1.
          4   -1    0    0  501    0  0.00000000000E+00 -0.00000000000E+00 -0.73927726572E+03  0.73927835658E+03  0.12700000000E+01 0.  1.
    9000005    1    1    2    0    0 -0.60857386367E+02 -0.18295282854E+01 -0.45277274588E+03  0.45684913053E+03  0.10000000000E+01 0.  0.
    9000005    1    1    2    0    0  0.60857386367E+02  0.18295282854E+01 -0.28128519032E+03  0.28780084598E+03  0.10000000000E+01 0.  0.
<mgrwt>
<rscale>  0 0.12515005E+03</rscale>
<asrwt>0</asrwt>
<pdfrwt beam="2">  1        4 0.11374668E+00 0.12515005E+03</pdfrwt>
<pdfrwt beam="1">  1       -4 0.81477292E-03 0.12515005E+03</pdfrwt>
<totfact> 0.40697706E+03</totfact>
</mgrwt>
</event>
<event>
 5    1  0.3184438E-002  0.1250029E+03  0.7818608E-02  0.1235065E+00
          4   -1    0    0  501    0  0.00000000000E+00  0.00000000000E+00  0.36255173286E+02  0.36277410189E+02  0.12700000000E+01 0.  1.
         -4   -1    0    0    0  501 -0.00000000000E+00 -0.00000000000E+00 -0.10768915658E+03  0.10769664500E+03  0.12700000000E+01 0.  1.
         25    2    1    2    0    0  0.00000000000E+00  0.00000000000E+00 -0.71433983294E+02  0.14397405519E+03  0.12500285836E+03 0.  0.
    9000005    1    3    3    0    0 -0.30262974459E+02  0.27667505120E+02 -0.90034581361E+02  0.98937173517E+02  0.10000000000E+01 0.  0.
    9000005    1    3    3    0    0  0.30262974459E+02 -0.27667505120E+02  0.18600598067E+02  0.45036881676E+02  0.10000000000E+01 0.  0.
<mgrwt>
<rscale>  0 0.12500286E+03</rscale>
<asrwt>0</asrwt>
<pdfrwt beam="1">  1        4 0.55800056E-02 0.12500286E+03</pdfrwt>
<pdfrwt beam="2">  1       -4 0.16569849E-01 0.12500286E+03</pdfrwt>
<totfact> 0.10051228E+04</totfact>
</mgrwt>
</event>
<event>
 5    1  0.3184438E-002  0.1250218E+03  0.7818608E-02  0.1235035E+00
         -4   -1    0    0    0  501 -0.00000000000E+00  0.00000000000E+00  0.66291697531E+02  0.66303861588E+02  0.12700000000E+01 0. -1.
          4   -1    0    0  501    0  0.00000000000E+00 -0.00000000000E+00 -0.58921329794E+02  0.58935015099E+02  0.12700000000E+01 0. -1.
         25    2    1    2    0    0  0.00000000000E+00  0.00000000000E+00  0.73703677365E+01  0.12523887669E+03  0.12502181375E+03 0.  0.
    9000005    1    3    3    0    0 -0.50616521873E+02 -0.15426922142E+02 -0.29638038205E+02  0.60658350802E+02  0.10000000000E+01 0.  0.
    9000005    1    3    3    0    0  0.50616521873E+02  0.15426922142E+02  0.37008405942E+02  0.64580525886E+02  0.10000000000E+01 0.  0.
<mgrwt>
<rscale>  0 0.12502181E+03</rscale>
<asrwt>0</asrwt>
<pdfrwt beam="2">  1        4 0.90668084E-02 0.12502181E+03</pdfrwt>
<pdfrwt beam="1">  1       -4 0.10200711E-01 0.12502181E+03</pdfrwt>
<totfact> 0.10442528E+04</totfact>
</mgrwt>
</event>
<event>
 5    1  0.3184438E-002  0.1250037E+03  0.7818608E-02  0.1235063E+00
         -4   -1    0    0    0  501 -0.00000000000E+00  0.00000000000E+00  0.22685025386E+02  0.22720547457E+02  0.12700000000E+01 0.  1.
          4   -1    0    0  501    0  0.00000000000E+00 -0.00000000000E+00 -0.17203272012E+03  0.17203740782E+03  0.12700000000E+01 0.  1.
         25    2    1    2    0    0  0.00000000000E+00  0.00000000000E+00 -0.14934769473E+03  0.19475795528E+03  0.12500370884E+03 0.  0.
    9000005    1    3    3    0    0 -0.49813125874E+02  0.11588085904E+02 -0.18718447160E+02  0.54470280964E+02  0.10000000000E+01 0.  0.
    9000005    1    3    3    0    0  0.49813125874E+02 -0.11588085904E+02 -0.13062924757E+03  0.14028767432E+03  0.10000000000E+01 0.  0.
<mgrwt>
<rscale>  0 0.12500371E+03</rscale>
<asrwt>0</asrwt>
<pdfrwt beam="2">  1        4 0.26469664E-01 0.12500371E+03</pdfrwt>
<pdfrwt beam="1">  1       -4 0.34930971E-02 0.12500371E+03</pdfrwt>
<totfact> 0.91018416E+03</totfact>
</mgrwt>
</event>
<event>
 5    1  0.3184438E-002  0.1249997E+03  0.7818608E-02  0.1235070E+00
          4   -1    0    0  501    0  0.00000000000E+00  0.00000000000E+00  0.17340108569E+03  0.17340573641E+03  0.12700000000E+01 0.  1.
         -4   -1    0    0    0  501 -0.00000000000E+00 -0.00000000000E+00 -0.22504292153E+02  0.22540099053E+02  0.12700000000E+01 0.  1.
         25    2    1    2    0    0  0.00000000000E+00  0.00000000000E+00  0.15089679354E+03  0.19594583546E+03  0.12499971254E+03 0.  0.
    9000005    1    3    3    0    0 -0.53236066920E+02 -0.25712681818E+02  0.43707083838E+02  0.73529109916E+02  0.10000000000E+01 0.  0.
    9000005    1    3    3    0    0  0.53236066920E+02  0.25712681818E+02  0.10718970970E+03  0.12241672555E+03  0.10000000000E+01 0.  0.
<mgrwt>
<rscale>  0 0.12499971E+03</rscale>
<asrwt>0</asrwt>
<pdfrwt beam="1">  1        4 0.26680202E-01 0.12499971E+03</pdfrwt>
<pdfrwt beam="2">  1       -4 0.34653109E-02 0.12499971E+03</pdfrwt>
<totfact> 0.90823511E+03</totfact>
</mgrwt>
</event>
<event>
 5    1  0.3184438E-002  0.1249983E+03  0.7818608E-02  0.1235072E+00
          4   -1    0    0  501    0  0.00000000000E+00  0.00000000000E+00  0.18022879029E+03  0.18023326483E+03  0.12700000000E+01 0. -1.
         -4   -1    0    0    0  501 -0.00000000000E+00 -0.00000000000E+00 -0.21649882790E+02  0.21687100425E+02  0.12700000000E+01 0. -1.
         25    2    1    2    0    0  0.00000000000E+00  0.00000000000E+00  0.15857890750E+03  0.20192036525E+03  0.12499825598E+03 0.  0.
    9000005    1    3    3    0    0  0.12093675722E+02  0.59203322761E+02  0.10502688803E+03  0.12117317207E+03  0.10000000000E+01 0.  0.
    9000005    1    3    3    0    0 -0.12093675722E+02 -0.59203322761E+02  0.53552019468E+02  0.80747193186E+02  0.10000000000E+01 0.  0.
<mgrwt>
<rscale>  0 0.12499826E+03</rscale>
<asrwt>0</asrwt>
<pdfrwt beam="1">  1        4 0.27730714E-01 0.12499826E+03</pdfrwt>
<pdfrwt beam="2">  1       -4 0.33339582E-02 0.12499826E+03</pdfrwt>
<totfact> 0.89816133E+03</totfact>
</mgrwt>
</event>
<event>
 5    1  0.3184438E-002  0.1249981E+03  0.7818608E-02  0.1235072E+00
         -4   -1    0    0    0  501 -0.00000000000E+00  0.00000000000E+00  0.12195903819E+03  0.12196565048E+03  0.12700000000E+01 0. -1.
          4   -1    0    0  501    0  0.00000000000E+00 -0.00000000000E+00 -0.32008126316E+02  0.32033311572E+02  0.12700000000E+01 0. -1.
         25    2    1    2    0    0  0.00000000000E+00  0.00000000000E+00  0.89950911876E+02  0.15399896205E+03  0.12499805505E+03 0.  0.
    9000005    1    3    3    0    0 -0.67984590732E+01  0.48516014747E+02 -0.28212580169E+01  0.49081383736E+02  0.10000000000E+01 0.  0.
    9000005    1    3    3    0    0  0.67984590732E+01 -0.48516014747E+02  0.92772169893E+02  0.10491757831E+03  0.10000000000E+01 0.  0.
<mgrwt>
<rscale>  0 0.12499806E+03</rscale>
<asrwt>0</asrwt>
<pdfrwt beam="2">  1        4 0.49267731E-02 0.12499806E+03</pdfrwt>
<pdfrwt beam="1">  1       -4 0.18765375E-01 0.12499806E+03</pdfrwt>
<totfact> 0.98516684E+03</totfact>
</mgrwt>
</event>
<event>
 5    1  0.3184438E-002  0.1249995E+03  0.7818608E-02  0.1235070E+00
          4   -1    0    0  501    0  0.00000000000E+00  0.00000000000E+00  0.74166247601E+02  0.74177120348E+02  0.12700000000E+01 0. -1.
         -4   -1    0    0    0  501 -0.00000000000E+00 -0.00000000000E+00 -0.52646011667E+02  0.52661327788E+02  0.12700000000E+01 0. -1.
         25    2    1    2    0    0  0.00000000000E+00  0.00000000000E+00  0.21520235934E+02  0.12683844814E+03  0.12499948548E+03 0.  0.
    9000005    1    3    3    0    0 -0.18946501296E+01  0.55855097546E+02  0.39132812863E+02  0.68233119990E+02  0.10000000000E+01 0.  0.
    9000005    1    3    3    0    0  0.18946501296E+01 -0.55855097546E+02 -0.17612576929E+02  0.58605328146E+02  0.10000000000E+01 0.  0.
<mgrwt>
<rscale>  0 0.12499949E+03</rscale>
<asrwt>0</asrwt>
<pdfrwt beam="1">  1        4 0.11412206E-01 0.12499949E+03</pdfrwt>
<pdfrwt beam="2">  1       -4 0.81014010E-02 0.12499949E+03</pdfrwt>
<totfact> 0.10412778E+04</totfact>
</mgrwt>
</event>
<event>
 5    1  0.3184438E-002  0.1250525E+03  0.7818608E-02  0.1234987E+00
         -4   -1    0    0    0  501 -0.00000000000E+00  0.00000000000E+00  0.19220155064E+02  0.19262067924E+02  0.12700000000E+01 0. -1.
          4   -1    0    0  501    0  0.00000000000E+00 -0.00000000000E+00 -0.20314239851E+03  0.20314636835E+03  0.12700000000E+01 0. -1.
         25    2    1    2    0    0  0.00000000000E+00  0.00000000000E+00 -0.18392224345E+03  0.22240843627E+03  0.12505247255E+03 0.  0.
    9000005    1    3    3    0    0 -0.39267752974E+02 -0.45254876449E+02 -0.12370510207E+03  0.13745512921E+03  0.10000000000E+01 0.  0.
    9000005    1    3    3    0    0  0.39267752974E+02  0.45254876449E+02 -0.60217141374E+02  0.84953307065E+02  0.10000000000E+01 0.  0.
<mgrwt>
<rscale>  0 0.12505247E+03</rscale>
<asrwt>0</asrwt>
<pdfrwt beam="2">  1        4 0.31256205E-01 0.12505247E+03</pdfrwt>
<pdfrwt beam="1">  1       -4 0.29604765E-02 0.12505247E+03</pdfrwt>
<totfact> 0.86387406E+03</totfact>
</mgrwt>
</event>
<event>
 5    1  0.3184438E-002  0.1250048E+03  0.7818608E-02  0.1235062E+00
         -4   -1    0    0    0  501 -0.00000000000E+00  0.00000000000E+00  0.51276179745E+02  0.51291904910E+02  0.12700000000E+01 0.  1.
          4   -1    0    0  501    0  0.00000000000E+00 -0.00000000000E+00 -0.76153764704E+02  0.76164353727E+02  0.12700000000E+01 0.  1.
         25    2    1    2    0    0  0.00000000000E+00  0.00000000000E+00 -0.24877584959E+02  0.12745625864E+03  0.12500481444E+03 0.  0.
    9000005    1    3    3    0    0 -0.27361545036E+02  0.31069634706E+02  0.35293528405E+02  0.54411483115E+02  0.10000000000E+01 0.  0.
    9000005    1    3    3    0    0  0.27361545036E+02 -0.31069634706E+02 -0.60171113364E+02  0.73044775521E+02  0.10000000000E+01 0.  0.
<mgrwt>
<rscale>  0 0.12500481E+03</rscale>
<asrwt>0</asrwt>
<pdfrwt beam="2">  1        4 0.11717988E-01 0.12500481E+03</pdfrwt>
<pdfrwt beam="1">  1       -4 0.78906671E-02 0.12500481E+03</pdfrwt>
<totfact> 0.10398118E+04</totfact>
</mgrwt>
</event>
<event>
 5    1  0.3184438E-002  0.1250012E+03  0.7818608E-02  0.1235067E+00
          4   -1    0    0  501    0  0.00000000000E+00  0.00000000000E+00  0.19680396887E+03  0.19680806655E+03  0.12700000000E+01 0.  1.
         -4   -1    0    0    0  501 -0.00000000000E+00 -0.00000000000E+00 -0.19824194349E+02  0.19864832785E+02  0.12700000000E+01 0.  1.
         25    2    1    2    0    0  0.00000000000E+00  0.00000000000E+00  0.17697977452E+03  0.21667289934E+03  0.12500121888E+03 0.  0.
    9000005    1    3    3    0    0  0.40750897078E+02 -0.47304050060E+02  0.83898129788E+02  0.10458587355E+03  0.10000000000E+01 0.  0.
    9000005    1    3    3    0    0 -0.40750897078E+02  0.47304050060E+02  0.93081644728E+02  0.11208702579E+03  0.10000000000E+01 0.  0.
<mgrwt>
<rscale>  0 0.12500122E+03</rscale>
<asrwt>0</asrwt>
<pdfrwt beam="1">  1        4 0.30280975E-01 0.12500122E+03</pdfrwt>
<pdfrwt beam="2">  1       -4 0.30533173E-02 0.12500122E+03</pdfrwt>
<totfact> 0.87395192E+03</totfact>
</mgrwt>
</event>
<event>
 5    1  0.3184438E-002  0.1249973E+03  0.7818608E-02  0.1235074E+00
          4   -1    0    0  501    0  0.00000000000E+00  0.00000000000E+00  0.59122454269E+01  0.60471105486E+01  0.12700000000E+01 0. -1.
         -4   -1    0    0    0  501 -0.00000000000E+00 -0.00000000000E+00 -0.65309023098E+03  0.65309146580E+03  0.12700000000E+01 0. -1.
         25    2    1    2    0    0  0.00000000000E+00  0.00000000000E+00 -0.64717798556E+03  0.65913857635E+03  0.12499727136E+03 0.  0.
    9000005    1    3    3    0    0 -0.17804253635E+02 -0.55417570052E+02 -0.20369057155E+03  0.21184651863E+03  0.10000000000E+01 0.  0.
    9000005    1    3    3    0    0  0.17804253635E+02  0.55417570052E+02 -0.44348741401E+03  0.44729205772E+03  0.10000000000E+01 0.  0.
<mgrwt>
<rscale>  0 0.12499727E+03</rscale>
<asrwt>0</asrwt>
<pdfrwt beam="1">  1        4 0.92004596E-03 0.12499727E+03</pdfrwt>
<pdfrwt beam="2">  1       -4 0.10048583E+00 0.12499727E+03</pdfrwt>
<totfact> 0.45335805E+03</totfact>
</mgrwt>
</event>
<event>
 5    1  0.3184438E-002  0.1249869E+03  0.7818608E-02  0.1235090E+00
          4   -1    0    0  501    0  0.00000000000E+00  0.00000000000E+00  0.92839033047E+01  0.93703660852E+01  0.12700000000E+01 0. -1.
         -4   -1    0    0    0  501 -0.00000000000E+00 -0.00000000000E+00 -0.41862988856E+03  0.41863181496E+03  0.12700000000E+01 0. -1.
         25    2    1    2    0    0  0.00000000000E+00  0.00000000000E+00 -0.40934598526E+03  0.42800218105E+03  0.12498692465E+03 0.  0.
    9000005    1    3    3    0    0  0.61054514875E+02 -0.90933914970E+01 -0.17145667630E+03  0.18223264088E+03  0.10000000000E+01 0.  0.
    9000005    1    3    3    0    0 -0.61054514875E+02  0.90933914970E+01 -0.23788930896E+03  0.24576954017E+03  0.10000000000E+01 0.  0.
<mgrwt>
<rscale>  0 0.12498692E+03</rscale>
<asrwt>0</asrwt>
<pdfrwt beam="1">  1        4 0.14350923E-02 0.12498692E+03</pdfrwt>
<pdfrwt beam="2">  1       -4 0.64411383E-01 0.12498692E+03</pdfrwt>
<totfact> 0.61935361E+03</totfact>
</mgrwt>
</event>
<event>
 5    1  0.3184438E-002  0.1250020E+03  0.7818608E-02  0.1235066E+00
         -4   -1    0    0    0  501 -0.00000000000E+00  0.00000000000E+00  0.24370353195E+03  0.24370684108E+03  0.12700000000E+01 0.  1.
          4   -1    0    0  501    0  0.00000000000E+00 -0.00000000000E+00 -0.16000626619E+02  0.16050948639E+02  0.12700000000E+01 0.  1.
         25    2    1    2    0    0  0.00000000000E+00  0.00000000000E+00  0.22770290534E+03  0.25975778971E+03  0.12500198486E+03 0.  0.
    9000005    1    3    3    0    0 -0.95887278007E+01  0.59262362732E+02  0.77774881597E+02  0.98254280033E+02  0.10000000000E+01 0.  0.
    9000005    1    3    3    0    0  0.95887278007E+01 -0.59262362732E+02  0.14992802374E+03  0.16150350968E+03  0.10000000000E+01 0.  0.
<mgrwt>
<rscale>  0 0.12500198E+03</rscale>
<asrwt>0</asrwt>
<pdfrwt beam="2">  1        4 0.24657603E-02 0.12500198E+03</pdfrwt>
<pdfrwt beam="1">  1       -4 0.37496977E-01 0.12500198E+03</pdfrwt>
<totfact> 0.80936486E+03</totfact>
</mgrwt>
</event>
<event>
 4    1  0.3184438E-002  0.1250657E+03  0.7818608E-02  0.1234967E+00
          4   -1    0    0  501    0  0.00000000000E+00  0.00000000000E+00  0.10295420252E+02  0.10373455459E+02  0.12700000000E+01 0.  1.
         -4   -1    0    0    0  501 -0.00000000000E+00 -0.00000000000E+00 -0.37830229749E+03  0.37830442925E+03  0.12700000000E+01 0.  1.
    9000005    1    1    2    0    0 -0.37008533082E+02  0.39014973138E+02 -0.28313944244E+03  0.28820260845E+03  0.10000000000E+01 0.  0.
    9000005    1    1    2    0    0  0.37008533082E+02 -0.39014973138E+02 -0.84867434797E+02  0.10047527626E+03  0.10000000000E+01 0.  0.
<mgrwt>
<rscale>  0 0.12506573E+03</rscale>
<asrwt>0</asrwt>
<pdfrwt beam="1">  1        4 0.15900778E-02 0.12506573E+03</pdfrwt>
<pdfrwt beam="2">  1       -4 0.58206509E-01 0.12506573E+03</pdfrwt>
<totfact> 0.65573821E+03</totfact>
</mgrwt>
</event>
<event>
 5    1  0.3184438E-002  0.1250075E+03  0.7818608E-02  0.1235058E+00
         -4   -1    0    0    0  501 -0.00000000000E+00  0.00000000000E+00  0.21255002649E+02  0.21292910501E+02  0.12700000000E+01 0. -1.
          4   -1    0    0  501    0  0.00000000000E+00 -0.00000000000E+00 -0.18359836306E+03  0.18360275548E+03  0.12700000000E+01 0. -1.
         25    2    1    2    0    0  0.00000000000E+00  0.00000000000E+00 -0.16234336041E+03  0.20489566598E+03  0.12500746884E+03 0.  0.
    9000005    1    3    3    0    0 -0.37563633779E+02 -0.45828557850E+02 -0.11372413301E+03  0.12823986013E+03  0.10000000000E+01 0.  0.
    9000005    1    3    3    0    0  0.37563633779E+02  0.45828557850E+02 -0.48619227406E+02  0.76655805852E+02  0.10000000000E+01 0.  0.
<mgrwt>
<rscale>  0 0.12500747E+03</rscale>
<asrwt>0</asrwt>
<pdfrwt beam="2">  1        4 0.28249155E-01 0.12500747E+03</pdfrwt>
<pdfrwt beam="1">  1       -4 0.32732544E-02 0.12500747E+03</pdfrwt>
<totfact> 0.89301411E+03</totfact>
</mgrwt>
</event>
<event>
 5    1  0.3184438E-002  0.1249923E+03  0.7818608E-02  0.1235081E+00
         -4   -1    0    0    0  501 -0.00000000000E+00  0.00000000000E+00  0.38259040293E+01  0.40311836527E+01  0.12700000000E+01 0. -1.
          4   -1    0    0  501    0  0.00000000000E+00 -0.00000000000E+00 -0.99399727388E+03  0.99399808520E+03  0.12700000000E+01 0. -1.
         25    2    1    2    0    0  0.00000000000E+00  0.00000000000E+00 -0.99017136985E+03  0.99802926885E+03  0.12499231902E+03 0.  0.
    9000005    1    3    3    0    0  0.53679240939E+02 -0.31570261234E+02 -0.45388291785E+03  0.45813627385E+03  0.10000000000E+01 0.  0.
    9000005    1    3    3    0    0 -0.53679240939E+02  0.31570261234E+02 -0.53628845199E+03  0.53989299499E+03  0.10000000000E+01 0.  0.
<mgrwt>
<rscale>  0 0.12499232E+03</rscale>
<asrwt>0</asrwt>
<pdfrwt beam="2">  1        4 0.15293831E+00 0.12499232E+03</pdfrwt>
<pdfrwt beam="1">  1       -4 0.60445456E-03 0.12499232E+03</pdfrwt>
<totfact> 0.30674823E+03</totfact>
</mgrwt>
</event>
<event>
 5    1  0.3184438E-002  0.1249996E+03  0.7818608E-02  0.1235070E+00
          4   -1    0    0  501    0  0.00000000000E+00  0.00000000000E+00  0.43954713417E+03  0.43954896890E+03  0.12700000000E+01 0.  1.
         -4   -1    0    0    0  501 -0.00000000000E+00 -0.00000000000E+00 -0.88396946212E+01  0.89304591705E+01  0.12700000000E+01 0.  1.
         25    2    1    2    0    0  0.00000000000E+00  0.00000000000E+00  0.43070743955E+03  0.44847942807E+03  0.12499959566E+03 0.  0.
    9000005    1    3    3    0    0 -0.45343095028E+02 -0.17406847566E+02  0.35643551680E+03  0.35973083305E+03  0.10000000000E+01 0.  0.
    9000005    1    3    3    0    0  0.45343095028E+02  0.17406847566E+02  0.74271922751E+02  0.88748595020E+02  0.10000000000E+01 0.  0.
<mgrwt>
<rscale>  0 0.12499960E+03</rscale>
<asrwt>0</asrwt>
<pdfrwt beam="1">  1        4 0.67629768E-01 0.12499960E+03</pdfrwt>
<pdfrwt beam="2">  1       -4 0.13670759E-02 0.12499960E+03</pdfrwt>
<totfact> 0.60096276E+03</totfact>
</mgrwt>
</event>
<event>
 5    1  0.3184438E-002  0.1249958E+03  0.7818608E-02  0.1235076E+00
         -4   -1    0    0    0  501 -0.00000000000E+00  0.00000000000E+00  0.40929320636E+02  0.40949019374E+02  0.12700000000E+01 0.  1.
          4   -1    0    0  501    0  0.00000000000E+00 -0.00000000000E+00 -0.95385690206E+02  0.95394144453E+02  0.12700000000E+01 0.  1.
         25    2    1    2    0    0  0.00000000000E+00  0.00000000000E+00 -0.54456369570E+02  0.13634316383E+03  0.12499584847E+03 0.  0.
    9000005    1    3    3    0    0 -0.42070124806E+02 -0.26002482460E+02 -0.68892127935E+02  0.84812438868E+02  0.10000000000E+01 0.  0.
    9000005    1    3    3    0    0  0.42070124806E+02  0.26002482460E+02  0.14435758365E+02  0.51530724960E+02  0.10000000000E+01 0.  0.
<mgrwt>
<rscale>  0 0.12499585E+03</rscale>
<asrwt>0</asrwt>
<pdfrwt beam="2">  1        4 0.14676887E-01 0.12499585E+03</pdfrwt>
<pdfrwt beam="1">  1       -4 0.62989842E-02 0.12499585E+03</pdfrwt>
<totfact> 0.10210793E+04</totfact>
</mgrwt>
</event>
<event>
 5    1  0.3184438E-002  0.1249887E+03  0.7818608E-02  0.1235087E+00
          4   -1    0    0  501    0  0.00000000000E+00  0.00000000000E+00  0.36720251960E+02  0.36742207391E+02  0.12700000000E+01 0. -1.
         -4   -1    0    0    0  501 -0.00000000000E+00 -0.00000000000E+00 -0.10630186606E+03  0.10630945221E+03  0.12700000000E+01 0. -1.
         25    2    1    2    0    0  0.00000000000E+00  0.00000000000E+00 -0.69581614103E+02  0.14305165960E+03  0.12498870466E+03 0.  0.
    9000005    1    3    3    0    0 -0.52240771401E+02  0.25347377050E+02 -0.83686691306E+01  0.58673864224E+02  0.10000000000E+01 0.  0.
    9000005    1    3    3    0    0  0.52240771401E+02 -0.25347377050E+02 -0.61212944972E+02  0.84377795374E+02  0.10000000000E+01 0.  0.
<mgrwt>
<rscale>  0 0.12498870E+03</rscale>
<asrwt>0</asrwt>
<pdfrwt beam="1">  1        4 0.56515420E-02 0.12498870E+03</pdfrwt>
<pdfrwt beam="2">  1       -4 0.16356405E-01 0.12498870E+03</pdfrwt>
<totfact> 0.10073288E+04</totfact>
</mgrwt>
</event>
<event>
 5    1  0.3184438E-002  0.1250056E+03  0.7818608E-02  0.1235061E+00
         -4   -1    0    0    0  501 -0.00000000000E+00  0.00000000000E+00  0.22213383191E+03  0.22213746235E+03  0.12700000000E+01 0. -1.
          4   -1    0    0  501    0  0.00000000000E+00 -0.00000000000E+00 -0.17559981289E+02  0.17605846837E+02  0.12700000000E+01 0. -1.
         25    2    1    2    0    0  0.00000000000E+00  0.00000000000E+00  0.20457385062E+03  0.23974330918E+03  0.12500557564E+03 0.  0.
    9000005    1    3    3    0    0  0.57758174056E+01 -0.59423423431E+02  0.13770744215E+03  0.15009611235E+03  0.10000000000E+01 0.  0.
    9000005    1    3    3    0    0 -0.57758174056E+01  0.59423423431E+02  0.66866408473E+02  0.89647196838E+02  0.10000000000E+01 0.  0.
<mgrwt>
<rscale>  0 0.12500558E+03</rscale>
<asrwt>0</asrwt>
<pdfrwt beam="2">  1        4 0.27053430E-02 0.12500558E+03</pdfrwt>
<pdfrwt beam="1">  1       -4 0.34178243E-01 0.12500558E+03</pdfrwt>
<totfact> 0.83825191E+03</totfact>
</mgrwt>
</event>
<event>
 5    1  0.3184438E-002  0.1250021E+03  0.7818608E-02  0.1235066E+00
          4   -1    0    0  501    0  0.00000000000E+00  0.00000000000E+00  0.26210828636E+03  0.26211136312E+03  0.12700000000E+01 0. -1.
         -4   -1    0    0    0  501 -0.00000000000E+00 -0.00000000000E+00 -0.14873461190E+02  0.14927583454E+02  0.12700000000E+01 0. -1.
         25    2    1    2    0    0  0.00000000000E+00  0.00000000000E+00  0.24723482517E+03  0.27703894657E+03  0.12500207656E+03 0.  0.
    9000005    1    3    3    0    0  0.27748956129E+02 -0.47388259897E+02  0.18972514175E+03  0.19751526816E+03  0.10000000000E+01 0.  0.
    9000005    1    3    3    0    0 -0.27748956129E+02  0.47388259897E+02  0.57509683412E+02  0.79523678414E+02  0.10000000000E+01 0.  0.
<mgrwt>
<rscale>  0 0.12500208E+03</rscale>
<asrwt>0</asrwt>
<pdfrwt beam="1">  1        4 0.40328752E-01 0.12500208E+03</pdfrwt>
<pdfrwt beam="2">  1       -4 0.22926247E-02 0.12500208E+03</pdfrwt>
<totfact> 0.78568736E+03</totfact>
</mgrwt>
</event>
<event>
 5    1  0.3184438E-002  0.1249990E+03  0.7818608E-02  0.1235071E+00
          4   -1    0    0  501    0  0.00000000000E+00  0.00000000000E+00  0.78032325508E+02  0.78042659643E+02  0.12700000000E+01 0. -1.
         -4   -1    0    0    0  501 -0.00000000000E+00 -0.00000000000E+00 -0.50036838700E+02  0.50052953231E+02  0.12700000000E+01 0. -1.
         25    2    1    2    0    0  0.00000000000E+00  0.00000000000E+00  0.27995486808E+02  0.12809561287E+03  0.12499895502E+03 0.  0.
    9000005    1    3    3    0    0 -0.41046401582E+02 -0.22265375957E+01  0.62232037045E+02  0.74589483088E+02  0.10000000000E+01 0.  0.
    9000005    1    3    3    0    0  0.41046401582E+02  0.22265375957E+01 -0.34236550237E+02  0.53506129786E+02  0.10000000000E+01 0.  0.
<mgrwt>
<rscale>  0 0.12499896E+03</rscale>
<asrwt>0</asrwt>
<pdfrwt beam="1">  1        4 0.12007008E-01 0.12499896E+03</pdfrwt>
<pdfrwt beam="2">  1       -4 0.77000097E-02 0.12499896E+03</pdfrwt>
<totfact> 0.10385668E+04</totfact>
</mgrwt>
</event>
<event>
 5    1  0.3184438E-002  0.1250037E+03  0.7818608E-02  0.1235064E+00
         -4   -1    0    0    0  501 -0.00000000000E+00  0.00000000000E+00  0.98830416895E+02  0.98838576495E+02  0.12700000000E+01 0.  1.
          4   -1    0    0  501    0  0.00000000000E+00 -0.00000000000E+00 -0.39507103514E+02  0.39527511028E+02  0.12700000000E+01 0.  1.
         25    2    1    2    0    0  0.00000000000E+00  0.00000000000E+00  0.59323313381E+02  0.13836608752E+03  0.12500367461E+03 0.  0.
    9000005    1    3    3    0    0  0.54091720200E+02 -0.29367224157E+02  0.41641301778E+02  0.74319217317E+02  0.10000000000E+01 0.  0.
    9000005    1    3    3    0    0 -0.54091720200E+02  0.29367224157E+02  0.17682011602E+02  0.64046870206E+02  0.10000000000E+01 0.  0.
<mgrwt>
<rscale>  0 0.12500367E+03</rscale>
<asrwt>0</asrwt>
<pdfrwt beam="2">  1        4 0.60802134E-02 0.12500367E+03</pdfrwt>
<pdfrwt beam="1">  1       -4 0.15206877E-01 0.12500367E+03</pdfrwt>
<totfact> 0.10166720E+04</totfact>
</mgrwt>
</event>
<event>
 5    1  0.3184438E-002  0.1250006E+03  0.7818608E-02  0.1235068E+00
         -4   -1    0    0    0  501 -0.00000000000E+00  0.00000000000E+00  0.11532016439E+02  0.11601737075E+02  0.12700000000E+01 0. -1.
          4   -1    0    0  501    0  0.00000000000E+00 -0.00000000000E+00 -0.33764243006E+03  0.33764481853E+03  0.12700000000E+01 0. -1.
         25    2    1    2    0    0  0.00000000000E+00  0.00000000000E+00 -0.32611041362E+03  0.34924655560E+03  0.12500061891E+03 0.  0.
    9000005    1    3    3    0    0  0.18155884004E+02 -0.52448261495E+02 -0.82813006184E+02  0.99696791578E+02  0.10000000000E+01 0.  0.
    9000005    1    3    3    0    0 -0.18155884004E+02  0.52448261495E+02 -0.24329740744E+03  0.24954976402E+03  0.10000000000E+01 0.  0.
<mgrwt>
<rscale>  0 0.12500062E+03</rscale>
<asrwt>0</asrwt>
<pdfrwt beam="2">  1        4 0.51950529E-01 0.12500062E+03</pdfrwt>
<pdfrwt beam="1">  1       -4 0.17797035E-02 0.12500062E+03</pdfrwt>
<totfact> 0.69806571E+03</totfact>
</mgrwt>
</event>
<event>
 5    1  0.3184438E-002  0.1249968E+03  0.7818608E-02  0.1235074E+00
         -4   -1    0    0    0  501 -0.00000000000E+00  0.00000000000E+00  0.20129102352E+03  0.20129502987E+03  0.12700000000E+01 0. -1.
          4   -1    0    0  501    0  0.00000000000E+00 -0.00000000000E+00 -0.19380010828E+02  0.19421578713E+02  0.12700000000E+01 0. -1.
         25    2    1    2    0    0  0.00000000000E+00  0.00000000000E+00  0.18191101269E+03  0.22071660858E+03  0.12499681902E+03 0.  0.
    9000005    1    3    3    0    0 -0.56836466485E+02  0.11245560775E+02  0.13229902195E+03  0.14443295250E+03  0.10000000000E+01 0.  0.
    9000005    1    3    3    0    0  0.56836466485E+02 -0.11245560775E+02  0.49611990747E+02  0.76283656084E+02  0.10000000000E+01 0.  0.
<mgrwt>
<rscale>  0 0.12499682E+03</rscale>
<asrwt>0</asrwt>
<pdfrwt beam="2">  1        4 0.29850460E-02 0.12499682E+03</pdfrwt>
<pdfrwt beam="1">  1       -4 0.30971354E-01 0.12499682E+03</pdfrwt>
<totfact> 0.86761247E+03</totfact>
</mgrwt>
</event>
<event>
 5    1  0.3184438E-002  0.1250108E+03  0.7818608E-02  0.1235052E+00
          4   -1    0    0  501    0  0.00000000000E+00  0.00000000000E+00  0.22692940197E+02  0.22728449899E+02  0.12700000000E+01 0.  1.
         -4   -1    0    0    0  501 -0.00000000000E+00 -0.00000000000E+00 -0.17199219803E+03  0.17199688684E+03  0.12700000000E+01 0.  1.
         25    2    1    2    0    0  0.00000000000E+00  0.00000000000E+00 -0.14929925783E+03  0.19472533674E+03  0.12501075305E+03 0.  0.
    9000005    1    3    3    0    0 -0.38351636609E+02  0.49330401779E+02 -0.76611008159E+02  0.98866491499E+02  0.10000000000E+01 0.  0.
    9000005    1    3    3    0    0  0.38351636609E+02 -0.49330401779E+02 -0.72688249673E+02  0.95858845240E+02  0.10000000000E+01 0.  0.
<mgrwt>
<rscale>  0 0.12501075E+03</rscale>
<asrwt>0</asrwt>
<pdfrwt beam="1">  1        4 0.34943139E-02 0.12501075E+03</pdfrwt>
<pdfrwt beam="2">  1       -4 0.26463430E-01 0.12501075E+03</pdfrwt>
<totfact> 0.91009648E+03</totfact>
</mgrwt>
</event>
<event>
 5    1  0.3184438E-002  0.1249980E+03  0.7818608E-02  0.1235072E+00
         -4   -1    0    0    0  501 -0.00000000000E+00  0.00000000000E+00  0.30340619432E+03  0.30340885230E+03  0.12700000000E+01 0. -1.
          4   -1    0    0  501    0  0.00000000000E+00 -0.00000000000E+00 -0.12840211491E+02  0.12902865229E+02  0.12700000000E+01 0. -1.
         25    2    1    2    0    0  0.00000000000E+00  0.00000000000E+00  0.29056598283E+03  0.31631171753E+03  0.12499804905E+03 0.  0.
    9000005    1    3    3    0    0 -0.56117339981E+02  0.93332405051E+01  0.79837372302E+02  0.98037091149E+02  0.10000000000E+01 0.  0.
    9000005    1    3    3    0    0  0.56117339981E+02 -0.93332405051E+01  0.21072861053E+03  0.21827462638E+03  0.10000000000E+01 0.  0.
<mgrwt>
<rscale>  0 0.12499805E+03</rscale>
<asrwt>0</asrwt>
<pdfrwt beam="2">  1        4 0.19804410E-02 0.12499805E+03</pdfrwt>
<pdfrwt beam="1">  1       -4 0.46682902E-01 0.12499805E+03</pdfrwt>
<totfact> 0.73600136E+03</totfact>
</mgrwt>
</event>
<event>
 5    1  0.3184438E-002  0.1250017E+03  0.7818608E-02  0.1235067E+00
          4   -1    0    0  501    0  0.00000000000E+00  0.00000000000E+00  0.27436490599E+02  0.27465868207E+02  0.12700000000E+01 0. -1.
         -4   -1    0    0    0  501 -0.00000000000E+00 -0.00000000000E+00 -0.14226969626E+03  0.14227536460E+03  0.12700000000E+01 0. -1.
         25    2    1    2    0    0  0.00000000000E+00  0.00000000000E+00 -0.11483320566E+03  0.16974123281E+03  0.12500168397E+03 0.  0.
    9000005    1    3    3    0    0 -0.39331023408E+02 -0.40277122126E+02 -0.94260306718E+02  0.10979609006E+03  0.10000000000E+01 0.  0.
    9000005    1    3    3    0    0  0.39331023408E+02  0.40277122126E+02 -0.20572898941E+02  0.59945142755E+02  0.10000000000E+01 0.  0.
<mgrwt>
<rscale>  0 0.12500168E+03</rscale>
<asrwt>0</asrwt>
<pdfrwt beam="1">  1        4 0.42236945E-02 0.12500168E+03</pdfrwt>
<pdfrwt beam="2">  1       -4 0.21890341E-01 0.12500168E+03</pdfrwt>
<totfact> 0.95493280E+03</totfact>
</mgrwt>
</event>
<event>
 5    1  0.3184438E-002  0.1250006E+03  0.7818608E-02  0.1235068E+00
         -4   -1    0    0    0  501 -0.00000000000E+00  0.00000000000E+00  0.76463180422E+03  0.76463285891E+03  0.12700000000E+01 0.  1.
          4   -1    0    0  501    0  0.00000000000E+00 -0.00000000000E+00 -0.50287116357E+01  0.51866020394E+01  0.12700000000E+01 0.  1.
         25    2    1    2    0    0  0.00000000000E+00  0.00000000000E+00  0.75960309259E+03  0.76981946095E+03  0.12500057677E+03 0.  0.
    9000005    1    3    3    0    0 -0.56830408344E+02 -0.14318538815E+02  0.51339619768E+03  0.51673143088E+03  0.10000000000E+01 0.  0.
    9000005    1    3    3    0    0  0.56830408344E+02  0.14318538815E+02  0.24620689490E+03  0.25308803007E+03  0.10000000000E+01 0.  0.
<mgrwt>
<rscale>  0 0.12500058E+03</rscale>
<asrwt>0</asrwt>
<pdfrwt beam="2">  1        4 0.78587459E-03 0.12500058E+03</pdfrwt>
<pdfrwt beam="1">  1       -4 0.11764787E+00 0.12500058E+03</pdfrwt>
<totfact> 0.39643132E+03</totfact>
</mgrwt>
</event>
<event>
 5    1  0.3184438E-002  0.1249958E+03  0.7818608E-02  0.1235076E+00
          4   -1    0    0  501    0  0.00000000000E+00  0.00000000000E+00  0.57643720217E+02  0.57657708768E+02  0.12700000000E+01 0.  1.
         -4   -1    0    0    0  501 -0.00000000000E+00 -0.00000000000E+00 -0.67732667050E+02  0.67744572371E+02  0.12700000000E+01 0.  1.
         25    2    1    2    0    0  0.00000000000E+00  0.00000000000E+00 -0.10088946833E+02  0.12540228114E+03  0.12499578100E+03 0.  0.
    9000005    1    3    3    0    0 -0.69058958319E+01 -0.54377889902E+02  0.25058774624E+02  0.60279254251E+02  0.10000000000E+01 0.  0.
    9000005    1    3    3    0    0  0.69058958319E+01  0.54377889902E+02 -0.35147721457E+02  0.65123026888E+02  0.10000000000E+01 0.  0.
<mgrwt>
<rscale>  0 0.12499578E+03</rscale>
<asrwt>0</asrwt>
<pdfrwt beam="1">  1        4 0.88702565E-02 0.12499578E+03</pdfrwt>
<pdfrwt beam="2">  1       -4 0.10422402E-01 0.12499578E+03</pdfrwt>
<totfact> 0.10445110E+04</totfact>
</mgrwt>
</event>
<event>
 5    1  0.3184438E-002  0.1249992E+03  0.7818608E-02  0.1235070E+00
          4   -1    0    0  501    0  0.00000000000E+00  0.00000000000E+00  0.10576359873E+02  0.10652337216E+02  0.12700000000E+01 0.  1.
         -4   -1    0    0    0  501 -0.00000000000E+00 -0.00000000000E+00 -0.36793445257E+03  0.36793664439E+03  0.12700000000E+01 0.  1.
         25    2    1    2    0    0  0.00000000000E+00  0.00000000000E+00 -0.35735809269E+03  0.37858898161E+03  0.12499924232E+03 0.  0.
    9000005    1    3    3    0    0 -0.28894628524E+02  0.55327451316E+02 -0.16950433396E+03  0.18063428705E+03  0.10000000000E+01 0.  0.
    9000005    1    3    3    0    0  0.28894628524E+02 -0.55327451316E+02 -0.18785375873E+03  0.19795469455E+03  0.10000000000E+01 0.  0.
<mgrwt>
<rscale>  0 0.12499924E+03</rscale>
<asrwt>0</asrwt>
<pdfrwt beam="1">  1        4 0.16331456E-02 0.12499924E+03</pdfrwt>
<pdfrwt beam="2">  1       -4 0.56611304E-01 0.12499924E+03</pdfrwt>
<totfact> 0.66690961E+03</totfact>
</mgrwt>
</event>
<event>
 5    1  0.3184438E-002  0.1249999E+03  0.7818608E-02  0.1235069E+00
          4   -1    0    0  501    0  0.00000000000E+00  0.00000000000E+00  0.45947175116E+01  0.47670041967E+01  0.12700000000E+01 0. -1.
         -4   -1    0    0    0  501 -0.00000000000E+00 -0.00000000000E+00 -0.83434135485E+03  0.83434232142E+03  0.12700000000E+01 0. -1.
         25    2    1    2    0    0  0.00000000000E+00  0.00000000000E+00 -0.82974663733E+03  0.83910932561E+03  0.12499991265E+03 0.  0.
    9000005    1    3    3    0    0  0.19853639455E+02  0.59224554743E+02 -0.40226157707E+03  0.40708364162E+03  0.10000000000E+01 0.  0.
    9000005    1    3    3    0    0 -0.19853639455E+02 -0.59224554743E+02 -0.42748506026E+03  0.43202568400E+03  0.10000000000E+01 0.  0.
<mgrwt>
<rscale>  0 0.12499991E+03</rscale>
<asrwt>0</asrwt>
<pdfrwt beam="1">  1        4 0.72020746E-03 0.12499991E+03</pdfrwt>
<pdfrwt beam="2">  1       -4 0.12837342E+00 0.12499991E+03</pdfrwt>
<totfact> 0.36577273E+03</totfact>
</mgrwt>
</event>
<event>
 5    1  0.3184438E-002  0.1250090E+03  0.7818608E-02  0.1235055E+00
         -4   -1    0    0    0  501 -0.00000000000E+00  0.00000000000E+00  0.10990793069E+02  0.11063924814E+02  0.12700000000E+01 0.  1.
          4   -1    0    0  501    0  0.00000000000E+00 -0.00000000000E+00 -0.35420959251E+03  0.35421186926E+03  0.12700000000E+01 0.  1.
         25    2    1    2    0    0  0.00000000000E+00  0.00000000000E+00 -0.34321879944E+03  0.36527579407E+03  0.12500904546E+03 0.  0.
    9000005    1    3    3    0    0  0.34450266059E+02 -0.72882840193E+00 -0.19259843039E+02  0.39487891515E+02  0.10000000000E+01 0.  0.
    9000005    1    3    3    0    0 -0.34450266059E+02  0.72882840193E+00 -0.32395895640E+03  0.32578790256E+03  0.10000000000E+01 0.  0.
<mgrwt>
<rscale>  0 0.12500905E+03</rscale>
<asrwt>0</asrwt>
<pdfrwt beam="2">  1        4 0.54499575E-01 0.12500905E+03</pdfrwt>
<pdfrwt beam="1">  1       -4 0.16966922E-02 0.12500905E+03</pdfrwt>
<totfact> 0.68062479E+03</totfact>
</mgrwt>
</event>
<event>
 5    1  0.3184438E-002  0.1250052E+03  0.7818608E-02  0.1235061E+00
         -4   -1    0    0    0  501 -0.00000000000E+00  0.00000000000E+00  0.32823621670E+02  0.32848181678E+02  0.12700000000E+01 0.  1.
          4   -1    0    0  501    0  0.00000000000E+00 -0.00000000000E+00 -0.11894467583E+03  0.11895145568E+03  0.12700000000E+01 0.  1.
         25    2    1    2    0    0  0.00000000000E+00  0.00000000000E+00 -0.86121054161E+02  0.15179963736E+03  0.12500517562E+03 0.  0.
    9000005    1    3    3    0    0 -0.54074350032E+02  0.14036827026E+02 -0.77073200898E+02  0.95196355713E+02  0.10000000000E+01 0.  0.
    9000005    1    3    3    0    0  0.54074350032E+02 -0.14036827026E+02 -0.90478532623E+01  0.56603281645E+02  0.10000000000E+01 0.  0.
<mgrwt>
<rscale>  0 0.12500518E+03</rscale>
<asrwt>0</asrwt>
<pdfrwt beam="2">  1        4 0.18301591E-01 0.12500518E+03</pdfrwt>
<pdfrwt beam="1">  1       -4 0.50521988E-02 0.12500518E+03</pdfrwt>
<totfact> 0.98934648E+03</totfact>
</mgrwt>
</event>
<event>
 5    1  0.3184438E-002  0.1250018E+03  0.7818608E-02  0.1235067E+00
          4   -1    0    0  501    0  0.00000000000E+00  0.00000000000E+00  0.39552865879E+02  0.39573249794E+02  0.12700000000E+01 0. -1.
         -4   -1    0    0    0  501 -0.00000000000E+00 -0.00000000000E+00 -0.98713119817E+02  0.98721289113E+02  0.12700000000E+01 0. -1.
         25    2    1    2    0    0  0.00000000000E+00  0.00000000000E+00 -0.59160253938E+02  0.13829453891E+03  0.12500177537E+03 0.  0.
    9000005    1    3    3    0    0 -0.43219266192E+02 -0.11774456208E+02  0.18629141233E+02  0.48524093935E+02  0.10000000000E+01 0.  0.
    9000005    1    3    3    0    0  0.43219266192E+02  0.11774456208E+02 -0.77789395171E+02  0.89770444971E+02  0.10000000000E+01 0.  0.
<mgrwt>
<rscale>  0 0.12500178E+03</rscale>
<asrwt>0</asrwt>
<pdfrwt beam="1">  1        4 0.60872527E-02 0.12500178E+03</pdfrwt>
<pdfrwt beam="2">  1       -4 0.15188830E-01 0.12500178E+03</pdfrwt>
<totfact> 0.10168648E+04</totfact>
</mgrwt>
</event>
<event>
 5    1  0.3184438E-002  0.1249978E+03  0.7818608E-02  0.1235073E+00
         -4   -1    0    0    0  501 -0.00000000000E+00  0.00000000000E+00  0.83639729914E+02  0.83649371307E+02  0.12700000000E+01 0. -1.
          4   -1    0    0  501    0  0.00000000000E+00 -0.00000000000E+00 -0.46680637833E+02  0.46697910537E+02  0.12700000000E+01 0. -1.
         25    2    1    2    0    0  0.00000000000E+00  0.00000000000E+00  0.36959092081E+02  0.13034728184E+03  0.12499775757E+03 0.  0.
    9000005    1    3    3    0    0 -0.95515538956E+01 -0.40582726594E+02  0.67021940293E+02  0.78937509210E+02  0.10000000000E+01 0.  0.
    9000005    1    3    3    0    0  0.95515538956E+01  0.40582726594E+02 -0.30062848213E+02  0.51409772634E+02  0.10000000000E+01 0.  0.
<mgrwt>
<rscale>  0 0.12499776E+03</rscale>
<asrwt>0</asrwt>
<pdfrwt beam="2">  1        4 0.71837069E-02 0.12499776E+03</pdfrwt>
<pdfrwt beam="1">  1       -4 0.12869721E-01 0.12499776E+03</pdfrwt>
<totfact> 0.10337607E+04</totfact>
</mgrwt>
</event>
<event>
 5    1  0.3184438E-002  0.1249924E+03  0.7818608E-02  0.1235081E+00
         -4   -1    0    0    0  501 -0.00000000000E+00  0.00000000000E+00  0.39280533440E+03  0.39280738745E+03  0.12700000000E+01 0.  1.
          4   -1    0    0  501    0  0.00000000000E+00 -0.00000000000E+00 -0.99006440758E+01  0.99817660320E+01  0.12700000000E+01 0.  1.
         25    2    1    2    0    0  0.00000000000E+00  0.00000000000E+00  0.38290469032E+03  0.40278915348E+03  0.12499240092E+03 0.  0.
    9000005    1    3    3    0    0 -0.33449855954E+02  0.52321990659E+02  0.21384623381E+03  0.22268294790E+03  0.10000000000E+01 0.  0.
    9000005    1    3    3    0    0  0.33449855954E+02 -0.52321990659E+02  0.16905845652E+03  0.18010620558E+03  0.10000000000E+01 0.  0.
<mgrwt>
<rscale>  0 0.12499240E+03</rscale>
<asrwt>0</asrwt>
<pdfrwt beam="2">  1        4 0.15295742E-02 0.12499240E+03</pdfrwt>
<pdfrwt beam="1">  1       -4 0.60437983E-01 0.12499240E+03</pdfrwt>
<totfact> 0.64293206E+03</totfact>
</mgrwt>
</event>
<event>
 5    1  0.3184438E-002  0.1249860E+03  0.7818608E-02  0.1235091E+00
         -4   -1    0    0    0  501 -0.00000000000E+00  0.00000000000E+00  0.39128713192E+03  0.39128919293E+03  0.12700000000E+01 0.  1.
          4   -1    0    0  501    0  0.00000000000E+00 -0.00000000000E+00 -0.99383542256E+01  0.10019170860E+02  0.12700000000E+01 0.  1.
         25    2    1    2    0    0  0.00000000000E+00  0.00000000000E+00  0.38134877769E+03  0.40130836379E+03  0.12498604962E+03 0.  0.
    9000005    1    3    3    0    0 -0.21603316579E+02 -0.54210184386E+02  0.11895496130E+03  0.13250181205E+03  0.10000000000E+01 0.  0.
    9000005    1    3    3    0    0  0.21603316579E+02  0.54210184386E+02  0.26239381639E+03  0.26880655174E+03  0.10000000000E+01 0.  0.
<mgrwt>
<rscale>  0 0.12498605E+03</rscale>
<asrwt>0</asrwt>
<pdfrwt beam="2">  1        4 0.15353530E-02 0.12498605E+03</pdfrwt>
<pdfrwt beam="1">  1       -4 0.60204386E-01 0.12498605E+03</pdfrwt>
<totfact> 0.64445586E+03</totfact>
</mgrwt>
</event>
<event>
 5    1  0.3184438E-002  0.1249971E+03  0.7818608E-02  0.1235074E+00
         -4   -1    0    0    0  501 -0.00000000000E+00  0.00000000000E+00  0.12656142164E+03  0.12656779349E+03  0.12700000000E+01 0. -1.
          4   -1    0    0  501    0  0.00000000000E+00 -0.00000000000E+00 -0.30842810459E+02  0.30868946483E+02  0.12700000000E+01 0. -1.
         25    2    1    2    0    0  0.00000000000E+00  0.00000000000E+00  0.95718611186E+02  0.15743673997E+03  0.12499709823E+03 0.  0.
    9000005    1    3    3    0    0  0.33551016921E+02  0.51999965639E+02  0.58796252100E+02  0.85367830147E+02  0.10000000000E+01 0.  0.
    9000005    1    3    3    0    0 -0.33551016921E+02 -0.51999965639E+02  0.36922359085E+02  0.72068909825E+02  0.10000000000E+01 0.  0.
<mgrwt>
<rscale>  0 0.12499710E+03</rscale>
<asrwt>0</asrwt>
<pdfrwt beam="2">  1        4 0.47475484E-02 0.12499710E+03</pdfrwt>
<pdfrwt beam="1">  1       -4 0.19473489E-01 0.12499710E+03</pdfrwt>
<totfact> 0.97845633E+03</totfact>
</mgrwt>
</event>
<event>
 5    1  0.3184438E-002  0.1249984E+03  0.7818608E-02  0.1235072E+00
          4   -1    0    0  501    0  0.00000000000E+00  0.00000000000E+00  0.21753216304E+02  0.21790257446E+02  0.12700000000E+01 0. -1.
         -4   -1    0    0    0  501 -0.00000000000E+00 -0.00000000000E+00 -0.17937443147E+03  0.17937892731E+03  0.12700000000E+01 0. -1.
         25    2    1    2    0    0  0.00000000000E+00  0.00000000000E+00 -0.15762121516E+03  0.20116918476E+03  0.12499837370E+03 0.  0.
    9000005    1    3    3    0    0  0.38392799700E+02 -0.43667074385E+02 -0.11566239678E+03  0.12945891427E+03  0.10000000000E+01 0.  0.
    9000005    1    3    3    0    0 -0.38392799700E+02  0.43667074385E+02 -0.41958818383E+02  0.71710270494E+02  0.10000000000E+01 0.  0.
<mgrwt>
<rscale>  0 0.12499837E+03</rscale>
<asrwt>0</asrwt>
<pdfrwt beam="1">  1        4 0.33498439E-02 0.12499837E+03</pdfrwt>
<pdfrwt beam="2">  1       -4 0.27599261E-01 0.12499837E+03</pdfrwt>
<totfact> 0.89941961E+03</totfact>
</mgrwt>
</event>
<event>
 5    1  0.3184438E-002  0.1250016E+03  0.7818608E-02  0.1235067E+00
          4   -1    0    0  501    0  0.00000000000E+00  0.00000000000E+00  0.15922493615E+03  0.15923000092E+03  0.12700000000E+01 0.  1.
         -4   -1    0    0    0  501 -0.00000000000E+00 -0.00000000000E+00 -0.24511651142E+02  0.24544529771E+02  0.12700000000E+01 0.  1.
         25    2    1    2    0    0  0.00000000000E+00  0.00000000000E+00  0.13471328501E+03  0.18377453069E+03  0.12500163588E+03 0.  0.
    9000005    1    3    3    0    0  0.47282758032E+01  0.14974825188E+02 -0.21570842291E+02  0.26700247538E+02  0.10000000000E+01 0.  0.
    9000005    1    3    3    0    0 -0.47282758032E+01 -0.14974825188E+02  0.15628412730E+03  0.15707428315E+03  0.10000000000E+01 0.  0.
<mgrwt>
<rscale>  0 0.12500164E+03</rscale>
<asrwt>0</asrwt>
<pdfrwt beam="1">  1        4 0.24499064E-01 0.12500164E+03</pdfrwt>
<pdfrwt beam="2">  1       -4 0.37739418E-02 0.12500164E+03</pdfrwt>
<totfact> 0.92938545E+03</totfact>
</mgrwt>
</event>
<event>
 5    1  0.3184438E-002  0.1250012E+03  0.7818608E-02  0.1235067E+00
          4   -1    0    0  501    0  0.00000000000E+00  0.00000000000E+00  0.42347496467E+02  0.42366535816E+02  0.12700000000E+01 0.  1.
         -4   -1    0    0    0  501 -0.00000000000E+00 -0.00000000000E+00 -0.92200356031E+02  0.92209102329E+02  0.12700000000E+01 0.  1.
         25    2    1    2    0    0  0.00000000000E+00  0.00000000000E+00 -0.49852859564E+02  0.13457563814E+03  0.12500117910E+03 0.  0.
    9000005    1    3    3    0    0 -0.19460540840E+02  0.55813728317E+02 -0.30888277257E+01  0.59198190641E+02  0.10000000000E+01 0.  0.
    9000005    1    3    3    0    0  0.19460540840E+02 -0.55813728317E+02 -0.46764031838E+02  0.75377447504E+02  0.10000000000E+01 0.  0.
<mgrwt>
<rscale>  0 0.12500118E+03</rscale>
<asrwt>0</asrwt>
<pdfrwt beam="1">  1        4 0.65171368E-02 0.12500118E+03</pdfrwt>
<pdfrwt beam="2">  1       -4 0.14186807E-01 0.12500118E+03</pdfrwt>
<totfact> 0.10246751E+04</totfact>
</mgrwt>
</event>
<event>
 5    1  0.3184438E-002  0.1249900E+03  0.7818608E-02  0.1235085E+00
         -4   -1    0    0    0  501 -0.00000000000E+00  0.00000000000E+00  0.12977858686E+03  0.12978480076E+03  0.12700000000E+01 0. -1.
          4   -1    0    0  501    0  0.00000000000E+00 -0.00000000000E+00 -0.30074198980E+02  0.30101002380E+02  0.12700000000E+01 0. -1.
         25    2    1    2    0    0  0.00000000000E+00  0.00000000000E+00  0.99704387879E+02  0.15988580313E+03  0.12499001993E+03 0.  0.
    9000005    1    3    3    0    0  0.21210854684E+02 -0.39753881542E+02 -0.55287646602E+01  0.45407473974E+02  0.10000000000E+01 0.  0.
    9000005    1    3    3    0    0 -0.21210854684E+02  0.39753881542E+02  0.10523315254E+03  0.11447832916E+03  0.10000000000E+01 0.  0.
<mgrwt>
<rscale>  0 0.12499002E+03</rscale>
<asrwt>0</asrwt>
<pdfrwt beam="2">  1        4 0.46293396E-02 0.12499002E+03</pdfrwt>
<pdfrwt beam="1">  1       -4 0.19968476E-01 0.12499002E+03</pdfrwt>
<totfact> 0.97386650E+03</totfact>
</mgrwt>
</event>
<event>
 5    1  0.3184438E-002  0.1250007E+03  0.7818608E-02  0.1235068E+00
          4   -1    0    0  501    0  0.00000000000E+00  0.00000000000E+00  0.18204955490E+02  0.18249200102E+02  0.12700000000E+01 0. -1.
         -4   -1    0    0    0  501 -0.00000000000E+00 -0.00000000000E+00 -0.21426656827E+03  0.21427033201E+03  0.12700000000E+01 0. -1.
         25    2    1    2    0    0  0.00000000000E+00  0.00000000000E+00 -0.19606161278E+03  0.23251953211E+03  0.12500070722E+03 0.  0.
    9000005    1    3    3    0    0  0.49861789905E+02 -0.20206182058E+02 -0.15717075511E+03  0.16612686161E+03  0.10000000000E+01 0.  0.
    9000005    1    3    3    0    0 -0.49861789905E+02  0.20206182058E+02 -0.38890857671E+02  0.66392670501E+02  0.10000000000E+01 0.  0.
<mgrwt>
<rscale>  0 0.12500071E+03</rscale>
<asrwt>0</asrwt>
<pdfrwt beam="1">  1        4 0.28044555E-02 0.12500071E+03</pdfrwt>
<pdfrwt beam="2">  1       -4 0.32967779E-01 0.12500071E+03</pdfrwt>
<totfact> 0.84922877E+03</totfact>
</mgrwt>
</event>
<event>
 5    1  0.3184438E-002  0.1250023E+03  0.7818608E-02  0.1235066E+00
          4   -1    0    0  501    0  0.00000000000E+00  0.00000000000E+00  0.21856959839E+03  0.21857328803E+03  0.12700000000E+01 0.  1.
         -4   -1    0    0    0  501 -0.00000000000E+00 -0.00000000000E+00 -0.17846120954E+02  0.17891252978E+02  0.12700000000E+01 0.  1.
         25    2    1    2    0    0  0.00000000000E+00  0.00000000000E+00  0.20072347743E+03  0.23646454100E+03  0.12500225902E+03 0.  0.
    9000005    1    3    3    0    0  0.16382882054E+02 -0.37526540413E+02  0.18966739206E+03  0.19403958274E+03  0.10000000000E+01 0.  0.
    9000005    1    3    3    0    0 -0.16382882054E+02  0.37526540413E+02  0.11056085371E+02  0.42424958261E+02  0.10000000000E+01 0.  0.
<mgrwt>
<rscale>  0 0.12500226E+03</rscale>
<asrwt>0</asrwt>
<pdfrwt beam="1">  1        4 0.33629846E-01 0.12500226E+03</pdfrwt>
<pdfrwt beam="2">  1       -4 0.27493127E-02 0.12500226E+03</pdfrwt>
<totfact> 0.84322497E+03</totfact>
</mgrwt>
</event>
<event>
 5    1  0.3184438E-002  0.1249901E+03  0.7818608E-02  0.1235085E+00
         -4   -1    0    0    0  501 -0.00000000000E+00  0.00000000000E+00  0.30469162555E+02  0.30495618813E+02  0.12700000000E+01 0.  1.
          4   -1    0    0  501    0  0.00000000000E+00 -0.00000000000E+00 -0.12809787113E+03  0.12810416655E+03  0.12700000000E+01 0.  1.
         25    2    1    2    0    0  0.00000000000E+00  0.00000000000E+00 -0.97628708570E+02  0.15859978536E+03  0.12499010833E+03 0.  0.
    9000005    1    3    3    0    0  0.28082853773E+01  0.73387555957E+01  0.29845984777E+02  0.30879226152E+02  0.10000000000E+01 0.  0.
    9000005    1    3    3    0    0 -0.28082853773E+01 -0.73387555957E+01 -0.12747469335E+03  0.12772055921E+03  0.10000000000E+01 0.  0.
<mgrwt>
<rscale>  0 0.12499011E+03</rscale>
<asrwt>0</asrwt>
<pdfrwt beam="2">  1        4 0.19709884E-01 0.12499011E+03</pdfrwt>
<pdfrwt beam="1">  1       -4 0.46900829E-02 0.12499011E+03</pdfrwt>
<totfact> 0.97635126E+03</totfact>
</mgrwt>
</event>
<event>
 5    1  0.3184438E-002  0.1250022E+03  0.7818608E-02  0.1235066E+00
         -4   -1    0    0    0  501 -0.00000000000E+00  0.00000000000E+00  0.26395315585E+03  0.26395621111E+03  0.12700000000E+01 0. -1.
          4   -1    0    0  501    0  0.00000000000E+00 -0.00000000000E+00 -0.14769154166E+02  0.14823657267E+02  0.12700000000E+01 0. -1.
         25    2    1    2    0    0  0.00000000000E+00  0.00000000000E+00  0.24918400169E+03  0.27877986838E+03  0.12500219325E+03 0.  0.
    9000005    1    3    3    0    0 -0.33459244927E+02  0.40834500163E+02  0.19917575156E+03  0.20605571451E+03  0.10000000000E+01 0.  0.
    9000005    1    3    3    0    0  0.33459244927E+02 -0.40834500163E+02  0.50008250132E+02  0.72724153869E+02  0.10000000000E+01 0.  0.
<mgrwt>
<rscale>  0 0.12500219E+03</rscale>
<asrwt>0</asrwt>
<pdfrwt beam="2">  1        4 0.22766053E-02 0.12500219E+03</pdfrwt>
<pdfrwt beam="1">  1       -4 0.40612603E-01 0.12500219E+03</pdfrwt>
<totfact> 0.78336345E+03</totfact>
</mgrwt>
</event>
<event>
 5    1  0.3184438E-002  0.1250005E+03  0.7818608E-02  0.1235068E+00
         -4   -1    0    0    0  501 -0.00000000000E+00  0.00000000000E+00  0.21569381292E+02  0.21606737591E+02  0.12700000000E+01 0. -1.
          4   -1    0    0  501    0  0.00000000000E+00 -0.00000000000E+00 -0.18090682933E+03  0.18091128710E+03  0.12700000000E+01 0. -1.
         25    2    1    2    0    0  0.00000000000E+00  0.00000000000E+00 -0.15933744804E+03  0.20251802469E+03  0.12500051190E+03 0.  0.
    9000005    1    3    3    0    0  0.35414781952E+02  0.46274796412E+02 -0.11624648012E+03  0.13003771647E+03  0.10000000000E+01 0.  0.
    9000005    1    3    3    0    0 -0.35414781952E+02 -0.46274796412E+02 -0.43090967922E+02  0.72480308223E+02  0.10000000000E+01 0.  0.
<mgrwt>
<rscale>  0 0.12500051E+03</rscale>
<asrwt>0</asrwt>
<pdfrwt beam="2">  1        4 0.27835035E-01 0.12500051E+03</pdfrwt>
<pdfrwt beam="1">  1       -4 0.33215829E-02 0.12500051E+03</pdfrwt>
<totfact> 0.89711525E+03</totfact>
</mgrwt>
</event>
<event>
 4    1  0.3184438E-002  0.1248238E+03  0.7818608E-02  0.1235345E+00
         -4   -1    0    0    0  501 -0.00000000000E+00  0.00000000000E+00  0.18747753371E+03  0.18748183525E+03  0.12700000000E+01 0. -1.
          4   -1    0    0  501    0  0.00000000000E+00 -0.00000000000E+00 -0.20753162967E+02  0.20791985791E+02  0.12700000000E+01 0. -1.
    9000005    1    1    2    0    0 -0.50348206866E+02 -0.76270547599E-01  0.14487905469E+03  0.15338151206E+03  0.10000000000E+01 0.  0.
    9000005    1    1    2    0    0  0.50348206866E+02  0.76270547599E-01  0.21845316051E+02  0.54892308980E+02  0.10000000000E+01 0.  0.
<mgrwt>
<rscale>  0 0.12482375E+03</rscale>
<asrwt>0</asrwt>
<pdfrwt beam="2">  1        4 0.31961117E-02 0.12482375E+03</pdfrwt>
<pdfrwt beam="1">  1       -4 0.28846013E-01 0.12482375E+03</pdfrwt>
<totfact> 0.89109270E+03</totfact>
</mgrwt>
</event>
<event>
 5    1  0.3184438E-002  0.1249993E+03  0.7818608E-02  0.1235070E+00
          4   -1    0    0  501    0  0.00000000000E+00  0.00000000000E+00  0.30665072895E+03  0.30665335881E+03  0.12700000000E+01 0. -1.
         -4   -1    0    0    0  501 -0.00000000000E+00 -0.00000000000E+00 -0.12703945914E+02  0.12767268376E+02  0.12700000000E+01 0. -1.
         25    2    1    2    0    0  0.00000000000E+00  0.00000000000E+00  0.29394678304E+03  0.31942062718E+03  0.12499930324E+03 0.  0.
    9000005    1    3    3    0    0 -0.56624594169E+01  0.11712406507E+02 -0.92178303422E+01  0.15975365694E+02  0.10000000000E+01 0.  0.
    9000005    1    3    3    0    0  0.56624594169E+01 -0.11712406507E+02  0.30316461338E+03  0.30344526149E+03  0.10000000000E+01 0.  0.
<mgrwt>
<rscale>  0 0.12499930E+03</rscale>
<asrwt>0</asrwt>
<pdfrwt beam="1">  1        4 0.47182110E-01 0.12499930E+03</pdfrwt>
<pdfrwt beam="2">  1       -4 0.19595264E-02 0.12499930E+03</pdfrwt>
<totfact> 0.73226215E+03</totfact>
</mgrwt>
</event>
<event>
 5    1  0.3184438E-002  0.1249889E+03  0.7818608E-02  0.1235087E+00
         -4   -1    0    0    0  501 -0.00000000000E+00  0.00000000000E+00  0.28400698768E+01  0.31110925581E+01  0.12700000000E+01 0. -1.
          4   -1    0    0  501    0  0.00000000000E+00 -0.00000000000E+00 -0.13122650126E+04  0.13122656271E+04  0.12700000000E+01 0. -1.
         25    2    1    2    0    0  0.00000000000E+00  0.00000000000E+00 -0.13094249427E+04  0.13153767197E+04  0.12498893599E+03 0.  0.
    9000005    1    3    3    0    0  0.32888634209E+02  0.51409360527E+02 -0.79589578415E+03  0.79823285063E+03  0.10000000000E+01 0.  0.
    9000005    1    3    3    0    0 -0.32888634209E+02 -0.51409360527E+02 -0.51352915857E+03  0.51714386907E+03  0.10000000000E+01 0.  0.
<mgrwt>
<rscale>  0 0.12498894E+03</rscale>
<asrwt>0</asrwt>
<pdfrwt beam="2">  1        4 0.20190736E+00 0.12498894E+03</pdfrwt>
<pdfrwt beam="1">  1       -4 0.45783005E-03 0.12498894E+03</pdfrwt>
<totfact> 0.21873837E+03</totfact>
</mgrwt>
</event>
<event>
 5    1  0.3184438E-002  0.1250030E+03  0.7818608E-02  0.1235065E+00
          4   -1    0    0  501    0  0.00000000000E+00  0.00000000000E+00  0.19853172046E+02  0.19893751288E+02  0.12700000000E+01 0. -1.
         -4   -1    0    0    0  501 -0.00000000000E+00 -0.00000000000E+00 -0.19652283946E+03  0.19652694301E+03  0.12700000000E+01 0. -1.
         25    2    1    2    0    0  0.00000000000E+00  0.00000000000E+00 -0.17666966741E+03  0.21642069430E+03  0.12500298211E+03 0.  0.
    9000005    1    3    3    0    0  0.28057444852E+01 -0.11395032298E+02  0.17936853043E+02  0.21458090788E+02  0.10000000000E+01 0.  0.
    9000005    1    3    3    0    0 -0.28057444852E+01  0.11395032298E+02 -0.19460652045E+03  0.19496260351E+03  0.10000000000E+01 0.  0.
<mgrwt>
<rscale>  0 0.12500298E+03</rscale>
<asrwt>0</asrwt>
<pdfrwt beam="1">  1        4 0.30577714E-02 0.12500298E+03</pdfrwt>
<pdfrwt beam="2">  1       -4 0.30237719E-01 0.12500298E+03</pdfrwt>
<totfact> 0.87432091E+03</totfact>
</mgrwt>
</event>
<event>
 5    1  0.3184438E-002  0.1250010E+03  0.7818608E-02  0.1235068E+00
         -4   -1    0    0    0  501 -0.00000000000E+00  0.00000000000E+00  0.38166050593E+03  0.38166261892E+03  0.12700000000E+01 0.  1.
          4   -1    0    0  501    0  0.00000000000E+00 -0.00000000000E+00 -0.10193501355E+02  0.10272310834E+02  0.12700000000E+01 0.  1.
         25    2    1    2    0    0  0.00000000000E+00  0.00000000000E+00  0.37146700457E+03  0.39193492976E+03  0.12500101471E+03 0.  0.
    9000005    1    3    3    0    0 -0.32649115578E+02  0.53278315168E+02  0.18298250175E+03  0.19336012919E+03  0.10000000000E+01 0.  0.
    9000005    1    3    3    0    0  0.32649115578E+02 -0.53278315168E+02  0.18848450283E+03  0.19857480057E+03  0.10000000000E+01 0.  0.
<mgrwt>
<rscale>  0 0.12500101E+03</rscale>
<asrwt>0</asrwt>
<pdfrwt beam="2">  1        4 0.15744559E-02 0.12500101E+03</pdfrwt>
<pdfrwt beam="1">  1       -4 0.58723220E-01 0.12500101E+03</pdfrwt>
<totfact> 0.65343357E+03</totfact>
</mgrwt>
</event>
<event>
 5    1  0.3184438E-002  0.1249987E+03  0.7818608E-02  0.1235071E+00
          4   -1    0    0  501    0  0.00000000000E+00  0.00000000000E+00  0.10967596166E+02  0.11040881562E+02  0.12700000000E+01 0.  1.
         -4   -1    0    0    0  501 -0.00000000000E+00 -0.00000000000E+00 -0.35489508123E+03  0.35489735359E+03  0.12700000000E+01 0.  1.
         25    2    1    2    0    0  0.00000000000E+00  0.00000000000E+00 -0.34392748507E+03  0.36593823515E+03  0.12499870783E+03 0.  0.
    9000005    1    3    3    0    0  0.20563618590E+01  0.49486238556E+02 -0.60407604398E+02  0.78122948610E+02  0.10000000000E+01 0.  0.
    9000005    1    3    3    0    0 -0.20563618590E+01 -0.49486238556E+02 -0.28351988067E+03  0.28781528654E+03  0.10000000000E+01 0.  0.
<mgrwt>
<rscale>  0 0.12499871E+03</rscale>
<asrwt>0</asrwt>
<pdfrwt beam="1">  1        4 0.16931349E-02 0.12499871E+03</pdfrwt>
<pdfrwt beam="2">  1       -4 0.54605047E-01 0.12499871E+03</pdfrwt>
<totfact> 0.68007972E+03</totfact>
</mgrwt>
</event>
<event>
 5    1  0.3184438E-002  0.1249950E+03  0.7818608E-02  0.1235077E+00
         -4   -1    0    0    0  501 -0.00000000000E+00  0.00000000000E+00  0.19871785005E+02  0.19912326315E+02  0.12700000000E+01 0.  1.
          4   -1    0    0  501    0  0.00000000000E+00 -0.00000000000E+00 -0.19631419573E+03  0.19631830365E+03  0.12700000000E+01 0.  1.
         25    2    1    2    0    0  0.00000000000E+00  0.00000000000E+00 -0.17644241073E+03  0.21623062996E+03  0.12499504402E+03 0.  0.
    9000005    1    3    3    0    0  0.53513151291E+02  0.18516878545E+02 -0.13393834552E+03  0.14542012430E+03  0.10000000000E+01 0.  0.
    9000005    1    3    3    0    0 -0.53513151291E+02 -0.18516878545E+02 -0.42504065210E+02  0.70810505658E+02  0.10000000000E+01 0.  0.
<mgrwt>
<rscale>  0 0.12499504E+03</rscale>
<asrwt>0</asrwt>
<pdfrwt beam="2">  1        4 0.30205617E-01 0.12499504E+03</pdfrwt>
<pdfrwt beam="1">  1       -4 0.30606324E-02 0.12499504E+03</pdfrwt>
<totfact> 0.87478027E+03</totfact>
</mgrwt>
</event>
<event>
 5    1  0.3184438E-002  0.1250041E+03  0.7818608E-02  0.1235063E+00
          4   -1    0    0  501    0  0.00000000000E+00  0.00000000000E+00  0.47114026908E+02  0.47131140783E+02  0.12700000000E+01 0. -1.
         -4   -1    0    0    0  501 -0.00000000000E+00 -0.00000000000E+00 -0.82878955759E+02  0.82888685643E+02  0.12700000000E+01 0. -1.
         25    2    1    2    0    0  0.00000000000E+00  0.00000000000E+00 -0.35764928851E+02  0.13001982643E+03  0.12500410045E+03 0.  0.
    9000005    1    3    3    0    0 -0.21745636807E+02  0.40603264859E+02 -0.61814747739E+02  0.77094493159E+02  0.10000000000E+01 0.  0.
    9000005    1    3    3    0    0  0.21745636807E+02 -0.40603264859E+02  0.26049818888E+02  0.52925333267E+02  0.10000000000E+01 0.  0.
<mgrwt>
<rscale>  0 0.12500410E+03</rscale>
<asrwt>0</asrwt>
<pdfrwt beam="1">  1        4 0.72503768E-02 0.12500410E+03</pdfrwt>
<pdfrwt beam="2">  1       -4 0.12752673E-01 0.12500410E+03</pdfrwt>
<totfact> 0.10343126E+04</totfact>
</mgrwt>
</event>
<event>
 5    1  0.3184438E-002  0.1250106E+03  0.7818608E-02  0.1235053E+00
          4   -1    0    0  501    0  0.00000000000E+00  0.00000000000E+00  0.13548911310E+03  0.13549506511E+03  0.12700000000E+01 0. -1.
         -4   -1    0    0    0  501 -0.00000000000E+00 -0.00000000000E+00 -0.28815051338E+02  0.28843024869E+02  0.12700000000E+01 0. -1.
         25    2    1    2    0    0  0.00000000000E+00  0.00000000000E+00  0.10667406177E+03  0.16433808998E+03  0.12501060901E+03 0.  0.
    9000005    1    3    3    0    0  0.41244327909E+02 -0.48331551493E+01  0.11473654061E+03  0.12202429154E+03  0.10000000000E+01 0.  0.
    9000005    1    3    3    0    0 -0.41244327909E+02  0.48331551493E+01 -0.80624788485E+01  0.42313798442E+02  0.10000000000E+01 0.  0.
<mgrwt>
<rscale>  0 0.12501061E+03</rscale>
<asrwt>0</asrwt>
<pdfrwt beam="1">  1        4 0.20847089E-01 0.12501061E+03</pdfrwt>
<pdfrwt beam="2">  1       -4 0.44356945E-02 0.12501061E+03</pdfrwt>
<totfact> 0.96489894E+03</totfact>
</mgrwt>
</event>
<event>
 4    1  0.3184438E-002  0.1253338E+03  0.7818608E-02  0.1234549E+00
          4   -1    0    0  501    0  0.00000000000E+00  0.00000000000E+00  0.76498397084E+02  0.76508938408E+02  0.12700000000E+01 0.  1.
         -4   -1    0    0    0  501 -0.00000000000E+00 -0.00000000000E+00 -0.51314286700E+02  0.51330000191E+02  0.12700000000E+01 0.  1.
    9000005    1    1    2    0    0  0.14470074618E+02 -0.59640890864E+02  0.25482692547E+02  0.66458908672E+02  0.10000000000E+01 0.  0.
    9000005    1    1    2    0    0 -0.14470074618E+02  0.59640890864E+02 -0.29858216327E+00  0.61380029927E+02  0.10000000000E+01 0.  0.
<mgrwt>
<rscale>  0 0.12533377E+03</rscale>
<asrwt>0</asrwt>
<pdfrwt beam="1">  1        4 0.11771004E-01 0.12533377E+03</pdfrwt>
<pdfrwt beam="2">  1       -4 0.78965253E-02 0.12533377E+03</pdfrwt>
<totfact> 0.10313061E+04</totfact>
</mgrwt>
</event>
<event>
 5    1  0.3184438E-002  0.1250057E+03  0.7818608E-02  0.1235060E+00
         -4   -1    0    0    0  501 -0.00000000000E+00  0.00000000000E+00  0.20443154937E+02  0.20482565362E+02  0.12700000000E+01 0.  1.
          4   -1    0    0  501    0  0.00000000000E+00 -0.00000000000E+00 -0.19087055657E+03  0.19087478164E+03  0.12700000000E+01 0.  1.
         25    2    1    2    0    0  0.00000000000E+00  0.00000000000E+00 -0.17042740164E+03  0.21135734700E+03  0.12500571548E+03 0.  0.
    9000005    1    3    3    0    0  0.29829236890E+02 -0.58206568575E+01  0.71151024230E+01  0.31229602979E+02  0.10000000000E+01 0.  0.
    9000005    1    3    3    0    0 -0.29829236890E+02  0.58206568575E+01 -0.17754250406E+03  0.18012774403E+03  0.10000000000E+01 0.  0.
<mgrwt>
<rscale>  0 0.12500572E+03</rscale>
<asrwt>0</asrwt>
<pdfrwt beam="2">  1        4 0.29368056E-01 0.12500572E+03</pdfrwt>
<pdfrwt beam="1">  1       -4 0.31484575E-02 0.12500572E+03</pdfrwt>
<totfact> 0.88243413E+03</totfact>
</mgrwt>
</event>
<event>
 5    1  0.3184438E-002  0.1249991E+03  0.7818608E-02  0.1235071E+00
         -4   -1    0    0    0  501 -0.00000000000E+00  0.00000000000E+00  0.27453051207E+02  0.27482411113E+02  0.12700000000E+01 0. -1.
          4   -1    0    0  501    0  0.00000000000E+00 -0.00000000000E+00 -0.14217811333E+03  0.14218378533E+03  0.12700000000E+01 0. -1.
         25    2    1    2    0    0  0.00000000000E+00  0.00000000000E+00 -0.11472506212E+03  0.16966619644E+03  0.12499911334E+03 0.  0.
    9000005    1    3    3    0    0  0.34960952556E+02 -0.26337124056E+02 -0.11790171999E+03  0.12576854887E+03  0.10000000000E+01 0.  0.
    9000005    1    3    3    0    0 -0.34960952556E+02  0.26337124056E+02  0.31766578709E+01  0.43897647572E+02  0.10000000000E+01 0.  0.
<mgrwt>
<rscale>  0 0.12499911E+03</rscale>
<asrwt>0</asrwt>
<pdfrwt beam="2">  1        4 0.21876250E-01 0.12499911E+03</pdfrwt>
<pdfrwt beam="1">  1       -4 0.42262412E-02 0.12499911E+03</pdfrwt>
<totfact> 0.95512790E+03</totfact>
</mgrwt>
</event>
<event>
 5    1  0.3184438E-002  0.1249976E+03  0.7818608E-02  0.1235073E+00
         -4   -1    0    0    0  501 -0.00000000000E+00  0.00000000000E+00  0.35018044751E+03  0.35018275046E+03  0.12700000000E+01 0. -1.
          4   -1    0    0  501    0  0.00000000000E+00 -0.00000000000E+00 -0.11116042809E+02  0.11188355899E+02  0.12700000000E+01 0. -1.
         25    2    1    2    0    0  0.00000000000E+00  0.00000000000E+00  0.33906440470E+03  0.36137110636E+03  0.12499762388E+03 0.  0.
    9000005    1    3    3    0    0  0.50095993083E+02 -0.34350816130E+02  0.12709079108E+03  0.14086396370E+03  0.10000000000E+01 0.  0.
    9000005    1    3    3    0    0 -0.50095993083E+02  0.34350816130E+02  0.21197361362E+03  0.22050714266E+03  0.10000000000E+01 0.  0.
<mgrwt>
<rscale>  0 0.12499762E+03</rscale>
<asrwt>0</asrwt>
<pdfrwt beam="2">  1        4 0.17159003E-02 0.12499762E+03</pdfrwt>
<pdfrwt beam="1">  1       -4 0.53879649E-01 0.12499762E+03</pdfrwt>
<totfact> 0.68495050E+03</totfact>
</mgrwt>
</event>
<event>
 5    1  0.3184438E-002  0.1250111E+03  0.7818608E-02  0.1235052E+00
          4   -1    0    0  501    0  0.00000000000E+00  0.00000000000E+00  0.62269500657E+02  0.62282450273E+02  0.12700000000E+01 0. -1.
         -4   -1    0    0    0  501 -0.00000000000E+00 -0.00000000000E+00 -0.62716551629E+02  0.62729408958E+02  0.12700000000E+01 0. -1.
         25    2    1    2    0    0  0.00000000000E+00  0.00000000000E+00 -0.44705097189E+00  0.12501185923E+03  0.12501105989E+03 0.  0.
    9000005    1    3    3    0    0 -0.25729210397E+02 -0.45269890076E+02  0.34339479812E+02  0.62382329941E+02  0.10000000000E+01 0.  0.
    9000005    1    3    3    0    0  0.25729210397E+02  0.45269890076E+02 -0.34786530783E+02  0.62629529290E+02  0.10000000000E+01 0.  0.
<mgrwt>
<rscale>  0 0.12501106E+03</rscale>
<asrwt>0</asrwt>
<pdfrwt beam="1">  1        4 0.95819082E-02 0.12501106E+03</pdfrwt>
<pdfrwt beam="2">  1       -4 0.96506855E-02 0.12501106E+03</pdfrwt>
<totfact> 0.10449993E+04</totfact>
</mgrwt>
</event>
<event>
 5    1  0.3184438E-002  0.1250033E+03  0.7818608E-02  0.1235064E+00
         -4   -1    0    0    0  501 -0.00000000000E+00  0.00000000000E+00  0.16801645117E+02  0.16849575029E+02  0.12700000000E+01 0. -1.
          4   -1    0    0  501    0  0.00000000000E+00 -0.00000000000E+00 -0.23212353771E+03  0.23212701191E+03  0.12700000000E+01 0. -1.
         25    2    1    2    0    0  0.00000000000E+00  0.00000000000E+00 -0.21532189259E+03  0.24897658694E+03  0.12500329362E+03 0.  0.
    9000005    1    3    3    0    0  0.21260975303E+02  0.49850392373E+02 -0.16964166842E+03  0.17809094967E+03  0.10000000000E+01 0.  0.
    9000005    1    3    3    0    0 -0.21260975303E+02 -0.49850392373E+02 -0.45680224175E+02  0.70885637271E+02  0.10000000000E+01 0.  0.
<mgrwt>
<rscale>  0 0.12500329E+03</rscale>
<asrwt>0</asrwt>
<pdfrwt beam="2">  1        4 0.35715266E-01 0.12500329E+03</pdfrwt>
<pdfrwt beam="1">  1       -4 0.25888228E-02 0.12500329E+03</pdfrwt>
<totfact> 0.82472317E+03</totfact>
</mgrwt>
</event>
<event>
 5    1  0.3184438E-002  0.1250190E+03  0.7818608E-02  0.1235040E+00
          4   -1    0    0  501    0  0.00000000000E+00  0.00000000000E+00  0.64534378240E+02  0.64546873470E+02  0.12700000000E+01 0.  1.
         -4   -1    0    0    0  501 -0.00000000000E+00 -0.00000000000E+00 -0.60523130024E+02  0.60536453215E+02  0.12700000000E+01 0.  1.
         25    2    1    2    0    0  0.00000000000E+00  0.00000000000E+00  0.40112482159E+01  0.12508332669E+03  0.12501899257E+03 0.  0.
    9000005    1    3    3    0    0  0.40307829928E+02  0.13031205009E+02  0.47984725627E+02  0.64016149142E+02  0.10000000000E+01 0.  0.
    9000005    1    3    3    0    0 -0.40307829928E+02 -0.13031205009E+02 -0.43973477411E+02  0.61067177543E+02  0.10000000000E+01 0.  0.
<mgrwt>
<rscale>  0 0.12501899E+03</rscale>
<asrwt>0</asrwt>
<pdfrwt beam="1">  1        4 0.99303519E-02 0.12501899E+03</pdfrwt>
<pdfrwt beam="2">  1       -4 0.93132368E-02 0.12501899E+03</pdfrwt>
<totfact> 0.10446568E+04</totfact>
</mgrwt>
</event>
<event>
 5    1  0.3184438E-002  0.1250020E+03  0.7818608E-02  0.1235066E+00
          4   -1    0    0  501    0  0.00000000000E+00  0.00000000000E+00  0.41297216294E+01  0.43205903227E+01  0.12700000000E+01 0. -1.
         -4   -1    0    0    0  501 -0.00000000000E+00 -0.00000000000E+00 -0.92435975813E+03  0.92436063057E+03  0.12700000000E+01 0. -1.
         25    2    1    2    0    0  0.00000000000E+00  0.00000000000E+00 -0.92023003650E+03  0.92868122089E+03  0.12500195984E+03 0.  0.
    9000005    1    3    3    0    0 -0.33955417531E+02  0.38803861425E+01 -0.84881506007E+03  0.84950340434E+03  0.10000000000E+01 0.  0.
    9000005    1    3    3    0    0  0.33955417531E+02 -0.38803861425E+01 -0.71414976428E+02  0.79177816556E+02  0.10000000000E+01 0.  0.
<mgrwt>
<rscale>  0 0.12500196E+03</rscale>
<asrwt>0</asrwt>
<pdfrwt beam="1">  1        4 0.65009184E-03 0.12500196E+03</pdfrwt>
<pdfrwt beam="2">  1       -4 0.14222378E+00 0.12500196E+03</pdfrwt>
<totfact> 0.33083790E+03</totfact>
</mgrwt>
</event>
<event>
 5    1  0.3184438E-002  0.1249951E+03  0.7818608E-02  0.1235077E+00
         -4   -1    0    0    0  501 -0.00000000000E+00  0.00000000000E+00  0.80022020940E+01  0.81023538773E+01  0.12700000000E+01 0.  1.
          4   -1    0    0  501    0  0.00000000000E+00 -0.00000000000E+00 -0.48497183346E+03  0.48497349634E+03  0.12700000000E+01 0.  1.
         25    2    1    2    0    0  0.00000000000E+00  0.00000000000E+00 -0.47696963137E+03  0.49307585021E+03  0.12499505918E+03 0.  0.
    9000005    1    3    3    0    0  0.61679570193E+02  0.91950344584E+01 -0.22269434538E+03  0.23126324720E+03  0.10000000000E+01 0.  0.
    9000005    1    3    3    0    0 -0.61679570193E+02 -0.91950344584E+01 -0.25427528598E+03  0.26181260302E+03  0.10000000000E+01 0.  0.
<mgrwt>
<rscale>  0 0.12499506E+03</rscale>
<asrwt>0</asrwt>
<pdfrwt beam="2">  1        4 0.74618861E-01 0.12499506E+03</pdfrwt>
<pdfrwt beam="1">  1       -4 0.12389403E-02 0.12499506E+03</pdfrwt>
<totfact> 0.56411765E+03</totfact>
</mgrwt>
</event>
<event>
 5    1  0.3184438E-002  0.1250064E+03  0.7818608E-02  0.1235059E+00
          4   -1    0    0  501    0  0.00000000000E+00  0.00000000000E+00  0.16058002966E+03  0.16058505169E+03  0.12700000000E+01 0. -1.
         -4   -1    0    0    0  501 -0.00000000000E+00 -0.00000000000E+00 -0.24306405456E+02  0.24339561340E+02  0.12700000000E+01 0. -1.
         25    2    1    2    0    0  0.00000000000E+00  0.00000000000E+00  0.13627362421E+03  0.18492461303E+03  0.12500644723E+03 0.  0.
    9000005    1    3    3    0    0  0.26937522640E+02  0.52331379095E+02  0.99218376478E+02  0.11536676122E+03  0.10000000000E+01 0.  0.
    9000005    1    3    3    0    0 -0.26937522640E+02 -0.52331379095E+02  0.37055247729E+02  0.69557851809E+02  0.10000000000E+01 0.  0.
<mgrwt>
<rscale>  0 0.12500645E+03</rscale>
<asrwt>0</asrwt>
<pdfrwt beam="1">  1        4 0.24707557E-01 0.12500645E+03</pdfrwt>
<pdfrwt beam="2">  1       -4 0.37423838E-02 0.12500645E+03</pdfrwt>
<totfact> 0.92724594E+03</totfact>
</mgrwt>
</event>
<event>
 5    1  0.3184438E-002  0.1250013E+03  0.7818608E-02  0.1235067E+00
         -4   -1    0    0    0  501 -0.00000000000E+00  0.00000000000E+00  0.23609210959E+02  0.23643344563E+02  0.12700000000E+01 0.  1.
          4   -1    0    0  501    0  0.00000000000E+00 -0.00000000000E+00 -0.16530193133E+03  0.16530680991E+03  0.12700000000E+01 0.  1.
         25    2    1    2    0    0  0.00000000000E+00  0.00000000000E+00 -0.14169272038E+03  0.18895015447E+03  0.12500133547E+03 0.  0.
    9000005    1    3    3    0    0  0.11515177942E+02  0.56085479014E+02 -0.10870102591E+03  0.12286209063E+03  0.10000000000E+01 0.  0.
    9000005    1    3    3    0    0 -0.11515177942E+02 -0.56085479014E+02 -0.32991694465E+02  0.66088063847E+02  0.10000000000E+01 0.  0.
<mgrwt>
<rscale>  0 0.12500134E+03</rscale>
<asrwt>0</asrwt>
<pdfrwt beam="2">  1        4 0.25434067E-01 0.12500134E+03</pdfrwt>
<pdfrwt beam="1">  1       -4 0.36351873E-02 0.12500134E+03</pdfrwt>
<totfact> 0.92027553E+03</totfact>
</mgrwt>
</event>
<event>
 5    1  0.3184438E-002  0.1249863E+03  0.7818608E-02  0.1235091E+00
          4   -1    0    0  501    0  0.00000000000E+00  0.00000000000E+00  0.10780067581E+03  0.10780815648E+03  0.12700000000E+01 0. -1.
         -4   -1    0    0    0  501 -0.00000000000E+00 -0.00000000000E+00 -0.36208061515E+02  0.36230327333E+02  0.12700000000E+01 0. -1.
         25    2    1    2    0    0  0.00000000000E+00  0.00000000000E+00  0.71592614292E+02  0.14403848382E+03  0.12498632885E+03 0.  0.
    9000005    1    3    3    0    0 -0.33764561838E+02  0.52485472764E+02  0.32220954094E+02  0.70242155221E+02  0.10000000000E+01 0.  0.
    9000005    1    3    3    0    0  0.33764561838E+02 -0.52485472764E+02  0.39371660199E+02  0.73796328596E+02  0.10000000000E+01 0.  0.
<mgrwt>
<rscale>  0 0.12498633E+03</rscale>
<asrwt>0</asrwt>
<pdfrwt beam="1">  1        4 0.16587008E-01 0.12498633E+03</pdfrwt>
<pdfrwt beam="2">  1       -4 0.55727591E-02 0.12498633E+03</pdfrwt>
<totfact> 0.10053656E+04</totfact>
</mgrwt>
</event>
<event>
 5    1  0.3184438E-002  0.1250009E+03  0.7818608E-02  0.1235068E+00
          4   -1    0    0  501    0  0.00000000000E+00  0.00000000000E+00  0.34834066912E+02  0.34857210410E+02  0.12700000000E+01 0. -1.
         -4   -1    0    0    0  501 -0.00000000000E+00 -0.00000000000E+00 -0.11207636150E+03  0.11208355681E+03  0.12700000000E+01 0. -1.
         25    2    1    2    0    0  0.00000000000E+00  0.00000000000E+00 -0.77242294587E+02  0.14694076722E+03  0.12500086799E+03 0.  0.
    9000005    1    3    3    0    0  0.35647652294E+01  0.48977487911E+02 -0.84054611002E+02  0.97353374384E+02  0.10000000000E+01 0.  0.
    9000005    1    3    3    0    0 -0.35647652294E+01 -0.48977487911E+02  0.68123164152E+01  0.49587392835E+02  0.10000000000E+01 0.  0.
<mgrwt>
<rscale>  0 0.12500087E+03</rscale>
<asrwt>0</asrwt>
<pdfrwt beam="1">  1        4 0.53614210E-02 0.12500087E+03</pdfrwt>
<pdfrwt beam="2">  1       -4 0.17244851E-01 0.12500087E+03</pdfrwt>
<totfact> 0.99915091E+03</totfact>
</mgrwt>
</event>
<event>
 5    1  0.3184438E-002  0.1250002E+03  0.7818608E-02  0.1235069E+00
          4   -1    0    0  501    0  0.00000000000E+00  0.00000000000E+00  0.19459058262E+03  0.19459472692E+03  0.12700000000E+01 0.  1.
         -4   -1    0    0    0  501 -0.00000000000E+00 -0.00000000000E+00 -0.20049828452E+02  0.20090010477E+02  0.12700000000E+01 0.  1.
         25    2    1    2    0    0  0.00000000000E+00  0.00000000000E+00  0.17454075416E+03  0.21468473739E+03  0.12500024642E+03 0.  0.
    9000005    1    3    3    0    0  0.30060858182E+02 -0.44492694058E+02  0.32364611087E+02  0.62703453414E+02  0.10000000000E+01 0.  0.
    9000005    1    3    3    0    0 -0.30060858182E+02  0.44492694058E+02  0.14217614308E+03  0.15198128398E+03  0.10000000000E+01 0.  0.
<mgrwt>
<rscale>  0 0.12500025E+03</rscale>
<asrwt>0</asrwt>
<pdfrwt beam="1">  1        4 0.29940422E-01 0.12500025E+03</pdfrwt>
<pdfrwt beam="2">  1       -4 0.30879987E-02 0.12500025E+03</pdfrwt>
<totfact> 0.87715988E+03</totfact>
</mgrwt>
</event>
<event>
 5    1  0.3184438E-002  0.1250026E+03  0.7818608E-02  0.1235065E+00
         -4   -1    0    0    0  501 -0.00000000000E+00  0.00000000000E+00  0.12446075148E+02  0.12510702881E+02  0.12700000000E+01 0. -1.
          4   -1    0    0  501    0  0.00000000000E+00 -0.00000000000E+00 -0.31298840225E+03  0.31299097885E+03  0.12700000000E+01 0. -1.
         25    2    1    2    0    0  0.00000000000E+00  0.00000000000E+00 -0.30054232710E+03  0.32550168173E+03  0.12500261770E+03 0.  0.
    9000005    1    3    3    0    0 -0.16191147162E+02  0.54373978533E+02 -0.21850933776E+03  0.22575653585E+03  0.10000000000E+01 0.  0.
    9000005    1    3    3    0    0  0.16191147162E+02 -0.54373978533E+02 -0.82032989337E+02  0.99745145885E+02  0.10000000000E+01 0.  0.
<mgrwt>
<rscale>  0 0.12500262E+03</rscale>
<asrwt>0</asrwt>
<pdfrwt beam="2">  1        4 0.48157225E-01 0.12500262E+03</pdfrwt>
<pdfrwt beam="1">  1       -4 0.19199506E-02 0.12500262E+03</pdfrwt>
<totfact> 0.72502313E+03</totfact>
</mgrwt>
</event>
<event>
 5    1  0.3184438E-002  0.1249991E+03  0.7818608E-02  0.1235071E+00
         -4   -1    0    0    0  501 -0.00000000000E+00  0.00000000000E+00  0.77672686378E+02  0.77683068356E+02  0.12700000000E+01 0.  1.
          4   -1    0    0  501    0  0.00000000000E+00 -0.00000000000E+00 -0.50268676324E+02  0.50284716558E+02  0.12700000000E+01 0.  1.
         25    2    1    2    0    0  0.00000000000E+00  0.00000000000E+00  0.27404010054E+02  0.12796778491E+03  0.12499909683E+03 0.  0.
    9000005    1    3    3    0    0 -0.13124356659E+02 -0.58908941074E+01 -0.48555462581E+02  0.50651597384E+02  0.10000000000E+01 0.  0.
    9000005    1    3    3    0    0  0.13124356659E+02  0.58908941074E+01  0.75959472635E+02  0.77316187530E+02  0.10000000000E+01 0.  0.
<mgrwt>
<rscale>  0 0.12499910E+03</rscale>
<asrwt>0</asrwt>
<pdfrwt beam="2">  1        4 0.77356750E-02 0.12499910E+03</pdfrwt>
<pdfrwt beam="1">  1       -4 0.11951677E-01 0.12499910E+03</pdfrwt>
<totfact> 0.10388395E+04</totfact>
</mgrwt>
</event>
<event>
 5    1  0.3184438E-002  0.1250011E+03  0.7818608E-02  0.1235068E+00
         -4   -1    0    0    0  501 -0.00000000000E+00  0.00000000000E+00  0.79988222419E+02  0.79998303893E+02  0.12700000000E+01 0. -1.
          4   -1    0    0  501    0  0.00000000000E+00 -0.00000000000E+00 -0.48814740112E+02  0.48831257942E+02  0.12700000000E+01 0. -1.
         25    2    1    2    0    0  0.00000000000E+00  0.00000000000E+00  0.31173482308E+02  0.12882956184E+03  0.12500108001E+03 0.  0.
    9000005    1    3    3    0    0 -0.26261372115E+02  0.48180478563E+02 -0.15234009707E+02  0.56956941909E+02  0.10000000000E+01 0.  0.
    9000005    1    3    3    0    0  0.26261372115E+02 -0.48180478563E+02  0.46407492015E+02  0.71872619926E+02  0.10000000000E+01 0.  0.
<mgrwt>
<rscale>  0 0.12500108E+03</rscale>
<asrwt>0</asrwt>
<pdfrwt beam="2">  1        4 0.75120062E-02 0.12500108E+03</pdfrwt>
<pdfrwt beam="1">  1       -4 0.12307926E-01 0.12500108E+03</pdfrwt>
<totfact> 0.10369358E+04</totfact>
</mgrwt>
</event>
<event>
 5    1  0.3184438E-002  0.1249628E+03  0.7818608E-02  0.1235127E+00
          4   -1    0    0  501    0  0.00000000000E+00  0.00000000000E+00  0.11366284896E+03  0.11366994385E+03  0.12700000000E+01 0.  1.
         -4   -1    0    0    0  501 -0.00000000000E+00 -0.00000000000E+00 -0.34326614334E+02  0.34350099732E+02  0.12700000000E+01 0.  1.
         25    2    1    2    0    0  0.00000000000E+00  0.00000000000E+00  0.79336234626E+02  0.14802004358E+03  0.12496277516E+03 0.  0.
    9000005    1    3    3    0    0  0.34497748147E+02 -0.38571762301E+02 -0.17906586571E+01  0.51788820537E+02  0.10000000000E+01 0.  0.
    9000005    1    3    3    0    0 -0.34497748147E+02  0.38571762301E+02  0.81126893283E+02  0.96231223041E+02  0.10000000000E+01 0.  0.
<mgrwt>
<rscale>  0 0.12496278E+03</rscale>
<asrwt>0</asrwt>
<pdfrwt beam="1">  1        4 0.17488944E-01 0.12496278E+03</pdfrwt>
<pdfrwt beam="2">  1       -4 0.52833699E-02 0.12496278E+03</pdfrwt>
<totfact> 0.99783436E+03</totfact>
</mgrwt>
</event>
<event>
 5    1  0.3184438E-002  0.1249893E+03  0.7818608E-02  0.1235086E+00
          4   -1    0    0  501    0  0.00000000000E+00  0.00000000000E+00  0.86279136687E+03  0.86279230156E+03  0.12700000000E+01 0.  1.
         -4   -1    0    0    0  501 -0.00000000000E+00 -0.00000000000E+00 -0.44366452800E+01  0.46148370871E+01  0.12700000000E+01 0.  1.
         25    2    1    2    0    0  0.00000000000E+00  0.00000000000E+00  0.85835472159E+03  0.86740713865E+03  0.12498926400E+03 0.  0.
    9000005    1    3    3    0    0  0.27026423637E+02  0.44945015111E+02  0.19341663998E+03  0.20040328984E+03  0.10000000000E+01 0.  0.
    9000005    1    3    3    0    0 -0.27026423637E+02 -0.44945015111E+02  0.66493808161E+03  0.66700384881E+03  0.10000000000E+01 0.  0.
<mgrwt>
<rscale>  0 0.12498926E+03</rscale>
<asrwt>0</asrwt>
<pdfrwt beam="1">  1        4 0.13275094E+00 0.12498926E+03</pdfrwt>
<pdfrwt beam="2">  1       -4 0.69633962E-03 0.12498926E+03</pdfrwt>
<totfact> 0.35433703E+03</totfact>
</mgrwt>
</event>
<event>
 5    1  0.3184438E-002  0.1250001E+03  0.7818608E-02  0.1235069E+00
          4   -1    0    0  501    0  0.00000000000E+00  0.00000000000E+00  0.10852786508E+03  0.10853529564E+03  0.12700000000E+01 0. -1.
         -4   -1    0    0    0  501 -0.00000000000E+00 -0.00000000000E+00 -0.35973273626E+02  0.35995684677E+02  0.12700000000E+01 0. -1.
         25    2    1    2    0    0  0.00000000000E+00  0.00000000000E+00  0.72554591458E+02  0.14453098032E+03  0.12500014212E+03 0.  0.
    9000005    1    3    3    0    0 -0.56487053404E+02  0.25577172662E+02  0.45254410363E+02  0.76772004148E+02  0.10000000000E+01 0.  0.
    9000005    1    3    3    0    0  0.56487053404E+02 -0.25577172662E+02  0.27300181095E+02  0.67758976169E+02  0.10000000000E+01 0.  0.
<mgrwt>
<rscale>  0 0.12500014E+03</rscale>
<asrwt>0</asrwt>
<pdfrwt beam="1">  1        4 0.16698890E-01 0.12500014E+03</pdfrwt>
<pdfrwt beam="2">  1       -4 0.55366453E-02 0.12500014E+03</pdfrwt>
<totfact> 0.10040494E+04</totfact>
</mgrwt>
</event>
<event>
 5    1  0.3184438E-002  0.1250076E+03  0.7818608E-02  0.1235057E+00
          4   -1    0    0  501    0  0.00000000000E+00  0.00000000000E+00  0.10242652671E+03  0.10243439986E+03  0.12700000000E+01 0.  1.
         -4   -1    0    0    0  501 -0.00000000000E+00 -0.00000000000E+00 -0.38121846026E+02  0.38142994697E+02  0.12700000000E+01 0.  1.
         25    2    1    2    0    0  0.00000000000E+00  0.00000000000E+00  0.64304680684E+02  0.14057739455E+03  0.12500764737E+03 0.  0.
    9000005    1    3    3    0    0  0.10171482775E+02  0.47858131329E+02  0.75877949771E+02  0.90290215736E+02  0.10000000000E+01 0.  0.
    9000005    1    3    3    0    0 -0.10171482775E+02 -0.47858131329E+02 -0.11573269087E+02  0.50287178818E+02  0.10000000000E+01 0.  0.
<mgrwt>
<rscale>  0 0.12500765E+03</rscale>
<asrwt>0</asrwt>
<pdfrwt beam="1">  1        4 0.15760159E-01 0.12500765E+03</pdfrwt>
<pdfrwt beam="2">  1       -4 0.58671319E-02 0.12500765E+03</pdfrwt>
<totfact> 0.10119889E+04</totfact>
</mgrwt>
</event>
<event>
 5    1  0.3184438E-002  0.1249927E+03  0.7818608E-02  0.1235081E+00
          4   -1    0    0  501    0  0.00000000000E+00  0.00000000000E+00  0.87107151662E+02  0.87116409308E+02  0.12700000000E+01 0.  1.
         -4   -1    0    0    0  501 -0.00000000000E+00 -0.00000000000E+00 -0.44818321985E+02  0.44836312132E+02  0.12700000000E+01 0.  1.
         25    2    1    2    0    0  0.00000000000E+00  0.00000000000E+00  0.42288829677E+02  0.13195272144E+03  0.12499270211E+03 0.  0.
    9000005    1    3    3    0    0  0.12620748115E+01 -0.28859010353E+02 -0.37351864618E+02  0.47229197556E+02  0.10000000000E+01 0.  0.
    9000005    1    3    3    0    0 -0.12620748115E+01  0.28859010353E+02  0.79640694295E+02  0.84723523883E+02  0.10000000000E+01 0.  0.
<mgrwt>
<rscale>  0 0.12499270E+03</rscale>
<asrwt>0</asrwt>
<pdfrwt beam="1">  1        4 0.13403196E-01 0.12499270E+03</pdfrwt>
<pdfrwt beam="2">  1       -4 0.68972225E-02 0.12499270E+03</pdfrwt>
<totfact> 0.10304404E+04</totfact>
</mgrwt>
</event>
<event>
 5    1  0.3184438E-002  0.1250081E+03  0.7818608E-02  0.1235057E+00
          4   -1    0    0  501    0  0.00000000000E+00  0.00000000000E+00  0.80685056732E+02  0.80695051148E+02  0.12700000000E+01 0.  1.
         -4   -1    0    0    0  501 -0.00000000000E+00 -0.00000000000E+00 -0.48398488772E+02  0.48415148615E+02  0.12700000000E+01 0.  1.
         25    2    1    2    0    0  0.00000000000E+00  0.00000000000E+00  0.32286567960E+02  0.12911019976E+03  0.12500808459E+03 0.  0.
    9000005    1    3    3    0    0 -0.46588201778E+02  0.33699802031E+02  0.41433923979E+02  0.70879526368E+02  0.10000000000E+01 0.  0.
    9000005    1    3    3    0    0  0.46588201778E+02 -0.33699802031E+02 -0.91473560190E+01  0.58230673395E+02  0.10000000000E+01 0.  0.
<mgrwt>
<rscale>  0 0.12500808E+03</rscale>
<asrwt>0</asrwt>
<pdfrwt beam="1">  1        4 0.12415136E-01 0.12500808E+03</pdfrwt>
<pdfrwt beam="2">  1       -4 0.74479717E-02 0.12500808E+03</pdfrwt>
<totfact> 0.10361688E+04</totfact>
</mgrwt>
</event>
<event>
 5    1  0.3184438E-002  0.1250014E+03  0.7818608E-02  0.1235067E+00
         -4   -1    0    0    0  501 -0.00000000000E+00  0.00000000000E+00  0.29600222320E+03  0.29600494766E+03  0.12700000000E+01 0. -1.
          4   -1    0    0  501    0  0.00000000000E+00 -0.00000000000E+00 -0.13163637157E+02  0.13224758720E+02  0.12700000000E+01 0. -1.
         25    2    1    2    0    0  0.00000000000E+00  0.00000000000E+00  0.28283858605E+03  0.30922970638E+03  0.12500138220E+03 0.  0.
    9000005    1    3    3    0    0 -0.88058788724E+00  0.15382482110E+02 -0.84033713034E+01  0.17578761053E+02  0.10000000000E+01 0.  0.
    9000005    1    3    3    0    0  0.88058788724E+00 -0.15382482110E+02  0.29124195735E+03  0.29165094533E+03  0.10000000000E+01 0.  0.
<mgrwt>
<rscale>  0 0.12500138E+03</rscale>
<asrwt>0</asrwt>
<pdfrwt beam="2">  1        4 0.20300861E-02 0.12500138E+03</pdfrwt>
<pdfrwt beam="1">  1       -4 0.45543716E-01 0.12500138E+03</pdfrwt>
<totfact> 0.74453192E+03</totfact>
</mgrwt>
</event>
<event>
 5    1  0.3184438E-002  0.1250001E+03  0.7818608E-02  0.1235069E+00
         -4   -1    0    0    0  501 -0.00000000000E+00  0.00000000000E+00  0.11879491967E+03  0.11880170807E+03  0.12700000000E+01 0.  1.
          4   -1    0    0  501    0  0.00000000000E+00 -0.00000000000E+00 -0.32862354511E+02  0.32886885593E+02  0.12700000000E+01 0.  1.
         25    2    1    2    0    0  0.00000000000E+00  0.00000000000E+00  0.85932565163E+02  0.15168859366E+03  0.12500009477E+03 0.  0.
    9000005    1    3    3    0    0 -0.60994283045E+02 -0.46554795218E+01  0.58472608382E+02  0.84628730256E+02  0.10000000000E+01 0.  0.
    9000005    1    3    3    0    0  0.60994283045E+02  0.46554795218E+01  0.27459956781E+02  0.67059863407E+02  0.10000000000E+01 0.  0.
<mgrwt>
<rscale>  0 0.12500009E+03</rscale>
<asrwt>0</asrwt>
<pdfrwt beam="2">  1        4 0.50581562E-02 0.12500009E+03</pdfrwt>
<pdfrwt beam="1">  1       -4 0.18278550E-01 0.12500009E+03</pdfrwt>
<totfact> 0.98967951E+03</totfact>
</mgrwt>
</event>
<event>
 5    1  0.3184438E-002  0.1249982E+03  0.7818608E-02  0.1235072E+00
          4   -1    0    0  501    0  0.00000000000E+00  0.00000000000E+00  0.16878913234E+03  0.16879391013E+03  0.12700000000E+01 0.  1.
         -4   -1    0    0    0  501 -0.00000000000E+00 -0.00000000000E+00 -0.23119588688E+02  0.23154444089E+02  0.12700000000E+01 0.  1.
         25    2    1    2    0    0  0.00000000000E+00  0.00000000000E+00  0.14566954365E+03  0.19194835422E+03  0.12499821894E+03 0.  0.
    9000005    1    3    3    0    0  0.36763927612E+02 -0.27079823727E+02  0.73192276076E+01  0.46254451887E+02  0.10000000000E+01 0.  0.
    9000005    1    3    3    0    0 -0.36763927612E+02  0.27079823727E+02  0.13835031605E+03  0.14569390233E+03  0.10000000000E+01 0.  0.
<mgrwt>
<rscale>  0 0.12499822E+03</rscale>
<asrwt>0</asrwt>
<pdfrwt beam="1">  1        4 0.25970608E-01 0.12499822E+03</pdfrwt>
<pdfrwt beam="2">  1       -4 0.35599084E-02 0.12499822E+03</pdfrwt>
<totfact> 0.91513057E+03</totfact>
</mgrwt>
</event>
<event>
 5    1  0.3184438E-002  0.1249920E+03  0.7818608E-02  0.1235082E+00
         -4   -1    0    0    0  501 -0.00000000000E+00  0.00000000000E+00  0.40271053816E+03  0.40271254071E+03  0.12700000000E+01 0.  1.
          4   -1    0    0  501    0  0.00000000000E+00 -0.00000000000E+00 -0.96550445435E+01  0.97382126254E+01  0.12700000000E+01 0.  1.
         25    2    1    2    0    0  0.00000000000E+00  0.00000000000E+00  0.39305549361E+03  0.41245075333E+03  0.12499201120E+03 0.  0.
    9000005    1    3    3    0    0 -0.42928956307E+02 -0.91324862598E-01  0.34636440267E+03  0.34901604987E+03  0.10000000000E+01 0.  0.
    9000005    1    3    3    0    0  0.42928956307E+02  0.91324862598E-01  0.46691090943E+02  0.63434703462E+02  0.10000000000E+01 0.  0.
<mgrwt>
<rscale>  0 0.12499201E+03</rscale>
<asrwt>0</asrwt>
<pdfrwt beam="2">  1        4 0.14919434E-02 0.12499201E+03</pdfrwt>
<pdfrwt beam="1">  1       -4 0.61962006E-01 0.12499201E+03</pdfrwt>
<totfact> 0.63370769E+03</totfact>
</mgrwt>
</event>
<event>
 5    1  0.3184438E-002  0.1249979E+03  0.7818608E-02  0.1235073E+00
          4   -1    0    0  501    0  0.00000000000E+00  0.00000000000E+00  0.18652109905E+03  0.18652542264E+03  0.12700000000E+01 0.  1.
         -4   -1    0    0    0  501 -0.00000000000E+00 -0.00000000000E+00 -0.20918143175E+02  0.20956660370E+02  0.12700000000E+01 0.  1.
         25    2    1    2    0    0  0.00000000000E+00  0.00000000000E+00  0.16560295588E+03  0.20748208301E+03  0.12499790309E+03 0.  0.
    9000005    1    3    3    0    0  0.14122033862E+02 -0.15584806995E+02 -0.14875369118E+02  0.25779733433E+02  0.10000000000E+01 0.  0.
    9000005    1    3    3    0    0 -0.14122033862E+02  0.15584806995E+02  0.18047832500E+03  0.18170234958E+03  0.10000000000E+01 0.  0.
<mgrwt>
<rscale>  0 0.12499790E+03</rscale>
<asrwt>0</asrwt>
<pdfrwt beam="1">  1        4 0.28698850E-01 0.12499790E+03</pdfrwt>
<pdfrwt beam="2">  1       -4 0.32214712E-02 0.12499790E+03</pdfrwt>
<totfact> 0.88892915E+03</totfact>
</mgrwt>
</event>
<event>
 5    1  0.3184438E-002  0.1250158E+03  0.7818608E-02  0.1235045E+00
          4   -1    0    0  501    0  0.00000000000E+00  0.00000000000E+00  0.33504665371E+03  0.33504906068E+03  0.12700000000E+01 0.  1.
         -4   -1    0    0    0  501 -0.00000000000E+00 -0.00000000000E+00 -0.11624745018E+02  0.11693912807E+02  0.12700000000E+01 0.  1.
         25    2    1    2    0    0  0.00000000000E+00  0.00000000000E+00  0.32342190869E+03  0.34674297349E+03  0.12501583356E+03 0.  0.
    9000005    1    3    3    0    0 -0.38251474067E+02  0.22980955754E+02  0.28308343855E+03  0.28658076135E+03  0.10000000000E+01 0.  0.
    9000005    1    3    3    0    0  0.38251474067E+02 -0.22980955754E+02  0.40338470145E+02  0.60162212137E+02  0.10000000000E+01 0.  0.
<mgrwt>
<rscale>  0 0.12501583E+03</rscale>
<asrwt>0</asrwt>
<pdfrwt beam="1">  1        4 0.51551150E-01 0.12501583E+03</pdfrwt>
<pdfrwt beam="2">  1       -4 0.17939279E-02 0.12501583E+03</pdfrwt>
<totfact> 0.70059799E+03</totfact>
</mgrwt>
</event>
<event>
 5    1  0.3184438E-002  0.1249968E+03  0.7818608E-02  0.1235074E+00
         -4   -1    0    0    0  501 -0.00000000000E+00  0.00000000000E+00  0.12123813809E+03  0.12124478969E+03  0.12700000000E+01 0.  1.
          4   -1    0    0  501    0  0.00000000000E+00 -0.00000000000E+00 -0.32197934111E+02  0.32222971015E+02  0.12700000000E+01 0.  1.
         25    2    1    2    0    0  0.00000000000E+00  0.00000000000E+00  0.89040203976E+02  0.15346776070E+03  0.12499678256E+03 0.  0.
    9000005    1    3    3    0    0  0.64387817660E+01  0.11913218821E+01  0.12082178432E+03  0.12100322609E+03  0.10000000000E+01 0.  0.
    9000005    1    3    3    0    0 -0.64387817660E+01 -0.11913218821E+01 -0.31781580343E+02  0.32464534612E+02  0.10000000000E+01 0.  0.
<mgrwt>
<rscale>  0 0.12499678E+03</rscale>
<asrwt>0</asrwt>
<pdfrwt beam="2">  1        4 0.49559657E-02 0.12499678E+03</pdfrwt>
<pdfrwt beam="1">  1       -4 0.18654459E-01 0.12499678E+03</pdfrwt>
<totfact> 0.98624027E+03</totfact>
</mgrwt>
</event>
<event>
 5    1  0.3184438E-002  0.1249981E+03  0.7818608E-02  0.1235072E+00
          4   -1    0    0  501    0  0.00000000000E+00  0.00000000000E+00  0.56110743177E+02  0.56125113807E+02  0.12700000000E+01 0.  1.
         -4   -1    0    0    0  501 -0.00000000000E+00 -0.00000000000E+00 -0.69585578266E+02  0.69597166628E+02  0.12700000000E+01 0.  1.
         25    2    1    2    0    0  0.00000000000E+00  0.00000000000E+00 -0.13474835090E+02  0.12572228044E+03  0.12499808245E+03 0.  0.
    9000005    1    3    3    0    0  0.31321543466E+01  0.51955129280E+02  0.28045951087E+02  0.59133080604E+02  0.10000000000E+01 0.  0.
    9000005    1    3    3    0    0 -0.31321543466E+01 -0.51955129280E+02 -0.41520786176E+02  0.66589199831E+02  0.10000000000E+01 0.  0.
<mgrwt>
<rscale>  0 0.12499808E+03</rscale>
<asrwt>0</asrwt>
<pdfrwt beam="1">  1        4 0.86344188E-02 0.12499808E+03</pdfrwt>
<pdfrwt beam="2">  1       -4 0.10707470E-01 0.12499808E+03</pdfrwt>
<totfact> 0.10437506E+04</totfact>
</mgrwt>
</event>
<event>
 5    1  0.3184438E-002  0.1250027E+03  0.7818608E-02  0.1235065E+00
          4   -1    0    0  501    0  0.00000000000E+00  0.00000000000E+00  0.17275953420E+02  0.17322571015E+02  0.12700000000E+01 0.  1.
         -4   -1    0    0    0  501 -0.00000000000E+00 -0.00000000000E+00 -0.22576565911E+03  0.22576923115E+03  0.12700000000E+01 0.  1.
         25    2    1    2    0    0  0.00000000000E+00  0.00000000000E+00 -0.20848970569E+03  0.24309180216E+03  0.12500266757E+03 0.  0.
    9000005    1    3    3    0    0 -0.16768148128E+02  0.42108503783E+02 -0.20575135788E+02  0.49785872445E+02  0.10000000000E+01 0.  0.
    9000005    1    3    3    0    0  0.16768148128E+02 -0.42108503783E+02 -0.18791456990E+03  0.19330592972E+03  0.10000000000E+01 0.  0.
<mgrwt>
<rscale>  0 0.12500267E+03</rscale>
<asrwt>0</asrwt>
<pdfrwt beam="1">  1        4 0.26616999E-02 0.12500267E+03</pdfrwt>
<pdfrwt beam="2">  1       -4 0.34737037E-01 0.12500267E+03</pdfrwt>
<totfact> 0.83334089E+03</totfact>
</mgrwt>
</event>
<event>
 5    1  0.3184438E-002  0.1250000E+03  0.7818608E-02  0.1235069E+00
         -4   -1    0    0    0  501 -0.00000000000E+00  0.00000000000E+00  0.13655792986E+03  0.13656383529E+03  0.12700000000E+01 0. -1.
          4   -1    0    0  501    0  0.00000000000E+00 -0.00000000000E+00 -0.28584470097E+02  0.28612669060E+02  0.12700000000E+01 0. -1.
         25    2    1    2    0    0  0.00000000000E+00  0.00000000000E+00  0.10797345976E+03  0.16517650434E+03  0.12500003830E+03 0.  0.
    9000005    1    3    3    0    0 -0.61350346302E+02  0.82137622107E+01  0.65347912663E+02  0.90014890826E+02  0.10000000000E+01 0.  0.
    9000005    1    3    3    0    0  0.61350346302E+02 -0.82137622107E+01  0.42625547101E+02  0.75161613518E+02  0.10000000000E+01 0.  0.
<mgrwt>
<rscale>  0 0.12500004E+03</rscale>
<asrwt>0</asrwt>
<pdfrwt beam="2">  1        4 0.44002342E-02 0.12500004E+03</pdfrwt>
<pdfrwt beam="1">  1       -4 0.21011536E-01 0.12500004E+03</pdfrwt>
<totfact> 0.96353892E+03</totfact>
</mgrwt>
</event>
<event>
 5    1  0.3184438E-002  0.1250006E+03  0.7818608E-02  0.1235068E+00
          4   -1    0    0  501    0  0.00000000000E+00  0.00000000000E+00  0.41872045932E+01  0.43755665125E+01  0.12700000000E+01 0. -1.
         -4   -1    0    0    0  501 -0.00000000000E+00 -0.00000000000E+00 -0.91219913055E+03  0.91220001462E+03  0.12700000000E+01 0. -1.
         25    2    1    2    0    0  0.00000000000E+00  0.00000000000E+00 -0.90801192595E+03  0.91657558113E+03  0.12500055301E+03 0.  0.
    9000005    1    3    3    0    0  0.46008666837E+01  0.60517040053E+02 -0.34480122581E+03  0.35010336392E+03  0.10000000000E+01 0.  0.
    9000005    1    3    3    0    0 -0.46008666837E+01 -0.60517040053E+02 -0.56321070015E+03  0.56647221721E+03  0.10000000000E+01 0.  0.
<mgrwt>
<rscale>  0 0.12500055E+03</rscale>
<asrwt>0</asrwt>
<pdfrwt beam="1">  1        4 0.65874343E-03 0.12500055E+03</pdfrwt>
<pdfrwt beam="2">  1       -4 0.14035273E+00 0.12500055E+03</pdfrwt>
<totfact> 0.33532759E+03</totfact>
</mgrwt>
</event>
<event>
 5    1  0.3184438E-002  0.1249952E+03  0.7818608E-02  0.1235077E+00
          4   -1    0    0  501    0  0.00000000000E+00  0.00000000000E+00  0.49002116472E+03  0.49002281046E+03  0.12700000000E+01 0.  1.
         -4   -1    0    0    0  501 -0.00000000000E+00 -0.00000000000E+00 -0.79187235967E+01  0.80199179173E+01  0.12700000000E+01 0.  1.
         25    2    1    2    0    0  0.00000000000E+00  0.00000000000E+00  0.48210244112E+03  0.49804272838E+03  0.12499518213E+03 0.  0.
    9000005    1    3    3    0    0 -0.47543908059E+02 -0.13540794083E+02  0.39335970211E+03  0.39645508137E+03  0.10000000000E+01 0.  0.
    9000005    1    3    3    0    0  0.47543908059E+02  0.13540794083E+02  0.88742739012E+02  0.10158764701E+03  0.10000000000E+01 0.  0.
<mgrwt>
<rscale>  0 0.12499518E+03</rscale>
<asrwt>0</asrwt>
<pdfrwt beam="1">  1        4 0.75395796E-01 0.12499518E+03</pdfrwt>
<pdfrwt beam="2">  1       -4 0.12261757E-02 0.12499518E+03</pdfrwt>
<totfact> 0.56022474E+03</totfact>
</mgrwt>
</event>
<event>
 5    1  0.3184438E-002  0.1250007E+03  0.7818608E-02  0.1235068E+00
         -4   -1    0    0    0  501 -0.00000000000E+00  0.00000000000E+00  0.25331421548E+04  0.25331424731E+04  0.12700000000E+01 0.  1.
          4   -1    0    0  501    0  0.00000000000E+00 -0.00000000000E+00 -0.12802204672E+01  0.18032926675E+01  0.12700000000E+01 0.  1.
         25    2    1    2    0    0  0.00000000000E+00  0.00000000000E+00  0.25318619343E+04  0.25349457658E+04  0.12500072464E+03 0.  0.
    9000005    1    3    3    0    0  0.48285532783E+01 -0.30886297673E+02  0.16858660433E+03  0.17146346978E+03  0.10000000000E+01 0.  0.
    9000005    1    3    3    0    0 -0.48285532783E+01  0.30886297673E+02  0.23632753300E+04  0.23634822960E+04  0.10000000000E+01 0.  0.
<mgrwt>
<rscale>  0 0.12500072E+03</rscale>
<asrwt>0</asrwt>
<pdfrwt beam="2">  1        4 0.23721885E-03 0.12500072E+03</pdfrwt>
<pdfrwt beam="1">  1       -4 0.38975273E+00 0.12500072E+03</pdfrwt>
<totfact> 0.44005850E+02</totfact>
</mgrwt>
</event>
<event>
 5    1  0.3184438E-002  0.1249955E+03  0.7818608E-02  0.1235076E+00
         -4   -1    0    0    0  501 -0.00000000000E+00  0.00000000000E+00  0.40612496723E+02  0.40632349059E+02  0.12700000000E+01 0.  1.
          4   -1    0    0  501    0  0.00000000000E+00 -0.00000000000E+00 -0.96128945929E+02  0.96137334816E+02  0.12700000000E+01 0.  1.
         25    2    1    2    0    0  0.00000000000E+00  0.00000000000E+00 -0.55516449207E+02  0.13676968387E+03  0.12499548110E+03 0.  0.
    9000005    1    3    3    0    0 -0.11075634886E+02 -0.40521194524E+02 -0.78379836404E+02  0.88932759141E+02  0.10000000000E+01 0.  0.
    9000005    1    3    3    0    0  0.11075634886E+02  0.40521194524E+02  0.22863387197E+02  0.47836924733E+02  0.10000000000E+01 0.  0.
<mgrwt>
<rscale>  0 0.12499548E+03</rscale>
<asrwt>0</asrwt>
<pdfrwt beam="2">  1        4 0.14791241E-01 0.12499548E+03</pdfrwt>
<pdfrwt beam="1">  1       -4 0.62502488E-02 0.12499548E+03</pdfrwt>
<totfact> 0.10201943E+04</totfact>
</mgrwt>
</event>
<event>
 5    1  0.3184438E-002  0.1249917E+03  0.7818608E-02  0.1235082E+00
         -4   -1    0    0    0  501 -0.00000000000E+00  0.00000000000E+00  0.70000643883E+02  0.70012163544E+02  0.12700000000E+01 0.  1.
          4   -1    0    0  501    0  0.00000000000E+00 -0.00000000000E+00 -0.55772305702E+02  0.55786763513E+02  0.12700000000E+01 0.  1.
         25    2    1    2    0    0  0.00000000000E+00  0.00000000000E+00  0.14228338182E+02  0.12579892706E+03  0.12499169749E+03 0.  0.
    9000005    1    3    3    0    0  0.43429600070E+02 -0.24155428378E+01 -0.38039435499E+02  0.57792418729E+02  0.10000000000E+01 0.  0.
    9000005    1    3    3    0    0 -0.43429600070E+02  0.24155428378E+01  0.52267773681E+02  0.68006508328E+02  0.10000000000E+01 0.  0.
<mgrwt>
<rscale>  0 0.12499170E+03</rscale>
<asrwt>0</asrwt>
<pdfrwt beam="2">  1        4 0.85823530E-02 0.12499170E+03</pdfrwt>
<pdfrwt beam="1">  1       -4 0.10771328E-01 0.12499170E+03</pdfrwt>
<totfact> 0.10437324E+04</totfact>
</mgrwt>
</event>
<event>
 5    1  0.3184438E-002  0.1250008E+03  0.7818608E-02  0.1235068E+00
          4   -1    0    0  501    0  0.00000000000E+00  0.00000000000E+00  0.47852363242E+02  0.47869213152E+02  0.12700000000E+01 0.  1.
         -4   -1    0    0    0  501 -0.00000000000E+00 -0.00000000000E+00 -0.81596150507E+02  0.81606033341E+02  0.12700000000E+01 0.  1.
         25    2    1    2    0    0  0.00000000000E+00  0.00000000000E+00 -0.33743787266E+02  0.12947524649E+03  0.12500078510E+03 0.  0.
    9000005    1    3    3    0    0  0.45557033133E+02  0.39150445626E+02  0.98163927108E+00  0.60084642599E+02  0.10000000000E+01 0.  0.
    9000005    1    3    3    0    0 -0.45557033133E+02 -0.39150445626E+02 -0.34725426537E+02  0.69390603894E+02  0.10000000000E+01 0.  0.
<mgrwt>
<rscale>  0 0.12500079E+03</rscale>
<asrwt>0</asrwt>
<pdfrwt beam="1">  1        4 0.73639584E-02 0.12500079E+03</pdfrwt>
<pdfrwt beam="2">  1       -4 0.12555310E-01 0.12500079E+03</pdfrwt>
<totfact> 0.10355562E+04</totfact>
</mgrwt>
</event>
<event>
 5    1  0.3184438E-002  0.1249992E+03  0.7818608E-02  0.1235071E+00
          4   -1    0    0  501    0  0.00000000000E+00  0.00000000000E+00  0.12343272878E+03  0.12343926212E+03  0.12700000000E+01 0.  1.
         -4   -1    0    0    0  501 -0.00000000000E+00 -0.00000000000E+00 -0.31626280580E+02  0.31651769672E+02  0.12700000000E+01 0.  1.
         25    2    1    2    0    0  0.00000000000E+00  0.00000000000E+00  0.91806448199E+02  0.15509103180E+03  0.12499921685E+03 0.  0.
    9000005    1    3    3    0    0 -0.27656211558E+02 -0.49204401771E+02  0.12627852841E+02  0.57848092957E+02  0.10000000000E+01 0.  0.
    9000005    1    3    3    0    0  0.27656211558E+02  0.49204401771E+02  0.79178595357E+02  0.97242938839E+02  0.10000000000E+01 0.  0.
<mgrwt>
<rscale>  0 0.12499922E+03</rscale>
<asrwt>0</asrwt>
<pdfrwt beam="1">  1        4 0.18992114E-01 0.12499922E+03</pdfrwt>
<pdfrwt beam="2">  1       -4 0.48680449E-02 0.12499922E+03</pdfrwt>
<totfact> 0.98299362E+03</totfact>
</mgrwt>
</event>
<event>
 5    1  0.3184438E-002  0.1250041E+03  0.7818608E-02  0.1235063E+00
         -4   -1    0    0    0  501 -0.00000000000E+00  0.00000000000E+00  0.76567145323E+02  0.76577677184E+02  0.12700000000E+01 0.  1.
          4   -1    0    0  501    0  0.00000000000E+00 -0.00000000000E+00 -0.50998724549E+02  0.51014535239E+02  0.12700000000E+01 0.  1.
         25    2    1    2    0    0  0.00000000000E+00  0.00000000000E+00  0.25568420773E+02  0.12759221242E+03  0.12500411405E+03 0.  0.
    9000005    1    3    3    0    0 -0.23647589524E+02  0.55168032439E+02 -0.49768282371E+01  0.60236941429E+02  0.10000000000E+01 0.  0.
    9000005    1    3    3    0    0  0.23647589524E+02 -0.55168032439E+02  0.30545249010E+02  0.67355270993E+02  0.10000000000E+01 0.  0.
<mgrwt>
<rscale>  0 0.12500411E+03</rscale>
<asrwt>0</asrwt>
<pdfrwt beam="2">  1        4 0.78479840E-02 0.12500411E+03</pdfrwt>
<pdfrwt beam="1">  1       -4 0.11781587E-01 0.12500411E+03</pdfrwt>
<totfact> 0.10395339E+04</totfact>
</mgrwt>
</event>
<event>
 5    1  0.3184438E-002  0.1250015E+03  0.7818608E-02  0.1235067E+00
          4   -1    0    0  501    0  0.00000000000E+00  0.00000000000E+00  0.92598490794E+02  0.92607199490E+02  0.12700000000E+01 0.  1.
         -4   -1    0    0    0  501 -0.00000000000E+00 -0.00000000000E+00 -0.42165583997E+02  0.42184705448E+02  0.12700000000E+01 0.  1.
         25    2    1    2    0    0  0.00000000000E+00  0.00000000000E+00  0.50432906798E+02  0.13479190494E+03  0.12500151819E+03 0.  0.
    9000005    1    3    3    0    0  0.55880705662E+02 -0.27284422287E+02  0.31885675122E+02  0.69891267286E+02  0.10000000000E+01 0.  0.
    9000005    1    3    3    0    0 -0.55880705662E+02  0.27284422287E+02  0.18547231675E+02  0.64900637652E+02  0.10000000000E+01 0.  0.
<mgrwt>
<rscale>  0 0.12500152E+03</rscale>
<asrwt>0</asrwt>
<pdfrwt beam="1">  1        4 0.14248062E-01 0.12500152E+03</pdfrwt>
<pdfrwt beam="2">  1       -4 0.64891537E-02 0.12500152E+03</pdfrwt>
<totfact> 0.10242108E+04</totfact>
</mgrwt>
</event>
<event>
 5    1  0.3184438E-002  0.1249997E+03  0.7818608E-02  0.1235070E+00
         -4   -1    0    0    0  501 -0.00000000000E+00  0.00000000000E+00  0.11808795517E+03  0.11809478421E+03  0.12700000000E+01 0. -1.
          4   -1    0    0  501    0  0.00000000000E+00 -0.00000000000E+00 -0.33058996484E+02  0.33083381757E+02  0.12700000000E+01 0. -1.
         25    2    1    2    0    0  0.00000000000E+00  0.00000000000E+00  0.85028958691E+02  0.15117816597E+03  0.12499965619E+03 0.  0.
    9000005    1    3    3    0    0 -0.14115428221E+02  0.60813164973E+02  0.39149274960E+02  0.73696350505E+02  0.10000000000E+01 0.  0.
    9000005    1    3    3    0    0  0.14115428221E+02 -0.60813164973E+02  0.45879683731E+02  0.77481815461E+02  0.10000000000E+01 0.  0.
<mgrwt>
<rscale>  0 0.12499966E+03</rscale>
<asrwt>0</asrwt>
<pdfrwt beam="2">  1        4 0.50884006E-02 0.12499966E+03</pdfrwt>
<pdfrwt beam="1">  1       -4 0.18169779E-01 0.12499966E+03</pdfrwt>
<totfact> 0.99070132E+03</totfact>
</mgrwt>
</event>
<event>
 5    1  0.3184438E-002  0.1250027E+03  0.7818608E-02  0.1235065E+00
          4   -1    0    0  501    0  0.00000000000E+00  0.00000000000E+00  0.13307276561E+03  0.13307882569E+03  0.12700000000E+01 0. -1.
         -4   -1    0    0    0  501 -0.00000000000E+00 -0.00000000000E+00 -0.29335032872E+02  0.29362511024E+02  0.12700000000E+01 0. -1.
         25    2    1    2    0    0  0.00000000000E+00  0.00000000000E+00  0.10373773274E+03  0.16244133672E+03  0.12500268269E+03 0.  0.
    9000005    1    3    3    0    0 -0.23638988801E+02 -0.57710581538E+02  0.57083850138E+02  0.84551043515E+02  0.10000000000E+01 0.  0.
    9000005    1    3    3    0    0  0.23638988801E+02  0.57710581538E+02  0.46653882603E+02  0.77890293201E+02  0.10000000000E+01 0.  0.
<mgrwt>
<rscale>  0 0.12500268E+03</rscale>
<asrwt>0</asrwt>
<pdfrwt beam="1">  1        4 0.20475313E-01 0.12500268E+03</pdfrwt>
<pdfrwt beam="2">  1       -4 0.45156619E-02 0.12500268E+03</pdfrwt>
<totfact> 0.96868329E+03</totfact>
</mgrwt>
</event>
<event>
 5    1  0.3184438E-002  0.1250022E+03  0.7818608E-02  0.1235066E+00
          4   -1    0    0  501    0  0.00000000000E+00  0.00000000000E+00  0.58938492058E+02  0.58952173379E+02  0.12700000000E+01 0.  1.
         -4   -1    0    0    0  501 -0.00000000000E+00 -0.00000000000E+00 -0.66251623246E+02  0.66263794660E+02  0.12700000000E+01 0.  1.
         25    2    1    2    0    0  0.00000000000E+00  0.00000000000E+00 -0.73131311883E+01  0.12521596804E+03  0.12500222704E+03 0.  0.
    9000005    1    3    3    0    0 -0.46459835226E+01 -0.51002728769E+02 -0.39530168857E+02  0.64703151041E+02  0.10000000000E+01 0.  0.
    9000005    1    3    3    0    0  0.46459835226E+01  0.51002728769E+02  0.32217037668E+02  0.60512816997E+02  0.10000000000E+01 0.  0.
<mgrwt>
<rscale>  0 0.12500223E+03</rscale>
<asrwt>0</asrwt>
<pdfrwt beam="1">  1        4 0.90694489E-02 0.12500223E+03</pdfrwt>
<pdfrwt beam="2">  1       -4 0.10194546E-01 0.12500223E+03</pdfrwt>
<totfact> 0.10447648E+04</totfact>
</mgrwt>
</event>
<event>
 5    1  0.3184438E-002  0.1250227E+03  0.7818608E-02  0.1235034E+00
          4   -1    0    0  501    0  0.00000000000E+00  0.00000000000E+00  0.60397741645E+02  0.60411092490E+02  0.12700000000E+01 0.  1.
         -4   -1    0    0    0  501 -0.00000000000E+00 -0.00000000000E+00 -0.64672190807E+02  0.64684659416E+02  0.12700000000E+01 0.  1.
         25    2    1    2    0    0  0.00000000000E+00  0.00000000000E+00 -0.42744491622E+01  0.12509575191E+03  0.12502270286E+03 0.  0.
    9000005    1    3    3    0    0  0.17811216167E+02  0.40619608398E+02  0.41928001293E+02  0.61042192787E+02  0.10000000000E+01 0.  0.
    9000005    1    3    3    0    0 -0.17811216167E+02 -0.40619608398E+02 -0.46202450455E+02  0.64053559119E+02  0.10000000000E+01 0.  0.
<mgrwt>
<rscale>  0 0.12502270E+03</rscale>
<asrwt>0</asrwt>
<pdfrwt beam="1">  1        4 0.92939464E-02 0.12502270E+03</pdfrwt>
<pdfrwt beam="2">  1       -4 0.99515539E-02 0.12502270E+03</pdfrwt>
<totfact> 0.10445423E+04</totfact>
</mgrwt>
</event>
<event>
 5    1  0.3184438E-002  0.1249847E+03  0.7818608E-02  0.1235093E+00
         -4   -1    0    0    0  501 -0.00000000000E+00  0.00000000000E+00  0.16361177009E+03  0.16361669906E+03  0.12700000000E+01 0.  1.
          4   -1    0    0  501    0  0.00000000000E+00 -0.00000000000E+00 -0.23847072901E+02  0.23880866525E+02  0.12700000000E+01 0.  1.
         25    2    1    2    0    0  0.00000000000E+00  0.00000000000E+00  0.13976469719E+03  0.18749756559E+03  0.12498466514E+03 0.  0.
    9000005    1    3    3    0    0 -0.28762424308E+02  0.55278917750E+02  0.76798714189E+02  0.98904389694E+02  0.10000000000E+01 0.  0.
    9000005    1    3    3    0    0  0.28762424308E+02 -0.55278917750E+02  0.62965983000E+02  0.88593175893E+02  0.10000000000E+01 0.  0.
<mgrwt>
<rscale>  0 0.12498467E+03</rscale>
<asrwt>0</asrwt>
<pdfrwt beam="2">  1        4 0.36717589E-02 0.12498467E+03</pdfrwt>
<pdfrwt beam="1">  1       -4 0.25174022E-01 0.12498467E+03</pdfrwt>
<totfact> 0.92316275E+03</totfact>
</mgrwt>
</event>
<event>
 5    1  0.3184438E-002  0.1250015E+03  0.7818608E-02  0.1235067E+00
         -4   -1    0    0    0  501 -0.00000000000E+00  0.00000000000E+00  0.55287186368E+02  0.55301771006E+02  0.12700000000E+01 0.  1.
          4   -1    0    0  501    0  0.00000000000E+00 -0.00000000000E+00 -0.70625879015E+02  0.70637296711E+02  0.12700000000E+01 0.  1.
         25    2    1    2    0    0  0.00000000000E+00  0.00000000000E+00 -0.15338692647E+02  0.12593906772E+03  0.12500149313E+03 0.  0.
    9000005    1    3    3    0    0  0.59929153580E+01 -0.51517265753E+02  0.27454722612E+02  0.58691613530E+02  0.10000000000E+01 0.  0.
    9000005    1    3    3    0    0 -0.59929153580E+01  0.51517265753E+02 -0.42793415259E+02  0.67247454187E+02  0.10000000000E+01 0.  0.
<mgrwt>
<rscale>  0 0.12500149E+03</rscale>
<asrwt>0</asrwt>
<pdfrwt beam="2">  1        4 0.10867520E-01 0.12500149E+03</pdfrwt>
<pdfrwt beam="1">  1       -4 0.85077211E-02 0.12500149E+03</pdfrwt>
<totfact> 0.10431941E+04</totfact>
</mgrwt>
</event>
<event>
 5    1  0.3184438E-002  0.1250005E+03  0.7818608E-02  0.1235068E+00
          4   -1    0    0  501    0  0.00000000000E+00  0.00000000000E+00  0.70559805268E+03  0.70559919561E+03  0.12700000000E+01 0.  1.
         -4   -1    0    0    0  501 -0.00000000000E+00 -0.00000000000E+00 -0.54621317372E+01  0.56078323008E+01  0.12700000000E+01 0.  1.
         25    2    1    2    0    0  0.00000000000E+00  0.00000000000E+00  0.70013592094E+03  0.71120702791E+03  0.12500051502E+03 0.  0.
    9000005    1    3    3    0    0 -0.35188886353E+02 -0.13610667792E+01  0.56338941242E+02  0.66446869947E+02  0.10000000000E+01 0.  0.
    9000005    1    3    3    0    0  0.35188886353E+02  0.13610667792E+01  0.64379697970E+03  0.64476015796E+03  0.10000000000E+01 0.  0.
<mgrwt>
<rscale>  0 0.12500052E+03</rscale>
<asrwt>0</asrwt>
<pdfrwt beam="1">  1        4 0.10856484E+00 0.12500052E+03</pdfrwt>
<pdfrwt beam="2">  1       -4 0.85162361E-03 0.12500052E+03</pdfrwt>
<totfact> 0.42501181E+03</totfact>
</mgrwt>
</event>
<event>
 5    1  0.3184438E-002  0.1250194E+03  0.7818608E-02  0.1235039E+00
         -4   -1    0    0    0  501 -0.00000000000E+00  0.00000000000E+00  0.38306125816E+02  0.38327172802E+02  0.12700000000E+01 0. -1.
          4   -1    0    0  501    0  0.00000000000E+00 -0.00000000000E+00 -0.10195315294E+03  0.10196106264E+03  0.12700000000E+01 0. -1.
         25    2    1    2    0    0  0.00000000000E+00  0.00000000000E+00 -0.63647027121E+02  0.14028823544E+03  0.12501937826E+03 0.  0.
    9000005    1    3    3    0    0  0.37012565858E+02 -0.25538030397E+02  0.16887097241E+02  0.48044719597E+02  0.10000000000E+01 0.  0.
    9000005    1    3    3    0    0 -0.37012565858E+02  0.25538030397E+02 -0.80534124361E+02  0.92243515840E+02  0.10000000000E+01 0.  0.
<mgrwt>
<rscale>  0 0.12501938E+03</rscale>
<asrwt>0</asrwt>
<pdfrwt beam="2">  1        4 0.15687328E-01 0.12501938E+03</pdfrwt>
<pdfrwt beam="1">  1       -4 0.58954776E-02 0.12501938E+03</pdfrwt>
<totfact> 0.10123195E+04</totfact>
</mgrwt>
</event>
<event>
 5    1  0.3184438E-002  0.1250018E+03  0.7818608E-02  0.1235066E+00
         -4   -1    0    0    0  501 -0.00000000000E+00  0.00000000000E+00  0.13207436594E+04  0.13207442700E+04  0.12700000000E+01 0.  1.
          4   -1    0    0  501    0  0.00000000000E+00 -0.00000000000E+00 -0.28207292960E+01  0.30934469062E+01  0.12700000000E+01 0.  1.
         25    2    1    2    0    0  0.00000000000E+00  0.00000000000E+00  0.13179229301E+04  0.13238377169E+04  0.12500180406E+03 0.  0.
    9000005    1    3    3    0    0 -0.53424553434E+02 -0.50406726027E+00  0.31563720854E+03  0.32012854357E+03  0.10000000000E+01 0.  0.
    9000005    1    3    3    0    0  0.53424553434E+02  0.50406726027E+00  0.10022857216E+04  0.10037091734E+04  0.10000000000E+01 0.  0.
<mgrwt>
<rscale>  0 0.12500180E+03</rscale>
<asrwt>0</asrwt>
<pdfrwt beam="2">  1        4 0.45498296E-03 0.12500180E+03</pdfrwt>
<pdfrwt beam="1">  1       -4 0.20321264E+00 0.12500180E+03</pdfrwt>
<totfact> 0.21671911E+03</totfact>
</mgrwt>
</event>
<event>
 5    1  0.3184438E-002  0.1250049E+03  0.7818608E-02  0.1235062E+00
         -4   -1    0    0    0  501 -0.00000000000E+00  0.00000000000E+00  0.21158261409E+02  0.21196342275E+02  0.12700000000E+01 0.  1.
          4   -1    0    0  501    0  0.00000000000E+00 -0.00000000000E+00 -0.18442880931E+03  0.18443318195E+03  0.12700000000E+01 0.  1.
         25    2    1    2    0    0  0.00000000000E+00  0.00000000000E+00 -0.16327054790E+03  0.20562952422E+03  0.12500491758E+03 0.  0.
    9000005    1    3    3    0    0  0.10926831310E+02 -0.16252881336E+02 -0.17925855305E+03  0.18032798073E+03  0.10000000000E+01 0.  0.
    9000005    1    3    3    0    0 -0.10926831310E+02  0.16252881336E+02  0.15988005150E+02  0.25301543488E+02  0.10000000000E+01 0.  0.
<mgrwt>
<rscale>  0 0.12500492E+03</rscale>
<asrwt>0</asrwt>
<pdfrwt beam="2">  1        4 0.28376928E-01 0.12500492E+03</pdfrwt>
<pdfrwt beam="1">  1       -4 0.32583829E-02 0.12500492E+03</pdfrwt>
<totfact> 0.89184839E+03</totfact>
</mgrwt>
</event>
<event>
 5    1  0.3184438E-002  0.1250011E+03  0.7818608E-02  0.1235068E+00
         -4   -1    0    0    0  501 -0.00000000000E+00  0.00000000000E+00  0.68415264755E+02  0.68427051314E+02  0.12700000000E+01 0.  1.
          4   -1    0    0  501    0  0.00000000000E+00 -0.00000000000E+00 -0.57073406242E+02  0.57087534542E+02  0.12700000000E+01 0.  1.
         25    2    1    2    0    0  0.00000000000E+00  0.00000000000E+00  0.11341858513E+02  0.12551458586E+03  0.12500109403E+03 0.  0.
    9000005    1    3    3    0    0  0.45890412002E+02 -0.42220549543E+02  0.15536387789E+01  0.62385242734E+02  0.10000000000E+01 0.  0.
    9000005    1    3    3    0    0 -0.45890412002E+02  0.42220549543E+02  0.97882197340E+01  0.63129343122E+02  0.10000000000E+01 0.  0.
<mgrwt>
<rscale>  0 0.12500109E+03</rscale>
<asrwt>0</asrwt>
<pdfrwt beam="2">  1        4 0.87825175E-02 0.12500109E+03</pdfrwt>
<pdfrwt beam="1">  1       -4 0.10527419E-01 0.12500109E+03</pdfrwt>
<totfact> 0.10441374E+04</totfact>
</mgrwt>
</event>
<event>
 5    1  0.3184438E-002  0.1250138E+03  0.7818608E-02  0.1235048E+00
          4   -1    0    0  501    0  0.00000000000E+00  0.00000000000E+00  0.62286076994E+02  0.62299023165E+02  0.12700000000E+01 0. -1.
         -4   -1    0    0    0  501 -0.00000000000E+00 -0.00000000000E+00 -0.62702564506E+02  0.62715424702E+02  0.12700000000E+01 0. -1.
         25    2    1    2    0    0  0.00000000000E+00  0.00000000000E+00 -0.41648751116E+00  0.12501444787E+03  0.12501375410E+03 0.  0.
    9000005    1    3    3    0    0 -0.62467531822E+02  0.34154098986E-01  0.17706507585E+01  0.62500631217E+02  0.10000000000E+01 0.  0.
    9000005    1    3    3    0    0  0.62467531822E+02 -0.34154098986E-01 -0.21871382696E+01  0.62513816651E+02  0.10000000000E+01 0.  0.
<mgrwt>
<rscale>  0 0.12501375E+03</rscale>
<asrwt>0</asrwt>
<pdfrwt beam="1">  1        4 0.95844584E-02 0.12501375E+03</pdfrwt>
<pdfrwt beam="2">  1       -4 0.96485336E-02 0.12501375E+03</pdfrwt>
<totfact> 0.10449300E+04</totfact>
</mgrwt>
</event>
<event>
 5    1  0.3184438E-002  0.1250004E+03  0.7818608E-02  0.1235069E+00
         -4   -1    0    0    0  501 -0.00000000000E+00  0.00000000000E+00  0.38764408722E+03  0.38764616760E+03  0.12700000000E+01 0.  1.
          4   -1    0    0  501    0  0.00000000000E+00 -0.00000000000E+00 -0.10034828559E+02  0.10114874404E+02  0.12700000000E+01 0.  1.
         25    2    1    2    0    0  0.00000000000E+00  0.00000000000E+00  0.37760925866E+03  0.39776104200E+03  0.12500037724E+03 0.  0.
    9000005    1    3    3    0    0  0.68512695626E+01 -0.74227006515E+00 -0.88376267095E+01  0.11251422369E+02  0.10000000000E+01 0.  0.
    9000005    1    3    3    0    0 -0.68512695626E+01  0.74227006515E+00  0.38644688537E+03  0.38650961963E+03  0.10000000000E+01 0.  0.
<mgrwt>
<rscale>  0 0.12500038E+03</rscale>
<asrwt>0</asrwt>
<pdfrwt beam="2">  1        4 0.15501374E-02 0.12500038E+03</pdfrwt>
<pdfrwt beam="1">  1       -4 0.59643862E-01 0.12500038E+03</pdfrwt>
<totfact> 0.64770594E+03</totfact>
</mgrwt>
</event>
<event>
 5    1  0.3184438E-002  0.1249979E+03  0.7818608E-02  0.1235073E+00
         -4   -1    0    0    0  501 -0.00000000000E+00  0.00000000000E+00  0.49998196374E+01  0.51585944216E+01  0.12700000000E+01 0.  1.
          4   -1    0    0  501    0  0.00000000000E+00 -0.00000000000E+00 -0.76888119913E+03  0.76888224799E+03  0.12700000000E+01 0.  1.
         25    2    1    2    0    0  0.00000000000E+00  0.00000000000E+00 -0.76388137949E+03  0.77404084241E+03  0.12499785513E+03 0.  0.
    9000005    1    3    3    0    0 -0.36280944491E+02 -0.47621148504E+02 -0.49289333534E+03  0.49651678797E+03  0.10000000000E+01 0.  0.
    9000005    1    3    3    0    0  0.36280944491E+02  0.47621148504E+02 -0.27098804415E+03  0.27752405444E+03  0.10000000000E+01 0.  0.
<mgrwt>
<rscale>  0 0.12499786E+03</rscale>
<asrwt>0</asrwt>
<pdfrwt beam="2">  1        4 0.11830162E+00 0.12499786E+03</pdfrwt>
<pdfrwt beam="1">  1       -4 0.78149776E-03 0.12499786E+03</pdfrwt>
<totfact> 0.39451656E+03</totfact>
</mgrwt>
</event>
<event>
 5    1  0.3184438E-002  0.1250006E+03  0.7818608E-02  0.1235068E+00
         -4   -1    0    0    0  501 -0.00000000000E+00  0.00000000000E+00  0.22798661564E+01  0.26097298119E+01  0.12700000000E+01 0.  1.
          4   -1    0    0  501    0  0.00000000000E+00 -0.00000000000E+00 -0.15974650748E+04  0.15974655796E+04  0.12700000000E+01 0.  1.
         25    2    1    2    0    0  0.00000000000E+00  0.00000000000E+00 -0.15951852086E+04  0.16000753094E+04  0.12500058405E+03 0.  0.
    9000005    1    3    3    0    0 -0.20885372146E+02 -0.41852156640E+01 -0.15496254885E+04  0.15497721992E+04  0.10000000000E+01 0.  0.
    9000005    1    3    3    0    0  0.20885372146E+02  0.41852156640E+01 -0.45559720054E+02  0.50303110155E+02  0.10000000000E+01 0.  0.
<mgrwt>
<rscale>  0 0.12500058E+03</rscale>
<asrwt>0</asrwt>
<pdfrwt beam="2">  1        4 0.24578844E+00 0.12500058E+03</pdfrwt>
<pdfrwt beam="1">  1       -4 0.37616288E-03 0.12500058E+03</pdfrwt>
<totfact> 0.16044658E+03</totfact>
</mgrwt>
</event>
<event>
 5    1  0.3184438E-002  0.1250065E+03  0.7818608E-02  0.1235059E+00
         -4   -1    0    0    0  501 -0.00000000000E+00  0.00000000000E+00  0.34788576964E+02  0.34811750705E+02  0.12700000000E+01 0. -1.
          4   -1    0    0  501    0  0.00000000000E+00 -0.00000000000E+00 -0.11223287510E+03  0.11224006038E+03  0.12700000000E+01 0. -1.
         25    2    1    2    0    0  0.00000000000E+00  0.00000000000E+00 -0.77444298135E+02  0.14705181108E+03  0.12500646315E+03 0.  0.
    9000005    1    3    3    0    0  0.45212864163E+01  0.49337094385E+02  0.60884810256E+01  0.49926551197E+02  0.10000000000E+01 0.  0.
    9000005    1    3    3    0    0 -0.45212864163E+01 -0.49337094385E+02 -0.83532779161E+02  0.97125259884E+02  0.10000000000E+01 0.  0.
<mgrwt>
<rscale>  0 0.12500646E+03</rscale>
<asrwt>0</asrwt>
<pdfrwt beam="2">  1        4 0.17268931E-01 0.12500646E+03</pdfrwt>
<pdfrwt beam="1">  1       -4 0.53544241E-02 0.12500646E+03</pdfrwt>
<totfact> 0.99880122E+03</totfact>
</mgrwt>
</event>
<event>
 5    1  0.3184438E-002  0.1250000E+03  0.7818608E-02  0.1235069E+00
         -4   -1    0    0    0  501 -0.00000000000E+00  0.00000000000E+00  0.24514102274E+02  0.24546977620E+02  0.12700000000E+01 0.  1.
          4   -1    0    0  501    0  0.00000000000E+00 -0.00000000000E+00 -0.15920491209E+03  0.15920997749E+03  0.12700000000E+01 0.  1.
         25    2    1    2    0    0  0.00000000000E+00  0.00000000000E+00 -0.13469080981E+03  0.18375695511E+03  0.12500001721E+03 0.  0.
    9000005    1    3    3    0    0  0.52665347469E+02  0.20641957896E+02 -0.28298290949E+02  0.63257588639E+02  0.10000000000E+01 0.  0.
    9000005    1    3    3    0    0 -0.52665347469E+02 -0.20641957896E+02 -0.10639251886E+03  0.12049936647E+03  0.10000000000E+01 0.  0.
<mgrwt>
<rscale>  0 0.12500002E+03</rscale>
<asrwt>0</asrwt>
<pdfrwt beam="2">  1        4 0.24495981E-01 0.12500002E+03</pdfrwt>
<pdfrwt beam="1">  1       -4 0.37743190E-02 0.12500002E+03</pdfrwt>
<totfact> 0.92945041E+03</totfact>
</mgrwt>
</event>
<event>
 5    1  0.3184438E-002  0.1249987E+03  0.7818608E-02  0.1235071E+00
          4   -1    0    0  501    0  0.00000000000E+00  0.00000000000E+00  0.25428708938E+03  0.25429026078E+03  0.12700000000E+01 0.  1.
         -4   -1    0    0    0  501 -0.00000000000E+00 -0.00000000000E+00 -0.15331741429E+02  0.15384251534E+02  0.12700000000E+01 0.  1.
         25    2    1    2    0    0  0.00000000000E+00  0.00000000000E+00  0.23895534795E+03  0.26967451231E+03  0.12499873709E+03 0.  0.
    9000005    1    3    3    0    0  0.22097004106E+02 -0.58331289368E+02  0.11130389006E+03  0.12759456435E+03  0.10000000000E+01 0.  0.
    9000005    1    3    3    0    0 -0.22097004106E+02  0.58331289368E+02  0.12765145790E+03  0.14207994796E+03  0.10000000000E+01 0.  0.
<mgrwt>
<rscale>  0 0.12499874E+03</rscale>
<asrwt>0</asrwt>
<pdfrwt beam="1">  1        4 0.39125373E-01 0.12499874E+03</pdfrwt>
<pdfrwt beam="2">  1       -4 0.23630127E-02 0.12499874E+03</pdfrwt>
<totfact> 0.79569498E+03</totfact>
</mgrwt>
</event>
<event>
 5    1  0.3184438E-002  0.1250001E+03  0.7818608E-02  0.1235069E+00
         -4   -1    0    0    0  501 -0.00000000000E+00  0.00000000000E+00  0.31739359209E+02  0.31764757563E+02  0.12700000000E+01 0.  1.
          4   -1    0    0  501    0  0.00000000000E+00 -0.00000000000E+00 -0.12299505195E+03  0.12300160855E+03  0.12700000000E+01 0.  1.
         25    2    1    2    0    0  0.00000000000E+00  0.00000000000E+00 -0.91255692745E+02  0.15476636611E+03  0.12500010648E+03 0.  0.
    9000005    1    3    3    0    0 -0.17262346382E+02  0.56979657609E+02 -0.69138842897E+02  0.91246093511E+02  0.10000000000E+01 0.  0.
    9000005    1    3    3    0    0  0.17262346382E+02 -0.56979657609E+02 -0.22116849847E+02  0.63520272599E+02  0.10000000000E+01 0.  0.
<mgrwt>
<rscale>  0 0.12500011E+03</rscale>
<asrwt>0</asrwt>
<pdfrwt beam="2">  1        4 0.18924773E-01 0.12500011E+03</pdfrwt>
<pdfrwt beam="1">  1       -4 0.48854365E-02 0.12500011E+03</pdfrwt>
<totfact> 0.98361148E+03</totfact>
</mgrwt>
</event>
<event>
 5    1  0.3184438E-002  0.1250005E+03  0.7818608E-02  0.1235068E+00
         -4   -1    0    0    0  501 -0.00000000000E+00  0.00000000000E+00  0.39434501310E+02  0.39454946376E+02  0.12700000000E+01 0.  1.
          4   -1    0    0  501    0  0.00000000000E+00 -0.00000000000E+00 -0.99007284009E+02  0.99015429034E+02  0.12700000000E+01 0.  1.
         25    2    1    2    0    0  0.00000000000E+00  0.00000000000E+00 -0.59572782699E+02  0.13847037541E+03  0.12500051371E+03 0.  0.
    9000005    1    3    3    0    0  0.35263613416E+02 -0.40204448610E+02 -0.65602502056E+02  0.84644009801E+02  0.10000000000E+01 0.  0.
    9000005    1    3    3    0    0 -0.35263613416E+02  0.40204448610E+02  0.60297193574E+01  0.53826365609E+02  0.10000000000E+01 0.  0.
<mgrwt>
<rscale>  0 0.12500051E+03</rscale>
<asrwt>0</asrwt>
<pdfrwt beam="2">  1        4 0.15234089E-01 0.12500051E+03</pdfrwt>
<pdfrwt beam="1">  1       -4 0.60690456E-02 0.12500051E+03</pdfrwt>
<totfact> 0.10165269E+04</totfact>
</mgrwt>
</event>
<event>
 5    1  0.3184438E-002  0.1250073E+03  0.7818608E-02  0.1235058E+00
          4   -1    0    0  501    0  0.00000000000E+00  0.00000000000E+00  0.19374034041E+02  0.19415614721E+02  0.12700000000E+01 0.  1.
         -4   -1    0    0    0  501 -0.00000000000E+00 -0.00000000000E+00 -0.20138690450E+03  0.20139090894E+03  0.12700000000E+01 0.  1.
         25    2    1    2    0    0  0.00000000000E+00  0.00000000000E+00 -0.18201287046E+03  0.22080652366E+03  0.12500734330E+03 0.  0.
    9000005    1    3    3    0    0 -0.45168214257E+01 -0.46586569536E+02 -0.16415541769E+03  0.17070064820E+03  0.10000000000E+01 0.  0.
    9000005    1    3    3    0    0  0.45168214257E+01  0.46586569536E+02 -0.17857452767E+02  0.50105875466E+02  0.10000000000E+01 0.  0.
<mgrwt>
<rscale>  0 0.12500734E+03</rscale>
<asrwt>0</asrwt>
<pdfrwt beam="1">  1        4 0.29841273E-02 0.12500734E+03</pdfrwt>
<pdfrwt beam="2">  1       -4 0.30986106E-01 0.12500734E+03</pdfrwt>
<totfact> 0.86726664E+03</totfact>
</mgrwt>
</event>
<event>
 5    1  0.3184438E-002  0.1250044E+03  0.7818608E-02  0.1235062E+00
          4   -1    0    0  501    0  0.00000000000E+00  0.00000000000E+00  0.92950870753E+02  0.92959546437E+02  0.12700000000E+01 0. -1.
         -4   -1    0    0    0  501 -0.00000000000E+00 -0.00000000000E+00 -0.42007612892E+02  0.42026806218E+02  0.12700000000E+01 0. -1.
         25    2    1    2    0    0  0.00000000000E+00  0.00000000000E+00  0.50943257861E+02  0.13498635266E+03  0.12500439945E+03 0.  0.
    9000005    1    3    3    0    0  0.53123852180E+02 -0.30557428632E+02  0.12262735491E+02  0.62508197837E+02  0.10000000000E+01 0.  0.
    9000005    1    3    3    0    0 -0.53123852180E+02  0.30557428632E+02  0.38680522370E+02  0.72478154818E+02  0.10000000000E+01 0.  0.
<mgrwt>
<rscale>  0 0.12500440E+03</rscale>
<asrwt>0</asrwt>
<pdfrwt beam="1">  1        4 0.14302278E-01 0.12500440E+03</pdfrwt>
<pdfrwt beam="2">  1       -4 0.64648535E-02 0.12500440E+03</pdfrwt>
<totfact> 0.10237343E+04</totfact>
</mgrwt>
</event>
<event>
 5    1  0.3184438E-002  0.1250027E+03  0.7818608E-02  0.1235065E+00
          4   -1    0    0  501    0  0.00000000000E+00  0.00000000000E+00  0.22481833509E+02  0.22517676122E+02  0.12700000000E+01 0. -1.
         -4   -1    0    0    0  501 -0.00000000000E+00 -0.00000000000E+00 -0.17358233550E+03  0.17358698136E+03  0.12700000000E+01 0. -1.
         25    2    1    2    0    0  0.00000000000E+00  0.00000000000E+00 -0.15110050199E+03  0.19610465749E+03  0.12500269991E+03 0.  0.
    9000005    1    3    3    0    0 -0.45227497642E+02  0.19147218471E+01 -0.14314048434E+03  0.15013124578E+03  0.10000000000E+01 0.  0.
    9000005    1    3    3    0    0  0.45227497642E+02 -0.19147218471E+01 -0.79600176541E+01  0.45973411704E+02  0.10000000000E+01 0.  0.
<mgrwt>
<rscale>  0 0.12500270E+03</rscale>
<asrwt>0</asrwt>
<pdfrwt beam="1">  1        4 0.34618582E-02 0.12500270E+03</pdfrwt>
<pdfrwt beam="2">  1       -4 0.26708088E-01 0.12500270E+03</pdfrwt>
<totfact> 0.90790353E+03</totfact>
</mgrwt>
</event>
<event>
 5    1  0.3184438E-002  0.1249995E+03  0.7818608E-02  0.1235070E+00
          4   -1    0    0  501    0  0.00000000000E+00  0.00000000000E+00  0.88267209013E+03  0.88267300377E+03  0.12700000000E+01 0. -1.
         -4   -1    0    0    0  501 -0.00000000000E+00 -0.00000000000E+00 -0.43333976560E+01  0.45156655373E+01  0.12700000000E+01 0. -1.
         25    2    1    2    0    0  0.00000000000E+00  0.00000000000E+00  0.87833869247E+03  0.88718866931E+03  0.12499950504E+03 0.  0.
    9000005    1    3    3    0    0  0.69903309015E+01  0.15146540664E+02  0.86661182332E+03  0.86677294301E+03  0.10000000000E+01 0.  0.
    9000005    1    3    3    0    0 -0.69903309015E+01 -0.15146540664E+02  0.11726869151E+02  0.20415726298E+02  0.10000000000E+01 0.  0.
<mgrwt>
<rscale>  0 0.12499951E+03</rscale>
<asrwt>0</asrwt>
<pdfrwt beam="1">  1        4 0.13580983E+00 0.12499951E+03</pdfrwt>
<pdfrwt beam="2">  1       -4 0.68076731E-03 0.12499951E+03</pdfrwt>
<totfact> 0.34652274E+03</totfact>
</mgrwt>
</event>
<event>
 5    1  0.3184438E-002  0.1250019E+03  0.7818608E-02  0.1235066E+00
          4   -1    0    0  501    0  0.00000000000E+00  0.00000000000E+00  0.17656731057E+02  0.17702345935E+02  0.12700000000E+01 0. -1.
         -4   -1    0    0    0  501 -0.00000000000E+00 -0.00000000000E+00 -0.22090679126E+03  0.22091044186E+03  0.12700000000E+01 0. -1.
         25    2    1    2    0    0  0.00000000000E+00  0.00000000000E+00 -0.20325006020E+03  0.23861278780E+03  0.12500190210E+03 0.  0.
    9000005    1    3    3    0    0  0.38042351908E+02 -0.43250696772E+01 -0.19590563320E+03  0.19961448816E+03  0.10000000000E+01 0.  0.
    9000005    1    3    3    0    0 -0.38042351908E+02  0.43250696772E+01 -0.73444270048E+01  0.38998299635E+02  0.10000000000E+01 0.  0.
<mgrwt>
<rscale>  0 0.12500190E+03</rscale>
<asrwt>0</asrwt>
<pdfrwt beam="1">  1        4 0.27202100E-02 0.12500190E+03</pdfrwt>
<pdfrwt beam="2">  1       -4 0.33989448E-01 0.12500190E+03</pdfrwt>
<totfact> 0.84000841E+03</totfact>
</mgrwt>
</event>
<event>
 5    1  0.3184438E-002  0.1250023E+03  0.7818608E-02  0.1235066E+00
          4   -1    0    0  501    0  0.00000000000E+00  0.00000000000E+00  0.32658779237E+02  0.32683463116E+02  0.12700000000E+01 0. -1.
         -4   -1    0    0    0  501 -0.00000000000E+00 -0.00000000000E+00 -0.11953903451E+03  0.11954578065E+03  0.12700000000E+01 0. -1.
         25    2    1    2    0    0  0.00000000000E+00  0.00000000000E+00 -0.86880255270E+02  0.15222924376E+03  0.12500225559E+03 0.  0.
    9000005    1    3    3    0    0  0.27983822561E+02 -0.73227768353E+01 -0.11090156467E+03  0.11461620492E+03  0.10000000000E+01 0.  0.
    9000005    1    3    3    0    0 -0.27983822561E+02  0.73227768353E+01  0.24021309396E+02  0.37613038841E+02  0.10000000000E+01 0.  0.
<mgrwt>
<rscale>  0 0.12500226E+03</rscale>
<asrwt>0</asrwt>
<pdfrwt beam="1">  1        4 0.50268453E-02 0.12500226E+03</pdfrwt>
<pdfrwt beam="2">  1       -4 0.18393038E-01 0.12500226E+03</pdfrwt>
<totfact> 0.98856157E+03</totfact>
</mgrwt>
</event>
<event>
 5    1  0.3184438E-002  0.1249637E+03  0.7818608E-02  0.1235126E+00
         -4   -1    0    0    0  501 -0.00000000000E+00  0.00000000000E+00  0.26190577442E+03  0.26190885356E+03  0.12700000000E+01 0.  1.
          4   -1    0    0  501    0  0.00000000000E+00 -0.00000000000E+00 -0.14875820893E+02  0.14929934603E+02  0.12700000000E+01 0.  1.
         25    2    1    2    0    0  0.00000000000E+00  0.00000000000E+00  0.24702995353E+03  0.27683878817E+03  0.12496366149E+03 0.  0.
    9000005    1    3    3    0    0  0.18746498683E+01  0.60830645344E+02  0.92255907353E+02  0.11052616960E+03  0.10000000000E+01 0.  0.
    9000005    1    3    3    0    0 -0.18746498683E+01 -0.60830645344E+02  0.15477404617E+03  0.16631261856E+03  0.10000000000E+01 0.  0.
<mgrwt>
<rscale>  0 0.12496366E+03</rscale>
<asrwt>0</asrwt>
<pdfrwt beam="2">  1        4 0.22929874E-02 0.12496366E+03</pdfrwt>
<pdfrwt beam="1">  1       -4 0.40297593E-01 0.12496366E+03</pdfrwt>
<totfact> 0.78662671E+03</totfact>
</mgrwt>
</event>
<event>
 5    1  0.3184438E-002  0.1250020E+03  0.7818608E-02  0.1235066E+00
          4   -1    0    0  501    0  0.00000000000E+00  0.00000000000E+00  0.23683022273E+03  0.23683362789E+03  0.12700000000E+01 0. -1.
         -4   -1    0    0    0  501 -0.00000000000E+00 -0.00000000000E+00 -0.16466432962E+02  0.16515335736E+02  0.12700000000E+01 0. -1.
         25    2    1    2    0    0  0.00000000000E+00  0.00000000000E+00  0.22036378977E+03  0.25334896362E+03  0.12500199010E+03 0.  0.
    9000005    1    3    3    0    0 -0.52681422016E+01 -0.59676184614E+02  0.14623167595E+03  0.15803070393E+03  0.10000000000E+01 0.  0.
    9000005    1    3    3    0    0  0.52681422016E+01  0.59676184614E+02  0.74132113815E+02  0.95318259694E+02  0.10000000000E+01 0.  0.
<mgrwt>
<rscale>  0 0.12500199E+03</rscale>
<asrwt>0</asrwt>
<pdfrwt beam="1">  1        4 0.36439442E-01 0.12500199E+03</pdfrwt>
<pdfrwt beam="2">  1       -4 0.25373211E-02 0.12500199E+03</pdfrwt>
<totfact> 0.81844967E+03</totfact>
</mgrwt>
</event>
<event>
 5    1  0.3184438E-002  0.1249985E+03  0.7818608E-02  0.1235072E+00
          4   -1    0    0  501    0  0.00000000000E+00  0.00000000000E+00  0.15286616278E+02  0.15339280857E+02  0.12700000000E+01 0. -1.
         -4   -1    0    0    0  501 -0.00000000000E+00 -0.00000000000E+00 -0.25503437536E+03  0.25503753746E+03  0.12700000000E+01 0. -1.
         25    2    1    2    0    0  0.00000000000E+00  0.00000000000E+00 -0.23974775908E+03  0.27037681832E+03  0.12499854359E+03 0.  0.
    9000005    1    3    3    0    0 -0.42876248956E+02  0.40979176307E+01 -0.21938249099E+02  0.48347207023E+02  0.10000000000E+01 0.  0.
    9000005    1    3    3    0    0  0.42876248956E+02 -0.40979176307E+01 -0.21780950998E+03  0.22202961129E+03  0.10000000000E+01 0.  0.
<mgrwt>
<rscale>  0 0.12499854E+03</rscale>
<asrwt>0</asrwt>
<pdfrwt beam="1">  1        4 0.23560817E-02 0.12499854E+03</pdfrwt>
<pdfrwt beam="2">  1       -4 0.39240349E-01 0.12499854E+03</pdfrwt>
<totfact> 0.79474097E+03</totfact>
</mgrwt>
</event>
<event>
 5    1  0.3184438E-002  0.1250002E+03  0.7818608E-02  0.1235069E+00
         -4   -1    0    0    0  501 -0.00000000000E+00  0.00000000000E+00  0.97397000209E+02  0.97405279886E+02  0.12700000000E+01 0. -1.
          4   -1    0    0  501    0  0.00000000000E+00 -0.00000000000E+00 -0.40086567124E+02  0.40106679791E+02  0.12700000000E+01 0. -1.
         25    2    1    2    0    0  0.00000000000E+00  0.00000000000E+00  0.57310433084E+02  0.13751195968E+03  0.12500021325E+03 0.  0.
    9000005    1    3    3    0    0 -0.28969233997E+01  0.11886031471E+02  0.96072151206E+02  0.96853126675E+02  0.10000000000E+01 0.  0.
    9000005    1    3    3    0    0  0.28969233997E+01 -0.11886031471E+02 -0.38761718122E+02  0.40658833002E+02  0.10000000000E+01 0.  0.
<mgrwt>
<rscale>  0 0.12500021E+03</rscale>
<asrwt>0</asrwt>
<pdfrwt beam="2">  1        4 0.61693483E-02 0.12500021E+03</pdfrwt>
<pdfrwt beam="1">  1       -4 0.14986338E-01 0.12500021E+03</pdfrwt>
<totfact> 0.10185343E+04</totfact>
</mgrwt>
</event>
<event>
 5    1  0.3184438E-002  0.1250002E+03  0.7818608E-02  0.1235069E+00
         -4   -1    0    0    0  501 -0.00000000000E+00  0.00000000000E+00  0.24234380914E+02  0.24267635201E+02  0.12700000000E+01 0. -1.
          4   -1    0    0  501    0  0.00000000000E+00 -0.00000000000E+00 -0.16104048080E+03  0.16104548847E+03  0.12700000000E+01 0. -1.
         25    2    1    2    0    0  0.00000000000E+00  0.00000000000E+00 -0.13680609988E+03  0.18531312367E+03  0.12500017935E+03 0.  0.
    9000005    1    3    3    0    0  0.42236267538E+02 -0.41155811972E+02 -0.37748631111E+02  0.70026154438E+02  0.10000000000E+01 0.  0.
    9000005    1    3    3    0    0 -0.42236267538E+02  0.41155811972E+02 -0.99057468773E+02  0.11528696923E+03  0.10000000000E+01 0.  0.
<mgrwt>
<rscale>  0 0.12500018E+03</rscale>
<asrwt>0</asrwt>
<pdfrwt beam="2">  1        4 0.24778401E-01 0.12500018E+03</pdfrwt>
<pdfrwt beam="1">  1       -4 0.37313096E-02 0.12500018E+03</pdfrwt>
<totfact> 0.92668900E+03</totfact>
</mgrwt>
</event>
<event>
 5    1  0.3184438E-002  0.1250336E+03  0.7818608E-02  0.1235017E+00
         -4   -1    0    0    0  501 -0.00000000000E+00  0.00000000000E+00  0.33408122075E+02  0.33432252700E+02  0.12700000000E+01 0.  1.
          4   -1    0    0  501    0  0.00000000000E+00 -0.00000000000E+00 -0.11691824410E+03  0.11692514145E+03  0.12700000000E+01 0.  1.
         25    2    1    2    0    0  0.00000000000E+00  0.00000000000E+00 -0.83510122021E+02  0.15035739415E+03  0.12503361746E+03 0.  0.
    9000005    1    3    3    0    0  0.62549444698E+01  0.24029115457E+02 -0.11073941935E+03  0.11349335539E+03  0.10000000000E+01 0.  0.
    9000005    1    3    3    0    0 -0.62549444698E+01 -0.24029115457E+02  0.27229297332E+02  0.36864038753E+02  0.10000000000E+01 0.  0.
<mgrwt>
<rscale>  0 0.12503362E+03</rscale>
<asrwt>0</asrwt>
<pdfrwt beam="2">  1        4 0.17989809E-01 0.12503362E+03</pdfrwt>
<pdfrwt beam="1">  1       -4 0.51420979E-02 0.12503362E+03</pdfrwt>
<totfact> 0.99157468E+03</totfact>
</mgrwt>
</event>
<event>
 5    1  0.3184438E-002  0.1250004E+03  0.7818608E-02  0.1235069E+00
         -4   -1    0    0    0  501 -0.00000000000E+00  0.00000000000E+00  0.43949030188E+02  0.43967376024E+02  0.12700000000E+01 0. -1.
          4   -1    0    0  501    0  0.00000000000E+00 -0.00000000000E+00 -0.88840458782E+02  0.88849535827E+02  0.12700000000E+01 0. -1.
         25    2    1    2    0    0  0.00000000000E+00  0.00000000000E+00 -0.44891428594E+02  0.13281691185E+03  0.12500036685E+03 0.  0.
    9000005    1    3    3    0    0 -0.52000331879E+02  0.53217583007E+01 -0.58835189033E+02  0.78707909993E+02  0.10000000000E+01 0.  0.
    9000005    1    3    3    0    0  0.52000331879E+02 -0.53217583007E+01  0.13943760438E+02  0.54109001858E+02  0.10000000000E+01 0.  0.
<mgrwt>
<rscale>  0 0.12500037E+03</rscale>
<asrwt>0</asrwt>
<pdfrwt beam="2">  1        4 0.13669872E-01 0.12500037E+03</pdfrwt>
<pdfrwt beam="1">  1       -4 0.67634987E-02 0.12500037E+03</pdfrwt>
<totfact> 0.10284208E+04</totfact>
</mgrwt>
</event>
<event>
 5    1  0.3184438E-002  0.1249979E+03  0.7818608E-02  0.1235073E+00
          4   -1    0    0  501    0  0.00000000000E+00  0.00000000000E+00  0.14773330021E+03  0.14773875894E+03  0.12700000000E+01 0.  1.
         -4   -1    0    0    0  501 -0.00000000000E+00 -0.00000000000E+00 -0.26419123414E+02  0.26449631037E+02  0.12700000000E+01 0.  1.
         25    2    1    2    0    0  0.00000000000E+00  0.00000000000E+00  0.12131417680E+03  0.17418838997E+03  0.12499786282E+03 0.  0.
    9000005    1    3    3    0    0 -0.78010093340E+01 -0.36118474133E+02  0.13088491663E+03  0.13600463713E+03  0.10000000000E+01 0.  0.
    9000005    1    3    3    0    0  0.78010093340E+01  0.36118474133E+02 -0.95707398277E+01  0.38183752843E+02  0.10000000000E+01 0.  0.
<mgrwt>
<rscale>  0 0.12499786E+03</rscale>
<asrwt>0</asrwt>
<pdfrwt beam="1">  1        4 0.22730967E-01 0.12499786E+03</pdfrwt>
<pdfrwt beam="2">  1       -4 0.40672471E-02 0.12499786E+03</pdfrwt>
<totfact> 0.94678235E+03</totfact>
</mgrwt>
</event>
<event>
 5    1  0.3184438E-002  0.1250000E+03  0.7818608E-02  0.1235069E+00
         -4   -1    0    0    0  501 -0.00000000000E+00  0.00000000000E+00  0.11056471131E+04  0.11056478425E+04  0.12700000000E+01 0.  1.
          4   -1    0    0  501    0  0.00000000000E+00 -0.00000000000E+00 -0.34181118730E+01  0.36464213657E+01  0.12700000000E+01 0.  1.
         25    2    1    2    0    0  0.00000000000E+00  0.00000000000E+00  0.11022290012E+04  0.11092942638E+04  0.12499997072E+03 0.  0.
    9000005    1    3    3    0    0  0.12994371823E+02 -0.60398266369E+02  0.63457303911E+03  0.63757411039E+03  0.10000000000E+01 0.  0.
    9000005    1    3    3    0    0 -0.12994371823E+02  0.60398266369E+02  0.46765596209E+03  0.47172015343E+03  0.10000000000E+01 0.  0.
<mgrwt>
<rscale>  0 0.12499997E+03</rscale>
<asrwt>0</asrwt>
<pdfrwt beam="2">  1        4 0.54348158E-03 0.12499997E+03</pdfrwt>
<pdfrwt beam="1">  1       -4 0.17011722E+00 0.12499997E+03</pdfrwt>
<totfact> 0.27212966E+03</totfact>
</mgrwt>
</event>
<event>
 5    1  0.3184438E-002  0.1250095E+03  0.7818608E-02  0.1235054E+00
          4   -1    0    0  501    0  0.00000000000E+00  0.00000000000E+00  0.35000076545E+02  0.35023110344E+02  0.12700000000E+01 0.  1.
         -4   -1    0    0    0  501 -0.00000000000E+00 -0.00000000000E+00 -0.11156048649E+03  0.11156771507E+03  0.12700000000E+01 0.  1.
         25    2    1    2    0    0  0.00000000000E+00  0.00000000000E+00 -0.76560409942E+02  0.14659082541E+03  0.12500949454E+03 0.  0.
    9000005    1    3    3    0    0 -0.42776110947E+02 -0.39946637190E+02 -0.63979806337E+02  0.86717617065E+02  0.10000000000E+01 0.  0.
    9000005    1    3    3    0    0  0.42776110947E+02  0.39946637190E+02 -0.12580603605E+02  0.59873208346E+02  0.10000000000E+01 0.  0.
<mgrwt>
<rscale>  0 0.12500949E+03</rscale>
<asrwt>0</asrwt>
<pdfrwt beam="1">  1        4 0.53869551E-02 0.12500949E+03</pdfrwt>
<pdfrwt beam="2">  1       -4 0.17165480E-01 0.12500949E+03</pdfrwt>
<totfact> 0.99966290E+03</totfact>
</mgrwt>
</event>
<event>
 5    1  0.3184438E-002  0.1249974E+03  0.7818608E-02  0.1235073E+00
          4   -1    0    0  501    0  0.00000000000E+00  0.00000000000E+00  0.10207056454E+04  0.10207064355E+04  0.12700000000E+01 0.  1.
         -4   -1    0    0    0  501 -0.00000000000E+00 -0.00000000000E+00 -0.37206698843E+01  0.39314481286E+01  0.12700000000E+01 0.  1.
         25    2    1    2    0    0  0.00000000000E+00  0.00000000000E+00  0.10169849756E+04  0.10246378837E+04  0.12499740847E+03 0.  0.
    9000005    1    3    3    0    0  0.18626812615E+02 -0.57551165442E+02  0.37992505108E+03  0.38471176123E+03  0.10000000000E+01 0.  0.
    9000005    1    3    3    0    0 -0.18626812615E+02  0.57551165442E+02  0.63705992448E+03  0.63992612243E+03  0.10000000000E+01 0.  0.
<mgrwt>
<rscale>  0 0.12499741E+03</rscale>
<asrwt>0</asrwt>
<pdfrwt beam="1">  1        4 0.15704796E+00 0.12499741E+03</pdfrwt>
<pdfrwt beam="2">  1       -4 0.58868507E-03 0.12499741E+03</pdfrwt>
<totfact> 0.29801740E+03</totfact>
</mgrwt>
</event>
<event>
 5    1  0.3184438E-002  0.1250000E+03  0.7818608E-02  0.1235069E+00
          4   -1    0    0  501    0  0.00000000000E+00  0.00000000000E+00  0.33192052480E+01  0.35538744320E+01  0.12700000000E+01 0.  1.
         -4   -1    0    0    0  501 -0.00000000000E+00 -0.00000000000E+00 -0.11364456344E+04  0.11364463441E+04  0.12700000000E+01 0.  1.
         25    2    1    2    0    0  0.00000000000E+00  0.00000000000E+00 -0.11331264292E+04  0.11400002185E+04  0.12499997456E+03 0.  0.
    9000005    1    3    3    0    0 -0.45106042430E+02 -0.14880161083E+02 -0.19618840921E+03  0.20185853008E+03  0.10000000000E+01 0.  0.
    9000005    1    3    3    0    0  0.45106042430E+02  0.14880161083E+02 -0.93693801999E+03  0.93814168843E+03  0.10000000000E+01 0.  0.
<mgrwt>
<rscale>  0 0.12499997E+03</rscale>
<asrwt>0</asrwt>
<pdfrwt beam="1">  1        4 0.52875393E-03 0.12499997E+03</pdfrwt>
<pdfrwt beam="2">  1       -4 0.17485560E+00 0.12499997E+03</pdfrwt>
<totfact> 0.26339395E+03</totfact>
</mgrwt>
</event>
<event>
 5    1  0.3184438E-002  0.1250022E+03  0.7818608E-02  0.1235066E+00
          4   -1    0    0  501    0  0.00000000000E+00  0.00000000000E+00  0.40298477990E+02  0.40318484946E+02  0.12700000000E+01 0. -1.
         -4   -1    0    0    0  501 -0.00000000000E+00 -0.00000000000E+00 -0.96888173508E+02  0.96896496663E+02  0.12700000000E+01 0. -1.
         25    2    1    2    0    0  0.00000000000E+00  0.00000000000E+00 -0.56589695517E+02  0.13721498161E+03  0.12500223014E+03 0.  0.
    9000005    1    3    3    0    0 -0.45991690152E+02  0.25860220193E+02 -0.65053924511E+02  0.83767533363E+02  0.10000000000E+01 0.  0.
    9000005    1    3    3    0    0  0.45991690152E+02 -0.25860220193E+02  0.84642289934E+01  0.53447448246E+02  0.10000000000E+01 0.  0.
<mgrwt>
<rscale>  0 0.12500223E+03</rscale>
<asrwt>0</asrwt>
<pdfrwt beam="1">  1        4 0.62019451E-02 0.12500223E+03</pdfrwt>
<pdfrwt beam="2">  1       -4 0.14908052E-01 0.12500223E+03</pdfrwt>
<totfact> 0.10191080E+04</totfact>
</mgrwt>
</event>
<event>
 5    1  0.3184438E-002  0.1249997E+03  0.7818608E-02  0.1235070E+00
         -4   -1    0    0    0  501 -0.00000000000E+00  0.00000000000E+00  0.96744120177E+01  0.97574150208E+01  0.12700000000E+01 0. -1.
          4   -1    0    0  501    0  0.00000000000E+00 -0.00000000000E+00 -0.40196064296E+03  0.40196264925E+03  0.12700000000E+01 0. -1.
         25    2    1    2    0    0  0.00000000000E+00  0.00000000000E+00 -0.39228623094E+03  0.41172006427E+03  0.12499969733E+03 0.  0.
    9000005    1    3    3    0    0 -0.18915421225E+02  0.50151023803E+02 -0.90315572554E+02  0.10502771536E+03  0.10000000000E+01 0.  0.
    9000005    1    3    3    0    0  0.18915421225E+02 -0.50151023803E+02 -0.30197065839E+03  0.30669234890E+03  0.10000000000E+01 0.  0.
<mgrwt>
<rscale>  0 0.12499970E+03</rscale>
<asrwt>0</asrwt>
<pdfrwt beam="2">  1        4 0.61846625E-01 0.12499970E+03</pdfrwt>
<pdfrwt beam="1">  1       -4 0.14949106E-02 0.12499970E+03</pdfrwt>
<totfact> 0.63429081E+03</totfact>
</mgrwt>
</event>
<event>
 5    1  0.3184438E-002  0.1249996E+03  0.7818608E-02  0.1235070E+00
          4   -1    0    0  501    0  0.00000000000E+00  0.00000000000E+00  0.16079749166E+02  0.16129824340E+02  0.12700000000E+01 0. -1.
         -4   -1    0    0    0  501 -0.00000000000E+00 -0.00000000000E+00 -0.24249886345E+03  0.24250218901E+03  0.12700000000E+01 0. -1.
         25    2    1    2    0    0  0.00000000000E+00  0.00000000000E+00 -0.22641911428E+03  0.25863201335E+03  0.12499961206E+03 0.  0.
    9000005    1    3    3    0    0  0.42594987108E+02  0.30489537543E+02 -0.18371818485E+03  0.19104270797E+03  0.10000000000E+01 0.  0.
    9000005    1    3    3    0    0 -0.42594987108E+02 -0.30489537543E+02 -0.42700929434E+02  0.67589305373E+02  0.10000000000E+01 0.  0.
<mgrwt>
<rscale>  0 0.12499961E+03</rscale>
<asrwt>0</asrwt>
<pdfrwt beam="1">  1        4 0.24779155E-02 0.12499961E+03</pdfrwt>
<pdfrwt beam="2">  1       -4 0.37311622E-01 0.12499961E+03</pdfrwt>
<totfact> 0.81099124E+03</totfact>
</mgrwt>
</event>
<event>
 5    1  0.3184438E-002  0.1249935E+03  0.7818608E-02  0.1235079E+00
         -4   -1    0    0    0  501 -0.00000000000E+00  0.00000000000E+00  0.26822102897E+01  0.29676846258E+01  0.12700000000E+01 0. -1.
          4   -1    0    0  501    0  0.00000000000E+00 -0.00000000000E+00 -0.13823390609E+04  0.13823396442E+04  0.12700000000E+01 0. -1.
         25    2    1    2    0    0  0.00000000000E+00  0.00000000000E+00 -0.13796568506E+04  0.13853073289E+04  0.12499348033E+03 0.  0.
    9000005    1    3    3    0    0  0.39645571247E+02 -0.27965923611E+02 -0.25335115174E+03  0.25795672174E+03  0.10000000000E+01 0.  0.
    9000005    1    3    3    0    0 -0.39645571247E+02  0.27965923611E+02 -0.11263056988E+04  0.11273506071E+04  0.10000000000E+01 0.  0.
<mgrwt>
<rscale>  0 0.12499348E+03</rscale>
<asrwt>0</asrwt>
<pdfrwt beam="2">  1        4 0.21268901E+00 0.12499348E+03</pdfrwt>
<pdfrwt beam="1">  1       -4 0.43465328E-03 0.12499348E+03</pdfrwt>
<totfact> 0.20301396E+03</totfact>
</mgrwt>
</event>
<event>
 5    1  0.3184438E-002  0.1249995E+03  0.7818608E-02  0.1235070E+00
         -4   -1    0    0    0  501 -0.00000000000E+00  0.00000000000E+00  0.44991727850E+01  0.46749818983E+01  0.12700000000E+01 0.  1.
          4   -1    0    0  501    0  0.00000000000E+00 -0.00000000000E+00 -0.85139407982E+03  0.85139502703E+03  0.12700000000E+01 0.  1.
         25    2    1    2    0    0  0.00000000000E+00  0.00000000000E+00 -0.84689490703E+03  0.85607000893E+03  0.12499950650E+03 0.  0.
    9000005    1    3    3    0    0  0.49387275409E+02 -0.28316063033E+02 -0.59996528692E+03  0.60266097261E+03  0.10000000000E+01 0.  0.
    9000005    1    3    3    0    0 -0.49387275409E+02  0.28316063033E+02 -0.24692962011E+03  0.25340903632E+03  0.10000000000E+01 0.  0.
<mgrwt>
<rscale>  0 0.12499951E+03</rscale>
<asrwt>0</asrwt>
<pdfrwt beam="2">  1        4 0.13099718E+00 0.12499951E+03</pdfrwt>
<pdfrwt beam="1">  1       -4 0.70577775E-03 0.12499951E+03</pdfrwt>
<totfact> 0.35880631E+03</totfact>
</mgrwt>
</event>
<event>
 5    1  0.3184438E-002  0.1249882E+03  0.7818608E-02  0.1235088E+00
          4   -1    0    0  501    0  0.00000000000E+00  0.00000000000E+00  0.31986752553E+01  0.34415728075E+01  0.12700000000E+01 0. -1.
         -4   -1    0    0    0  501 -0.00000000000E+00 -0.00000000000E+00 -0.11760724808E+04  0.11760731665E+04  0.12700000000E+01 0. -1.
         25    2    1    2    0    0  0.00000000000E+00  0.00000000000E+00 -0.11728738055E+04  0.11795147393E+04  0.12498822562E+03 0.  0.
    9000005    1    3    3    0    0 -0.44372906832E+02 -0.16919916210E+02 -0.96968578867E+03  0.97084847796E+03  0.10000000000E+01 0.  0.
    9000005    1    3    3    0    0  0.44372906832E+02  0.16919916210E+02 -0.20318801684E+03  0.20866626132E+03  0.10000000000E+01 0.  0.
<mgrwt>
<rscale>  0 0.12498823E+03</rscale>
<asrwt>0</asrwt>
<pdfrwt beam="1">  1        4 0.51084200E-03 0.12498823E+03</pdfrwt>
<pdfrwt beam="2">  1       -4 0.18095263E+00 0.12498823E+03</pdfrwt>
<totfact> 0.25261879E+03</totfact>
</mgrwt>
</event>
<event>
 5    1  0.3184438E-002  0.1249934E+03  0.7818608E-02  0.1235080E+00
          4   -1    0    0  501    0  0.00000000000E+00  0.00000000000E+00  0.87340469055E+01  0.88258979910E+01  0.12700000000E+01 0.  1.
         -4   -1    0    0    0  501 -0.00000000000E+00 -0.00000000000E+00 -0.44476491432E+03  0.44476672752E+03  0.12700000000E+01 0.  1.
         25    2    1    2    0    0  0.00000000000E+00  0.00000000000E+00 -0.43603086742E+03  0.45359262552E+03  0.12499341015E+03 0.  0.
    9000005    1    3    3    0    0  0.24020052603E+02  0.51700163357E+02 -0.31088833605E+03  0.31607345239E+03  0.10000000000E+01 0.  0.
    9000005    1    3    3    0    0 -0.24020052603E+02 -0.51700163357E+02 -0.12514253137E+03  0.13751917312E+03  0.10000000000E+01 0.  0.
<mgrwt>
<rscale>  0 0.12499341E+03</rscale>
<asrwt>0</asrwt>
<pdfrwt beam="1">  1        4 0.13509048E-02 0.12499341E+03</pdfrwt>
<pdfrwt beam="2">  1       -4 0.68432559E-01 0.12499341E+03</pdfrwt>
<totfact> 0.59662491E+03</totfact>
</mgrwt>
</event>
<event>
 5    1  0.3184438E-002  0.1250044E+03  0.7818608E-02  0.1235062E+00
         -4   -1    0    0    0  501 -0.00000000000E+00  0.00000000000E+00  0.54866582818E+02  0.54881279232E+02  0.12700000000E+01 0. -1.
          4   -1    0    0  501    0  0.00000000000E+00 -0.00000000000E+00 -0.71170575412E+02  0.71181905738E+02  0.12700000000E+01 0. -1.
         25    2    1    2    0    0  0.00000000000E+00  0.00000000000E+00 -0.16303992594E+02  0.12606318497E+03  0.12500442564E+03 0.  0.
    9000005    1    3    3    0    0  0.51610357987E+02 -0.50097399647E+01 -0.43330105911E+02  0.67581244619E+02  0.10000000000E+01 0.  0.
    9000005    1    3    3    0    0 -0.51610357987E+02  0.50097399647E+01  0.27026113317E+02  0.58481940350E+02  0.10000000000E+01 0.  0.
<mgrwt>
<rscale>  0 0.12500443E+03</rscale>
<asrwt>0</asrwt>
<pdfrwt beam="2">  1        4 0.10951321E-01 0.12500443E+03</pdfrwt>
<pdfrwt beam="1">  1       -4 0.84430148E-02 0.12500443E+03</pdfrwt>
<totfact> 0.10428531E+04</totfact>
</mgrwt>
</event>
<event>
 5    1  0.3184438E-002  0.1249657E+03  0.7818608E-02  0.1235123E+00
         -4   -1    0    0    0  501 -0.00000000000E+00  0.00000000000E+00  0.29947779637E+02  0.29974696081E+02  0.12700000000E+01 0.  1.
          4   -1    0    0  501    0  0.00000000000E+00 -0.00000000000E+00 -0.13027533963E+03  0.13028152984E+03  0.12700000000E+01 0.  1.
         25    2    1    2    0    0  0.00000000000E+00  0.00000000000E+00 -0.10032756000E+03  0.16025622592E+03  0.12496574991E+03 0.  0.
    9000005    1    3    3    0    0 -0.56393310765E+02  0.21387634152E+02 -0.29269168051E+02  0.67047152006E+02  0.10000000000E+01 0.  0.
    9000005    1    3    3    0    0  0.56393310765E+02 -0.21387634152E+02 -0.71058391947E+02  0.93209073913E+02  0.10000000000E+01 0.  0.
<mgrwt>
<rscale>  0 0.12496575E+03</rscale>
<asrwt>0</asrwt>
<pdfrwt beam="2">  1        4 0.20044906E-01 0.12496575E+03</pdfrwt>
<pdfrwt beam="1">  1       -4 0.46098974E-02 0.12496575E+03</pdfrwt>
<totfact> 0.97368346E+03</totfact>
</mgrwt>
</event>
<event>
 5    1  0.3184438E-002  0.1249965E+03  0.7818608E-02  0.1235075E+00
          4   -1    0    0  501    0  0.00000000000E+00  0.00000000000E+00  0.97516773021E+01  0.98340281779E+01  0.12700000000E+01 0.  1.
         -4   -1    0    0    0  501 -0.00000000000E+00 -0.00000000000E+00 -0.39878229888E+03  0.39878432116E+03  0.12700000000E+01 0.  1.
         25    2    1    2    0    0  0.00000000000E+00  0.00000000000E+00 -0.38903062158E+03  0.40861834934E+03  0.12499652350E+03 0.  0.
    9000005    1    3    3    0    0 -0.47842217112E+02  0.26259613744E+01 -0.63375985148E+02  0.79456207465E+02  0.10000000000E+01 0.  0.
    9000005    1    3    3    0    0  0.47842217112E+02 -0.26259613744E+01 -0.32565463643E+03  0.32916214187E+03  0.10000000000E+01 0.  0.
<mgrwt>
<rscale>  0 0.12499652E+03</rscale>
<asrwt>0</asrwt>
<pdfrwt beam="1">  1        4 0.15067486E-02 0.12499652E+03</pdfrwt>
<pdfrwt beam="2">  1       -4 0.61357600E-01 0.12499652E+03</pdfrwt>
<totfact> 0.63728017E+03</totfact>
</mgrwt>
</event>
<event>
 5    1  0.3184438E-002  0.1249871E+03  0.7818608E-02  0.1235090E+00
          4   -1    0    0  501    0  0.00000000000E+00  0.00000000000E+00  0.53578217534E+02  0.53593267246E+02  0.12700000000E+01 0.  1.
         -4   -1    0    0    0  501 -0.00000000000E+00 -0.00000000000E+00 -0.72861507859E+02  0.72872575276E+02  0.12700000000E+01 0.  1.
         25    2    1    2    0    0  0.00000000000E+00  0.00000000000E+00 -0.19283290324E+02  0.12646584252E+03  0.12498705549E+03 0.  0.
    9000005    1    3    3    0    0 -0.59592337940E+02 -0.17785626969E+02 -0.15785199371E+02  0.64169679654E+02  0.10000000000E+01 0.  0.
    9000005    1    3    3    0    0  0.59592337940E+02  0.17785626969E+02 -0.34980909539E+01  0.62296162868E+02  0.10000000000E+01 0.  0.
<mgrwt>
<rscale>  0 0.12498706E+03</rscale>
<asrwt>0</asrwt>
<pdfrwt beam="1">  1        4 0.82448117E-02 0.12498706E+03</pdfrwt>
<pdfrwt beam="2">  1       -4 0.11211472E-01 0.12498706E+03</pdfrwt>
<totfact> 0.10423818E+04</totfact>
</mgrwt>
</event>
<event>
 5    1  0.3184438E-002  0.1249892E+03  0.7818608E-02  0.1235086E+00
         -4   -1    0    0    0  501 -0.00000000000E+00  0.00000000000E+00  0.90228918642E+01  0.91118317365E+01  0.12700000000E+01 0.  1.
          4   -1    0    0  501    0  0.00000000000E+00 -0.00000000000E+00 -0.43063871774E+03  0.43064059042E+03  0.12700000000E+01 0.  1.
         25    2    1    2    0    0  0.00000000000E+00  0.00000000000E+00 -0.42161582587E+03  0.43975242215E+03  0.12498915218E+03 0.  0.
    9000005    1    3    3    0    0 -0.30624797535E+02 -0.53730227393E+02 -0.17938699201E+03  0.18975117512E+03  0.10000000000E+01 0.  0.
    9000005    1    3    3    0    0  0.30624797535E+02  0.53730227393E+02 -0.24222883387E+03  0.25000124703E+03  0.10000000000E+01 0.  0.
<mgrwt>
<rscale>  0 0.12498915E+03</rscale>
<asrwt>0</asrwt>
<pdfrwt beam="2">  1        4 0.66259080E-01 0.12498915E+03</pdfrwt>
<pdfrwt beam="1">  1       -4 0.13951231E-02 0.12498915E+03</pdfrwt>
<totfact> 0.60876394E+03</totfact>
</mgrwt>
</event>
<event>
 5    1  0.3184438E-002  0.1250004E+03  0.7818608E-02  0.1235069E+00
         -4   -1    0    0    0  501 -0.00000000000E+00  0.00000000000E+00  0.29505750200E+02  0.29533069513E+02  0.12700000000E+01 0.  1.
          4   -1    0    0  501    0  0.00000000000E+00 -0.00000000000E+00 -0.13229858310E+03  0.13230467864E+03  0.12700000000E+01 0.  1.
         25    2    1    2    0    0  0.00000000000E+00  0.00000000000E+00 -0.10279283290E+03  0.16183774815E+03  0.12500036093E+03 0.  0.
    9000005    1    3    3    0    0  0.12419243207E+02  0.37744901423E+02 -0.11384272572E+03  0.12058225983E+03  0.10000000000E+01 0.  0.
    9000005    1    3    3    0    0 -0.12419243207E+02 -0.37744901423E+02  0.11049892825E+02  0.41255488323E+02  0.10000000000E+01 0.  0.
<mgrwt>
<rscale>  0 0.12500036E+03</rscale>
<asrwt>0</asrwt>
<pdfrwt beam="2">  1        4 0.20356198E-01 0.12500036E+03</pdfrwt>
<pdfrwt beam="1">  1       -4 0.45419166E-02 0.12500036E+03</pdfrwt>
<totfact> 0.96988861E+03</totfact>
</mgrwt>
</event>
<event>
 5    1  0.3184438E-002  0.1250005E+03  0.7818608E-02  0.1235069E+00
          4   -1    0    0  501    0  0.00000000000E+00  0.00000000000E+00  0.43827009807E+01  0.45629998780E+01  0.12700000000E+01 0. -1.
         -4   -1    0    0    0  501 -0.00000000000E+00 -0.00000000000E+00 -0.87315015692E+03  0.87315108053E+03  0.12700000000E+01 0. -1.
         25    2    1    2    0    0  0.00000000000E+00  0.00000000000E+00 -0.86876745594E+03  0.87771408041E+03  0.12500045778E+03 0.  0.
    9000005    1    3    3    0    0 -0.41843373893E+02 -0.46194513324E+02 -0.46615840260E+03  0.47030783250E+03  0.10000000000E+01 0.  0.
    9000005    1    3    3    0    0  0.41843373893E+02  0.46194513324E+02 -0.40260905334E+03  0.40740624791E+03  0.10000000000E+01 0.  0.
<mgrwt>
<rscale>  0 0.12500046E+03</rscale>
<asrwt>0</asrwt>
<pdfrwt beam="1">  1        4 0.68820258E-03 0.12500046E+03</pdfrwt>
<pdfrwt beam="2">  1       -4 0.13434460E+00 0.12500046E+03</pdfrwt>
<totfact> 0.35018974E+03</totfact>
</mgrwt>
</event>
<event>
 5    1  0.3184438E-002  0.1250004E+03  0.7818608E-02  0.1235069E+00
         -4   -1    0    0    0  501 -0.00000000000E+00  0.00000000000E+00  0.14083597786E+02  0.14140743495E+02  0.12700000000E+01 0.  1.
          4   -1    0    0  501    0  0.00000000000E+00 -0.00000000000E+00 -0.27674328464E+03  0.27674619870E+03  0.12700000000E+01 0.  1.
         25    2    1    2    0    0  0.00000000000E+00  0.00000000000E+00 -0.26265968685E+03  0.29088694219E+03  0.12500040816E+03 0.  0.
    9000005    1    3    3    0    0 -0.40081544098E+02  0.99267544297E+01 -0.24048502515E+03  0.24400638916E+03  0.10000000000E+01 0.  0.
    9000005    1    3    3    0    0  0.40081544098E+02 -0.99267544297E+01 -0.22174661707E+02  0.46880553032E+02  0.10000000000E+01 0.  0.
<mgrwt>
<rscale>  0 0.12500041E+03</rscale>
<asrwt>0</asrwt>
<pdfrwt beam="2">  1        4 0.42580506E-01 0.12500041E+03</pdfrwt>
<pdfrwt beam="1">  1       -4 0.21713275E-02 0.12500041E+03</pdfrwt>
<totfact> 0.76755676E+03</totfact>
</mgrwt>
</event>
<event>
 5    1  0.3184438E-002  0.1249974E+03  0.7818608E-02  0.1235073E+00
         -4   -1    0    0    0  501 -0.00000000000E+00  0.00000000000E+00  0.10425599350E+02  0.10502667366E+02  0.12700000000E+01 0.  1.
          4   -1    0    0  501    0  0.00000000000E+00 -0.00000000000E+00 -0.37320551253E+03  0.37320767339E+03  0.12700000000E+01 0.  1.
         25    2    1    2    0    0  0.00000000000E+00  0.00000000000E+00 -0.36277991318E+03  0.38371034076E+03  0.12499744078E+03 0.  0.
    9000005    1    3    3    0    0  0.13067279963E+02  0.18725334770E+02 -0.28241973469E+01  0.23029721200E+02  0.10000000000E+01 0.  0.
    9000005    1    3    3    0    0 -0.13067279963E+02 -0.18725334770E+02 -0.35995571583E+03  0.36068061956E+03  0.10000000000E+01 0.  0.
<mgrwt>
<rscale>  0 0.12499744E+03</rscale>
<asrwt>0</asrwt>
<pdfrwt beam="2">  1        4 0.57422317E-01 0.12499744E+03</pdfrwt>
<pdfrwt beam="1">  1       -4 0.16100332E-02 0.12499744E+03</pdfrwt>
<totfact> 0.66172295E+03</totfact>
</mgrwt>
</event>
<event>
 5    1  0.3184438E-002  0.1250013E+03  0.7818608E-02  0.1235067E+00
         -4   -1    0    0    0  501 -0.00000000000E+00  0.00000000000E+00  0.32069965168E+02  0.32095101898E+02  0.12700000000E+01 0.  1.
          4   -1    0    0  501    0  0.00000000000E+00 -0.00000000000E+00 -0.12173029823E+03  0.12173692294E+03  0.12700000000E+01 0.  1.
         25    2    1    2    0    0  0.00000000000E+00  0.00000000000E+00 -0.89660333061E+02  0.15383202484E+03  0.12500126616E+03 0.  0.
    9000005    1    3    3    0    0 -0.14719041020E+01  0.37955249109E+02 -0.10589988314E+03  0.11251023369E+03  0.10000000000E+01 0.  0.
    9000005    1    3    3    0    0  0.14719041020E+01 -0.37955249109E+02  0.16239550079E+02  0.41321791145E+02  0.10000000000E+01 0.  0.
<mgrwt>
<rscale>  0 0.12500127E+03</rscale>
<asrwt>0</asrwt>
<pdfrwt beam="2">  1        4 0.18730181E-01 0.12500127E+03</pdfrwt>
<pdfrwt beam="1">  1       -4 0.49362840E-02 0.12500127E+03</pdfrwt>
<totfact> 0.98542446E+03</totfact>
</mgrwt>
</event>
<event>
 5    1  0.3184438E-002  0.1249981E+03  0.7818608E-02  0.1235072E+00
         -4   -1    0    0    0  501 -0.00000000000E+00  0.00000000000E+00  0.26301896615E+03  0.26302203226E+03  0.12700000000E+01 0.  1.
          4   -1    0    0  501    0  0.00000000000E+00 -0.00000000000E+00 -0.14820837258E+02  0.14875150991E+02  0.12700000000E+01 0.  1.
         25    2    1    2    0    0  0.00000000000E+00  0.00000000000E+00  0.24819812889E+03  0.27789718325E+03  0.12499813308E+03 0.  0.
    9000005    1    3    3    0    0 -0.35322765878E+02 -0.98199670163E+01  0.11590462606E+02  0.38463857905E+02  0.10000000000E+01 0.  0.
    9000005    1    3    3    0    0  0.35322765878E+02  0.98199670163E+01  0.23660766628E+03  0.23943332535E+03  0.10000000000E+01 0.  0.
<mgrwt>
<rscale>  0 0.12499813E+03</rscale>
<asrwt>0</asrwt>
<pdfrwt beam="2">  1        4 0.22845429E-02 0.12499813E+03</pdfrwt>
<pdfrwt beam="1">  1       -4 0.40468865E-01 0.12499813E+03</pdfrwt>
<totfact> 0.78461011E+03</totfact>
</mgrwt>
</event>
<event>
 5    1  0.3184438E-002  0.1249996E+03  0.7818608E-02  0.1235070E+00
         -4   -1    0    0    0  501 -0.00000000000E+00  0.00000000000E+00  0.86429367633E+02  0.86438697870E+02  0.12700000000E+01 0. -1.
          4   -1    0    0  501    0  0.00000000000E+00 -0.00000000000E+00 -0.45174859534E+02  0.45192707752E+02  0.12700000000E+01 0. -1.
         25    2    1    2    0    0  0.00000000000E+00  0.00000000000E+00  0.41254508098E+02  0.13163140562E+03  0.12499957003E+03 0.  0.
    9000005    1    3    3    0    0  0.18297171549E+02 -0.88019710478E+01 -0.41609642289E+02  0.46310080031E+02  0.10000000000E+01 0.  0.
    9000005    1    3    3    0    0 -0.18297171549E+02  0.88019710478E+01  0.82864150388E+02  0.85321325590E+02  0.10000000000E+01 0.  0.
<mgrwt>
<rscale>  0 0.12499957E+03</rscale>
<asrwt>0</asrwt>
<pdfrwt beam="2">  1        4 0.69520692E-02 0.12499957E+03</pdfrwt>
<pdfrwt beam="1">  1       -4 0.13298916E-01 0.12499957E+03</pdfrwt>
<totfact> 0.10309672E+04</totfact>
</mgrwt>
</event>
<event>
 4    1  0.3184438E-002  0.1250656E+03  0.7818608E-02  0.1234967E+00
          4   -1    0    0  501    0  0.00000000000E+00  0.00000000000E+00  0.38800652833E+01  0.40826225153E+01  0.12700000000E+01 0.  1.
         -4   -1    0    0    0  501 -0.00000000000E+00 -0.00000000000E+00 -0.98196539083E+03  0.98196621209E+03  0.12700000000E+01 0.  1.
    9000005    1    1    2    0    0 -0.93419778541E+01  0.19079465024E+02 -0.95267779708E+03  0.95291515026E+03  0.10000000000E+01 0.  0.
    9000005    1    1    2    0    0  0.93419778541E+01 -0.19079465024E+02 -0.25407528461E+02  0.33133684345E+02  0.10000000000E+01 0.  0.
<mgrwt>
<rscale>  0 0.12506558E+03</rscale>
<asrwt>0</asrwt>
<pdfrwt beam="1">  1        4 0.61257840E-03 0.12506558E+03</pdfrwt>
<pdfrwt beam="2">  1       -4 0.15108705E+00 0.12506558E+03</pdfrwt>
<totfact> 0.31025284E+03</totfact>
</mgrwt>
</event>
<event>
 5    1  0.3184438E-002  0.1249990E+03  0.7818608E-02  0.1235071E+00
         -4   -1    0    0    0  501 -0.00000000000E+00  0.00000000000E+00  0.33153732404E+03  0.33153975648E+03  0.12700000000E+01 0.  1.
          4   -1    0    0  501    0  0.00000000000E+00 -0.00000000000E+00 -0.11745334220E+02  0.11813796000E+02  0.12700000000E+01 0.  1.
         25    2    1    2    0    0  0.00000000000E+00  0.00000000000E+00  0.31979198982E+03  0.34335355248E+03  0.12499898101E+03 0.  0.
    9000005    1    3    3    0    0 -0.22186429315E+02 -0.22566223506E+02  0.30791313492E+03  0.30953670339E+03  0.10000000000E+01 0.  0.
    9000005    1    3    3    0    0  0.22186429315E+02  0.22566223506E+02  0.11878854898E+02  0.33816849096E+02  0.10000000000E+01 0.  0.
<mgrwt>
<rscale>  0 0.12499898E+03</rscale>
<asrwt>0</asrwt>
<pdfrwt beam="2">  1        4 0.18124277E-02 0.12499898E+03</pdfrwt>
<pdfrwt beam="1">  1       -4 0.51011200E-01 0.12499898E+03</pdfrwt>
<totfact> 0.70463573E+03</totfact>
</mgrwt>
</event>
<event>
 5    1  0.3184438E-002  0.1249985E+03  0.7818608E-02  0.1235072E+00
         -4   -1    0    0    0  501 -0.00000000000E+00  0.00000000000E+00  0.61455185192E+01  0.62753723292E+01  0.12700000000E+01 0.  1.
          4   -1    0    0  501    0  0.00000000000E+00 -0.00000000000E+00 -0.62883500672E+03  0.62883628916E+03  0.12700000000E+01 0.  1.
         25    2    1    2    0    0  0.00000000000E+00  0.00000000000E+00 -0.62268948820E+03  0.63511166149E+03  0.12499849541E+03 0.  0.
    9000005    1    3    3    0    0  0.32116494366E+02  0.45358963388E+02 -0.45650817240E+03  0.45988000200E+03  0.10000000000E+01 0.  0.
    9000005    1    3    3    0    0 -0.32116494366E+02 -0.45358963388E+02 -0.16618131580E+03  0.17523165950E+03  0.10000000000E+01 0.  0.
<mgrwt>
<rscale>  0 0.12499850E+03</rscale>
<asrwt>0</asrwt>
<pdfrwt beam="2">  1        4 0.96753885E-01 0.12499850E+03</pdfrwt>
<pdfrwt beam="1">  1       -4 0.95555228E-03 0.12499850E+03</pdfrwt>
<totfact> 0.46725267E+03</totfact>
</mgrwt>
</event>
<event>
 5    1  0.3184438E-002  0.1249996E+03  0.7818608E-02  0.1235070E+00
         -4   -1    0    0    0  501 -0.00000000000E+00  0.00000000000E+00  0.99398606156E+01  0.10020665101E+02  0.12700000000E+01 0. -1.
          4   -1    0    0  501    0  0.00000000000E+00 -0.00000000000E+00 -0.39131342669E+03  0.39131548756E+03  0.12700000000E+01 0. -1.
         25    2    1    2    0    0  0.00000000000E+00  0.00000000000E+00 -0.38137356607E+03  0.40133615266E+03  0.12499964214E+03 0.  0.
    9000005    1    3    3    0    0  0.16482590501E+02 -0.60157895477E+02 -0.17842735598E+03  0.18901843703E+03  0.10000000000E+01 0.  0.
    9000005    1    3    3    0    0 -0.16482590501E+02  0.60157895477E+02 -0.20294621009E+03  0.21231771563E+03  0.10000000000E+01 0.  0.
<mgrwt>
<rscale>  0 0.12499964E+03</rscale>
<asrwt>0</asrwt>
<pdfrwt beam="2">  1        4 0.60208428E-01 0.12499964E+03</pdfrwt>
<pdfrwt beam="1">  1       -4 0.15355839E-02 0.12499964E+03</pdfrwt>
<totfact> 0.64423558E+03</totfact>
</mgrwt>
</event>
<event>
 5    1  0.3184438E-002  0.1250015E+03  0.7818608E-02  0.1235067E+00
         -4   -1    0    0    0  501 -0.00000000000E+00  0.00000000000E+00  0.56162352604E+01  0.57580377300E+01  0.12700000000E+01 0.  1.
          4   -1    0    0  501    0  0.00000000000E+00 -0.00000000000E+00 -0.68673156429E+03  0.68673273862E+03  0.12700000000E+01 0.  1.
         25    2    1    2    0    0  0.00000000000E+00  0.00000000000E+00 -0.68111532903E+03  0.69249077635E+03  0.12500153555E+03 0.  0.
    9000005    1    3    3    0    0  0.25610567678E+02  0.14718820604E+02 -0.35472836358E+02  0.46172145023E+02  0.10000000000E+01 0.  0.
    9000005    1    3    3    0    0 -0.25610567678E+02 -0.14718820604E+02 -0.64564249267E+03  0.64631863132E+03  0.10000000000E+01 0.  0.
<mgrwt>
<rscale>  0 0.12500154E+03</rscale>
<asrwt>0</asrwt>
<pdfrwt beam="2">  1        4 0.10566194E+00 0.12500154E+03</pdfrwt>
<pdfrwt beam="1">  1       -4 0.87503496E-03 0.12500154E+03</pdfrwt>
<totfact> 0.43484626E+03</totfact>
</mgrwt>
</event>
<event>
 5    1  0.3184438E-002  0.1249992E+03  0.7818608E-02  0.1235070E+00
          4   -1    0    0  501    0  0.00000000000E+00  0.00000000000E+00  0.20745271335E+02  0.20784108900E+02  0.12700000000E+01 0. -1.
         -4   -1    0    0    0  501 -0.00000000000E+00 -0.00000000000E+00 -0.18807657204E+03  0.18808085987E+03  0.12700000000E+01 0. -1.
         25    2    1    2    0    0  0.00000000000E+00  0.00000000000E+00 -0.16733130071E+03  0.20886496877E+03  0.12499924394E+03 0.  0.
    9000005    1    3    3    0    0  0.28275368665E+02 -0.31760565782E+02 -0.71492358683E+01  0.43131677285E+02  0.10000000000E+01 0.  0.
    9000005    1    3    3    0    0 -0.28275368665E+02  0.31760565782E+02 -0.16018206484E+03  0.16573329149E+03  0.10000000000E+01 0.  0.
<mgrwt>
<rscale>  0 0.12499924E+03</rscale>
<asrwt>0</asrwt>
<pdfrwt beam="1">  1        4 0.31948977E-02 0.12499924E+03</pdfrwt>
<pdfrwt beam="2">  1       -4 0.28938173E-01 0.12499924E+03</pdfrwt>
<totfact> 0.88663082E+03</totfact>
</mgrwt>
</event>
<event>
 5    1  0.3184438E-002  0.1250024E+03  0.7818608E-02  0.1235065E+00
         -4   -1    0    0    0  501 -0.00000000000E+00  0.00000000000E+00  0.38464691185E+03  0.38464900845E+03  0.12700000000E+01 0. -1.
          4   -1    0    0  501    0  0.00000000000E+00 -0.00000000000E+00 -0.10113978047E+02  0.10193402373E+02  0.12700000000E+01 0. -1.
         25    2    1    2    0    0  0.00000000000E+00  0.00000000000E+00  0.37453293381E+03  0.39484241082E+03  0.12500244348E+03 0.  0.
    9000005    1    3    3    0    0 -0.20371108610E+02  0.11229390361E+02  0.40544167765E+01  0.23633018624E+02  0.10000000000E+01 0.  0.
    9000005    1    3    3    0    0  0.20371108610E+02 -0.11229390361E+02  0.37047851703E+03  0.37120939220E+03  0.10000000000E+01 0.  0.
<mgrwt>
<rscale>  0 0.12500244E+03</rscale>
<asrwt>0</asrwt>
<pdfrwt beam="2">  1        4 0.15622673E-02 0.12500244E+03</pdfrwt>
<pdfrwt beam="1">  1       -4 0.59182725E-01 0.12500244E+03</pdfrwt>
<totfact> 0.65054004E+03</totfact>
</mgrwt>
</event>
<event>
 5    1  0.3184438E-002  0.1249967E+03  0.7818608E-02  0.1235074E+00
          4   -1    0    0  501    0  0.00000000000E+00  0.00000000000E+00  0.30148030918E+02  0.30174768735E+02  0.12700000000E+01 0.  1.
         -4   -1    0    0    0  501 -0.00000000000E+00 -0.00000000000E+00 -0.12947484519E+03  0.12948107366E+03  0.12700000000E+01 0.  1.
         25    2    1    2    0    0  0.00000000000E+00  0.00000000000E+00 -0.99326814267E+02  0.15965584239E+03  0.12499668787E+03 0.  0.
    9000005    1    3    3    0    0  0.17475736968E+02  0.39008948424E+02 -0.10788756066E+03  0.11605095943E+03  0.10000000000E+01 0.  0.
    9000005    1    3    3    0    0 -0.17475736968E+02 -0.39008948424E+02  0.85607463885E+01  0.43604882966E+02  0.10000000000E+01 0.  0.
<mgrwt>
<rscale>  0 0.12499669E+03</rscale>
<asrwt>0</asrwt>
<pdfrwt beam="1">  1        4 0.46406945E-02 0.12499669E+03</pdfrwt>
<pdfrwt beam="2">  1       -4 0.19921743E-01 0.12499669E+03</pdfrwt>
<totfact> 0.97416429E+03</totfact>
</mgrwt>
</event>
<event>
 5    1  0.3184438E-002  0.1250023E+03  0.7818608E-02  0.1235066E+00
          4   -1    0    0  501    0  0.00000000000E+00  0.00000000000E+00  0.52440616560E+02  0.52455992653E+02  0.12700000000E+01 0. -1.
         -4   -1    0    0    0  501 -0.00000000000E+00 -0.00000000000E+00 -0.74460019265E+02  0.74470849122E+02  0.12700000000E+01 0. -1.
         25    2    1    2    0    0  0.00000000000E+00  0.00000000000E+00 -0.22019402705E+02  0.12692684178E+03  0.12500227625E+03 0.  0.
    9000005    1    3    3    0    0 -0.15575383518E+02  0.32108394520E+02 -0.63101118994E+02  0.72500295094E+02  0.10000000000E+01 0.  0.
    9000005    1    3    3    0    0  0.15575383518E+02 -0.32108394520E+02  0.41081716289E+02  0.54426546681E+02  0.10000000000E+01 0.  0.
<mgrwt>
<rscale>  0 0.12500228E+03</rscale>
<asrwt>0</asrwt>
<pdfrwt beam="1">  1        4 0.80698030E-02 0.12500228E+03</pdfrwt>
<pdfrwt beam="2">  1       -4 0.11457403E-01 0.12500228E+03</pdfrwt>
<totfact> 0.10410201E+04</totfact>
</mgrwt>
</event>
<event>
 5    1  0.3184438E-002  0.1249951E+03  0.7818608E-02  0.1235077E+00
         -4   -1    0    0    0  501 -0.00000000000E+00  0.00000000000E+00  0.25792867460E+03  0.25793180122E+03  0.12700000000E+01 0.  1.
          4   -1    0    0  501    0  0.00000000000E+00 -0.00000000000E+00 -0.15113648913E+02  0.15166914105E+02  0.12700000000E+01 0.  1.
         25    2    1    2    0    0  0.00000000000E+00  0.00000000000E+00  0.24281502569E+03  0.27309871533E+03  0.12499508636E+03 0.  0.
    9000005    1    3    3    0    0 -0.17746785986E+02  0.44802362420E+02  0.20832994930E+03  0.21383303736E+03  0.10000000000E+01 0.  0.
    9000005    1    3    3    0    0  0.17746785986E+02 -0.44802362420E+02  0.34485076384E+02  0.59265677963E+02  0.10000000000E+01 0.  0.
<mgrwt>
<rscale>  0 0.12499509E+03</rscale>
<asrwt>0</asrwt>
<pdfrwt beam="2">  1        4 0.23295146E-02 0.12499509E+03</pdfrwt>
<pdfrwt beam="1">  1       -4 0.39685671E-01 0.12499509E+03</pdfrwt>
<totfact> 0.79110799E+03</totfact>
</mgrwt>
</event>
<event>
 5    1  0.3184438E-002  0.1250004E+03  0.7818608E-02  0.1235069E+00
          4   -1    0    0  501    0  0.00000000000E+00  0.00000000000E+00  0.24020261693E+03  0.24020597428E+03  0.12700000000E+01 0. -1.
         -4   -1    0    0    0  501 -0.00000000000E+00 -0.00000000000E+00 -0.16234154276E+02  0.16283754636E+02  0.12700000000E+01 0. -1.
         25    2    1    2    0    0  0.00000000000E+00  0.00000000000E+00  0.22396846265E+03  0.25648972891E+03  0.12500043510E+03 0.  0.
    9000005    1    3    3    0    0  0.10907013359E+02  0.35492715328E+02  0.88447122034E+01  0.38182780356E+02  0.10000000000E+01 0.  0.
    9000005    1    3    3    0    0 -0.10907013359E+02 -0.35492715328E+02  0.21512375045E+03  0.21830694856E+03  0.10000000000E+01 0.  0.
<mgrwt>
<rscale>  0 0.12500044E+03</rscale>
<asrwt>0</asrwt>
<pdfrwt beam="1">  1        4 0.36958322E-01 0.12500044E+03</pdfrwt>
<pdfrwt beam="2">  1       -4 0.25016359E-02 0.12500044E+03</pdfrwt>
<totfact> 0.81400426E+03</totfact>
</mgrwt>
</event>
<event>
 5    1  0.3184438E-002  0.1250002E+03  0.7818608E-02  0.1235069E+00
          4   -1    0    0  501    0  0.00000000000E+00  0.00000000000E+00  0.17412193498E+02  0.17458447309E+02  0.12700000000E+01 0.  1.
         -4   -1    0    0    0  501 -0.00000000000E+00 -0.00000000000E+00 -0.22399507849E+03  0.22399867876E+03  0.12700000000E+01 0.  1.
         25    2    1    2    0    0  0.00000000000E+00  0.00000000000E+00 -0.20658288499E+03  0.24145712607E+03  0.12500022144E+03 0.  0.
    9000005    1    3    3    0    0  0.42392535501E+02  0.42587879592E+02 -0.13643544830E+03  0.14908549932E+03  0.10000000000E+01 0.  0.
    9000005    1    3    3    0    0 -0.42392535501E+02 -0.42587879592E+02 -0.70147436687E+02  0.92371626749E+02  0.10000000000E+01 0.  0.
<mgrwt>
<rscale>  0 0.12500022E+03</rscale>
<asrwt>0</asrwt>
<pdfrwt beam="1">  1        4 0.26826341E-02 0.12500022E+03</pdfrwt>
<pdfrwt beam="2">  1       -4 0.34464614E-01 0.12500022E+03</pdfrwt>
<totfact> 0.83580420E+03</totfact>
</mgrwt>
</event>
<event>
 5    1  0.3184438E-002  0.1249992E+03  0.7818608E-02  0.1235071E+00
          4   -1    0    0  501    0  0.00000000000E+00  0.00000000000E+00  0.33276793775E+02  0.33301019563E+02  0.12700000000E+01 0. -1.
         -4   -1    0    0    0  501 -0.00000000000E+00 -0.00000000000E+00 -0.11731467072E+03  0.11732154476E+03  0.12700000000E+01 0. -1.
         25    2    1    2    0    0  0.00000000000E+00  0.00000000000E+00 -0.84037876941E+02  0.15062256432E+03  0.12499916849E+03 0.  0.
    9000005    1    3    3    0    0  0.50897027795E+02  0.14627117280E+02 -0.20405853897E+01  0.53005886343E+02  0.10000000000E+01 0.  0.
    9000005    1    3    3    0    0 -0.50897027795E+02 -0.14627117280E+02 -0.81997291551E+02  0.97616677981E+02  0.10000000000E+01 0.  0.
<mgrwt>
<rscale>  0 0.12499917E+03</rscale>
<asrwt>0</asrwt>
<pdfrwt beam="1">  1        4 0.51218991E-02 0.12499917E+03</pdfrwt>
<pdfrwt beam="2">  1       -4 0.18050803E-01 0.12499917E+03</pdfrwt>
<totfact> 0.99181600E+03</totfact>
</mgrwt>
</event>
<event>
 5    1  0.3184438E-002  0.1250026E+03  0.7818608E-02  0.1235065E+00
         -4   -1    0    0    0  501 -0.00000000000E+00  0.00000000000E+00  0.60993332375E+02  0.61006552880E+02  0.12700000000E+01 0.  1.
          4   -1    0    0  501    0  0.00000000000E+00 -0.00000000000E+00 -0.64020114867E+02  0.64032710450E+02  0.12700000000E+01 0.  1.
         25    2    1    2    0    0  0.00000000000E+00  0.00000000000E+00 -0.30267824919E+01  0.12503926333E+03  0.12500262382E+03 0.  0.
    9000005    1    3    3    0    0  0.63160955714E+01 -0.52374260101E+02 -0.35026312778E+02  0.63330867444E+02  0.10000000000E+01 0.  0.
    9000005    1    3    3    0    0 -0.63160955714E+01  0.52374260101E+02  0.31999530286E+02  0.61708395886E+02  0.10000000000E+01 0.  0.
<mgrwt>
<rscale>  0 0.12500262E+03</rscale>
<asrwt>0</asrwt>
<pdfrwt beam="2">  1        4 0.98512343E-02 0.12500262E+03</pdfrwt>
<pdfrwt beam="1">  1       -4 0.93855754E-02 0.12500262E+03</pdfrwt>
<totfact> 0.10451390E+04</totfact>
</mgrwt>
</event>
<event>
 5    1  0.3184438E-002  0.1250040E+03  0.7818608E-02  0.1235063E+00
         -4   -1    0    0    0  501 -0.00000000000E+00  0.00000000000E+00  0.15865695338E+02  0.15916443967E+02  0.12700000000E+01 0.  1.
          4   -1    0    0  501    0  0.00000000000E+00 -0.00000000000E+00 -0.24577732655E+03  0.24578060775E+03  0.12700000000E+01 0.  1.
         25    2    1    2    0    0  0.00000000000E+00  0.00000000000E+00 -0.22991163122E+03  0.26169705172E+03  0.12500395478E+03 0.  0.
    9000005    1    3    3    0    0 -0.13095588973E+02 -0.19647374444E+02 -0.23609000156E+03  0.23726989402E+03  0.10000000000E+01 0.  0.
    9000005    1    3    3    0    0  0.13095588973E+02  0.19647374444E+02  0.61783703452E+01  0.24427157698E+02  0.10000000000E+01 0.  0.
<mgrwt>
<rscale>  0 0.12500395E+03</rscale>
<asrwt>0</asrwt>
<pdfrwt beam="2">  1        4 0.37816050E-01 0.12500395E+03</pdfrwt>
<pdfrwt beam="1">  1       -4 0.24450325E-02 0.12500395E+03</pdfrwt>
<totfact> 0.80661393E+03</totfact>
</mgrwt>
</event>
<event>
 5    1  0.3184438E-002  0.1249980E+03  0.7818608E-02  0.1235072E+00
         -4   -1    0    0    0  501 -0.00000000000E+00  0.00000000000E+00  0.14131589262E+03  0.14132159922E+03  0.12700000000E+01 0. -1.
          4   -1    0    0  501    0  0.00000000000E+00 -0.00000000000E+00 -0.27620236139E+02  0.27649418518E+02  0.12700000000E+01 0. -1.
         25    2    1    2    0    0  0.00000000000E+00  0.00000000000E+00  0.11369565648E+03  0.16897101774E+03  0.12499801012E+03 0.  0.
    9000005    1    3    3    0    0  0.38213059473E+02 -0.34018112245E+02  0.10535534112E+03  0.11712479574E+03  0.10000000000E+01 0.  0.
    9000005    1    3    3    0    0 -0.38213059473E+02  0.34018112245E+02  0.83403153558E+01  0.51846221995E+02  0.10000000000E+01 0.  0.
<mgrwt>
<rscale>  0 0.12499801E+03</rscale>
<asrwt>0</asrwt>
<pdfrwt beam="2">  1        4 0.42519508E-02 0.12499801E+03</pdfrwt>
<pdfrwt beam="1">  1       -4 0.21743590E-01 0.12499801E+03</pdfrwt>
<totfact> 0.95644858E+03</totfact>
</mgrwt>
</event>
<event>
 5    1  0.3184438E-002  0.1249920E+03  0.7818608E-02  0.1235082E+00
         -4   -1    0    0    0  501 -0.00000000000E+00  0.00000000000E+00  0.77256651699E+01  0.78293551661E+01  0.12700000000E+01 0.  1.
          4   -1    0    0  501    0  0.00000000000E+00 -0.00000000000E+00 -0.50208074128E+03  0.50208234749E+03  0.12700000000E+01 0.  1.
         25    2    1    2    0    0  0.00000000000E+00  0.00000000000E+00 -0.49435507611E+03  0.50991170266E+03  0.12499201268E+03 0.  0.
    9000005    1    3    3    0    0 -0.39635670608E+02  0.37370449197E+02 -0.37206881045E+03  0.37603688192E+03  0.10000000000E+01 0.  0.
    9000005    1    3    3    0    0  0.39635670608E+02 -0.37370449197E+02 -0.12228626566E+03  0.13387482074E+03  0.10000000000E+01 0.  0.
<mgrwt>
<rscale>  0 0.12499201E+03</rscale>
<asrwt>0</asrwt>
<pdfrwt beam="2">  1        4 0.77251265E-01 0.12499201E+03</pdfrwt>
<pdfrwt beam="1">  1       -4 0.11966640E-02 0.12499201E+03</pdfrwt>
<totfact> 0.55113145E+03</totfact>
</mgrwt>
</event>
<event>
 5    1  0.3184438E-002  0.1250009E+03  0.7818608E-02  0.1235068E+00
         -4   -1    0    0    0  501 -0.00000000000E+00  0.00000000000E+00  0.12148230741E+02  0.12214434500E+02  0.12700000000E+01 0.  1.
          4   -1    0    0  501    0  0.00000000000E+00 -0.00000000000E+00 -0.32061232826E+03  0.32061484359E+03  0.12700000000E+01 0.  1.
         25    2    1    2    0    0  0.00000000000E+00  0.00000000000E+00 -0.30846409751E+03  0.33282927809E+03  0.12500091559E+03 0.  0.
    9000005    1    3    3    0    0 -0.18688659034E+02  0.59615142004E+02 -0.15806851689E+03  0.16997025376E+03  0.10000000000E+01 0.  0.
    9000005    1    3    3    0    0  0.18688659034E+02 -0.59615142004E+02 -0.15039558063E+03  0.16285902433E+03  0.10000000000E+01 0.  0.
<mgrwt>
<rscale>  0 0.12500092E+03</rscale>
<asrwt>0</asrwt>
<pdfrwt beam="2">  1        4 0.49330253E-01 0.12500092E+03</pdfrwt>
<pdfrwt beam="1">  1       -4 0.18742449E-02 0.12500092E+03</pdfrwt>
<totfact> 0.71654342E+03</totfact>
</mgrwt>
</event>
<event>
 5    1  0.3184438E-002  0.1249642E+03  0.7818608E-02  0.1235125E+00
         -4   -1    0    0    0  501 -0.00000000000E+00  0.00000000000E+00  0.84878241053E+01  0.85823107636E+01  0.12700000000E+01 0. -1.
          4   -1    0    0  501    0  0.00000000000E+00 -0.00000000000E+00 -0.45731314604E+03  0.45731490949E+03  0.12700000000E+01 0. -1.
         25    2    1    2    0    0  0.00000000000E+00  0.00000000000E+00 -0.44882532194E+03  0.46589722025E+03  0.12496419579E+03 0.  0.
    9000005    1    3    3    0    0  0.50041893333E+02  0.87804770589E+01 -0.88870307463E+02  0.10237294278E+03  0.10000000000E+01 0.  0.
    9000005    1    3    3    0    0 -0.50041893333E+02 -0.87804770589E+01 -0.35995501447E+03  0.36352427747E+03  0.10000000000E+01 0.  0.
<mgrwt>
<rscale>  0 0.12496420E+03</rscale>
<asrwt>0</asrwt>
<pdfrwt beam="2">  1        4 0.70363253E-01 0.12496420E+03</pdfrwt>
<pdfrwt beam="1">  1       -4 0.13132233E-02 0.12496420E+03</pdfrwt>
<totfact> 0.58657170E+03</totfact>
</mgrwt>
</event>
<event>
 5    1  0.3184438E-002  0.1249986E+03  0.7818608E-02  0.1235072E+00
         -4   -1    0    0    0  501 -0.00000000000E+00  0.00000000000E+00  0.39270823325E+03  0.39271028680E+03  0.12700000000E+01 0. -1.
          4   -1    0    0  501    0  0.00000000000E+00 -0.00000000000E+00 -0.99040972400E+01  0.99851911419E+01  0.12700000000E+01 0. -1.
         25    2    1    2    0    0  0.00000000000E+00  0.00000000000E+00  0.38280413601E+03  0.40269547794E+03  0.12499856564E+03 0.  0.
    9000005    1    3    3    0    0 -0.62103032777E+02 -0.35099673543E+01  0.21074611144E+03  0.21973627384E+03  0.10000000000E+01 0.  0.
    9000005    1    3    3    0    0  0.62103032777E+02  0.35099673543E+01  0.17205802457E+03  0.18295920411E+03  0.10000000000E+01 0.  0.
<mgrwt>
<rscale>  0 0.12499857E+03</rscale>
<asrwt>0</asrwt>
<pdfrwt beam="2">  1        4 0.15301031E-02 0.12499857E+03</pdfrwt>
<pdfrwt beam="1">  1       -4 0.60423054E-01 0.12499857E+03</pdfrwt>
<totfact> 0.64293502E+03</totfact>
</mgrwt>
</event>
<event>
 5    1  0.3184438E-002  0.1249947E+03  0.7818608E-02  0.1235078E+00
         -4   -1    0    0    0  501 -0.00000000000E+00  0.00000000000E+00  0.47150173091E+03  0.47150344129E+03  0.12700000000E+01 0. -1.
          4   -1    0    0  501    0  0.00000000000E+00 -0.00000000000E+00 -0.82335897361E+01  0.83309603253E+01  0.12700000000E+01 0. -1.
         25    2    1    2    0    0  0.00000000000E+00  0.00000000000E+00  0.46326814117E+03  0.47983440162E+03  0.12499472929E+03 0.  0.
    9000005    1    3    3    0    0  0.25989141013E+02 -0.56122973094E+02  0.26590459450E+03  0.27300453648E+03  0.10000000000E+01 0.  0.
    9000005    1    3    3    0    0 -0.25989141013E+02  0.56122973094E+02  0.19736354667E+03  0.20682986514E+03  0.10000000000E+01 0.  0.
<mgrwt>
<rscale>  0 0.12499473E+03</rscale>
<asrwt>0</asrwt>
<pdfrwt beam="2">  1        4 0.12743279E-02 0.12499473E+03</pdfrwt>
<pdfrwt beam="1">  1       -4 0.72546342E-01 0.12499473E+03</pdfrwt>
<totfact> 0.57470300E+03</totfact>
</mgrwt>
</event>
<event>
 5    1  0.3184438E-002  0.1250168E+03  0.7818608E-02  0.1235043E+00
         -4   -1    0    0    0  501 -0.00000000000E+00  0.00000000000E+00  0.46464176514E+02  0.46481529655E+02  0.12700000000E+01 0.  1.
          4   -1    0    0  501    0  0.00000000000E+00 -0.00000000000E+00 -0.84054945439E+02  0.84064539211E+02  0.12700000000E+01 0.  1.
         25    2    1    2    0    0  0.00000000000E+00  0.00000000000E+00 -0.37590768925E+02  0.13054606887E+03  0.12501683962E+03 0.  0.
    9000005    1    3    3    0    0 -0.24737575253E+02  0.55908708801E+02 -0.52376548315E+01  0.61369083237E+02  0.10000000000E+01 0.  0.
    9000005    1    3    3    0    0  0.24737575253E+02 -0.55908708801E+02 -0.32353114094E+02  0.69176985629E+02  0.10000000000E+01 0.  0.
<mgrwt>
<rscale>  0 0.12501684E+03</rscale>
<asrwt>0</asrwt>
<pdfrwt beam="2">  1        4 0.12933603E-01 0.12501684E+03</pdfrwt>
<pdfrwt beam="1">  1       -4 0.71504077E-02 0.12501684E+03</pdfrwt>
<totfact> 0.10328906E+04</totfact>
</mgrwt>
</event>
<event>
 5    1  0.3184438E-002  0.1249982E+03  0.7818608E-02  0.1235072E+00
          4   -1    0    0  501    0  0.00000000000E+00  0.00000000000E+00  0.37848056825E+03  0.37848269900E+03  0.12700000000E+01 0.  1.
         -4   -1    0    0    0  501 -0.00000000000E+00 -0.00000000000E+00 -0.10279344375E+02  0.10357500701E+02  0.12700000000E+01 0.  1.
         25    2    1    2    0    0  0.00000000000E+00  0.00000000000E+00  0.36820122387E+03  0.38884019970E+03  0.12499823855E+03 0.  0.
    9000005    1    3    3    0    0 -0.52336563758E+02  0.22761414355E+02  0.26328422923E+03  0.26940078554E+03  0.10000000000E+01 0.  0.
    9000005    1    3    3    0    0  0.52336563758E+02 -0.22761414355E+02  0.10491699464E+03  0.11943941416E+03  0.10000000000E+01 0.  0.
<mgrwt>
<rscale>  0 0.12499824E+03</rscale>
<asrwt>0</asrwt>
<pdfrwt beam="1">  1        4 0.58233963E-01 0.12499824E+03</pdfrwt>
<pdfrwt beam="2">  1       -4 0.15876133E-02 0.12499824E+03</pdfrwt>
<totfact> 0.65655393E+03</totfact>
</mgrwt>
</event>
<event>
 5    1  0.3184438E-002  0.1249996E+03  0.7818608E-02  0.1235070E+00
          4   -1    0    0  501    0  0.00000000000E+00  0.00000000000E+00  0.28844683496E+02  0.28872628318E+02  0.12700000000E+01 0.  1.
         -4   -1    0    0    0  501 -0.00000000000E+00 -0.00000000000E+00 -0.13532625565E+03  0.13533221482E+03  0.12700000000E+01 0.  1.
         25    2    1    2    0    0  0.00000000000E+00  0.00000000000E+00 -0.10648157216E+03  0.16420484314E+03  0.12499962121E+03 0.  0.
    9000005    1    3    3    0    0 -0.38605683655E+02 -0.37449533913E+02 -0.95037750139E+02  0.10920641168E+03  0.10000000000E+01 0.  0.
    9000005    1    3    3    0    0  0.38605683655E+02  0.37449533913E+02 -0.11443822018E+02  0.54998431461E+02  0.10000000000E+01 0.  0.
<mgrwt>
<rscale>  0 0.12499962E+03</rscale>
<asrwt>0</asrwt>
<pdfrwt beam="1">  1        4 0.44402517E-02 0.12499962E+03</pdfrwt>
<pdfrwt beam="2">  1       -4 0.20822032E-01 0.12499962E+03</pdfrwt>
<totfact> 0.96539016E+03</totfact>
</mgrwt>
</event>
<event>
 5    1  0.3184438E-002  0.1250423E+03  0.7818608E-02  0.1235003E+00
          4   -1    0    0  501    0  0.00000000000E+00  0.00000000000E+00  0.28463138018E+02  0.28491457067E+02  0.12700000000E+01 0.  1.
         -4   -1    0    0    0  501 -0.00000000000E+00 -0.00000000000E+00 -0.13723223953E+03  0.13723811594E+03  0.12700000000E+01 0.  1.
         25    2    1    2    0    0  0.00000000000E+00  0.00000000000E+00 -0.10876910151E+03  0.16572957301E+03  0.12504228855E+03 0.  0.
    9000005    1    3    3    0    0  0.48283264265E+02 -0.25118907053E+02 -0.95142347120E+02  0.10961432076E+03  0.10000000000E+01 0.  0.
    9000005    1    3    3    0    0 -0.48283264265E+02  0.25118907053E+02 -0.13626754394E+02  0.56115252249E+02  0.10000000000E+01 0.  0.
<mgrwt>
<rscale>  0 0.12504229E+03</rscale>
<asrwt>0</asrwt>
<pdfrwt beam="1">  1        4 0.43815748E-02 0.12504229E+03</pdfrwt>
<pdfrwt beam="2">  1       -4 0.21115282E-01 0.12504229E+03</pdfrwt>
<totfact> 0.96158028E+03</totfact>
</mgrwt>
</event>
<event>
 5    1  0.3184438E-002  0.1249924E+03  0.7818608E-02  0.1235081E+00
          4   -1    0    0  501    0  0.00000000000E+00  0.00000000000E+00  0.19708389956E+03  0.19708799143E+03  0.12700000000E+01 0. -1.
         -4   -1    0    0    0  501 -0.00000000000E+00 -0.00000000000E+00 -0.19793173113E+02  0.19833875111E+02  0.12700000000E+01 0. -1.
         25    2    1    2    0    0  0.00000000000E+00  0.00000000000E+00  0.17729072644E+03  0.21692186654E+03  0.12499237776E+03 0.  0.
    9000005    1    3    3    0    0 -0.28836618149E+02 -0.35800182846E+02  0.15187770489E+02  0.48423878516E+02  0.10000000000E+01 0.  0.
    9000005    1    3    3    0    0  0.28836618149E+02  0.35800182846E+02  0.16210295596E+03  0.16849798802E+03  0.10000000000E+01 0.  0.
<mgrwt>
<rscale>  0 0.12499238E+03</rscale>
<asrwt>0</asrwt>
<pdfrwt beam="1">  1        4 0.30324047E-01 0.12499238E+03</pdfrwt>
<pdfrwt beam="2">  1       -4 0.30485491E-02 0.12499238E+03</pdfrwt>
<totfact> 0.87372657E+03</totfact>
</mgrwt>
</event>
<event>
 5    1  0.3184438E-002  0.1249885E+03  0.7818608E-02  0.1235087E+00
          4   -1    0    0  501    0  0.00000000000E+00  0.00000000000E+00  0.86106981248E+02  0.86116346413E+02  0.12700000000E+01 0. -1.
         -4   -1    0    0    0  501 -0.00000000000E+00 -0.00000000000E+00 -0.45336006656E+02  0.45353791457E+02  0.12700000000E+01 0. -1.
         25    2    1    2    0    0  0.00000000000E+00  0.00000000000E+00  0.40770974591E+02  0.13147013787E+03  0.12498849860E+03 0.  0.
    9000005    1    3    3    0    0  0.37368817511E+02  0.32508820807E+02 -0.19685732150E+02  0.53308348340E+02  0.10000000000E+01 0.  0.
    9000005    1    3    3    0    0 -0.37368817511E+02 -0.32508820807E+02  0.60456706742E+02  0.78161789530E+02  0.10000000000E+01 0.  0.
<mgrwt>
<rscale>  0 0.12498850E+03</rscale>
<asrwt>0</asrwt>
<pdfrwt beam="1">  1        4 0.13249316E-01 0.12498850E+03</pdfrwt>
<pdfrwt beam="2">  1       -4 0.69768587E-02 0.12498850E+03</pdfrwt>
<totfact> 0.10315697E+04</totfact>
</mgrwt>
</event>
<event>
 5    1  0.3184438E-002  0.1250000E+03  0.7818608E-02  0.1235069E+00
          4   -1    0    0  501    0  0.00000000000E+00  0.00000000000E+00  0.56982936708E+02  0.56997087434E+02  0.12700000000E+01 0.  1.
         -4   -1    0    0    0  501 -0.00000000000E+00 -0.00000000000E+00 -0.68522625400E+02  0.68534393495E+02  0.12700000000E+01 0.  1.
         25    2    1    2    0    0  0.00000000000E+00  0.00000000000E+00 -0.11539688692E+02  0.12553148093E+03  0.12499995316E+03 0.  0.
    9000005    1    3    3    0    0  0.42897867436E+02 -0.19155481637E+01 -0.51365004595E+02  0.66957150868E+02  0.10000000000E+01 0.  0.
    9000005    1    3    3    0    0 -0.42897867436E+02  0.19155481637E+01  0.39825315903E+02  0.58574330061E+02  0.10000000000E+01 0.  0.
<mgrwt>
<rscale>  0 0.12499995E+03</rscale>
<asrwt>0</asrwt>
<pdfrwt beam="1">  1        4 0.87685994E-02 0.12499995E+03</pdfrwt>
<pdfrwt beam="2">  1       -4 0.10543936E-01 0.12499995E+03</pdfrwt>
<totfact> 0.10441270E+04</totfact>
</mgrwt>
</event>
<event>
 5    1  0.3184438E-002  0.1250097E+03  0.7818608E-02  0.1235054E+00
         -4   -1    0    0    0  501 -0.00000000000E+00  0.00000000000E+00  0.27502965208E+03  0.27503258429E+03  0.12700000000E+01 0. -1.
          4   -1    0    0  501    0  0.00000000000E+00 -0.00000000000E+00 -0.14173814895E+02  0.14230598324E+02  0.12700000000E+01 0. -1.
         25    2    1    2    0    0  0.00000000000E+00  0.00000000000E+00  0.26085583718E+03  0.28926318262E+03  0.12500968372E+03 0.  0.
    9000005    1    3    3    0    0 -0.35079821437E+02 -0.14571598297E+01  0.25006345448E+03  0.25251821410E+03  0.10000000000E+01 0.  0.
    9000005    1    3    3    0    0  0.35079821437E+02  0.14571598297E+01  0.10792382706E+02  0.36744968517E+02  0.10000000000E+01 0.  0.
<mgrwt>
<rscale>  0 0.12500968E+03</rscale>
<asrwt>0</asrwt>
<pdfrwt beam="2">  1        4 0.21851804E-02 0.12500968E+03</pdfrwt>
<pdfrwt beam="1">  1       -4 0.42316849E-01 0.12500968E+03</pdfrwt>
<totfact> 0.76949133E+03</totfact>
</mgrwt>
</event>
<event>
 5    1  0.3184438E-002  0.1249998E+03  0.7818608E-02  0.1235070E+00
          4   -1    0    0  501    0  0.00000000000E+00  0.00000000000E+00  0.16833451512E+03  0.16833930581E+03  0.12700000000E+01 0. -1.
         -4   -1    0    0    0  501 -0.00000000000E+00 -0.00000000000E+00 -0.23182722762E+02  0.23217483383E+02  0.12700000000E+01 0. -1.
         25    2    1    2    0    0  0.00000000000E+00  0.00000000000E+00  0.14515179235E+03  0.19155678919E+03  0.12499984264E+03 0.  0.
    9000005    1    3    3    0    0  0.24376807780E+02  0.26206081824E+02 -0.59279450701E+01  0.36292258333E+02  0.10000000000E+01 0.  0.
    9000005    1    3    3    0    0 -0.24376807780E+02 -0.26206081824E+02  0.15107973742E+03  0.15526453086E+03  0.10000000000E+01 0.  0.
<mgrwt>
<rscale>  0 0.12499984E+03</rscale>
<asrwt>0</asrwt>
<pdfrwt beam="1">  1        4 0.25900660E-01 0.12499984E+03</pdfrwt>
<pdfrwt beam="2">  1       -4 0.35696152E-02 0.12499984E+03</pdfrwt>
<totfact> 0.91577465E+03</totfact>
</mgrwt>
</event>
<event>
 5    1  0.3184438E-002  0.1250154E+03  0.7818608E-02  0.1235045E+00
          4   -1    0    0  501    0  0.00000000000E+00  0.00000000000E+00  0.10613097654E+03  0.10613857489E+03  0.12700000000E+01 0.  1.
         -4   -1    0    0    0  501 -0.00000000000E+00 -0.00000000000E+00 -0.36795151672E+02  0.36817062438E+02  0.12700000000E+01 0.  1.
         25    2    1    2    0    0  0.00000000000E+00  0.00000000000E+00  0.69335824863E+02  0.14295563733E+03  0.12501542959E+03 0.  0.
    9000005    1    3    3    0    0  0.89475379749E+01  0.60966655858E+02  0.46618641856E+02  0.77274118118E+02  0.10000000000E+01 0.  0.
    9000005    1    3    3    0    0 -0.89475379749E+01 -0.60966655858E+02  0.22717183007E+02  0.65681519213E+02  0.10000000000E+01 0.  0.
<mgrwt>
<rscale>  0 0.12501543E+03</rscale>
<asrwt>0</asrwt>
<pdfrwt beam="1">  1        4 0.16330112E-01 0.12501543E+03</pdfrwt>
<pdfrwt beam="2">  1       -4 0.56630626E-02 0.12501543E+03</pdfrwt>
<totfact> 0.10069192E+04</totfact>
</mgrwt>
</event>
<event>
 5    1  0.3184438E-002  0.1249999E+03  0.7818608E-02  0.1235069E+00
         -4   -1    0    0    0  501 -0.00000000000E+00  0.00000000000E+00  0.15720241736E+02  0.15771458406E+02  0.12700000000E+01 0. -1.
          4   -1    0    0  501    0  0.00000000000E+00 -0.00000000000E+00 -0.24802813005E+03  0.24803138147E+03  0.12700000000E+01 0. -1.
         25    2    1    2    0    0  0.00000000000E+00  0.00000000000E+00 -0.23230788831E+03  0.26380283988E+03  0.12499993342E+03 0.  0.
    9000005    1    3    3    0    0  0.63586129677E+01 -0.50504535897E+02 -0.19265806697E+03  0.19927185168E+03  0.10000000000E+01 0.  0.
    9000005    1    3    3    0    0 -0.63586129677E+01  0.50504535897E+02 -0.39649821346E+02  0.64530988198E+02  0.10000000000E+01 0.  0.
<mgrwt>
<rscale>  0 0.12499993E+03</rscale>
<asrwt>0</asrwt>
<pdfrwt beam="2">  1        4 0.38162361E-01 0.12499993E+03</pdfrwt>
<pdfrwt beam="1">  1       -4 0.24226888E-02 0.12499993E+03</pdfrwt>
<totfact> 0.80375451E+03</totfact>
</mgrwt>
</event>
<event>
 5    1  0.3184438E-002  0.1249778E+03  0.7818608E-02  0.1235104E+00
         -4   -1    0    0    0  501 -0.00000000000E+00  0.00000000000E+00  0.20588574982E+01  0.24190482008E+01  0.12700000000E+01 0. -1.
          4   -1    0    0  501    0  0.00000000000E+00 -0.00000000000E+00 -0.17436961861E+04  0.17436966486E+04  0.12700000000E+01 0. -1.
         25    2    1    2    0    0  0.00000000000E+00  0.00000000000E+00 -0.17416373286E+04  0.17461156968E+04  0.12497776689E+03 0.  0.
    9000005    1    3    3    0    0  0.62334778096E+02  0.31875246913E+01 -0.83111507155E+03  0.83345608584E+03  0.10000000000E+01 0.  0.
    9000005    1    3    3    0    0 -0.62334778096E+02 -0.31875246913E+01 -0.91052225705E+03  0.91265961094E+03  0.10000000000E+01 0.  0.
<mgrwt>
<rscale>  0 0.12497777E+03</rscale>
<asrwt>0</asrwt>
<pdfrwt beam="2">  1        4 0.26828761E+00 0.12497777E+03</pdfrwt>
<pdfrwt beam="1">  1       -4 0.34449125E-03 0.12497777E+03</pdfrwt>
<totfact> 0.13558930E+03</totfact>
</mgrwt>
</event>
<event>
 5    1  0.3184438E-002  0.1249983E+03  0.7818608E-02  0.1235072E+00
          4   -1    0    0  501    0  0.00000000000E+00  0.00000000000E+00  0.13714448495E+03  0.13715036512E+03  0.12700000000E+01 0.  1.
         -4   -1    0    0    0  501 -0.00000000000E+00 -0.00000000000E+00 -0.28461291927E+02  0.28489612811E+02  0.12700000000E+01 0.  1.
         25    2    1    2    0    0  0.00000000000E+00  0.00000000000E+00  0.10868319302E+03  0.16563997793E+03  0.12499826336E+03 0.  0.
    9000005    1    3    3    0    0 -0.27261458595E+02 -0.38733471751E+02  0.10835902445E+03  0.11826304215E+03  0.10000000000E+01 0.  0.
    9000005    1    3    3    0    0  0.27261458595E+02  0.38733471751E+02  0.32416857239E+00  0.47376935780E+02  0.10000000000E+01 0.  0.
<mgrwt>
<rscale>  0 0.12499826E+03</rscale>
<asrwt>0</asrwt>
<pdfrwt beam="1">  1        4 0.21101783E-01 0.12499826E+03</pdfrwt>
<pdfrwt beam="2">  1       -4 0.43812911E-02 0.12499826E+03</pdfrwt>
<totfact> 0.96270083E+03</totfact>
</mgrwt>
</event>
<event>
 5    1  0.3184438E-002  0.1249895E+03  0.7818608E-02  0.1235086E+00
          4   -1    0    0  501    0  0.00000000000E+00  0.00000000000E+00  0.14494537864E+03  0.14495094235E+03  0.12700000000E+01 0.  1.
         -4   -1    0    0    0  501 -0.00000000000E+00 -0.00000000000E+00 -0.26924227802E+02  0.26954163737E+02  0.12700000000E+01 0.  1.
         25    2    1    2    0    0  0.00000000000E+00  0.00000000000E+00  0.11802115083E+03  0.17190510609E+03  0.12498949338E+03 0.  0.
    9000005    1    3    3    0    0  0.12429573180E+02 -0.43419157162E+02  0.11840425521E+03  0.12672918034E+03  0.10000000000E+01 0.  0.
    9000005    1    3    3    0    0 -0.12429573180E+02  0.43419157162E+02 -0.38310437372E+00  0.45175925747E+02  0.10000000000E+01 0.  0.
<mgrwt>
<rscale>  0 0.12498949E+03</rscale>
<asrwt>0</asrwt>
<pdfrwt beam="1">  1        4 0.22302020E-01 0.12498949E+03</pdfrwt>
<pdfrwt beam="2">  1       -4 0.41449196E-02 0.12498949E+03</pdfrwt>
<totfact> 0.95117162E+03</totfact>
</mgrwt>
</event>
<event>
 5    1  0.3184438E-002  0.1250001E+03  0.7818608E-02  0.1235069E+00
          4   -1    0    0  501    0  0.00000000000E+00  0.00000000000E+00  0.37455175439E+01  0.39549717662E+01  0.12700000000E+01 0. -1.
         -4   -1    0    0    0  501 -0.00000000000E+00 -0.00000000000E+00 -0.10143382868E+04  0.10143390818E+04  0.12700000000E+01 0. -1.
         25    2    1    2    0    0  0.00000000000E+00  0.00000000000E+00 -0.10105927692E+04  0.10182940536E+04  0.12500013743E+03 0.  0.
    9000005    1    3    3    0    0 -0.20387359590E+02  0.50633116354E+02 -0.25741429145E+03  0.26313964800E+03  0.10000000000E+01 0.  0.
    9000005    1    3    3    0    0  0.20387359590E+02 -0.50633116354E+02 -0.75317847779E+03  0.75515440561E+03  0.10000000000E+01 0.  0.
<mgrwt>
<rscale>  0 0.12500014E+03</rscale>
<asrwt>0</asrwt>
<pdfrwt beam="1">  1        4 0.59240730E-03 0.12500014E+03</pdfrwt>
<pdfrwt beam="2">  1       -4 0.15606800E+00 0.12500014E+03</pdfrwt>
<totfact> 0.30005700E+03</totfact>
</mgrwt>
</event>
<event>
 5    1  0.3184438E-002  0.1249623E+03  0.7818608E-02  0.1235128E+00
         -4   -1    0    0    0  501 -0.00000000000E+00  0.00000000000E+00  0.47419626585E+03  0.47419796651E+03  0.12700000000E+01 0. -1.
          4   -1    0    0  501    0  0.00000000000E+00 -0.00000000000E+00 -0.81819555669E+01  0.82799333874E+01  0.12700000000E+01 0. -1.
         25    2    1    2    0    0  0.00000000000E+00  0.00000000000E+00  0.46601431028E+03  0.48247789990E+03  0.12496234035E+03 0.  0.
    9000005    1    3    3    0    0  0.77618764215E+01 -0.12553260518E+02 -0.13730249657E+01  0.14856522903E+02  0.10000000000E+01 0.  0.
    9000005    1    3    3    0    0 -0.77618764215E+01  0.12553260518E+02  0.46738733525E+03  0.46762137700E+03  0.10000000000E+01 0.  0.
<mgrwt>
<rscale>  0 0.12496234E+03</rscale>
<asrwt>0</asrwt>
<pdfrwt beam="2">  1        4 0.12664301E-02 0.12496234E+03</pdfrwt>
<pdfrwt beam="1">  1       -4 0.72960935E-01 0.12496234E+03</pdfrwt>
<totfact> 0.57297426E+03</totfact>
</mgrwt>
</event>
<event>
 5    1  0.3184438E-002  0.1250014E+03  0.7818608E-02  0.1235067E+00
         -4   -1    0    0    0  501 -0.00000000000E+00  0.00000000000E+00  0.73909223976E+02  0.73920134529E+02  0.12700000000E+01 0. -1.
          4   -1    0    0  501    0  0.00000000000E+00 -0.00000000000E+00 -0.52830705932E+02  0.52845968525E+02  0.12700000000E+01 0. -1.
         25    2    1    2    0    0  0.00000000000E+00  0.00000000000E+00  0.21078518044E+02  0.12676610305E+03  0.12500136383E+03 0.  0.
    9000005    1    3    3    0    0 -0.11287850522E+02  0.59280385025E+02  0.27009094128E+02  0.66121636275E+02  0.10000000000E+01 0.  0.
    9000005    1    3    3    0    0  0.11287850522E+02 -0.59280385025E+02 -0.59305760837E+01  0.60644466778E+02  0.10000000000E+01 0.  0.
<mgrwt>
<rscale>  0 0.12500136E+03</rscale>
<asrwt>0</asrwt>
<pdfrwt beam="2">  1        4 0.81298143E-02 0.12500136E+03</pdfrwt>
<pdfrwt beam="1">  1       -4 0.11372663E-01 0.12500136E+03</pdfrwt>
<totfact> 0.10413911E+04</totfact>
</mgrwt>
</event>
<event>
 5    1  0.3184438E-002  0.1249922E+03  0.7818608E-02  0.1235082E+00
          4   -1    0    0  501    0  0.00000000000E+00  0.00000000000E+00  0.15884657339E+03  0.15885165022E+03  0.12700000000E+01 0. -1.
         -4   -1    0    0    0  501 -0.00000000000E+00 -0.00000000000E+00 -0.24566382176E+02  0.24599187653E+02  0.12700000000E+01 0. -1.
         25    2    1    2    0    0  0.00000000000E+00  0.00000000000E+00  0.13428019121E+03  0.18345083787E+03  0.12499216041E+03 0.  0.
    9000005    1    3    3    0    0 -0.45425698669E+02  0.36686766453E+02  0.99805778449E+02  0.11563566208E+03  0.10000000000E+01 0.  0.
    9000005    1    3    3    0    0  0.45425698669E+02 -0.36686766453E+02  0.34474412760E+02  0.67815175791E+02  0.10000000000E+01 0.  0.
<mgrwt>
<rscale>  0 0.12499216E+03</rscale>
<asrwt>0</asrwt>
<pdfrwt beam="1">  1        4 0.24440848E-01 0.12499216E+03</pdfrwt>
<pdfrwt beam="2">  1       -4 0.37823574E-02 0.12499216E+03</pdfrwt>
<totfact> 0.93015847E+03</totfact>
</mgrwt>
</event>
<event>
 5    1  0.3184438E-002  0.1250115E+03  0.7818608E-02  0.1235051E+00
         -4   -1    0    0    0  501 -0.00000000000E+00  0.00000000000E+00  0.45168957251E+03  0.45169135791E+03  0.12700000000E+01 0.  1.
          4   -1    0    0  501    0  0.00000000000E+00 -0.00000000000E+00 -0.86012459852E+01  0.86945001293E+01  0.12700000000E+01 0.  1.
         25    2    1    2    0    0  0.00000000000E+00  0.00000000000E+00  0.44308832652E+03  0.46038585804E+03  0.12501149221E+03 0.  0.
    9000005    1    3    3    0    0 -0.85359452936E+01 -0.53749175386E+02  0.10838534262E+03  0.12128569046E+03  0.10000000000E+01 0.  0.
    9000005    1    3    3    0    0  0.85359452936E+01  0.53749175386E+02  0.33470298390E+03  0.33910016758E+03  0.10000000000E+01 0.  0.
<mgrwt>
<rscale>  0 0.12501149E+03</rscale>
<asrwt>0</asrwt>
<pdfrwt beam="2">  1        4 0.13305788E-02 0.12501149E+03</pdfrwt>
<pdfrwt beam="1">  1       -4 0.69498041E-01 0.12501149E+03</pdfrwt>
<totfact> 0.59059549E+03</totfact>
</mgrwt>
</event>
<event>
 5    1  0.3184438E-002  0.1249989E+03  0.7818608E-02  0.1235071E+00
         -4   -1    0    0    0  501 -0.00000000000E+00  0.00000000000E+00  0.21331986005E+04  0.21331989786E+04  0.12700000000E+01 0. -1.
          4   -1    0    0  501    0  0.00000000000E+00 -0.00000000000E+00 -0.16105095959E+01  0.20510097900E+01  0.12700000000E+01 0. -1.
         25    2    1    2    0    0  0.00000000000E+00  0.00000000000E+00  0.21315880909E+04  0.21352499884E+04  0.12499889364E+03 0.  0.
    9000005    1    3    3    0    0  0.46069248545E+02 -0.13053535010E+02  0.17517249279E+04  0.17523795233E+04  0.10000000000E+01 0.  0.
    9000005    1    3    3    0    0 -0.46069248545E+02  0.13053535010E+02  0.37986316299E+03  0.38287046508E+03  0.10000000000E+01 0.  0.
<mgrwt>
<rscale>  0 0.12499889E+03</rscale>
<asrwt>0</asrwt>
<pdfrwt beam="2">  1        4 0.28168424E-03 0.12499889E+03</pdfrwt>
<pdfrwt beam="1">  1       -4 0.32821852E+00 0.12499889E+03</pdfrwt>
<totfact> 0.81977795E+02</totfact>
</mgrwt>
</event>
<event>
 5    1  0.3184438E-002  0.1249964E+03  0.7818608E-02  0.1235075E+00
          4   -1    0    0  501    0  0.00000000000E+00  0.00000000000E+00  0.28239135302E+01  0.30963506950E+01  0.12700000000E+01 0.  1.
         -4   -1    0    0    0  501 -0.00000000000E+00 -0.00000000000E+00 -0.13192717139E+04  0.13192723252E+04  0.12700000000E+01 0.  1.
         25    2    1    2    0    0  0.00000000000E+00  0.00000000000E+00 -0.13164478004E+04  0.13223686759E+04  0.12499641534E+03 0.  0.
    9000005    1    3    3    0    0 -0.62035307296E+02 -0.75262279657E+01 -0.65769458308E+03  0.66065739084E+03  0.10000000000E+01 0.  0.
    9000005    1    3    3    0    0  0.62035307296E+02  0.75262279657E+01 -0.65875321733E+03  0.66171128508E+03  0.10000000000E+01 0.  0.
<mgrwt>
<rscale>  0 0.12499642E+03</rscale>
<asrwt>0</asrwt>
<pdfrwt beam="1">  1        4 0.45545302E-03 0.12499642E+03</pdfrwt>
<pdfrwt beam="2">  1       -4 0.20298541E+00 0.12499642E+03</pdfrwt>
<totfact> 0.21708429E+03</totfact>
</mgrwt>
</event>
<event>
 5    1  0.3184438E-002  0.1250027E+03  0.7818608E-02  0.1235065E+00
          4   -1    0    0  501    0  0.00000000000E+00  0.00000000000E+00  0.88374242793E+03  0.88374334047E+03  0.12700000000E+01 0. -1.
         -4   -1    0    0    0  501 -0.00000000000E+00 -0.00000000000E+00 -0.43281584496E+01  0.45106380441E+01  0.12700000000E+01 0. -1.
         25    2    1    2    0    0  0.00000000000E+00  0.00000000000E+00  0.87941426948E+03  0.88825397851E+03  0.12500269189E+03 0.  0.
    9000005    1    3    3    0    0  0.36347431205E+02  0.49201603898E+02  0.53056369789E+03  0.53407936779E+03  0.10000000000E+01 0.  0.
    9000005    1    3    3    0    0 -0.36347431205E+02 -0.49201603898E+02  0.34885057159E+03  0.35417461073E+03  0.10000000000E+01 0.  0.
<mgrwt>
<rscale>  0 0.12500269E+03</rscale>
<asrwt>0</asrwt>
<pdfrwt beam="1">  1        4 0.13597440E+00 0.12500269E+03</pdfrwt>
<pdfrwt beam="2">  1       -4 0.67997803E-03 0.12500269E+03</pdfrwt>
<totfact> 0.34608930E+03</totfact>
</mgrwt>
</event>
<event>
 5    1  0.3184438E-002  0.1250012E+03  0.7818608E-02  0.1235067E+00
          4   -1    0    0  501    0  0.00000000000E+00  0.00000000000E+00  0.34436893220E+02  0.34460303461E+02  0.12700000000E+01 0.  1.
         -4   -1    0    0    0  501 -0.00000000000E+00 -0.00000000000E+00 -0.11336872945E+03  0.11337584274E+03  0.12700000000E+01 0.  1.
         25    2    1    2    0    0  0.00000000000E+00  0.00000000000E+00 -0.78931836227E+02  0.14783614620E+03  0.12500116540E+03 0.  0.
    9000005    1    3    3    0    0  0.58689895004E+02 -0.28810016007E+00 -0.14080011782E+02  0.60364174052E+02  0.10000000000E+01 0.  0.
    9000005    1    3    3    0    0 -0.58689895004E+02  0.28810016007E+00 -0.64851824445E+02  0.87471972146E+02  0.10000000000E+01 0.  0.
<mgrwt>
<rscale>  0 0.12500117E+03</rscale>
<asrwt>0</asrwt>
<pdfrwt beam="1">  1        4 0.53003316E-02 0.12500117E+03</pdfrwt>
<pdfrwt beam="2">  1       -4 0.17443691E-01 0.12500117E+03</pdfrwt>
<totfact> 0.99734175E+03</totfact>
</mgrwt>
</event>
<event>
 5    1  0.3184438E-002  0.1250193E+03  0.7818608E-02  0.1235039E+00
         -4   -1    0    0    0  501 -0.00000000000E+00  0.00000000000E+00  0.14142832953E+02  0.14199740277E+02  0.12700000000E+01 0. -1.
          4   -1    0    0  501    0  0.00000000000E+00 -0.00000000000E+00 -0.27567225395E+03  0.27567517933E+03  0.12700000000E+01 0. -1.
         25    2    1    2    0    0  0.00000000000E+00  0.00000000000E+00 -0.26152942100E+03  0.28987491961E+03  0.12501932239E+03 0.  0.
    9000005    1    3    3    0    0 -0.44729826698E+02 -0.20833937649E+02 -0.21971254565E+03  0.22518750647E+03  0.10000000000E+01 0.  0.
    9000005    1    3    3    0    0  0.44729826698E+02  0.20833937649E+02 -0.41816875346E+02  0.64687413135E+02  0.10000000000E+01 0.  0.
<mgrwt>
<rscale>  0 0.12501932E+03</rscale>
<asrwt>0</asrwt>
<pdfrwt beam="2">  1        4 0.42415715E-01 0.12501932E+03</pdfrwt>
<pdfrwt beam="1">  1       -4 0.21804232E-02 0.12501932E+03</pdfrwt>
<totfact> 0.76853730E+03</totfact>
</mgrwt>
</event>
<event>
 5    1  0.3184438E-002  0.1250045E+03  0.7818608E-02  0.1235062E+00
          4   -1    0    0  501    0  0.00000000000E+00  0.00000000000E+00  0.14838472050E+02  0.14892721470E+02  0.12700000000E+01 0. -1.
         -4   -1    0    0    0  501 -0.00000000000E+00 -0.00000000000E+00 -0.26273415679E+03  0.26273722623E+03  0.12700000000E+01 0. -1.
         25    2    1    2    0    0  0.00000000000E+00  0.00000000000E+00 -0.24789568474E+03  0.27762994770E+03  0.12500446930E+03 0.  0.
    9000005    1    3    3    0    0  0.42563952380E+02  0.43107462646E+02 -0.89858747410E+02  0.10837683269E+03  0.10000000000E+01 0.  0.
    9000005    1    3    3    0    0 -0.42563952380E+02 -0.43107462646E+02 -0.15803693733E+03  0.16925311501E+03  0.10000000000E+01 0.  0.
<mgrwt>
<rscale>  0 0.12500447E+03</rscale>
<asrwt>0</asrwt>
<pdfrwt beam="1">  1        4 0.22872512E-02 0.12500447E+03</pdfrwt>
<pdfrwt beam="2">  1       -4 0.40425045E-01 0.12500447E+03</pdfrwt>
<totfact> 0.78485613E+03</totfact>
</mgrwt>
</event>
<event>
 5    1  0.3184438E-002  0.1249996E+03  0.7818608E-02  0.1235070E+00
         -4   -1    0    0    0  501 -0.00000000000E+00  0.00000000000E+00  0.18581717528E+02  0.18625067148E+02  0.12700000000E+01 0. -1.
          4   -1    0    0  501    0  0.00000000000E+00 -0.00000000000E+00 -0.20992853791E+03  0.20993237942E+03  0.12700000000E+01 0. -1.
         25    2    1    2    0    0  0.00000000000E+00  0.00000000000E+00 -0.19134682038E+03  0.22855744657E+03  0.12499960285E+03 0.  0.
    9000005    1    3    3    0    0 -0.56439975637E+02  0.45199932143E+01 -0.47320128395E+02  0.73797667578E+02  0.10000000000E+01 0.  0.
    9000005    1    3    3    0    0  0.56439975637E+02 -0.45199932143E+01 -0.14402669198E+03  0.15475977899E+03  0.10000000000E+01 0.  0.
<mgrwt>
<rscale>  0 0.12499960E+03</rscale>
<asrwt>0</asrwt>
<pdfrwt beam="2">  1        4 0.32300327E-01 0.12499960E+03</pdfrwt>
<pdfrwt beam="1">  1       -4 0.28623560E-02 0.12499960E+03</pdfrwt>
<totfact> 0.85532354E+03</totfact>
</mgrwt>
</event>
<event>
 5    1  0.3184438E-002  0.1250242E+03  0.7818608E-02  0.1235032E+00
          4   -1    0    0  501    0  0.00000000000E+00  0.00000000000E+00  0.11385712531E+03  0.11386420809E+03  0.12700000000E+01 0. -1.
         -4   -1    0    0    0  501 -0.00000000000E+00 -0.00000000000E+00 -0.34301706196E+02  0.34325208636E+02  0.12700000000E+01 0. -1.
         25    2    1    2    0    0  0.00000000000E+00  0.00000000000E+00  0.79555419112E+02  0.14818941672E+03  0.12502415174E+03 0.  0.
    9000005    1    3    3    0    0  0.41183693615E+02  0.32187620226E+02  0.80400709172E+02  0.95903146720E+02  0.10000000000E+01 0.  0.
    9000005    1    3    3    0    0 -0.41183693615E+02 -0.32187620226E+02 -0.84529005932E+00  0.52286270003E+02  0.10000000000E+01 0.  0.
<mgrwt>
<rscale>  0 0.12502415E+03</rscale>
<asrwt>0</asrwt>
<pdfrwt beam="1">  1        4 0.17518833E-01 0.12502415E+03</pdfrwt>
<pdfrwt beam="2">  1       -4 0.52795384E-02 0.12502415E+03</pdfrwt>
<totfact> 0.99611678E+03</totfact>
</mgrwt>
</event>
<event>
 5    1  0.3184438E-002  0.1249905E+03  0.7818608E-02  0.1235084E+00
          4   -1    0    0  501    0  0.00000000000E+00  0.00000000000E+00  0.10288857022E+04  0.10288864860E+04  0.12700000000E+01 0. -1.
         -4   -1    0    0    0  501 -0.00000000000E+00 -0.00000000000E+00 -0.36889752367E+01  0.39014661727E+01  0.12700000000E+01 0. -1.
         25    2    1    2    0    0  0.00000000000E+00  0.00000000000E+00  0.10251967269E+04  0.10327879522E+04  0.12499050042E+03 0.  0.
    9000005    1    3    3    0    0  0.15362680089E+02 -0.29378434740E+02  0.95026486979E+03  0.95084353451E+03  0.10000000000E+01 0.  0.
    9000005    1    3    3    0    0 -0.15362680089E+02  0.29378434740E+02  0.74931857149E+02  0.81944417645E+02  0.10000000000E+01 0.  0.
<mgrwt>
<rscale>  0 0.12499050E+03</rscale>
<asrwt>0</asrwt>
<pdfrwt beam="1">  1        4 0.15830634E+00 0.12499050E+03</pdfrwt>
<pdfrwt beam="2">  1       -4 0.58394103E-03 0.12499050E+03</pdfrwt>
<totfact> 0.29544494E+03</totfact>
</mgrwt>
</event>
<event>
 5    1  0.3184438E-002  0.1249983E+03  0.7818608E-02  0.1235072E+00
         -4   -1    0    0    0  501 -0.00000000000E+00  0.00000000000E+00  0.32679108406E+02  0.32703776941E+02  0.12700000000E+01 0. -1.
          4   -1    0    0  501    0  0.00000000000E+00 -0.00000000000E+00 -0.11945710634E+03  0.11946385710E+03  0.12700000000E+01 0. -1.
         25    2    1    2    0    0  0.00000000000E+00  0.00000000000E+00 -0.86777997930E+02  0.15216763405E+03  0.12499827169E+03 0.  0.
    9000005    1    3    3    0    0  0.57683763337E+02 -0.20516031704E+02 -0.28144398107E+02  0.67390142116E+02  0.10000000000E+01 0.  0.
    9000005    1    3    3    0    0 -0.57683763337E+02  0.20516031704E+02 -0.58633599823E+02  0.84777491929E+02  0.10000000000E+01 0.  0.
<mgrwt>
<rscale>  0 0.12499827E+03</rscale>
<asrwt>0</asrwt>
<pdfrwt beam="2">  1        4 0.18380433E-01 0.12499827E+03</pdfrwt>
<pdfrwt beam="1">  1       -4 0.50299721E-02 0.12499827E+03</pdfrwt>
<totfact> 0.98877200E+03</totfact>
</mgrwt>
</event>
<event>
 5    1  0.3184438E-002  0.1250080E+03  0.7818608E-02  0.1235057E+00
          4   -1    0    0  501    0  0.00000000000E+00  0.00000000000E+00  0.16886049354E+02  0.16933740366E+02  0.12700000000E+01 0. -1.
         -4   -1    0    0    0  501 -0.00000000000E+00 -0.00000000000E+00 -0.23098381297E+03  0.23098730432E+03  0.12700000000E+01 0. -1.
         25    2    1    2    0    0  0.00000000000E+00  0.00000000000E+00 -0.21409776362E+03  0.24792104468E+03  0.12500796779E+03 0.  0.
    9000005    1    3    3    0    0 -0.40439329106E+02  0.44633376980E+02 -0.14013220630E+03  0.15253036721E+03  0.10000000000E+01 0.  0.
    9000005    1    3    3    0    0  0.40439329106E+02 -0.44633376980E+02 -0.73965557324E+02  0.95390677476E+02  0.10000000000E+01 0.  0.
<mgrwt>
<rscale>  0 0.12500797E+03</rscale>
<asrwt>0</asrwt>
<pdfrwt beam="1">  1        4 0.26017910E-02 0.12500797E+03</pdfrwt>
<pdfrwt beam="2">  1       -4 0.35539906E-01 0.12500797E+03</pdfrwt>
<totfact> 0.82616967E+03</totfact>
</mgrwt>
</event>
<event>
 5    1  0.3184438E-002  0.1250005E+03  0.7818608E-02  0.1235068E+00
          4   -1    0    0  501    0  0.00000000000E+00  0.00000000000E+00  0.62326086980E+02  0.62339024842E+02  0.12700000000E+01 0. -1.
         -4   -1    0    0    0  501 -0.00000000000E+00 -0.00000000000E+00 -0.62649023417E+02  0.62661894602E+02  0.12700000000E+01 0. -1.
         25    2    1    2    0    0  0.00000000000E+00  0.00000000000E+00 -0.32293643697E+00  0.12500091944E+03  0.12500050229E+03 0.  0.
    9000005    1    3    3    0    0  0.40129621031E+01 -0.10203091441E+02  0.61361695848E+02  0.62341516320E+02  0.10000000000E+01 0.  0.
    9000005    1    3    3    0    0 -0.40129621031E+01  0.10203091441E+02 -0.61684632285E+02  0.62659403124E+02  0.10000000000E+01 0.  0.
<mgrwt>
<rscale>  0 0.12500050E+03</rscale>
<asrwt>0</asrwt>
<pdfrwt beam="1">  1        4 0.95906141E-02 0.12500050E+03</pdfrwt>
<pdfrwt beam="2">  1       -4 0.96402966E-02 0.12500050E+03</pdfrwt>
<totfact> 0.10452724E+04</totfact>
</mgrwt>
</event>
<event>
 5    1  0.3184438E-002  0.1250025E+03  0.7818608E-02  0.1235065E+00
         -4   -1    0    0    0  501 -0.00000000000E+00  0.00000000000E+00  0.74299925186E+01  0.75377509130E+01  0.12700000000E+01 0.  1.
          4   -1    0    0  501    0  0.00000000000E+00 -0.00000000000E+00 -0.52186790358E+03  0.52186944889E+03  0.12700000000E+01 0.  1.
         25    2    1    2    0    0  0.00000000000E+00  0.00000000000E+00 -0.51443791106E+03  0.52940719980E+03  0.12500247545E+03 0.  0.
    9000005    1    3    3    0    0 -0.18733477514E+02  0.49919331154E+02 -0.11916775814E+03  0.13055587840E+03  0.10000000000E+01 0.  0.
    9000005    1    3    3    0    0  0.18733477514E+02 -0.49919331154E+02 -0.39527015291E+03  0.39885132141E+03  0.10000000000E+01 0.  0.
<mgrwt>
<rscale>  0 0.12500248E+03</rscale>
<asrwt>0</asrwt>
<pdfrwt beam="2">  1        4 0.80295749E-01 0.12500248E+03</pdfrwt>
<pdfrwt beam="1">  1       -4 0.11514842E-02 0.12500248E+03</pdfrwt>
<totfact> 0.53649895E+03</totfact>
</mgrwt>
</event>
<event>
 5    1  0.3184438E-002  0.1250008E+03  0.7818608E-02  0.1235068E+00
         -4   -1    0    0    0  501 -0.00000000000E+00  0.00000000000E+00  0.26221139047E+01  0.29134826805E+01  0.12700000000E+01 0. -1.
          4   -1    0    0  501    0  0.00000000000E+00 -0.00000000000E+00 -0.14110470271E+04  0.14110475986E+04  0.12700000000E+01 0. -1.
         25    2    1    2    0    0  0.00000000000E+00  0.00000000000E+00 -0.14084249132E+04  0.14139610813E+04  0.12500081336E+03 0.  0.
    9000005    1    3    3    0    0  0.37114961299E+02  0.36998205322E+02 -0.31913323278E+03  0.32340904102E+03  0.10000000000E+01 0.  0.
    9000005    1    3    3    0    0 -0.37114961299E+02 -0.36998205322E+02 -0.10892916804E+04  0.10905520402E+04  0.10000000000E+01 0.  0.
<mgrwt>
<rscale>  0 0.12500081E+03</rscale>
<asrwt>0</asrwt>
<pdfrwt beam="2">  1        4 0.21710604E+00 0.12500081E+03</pdfrwt>
<pdfrwt beam="1">  1       -4 0.42586021E-03 0.12500081E+03</pdfrwt>
<totfact> 0.19683025E+03</totfact>
</mgrwt>
</event>
<event>
 5    1  0.3184438E-002  0.1250088E+03  0.7818608E-02  0.1235055E+00
         -4   -1    0    0    0  501 -0.00000000000E+00  0.00000000000E+00  0.16259388605E+02  0.16308912220E+02  0.12700000000E+01 0. -1.
          4   -1    0    0  501    0  0.00000000000E+00 -0.00000000000E+00 -0.23986313522E+03  0.23986649733E+03  0.12700000000E+01 0. -1.
         25    2    1    2    0    0  0.00000000000E+00  0.00000000000E+00 -0.22360374662E+03  0.25617540955E+03  0.12500881950E+03 0.  0.
    9000005    1    3    3    0    0 -0.34476709337E+02  0.47190235077E+02 -0.66428515494E+02  0.88483385130E+02  0.10000000000E+01 0.  0.
    9000005    1    3    3    0    0  0.34476709337E+02 -0.47190235077E+02 -0.15717523112E+03  0.16769202442E+03  0.10000000000E+01 0.  0.
<mgrwt>
<rscale>  0 0.12500882E+03</rscale>
<asrwt>0</asrwt>
<pdfrwt beam="2">  1        4 0.36906086E-01 0.12500882E+03</pdfrwt>
<pdfrwt beam="1">  1       -4 0.25055127E-02 0.12500882E+03</pdfrwt>
<totfact> 0.81429811E+03</totfact>
</mgrwt>
</event>
<event>
 5    1  0.3184438E-002  0.1250007E+03  0.7818608E-02  0.1235068E+00
         -4   -1    0    0    0  501 -0.00000000000E+00  0.00000000000E+00  0.62382444894E+03  0.62382574169E+03  0.12700000000E+01 0.  1.
          4   -1    0    0  501    0  0.00000000000E+00 -0.00000000000E+00 -0.61961414259E+01  0.63249560133E+01  0.12700000000E+01 0.  1.
         25    2    1    2    0    0  0.00000000000E+00  0.00000000000E+00  0.61762830751E+03  0.63015069770E+03  0.12500070229E+03 0.  0.
    9000005    1    3    3    0    0  0.56913909920E+01 -0.48230920877E+02  0.50707284550E+03  0.50939423269E+03  0.10000000000E+01 0.  0.
    9000005    1    3    3    0    0 -0.56913909920E+01  0.48230920877E+02  0.11055546202E+03  0.12075646501E+03  0.10000000000E+01 0.  0.
<mgrwt>
<rscale>  0 0.12500070E+03</rscale>
<asrwt>0</asrwt>
<pdfrwt beam="2">  1        4 0.96326083E-03 0.12500070E+03</pdfrwt>
<pdfrwt beam="1">  1       -4 0.95982996E-01 0.12500070E+03</pdfrwt>
<totfact> 0.47017368E+03</totfact>
</mgrwt>
</event>
<event>
 5    1  0.3184438E-002  0.1249993E+03  0.7818608E-02  0.1235070E+00
          4   -1    0    0  501    0  0.00000000000E+00  0.00000000000E+00  0.75818176895E+03  0.75818283261E+03  0.12700000000E+01 0. -1.
         -4   -1    0    0    0  501 -0.00000000000E+00 -0.00000000000E+00 -0.50727224441E+01  0.52292841761E+01  0.12700000000E+01 0. -1.
         25    2    1    2    0    0  0.00000000000E+00  0.00000000000E+00  0.75310904651E+03  0.76341211679E+03  0.12499929652E+03 0.  0.
    9000005    1    3    3    0    0  0.49531658483E+02  0.12951135193E+02  0.15770327291E+03  0.16580844183E+03  0.10000000000E+01 0.  0.
    9000005    1    3    3    0    0 -0.49531658483E+02 -0.12951135193E+02  0.59540577359E+03  0.59760367496E+03  0.10000000000E+01 0.  0.
<mgrwt>
<rscale>  0 0.12499930E+03</rscale>
<asrwt>0</asrwt>
<pdfrwt beam="1">  1        4 0.11665545E+00 0.12499930E+03</pdfrwt>
<pdfrwt beam="2">  1       -4 0.79254403E-03 0.12499930E+03</pdfrwt>
<totfact> 0.39941327E+03</totfact>
</mgrwt>
</event>
<event>
 5    1  0.3184438E-002  0.1249961E+03  0.7818608E-02  0.1235075E+00
          4   -1    0    0  501    0  0.00000000000E+00  0.00000000000E+00  0.54035916006E+03  0.54036065249E+03  0.12700000000E+01 0.  1.
         -4   -1    0    0    0  501 -0.00000000000E+00 -0.00000000000E+00 -0.71712385769E+01  0.72828265616E+01  0.12700000000E+01 0.  1.
         25    2    1    2    0    0  0.00000000000E+00  0.00000000000E+00  0.53318792149E+03  0.54764347906E+03  0.12499608207E+03 0.  0.
    9000005    1    3    3    0    0 -0.58728366559E+02  0.13030053807E+02  0.19247357088E+03  0.20165782610E+03  0.10000000000E+01 0.  0.
    9000005    1    3    3    0    0  0.58728366559E+02 -0.13030053807E+02  0.34071435061E+03  0.34598565295E+03  0.10000000000E+01 0.  0.
<mgrwt>
<rscale>  0 0.12499608E+03</rscale>
<asrwt>0</asrwt>
<pdfrwt beam="1">  1        4 0.83140883E-01 0.12499608E+03</pdfrwt>
<pdfrwt beam="2">  1       -4 0.11119659E-02 0.12499608E+03</pdfrwt>
<totfact> 0.52353076E+03</totfact>
</mgrwt>
</event>
<event>
 5    1  0.3184438E-002  0.1249991E+03  0.7818608E-02  0.1235071E+00
          4   -1    0    0  501    0  0.00000000000E+00  0.00000000000E+00  0.59356316526E+02  0.59369901562E+02  0.12700000000E+01 0. -1.
         -4   -1    0    0    0  501 -0.00000000000E+00 -0.00000000000E+00 -0.65781941034E+02  0.65794199335E+02  0.12700000000E+01 0. -1.
         25    2    1    2    0    0  0.00000000000E+00  0.00000000000E+00 -0.64256245080E+01  0.12516410090E+03  0.12499905401E+03 0.  0.
    9000005    1    3    3    0    0  0.59087483212E+02 -0.19639639097E+02 -0.85249824897E+01  0.62854764518E+02  0.10000000000E+01 0.  0.
    9000005    1    3    3    0    0 -0.59087483212E+02  0.19639639097E+02  0.20993579816E+01  0.62309336380E+02  0.10000000000E+01 0.  0.
<mgrwt>
<rscale>  0 0.12499905E+03</rscale>
<asrwt>0</asrwt>
<pdfrwt beam="1">  1        4 0.91337290E-02 0.12499905E+03</pdfrwt>
<pdfrwt beam="2">  1       -4 0.10122287E-01 0.12499905E+03</pdfrwt>
<totfact> 0.10449523E+04</totfact>
</mgrwt>
</event>
<event>
 5    1  0.3184438E-002  0.1250243E+03  0.7818608E-02  0.1235031E+00
          4   -1    0    0  501    0  0.00000000000E+00  0.00000000000E+00  0.22079864242E+03  0.22080229482E+03  0.12700000000E+01 0.  1.
         -4   -1    0    0    0  501 -0.00000000000E+00 -0.00000000000E+00 -0.17671753992E+02  0.17717330193E+02  0.12700000000E+01 0.  1.
         25    2    1    2    0    0  0.00000000000E+00  0.00000000000E+00  0.20312688843E+03  0.23851962501E+03  0.12502431248E+03 0.  0.
    9000005    1    3    3    0    0  0.26911408059E+02 -0.48986840221E+01 -0.56559701691E+01  0.27950151831E+02  0.10000000000E+01 0.  0.
    9000005    1    3    3    0    0 -0.26911408059E+02  0.48986840221E+01  0.20878285860E+03  0.21056947318E+03  0.10000000000E+01 0.  0.
<mgrwt>
<rscale>  0 0.12502431E+03</rscale>
<asrwt>0</asrwt>
<pdfrwt beam="1">  1        4 0.33972809E-01 0.12502431E+03</pdfrwt>
<pdfrwt beam="2">  1       -4 0.27225182E-02 0.12502431E+03</pdfrwt>
<totfact> 0.83972809E+03</totfact>
</mgrwt>
</event>
<event>
 5    1  0.3184438E-002  0.1249970E+03  0.7818608E-02  0.1235074E+00
          4   -1    0    0  501    0  0.00000000000E+00  0.00000000000E+00  0.68363239572E+02  0.68375035099E+02  0.12700000000E+01 0.  1.
         -4   -1    0    0    0  501 -0.00000000000E+00 -0.00000000000E+00 -0.57113101627E+02  0.57127220110E+02  0.12700000000E+01 0.  1.
         25    2    1    2    0    0  0.00000000000E+00  0.00000000000E+00  0.11250137945E+02  0.12550225521E+03  0.12499700180E+03 0.  0.
    9000005    1    3    3    0    0  0.16085506431E+02 -0.48528585855E+02  0.41704920745E+02  0.65985358805E+02  0.10000000000E+01 0.  0.
    9000005    1    3    3    0    0 -0.16085506431E+02  0.48528585855E+02 -0.30454782800E+02  0.59516896405E+02  0.10000000000E+01 0.  0.
<mgrwt>
<rscale>  0 0.12499700E+03</rscale>
<asrwt>0</asrwt>
<pdfrwt beam="1">  1        4 0.10519415E-01 0.12499700E+03</pdfrwt>
<pdfrwt beam="2">  1       -4 0.87886244E-02 0.12499700E+03</pdfrwt>
<totfact> 0.10442610E+04</totfact>
</mgrwt>
</event>
<event>
 5    1  0.3184438E-002  0.1249899E+03  0.7818608E-02  0.1235085E+00
          4   -1    0    0  501    0  0.00000000000E+00  0.00000000000E+00  0.11793187919E+02  0.11861373500E+02  0.12700000000E+01 0.  1.
         -4   -1    0    0    0  501 -0.00000000000E+00 -0.00000000000E+00 -0.33015197470E+03  0.33015441736E+03  0.12700000000E+01 0.  1.
         25    2    1    2    0    0  0.00000000000E+00  0.00000000000E+00 -0.31835878678E+03  0.34201579086E+03  0.12498993589E+03 0.  0.
    9000005    1    3    3    0    0 -0.58643099448E+02  0.20282104871E+02 -0.13902603276E+03  0.15224852931E+03  0.10000000000E+01 0.  0.
    9000005    1    3    3    0    0  0.58643099448E+02 -0.20282104871E+02 -0.17933275402E+03  0.18976726155E+03  0.10000000000E+01 0.  0.
<mgrwt>
<rscale>  0 0.12498994E+03</rscale>
<asrwt>0</asrwt>
<pdfrwt beam="1">  1        4 0.18197698E-02 0.12498994E+03</pdfrwt>
<pdfrwt beam="2">  1       -4 0.50798037E-01 0.12498994E+03</pdfrwt>
<totfact> 0.70627680E+03</totfact>
</mgrwt>
</event>
<event>
 5    1  0.3184438E-002  0.1250005E+03  0.7818608E-02  0.1235069E+00
          4   -1    0    0  501    0  0.00000000000E+00  0.00000000000E+00  0.22493189632E+03  0.22493548160E+03  0.12700000000E+01 0.  1.
         -4   -1    0    0    0  501 -0.00000000000E+00 -0.00000000000E+00 -0.17339556900E+02  0.17386003954E+02  0.12700000000E+01 0.  1.
         25    2    1    2    0    0  0.00000000000E+00  0.00000000000E+00  0.20759233942E+03  0.24232148555E+03  0.12500049190E+03 0.  0.
    9000005    1    3    3    0    0  0.42166012446E+01  0.61612593803E+02  0.12232840825E+03  0.13703696913E+03  0.10000000000E+01 0.  0.
    9000005    1    3    3    0    0 -0.42166012446E+01 -0.61612593803E+02  0.85263931162E+02  0.10528451642E+03  0.10000000000E+01 0.  0.
<mgrwt>
<rscale>  0 0.12500049E+03</rscale>
<asrwt>0</asrwt>
<pdfrwt beam="1">  1        4 0.34608758E-01 0.12500049E+03</pdfrwt>
<pdfrwt beam="2">  1       -4 0.26714726E-02 0.12500049E+03</pdfrwt>
<totfact> 0.83451916E+03</totfact>
</mgrwt>
</event>
<event>
 5    1  0.3184438E-002  0.1250003E+03  0.7818608E-02  0.1235069E+00
         -4   -1    0    0    0  501 -0.00000000000E+00  0.00000000000E+00  0.25304098467E+02  0.25335948753E+02  0.12700000000E+01 0.  1.
          4   -1    0    0  501    0  0.00000000000E+00 -0.00000000000E+00 -0.15424145824E+03  0.15424668664E+03  0.12700000000E+01 0.  1.
         25    2    1    2    0    0  0.00000000000E+00  0.00000000000E+00 -0.12893735978E+03  0.17958263540E+03  0.12500032076E+03 0.  0.
    9000005    1    3    3    0    0  0.59002004866E+02 -0.19644222084E+02 -0.73340898139E+02  0.96161423551E+02  0.10000000000E+01 0.  0.
    9000005    1    3    3    0    0 -0.59002004866E+02  0.19644222084E+02 -0.55596461636E+02  0.83421211847E+02  0.10000000000E+01 0.  0.
<mgrwt>
<rscale>  0 0.12500032E+03</rscale>
<asrwt>0</asrwt>
<pdfrwt beam="2">  1        4 0.23732307E-01 0.12500032E+03</pdfrwt>
<pdfrwt beam="1">  1       -4 0.38957905E-02 0.12500032E+03</pdfrwt>
<totfact> 0.93691511E+03</totfact>
</mgrwt>
</event>
<event>
 5    1  0.3184438E-002  0.1250007E+03  0.7818608E-02  0.1235068E+00
         -4   -1    0    0    0  501 -0.00000000000E+00  0.00000000000E+00  0.12845836618E+03  0.12846464393E+03  0.12700000000E+01 0.  1.
          4   -1    0    0  501    0  0.00000000000E+00 -0.00000000000E+00 -0.30388761445E+02  0.30415287639E+02  0.12700000000E+01 0.  1.
         25    2    1    2    0    0  0.00000000000E+00  0.00000000000E+00  0.98069604733E+02  0.15887993157E+03  0.12500074113E+03 0.  0.
    9000005    1    3    3    0    0  0.20894483239E+02  0.24281211136E+02 -0.19165739213E+02  0.37342766416E+02  0.10000000000E+01 0.  0.
    9000005    1    3    3    0    0 -0.20894483239E+02 -0.24281211136E+02  0.11723534395E+03  0.12153716516E+03  0.10000000000E+01 0.  0.
<mgrwt>
<rscale>  0 0.12500074E+03</rscale>
<asrwt>0</asrwt>
<pdfrwt beam="2">  1        4 0.46777175E-02 0.12500074E+03</pdfrwt>
<pdfrwt beam="1">  1       -4 0.19765349E-01 0.12500074E+03</pdfrwt>
<totfact> 0.97557535E+03</totfact>
</mgrwt>
</event>
<event>
 5    1  0.3184438E-002  0.1249820E+03  0.7818608E-02  0.1235097E+00
         -4   -1    0    0    0  501 -0.00000000000E+00  0.00000000000E+00  0.78733330285E+01  0.79751033208E+01  0.12700000000E+01 0.  1.
          4   -1    0    0  501    0  0.00000000000E+00 -0.00000000000E+00 -0.49270650151E+03  0.49270813828E+03  0.12700000000E+01 0.  1.
         25    2    1    2    0    0  0.00000000000E+00  0.00000000000E+00 -0.48483316848E+03  0.50068324160E+03  0.12498202736E+03 0.  0.
    9000005    1    3    3    0    0  0.86325684359E+00 -0.25904512693E+02 -0.14658468751E+02  0.29793618383E+02  0.10000000000E+01 0.  0.
    9000005    1    3    3    0    0 -0.86325684359E+00  0.25904512693E+02 -0.47017469973E+03  0.47088962322E+03  0.10000000000E+01 0.  0.
<mgrwt>
<rscale>  0 0.12498203E+03</rscale>
<asrwt>0</asrwt>
<pdfrwt beam="2">  1        4 0.75808930E-01 0.12498203E+03</pdfrwt>
<pdfrwt beam="1">  1       -4 0.12192368E-02 0.12498203E+03</pdfrwt>
<totfact> 0.55833466E+03</totfact>
</mgrwt>
</event>
<event>
 5    1  0.3184438E-002  0.1249952E+03  0.7818608E-02  0.1235077E+00
          4   -1    0    0  501    0  0.00000000000E+00  0.00000000000E+00  0.59559139123E+03  0.59559274526E+03  0.12700000000E+01 0.  1.
         -4   -1    0    0    0  501 -0.00000000000E+00 -0.00000000000E+00 -0.64952436130E+01  0.66182391610E+01  0.12700000000E+01 0.  1.
         25    2    1    2    0    0  0.00000000000E+00  0.00000000000E+00  0.58909614762E+03  0.60221098442E+03  0.12499519439E+03 0.  0.
    9000005    1    3    3    0    0 -0.82537114662E+01  0.61917299692E+02  0.28610111627E+03  0.29284249092E+03  0.10000000000E+01 0.  0.
    9000005    1    3    3    0    0  0.82537114662E+01 -0.61917299692E+02  0.30299503134E+03  0.30936849350E+03  0.10000000000E+01 0.  0.
<mgrwt>
<rscale>  0 0.12499519E+03</rscale>
<asrwt>0</asrwt>
<pdfrwt beam="1">  1        4 0.91638991E-01 0.12499519E+03</pdfrwt>
<pdfrwt beam="2">  1       -4 0.10088338E-02 0.12499519E+03</pdfrwt>
<totfact> 0.48733486E+03</totfact>
</mgrwt>
</event>
<event>
 5    1  0.3184438E-002  0.1250015E+03  0.7818608E-02  0.1235067E+00
          4   -1    0    0  501    0  0.00000000000E+00  0.00000000000E+00  0.17601243703E+03  0.17601701874E+03  0.12700000000E+01 0. -1.
         -4   -1    0    0    0  501 -0.00000000000E+00 -0.00000000000E+00 -0.22170509083E+02  0.22206854190E+02  0.12700000000E+01 0. -1.
         25    2    1    2    0    0  0.00000000000E+00  0.00000000000E+00  0.15384192794E+03  0.19822387293E+03  0.12500146002E+03 0.  0.
    9000005    1    3    3    0    0 -0.39768508077E+02 -0.43171220468E+02  0.42907984046E+02  0.72714397517E+02  0.10000000000E+01 0.  0.
    9000005    1    3    3    0    0  0.39768508077E+02  0.43171220468E+02  0.11093394390E+03  0.12550947542E+03  0.10000000000E+01 0.  0.
<mgrwt>
<rscale>  0 0.12500146E+03</rscale>
<asrwt>0</asrwt>
<pdfrwt beam="1">  1        4 0.27081984E-01 0.12500146E+03</pdfrwt>
<pdfrwt beam="2">  1       -4 0.34139959E-02 0.12500146E+03</pdfrwt>
<totfact> 0.90432795E+03</totfact>
</mgrwt>
</event>
<event>
 5    1  0.3184438E-002  0.1250030E+03  0.7818608E-02  0.1235065E+00
          4   -1    0    0  501    0  0.00000000000E+00  0.00000000000E+00  0.29317753700E+03  0.29318028771E+03  0.12700000000E+01 0.  1.
         -4   -1    0    0    0  501 -0.00000000000E+00 -0.00000000000E+00 -0.13291390677E+02  0.13351927431E+02  0.12700000000E+01 0.  1.
         25    2    1    2    0    0  0.00000000000E+00  0.00000000000E+00  0.27988614632E+03  0.30653221514E+03  0.12500297602E+03 0.  0.
    9000005    1    3    3    0    0  0.55984211616E+02 -0.15172943821E+02  0.19697902789E+03  0.20534407126E+03  0.10000000000E+01 0.  0.
    9000005    1    3    3    0    0 -0.55984211616E+02  0.15172943821E+02  0.82907118436E+02  0.10118814388E+03  0.10000000000E+01 0.  0.
<mgrwt>
<rscale>  0 0.12500298E+03</rscale>
<asrwt>0</asrwt>
<pdfrwt beam="1">  1        4 0.45109104E-01 0.12500298E+03</pdfrwt>
<pdfrwt beam="2">  1       -4 0.20496976E-02 0.12500298E+03</pdfrwt>
<totfact> 0.74781748E+03</totfact>
</mgrwt>
</event>
<event>
 5    1  0.3184438E-002  0.1250015E+03  0.7818608E-02  0.1235067E+00
          4   -1    0    0  501    0  0.00000000000E+00  0.00000000000E+00  0.20751994223E+03  0.20752382833E+03  0.12700000000E+01 0. -1.
         -4   -1    0    0    0  501 -0.00000000000E+00 -0.00000000000E+00 -0.18798445874E+02  0.18841296858E+02  0.12700000000E+01 0. -1.
         25    2    1    2    0    0  0.00000000000E+00  0.00000000000E+00  0.18872149636E+03  0.22636512518E+03  0.12500146684E+03 0.  0.
    9000005    1    3    3    0    0  0.16595137420E+01  0.21275752530E+02  0.20072594635E+03  0.20185964720E+03  0.10000000000E+01 0.  0.
    9000005    1    3    3    0    0 -0.16595137420E+01 -0.21275752530E+02 -0.12004449991E+02  0.24505477983E+02  0.10000000000E+01 0.  0.
<mgrwt>
<rscale>  0 0.12500147E+03</rscale>
<asrwt>0</asrwt>
<pdfrwt beam="1">  1        4 0.31929740E-01 0.12500147E+03</pdfrwt>
<pdfrwt beam="2">  1       -4 0.28956637E-02 0.12500147E+03</pdfrwt>
<totfact> 0.85868066E+03</totfact>
</mgrwt>
</event>
<event>
 5    1  0.3184438E-002  0.1249940E+03  0.7818608E-02  0.1235079E+00
         -4   -1    0    0    0  501 -0.00000000000E+00  0.00000000000E+00  0.35828679841E+03  0.35828904926E+03  0.12700000000E+01 0.  1.
          4   -1    0    0  501    0  0.00000000000E+00 -0.00000000000E+00 -0.10862245047E+02  0.10936236439E+02  0.12700000000E+01 0.  1.
         25    2    1    2    0    0  0.00000000000E+00  0.00000000000E+00  0.34742455337E+03  0.36922528570E+03  0.12499396512E+03 0.  0.
    9000005    1    3    3    0    0  0.11708914433E+01 -0.10884411245E+01  0.35824086982E+03  0.35824583250E+03  0.10000000000E+01 0.  0.
    9000005    1    3    3    0    0 -0.11708914433E+01  0.10884411245E+01 -0.10816316456E+02  0.10979453198E+02  0.10000000000E+01 0.  0.
<mgrwt>
<rscale>  0 0.12499397E+03</rscale>
<asrwt>0</asrwt>
<pdfrwt beam="2">  1        4 0.16769796E-02 0.12499397E+03</pdfrwt>
<pdfrwt beam="1">  1       -4 0.55126905E-01 0.12499397E+03</pdfrwt>
<totfact> 0.67669094E+03</totfact>
</mgrwt>
</event>
<event>
 5    1  0.3184438E-002  0.1249940E+03  0.7818608E-02  0.1235079E+00
         -4   -1    0    0    0  501 -0.00000000000E+00  0.00000000000E+00  0.31267585313E+02  0.31293366570E+02  0.12700000000E+01 0.  1.
          4   -1    0    0  501    0  0.00000000000E+00 -0.00000000000E+00 -0.12483727051E+03  0.12484373036E+03  0.12700000000E+01 0.  1.
         25    2    1    2    0    0  0.00000000000E+00  0.00000000000E+00 -0.93569685200E+02  0.15613709693E+03  0.12499402805E+03 0.  0.
    9000005    1    3    3    0    0 -0.50180759526E+02  0.18594467919E+02 -0.87088559556E+02  0.10222172014E+03  0.10000000000E+01 0.  0.
    9000005    1    3    3    0    0  0.50180759526E+02 -0.18594467919E+02 -0.64811256442E+01  0.53915376781E+02  0.10000000000E+01 0.  0.
<mgrwt>
<rscale>  0 0.12499403E+03</rscale>
<asrwt>0</asrwt>
<pdfrwt beam="2">  1        4 0.19208214E-01 0.12499403E+03</pdfrwt>
<pdfrwt beam="1">  1       -4 0.48128779E-02 0.12499403E+03</pdfrwt>
<totfact> 0.98105908E+03</totfact>
</mgrwt>
</event>
<event>
 5    1  0.3184438E-002  0.1249990E+03  0.7818608E-02  0.1235071E+00
         -4   -1    0    0    0  501 -0.00000000000E+00  0.00000000000E+00  0.39569831985E+02  0.39590207165E+02  0.12700000000E+01 0. -1.
          4   -1    0    0  501    0  0.00000000000E+00 -0.00000000000E+00 -0.98666488707E+02  0.98674661863E+02  0.12700000000E+01 0. -1.
         25    2    1    2    0    0  0.00000000000E+00  0.00000000000E+00 -0.59096656722E+02  0.13826486903E+03  0.12499903668E+03 0.  0.
    9000005    1    3    3    0    0 -0.30758204089E+02 -0.18357102124E+01 -0.89684979331E+02  0.94835818488E+02  0.10000000000E+01 0.  0.
    9000005    1    3    3    0    0  0.30758204089E+02  0.18357102124E+01  0.30588322609E+02  0.43429050540E+02  0.10000000000E+01 0.  0.
<mgrwt>
<rscale>  0 0.12499904E+03</rscale>
<asrwt>0</asrwt>
<pdfrwt beam="2">  1        4 0.15181656E-01 0.12499904E+03</pdfrwt>
<pdfrwt beam="1">  1       -4 0.60898625E-02 0.12499904E+03</pdfrwt>
<totfact> 0.10169895E+04</totfact>
</mgrwt>
</event>
<event>
 5    1  0.3184438E-002  0.1250051E+03  0.7818608E-02  0.1235061E+00
          4   -1    0    0  501    0  0.00000000000E+00  0.00000000000E+00  0.85410795042E+01  0.86349834451E+01  0.12700000000E+01 0. -1.
         -4   -1    0    0    0  501 -0.00000000000E+00 -0.00000000000E+00 -0.45479014972E+03  0.45479192295E+03  0.12700000000E+01 0. -1.
         25    2    1    2    0    0  0.00000000000E+00  0.00000000000E+00 -0.44624907021E+03  0.46342690640E+03  0.12500505951E+03 0.  0.
    9000005    1    3    3    0    0 -0.53568879842E+02 -0.11254105218E+02 -0.11133426264E+03  0.12406690860E+03  0.10000000000E+01 0.  0.
    9000005    1    3    3    0    0  0.53568879842E+02  0.11254105218E+02 -0.33491480757E+03  0.33935999779E+03  0.10000000000E+01 0.  0.
<mgrwt>
<rscale>  0 0.12500506E+03</rscale>
<asrwt>0</asrwt>
<pdfrwt beam="1">  1        4 0.13213724E-02 0.12500506E+03</pdfrwt>
<pdfrwt beam="2">  1       -4 0.69975056E-01 0.12500506E+03</pdfrwt>
<totfact> 0.58811476E+03</totfact>
</mgrwt>
</event>
<event>
 5    1  0.3184438E-002  0.1249999E+03  0.7818608E-02  0.1235069E+00
         -4   -1    0    0    0  501 -0.00000000000E+00  0.00000000000E+00  0.27114369194E+03  0.27114666617E+03  0.12700000000E+01 0.  1.
          4   -1    0    0  501    0  0.00000000000E+00 -0.00000000000E+00 -0.14375505141E+02  0.14431495004E+02  0.12700000000E+01 0.  1.
         25    2    1    2    0    0  0.00000000000E+00  0.00000000000E+00  0.25676818680E+03  0.28557816118E+03  0.12499993757E+03 0.  0.
    9000005    1    3    3    0    0 -0.28523334433E+02  0.55533362674E+02  0.13472825082E+03  0.14849322054E+03  0.10000000000E+01 0.  0.
    9000005    1    3    3    0    0  0.28523334433E+02 -0.55533362674E+02  0.12203993598E+03  0.13708494064E+03  0.10000000000E+01 0.  0.
<mgrwt>
<rscale>  0 0.12499994E+03</rscale>
<asrwt>0</asrwt>
<pdfrwt beam="2">  1        4 0.22161520E-02 0.12499994E+03</pdfrwt>
<pdfrwt beam="1">  1       -4 0.41718947E-01 0.12499994E+03</pdfrwt>
<totfact> 0.77444356E+03</totfact>
</mgrwt>
</event>
<event>
 5    1  0.3184438E-002  0.1250033E+03  0.7818608E-02  0.1235064E+00
          4   -1    0    0  501    0  0.00000000000E+00  0.00000000000E+00  0.82148956262E+02  0.82158772599E+02  0.12700000000E+01 0. -1.
         -4   -1    0    0    0  501 -0.00000000000E+00 -0.00000000000E+00 -0.47532189711E+02  0.47549153081E+02  0.12700000000E+01 0. -1.
         25    2    1    2    0    0  0.00000000000E+00  0.00000000000E+00  0.34616766551E+02  0.12970792568E+03  0.12500330179E+03 0.  0.
    9000005    1    3    3    0    0 -0.43172568871E+01 -0.23184619397E+02  0.77359553652E+02  0.80880565186E+02  0.10000000000E+01 0.  0.
    9000005    1    3    3    0    0  0.43172568871E+01  0.23184619397E+02 -0.42742787101E+02  0.48827360493E+02  0.10000000000E+01 0.  0.
<mgrwt>
<rscale>  0 0.12500330E+03</rscale>
<asrwt>0</asrwt>
<pdfrwt beam="1">  1        4 0.12640361E-01 0.12500330E+03</pdfrwt>
<pdfrwt beam="2">  1       -4 0.73147046E-02 0.12500330E+03</pdfrwt>
<totfact> 0.10349988E+04</totfact>
</mgrwt>
</event>
<event>
 5    1  0.3184438E-002  0.1250006E+03  0.7818608E-02  0.1235068E+00
          4   -1    0    0  501    0  0.00000000000E+00  0.00000000000E+00  0.33018641660E+02  0.33043056715E+02  0.12700000000E+01 0.  1.
         -4   -1    0    0    0  501 -0.00000000000E+00 -0.00000000000E+00 -0.11823405543E+03  0.11824087603E+03  0.12700000000E+01 0.  1.
         25    2    1    2    0    0  0.00000000000E+00  0.00000000000E+00 -0.85215413770E+02  0.15128393274E+03  0.12500064624E+03 0.  0.
    9000005    1    3    3    0    0  0.10654772390E+02  0.55621972441E+02 -0.74581676682E+02  0.93652306376E+02  0.10000000000E+01 0.  0.
    9000005    1    3    3    0    0 -0.10654772390E+02 -0.55621972441E+02 -0.10633737089E+02  0.57631626364E+02  0.10000000000E+01 0.  0.
<mgrwt>
<rscale>  0 0.12500065E+03</rscale>
<asrwt>0</asrwt>
<pdfrwt beam="1">  1        4 0.50821938E-02 0.12500065E+03</pdfrwt>
<pdfrwt beam="2">  1       -4 0.18192257E-01 0.12500065E+03</pdfrwt>
<totfact> 0.99046939E+03</totfact>
</mgrwt>
</event>
<event>
 5    1  0.3184438E-002  0.1249996E+03  0.7818608E-02  0.1235070E+00
         -4   -1    0    0    0  501 -0.00000000000E+00  0.00000000000E+00  0.32843763113E+02  0.32868308070E+02  0.12700000000E+01 0. -1.
          4   -1    0    0  501    0  0.00000000000E+00 -0.00000000000E+00 -0.11886114642E+03  0.11886793103E+03  0.12700000000E+01 0. -1.
         25    2    1    2    0    0  0.00000000000E+00  0.00000000000E+00 -0.86017383305E+02  0.15173623910E+03  0.12499958410E+03 0.  0.
    9000005    1    3    3    0    0  0.49626659726E+02 -0.35666541624E+02 -0.58850656959E+02  0.84848732292E+02  0.10000000000E+01 0.  0.
    9000005    1    3    3    0    0 -0.49626659726E+02  0.35666541624E+02 -0.27166726345E+02  0.66887506810E+02  0.10000000000E+01 0.  0.
<mgrwt>
<rscale>  0 0.12499958E+03</rscale>
<asrwt>0</asrwt>
<pdfrwt beam="2">  1        4 0.18288740E-01 0.12499958E+03</pdfrwt>
<pdfrwt beam="1">  1       -4 0.50552966E-02 0.12499958E+03</pdfrwt>
<totfact> 0.98959651E+03</totfact>
</mgrwt>
</event>
<event>
 5    1  0.3184438E-002  0.1249991E+03  0.7818608E-02  0.1235071E+00
         -4   -1    0    0    0  501 -0.00000000000E+00  0.00000000000E+00  0.11872069958E+02  0.11939805069E+02  0.12700000000E+01 0. -1.
          4   -1    0    0  501    0  0.00000000000E+00 -0.00000000000E+00 -0.32801895255E+03  0.32802141109E+03  0.12700000000E+01 0. -1.
         25    2    1    2    0    0  0.00000000000E+00  0.00000000000E+00 -0.31614688259E+03  0.33996121616E+03  0.12499910847E+03 0.  0.
    9000005    1    3    3    0    0 -0.17659615166E+02 -0.58362985217E+02 -0.12087260923E+03  0.13538569981E+03  0.10000000000E+01 0.  0.
    9000005    1    3    3    0    0  0.17659615166E+02  0.58362985217E+02 -0.19527427336E+03  0.20457551635E+03  0.10000000000E+01 0.  0.
<mgrwt>
<rscale>  0 0.12499911E+03</rscale>
<asrwt>0</asrwt>
<pdfrwt beam="2">  1        4 0.50469847E-01 0.12499911E+03</pdfrwt>
<pdfrwt beam="1">  1       -4 0.18318721E-02 0.12499911E+03</pdfrwt>
<totfact> 0.70844651E+03</totfact>
</mgrwt>
</event>
<event>
 5    1  0.3184438E-002  0.1249960E+03  0.7818608E-02  0.1235075E+00
          4   -1    0    0  501    0  0.00000000000E+00  0.00000000000E+00  0.31678056569E+02  0.31703504033E+02  0.12700000000E+01 0. -1.
         -4   -1    0    0    0  501 -0.00000000000E+00 -0.00000000000E+00 -0.12322488645E+03  0.12323143082E+03  0.12700000000E+01 0. -1.
         25    2    1    2    0    0  0.00000000000E+00  0.00000000000E+00 -0.91546829886E+02  0.15493493485E+03  0.12499604784E+03 0.  0.
    9000005    1    3    3    0    0  0.19450649575E+02  0.57211734564E+02 -0.26038477198E+02  0.65806630635E+02  0.10000000000E+01 0.  0.
    9000005    1    3    3    0    0 -0.19450649575E+02 -0.57211734564E+02 -0.65508352688E+02  0.89128304217E+02  0.10000000000E+01 0.  0.
<mgrwt>
<rscale>  0 0.12499605E+03</rscale>
<asrwt>0</asrwt>
<pdfrwt beam="1">  1        4 0.48760082E-02 0.12499605E+03</pdfrwt>
<pdfrwt beam="2">  1       -4 0.18960135E-01 0.12499605E+03</pdfrwt>
<totfact> 0.98337014E+03</totfact>
</mgrwt>
</event>
<event>
 5    1  0.3184438E-002  0.1250301E+03  0.7818608E-02  0.1235022E+00
          4   -1    0    0  501    0  0.00000000000E+00  0.00000000000E+00  0.50701238123E+03  0.50701397182E+03  0.12700000000E+01 0. -1.
         -4   -1    0    0    0  501 -0.00000000000E+00 -0.00000000000E+00 -0.76542268231E+01  0.77588715841E+01  0.12700000000E+01 0. -1.
         25    2    1    2    0    0  0.00000000000E+00  0.00000000000E+00  0.49935815441E+03  0.51477284341E+03  0.12503005212E+03 0.  0.
    9000005    1    3    3    0    0 -0.42373747870E+02 -0.11493874564E+02  0.66499393963E+02  0.79691988673E+02  0.10000000000E+01 0.  0.
    9000005    1    3    3    0    0  0.42373747870E+02  0.11493874564E+02  0.43285876045E+03  0.43508085473E+03  0.10000000000E+01 0.  0.
<mgrwt>
<rscale>  0 0.12503005E+03</rscale>
<asrwt>0</asrwt>
<pdfrwt beam="1">  1        4 0.78010106E-01 0.12503005E+03</pdfrwt>
<pdfrwt beam="2">  1       -4 0.11857449E-02 0.12503005E+03</pdfrwt>
<totfact> 0.54699969E+03</totfact>
</mgrwt>
</event>
<event>
 5    1  0.3184438E-002  0.1250156E+03  0.7818608E-02  0.1235045E+00
         -4   -1    0    0    0  501 -0.00000000000E+00  0.00000000000E+00  0.72910029005E+02  0.72921089058E+02  0.12700000000E+01 0.  1.
          4   -1    0    0  501    0  0.00000000000E+00 -0.00000000000E+00 -0.53567046202E+02  0.53582099052E+02  0.12700000000E+01 0.  1.
         25    2    1    2    0    0  0.00000000000E+00  0.00000000000E+00  0.19342982802E+02  0.12650318811E+03  0.12501562150E+03 0.  0.
    9000005    1    3    3    0    0 -0.32860210680E+02  0.17135186065E+02 -0.41254466770E+02  0.55464755259E+02  0.10000000000E+01 0.  0.
    9000005    1    3    3    0    0  0.32860210680E+02 -0.17135186065E+02  0.60597449572E+02  0.71038432852E+02  0.10000000000E+01 0.  0.
<mgrwt>
<rscale>  0 0.12501562E+03</rscale>
<asrwt>0</asrwt>
<pdfrwt beam="2">  1        4 0.82430927E-02 0.12501562E+03</pdfrwt>
<pdfrwt beam="1">  1       -4 0.11218936E-01 0.12501562E+03</pdfrwt>
<totfact> 0.10416285E+04</totfact>
</mgrwt>
</event>
<event>
 5    1  0.3184438E-002  0.1250021E+03  0.7818608E-02  0.1235066E+00
          4   -1    0    0  501    0  0.00000000000E+00  0.00000000000E+00  0.33080942515E+02  0.33105311624E+02  0.12700000000E+01 0. -1.
         -4   -1    0    0    0  501 -0.00000000000E+00 -0.00000000000E+00 -0.11801429401E+03  0.11802112731E+03  0.12700000000E+01 0. -1.
         25    2    1    2    0    0  0.00000000000E+00  0.00000000000E+00 -0.84933351497E+02  0.15112643893E+03  0.12500210537E+03 0.  0.
    9000005    1    3    3    0    0 -0.25242421432E+02 -0.36053241819E+02 -0.96105097852E+02  0.10570811662E+03  0.10000000000E+01 0.  0.
    9000005    1    3    3    0    0  0.25242421432E+02  0.36053241819E+02  0.11171746355E+02  0.45418322316E+02  0.10000000000E+01 0.  0.
<mgrwt>
<rscale>  0 0.12500211E+03</rscale>
<asrwt>0</asrwt>
<pdfrwt beam="1">  1        4 0.50917760E-02 0.12500211E+03</pdfrwt>
<pdfrwt beam="2">  1       -4 0.18158445E-01 0.12500211E+03</pdfrwt>
<totfact> 0.99074938E+03</totfact>
</mgrwt>
</event>
<event>
 5    1  0.3184438E-002  0.1250343E+03  0.7818608E-02  0.1235016E+00
          4   -1    0    0  501    0  0.00000000000E+00  0.00000000000E+00  0.19670426885E+03  0.19670836862E+03  0.12700000000E+01 0. -1.
         -4   -1    0    0    0  501 -0.00000000000E+00 -0.00000000000E+00 -0.19844783052E+02  0.19885379413E+02  0.12700000000E+01 0. -1.
         25    2    1    2    0    0  0.00000000000E+00  0.00000000000E+00  0.17685948580E+03  0.21659374803E+03  0.12503429117E+03 0.  0.
    9000005    1    3    3    0    0  0.31170075881E+02  0.27687301758E+02  0.77489978951E+01  0.42417063517E+02  0.10000000000E+01 0.  0.
    9000005    1    3    3    0    0 -0.31170075881E+02 -0.27687301758E+02  0.16911048790E+03  0.17417668451E+03  0.10000000000E+01 0.  0.
<mgrwt>
<rscale>  0 0.12503429E+03</rscale>
<asrwt>0</asrwt>
<pdfrwt beam="1">  1        4 0.30265633E-01 0.12503429E+03</pdfrwt>
<pdfrwt beam="2">  1       -4 0.30564817E-02 0.12503429E+03</pdfrwt>
<totfact> 0.87343292E+03</totfact>
</mgrwt>
</event>
<event>
 5    1  0.3184438E-002  0.1250028E+03  0.7818608E-02  0.1235065E+00
          4   -1    0    0  501    0  0.00000000000E+00  0.00000000000E+00  0.39697315811E+02  0.39717625591E+02  0.12700000000E+01 0. -1.
         -4   -1    0    0    0  501 -0.00000000000E+00 -0.00000000000E+00 -0.98355694963E+02  0.98363893943E+02  0.12700000000E+01 0. -1.
         25    2    1    2    0    0  0.00000000000E+00  0.00000000000E+00 -0.58658379152E+02  0.13808151953E+03  0.12500280234E+03 0.  0.
    9000005    1    3    3    0    0  0.20474422154E+02 -0.82370421510E+01 -0.93913290358E+02  0.96476717046E+02  0.10000000000E+01 0.  0.
    9000005    1    3    3    0    0 -0.20474422154E+02  0.82370421510E+01  0.35254911206E+02  0.41604802489E+02  0.10000000000E+01 0.  0.
<mgrwt>
<rscale>  0 0.12500280E+03</rscale>
<asrwt>0</asrwt>
<pdfrwt beam="1">  1        4 0.61094724E-02 0.12500280E+03</pdfrwt>
<pdfrwt beam="2">  1       -4 0.15133838E-01 0.12500280E+03</pdfrwt>
<totfact> 0.10172861E+04</totfact>
</mgrwt>
</event>
<event>
 5    1  0.3184438E-002  0.1249969E+03  0.7818608E-02  0.1235074E+00
         -4   -1    0    0    0  501 -0.00000000000E+00  0.00000000000E+00  0.46212334716E+02  0.46229782391E+02  0.12700000000E+01 0.  1.
          4   -1    0    0  501    0  0.00000000000E+00 -0.00000000000E+00 -0.84485907640E+02  0.84495452480E+02  0.12700000000E+01 0.  1.
         25    2    1    2    0    0  0.00000000000E+00  0.00000000000E+00 -0.38273572924E+02  0.13072523487E+03  0.12499688255E+03 0.  0.
    9000005    1    3    3    0    0  0.10690076519E+02 -0.60010052449E+02 -0.33536247434E+02  0.69578473847E+02  0.10000000000E+01 0.  0.
    9000005    1    3    3    0    0 -0.10690076519E+02  0.60010052449E+02 -0.47373254901E+01  0.61146761024E+02  0.10000000000E+01 0.  0.
<mgrwt>
<rscale>  0 0.12499688E+03</rscale>
<asrwt>0</asrwt>
<pdfrwt beam="2">  1        4 0.12999908E-01 0.12499688E+03</pdfrwt>
<pdfrwt beam="1">  1       -4 0.71116663E-02 0.12499688E+03</pdfrwt>
<totfact> 0.10329710E+04</totfact>
</mgrwt>
</event>
<event>
 5    1  0.3184438E-002  0.1250009E+03  0.7818608E-02  0.1235068E+00
         -4   -1    0    0    0  501 -0.00000000000E+00  0.00000000000E+00  0.88722729828E+02  0.88731818916E+02  0.12700000000E+01 0. -1.
          4   -1    0    0  501    0  0.00000000000E+00 -0.00000000000E+00 -0.44007770537E+02  0.44026091896E+02  0.12700000000E+01 0. -1.
         25    2    1    2    0    0  0.00000000000E+00  0.00000000000E+00  0.44714959291E+02  0.13275791081E+03  0.12500094119E+03 0.  0.
    9000005    1    3    3    0    0 -0.26834514065E+02  0.55045182965E+02  0.35590429085E+02  0.70836021594E+02  0.10000000000E+01 0.  0.
    9000005    1    3    3    0    0  0.26834514065E+02 -0.55045182965E+02  0.91245302064E+01  0.61921889218E+02  0.10000000000E+01 0.  0.
<mgrwt>
<rscale>  0 0.12500094E+03</rscale>
<asrwt>0</asrwt>
<pdfrwt beam="2">  1        4 0.67725348E-02 0.12500094E+03</pdfrwt>
<pdfrwt beam="1">  1       -4 0.13651759E-01 0.12500094E+03</pdfrwt>
<totfact> 0.10285329E+04</totfact>
</mgrwt>
</event>
<event>
 5    1  0.3184438E-002  0.1250027E+03  0.7818608E-02  0.1235065E+00
         -4   -1    0    0    0  501 -0.00000000000E+00  0.00000000000E+00  0.17841245305E+02  0.17886389631E+02  0.12700000000E+01 0.  1.
          4   -1    0    0  501    0  0.00000000000E+00 -0.00000000000E+00 -0.21863067180E+03  0.21863436041E+03  0.12700000000E+01 0.  1.
         25    2    1    2    0    0  0.00000000000E+00  0.00000000000E+00 -0.20078942650E+03  0.23652075004E+03  0.12500268560E+03 0.  0.
    9000005    1    3    3    0    0  0.21700575713E+02 -0.44324857136E+02 -0.17293520392E+03  0.17984213272E+03  0.10000000000E+01 0.  0.
    9000005    1    3    3    0    0 -0.21700575713E+02  0.44324857136E+02 -0.27854222577E+02  0.56678617324E+02  0.10000000000E+01 0.  0.
<mgrwt>
<rscale>  0 0.12500269E+03</rscale>
<asrwt>0</asrwt>
<pdfrwt beam="2">  1        4 0.33639242E-01 0.12500269E+03</pdfrwt>
<pdfrwt beam="1">  1       -4 0.27485635E-02 0.12500269E+03</pdfrwt>
<totfact> 0.84313235E+03</totfact>
</mgrwt>
</event>
<event>
 5    1  0.3184438E-002  0.1249975E+03  0.7818608E-02  0.1235073E+00
         -4   -1    0    0    0  501 -0.00000000000E+00  0.00000000000E+00  0.21886273340E+02  0.21923089671E+02  0.12700000000E+01 0.  1.
          4   -1    0    0  501    0  0.00000000000E+00 -0.00000000000E+00 -0.17828332265E+03  0.17828784601E+03  0.12700000000E+01 0.  1.
         25    2    1    2    0    0  0.00000000000E+00  0.00000000000E+00 -0.15639704931E+03  0.20021093568E+03  0.12499752691E+03 0.  0.
    9000005    1    3    3    0    0 -0.55548128779E+02  0.24459671554E+02 -0.10202192567E+03  0.11871538848E+03  0.10000000000E+01 0.  0.
    9000005    1    3    3    0    0  0.55548128779E+02 -0.24459671554E+02 -0.54375123634E+02  0.81495547201E+02  0.10000000000E+01 0.  0.
<mgrwt>
<rscale>  0 0.12499753E+03</rscale>
<asrwt>0</asrwt>
<pdfrwt beam="2">  1        4 0.27431382E-01 0.12499753E+03</pdfrwt>
<pdfrwt beam="1">  1       -4 0.33702991E-02 0.12499753E+03</pdfrwt>
<totfact> 0.90104929E+03</totfact>
</mgrwt>
</event>
<event>
 5    1  0.3184438E-002  0.1250015E+03  0.7818608E-02  0.1235067E+00
         -4   -1    0    0    0  501 -0.00000000000E+00  0.00000000000E+00  0.55721097917E+03  0.55721242647E+03  0.12700000000E+01 0.  1.
          4   -1    0    0  501    0  0.00000000000E+00 -0.00000000000E+00 -0.69515445469E+01  0.70666025491E+01  0.12700000000E+01 0.  1.
         25    2    1    2    0    0  0.00000000000E+00  0.00000000000E+00  0.55025943462E+03  0.56427902901E+03  0.12500150877E+03 0.  0.
    9000005    1    3    3    0    0  0.17095698448E+01  0.50452664636E+02  0.44141760865E+03  0.44429595905E+03  0.10000000000E+01 0.  0.
    9000005    1    3    3    0    0 -0.17095698448E+01 -0.50452664636E+02  0.10884182597E+03  0.11998306997E+03  0.10000000000E+01 0.  0.
<mgrwt>
<rscale>  0 0.12500151E+03</rscale>
<asrwt>0</asrwt>
<pdfrwt beam="2">  1        4 0.10784298E-02 0.12500151E+03</pdfrwt>
<pdfrwt beam="1">  1       -4 0.85733767E-01 0.12500151E+03</pdfrwt>
<totfact> 0.51201237E+03</totfact>
</mgrwt>
</event>
<event>
 5    1  0.3184438E-002  0.1249987E+03  0.7818608E-02  0.1235071E+00
          4   -1    0    0  501    0  0.00000000000E+00  0.00000000000E+00  0.55494164471E+01  0.56928835315E+01  0.12700000000E+01 0.  1.
         -4   -1    0    0    0  501 -0.00000000000E+00 -0.00000000000E+00 -0.69476152330E+03  0.69476268406E+03  0.12700000000E+01 0.  1.
         25    2    1    2    0    0  0.00000000000E+00  0.00000000000E+00 -0.68921210686E+03  0.70045556759E+03  0.12499869573E+03 0.  0.
    9000005    1    3    3    0    0 -0.20728511990E+02 -0.58952820191E+02 -0.34600434866E+03  0.35160363410E+03  0.10000000000E+01 0.  0.
    9000005    1    3    3    0    0  0.20728511990E+02  0.58952820191E+02 -0.34320775820E+03  0.34885193349E+03  0.10000000000E+01 0.  0.
<mgrwt>
<rscale>  0 0.12499870E+03</rscale>
<asrwt>0</asrwt>
<pdfrwt beam="1">  1        4 0.86488215E-03 0.12499870E+03</pdfrwt>
<pdfrwt beam="2">  1       -4 0.10689745E+00 0.12499870E+03</pdfrwt>
<totfact> 0.43063903E+03</totfact>
</mgrwt>
</event>
<event>
 5    1  0.3184438E-002  0.1250111E+03  0.7818608E-02  0.1235052E+00
         -4   -1    0    0    0  501 -0.00000000000E+00  0.00000000000E+00  0.20501422679E+02  0.20540721308E+02  0.12700000000E+01 0. -1.
          4   -1    0    0  501    0  0.00000000000E+00 -0.00000000000E+00 -0.19034562650E+03  0.19034986322E+03  0.12700000000E+01 0. -1.
         25    2    1    2    0    0  0.00000000000E+00  0.00000000000E+00 -0.16984420382E+03  0.21089058453E+03  0.12501113979E+03 0.  0.
    9000005    1    3    3    0    0  0.34682990403E+02  0.36669179891E+02 -0.22745992736E+02  0.55370739229E+02  0.10000000000E+01 0.  0.
    9000005    1    3    3    0    0 -0.34682990403E+02 -0.36669179891E+02 -0.14709821109E+03  0.15551984530E+03  0.10000000000E+01 0.  0.
<mgrwt>
<rscale>  0 0.12501114E+03</rscale>
<asrwt>0</asrwt>
<pdfrwt beam="2">  1        4 0.29287290E-01 0.12501114E+03</pdfrwt>
<pdfrwt beam="1">  1       -4 0.31574140E-02 0.12501114E+03</pdfrwt>
<totfact> 0.88308650E+03</totfact>
</mgrwt>
</event>
<event>
 5    1  0.3184438E-002  0.1250090E+03  0.7818608E-02  0.1235055E+00
          4   -1    0    0  501    0  0.00000000000E+00  0.00000000000E+00  0.80108829915E+02  0.80118896213E+02  0.12700000000E+01 0.  1.
         -4   -1    0    0    0  501 -0.00000000000E+00 -0.00000000000E+00 -0.48747430241E+02  0.48763970870E+02  0.12700000000E+01 0.  1.
         25    2    1    2    0    0  0.00000000000E+00  0.00000000000E+00  0.31361399674E+02  0.12888286708E+03  0.12500902383E+03 0.  0.
    9000005    1    3    3    0    0  0.18101654256E+02  0.54622704597E+02  0.40818734006E+02  0.70558336078E+02  0.10000000000E+01 0.  0.
    9000005    1    3    3    0    0 -0.18101654256E+02 -0.54622704597E+02 -0.94573343318E+01  0.58324531005E+02  0.10000000000E+01 0.  0.
<mgrwt>
<rscale>  0 0.12500902E+03</rscale>
<asrwt>0</asrwt>
<pdfrwt beam="1">  1        4 0.12326482E-01 0.12500902E+03</pdfrwt>
<pdfrwt beam="2">  1       -4 0.75016514E-02 0.12500902E+03</pdfrwt>
<totfact> 0.10366353E+04</totfact>
</mgrwt>
</event>
<event>
 4    1  0.3184438E-002  0.1247596E+03  0.7818608E-02  0.1235445E+00
          4   -1    0    0  501    0  0.00000000000E+00  0.00000000000E+00  0.11218988405E+02  0.11290642180E+02  0.12700000000E+01 0.  1.
         -4   -1    0    0    0  501 -0.00000000000E+00 -0.00000000000E+00 -0.34566735560E+03  0.34566968861E+03  0.12700000000E+01 0.  1.
    9000005    1    1    2    0    0  0.51348955197E+02 -0.35011077865E+02 -0.15215166429E+03  0.16435820551E+03  0.10000000000E+01 0.  0.
    9000005    1    1    2    0    0 -0.51348955197E+02  0.35011077865E+02 -0.18229670290E+03  0.19260212528E+03  0.10000000000E+01 0.  0.
<mgrwt>
<rscale>  0 0.12475964E+03</rscale>
<asrwt>0</asrwt>
<pdfrwt beam="1">  1        4 0.17316898E-02 0.12475964E+03</pdfrwt>
<pdfrwt beam="2">  1       -4 0.53185276E-01 0.12475964E+03</pdfrwt>
<totfact> 0.69333571E+03</totfact>
</mgrwt>
</event>
<event>
 5    1  0.3184438E-002  0.1250008E+03  0.7818608E-02  0.1235068E+00
          4   -1    0    0  501    0  0.00000000000E+00  0.00000000000E+00  0.43838206655E+02  0.43856598850E+02  0.12700000000E+01 0.  1.
         -4   -1    0    0    0  501 -0.00000000000E+00 -0.00000000000E+00 -0.89065562289E+02  0.89074616394E+02  0.12700000000E+01 0.  1.
         25    2    1    2    0    0  0.00000000000E+00  0.00000000000E+00 -0.45227355633E+02  0.13293121524E+03  0.12500077715E+03 0.  0.
    9000005    1    3    3    0    0 -0.93367219606E+01  0.11228381477E+01 -0.88314011057E+02  0.88818915167E+02  0.10000000000E+01 0.  0.
    9000005    1    3    3    0    0  0.93367219606E+01 -0.11228381477E+01  0.43086655424E+02  0.44112300077E+02  0.10000000000E+01 0.  0.
<mgrwt>
<rscale>  0 0.12500078E+03</rscale>
<asrwt>0</asrwt>
<pdfrwt beam="1">  1        4 0.67464508E-02 0.12500078E+03</pdfrwt>
<pdfrwt beam="2">  1       -4 0.13704505E-01 0.12500078E+03</pdfrwt>
<totfact> 0.10281682E+04</totfact>
</mgrwt>
</event>
<event>
 5    1  0.3184438E-002  0.1249991E+03  0.7818608E-02  0.1235071E+00
         -4   -1    0    0    0  501 -0.00000000000E+00  0.00000000000E+00  0.77615532058E+02  0.77625921679E+02  0.12700000000E+01 0. -1.
          4   -1    0    0  501    0  0.00000000000E+00 -0.00000000000E+00 -0.50305677394E+02  0.50321705834E+02  0.12700000000E+01 0. -1.
         25    2    1    2    0    0  0.00000000000E+00  0.00000000000E+00  0.27309854664E+02  0.12794762751E+03  0.12499906889E+03 0.  0.
    9000005    1    3    3    0    0 -0.20217165499E+01 -0.45775503077E+02  0.57150914785E+02  0.73257839720E+02  0.10000000000E+01 0.  0.
    9000005    1    3    3    0    0  0.20217165499E+01  0.45775503077E+02 -0.29841060121E+02  0.54689787793E+02  0.10000000000E+01 0.  0.
<mgrwt>
<rscale>  0 0.12499907E+03</rscale>
<asrwt>0</asrwt>
<pdfrwt beam="2">  1        4 0.77413672E-02 0.12499907E+03</pdfrwt>
<pdfrwt beam="1">  1       -4 0.11942883E-01 0.12499907E+03</pdfrwt>
<totfact> 0.10388837E+04</totfact>
</mgrwt>
</event>
<event>
 5    1  0.3184438E-002  0.1249999E+03  0.7818608E-02  0.1235069E+00
         -4   -1    0    0    0  501 -0.00000000000E+00  0.00000000000E+00  0.32267452266E+02  0.32292435271E+02  0.12700000000E+01 0. -1.
          4   -1    0    0  501    0  0.00000000000E+00 -0.00000000000E+00 -0.12098324430E+03  0.12098990992E+03  0.12700000000E+01 0. -1.
         25    2    1    2    0    0  0.00000000000E+00  0.00000000000E+00 -0.88715792039E+02  0.15328234519E+03  0.12499994236E+03 0.  0.
    9000005    1    3    3    0    0 -0.10765056845E+02 -0.55770292440E+01 -0.11953326068E+03  0.12015069752E+03  0.10000000000E+01 0.  0.
    9000005    1    3    3    0    0  0.10765056845E+02  0.55770292440E+01  0.30817468644E+02  0.33131647675E+02  0.10000000000E+01 0.  0.
<mgrwt>
<rscale>  0 0.12499994E+03</rscale>
<asrwt>0</asrwt>
<pdfrwt beam="2">  1        4 0.18615241E-01 0.12499994E+03</pdfrwt>
<pdfrwt beam="1">  1       -4 0.49666580E-02 0.12499994E+03</pdfrwt>
<totfact> 0.98653518E+03</totfact>
</mgrwt>
</event>
<event>
 5    1  0.3184438E-002  0.1249961E+03  0.7818608E-02  0.1235075E+00
         -4   -1    0    0    0  501 -0.00000000000E+00  0.00000000000E+00  0.15020512958E+02  0.15074107254E+02  0.12700000000E+01 0.  1.
          4   -1    0    0  501    0  0.00000000000E+00 -0.00000000000E+00 -0.25952642107E+03  0.25952952844E+03  0.12700000000E+01 0.  1.
         25    2    1    2    0    0  0.00000000000E+00  0.00000000000E+00 -0.24450590811E+03  0.27460363570E+03  0.12499607048E+03 0.  0.
    9000005    1    3    3    0    0 -0.41021588276E+01  0.63359602857E+01  0.14026152470E+02  0.15959481599E+02  0.10000000000E+01 0.  0.
    9000005    1    3    3    0    0  0.41021588276E+01 -0.63359602857E+01 -0.25853206058E+03  0.25864415410E+03  0.10000000000E+01 0.  0.
<mgrwt>
<rscale>  0 0.12499607E+03</rscale>
<asrwt>0</asrwt>
<pdfrwt beam="2">  1        4 0.39931500E-01 0.12499607E+03</pdfrwt>
<pdfrwt beam="1">  1       -4 0.23152100E-02 0.12499607E+03</pdfrwt>
<totfact> 0.78906004E+03</totfact>
</mgrwt>
</event>
<event>
 5    1  0.3184438E-002  0.1250002E+03  0.7818608E-02  0.1235069E+00
         -4   -1    0    0    0  501 -0.00000000000E+00  0.00000000000E+00  0.87960944345E+03  0.87961036027E+03  0.12700000000E+01 0.  1.
          4   -1    0    0  501    0  0.00000000000E+00 -0.00000000000E+00 -0.43491677054E+01  0.45308012238E+01  0.12700000000E+01 0.  1.
         25    2    1    2    0    0  0.00000000000E+00  0.00000000000E+00  0.87526027574E+03  0.88414116150E+03  0.12500017265E+03 0.  0.
    9000005    1    3    3    0    0 -0.10032702510E+02  0.51460892136E+02  0.67815595881E+03  0.68018040476E+03  0.10000000000E+01 0.  0.
    9000005    1    3    3    0    0  0.10032702510E+02 -0.51460892136E+02  0.19710431693E+03  0.20396075674E+03  0.10000000000E+01 0.  0.
<mgrwt>
<rscale>  0 0.12500017E+03</rscale>
<asrwt>0</asrwt>
<pdfrwt beam="2">  1        4 0.68314521E-03 0.12500017E+03</pdfrwt>
<pdfrwt beam="1">  1       -4 0.13533854E+00 0.12500017E+03</pdfrwt>
<totfact> 0.34769347E+03</totfact>
</mgrwt>
</event>
<event>
 5    1  0.3184438E-002  0.1250054E+03  0.7818608E-02  0.1235061E+00
          4   -1    0    0  501    0  0.00000000000E+00  0.00000000000E+00  0.36916868593E+02  0.36938707161E+02  0.12700000000E+01 0.  1.
         -4   -1    0    0    0  501 -0.00000000000E+00 -0.00000000000E+00 -0.10576421407E+03  0.10577183878E+03  0.12700000000E+01 0.  1.
         25    2    1    2    0    0  0.00000000000E+00  0.00000000000E+00 -0.68847345478E+02  0.14271054594E+03  0.12500537165E+03 0.  0.
    9000005    1    3    3    0    0  0.37521309369E+02 -0.44413603295E+02 -0.82613137565E+01  0.58733858373E+02  0.10000000000E+01 0.  0.
    9000005    1    3    3    0    0 -0.37521309369E+02  0.44413603295E+02 -0.60586031722E+02  0.83976687564E+02  0.10000000000E+01 0.  0.
<mgrwt>
<rscale>  0 0.12500537E+03</rscale>
<asrwt>0</asrwt>
<pdfrwt beam="1">  1        4 0.56817847E-02 0.12500537E+03</pdfrwt>
<pdfrwt beam="2">  1       -4 0.16273684E-01 0.12500537E+03</pdfrwt>
<totfact> 0.10076495E+04</totfact>
</mgrwt>
</event>
<event>
 5    1  0.3184438E-002  0.1250001E+03  0.7818608E-02  0.1235069E+00
          4   -1    0    0  501    0  0.00000000000E+00  0.00000000000E+00  0.65848189669E+03  0.65848312140E+03  0.12700000000E+01 0.  1.
         -4   -1    0    0    0  501 -0.00000000000E+00 -0.00000000000E+00 -0.58630013097E+01  0.59989736087E+01  0.12700000000E+01 0.  1.
         25    2    1    2    0    0  0.00000000000E+00  0.00000000000E+00  0.65261889538E+03  0.66448209501E+03  0.12500012792E+03 0.  0.
    9000005    1    3    3    0    0 -0.54009068023E+02  0.44595052838E+01  0.16088553727E+03  0.16977050015E+03  0.10000000000E+01 0.  0.
    9000005    1    3    3    0    0  0.54009068023E+02 -0.44595052838E+01  0.49173335811E+03  0.49471159487E+03  0.10000000000E+01 0.  0.
<mgrwt>
<rscale>  0 0.12500013E+03</rscale>
<asrwt>0</asrwt>
<pdfrwt beam="1">  1        4 0.10131541E+00 0.12500013E+03</pdfrwt>
<pdfrwt beam="2">  1       -4 0.91255426E-03 0.12500013E+03</pdfrwt>
<totfact> 0.45028936E+03</totfact>
</mgrwt>
</event>
<event>
 5    1  0.3184438E-002  0.1250416E+03  0.7818608E-02  0.1235004E+00
          4   -1    0    0  501    0  0.00000000000E+00  0.00000000000E+00  0.19056137464E+02  0.19098410276E+02  0.12700000000E+01 0.  1.
         -4   -1    0    0    0  501 -0.00000000000E+00 -0.00000000000E+00 -0.20485156394E+03  0.20485550066E+03  0.12700000000E+01 0.  1.
         25    2    1    2    0    0  0.00000000000E+00  0.00000000000E+00 -0.18579542648E+03  0.22395391093E+03  0.12504164795E+03 0.  0.
    9000005    1    3    3    0    0 -0.37773099152E+02 -0.35151378173E+02 -0.29691014963E+02  0.59539757949E+02  0.10000000000E+01 0.  0.
    9000005    1    3    3    0    0  0.37773099152E+02  0.35151378173E+02 -0.15610441152E+03  0.16441415299E+03  0.10000000000E+01 0.  0.
<mgrwt>
<rscale>  0 0.12504165E+03</rscale>
<asrwt>0</asrwt>
<pdfrwt beam="1">  1        4 0.29352682E-02 0.12504165E+03</pdfrwt>
<pdfrwt beam="2">  1       -4 0.31519178E-01 0.12504165E+03</pdfrwt>
<totfact> 0.86166381E+03</totfact>
</mgrwt>
</event>
<event>
 5    1  0.3184438E-002  0.1249988E+03  0.7818608E-02  0.1235071E+00
          4   -1    0    0  501    0  0.00000000000E+00  0.00000000000E+00  0.49961902230E+02  0.49978040922E+02  0.12700000000E+01 0.  1.
         -4   -1    0    0    0  501 -0.00000000000E+00 -0.00000000000E+00 -0.78149149385E+02  0.78159468074E+02  0.12700000000E+01 0.  1.
         25    2    1    2    0    0  0.00000000000E+00  0.00000000000E+00 -0.28187247156E+02  0.12813750900E+03  0.12499880123E+03 0.  0.
    9000005    1    3    3    0    0  0.46268452119E+02  0.27119216655E+00 -0.57152289357E+02  0.73540651244E+02  0.10000000000E+01 0.  0.
    9000005    1    3    3    0    0 -0.46268452119E+02 -0.27119216655E+00  0.28965042201E+02  0.54596857752E+02  0.10000000000E+01 0.  0.
<mgrwt>
<rscale>  0 0.12499880E+03</rscale>
<asrwt>0</asrwt>
<pdfrwt beam="1">  1        4 0.76884817E-02 0.12499880E+03</pdfrwt>
<pdfrwt beam="2">  1       -4 0.12024981E-01 0.12499880E+03</pdfrwt>
<totfact> 0.10384800E+04</totfact>
</mgrwt>
</event>
<event>
 5    1  0.3184438E-002  0.1249963E+03  0.7818608E-02  0.1235075E+00
         -4   -1    0    0    0  501 -0.00000000000E+00  0.00000000000E+00  0.24397292842E+03  0.24397623389E+03  0.12700000000E+01 0.  1.
          4   -1    0    0  501    0  0.00000000000E+00 -0.00000000000E+00 -0.15981449650E+02  0.16031831864E+02  0.12700000000E+01 0.  1.
         25    2    1    2    0    0  0.00000000000E+00  0.00000000000E+00  0.22799147877E+03  0.26000806575E+03  0.12499631940E+03 0.  0.
    9000005    1    3    3    0    0 -0.52258399525E+02  0.30374334093E+02  0.81008887796E+02  0.10107907990E+03  0.10000000000E+01 0.  0.
    9000005    1    3    3    0    0  0.52258399525E+02 -0.30374334093E+02  0.14698259097E+03  0.15892898585E+03  0.10000000000E+01 0.  0.
<mgrwt>
<rscale>  0 0.12499632E+03</rscale>
<asrwt>0</asrwt>
<pdfrwt beam="2">  1        4 0.24628143E-02 0.12499632E+03</pdfrwt>
<pdfrwt beam="1">  1       -4 0.37538428E-01 0.12499632E+03</pdfrwt>
<totfact> 0.80911555E+03</totfact>
</mgrwt>
</event>
<event>
 5    1  0.3184438E-002  0.1250031E+03  0.7818608E-02  0.1235064E+00
          4   -1    0    0  501    0  0.00000000000E+00  0.00000000000E+00  0.29463904853E+03  0.29464178560E+03  0.12700000000E+01 0.  1.
         -4   -1    0    0    0  501 -0.00000000000E+00 -0.00000000000E+00 -0.13225185841E+02  0.13286024256E+02  0.12700000000E+01 0.  1.
         25    2    1    2    0    0  0.00000000000E+00  0.00000000000E+00  0.28141386269E+03  0.30792780985E+03  0.12500309583E+03 0.  0.
    9000005    1    3    3    0    0 -0.33371746642E+02 -0.46244189764E+02  0.77746721290E+02  0.96424847587E+02  0.10000000000E+01 0.  0.
    9000005    1    3    3    0    0  0.33371746642E+02  0.46244189764E+02  0.20366714140E+03  0.21150296226E+03  0.10000000000E+01 0.  0.
<mgrwt>
<rscale>  0 0.12500310E+03</rscale>
<asrwt>0</asrwt>
<pdfrwt beam="1">  1        4 0.45333973E-01 0.12500310E+03</pdfrwt>
<pdfrwt beam="2">  1       -4 0.20395345E-02 0.12500310E+03</pdfrwt>
<totfact> 0.74609904E+03</totfact>
</mgrwt>
</event>
<event>
 5    1  0.3184438E-002  0.1249413E+03  0.7818608E-02  0.1235161E+00
          4   -1    0    0  501    0  0.00000000000E+00  0.00000000000E+00  0.11370164959E+04  0.11370172051E+04  0.12700000000E+01 0. -1.
         -4   -1    0    0    0  501 -0.00000000000E+00 -0.00000000000E+00 -0.33140833581E+01  0.35490912223E+01  0.12700000000E+01 0. -1.
         25    2    1    2    0    0  0.00000000000E+00  0.00000000000E+00  0.11337024125E+04  0.11405662964E+04  0.12494125123E+03 0.  0.
    9000005    1    3    3    0    0  0.46624481324E+02 -0.29725621004E+02  0.83207829275E+03  0.83391410833E+03  0.10000000000E+01 0.  0.
    9000005    1    3    3    0    0 -0.46624481324E+02  0.29725621004E+02  0.30162411975E+03  0.30665218802E+03  0.10000000000E+01 0.  0.
<mgrwt>
<rscale>  0 0.12494125E+03</rscale>
<asrwt>0</asrwt>
<pdfrwt beam="1">  1        4 0.17494380E+00 0.12494125E+03</pdfrwt>
<pdfrwt beam="2">  1       -4 0.52799089E-03 0.12494125E+03</pdfrwt>
<totfact> 0.26357188E+03</totfact>
</mgrwt>
</event>
<event>
 5    1  0.3184438E-002  0.1250026E+03  0.7818608E-02  0.1235065E+00
         -4   -1    0    0    0  501 -0.00000000000E+00  0.00000000000E+00  0.12380719744E+02  0.12445686859E+02  0.12700000000E+01 0.  1.
          4   -1    0    0  501    0  0.00000000000E+00 -0.00000000000E+00 -0.31463181675E+03  0.31463437989E+03  0.12700000000E+01 0.  1.
         25    2    1    2    0    0  0.00000000000E+00  0.00000000000E+00 -0.30225109700E+03  0.32708006675E+03  0.12500257768E+03 0.  0.
    9000005    1    3    3    0    0  0.24825726756E+02 -0.15519656969E+02 -0.66616580246E+01  0.30042538991E+02  0.10000000000E+01 0.  0.
    9000005    1    3    3    0    0 -0.24825726756E+02  0.15519656969E+02 -0.29558943898E+03  0.29703752776E+03  0.10000000000E+01 0.  0.
<mgrwt>
<rscale>  0 0.12500258E+03</rscale>
<asrwt>0</asrwt>
<pdfrwt beam="2">  1        4 0.48410083E-01 0.12500258E+03</pdfrwt>
<pdfrwt beam="1">  1       -4 0.19099210E-02 0.12500258E+03</pdfrwt>
<totfact> 0.72317756E+03</totfact>
</mgrwt>
</event>
<event>
 5    1  0.3184438E-002  0.1249998E+03  0.7818608E-02  0.1235070E+00
          4   -1    0    0  501    0  0.00000000000E+00  0.00000000000E+00  0.11630715630E+03  0.11631408988E+03  0.12700000000E+01 0.  1.
         -4   -1    0    0    0  501 -0.00000000000E+00 -0.00000000000E+00 -0.33565577910E+02  0.33589595419E+02  0.12700000000E+01 0.  1.
         25    2    1    2    0    0  0.00000000000E+00  0.00000000000E+00  0.82741578385E+02  0.14990368530E+03  0.12499978429E+03 0.  0.
    9000005    1    3    3    0    0  0.31679315018E+02  0.50896138192E+02  0.20213930129E+02  0.63273998247E+02  0.10000000000E+01 0.  0.
    9000005    1    3    3    0    0 -0.31679315018E+02 -0.50896138192E+02  0.62527648256E+02  0.86629687056E+02  0.10000000000E+01 0.  0.
<mgrwt>
<rscale>  0 0.12499978E+03</rscale>
<asrwt>0</asrwt>
<pdfrwt beam="1">  1        4 0.17895789E-01 0.12499978E+03</pdfrwt>
<pdfrwt beam="2">  1       -4 0.51663160E-02 0.12499978E+03</pdfrwt>
<totfact> 0.99323383E+03</totfact>
</mgrwt>
</event>
<event>
 5    1  0.3184438E-002  0.1249994E+03  0.7818608E-02  0.1235070E+00
         -4   -1    0    0    0  501 -0.00000000000E+00  0.00000000000E+00  0.41802489302E+03  0.41802682221E+03  0.12700000000E+01 0.  1.
          4   -1    0    0  501    0  0.00000000000E+00 -0.00000000000E+00 -0.92993458506E+01  0.93856663722E+01  0.12700000000E+01 0.  1.
         25    2    1    2    0    0  0.00000000000E+00  0.00000000000E+00  0.40872554717E+03  0.42741248858E+03  0.12499944994E+03 0.  0.
    9000005    1    3    3    0    0  0.45335522002E+02 -0.28217480360E+02  0.31535522590E+03  0.31984598521E+03  0.10000000000E+01 0.  0.
    9000005    1    3    3    0    0 -0.45335522002E+02  0.28217480360E+02  0.93370321275E+02  0.10756650337E+03  0.10000000000E+01 0.  0.
<mgrwt>
<rscale>  0 0.12499945E+03</rscale>
<asrwt>0</asrwt>
<pdfrwt beam="2">  1        4 0.14374571E-02 0.12499945E+03</pdfrwt>
<pdfrwt beam="1">  1       -4 0.64318309E-01 0.12499945E+03</pdfrwt>
<totfact> 0.61971986E+03</totfact>
</mgrwt>
</event>
<event>
 5    1  0.3184438E-002  0.1249988E+03  0.7818608E-02  0.1235071E+00
         -4   -1    0    0    0  501 -0.00000000000E+00  0.00000000000E+00  0.12291058840E+04  0.12291065401E+04  0.12700000000E+01 0.  1.
          4   -1    0    0  501    0  0.00000000000E+00 -0.00000000000E+00 -0.30504995152E+01  0.33043073846E+01  0.12700000000E+01 0.  1.
         25    2    1    2    0    0  0.00000000000E+00  0.00000000000E+00  0.12260553845E+04  0.12324108475E+04  0.12499876496E+03 0.  0.
    9000005    1    3    3    0    0  0.50257936560E+01  0.59189377376E+02  0.42171198454E+03  0.42587631879E+03  0.10000000000E+01 0.  0.
    9000005    1    3    3    0    0 -0.50257936560E+01 -0.59189377376E+02  0.80434339993E+03  0.80653452871E+03  0.10000000000E+01 0.  0.
<mgrwt>
<rscale>  0 0.12499876E+03</rscale>
<asrwt>0</asrwt>
<pdfrwt beam="2">  1        4 0.48888195E-03 0.12499876E+03</pdfrwt>
<pdfrwt beam="1">  1       -4 0.18911272E+00 0.12499876E+03</pdfrwt>
<totfact> 0.23880471E+03</totfact>
</mgrwt>
</event>
<event>
 5    1  0.3184438E-002  0.1250001E+03  0.7818608E-02  0.1235069E+00
          4   -1    0    0  501    0  0.00000000000E+00  0.00000000000E+00  0.17601842439E+03  0.17602300596E+03  0.12700000000E+01 0. -1.
         -4   -1    0    0    0  501 -0.00000000000E+00 -0.00000000000E+00 -0.22169284958E+02  0.22205632068E+02  0.12700000000E+01 0. -1.
         25    2    1    2    0    0  0.00000000000E+00  0.00000000000E+00  0.15384913944E+03  0.19822863802E+03  0.12500014091E+03 0.  0.
    9000005    1    3    3    0    0  0.10378416737E+02 -0.61414973991E+02  0.68877649573E+02  0.92868946236E+02  0.10000000000E+01 0.  0.
    9000005    1    3    3    0    0 -0.10378416737E+02  0.61414973991E+02  0.84971489863E+02  0.10535969179E+03  0.10000000000E+01 0.  0.
<mgrwt>
<rscale>  0 0.12500014E+03</rscale>
<asrwt>0</asrwt>
<pdfrwt beam="1">  1        4 0.27082907E-01 0.12500014E+03</pdfrwt>
<pdfrwt beam="2">  1       -4 0.34138074E-02 0.12500014E+03</pdfrwt>
<totfact> 0.90434656E+03</totfact>
</mgrwt>
</event>
<event>
 5    1  0.3184438E-002  0.1249783E+03  0.7818608E-02  0.1235103E+00
          4   -1    0    0  501    0  0.00000000000E+00  0.00000000000E+00  0.30998245224E+02  0.31024250305E+02  0.12700000000E+01 0. -1.
         -4   -1    0    0    0  501 -0.00000000000E+00 -0.00000000000E+00 -0.12588937977E+03  0.12589578563E+03  0.12700000000E+01 0. -1.
         25    2    1    2    0    0  0.00000000000E+00  0.00000000000E+00 -0.94891134550E+02  0.15692003594E+03  0.12497827916E+03 0.  0.
    9000005    1    3    3    0    0  0.46342403622E+02  0.39802050897E+02 -0.63915719746E+02  0.88419685929E+02  0.10000000000E+01 0.  0.
    9000005    1    3    3    0    0 -0.46342403622E+02 -0.39802050897E+02 -0.30975414804E+02  0.68500350009E+02  0.10000000000E+01 0.  0.
<mgrwt>
<rscale>  0 0.12497828E+03</rscale>
<asrwt>0</asrwt>
<pdfrwt beam="1">  1        4 0.47714540E-02 0.12497828E+03</pdfrwt>
<pdfrwt beam="2">  1       -4 0.19370090E-01 0.12497828E+03</pdfrwt>
<totfact> 0.97987734E+03</totfact>
</mgrwt>
</event>
<event>
 5    1  0.3184438E-002  0.1250029E+03  0.7818608E-02  0.1235065E+00
         -4   -1    0    0    0  501 -0.00000000000E+00  0.00000000000E+00  0.54340891059E+01  0.55805218762E+01  0.12700000000E+01 0. -1.
          4   -1    0    0  501    0  0.00000000000E+00 -0.00000000000E+00 -0.70917058579E+03  0.70917172296E+03  0.12700000000E+01 0. -1.
         25    2    1    2    0    0  0.00000000000E+00  0.00000000000E+00 -0.70373649668E+03  0.71475224483E+03  0.12500285891E+03 0.  0.
    9000005    1    3    3    0    0  0.55604191785E+02 -0.21717444175E+02 -0.45760358736E+03  0.46148187038E+03  0.10000000000E+01 0.  0.
    9000005    1    3    3    0    0 -0.55604191785E+02  0.21717444175E+02 -0.24613290932E+03  0.25327037446E+03  0.10000000000E+01 0.  0.
<mgrwt>
<rscale>  0 0.12500286E+03</rscale>
<asrwt>0</asrwt>
<pdfrwt beam="2">  1        4 0.10911445E+00 0.12500286E+03</pdfrwt>
<pdfrwt beam="1">  1       -4 0.84736580E-03 0.12500286E+03</pdfrwt>
<totfact> 0.42316679E+03</totfact>
</mgrwt>
</event>
<event>
 5    1  0.3184438E-002  0.1250052E+03  0.7818608E-02  0.1235061E+00
          4   -1    0    0  501    0  0.00000000000E+00  0.00000000000E+00  0.29296598349E+03  0.29296873618E+03  0.12700000000E+01 0.  1.
         -4   -1    0    0    0  501 -0.00000000000E+00 -0.00000000000E+00 -0.13301507245E+02  0.13361998166E+02  0.12700000000E+01 0.  1.
         25    2    1    2    0    0  0.00000000000E+00  0.00000000000E+00  0.27966447624E+03  0.30633073435E+03  0.12500519803E+03 0.  0.
    9000005    1    3    3    0    0 -0.12332938561E+02  0.98655529533E+01  0.28800697614E+03  0.28844141314E+03  0.10000000000E+01 0.  0.
    9000005    1    3    3    0    0  0.12332938561E+02 -0.98655529533E+01 -0.83424999010E+01  0.17889321206E+02  0.10000000000E+01 0.  0.
<mgrwt>
<rscale>  0 0.12500520E+03</rscale>
<asrwt>0</asrwt>
<pdfrwt beam="1">  1        4 0.45076552E-01 0.12500520E+03</pdfrwt>
<pdfrwt beam="2">  1       -4 0.20512507E-02 0.12500520E+03</pdfrwt>
<totfact> 0.74802895E+03</totfact>
</mgrwt>
</event>
<event>
 5    1  0.3184438E-002  0.1250013E+03  0.7818608E-02  0.1235067E+00
         -4   -1    0    0    0  501 -0.00000000000E+00  0.00000000000E+00  0.10625935200E+03  0.10626694118E+03  0.12700000000E+01 0.  1.
          4   -1    0    0  501    0  0.00000000000E+00 -0.00000000000E+00 -0.36742370467E+02  0.36764312689E+02  0.12700000000E+01 0.  1.
         25    2    1    2    0    0  0.00000000000E+00  0.00000000000E+00  0.69516981538E+02  0.14303125387E+03  0.12500131544E+03 0.  0.
    9000005    1    3    3    0    0 -0.44103933196E+02 -0.43790918577E+02  0.27296274278E+02  0.67888791877E+02  0.10000000000E+01 0.  0.
    9000005    1    3    3    0    0  0.44103933196E+02  0.43790918577E+02  0.42220707260E+02  0.75142461995E+02  0.10000000000E+01 0.  0.
<mgrwt>
<rscale>  0 0.12500132E+03</rscale>
<asrwt>0</asrwt>
<pdfrwt beam="2">  1        4 0.56549441E-02 0.12500132E+03</pdfrwt>
<pdfrwt beam="1">  1       -4 0.16349864E-01 0.12500132E+03</pdfrwt>
<totfact> 0.10070845E+04</totfact>
</mgrwt>
</event>
<event>
 5    1  0.3184438E-002  0.1250013E+03  0.7818608E-02  0.1235067E+00
          4   -1    0    0  501    0  0.00000000000E+00  0.00000000000E+00  0.10593208676E+02  0.10669066035E+02  0.12700000000E+01 0.  1.
         -4   -1    0    0    0  501 -0.00000000000E+00 -0.00000000000E+00 -0.36736565657E+03  0.36736785179E+03  0.12700000000E+01 0.  1.
         25    2    1    2    0    0  0.00000000000E+00  0.00000000000E+00 -0.35677244789E+03  0.37803691782E+03  0.12500132664E+03 0.  0.
    9000005    1    3    3    0    0  0.85150036100E+01  0.61162891956E+02 -0.20738262846E+03  0.21638382386E+03  0.10000000000E+01 0.  0.
    9000005    1    3    3    0    0 -0.85150036100E+01 -0.61162891956E+02 -0.14938981943E+03  0.16165309396E+03  0.10000000000E+01 0.  0.
<mgrwt>
<rscale>  0 0.12500133E+03</rscale>
<asrwt>0</asrwt>
<pdfrwt beam="1">  1        4 0.16357287E-02 0.12500133E+03</pdfrwt>
<pdfrwt beam="2">  1       -4 0.56523788E-01 0.12500133E+03</pdfrwt>
<totfact> 0.66744471E+03</totfact>
</mgrwt>
</event>
<event>
 4    1  0.3184438E-002  0.1248695E+03  0.7818608E-02  0.1235273E+00
          4   -1    0    0  501    0  0.00000000000E+00  0.00000000000E+00  0.73005247878E+02  0.73016293509E+02  0.12700000000E+01 0. -1.
         -4   -1    0    0    0  501 -0.00000000000E+00 -0.00000000000E+00 -0.53372104722E+02  0.53387212536E+02  0.12700000000E+01 0. -1.
    9000005    1    1    2    0    0  0.14978914120E+02 -0.21020213451E+02 -0.47722545776E+02  0.54264708763E+02  0.10000000000E+01 0.  0.
    9000005    1    1    2    0    0 -0.14978914120E+02  0.21020213451E+02  0.67355688933E+02  0.72138797283E+02  0.10000000000E+01 0.  0.
<mgrwt>
<rscale>  0 0.12486948E+03</rscale>
<asrwt>0</asrwt>
<pdfrwt beam="1">  1        4 0.11233588E-01 0.12486948E+03</pdfrwt>
<pdfrwt beam="2">  1       -4 0.82131049E-02 0.12486948E+03</pdfrwt>
<totfact> 0.10452897E+04</totfact>
</mgrwt>
</event>
<event>
 5    1  0.3184438E-002  0.1250121E+03  0.7818608E-02  0.1235050E+00
          4   -1    0    0  501    0  0.00000000000E+00  0.00000000000E+00  0.13639884944E+03  0.13640476175E+03  0.12700000000E+01 0.  1.
         -4   -1    0    0    0  501 -0.00000000000E+00 -0.00000000000E+00 -0.28623356169E+02  0.28651516860E+02  0.12700000000E+01 0.  1.
         25    2    1    2    0    0  0.00000000000E+00  0.00000000000E+00  0.10777549327E+03  0.16505627861E+03  0.12501207205E+03 0.  0.
    9000005    1    3    3    0    0  0.41724923618E+02 -0.41005916214E+02  0.82921343691E+02  0.10148597763E+03  0.10000000000E+01 0.  0.
    9000005    1    3    3    0    0 -0.41724923618E+02  0.41005916214E+02  0.24854149575E+02  0.63570300979E+02  0.10000000000E+01 0.  0.
<mgrwt>
<rscale>  0 0.12501207E+03</rscale>
<asrwt>0</asrwt>
<pdfrwt beam="1">  1        4 0.20987059E-01 0.12501207E+03</pdfrwt>
<pdfrwt beam="2">  1       -4 0.44062142E-02 0.12501207E+03</pdfrwt>
<totfact> 0.96350603E+03</totfact>
</mgrwt>
</event>
<event>
 5    1  0.3184438E-002  0.1249708E+03  0.7818608E-02  0.1235115E+00
         -4   -1    0    0    0  501 -0.00000000000E+00  0.00000000000E+00  0.93069245680E+02  0.93077910330E+02  0.12700000000E+01 0.  1.
          4   -1    0    0  501    0  0.00000000000E+00 -0.00000000000E+00 -0.41931593600E+02  0.41950821706E+02  0.12700000000E+01 0.  1.
         25    2    1    2    0    0  0.00000000000E+00  0.00000000000E+00  0.51137652080E+02  0.13502873204E+03  0.12497079265E+03 0.  0.
    9000005    1    3    3    0    0  0.28586041206E+02 -0.51432360831E+02  0.28793337404E+01  0.58921473635E+02  0.10000000000E+01 0.  0.
    9000005    1    3    3    0    0 -0.28586041206E+02  0.51432360831E+02  0.48258318340E+02  0.76107258402E+02  0.10000000000E+01 0.  0.
<mgrwt>
<rscale>  0 0.12497079E+03</rscale>
<asrwt>0</asrwt>
<pdfrwt beam="2">  1        4 0.64531600E-02 0.12497079E+03</pdfrwt>
<pdfrwt beam="1">  1       -4 0.14320491E-01 0.12497079E+03</pdfrwt>
<totfact> 0.10244212E+04</totfact>
</mgrwt>
</event>
<event>
 5    1  0.3184438E-002  0.1250011E+03  0.7818608E-02  0.1235068E+00
          4   -1    0    0  501    0  0.00000000000E+00  0.00000000000E+00  0.62221516022E+01  0.63504386117E+01  0.12700000000E+01 0.  1.
         -4   -1    0    0    0  501 -0.00000000000E+00 -0.00000000000E+00 -0.62127374606E+03  0.62127504412E+03  0.12700000000E+01 0.  1.
         25    2    1    2    0    0  0.00000000000E+00  0.00000000000E+00 -0.61505159446E+03  0.62762548273E+03  0.12500113090E+03 0.  0.
    9000005    1    3    3    0    0  0.37429399372E+02  0.40000851876E+01 -0.57062993699E+02  0.68367725344E+02  0.10000000000E+01 0.  0.
    9000005    1    3    3    0    0 -0.37429399372E+02 -0.40000851876E+01 -0.55798860076E+03  0.55925775739E+03  0.10000000000E+01 0.  0.
<mgrwt>
<rscale>  0 0.12500113E+03</rscale>
<asrwt>0</asrwt>
<pdfrwt beam="1">  1        4 0.96722267E-03 0.12500113E+03</pdfrwt>
<pdfrwt beam="2">  1       -4 0.95590495E-01 0.12500113E+03</pdfrwt>
<totfact> 0.47167835E+03</totfact>
</mgrwt>
</event>
<event>
 5    1  0.3184438E-002  0.1250010E+03  0.7818608E-02  0.1235068E+00
         -4   -1    0    0    0  501 -0.00000000000E+00  0.00000000000E+00  0.13946646272E+02  0.14004350832E+02  0.12700000000E+01 0.  1.
          4   -1    0    0  501    0  0.00000000000E+00 -0.00000000000E+00 -0.27945220775E+03  0.27945509356E+03  0.12700000000E+01 0.  1.
         25    2    1    2    0    0  0.00000000000E+00  0.00000000000E+00 -0.26550556148E+03  0.29345944439E+03  0.12500096930E+03 0.  0.
    9000005    1    3    3    0    0 -0.27598046963E+02 -0.25629379563E+02 -0.24982518937E+03  0.25265023756E+03  0.10000000000E+01 0.  0.
    9000005    1    3    3    0    0  0.27598046963E+02  0.25629379563E+02 -0.15680372104E+02  0.40809206833E+02  0.10000000000E+01 0.  0.
<mgrwt>
<rscale>  0 0.12500097E+03</rscale>
<asrwt>0</asrwt>
<pdfrwt beam="2">  1        4 0.42997304E-01 0.12500097E+03</pdfrwt>
<pdfrwt beam="1">  1       -4 0.21502989E-02 0.12500097E+03</pdfrwt>
<totfact> 0.76425024E+03</totfact>
</mgrwt>
</event>
<event>
 5    1  0.3184438E-002  0.1250069E+03  0.7818608E-02  0.1235058E+00
          4   -1    0    0  501    0  0.00000000000E+00  0.00000000000E+00  0.97967264133E+01  0.98787017576E+01  0.12700000000E+01 0. -1.
         -4   -1    0    0    0  501 -0.00000000000E+00 -0.00000000000E+00 -0.39702995630E+03  0.39703198751E+03  0.12700000000E+01 0. -1.
         25    2    1    2    0    0  0.00000000000E+00  0.00000000000E+00 -0.38723322989E+03  0.40691068926E+03  0.12500693863E+03 0.  0.
    9000005    1    3    3    0    0 -0.29880041718E+02 -0.53154086061E+02 -0.14904307758E+03  0.16103730230E+03  0.10000000000E+01 0.  0.
    9000005    1    3    3    0    0  0.29880041718E+02  0.53154086061E+02 -0.23819015231E+03  0.24587338697E+03  0.10000000000E+01 0.  0.
<mgrwt>
<rscale>  0 0.12500694E+03</rscale>
<asrwt>0</asrwt>
<pdfrwt beam="1">  1        4 0.15136510E-02 0.12500694E+03</pdfrwt>
<pdfrwt beam="2">  1       -4 0.61087982E-01 0.12500694E+03</pdfrwt>
<totfact> 0.63876391E+03</totfact>
</mgrwt>
</event>
<event>
 5    1  0.3184438E-002  0.1249725E+03  0.7818608E-02  0.1235112E+00
          4   -1    0    0  501    0  0.00000000000E+00  0.00000000000E+00  0.59289355999E+02  0.59302956375E+02  0.12700000000E+01 0.  1.
         -4   -1    0    0    0  501 -0.00000000000E+00 -0.00000000000E+00 -0.65828276019E+02  0.65840525693E+02  0.12700000000E+01 0.  1.
         25    2    1    2    0    0  0.00000000000E+00  0.00000000000E+00 -0.65389200191E+01  0.12514348207E+03  0.12497253150E+03 0.  0.
    9000005    1    3    3    0    0 -0.43507670126E+02  0.26570976198E+02 -0.39438104560E+02  0.64461602735E+02  0.10000000000E+01 0.  0.
    9000005    1    3    3    0    0  0.43507670126E+02 -0.26570976198E+02  0.32899184541E+02  0.60681879333E+02  0.10000000000E+01 0.  0.
<mgrwt>
<rscale>  0 0.12497253E+03</rscale>
<asrwt>0</asrwt>
<pdfrwt beam="1">  1        4 0.91234279E-02 0.12497253E+03</pdfrwt>
<pdfrwt beam="2">  1       -4 0.10129415E-01 0.12497253E+03</pdfrwt>
<totfact> 0.10456237E+04</totfact>
</mgrwt>
</event>
<event>
 5    1  0.3184438E-002  0.1250050E+03  0.7818608E-02  0.1235061E+00
          4   -1    0    0  501    0  0.00000000000E+00  0.00000000000E+00  0.19973202296E+02  0.20013538167E+02  0.12700000000E+01 0.  1.
         -4   -1    0    0    0  501 -0.00000000000E+00 -0.00000000000E+00 -0.19535064457E+03  0.19535477274E+03  0.12700000000E+01 0.  1.
         25    2    1    2    0    0  0.00000000000E+00  0.00000000000E+00 -0.17537744227E+03  0.21536831091E+03  0.12500504824E+03 0.  0.
    9000005    1    3    3    0    0  0.12993439601E+02 -0.38206498577E+02 -0.16990081682E+03  0.17463062034E+03  0.10000000000E+01 0.  0.
    9000005    1    3    3    0    0 -0.12993439601E+02  0.38206498577E+02 -0.54766254529E+01  0.40737690565E+02  0.10000000000E+01 0.  0.
<mgrwt>
<rscale>  0 0.12500505E+03</rscale>
<asrwt>0</asrwt>
<pdfrwt beam="1">  1        4 0.30762208E-02 0.12500505E+03</pdfrwt>
<pdfrwt beam="2">  1       -4 0.30057364E-01 0.12500505E+03</pdfrwt>
<totfact> 0.87596720E+03</totfact>
</mgrwt>
</event>
<event>
 5    1  0.3184438E-002  0.1250019E+03  0.7818608E-02  0.1235066E+00
         -4   -1    0    0    0  501 -0.00000000000E+00  0.00000000000E+00  0.35291451647E+02  0.35314295397E+02  0.12700000000E+01 0. -1.
          4   -1    0    0  501    0  0.00000000000E+00 -0.00000000000E+00 -0.11062646292E+03  0.11063375252E+03  0.12700000000E+01 0. -1.
         25    2    1    2    0    0  0.00000000000E+00  0.00000000000E+00 -0.75335011269E+02  0.14594804792E+03  0.12500187506E+03 0.  0.
    9000005    1    3    3    0    0  0.38672468800E+02  0.49029738729E+02 -0.40501608995E+02  0.74436922653E+02  0.10000000000E+01 0.  0.
    9000005    1    3    3    0    0 -0.38672468800E+02 -0.49029738729E+02 -0.34833402274E+02  0.71511125267E+02  0.10000000000E+01 0.  0.
<mgrwt>
<rscale>  0 0.12500188E+03</rscale>
<asrwt>0</asrwt>
<pdfrwt beam="2">  1        4 0.17021774E-01 0.12500188E+03</pdfrwt>
<pdfrwt beam="1">  1       -4 0.54317721E-02 0.12500188E+03</pdfrwt>
<totfact> 0.10011339E+04</totfact>
</mgrwt>
</event>
<event>
 5    1  0.3184438E-002  0.1250070E+03  0.7818608E-02  0.1235058E+00
         -4   -1    0    0    0  501 -0.00000000000E+00  0.00000000000E+00  0.93240621773E+01  0.94101559757E+01  0.12700000000E+01 0. -1.
          4   -1    0    0  501    0  0.00000000000E+00 -0.00000000000E+00 -0.41697730937E+03  0.41697924341E+03  0.12700000000E+01 0. -1.
         25    2    1    2    0    0  0.00000000000E+00  0.00000000000E+00 -0.40765324719E+03  0.42638939938E+03  0.12500699963E+03 0.  0.
    9000005    1    3    3    0    0  0.33825009850E+02 -0.52509773217E+02 -0.19677011922E+03  0.20644826808E+03  0.10000000000E+01 0.  0.
    9000005    1    3    3    0    0 -0.33825009850E+02  0.52509773217E+02 -0.21088312797E+03  0.21994113130E+03  0.10000000000E+01 0.  0.
<mgrwt>
<rscale>  0 0.12500700E+03</rscale>
<asrwt>0</asrwt>
<pdfrwt beam="2">  1        4 0.64157112E-01 0.12500700E+03</pdfrwt>
<pdfrwt beam="1">  1       -4 0.14412428E-02 0.12500700E+03</pdfrwt>
<totfact> 0.62055067E+03</totfact>
</mgrwt>
</event>
<event>
 5    1  0.3184438E-002  0.1250204E+03  0.7818608E-02  0.1235037E+00
         -4   -1    0    0    0  501 -0.00000000000E+00  0.00000000000E+00  0.75973530279E+01  0.77027704776E+01  0.12700000000E+01 0.  1.
          4   -1    0    0  501    0  0.00000000000E+00 -0.00000000000E+00 -0.51067728666E+03  0.51067886584E+03  0.12700000000E+01 0.  1.
         25    2    1    2    0    0  0.00000000000E+00  0.00000000000E+00 -0.50307993363E+03  0.51838163632E+03  0.12502040331E+03 0.  0.
    9000005    1    3    3    0    0 -0.17773143067E+01  0.34891054287E+02 -0.36648008197E+02  0.50642087439E+02  0.10000000000E+01 0.  0.
    9000005    1    3    3    0    0  0.17773143067E+01 -0.34891054287E+02 -0.46643192544E+03  0.46773954888E+03  0.10000000000E+01 0.  0.
<mgrwt>
<rscale>  0 0.12502040E+03</rscale>
<asrwt>0</asrwt>
<pdfrwt beam="2">  1        4 0.78573940E-01 0.12502040E+03</pdfrwt>
<pdfrwt beam="1">  1       -4 0.11770545E-02 0.12502040E+03</pdfrwt>
<totfact> 0.54441457E+03</totfact>
</mgrwt>
</event>
<event>
 5    1  0.3184438E-002  0.1250050E+03  0.7818608E-02  0.1235062E+00
         -4   -1    0    0    0  501 -0.00000000000E+00  0.00000000000E+00  0.45253489709E+02  0.45271306926E+02  0.12700000000E+01 0. -1.
          4   -1    0    0  501    0  0.00000000000E+00 -0.00000000000E+00 -0.86286671363E+02  0.86296017029E+02  0.12700000000E+01 0. -1.
         25    2    1    2    0    0  0.00000000000E+00  0.00000000000E+00 -0.41033181655E+02  0.13156732395E+03  0.12500495485E+03 0.  0.
    9000005    1    3    3    0    0 -0.34359682294E+02  0.29751516043E+02  0.24628277255E+02  0.51703892646E+02  0.10000000000E+01 0.  0.
    9000005    1    3    3    0    0  0.34359682294E+02 -0.29751516043E+02 -0.65661458910E+02  0.79863431309E+02  0.10000000000E+01 0.  0.
<mgrwt>
<rscale>  0 0.12500495E+03</rscale>
<asrwt>0</asrwt>
<pdfrwt beam="2">  1        4 0.13276962E-01 0.12500495E+03</pdfrwt>
<pdfrwt beam="1">  1       -4 0.69641648E-02 0.12500495E+03</pdfrwt>
<totfact> 0.10309790E+04</totfact>
</mgrwt>
</event>
<event>
 5    1  0.3184438E-002  0.1250039E+03  0.7818608E-02  0.1235063E+00
          4   -1    0    0  501    0  0.00000000000E+00  0.00000000000E+00  0.39894699922E+01  0.41867374910E+01  0.12700000000E+01 0. -1.
         -4   -1    0    0    0  501 -0.00000000000E+00 -0.00000000000E+00 -0.95537883564E+03  0.95537967976E+03  0.12700000000E+01 0. -1.
         25    2    1    2    0    0  0.00000000000E+00  0.00000000000E+00 -0.95138936565E+03  0.95956641725E+03  0.12500393609E+03 0.  0.
    9000005    1    3    3    0    0  0.46472820639E+02 -0.22367849579E+02 -0.74659835619E+03  0.74837834631E+03  0.10000000000E+01 0.  0.
    9000005    1    3    3    0    0 -0.46472820639E+02  0.22367849579E+02 -0.20479100946E+03  0.21118807094E+03  0.10000000000E+01 0.  0.
<mgrwt>
<rscale>  0 0.12500394E+03</rscale>
<asrwt>0</asrwt>
<pdfrwt beam="1">  1        4 0.62900473E-03 0.12500394E+03</pdfrwt>
<pdfrwt beam="2">  1       -4 0.14699642E+00 0.12500394E+03</pdfrwt>
<totfact> 0.31976034E+03</totfact>
</mgrwt>
</event>
<event>
 5    1  0.3184438E-002  0.1249982E+03  0.7818608E-02  0.1235072E+00
          4   -1    0    0  501    0  0.00000000000E+00  0.00000000000E+00  0.13014080382E+02  0.13075901047E+02  0.12700000000E+01 0. -1.
         -4   -1    0    0    0  501 -0.00000000000E+00 -0.00000000000E+00 -0.29937271295E+03  0.29937540674E+03  0.12700000000E+01 0. -1.
         25    2    1    2    0    0  0.00000000000E+00  0.00000000000E+00 -0.28635863257E+03  0.31245130778E+03  0.12499821315E+03 0.  0.
    9000005    1    3    3    0    0 -0.17771166544E+02 -0.54854866544E+02 -0.20339265308E+03  0.21141060066E+03  0.10000000000E+01 0.  0.
    9000005    1    3    3    0    0  0.17771166544E+02  0.54854866544E+02 -0.82965979485E+02  0.10104070712E+03  0.10000000000E+01 0.  0.
<mgrwt>
<rscale>  0 0.12499821E+03</rscale>
<asrwt>0</asrwt>
<pdfrwt beam="1">  1        4 0.20071291E-02 0.12499821E+03</pdfrwt>
<pdfrwt beam="2">  1       -4 0.46062298E-01 0.12499821E+03</pdfrwt>
<totfact> 0.74065966E+03</totfact>
</mgrwt>
</event>
<event>
 5    1  0.3184438E-002  0.1249903E+03  0.7818608E-02  0.1235085E+00
          4   -1    0    0  501    0  0.00000000000E+00  0.00000000000E+00  0.84641695490E+02  0.84651222764E+02  0.12700000000E+01 0.  1.
         -4   -1    0    0    0  501 -0.00000000000E+00 -0.00000000000E+00 -0.46122360408E+02  0.46139842107E+02  0.12700000000E+01 0.  1.
         25    2    1    2    0    0  0.00000000000E+00  0.00000000000E+00  0.38519335082E+02  0.13079106487E+03  0.12499025352E+03 0.  0.
    9000005    1    3    3    0    0  0.28626256141E+02  0.48305311686E+02 -0.94313480580E+01  0.56945728584E+02  0.10000000000E+01 0.  0.
    9000005    1    3    3    0    0 -0.28626256141E+02 -0.48305311686E+02  0.47950683140E+02  0.73845336287E+02  0.10000000000E+01 0.  0.
<mgrwt>
<rscale>  0 0.12499025E+03</rscale>
<asrwt>0</asrwt>
<pdfrwt beam="1">  1        4 0.13023877E-01 0.12499025E+03</pdfrwt>
<pdfrwt beam="2">  1       -4 0.70978254E-02 0.12499025E+03</pdfrwt>
<totfact> 0.10329842E+04</totfact>
</mgrwt>
</event>
<event>
 5    1  0.3184438E-002  0.1250102E+03  0.7818608E-02  0.1235053E+00
         -4   -1    0    0    0  501 -0.00000000000E+00  0.00000000000E+00  0.28463886851E+02  0.28492205156E+02  0.12700000000E+01 0. -1.
          4   -1    0    0  501    0  0.00000000000E+00 -0.00000000000E+00 -0.13715821511E+03  0.13716409469E+03  0.12700000000E+01 0. -1.
         25    2    1    2    0    0  0.00000000000E+00  0.00000000000E+00 -0.10869432826E+03  0.16565629985E+03  0.12501021032E+03 0.  0.
    9000005    1    3    3    0    0  0.59447059626E+02 -0.12446042592E+02 -0.34825193587E+02  0.70018933030E+02  0.10000000000E+01 0.  0.
    9000005    1    3    3    0    0 -0.59447059626E+02  0.12446042592E+02 -0.73869134673E+02  0.95637366817E+02  0.10000000000E+01 0.  0.
<mgrwt>
<rscale>  0 0.12501021E+03</rscale>
<asrwt>0</asrwt>
<pdfrwt beam="2">  1        4 0.21103894E-01 0.12501021E+03</pdfrwt>
<pdfrwt beam="1">  1       -4 0.43816902E-02 0.12501021E+03</pdfrwt>
<totfact> 0.96241169E+03</totfact>
</mgrwt>
</event>
<event>
 5    1  0.3184438E-002  0.1249995E+03  0.7818608E-02  0.1235070E+00
          4   -1    0    0  501    0  0.00000000000E+00  0.00000000000E+00  0.71703730236E+02  0.71714976328E+02  0.12700000000E+01 0. -1.
         -4   -1    0    0    0  501 -0.00000000000E+00 -0.00000000000E+00 -0.54454264953E+02  0.54469072615E+02  0.12700000000E+01 0. -1.
         25    2    1    2    0    0  0.00000000000E+00  0.00000000000E+00  0.17249465282E+02  0.12618404894E+03  0.12499948062E+03 0.  0.
    9000005    1    3    3    0    0  0.56131131155E+02  0.47801374009E+01 -0.18680889500E+02  0.59359323032E+02  0.10000000000E+01 0.  0.
    9000005    1    3    3    0    0 -0.56131131155E+02 -0.47801374009E+01  0.35930354783E+02  0.66824725911E+02  0.10000000000E+01 0.  0.
<mgrwt>
<rscale>  0 0.12499948E+03</rscale>
<asrwt>0</asrwt>
<pdfrwt beam="1">  1        4 0.11033347E-01 0.12499948E+03</pdfrwt>
<pdfrwt beam="2">  1       -4 0.83795834E-02 0.12499948E+03</pdfrwt>
<totfact> 0.10427050E+04</totfact>
</mgrwt>
</event>
<event>
 5    1  0.3184438E-002  0.1249956E+03  0.7818608E-02  0.1235076E+00
         -4   -1    0    0    0  501 -0.00000000000E+00  0.00000000000E+00  0.99667742558E+02  0.99675833613E+02  0.12700000000E+01 0.  1.
          4   -1    0    0  501    0  0.00000000000E+00 -0.00000000000E+00 -0.39169992066E+02  0.39190575123E+02  0.12700000000E+01 0.  1.
         25    2    1    2    0    0  0.00000000000E+00  0.00000000000E+00  0.60497750492E+02  0.13886640874E+03  0.12499560657E+03 0.  0.
    9000005    1    3    3    0    0  0.35276568497E+02 -0.33324543533E+02 -0.13490266424E+02  0.50378058465E+02  0.10000000000E+01 0.  0.
    9000005    1    3    3    0    0 -0.35276568497E+02  0.33324543533E+02  0.73988016915E+02  0.88488350271E+02  0.10000000000E+01 0.  0.
<mgrwt>
<rscale>  0 0.12499561E+03</rscale>
<asrwt>0</asrwt>
<pdfrwt beam="2">  1        4 0.60283584E-02 0.12499561E+03</pdfrwt>
<pdfrwt beam="1">  1       -4 0.15335704E-01 0.12499561E+03</pdfrwt>
<totfact> 0.10158140E+04</totfact>
</mgrwt>
</event>
<event>
 5    1  0.3184438E-002  0.1249973E+03  0.7818608E-02  0.1235074E+00
         -4   -1    0    0    0  501 -0.00000000000E+00  0.00000000000E+00  0.87024812574E+02  0.87034078978E+02  0.12700000000E+01 0. -1.
          4   -1    0    0  501    0  0.00000000000E+00 -0.00000000000E+00 -0.44864012900E+02  0.44881984732E+02  0.12700000000E+01 0. -1.
         25    2    1    2    0    0  0.00000000000E+00  0.00000000000E+00  0.42160799674E+02  0.13191606371E+03  0.12499725931E+03 0.  0.
    9000005    1    3    3    0    0 -0.53121953888E+02  0.28343255576E+02  0.34274047814E+01  0.60316077667E+02  0.10000000000E+01 0.  0.
    9000005    1    3    3    0    0  0.53121953888E+02 -0.28343255576E+02  0.38733394892E+02  0.71599986044E+02  0.10000000000E+01 0.  0.
<mgrwt>
<rscale>  0 0.12499726E+03</rscale>
<asrwt>0</asrwt>
<pdfrwt beam="2">  1        4 0.69042512E-02 0.12499726E+03</pdfrwt>
<pdfrwt beam="1">  1       -4 0.13390528E-01 0.12499726E+03</pdfrwt>
<totfact> 0.10304127E+04</totfact>
</mgrwt>
</event>
<event>
 5    1  0.3184438E-002  0.1250014E+03  0.7818608E-02  0.1235067E+00
          4   -1    0    0  501    0  0.00000000000E+00  0.00000000000E+00  0.22054361416E+02  0.22090897615E+02  0.12700000000E+01 0. -1.
         -4   -1    0    0    0  501 -0.00000000000E+00 -0.00000000000E+00 -0.17693783863E+03  0.17694239638E+03  0.12700000000E+01 0. -1.
         25    2    1    2    0    0  0.00000000000E+00  0.00000000000E+00 -0.15488347721E+03  0.19903329400E+03  0.12500144242E+03 0.  0.
    9000005    1    3    3    0    0  0.21343705076E+02 -0.37973612866E+02 -0.60956823471E+01  0.43996663098E+02  0.10000000000E+01 0.  0.
    9000005    1    3    3    0    0 -0.21343705076E+02  0.37973612866E+02 -0.14878779486E+03  0.15503663090E+03  0.10000000000E+01 0.  0.
<mgrwt>
<rscale>  0 0.12500144E+03</rscale>
<asrwt>0</asrwt>
<pdfrwt beam="1">  1        4 0.33961399E-02 0.12500144E+03</pdfrwt>
<pdfrwt beam="2">  1       -4 0.27224366E-01 0.12500144E+03</pdfrwt>
<totfact> 0.90295891E+03</totfact>
</mgrwt>
</event>
<event>
 5    1  0.3184438E-002  0.1249971E+03  0.7818608E-02  0.1235074E+00
         -4   -1    0    0    0  501 -0.00000000000E+00  0.00000000000E+00  0.50671237461E+01  0.52238532769E+01  0.12700000000E+01 0.  1.
          4   -1    0    0  501    0  0.00000000000E+00 -0.00000000000E+00 -0.75896754176E+03  0.75896860432E+03  0.12700000000E+01 0.  1.
         25    2    1    2    0    0  0.00000000000E+00  0.00000000000E+00 -0.75390041802E+03  0.76419245760E+03  0.12499708784E+03 0.  0.
    9000005    1    3    3    0    0 -0.35250058252E+01  0.29711203953E+02 -0.41538727498E+02  0.51202023285E+02  0.10000000000E+01 0.  0.
    9000005    1    3    3    0    0  0.35250058252E+01 -0.29711203953E+02 -0.71236169052E+03  0.71299043432E+03  0.10000000000E+01 0.  0.
<mgrwt>
<rscale>  0 0.12499709E+03</rscale>
<asrwt>0</asrwt>
<pdfrwt beam="2">  1        4 0.11677629E+00 0.12499709E+03</pdfrwt>
<pdfrwt beam="1">  1       -4 0.79169595E-03 0.12499709E+03</pdfrwt>
<totfact> 0.39906905E+03</totfact>
</mgrwt>
</event>
<event>
 5    1  0.3184438E-002  0.1250001E+03  0.7818608E-02  0.1235069E+00
          4   -1    0    0  501    0  0.00000000000E+00  0.00000000000E+00  0.11655131558E+02  0.11724120080E+02  0.12700000000E+01 0.  1.
         -4   -1    0    0    0  501 -0.00000000000E+00 -0.00000000000E+00 -0.33409413214E+03  0.33409654597E+03  0.12700000000E+01 0.  1.
         25    2    1    2    0    0  0.00000000000E+00  0.00000000000E+00 -0.32243900058E+03  0.34582066605E+03  0.12500009589E+03 0.  0.
    9000005    1    3    3    0    0 -0.17688347214E+02 -0.13965939182E+02  0.34137891621E-01  0.22559393825E+02  0.10000000000E+01 0.  0.
    9000005    1    3    3    0    0  0.17688347214E+02  0.13965939182E+02 -0.32247313847E+03  0.32326127223E+03  0.10000000000E+01 0.  0.
<mgrwt>
<rscale>  0 0.12500010E+03</rscale>
<asrwt>0</asrwt>
<pdfrwt beam="1">  1        4 0.17985899E-02 0.12500010E+03</pdfrwt>
<pdfrwt beam="2">  1       -4 0.51404583E-01 0.12500010E+03</pdfrwt>
<totfact> 0.70186648E+03</totfact>
</mgrwt>
</event>
<event>
 5    1  0.3184438E-002  0.1250018E+03  0.7818608E-02  0.1235066E+00
          4   -1    0    0  501    0  0.00000000000E+00  0.00000000000E+00  0.20203031990E+02  0.20242909909E+02  0.12700000000E+01 0. -1.
         -4   -1    0    0    0  501 -0.00000000000E+00 -0.00000000000E+00 -0.19312273007E+03  0.19312690586E+03  0.12700000000E+01 0. -1.
         25    2    1    2    0    0  0.00000000000E+00  0.00000000000E+00 -0.17291969808E+03  0.21336981577E+03  0.12500182519E+03 0.  0.
    9000005    1    3    3    0    0 -0.62111925064E+02 -0.27031051432E+01 -0.97277831126E+02  0.11545204390E+03  0.10000000000E+01 0.  0.
    9000005    1    3    3    0    0  0.62111925064E+02  0.27031051432E+01 -0.75641866952E+02  0.97917771873E+02  0.10000000000E+01 0.  0.
<mgrwt>
<rscale>  0 0.12500183E+03</rscale>
<asrwt>0</asrwt>
<pdfrwt beam="1">  1        4 0.31115476E-02 0.12500183E+03</pdfrwt>
<pdfrwt beam="2">  1       -4 0.29714577E-01 0.12500183E+03</pdfrwt>
<totfact> 0.87924900E+03</totfact>
</mgrwt>
</event>
<event>
 4    1  0.3184438E-002  0.1248434E+03  0.7818608E-02  0.1235314E+00
          4   -1    0    0  501    0  0.00000000000E+00  0.00000000000E+00  0.52330113620E+03  0.52330267728E+03  0.12700000000E+01 0.  1.
         -4   -1    0    0    0  501 -0.00000000000E+00 -0.00000000000E+00 -0.73902256054E+01  0.74985554942E+01  0.12700000000E+01 0.  1.
    9000005    1    1    2    0    0 -0.43359459263E+02 -0.43342040210E+02  0.20820922204E+03  0.21704989127E+03  0.10000000000E+01 0.  0.
    9000005    1    1    2    0    0  0.43359459263E+02  0.43342040210E+02  0.30770168855E+03  0.31375134150E+03  0.10000000000E+01 0.  0.
<mgrwt>
<rscale>  0 0.12484343E+03</rscale>
<asrwt>0</asrwt>
<pdfrwt beam="1">  1        4 0.80516348E-01 0.12484343E+03</pdfrwt>
<pdfrwt beam="2">  1       -4 0.11454090E-02 0.12484343E+03</pdfrwt>
<totfact> 0.53735930E+03</totfact>
</mgrwt>
</event>
<event>
 5    1  0.3184438E-002  0.1250016E+03  0.7818608E-02  0.1235067E+00
          4   -1    0    0  501    0  0.00000000000E+00  0.00000000000E+00  0.17800773188E+03  0.17801226224E+03  0.12700000000E+01 0.  1.
         -4   -1    0    0    0  501 -0.00000000000E+00 -0.00000000000E+00 -0.21921644889E+02  0.21958401915E+02  0.12700000000E+01 0.  1.
         25    2    1    2    0    0  0.00000000000E+00  0.00000000000E+00  0.15608608699E+03  0.19997066416E+03  0.12500159988E+03 0.  0.
    9000005    1    3    3    0    0  0.59852166040E+02  0.10812159131E+02  0.55073168184E+02  0.82056312485E+02  0.10000000000E+01 0.  0.
    9000005    1    3    3    0    0 -0.59852166040E+02 -0.10812159131E+02  0.10101291881E+03  0.11791435167E+03  0.10000000000E+01 0.  0.
<mgrwt>
<rscale>  0 0.12500160E+03</rscale>
<asrwt>0</asrwt>
<pdfrwt beam="1">  1        4 0.27388979E-01 0.12500160E+03</pdfrwt>
<pdfrwt beam="2">  1       -4 0.33757369E-02 0.12500160E+03</pdfrwt>
<totfact> 0.90137228E+03</totfact>
</mgrwt>
</event>
<event>
 5    1  0.3184438E-002  0.1250011E+03  0.7818608E-02  0.1235068E+00
         -4   -1    0    0    0  501 -0.00000000000E+00  0.00000000000E+00  0.10027245001E+02  0.10107350904E+02  0.12700000000E+01 0.  1.
          4   -1    0    0  501    0  0.00000000000E+00 -0.00000000000E+00 -0.38793925538E+03  0.38794133418E+03  0.12700000000E+01 0.  1.
         25    2    1    2    0    0  0.00000000000E+00  0.00000000000E+00 -0.37791201038E+03  0.39804868509E+03  0.12500107243E+03 0.  0.
    9000005    1    3    3    0    0  0.27384190399E+02  0.53595024529E+02 -0.24252493600E+03  0.24988330301E+03  0.10000000000E+01 0.  0.
    9000005    1    3    3    0    0 -0.27384190399E+02 -0.53595024529E+02 -0.13538707438E+03  0.14816538208E+03  0.10000000000E+01 0.  0.
<mgrwt>
<rscale>  0 0.12500107E+03</rscale>
<asrwt>0</asrwt>
<pdfrwt beam="2">  1        4 0.59689273E-01 0.12500107E+03</pdfrwt>
<pdfrwt beam="1">  1       -4 0.15489753E-02 0.12500107E+03</pdfrwt>
<totfact> 0.64741488E+03</totfact>
</mgrwt>
</event>
<event>
 5    1  0.3184438E-002  0.1250234E+03  0.7818608E-02  0.1235033E+00
          4   -1    0    0  501    0  0.00000000000E+00  0.00000000000E+00  0.18348320637E+02  0.18392220371E+02  0.12700000000E+01 0.  1.
         -4   -1    0    0    0  501 -0.00000000000E+00 -0.00000000000E+00 -0.21267342214E+03  0.21267721407E+03  0.12700000000E+01 0.  1.
         25    2    1    2    0    0  0.00000000000E+00  0.00000000000E+00 -0.19432510151E+03  0.23106943444E+03  0.12502335166E+03 0.  0.
    9000005    1    3    3    0    0 -0.36556787604E+02 -0.36234569246E+02 -0.31626182139E+02  0.60419848768E+02  0.10000000000E+01 0.  0.
    9000005    1    3    3    0    0  0.36556787604E+02  0.36234569246E+02 -0.16269891937E+03  0.17064958568E+03  0.10000000000E+01 0.  0.
<mgrwt>
<rscale>  0 0.12502335E+03</rscale>
<asrwt>0</asrwt>
<pdfrwt beam="1">  1        4 0.28264873E-02 0.12502335E+03</pdfrwt>
<pdfrwt beam="2">  1       -4 0.32722655E-01 0.12502335E+03</pdfrwt>
<totfact> 0.85101312E+03</totfact>
</mgrwt>
</event>
<event>
 5    1  0.3184438E-002  0.1249991E+03  0.7818608E-02  0.1235071E+00
         -4   -1    0    0    0  501 -0.00000000000E+00  0.00000000000E+00  0.12757305916E+02  0.12820364824E+02  0.12700000000E+01 0.  1.
          4   -1    0    0  501    0  0.00000000000E+00 -0.00000000000E+00 -0.30537352934E+03  0.30537617019E+03  0.12700000000E+01 0.  1.
         25    2    1    2    0    0  0.00000000000E+00  0.00000000000E+00 -0.29261622342E+03  0.31819653501E+03  0.12499912274E+03 0.  0.
    9000005    1    3    3    0    0 -0.59275292040E+02 -0.11971806743E+02 -0.18642121463E+03  0.19598661604E+03  0.10000000000E+01 0.  0.
    9000005    1    3    3    0    0  0.59275292040E+02  0.11971806743E+02 -0.10619500879E+03  0.12220991897E+03  0.10000000000E+01 0.  0.
<mgrwt>
<rscale>  0 0.12499912E+03</rscale>
<asrwt>0</asrwt>
<pdfrwt beam="2">  1        4 0.46985591E-01 0.12499912E+03</pdfrwt>
<pdfrwt beam="1">  1       -4 0.19677165E-02 0.12499912E+03</pdfrwt>
<totfact> 0.73372567E+03</totfact>
</mgrwt>
</event>
<event>
 5    1  0.3184438E-002  0.1250065E+03  0.7818608E-02  0.1235059E+00
         -4   -1    0    0    0  501 -0.00000000000E+00  0.00000000000E+00  0.29509311893E+01  0.32126149604E+01  0.12700000000E+01 0.  1.
          4   -1    0    0  501    0  0.00000000000E+00 -0.00000000000E+00 -0.12674031744E+04  0.12674038107E+04  0.12700000000E+01 0.  1.
         25    2    1    2    0    0  0.00000000000E+00  0.00000000000E+00 -0.12644522432E+04  0.12706164257E+04  0.12500650303E+03 0.  0.
    9000005    1    3    3    0    0 -0.54594582494E+02  0.30410827994E+02 -0.62694891720E+03  0.63005660989E+03  0.10000000000E+01 0.  0.
    9000005    1    3    3    0    0  0.54594582494E+02 -0.30410827994E+02 -0.63750332602E+03  0.64055981577E+03  0.10000000000E+01 0.  0.
<mgrwt>
<rscale>  0 0.12500650E+03</rscale>
<asrwt>0</asrwt>
<pdfrwt beam="2">  1        4 0.19500487E+00 0.12500650E+03</pdfrwt>
<pdfrwt beam="1">  1       -4 0.47416889E-03 0.12500650E+03</pdfrwt>
<totfact> 0.22929631E+03</totfact>
</mgrwt>
</event>
<event>
 5    1  0.3184438E-002  0.1249975E+03  0.7818608E-02  0.1235073E+00
          4   -1    0    0  501    0  0.00000000000E+00  0.00000000000E+00  0.42952966725E+03  0.42953154476E+03  0.12700000000E+01 0.  1.
         -4   -1    0    0    0  501 -0.00000000000E+00 -0.00000000000E+00 -0.90476365755E+01  0.91363355676E+01  0.12700000000E+01 0.  1.
         25    2    1    2    0    0  0.00000000000E+00  0.00000000000E+00  0.42048203067E+03  0.43866788033E+03  0.12499748443E+03 0.  0.
    9000005    1    3    3    0    0 -0.44366672310E+01  0.39610446320E+02  0.41335691538E+02  0.57430922583E+02  0.10000000000E+01 0.  0.
    9000005    1    3    3    0    0  0.44366672310E+01 -0.39610446320E+02  0.37914633913E+03  0.38123695775E+03  0.10000000000E+01 0.  0.
<mgrwt>
<rscale>  0 0.12499748E+03</rscale>
<asrwt>0</asrwt>
<pdfrwt beam="1">  1        4 0.66088446E-01 0.12499748E+03</pdfrwt>
<pdfrwt beam="2">  1       -4 0.13989117E-02 0.12499748E+03</pdfrwt>
<totfact> 0.60961466E+03</totfact>
</mgrwt>
</event>
<event>
 5    1  0.3184438E-002  0.1250003E+03  0.7818608E-02  0.1235069E+00
         -4   -1    0    0    0  501 -0.00000000000E+00  0.00000000000E+00  0.79723243490E+02  0.79733358468E+02  0.12700000000E+01 0. -1.
          4   -1    0    0  501    0  0.00000000000E+00 -0.00000000000E+00 -0.48976377006E+02  0.48992840341E+02  0.12700000000E+01 0. -1.
         25    2    1    2    0    0  0.00000000000E+00  0.00000000000E+00  0.30746866484E+02  0.12872619881E+03  0.12500025784E+03 0.  0.
    9000005    1    3    3    0    0  0.40196620210E+02 -0.24240470842E+01 -0.33838239764E+02  0.52608656615E+02  0.10000000000E+01 0.  0.
    9000005    1    3    3    0    0 -0.40196620210E+02  0.24240470842E+01  0.64585106247E+02  0.76117542193E+02  0.10000000000E+01 0.  0.
<mgrwt>
<rscale>  0 0.12500026E+03</rscale>
<asrwt>0</asrwt>
<pdfrwt beam="2">  1        4 0.75368717E-02 0.12500026E+03</pdfrwt>
<pdfrwt beam="1">  1       -4 0.12267159E-01 0.12500026E+03</pdfrwt>
<totfact> 0.10371774E+04</totfact>
</mgrwt>
</event>
<event>
 5    1  0.3184438E-002  0.1250003E+03  0.7818608E-02  0.1235069E+00
         -4   -1    0    0    0  501 -0.00000000000E+00  0.00000000000E+00  0.26053851841E+02  0.26084786672E+02  0.12700000000E+01 0.  1.
          4   -1    0    0  501    0  0.00000000000E+00 -0.00000000000E+00 -0.14980792066E+03  0.14981330379E+03  0.12700000000E+01 0.  1.
         25    2    1    2    0    0  0.00000000000E+00  0.00000000000E+00 -0.12375406882E+03  0.17589809047E+03  0.12500027472E+03 0.  0.
    9000005    1    3    3    0    0  0.57020257128E+02  0.35291208606E+01 -0.26236072264E+02  0.62873650322E+02  0.10000000000E+01 0.  0.
    9000005    1    3    3    0    0 -0.57020257128E+02 -0.35291208606E+01 -0.97517996559E+02  0.11302444014E+03  0.10000000000E+01 0.  0.
<mgrwt>
<rscale>  0 0.12500027E+03</rscale>
<asrwt>0</asrwt>
<pdfrwt beam="2">  1        4 0.23050166E-01 0.12500027E+03</pdfrwt>
<pdfrwt beam="1">  1       -4 0.40110787E-02 0.12500027E+03</pdfrwt>
<totfact> 0.94360033E+03</totfact>
</mgrwt>
</event>
<event>
 5    1  0.3184438E-002  0.1249912E+03  0.7818608E-02  0.1235083E+00
         -4   -1    0    0    0  501 -0.00000000000E+00  0.00000000000E+00  0.25913478914E+03  0.25913790121E+03  0.12700000000E+01 0.  1.
          4   -1    0    0  501    0  0.00000000000E+00 -0.00000000000E+00 -0.15042113074E+02  0.15095630684E+02  0.12700000000E+01 0.  1.
         25    2    1    2    0    0  0.00000000000E+00  0.00000000000E+00  0.24409267607E+03  0.27423353189E+03  0.12499118171E+03 0.  0.
    9000005    1    3    3    0    0 -0.15119703126E+02 -0.10591730727E+02  0.25302618163E+03  0.25370068737E+03  0.10000000000E+01 0.  0.
    9000005    1    3    3    0    0  0.15119703126E+02  0.10591730727E+02 -0.89335055647E+01  0.20532844520E+02  0.10000000000E+01 0.  0.
<mgrwt>
<rscale>  0 0.12499118E+03</rscale>
<asrwt>0</asrwt>
<pdfrwt beam="2">  1        4 0.23185272E-02 0.12499118E+03</pdfrwt>
<pdfrwt beam="1">  1       -4 0.39871249E-01 0.12499118E+03</pdfrwt>
<totfact> 0.78964443E+03</totfact>
</mgrwt>
</event>
<event>
 5    1  0.3184438E-002  0.1249985E+03  0.7818608E-02  0.1235072E+00
         -4   -1    0    0    0  501 -0.00000000000E+00  0.00000000000E+00  0.16176138446E+03  0.16176636981E+03  0.12700000000E+01 0. -1.
          4   -1    0    0  501    0  0.00000000000E+00 -0.00000000000E+00 -0.24125578260E+02  0.24158982313E+02  0.12700000000E+01 0. -1.
         25    2    1    2    0    0  0.00000000000E+00  0.00000000000E+00  0.13763580620E+03  0.18592535212E+03  0.12499848565E+03 0.  0.
    9000005    1    3    3    0    0  0.45318449456E+02  0.41047135347E+02  0.49623477907E+02  0.78753531609E+02  0.10000000000E+01 0.  0.
    9000005    1    3    3    0    0 -0.45318449456E+02 -0.41047135347E+02  0.88012328291E+02  0.10717182051E+03  0.10000000000E+01 0.  0.
<mgrwt>
<rscale>  0 0.12499849E+03</rscale>
<asrwt>0</asrwt>
<pdfrwt beam="2">  1        4 0.37145804E-02 0.12499849E+03</pdfrwt>
<pdfrwt beam="1">  1       -4 0.24889321E-01 0.12499849E+03</pdfrwt>
<totfact> 0.92564303E+03</totfact>
</mgrwt>
</event>
<event>
 5    1  0.3184438E-002  0.1250241E+03  0.7818608E-02  0.1235032E+00
         -4   -1    0    0    0  501 -0.00000000000E+00  0.00000000000E+00  0.43292254268E+03  0.43292440548E+03  0.12700000000E+01 0. -1.
          4   -1    0    0  501    0  0.00000000000E+00 -0.00000000000E+00 -0.89798931846E+01  0.90692547437E+01  0.12700000000E+01 0. -1.
         25    2    1    2    0    0  0.00000000000E+00  0.00000000000E+00  0.42394264950E+03  0.44199366023E+03  0.12502410015E+03 0.  0.
    9000005    1    3    3    0    0  0.24394028900E+02 -0.55043035591E+02  0.27133351079E+03  0.27793466586E+03  0.10000000000E+01 0.  0.
    9000005    1    3    3    0    0 -0.24394028900E+02  0.55043035591E+02  0.15260913871E+03  0.16405899436E+03  0.10000000000E+01 0.  0.
<mgrwt>
<rscale>  0 0.12502410E+03</rscale>
<asrwt>0</asrwt>
<pdfrwt beam="2">  1        4 0.13885392E-02 0.12502410E+03</pdfrwt>
<pdfrwt beam="1">  1       -4 0.66610487E-01 0.12502410E+03</pdfrwt>
<totfact> 0.60631473E+03</totfact>
</mgrwt>
</event>
<event>
 5    1  0.3184438E-002  0.1249911E+03  0.7818608E-02  0.1235083E+00
          4   -1    0    0  501    0  0.00000000000E+00  0.00000000000E+00  0.93938269297E+02  0.93946853798E+02  0.12700000000E+01 0.  1.
         -4   -1    0    0    0  501 -0.00000000000E+00 -0.00000000000E+00 -0.41557038663E+02  0.41576439993E+02  0.12700000000E+01 0.  1.
         25    2    1    2    0    0  0.00000000000E+00  0.00000000000E+00  0.52381230634E+02  0.13552329379E+03  0.12499107903E+03 0.  0.
    9000005    1    3    3    0    0  0.21861041165E+02  0.48191490013E+02  0.62222897094E+02  0.81688516655E+02  0.10000000000E+01 0.  0.
    9000005    1    3    3    0    0 -0.21861041165E+02 -0.48191490013E+02 -0.98416664603E+01  0.53834777136E+02  0.10000000000E+01 0.  0.
<mgrwt>
<rscale>  0 0.12499108E+03</rscale>
<asrwt>0</asrwt>
<pdfrwt beam="1">  1        4 0.14454194E-01 0.12499108E+03</pdfrwt>
<pdfrwt beam="2">  1       -4 0.63955434E-02 0.12499108E+03</pdfrwt>
<totfact> 0.10229111E+04</totfact>
</mgrwt>
</event>
<event>
 5    1  0.3184438E-002  0.1249998E+03  0.7818608E-02  0.1235070E+00
          4   -1    0    0  501    0  0.00000000000E+00  0.00000000000E+00  0.75074827538E+03  0.75074934958E+03  0.12700000000E+01 0. -1.
         -4   -1    0    0    0  501 -0.00000000000E+00 -0.00000000000E+00 -0.51245317730E+01  0.52795573576E+01  0.12700000000E+01 0. -1.
         25    2    1    2    0    0  0.00000000000E+00  0.00000000000E+00  0.74562374361E+03  0.75602890694E+03  0.12499976434E+03 0.  0.
    9000005    1    3    3    0    0 -0.59461166527E+02  0.19063949789E+02  0.38783632652E+03  0.39283212785E+03  0.10000000000E+01 0.  0.
    9000005    1    3    3    0    0  0.59461166527E+02 -0.19063949789E+02  0.35778741709E+03  0.36319677908E+03  0.10000000000E+01 0.  0.
<mgrwt>
<rscale>  0 0.12499976E+03</rscale>
<asrwt>0</asrwt>
<pdfrwt beam="1">  1        4 0.11551165E+00 0.12499976E+03</pdfrwt>
<pdfrwt beam="2">  1       -4 0.80039781E-03 0.12499976E+03</pdfrwt>
<totfact> 0.40287656E+03</totfact>
</mgrwt>
</event>
<event>
 5    1  0.3184438E-002  0.1249969E+03  0.7818608E-02  0.1235074E+00
         -4   -1    0    0    0  501 -0.00000000000E+00  0.00000000000E+00  0.10071233949E+03  0.10072034663E+03  0.12700000000E+01 0.  1.
          4   -1    0    0  501    0  0.00000000000E+00 -0.00000000000E+00 -0.38764334754E+02  0.38785133092E+02  0.12700000000E+01 0.  1.
         25    2    1    2    0    0  0.00000000000E+00  0.00000000000E+00  0.61948004738E+02  0.13950547973E+03  0.12499689429E+03 0.  0.
    9000005    1    3    3    0    0 -0.18296549944E+02  0.13678844431E+02 -0.33942436061E+02  0.40926317823E+02  0.10000000000E+01 0.  0.
    9000005    1    3    3    0    0  0.18296549944E+02 -0.13678844431E+02  0.95890440799E+02  0.98579161903E+02  0.10000000000E+01 0.  0.
<mgrwt>
<rscale>  0 0.12499689E+03</rscale>
<asrwt>0</asrwt>
<pdfrwt beam="2">  1        4 0.59659596E-02 0.12499689E+03</pdfrwt>
<pdfrwt beam="1">  1       -4 0.15496422E-01 0.12499689E+03</pdfrwt>
<totfact> 0.10144555E+04</totfact>
</mgrwt>
</event>
<event>
 5    1  0.3184438E-002  0.1250143E+03  0.7818608E-02  0.1235047E+00
          4   -1    0    0  501    0  0.00000000000E+00  0.00000000000E+00  0.72442513925E+01  0.73547316904E+01  0.12700000000E+01 0.  1.
         -4   -1    0    0    0  501 -0.00000000000E+00 -0.00000000000E+00 -0.53515110521E+03  0.53515261216E+03  0.12700000000E+01 0.  1.
         25    2    1    2    0    0  0.00000000000E+00  0.00000000000E+00 -0.52790685382E+03  0.54250734385E+03  0.12501428650E+03 0.  0.
    9000005    1    3    3    0    0 -0.99449408634E+01  0.25511651626E+02 -0.50775795540E+03  0.50849669369E+03  0.10000000000E+01 0.  0.
    9000005    1    3    3    0    0  0.99449408634E+01 -0.25511651626E+02 -0.20148898414E+02  0.34010650166E+02  0.10000000000E+01 0.  0.
<mgrwt>
<rscale>  0 0.12501429E+03</rscale>
<asrwt>0</asrwt>
<pdfrwt beam="1">  1        4 0.11231150E-02 0.12501429E+03</pdfrwt>
<pdfrwt beam="2">  1       -4 0.82339522E-01 0.12501429E+03</pdfrwt>
<totfact> 0.52694321E+03</totfact>
</mgrwt>
</event>
<event>
 5    1  0.3184438E-002  0.1249998E+03  0.7818608E-02  0.1235070E+00
         -4   -1    0    0    0  501 -0.00000000000E+00  0.00000000000E+00  0.45134401322E+03  0.45134579999E+03  0.12700000000E+01 0. -1.
          4   -1    0    0  501    0  0.00000000000E+00 -0.00000000000E+00 -0.86062680609E+01  0.86994683709E+01  0.12700000000E+01 0. -1.
         25    2    1    2    0    0  0.00000000000E+00  0.00000000000E+00  0.44273774516E+03  0.46004526837E+03  0.12499975181E+03 0.  0.
    9000005    1    3    3    0    0 -0.35857408789E+02 -0.37084004417E+01  0.33499494275E+02  0.49221155163E+02  0.10000000000E+01 0.  0.
    9000005    1    3    3    0    0  0.35857408789E+02  0.37084004417E+01  0.40923825089E+03  0.41082411320E+03  0.10000000000E+01 0.  0.
<mgrwt>
<rscale>  0 0.12499975E+03</rscale>
<asrwt>0</asrwt>
<pdfrwt beam="2">  1        4 0.13313479E-02 0.12499975E+03</pdfrwt>
<pdfrwt beam="1">  1       -4 0.69444848E-01 0.12499975E+03</pdfrwt>
<totfact> 0.59103667E+03</totfact>
</mgrwt>
</event>
<event>
 5    1  0.3184438E-002  0.1250036E+03  0.7818608E-02  0.1235064E+00
         -4   -1    0    0    0  501 -0.00000000000E+00  0.00000000000E+00  0.24141406444E+02  0.24174788626E+02  0.12700000000E+01 0. -1.
          4   -1    0    0  501    0  0.00000000000E+00 -0.00000000000E+00 -0.16166874623E+03  0.16167373444E+03  0.12700000000E+01 0. -1.
         25    2    1    2    0    0  0.00000000000E+00  0.00000000000E+00 -0.13752733979E+03  0.18584852307E+03  0.12500361730E+03 0.  0.
    9000005    1    3    3    0    0 -0.15704429523E+02 -0.60401806321E+02 -0.63953234555E+02  0.89364554067E+02  0.10000000000E+01 0.  0.
    9000005    1    3    3    0    0  0.15704429523E+02  0.60401806321E+02 -0.73574105235E+02  0.96483969003E+02  0.10000000000E+01 0.  0.
<mgrwt>
<rscale>  0 0.12500362E+03</rscale>
<asrwt>0</asrwt>
<pdfrwt beam="2">  1        4 0.24875066E-01 0.12500362E+03</pdfrwt>
<pdfrwt beam="1">  1       -4 0.37170142E-02 0.12500362E+03</pdfrwt>
<totfact> 0.92567214E+03</totfact>
</mgrwt>
</event>
<event>
 5    1  0.3184438E-002  0.1250028E+03  0.7818608E-02  0.1235065E+00
          4   -1    0    0  501    0  0.00000000000E+00  0.00000000000E+00  0.96249323087E+01  0.97083583549E+01  0.12700000000E+01 0.  1.
         -4   -1    0    0    0  501 -0.00000000000E+00 -0.00000000000E+00 -0.40402947175E+03  0.40403146776E+03  0.12700000000E+01 0.  1.
         25    2    1    2    0    0  0.00000000000E+00  0.00000000000E+00 -0.39440453944E+03  0.41373982612E+03  0.12500281190E+03 0.  0.
    9000005    1    3    3    0    0  0.25509037753E+02  0.55047867950E+02 -0.24678888005E+03  0.25413919432E+03  0.10000000000E+01 0.  0.
    9000005    1    3    3    0    0 -0.25509037753E+02 -0.55047867950E+02 -0.14761565939E+03  0.15960063180E+03  0.10000000000E+01 0.  0.
<mgrwt>
<rscale>  0 0.12500281E+03</rscale>
<asrwt>0</asrwt>
<pdfrwt beam="1">  1        4 0.14873301E-02 0.12500281E+03</pdfrwt>
<pdfrwt beam="2">  1       -4 0.62164938E-01 0.12500281E+03</pdfrwt>
<totfact> 0.63234136E+03</totfact>
</mgrwt>
</event>
<event>
 5    1  0.3184438E-002  0.1250010E+03  0.7818608E-02  0.1235068E+00
         -4   -1    0    0    0  501 -0.00000000000E+00  0.00000000000E+00  0.71481688592E+03  0.71481801411E+03  0.12700000000E+01 0.  1.
          4   -1    0    0  501    0  0.00000000000E+00 -0.00000000000E+00 -0.53898419016E+01  0.55374448733E+01  0.12700000000E+01 0.  1.
         25    2    1    2    0    0  0.00000000000E+00  0.00000000000E+00  0.70942704402E+03  0.72035545899E+03  0.12500102601E+03 0.  0.
    9000005    1    3    3    0    0 -0.44245722175E+02 -0.13478608433E+02  0.59688521302E+03  0.59867546663E+03  0.10000000000E+01 0.  0.
    9000005    1    3    3    0    0  0.44245722175E+02  0.13478608433E+02  0.11254183100E+03  0.12167999236E+03  0.10000000000E+01 0.  0.
<mgrwt>
<rscale>  0 0.12500103E+03</rscale>
<asrwt>0</asrwt>
<pdfrwt beam="2">  1        4 0.84064808E-03 0.12500103E+03</pdfrwt>
<pdfrwt beam="1">  1       -4 0.10998317E+00 0.12500103E+03</pdfrwt>
<totfact> 0.42032788E+03</totfact>
</mgrwt>
</event>
<event>
 5    1  0.3184438E-002  0.1250012E+03  0.7818608E-02  0.1235067E+00
          4   -1    0    0  501    0  0.00000000000E+00  0.00000000000E+00  0.19556337807E+02  0.19597531692E+02  0.12700000000E+01 0. -1.
         -4   -1    0    0    0  501 -0.00000000000E+00 -0.00000000000E+00 -0.19949386755E+03  0.19949790999E+03  0.12700000000E+01 0. -1.
         25    2    1    2    0    0  0.00000000000E+00  0.00000000000E+00 -0.17993752975E+03  0.21909544168E+03  0.12500119182E+03 0.  0.
    9000005    1    3    3    0    0 -0.60715943617E+02  0.97613174906E+01 -0.70481297190E+02  0.93543157858E+02  0.10000000000E+01 0.  0.
    9000005    1    3    3    0    0  0.60715943617E+02 -0.97613174906E+01 -0.10945623256E+03  0.12555228383E+03  0.10000000000E+01 0.  0.
<mgrwt>
<rscale>  0 0.12500119E+03</rscale>
<asrwt>0</asrwt>
<pdfrwt beam="1">  1        4 0.30121472E-02 0.12500119E+03</pdfrwt>
<pdfrwt beam="2">  1       -4 0.30694843E-01 0.12500119E+03</pdfrwt>
<totfact> 0.87009371E+03</totfact>
</mgrwt>
</event>
<event>
 5    1  0.3184438E-002  0.1250031E+03  0.7818608E-02  0.1235064E+00
          4   -1    0    0  501    0  0.00000000000E+00  0.00000000000E+00  0.80272678544E+03  0.80272779008E+03  0.12700000000E+01 0.  1.
         -4   -1    0    0    0  501 -0.00000000000E+00 -0.00000000000E+00 -0.47825871086E+01  0.49483370390E+01  0.12700000000E+01 0.  1.
         25    2    1    2    0    0  0.00000000000E+00  0.00000000000E+00  0.79794419833E+03  0.80767612712E+03  0.12500313061E+03 0.  0.
    9000005    1    3    3    0    0 -0.58747114161E+02 -0.87600039898E+01  0.27343677138E+03  0.27981534811E+03  0.10000000000E+01 0.  0.
    9000005    1    3    3    0    0  0.58747114161E+02  0.87600039898E+01  0.52450742695E+03  0.52786077901E+03  0.10000000000E+01 0.  0.
<mgrwt>
<rscale>  0 0.12500313E+03</rscale>
<asrwt>0</asrwt>
<pdfrwt beam="1">  1        4 0.12350913E+00 0.12500313E+03</pdfrwt>
<pdfrwt beam="2">  1       -4 0.74861066E-03 0.12500313E+03</pdfrwt>
<totfact> 0.37921773E+03</totfact>
</mgrwt>
</event>
<event>
 4    1  0.3184438E-002  0.1248229E+03  0.7818608E-02  0.1235346E+00
          4   -1    0    0  501    0  0.00000000000E+00  0.00000000000E+00  0.18877003447E+02  0.18919676507E+02  0.12700000000E+01 0.  1.
         -4   -1    0    0    0  501 -0.00000000000E+00 -0.00000000000E+00 -0.20606823862E+03  0.20607215210E+03  0.12700000000E+01 0.  1.
    9000005    1    1    2    0    0  0.77333523950E+01  0.23244571046E+02  0.98564538158E+01  0.26424694969E+02  0.10000000000E+01 0.  0.
    9000005    1    1    2    0    0 -0.77333523950E+01 -0.23244571046E+02 -0.19704768899E+03  0.19856713363E+03  0.10000000000E+01 0.  0.
<mgrwt>
<rscale>  0 0.12482293E+03</rscale>
<asrwt>0</asrwt>
<pdfrwt beam="1">  1        4 0.29077381E-02 0.12482293E+03</pdfrwt>
<pdfrwt beam="2">  1       -4 0.31706388E-01 0.12482293E+03</pdfrwt>
<totfact> 0.86425710E+03</totfact>
</mgrwt>
</event>
<event>
 5    1  0.3184438E-002  0.1249971E+03  0.7818608E-02  0.1235074E+00
         -4   -1    0    0    0  501 -0.00000000000E+00  0.00000000000E+00  0.70405405934E+01  0.71541674462E+01  0.12700000000E+01 0.  1.
          4   -1    0    0  501    0  0.00000000000E+00 -0.00000000000E+00 -0.55024097137E+03  0.55024243700E+03  0.12700000000E+01 0.  1.
         25    2    1    2    0    0  0.00000000000E+00  0.00000000000E+00 -0.54320043078E+03  0.55739660445E+03  0.12499706657E+03 0.  0.
    9000005    1    3    3    0    0 -0.18741720813E+02  0.59444463403E+02 -0.29162745281E+03  0.29821547170E+03  0.10000000000E+01 0.  0.
    9000005    1    3    3    0    0  0.18741720813E+02 -0.59444463403E+02 -0.25157297797E+03  0.25918113275E+03  0.10000000000E+01 0.  0.
<mgrwt>
<rscale>  0 0.12499707E+03</rscale>
<asrwt>0</asrwt>
<pdfrwt beam="2">  1        4 0.84661277E-01 0.12499707E+03</pdfrwt>
<pdfrwt beam="1">  1       -4 0.10920138E-02 0.12499707E+03</pdfrwt>
<totfact> 0.51675583E+03</totfact>
</mgrwt>
</event>
<event>
 5    1  0.3184438E-002  0.1250319E+03  0.7818608E-02  0.1235019E+00
          4   -1    0    0  501    0  0.00000000000E+00  0.00000000000E+00  0.59850136025E+01  0.61182749058E+01  0.12700000000E+01 0.  1.
         -4   -1    0    0    0  501 -0.00000000000E+00 -0.00000000000E+00 -0.64568145177E+03  0.64568270076E+03  0.12700000000E+01 0.  1.
         25    2    1    2    0    0  0.00000000000E+00  0.00000000000E+00 -0.63969643817E+03  0.65180097567E+03  0.12503191142E+03 0.  0.
    9000005    1    3    3    0    0  0.29794269581E+02  0.16832634985E+02 -0.47158516069E+02  0.58274880851E+02  0.10000000000E+01 0.  0.
    9000005    1    3    3    0    0 -0.29794269581E+02 -0.16832634985E+02 -0.59253792210E+03  0.59352609481E+03  0.10000000000E+01 0.  0.
<mgrwt>
<rscale>  0 0.12503191E+03</rscale>
<asrwt>0</asrwt>
<pdfrwt beam="1">  1        4 0.93111878E-03 0.12503191E+03</pdfrwt>
<pdfrwt beam="2">  1       -4 0.99345901E-01 0.12503191E+03</pdfrwt>
<totfact> 0.45720809E+03</totfact>
</mgrwt>
</event>
<event>
 5    1  0.3184438E-002  0.1250003E+03  0.7818608E-02  0.1235069E+00
         -4   -1    0    0    0  501 -0.00000000000E+00  0.00000000000E+00  0.11410816136E+03  0.11411522856E+03  0.12700000000E+01 0. -1.
          4   -1    0    0  501    0  0.00000000000E+00 -0.00000000000E+00 -0.34213102151E+02  0.34236665416E+02  0.12700000000E+01 0. -1.
         25    2    1    2    0    0  0.00000000000E+00  0.00000000000E+00  0.79895059205E+02  0.14835189397E+03  0.12500025584E+03 0.  0.
    9000005    1    3    3    0    0 -0.41164560428E+02 -0.44335188471E+02  0.21365816227E+02  0.64168746871E+02  0.10000000000E+01 0.  0.
    9000005    1    3    3    0    0  0.41164560428E+02  0.44335188471E+02  0.58529242979E+02  0.84183147100E+02  0.10000000000E+01 0.  0.
<mgrwt>
<rscale>  0 0.12500026E+03</rscale>
<asrwt>0</asrwt>
<pdfrwt beam="2">  1        4 0.52659103E-02 0.12500026E+03</pdfrwt>
<pdfrwt beam="1">  1       -4 0.17557458E-01 0.12500026E+03</pdfrwt>
<totfact> 0.99632669E+03</totfact>
</mgrwt>
</event>
<event>
 5    1  0.3184438E-002  0.1249995E+03  0.7818608E-02  0.1235070E+00
          4   -1    0    0  501    0  0.00000000000E+00  0.00000000000E+00  0.73705001788E+03  0.73705111204E+03  0.12700000000E+01 0. -1.
         -4   -1    0    0    0  501 -0.00000000000E+00 -0.00000000000E+00 -0.52226046156E+01  0.53748022263E+01  0.12700000000E+01 0. -1.
         25    2    1    2    0    0  0.00000000000E+00  0.00000000000E+00  0.73182741327E+03  0.74242591427E+03  0.12499950146E+03 0.  0.
    9000005    1    3    3    0    0  0.14090694685E+02 -0.52001294975E+02  0.55397305854E+03  0.55658766779E+03  0.10000000000E+01 0.  0.
    9000005    1    3    3    0    0 -0.14090694685E+02  0.52001294975E+02  0.17785435473E+03  0.18583824648E+03  0.10000000000E+01 0.  0.
<mgrwt>
<rscale>  0 0.12499950E+03</rscale>
<asrwt>0</asrwt>
<pdfrwt beam="1">  1        4 0.11340410E+00 0.12499950E+03</pdfrwt>
<pdfrwt beam="2">  1       -4 0.81526932E-03 0.12499950E+03</pdfrwt>
<totfact> 0.40939497E+03</totfact>
</mgrwt>
</event>
<event>
 5    1  0.3184438E-002  0.1250002E+03  0.7818608E-02  0.1235069E+00
         -4   -1    0    0    0  501 -0.00000000000E+00  0.00000000000E+00  0.33953417360E+02  0.33977160717E+02  0.12700000000E+01 0. -1.
          4   -1    0    0  501    0  0.00000000000E+00 -0.00000000000E+00 -0.11498017138E+03  0.11498718498E+03  0.12700000000E+01 0. -1.
         25    2    1    2    0    0  0.00000000000E+00  0.00000000000E+00 -0.81026754018E+02  0.14896434570E+03  0.12500016569E+03 0.  0.
    9000005    1    3    3    0    0 -0.42728207239E+02 -0.45577831674E+02 -0.42289758025E+02  0.75448406662E+02  0.10000000000E+01 0.  0.
    9000005    1    3    3    0    0  0.42728207239E+02  0.45577831674E+02 -0.38736995992E+02  0.73515939037E+02  0.10000000000E+01 0.  0.
<mgrwt>
<rscale>  0 0.12500017E+03</rscale>
<asrwt>0</asrwt>
<pdfrwt beam="2">  1        4 0.17691623E-01 0.12500017E+03</pdfrwt>
<pdfrwt beam="1">  1       -4 0.52259686E-02 0.12500017E+03</pdfrwt>
<totfact> 0.99510170E+03</totfact>
</mgrwt>
</event>
<event>
 5    1  0.3184438E-002  0.1249951E+03  0.7818608E-02  0.1235077E+00
         -4   -1    0    0    0  501 -0.00000000000E+00  0.00000000000E+00  0.48109717820E+02  0.48126477626E+02  0.12700000000E+01 0.  1.
          4   -1    0    0  501    0  0.00000000000E+00 -0.00000000000E+00 -0.81152434712E+02  0.81162371576E+02  0.12700000000E+01 0.  1.
         25    2    1    2    0    0  0.00000000000E+00  0.00000000000E+00 -0.33042716893E+02  0.12928884920E+03  0.12499514146E+03 0.  0.
    9000005    1    3    3    0    0 -0.54874519237E+02  0.27267858424E+02 -0.29197851409E+02  0.67884191764E+02  0.10000000000E+01 0.  0.
    9000005    1    3    3    0    0  0.54874519237E+02 -0.27267858424E+02 -0.38448654834E+01  0.61404657438E+02  0.10000000000E+01 0.  0.
<mgrwt>
<rscale>  0 0.12499514E+03</rscale>
<asrwt>0</asrwt>
<pdfrwt beam="2">  1        4 0.12487044E-01 0.12499514E+03</pdfrwt>
<pdfrwt beam="1">  1       -4 0.74035487E-02 0.12499514E+03</pdfrwt>
<totfact> 0.10360880E+04</totfact>
</mgrwt>
</event>
<event>
 5    1  0.3184438E-002  0.1249994E+03  0.7818608E-02  0.1235070E+00
         -4   -1    0    0    0  501 -0.00000000000E+00  0.00000000000E+00  0.11132689968E+02  0.11204895623E+02  0.12700000000E+01 0. -1.
          4   -1    0    0  501    0  0.00000000000E+00 -0.00000000000E+00 -0.34967027822E+03  0.34967258453E+03  0.12700000000E+01 0. -1.
         25    2    1    2    0    0  0.00000000000E+00  0.00000000000E+00 -0.33853758825E+03  0.36087748015E+03  0.12499942808E+03 0.  0.
    9000005    1    3    3    0    0 -0.48172355156E+02 -0.63406345704E+01 -0.28272716571E+03  0.28687354301E+03  0.10000000000E+01 0.  0.
    9000005    1    3    3    0    0  0.48172355156E+02  0.63406345704E+01 -0.55810422538E+02  0.74003937138E+02  0.10000000000E+01 0.  0.
<mgrwt>
<rscale>  0 0.12499943E+03</rscale>
<asrwt>0</asrwt>
<pdfrwt beam="2">  1        4 0.53801151E-01 0.12499943E+03</pdfrwt>
<pdfrwt beam="1">  1       -4 0.17184535E-02 0.12499943E+03</pdfrwt>
<totfact> 0.68545118E+03</totfact>
</mgrwt>
</event>
<event>
 5    1  0.3184438E-002  0.1249968E+03  0.7818608E-02  0.1235074E+00
          4   -1    0    0  501    0  0.00000000000E+00  0.00000000000E+00  0.82779149281E+02  0.82788890896E+02  0.12700000000E+01 0. -1.
         -4   -1    0    0    0  501 -0.00000000000E+00 -0.00000000000E+00 -0.47165303854E+02  0.47182399130E+02  0.12700000000E+01 0. -1.
         25    2    1    2    0    0  0.00000000000E+00  0.00000000000E+00  0.35613845427E+02  0.12997129003E+03  0.12499676094E+03 0.  0.
    9000005    1    3    3    0    0 -0.37516256579E+02  0.48411463040E+02  0.30706625102E+02  0.68520333380E+02  0.10000000000E+01 0.  0.
    9000005    1    3    3    0    0  0.37516256579E+02 -0.48411463040E+02  0.49072203250E+01  0.61450956646E+02  0.10000000000E+01 0.  0.
<mgrwt>
<rscale>  0 0.12499676E+03</rscale>
<asrwt>0</asrwt>
<pdfrwt beam="1">  1        4 0.12737318E-01 0.12499676E+03</pdfrwt>
<pdfrwt beam="2">  1       -4 0.72582650E-02 0.12499676E+03</pdfrwt>
<totfact> 0.10345878E+04</totfact>
</mgrwt>
</event>
<event>
 4    1  0.3184438E-002  0.1251045E+03  0.7818608E-02  0.1234906E+00
          4   -1    0    0  501    0  0.00000000000E+00  0.00000000000E+00  0.17468348490E+02  0.17514454001E+02  0.12700000000E+01 0. -1.
         -4   -1    0    0    0  501 -0.00000000000E+00 -0.00000000000E+00 -0.22364975944E+03  0.22365336527E+03  0.12700000000E+01 0. -1.
    9000005    1    1    2    0    0 -0.43010980870E+02 -0.42601372301E+02 -0.72796230699E+02  0.94684278533E+02  0.10000000000E+01 0.  0.
    9000005    1    1    2    0    0  0.43010980870E+02  0.42601372301E+02 -0.13338518025E+03  0.14648354074E+03  0.10000000000E+01 0.  0.
<mgrwt>
<rscale>  0 0.12510453E+03</rscale>
<asrwt>0</asrwt>
<pdfrwt beam="1">  1        4 0.26912623E-02 0.12510453E+03</pdfrwt>
<pdfrwt beam="2">  1       -4 0.34411477E-01 0.12510453E+03</pdfrwt>
<totfact> 0.83429198E+03</totfact>
</mgrwt>
</event>
<event>
 5    1  0.3184438E-002  0.1250016E+03  0.7818608E-02  0.1235067E+00
          4   -1    0    0  501    0  0.00000000000E+00  0.00000000000E+00  0.70838962454E+03  0.70839076296E+03  0.12700000000E+01 0. -1.
         -4   -1    0    0    0  501 -0.00000000000E+00 -0.00000000000E+00 -0.54401285016E+01  0.55864029674E+01  0.12700000000E+01 0. -1.
         25    2    1    2    0    0  0.00000000000E+00  0.00000000000E+00  0.70294949604E+03  0.71397716593E+03  0.12500159797E+03 0.  0.
    9000005    1    3    3    0    0  0.59232495220E+02 -0.94827289850E+01  0.45154268827E+03  0.45551093288E+03  0.10000000000E+01 0.  0.
    9000005    1    3    3    0    0 -0.59232495220E+02  0.94827289850E+01  0.25140680777E+03  0.25846623306E+03  0.10000000000E+01 0.  0.
<mgrwt>
<rscale>  0 0.12500160E+03</rscale>
<asrwt>0</asrwt>
<pdfrwt beam="1">  1        4 0.10899434E+00 0.12500160E+03</pdfrwt>
<pdfrwt beam="2">  1       -4 0.84828244E-03 0.12500160E+03</pdfrwt>
<totfact> 0.42357585E+03</totfact>
</mgrwt>
</event>
<event>
 5    1  0.3184438E-002  0.1249975E+03  0.7818608E-02  0.1235073E+00
          4   -1    0    0  501    0  0.00000000000E+00  0.00000000000E+00  0.14213707434E+02  0.14270332128E+02  0.12700000000E+01 0.  1.
         -4   -1    0    0    0  501 -0.00000000000E+00 -0.00000000000E+00 -0.27420747811E+03  0.27421041911E+03  0.12700000000E+01 0.  1.
         25    2    1    2    0    0  0.00000000000E+00  0.00000000000E+00 -0.25999377067E+03  0.28848075124E+03  0.12499753217E+03 0.  0.
    9000005    1    3    3    0    0 -0.31995653321E+02  0.33598708684E+02 -0.33381897786E+02  0.57165952773E+02  0.10000000000E+01 0.  0.
    9000005    1    3    3    0    0  0.31995653321E+02 -0.33598708684E+02 -0.22661187288E+03  0.23131479846E+03  0.10000000000E+01 0.  0.
<mgrwt>
<rscale>  0 0.12499753E+03</rscale>
<asrwt>0</asrwt>
<pdfrwt beam="1">  1        4 0.21913064E-02 0.12499753E+03</pdfrwt>
<pdfrwt beam="2">  1       -4 0.42190344E-01 0.12499753E+03</pdfrwt>
<totfact> 0.77071118E+03</totfact>
</mgrwt>
</event>
<event>
 5    1  0.3184438E-002  0.1249989E+03  0.7818608E-02  0.1235071E+00
         -4   -1    0    0    0  501 -0.00000000000E+00  0.00000000000E+00  0.14239563461E+04  0.14239569125E+04  0.12700000000E+01 0.  1.
          4   -1    0    0  501    0  0.00000000000E+00 -0.00000000000E+00 -0.25955986892E+01  0.28896422884E+01  0.12700000000E+01 0.  1.
         25    2    1    2    0    0  0.00000000000E+00  0.00000000000E+00  0.14213607474E+04  0.14268465548E+04  0.12499886589E+03 0.  0.
    9000005    1    3    3    0    0  0.30382561077E+02 -0.17760640169E+02  0.13001389517E+04  0.13006155597E+04  0.10000000000E+01 0.  0.
    9000005    1    3    3    0    0 -0.30382561077E+02  0.17760640169E+02  0.12122179575E+03  0.12623099509E+03  0.10000000000E+01 0.  0.
<mgrwt>
<rscale>  0 0.12499887E+03</rscale>
<asrwt>0</asrwt>
<pdfrwt beam="2">  1        4 0.42198551E-03 0.12499887E+03</pdfrwt>
<pdfrwt beam="1">  1       -4 0.21909270E+00 0.12499887E+03</pdfrwt>
<totfact> 0.19412547E+03</totfact>
</mgrwt>
</event>
<event>
 4    1  0.3184438E-002  0.1246156E+03  0.7818608E-02  0.1235671E+00
         -4   -1    0    0    0  501 -0.00000000000E+00  0.00000000000E+00  0.33890250482E+01  0.36191699017E+01  0.12700000000E+01 0.  1.
          4   -1    0    0  501    0  0.00000000000E+00 -0.00000000000E+00 -0.11076897049E+04  0.11076904330E+04  0.12700000000E+01 0.  1.
    9000005    1    1    2    0    0 -0.37201056752E+02  0.39543420955E+01 -0.99641095796E+03  0.99711351038E+03  0.10000000000E+01 0.  0.
    9000005    1    1    2    0    0  0.37201056752E+02 -0.39543420955E+01 -0.10788972192E+03  0.11419609249E+03  0.10000000000E+01 0.  0.
<mgrwt>
<rscale>  0 0.12461558E+03</rscale>
<asrwt>0</asrwt>
<pdfrwt beam="2">  1        4 0.17043128E+00 0.12461558E+03</pdfrwt>
<pdfrwt beam="1">  1       -4 0.53914881E-03 0.12461558E+03</pdfrwt>
<totfact> 0.27383740E+03</totfact>
</mgrwt>
</event>
<event>
 5    1  0.3184438E-002  0.1249989E+03  0.7818608E-02  0.1235071E+00
         -4   -1    0    0    0  501 -0.00000000000E+00  0.00000000000E+00  0.11285867151E+03  0.11286581694E+03  0.12700000000E+01 0. -1.
          4   -1    0    0  501    0  0.00000000000E+00 -0.00000000000E+00 -0.34591384979E+02  0.34614690736E+02  0.12700000000E+01 0. -1.
         25    2    1    2    0    0  0.00000000000E+00  0.00000000000E+00  0.78267286528E+02  0.14748050768E+03  0.12499892802E+03 0.  0.
    9000005    1    3    3    0    0  0.38618618556E+02  0.45247006090E+02  0.16546483847E+02  0.61753343124E+02  0.10000000000E+01 0.  0.
    9000005    1    3    3    0    0 -0.38618618556E+02 -0.45247006090E+02  0.61720802681E+02  0.85727164556E+02  0.10000000000E+01 0.  0.
<mgrwt>
<rscale>  0 0.12499893E+03</rscale>
<asrwt>0</asrwt>
<pdfrwt beam="2">  1        4 0.53240940E-02 0.12499893E+03</pdfrwt>
<pdfrwt beam="1">  1       -4 0.17365215E-01 0.12499893E+03</pdfrwt>
<totfact> 0.99810721E+03</totfact>
</mgrwt>
</event>
<event>
 5    1  0.3184438E-002  0.1250059E+03  0.7818608E-02  0.1235060E+00
         -4   -1    0    0    0  501 -0.00000000000E+00  0.00000000000E+00  0.51337116902E+02  0.51352823406E+02  0.12700000000E+01 0.  1.
          4   -1    0    0  501    0  0.00000000000E+00 -0.00000000000E+00 -0.76064738085E+02  0.76075339500E+02  0.12700000000E+01 0.  1.
         25    2    1    2    0    0  0.00000000000E+00  0.00000000000E+00 -0.24727621184E+02  0.12742816291E+03  0.12500592567E+03 0.  0.
    9000005    1    3    3    0    0  0.53340657308E+02  0.21464448099E+02  0.12598900282E+02  0.58870030937E+02  0.10000000000E+01 0.  0.
    9000005    1    3    3    0    0 -0.53340657308E+02 -0.21464448099E+02 -0.37326521466E+02  0.68558131968E+02  0.10000000000E+01 0.  0.
<mgrwt>
<rscale>  0 0.12500593E+03</rscale>
<asrwt>0</asrwt>
<pdfrwt beam="2">  1        4 0.11704291E-01 0.12500593E+03</pdfrwt>
<pdfrwt beam="1">  1       -4 0.79000417E-02 0.12500593E+03</pdfrwt>
<totfact> 0.10398466E+04</totfact>
</mgrwt>
</event>
<event>
 5    1  0.3184438E-002  0.1249979E+03  0.7818608E-02  0.1235073E+00
          4   -1    0    0  501    0  0.00000000000E+00  0.00000000000E+00  0.20938612843E+02  0.20977092454E+02  0.12700000000E+01 0.  1.
         -4   -1    0    0    0  501 -0.00000000000E+00 -0.00000000000E+00 -0.18633910935E+03  0.18634343716E+03  0.12700000000E+01 0.  1.
         25    2    1    2    0    0  0.00000000000E+00  0.00000000000E+00 -0.16540049650E+03  0.20732052961E+03  0.12499791100E+03 0.  0.
    9000005    1    3    3    0    0  0.53988299574E+02 -0.21431707346E+01 -0.30624957020E+02  0.62114552756E+02  0.10000000000E+01 0.  0.
    9000005    1    3    3    0    0 -0.53988299574E+02  0.21431707346E+01 -0.13477553948E+03  0.14520597685E+03  0.10000000000E+01 0.  0.
<mgrwt>
<rscale>  0 0.12499791E+03</rscale>
<asrwt>0</asrwt>
<pdfrwt beam="1">  1        4 0.32246180E-02 0.12499791E+03</pdfrwt>
<pdfrwt beam="2">  1       -4 0.28670847E-01 0.12499791E+03</pdfrwt>
<totfact> 0.88919506E+03</totfact>
</mgrwt>
</event>
<event>
 5    1  0.3184438E-002  0.1249970E+03  0.7818608E-02  0.1235074E+00
          4   -1    0    0  501    0  0.00000000000E+00  0.00000000000E+00  0.33480478745E+02  0.33504557257E+02  0.12700000000E+01 0. -1.
         -4   -1    0    0    0  501 -0.00000000000E+00 -0.00000000000E+00 -0.11659748109E+03  0.11660439741E+03  0.12700000000E+01 0. -1.
         25    2    1    2    0    0  0.00000000000E+00  0.00000000000E+00 -0.83117002344E+02  0.15010895467E+03  0.12499704874E+03 0.  0.
    9000005    1    3    3    0    0  0.42095268819E+02  0.21993130095E+02  0.72127682535E+01  0.48049281516E+02  0.10000000000E+01 0.  0.
    9000005    1    3    3    0    0 -0.42095268819E+02 -0.21993130095E+02 -0.90329770597E+02  0.10205967316E+03  0.10000000000E+01 0.  0.
<mgrwt>
<rscale>  0 0.12499705E+03</rscale>
<asrwt>0</asrwt>
<pdfrwt beam="1">  1        4 0.51532272E-02 0.12499705E+03</pdfrwt>
<pdfrwt beam="2">  1       -4 0.17940458E-01 0.12499705E+03</pdfrwt>
<totfact> 0.99288579E+03</totfact>
</mgrwt>
</event>
<event>
 5    1  0.3184438E-002  0.1249955E+03  0.7818608E-02  0.1235076E+00
          4   -1    0    0  501    0  0.00000000000E+00  0.00000000000E+00  0.30633432374E+02  0.30659746884E+02  0.12700000000E+01 0. -1.
         -4   -1    0    0    0  501 -0.00000000000E+00 -0.00000000000E+00 -0.12742242310E+03  0.12742875190E+03  0.12700000000E+01 0. -1.
         25    2    1    2    0    0  0.00000000000E+00  0.00000000000E+00 -0.96788990730E+02  0.15808849878E+03  0.12499545880E+03 0.  0.
    9000005    1    3    3    0    0  0.18131750101E+02  0.39939318594E+02 -0.10468750751E+03  0.11350939943E+03  0.10000000000E+01 0.  0.
    9000005    1    3    3    0    0 -0.18131750101E+02 -0.39939318594E+02  0.78985167763E+01  0.44579099348E+02  0.10000000000E+01 0.  0.
<mgrwt>
<rscale>  0 0.12499546E+03</rscale>
<asrwt>0</asrwt>
<pdfrwt beam="1">  1        4 0.47153468E-02 0.12499546E+03</pdfrwt>
<pdfrwt beam="2">  1       -4 0.19605960E-01 0.12499546E+03</pdfrwt>
<totfact> 0.97722555E+03</totfact>
</mgrwt>
</event>
<event>
 5    1  0.3184438E-002  0.1249978E+03  0.7818608E-02  0.1235073E+00
         -4   -1    0    0    0  501 -0.00000000000E+00  0.00000000000E+00  0.86700846672E+01  0.87626062411E+01  0.12700000000E+01 0. -1.
          4   -1    0    0  501    0  0.00000000000E+00 -0.00000000000E+00 -0.44804292674E+03  0.44804472668E+03  0.12700000000E+01 0. -1.
         25    2    1    2    0    0  0.00000000000E+00  0.00000000000E+00 -0.43937284207E+03  0.45680733292E+03  0.12499778020E+03 0.  0.
    9000005    1    3    3    0    0  0.55606820736E+02 -0.19684762578E+02 -0.29507091346E+03  0.30091103729E+03  0.10000000000E+01 0.  0.
    9000005    1    3    3    0    0 -0.55606820736E+02  0.19684762578E+02 -0.14430192861E+03  0.15589629563E+03  0.10000000000E+01 0.  0.
<mgrwt>
<rscale>  0 0.12499778E+03</rscale>
<asrwt>0</asrwt>
<pdfrwt beam="2">  1        4 0.68936918E-01 0.12499778E+03</pdfrwt>
<pdfrwt beam="1">  1       -4 0.13411150E-02 0.12499778E+03</pdfrwt>
<totfact> 0.59381490E+03</totfact>
</mgrwt>
</event>
<event>
 5    1  0.3184438E-002  0.1249998E+03  0.7818608E-02  0.1235070E+00
          4   -1    0    0  501    0  0.00000000000E+00  0.00000000000E+00  0.48359108055E+02  0.48375781460E+02  0.12700000000E+01 0.  1.
         -4   -1    0    0    0  501 -0.00000000000E+00 -0.00000000000E+00 -0.80740045482E+02  0.80750033093E+02  0.12700000000E+01 0.  1.
         25    2    1    2    0    0  0.00000000000E+00  0.00000000000E+00 -0.32380937427E+02  0.12912581455E+03  0.12499980350E+03 0.  0.
    9000005    1    3    3    0    0  0.10891650162E+02  0.90872950432E+01 -0.79060117648E+02  0.80328756849E+02  0.10000000000E+01 0.  0.
    9000005    1    3    3    0    0 -0.10891650162E+02 -0.90872950432E+01  0.46679180221E+02  0.48797057704E+02  0.10000000000E+01 0.  0.
<mgrwt>
<rscale>  0 0.12499980E+03</rscale>
<asrwt>0</asrwt>
<pdfrwt beam="1">  1        4 0.74419136E-02 0.12499980E+03</pdfrwt>
<pdfrwt beam="2">  1       -4 0.12423596E-01 0.12499980E+03</pdfrwt>
<totfact> 0.10363290E+04</totfact>
</mgrwt>
</event>
<event>
 5    1  0.3184438E-002  0.1249870E+03  0.7818608E-02  0.1235090E+00
          4   -1    0    0  501    0  0.00000000000E+00  0.00000000000E+00  0.41747281299E+01  0.43636286458E+01  0.12700000000E+01 0. -1.
         -4   -1    0    0    0  501 -0.00000000000E+00 -0.00000000000E+00 -0.91460849023E+03  0.91460937197E+03  0.12700000000E+01 0. -1.
         25    2    1    2    0    0  0.00000000000E+00  0.00000000000E+00 -0.91043376210E+03  0.91897300062E+03  0.12498696210E+03 0.  0.
    9000005    1    3    3    0    0 -0.14243724787E+02 -0.60677726239E+02 -0.48790475151E+03  0.49187063004E+03  0.10000000000E+01 0.  0.
    9000005    1    3    3    0    0  0.14243724787E+02  0.60677726239E+02 -0.42252901059E+03  0.42710237057E+03  0.10000000000E+01 0.  0.
<mgrwt>
<rscale>  0 0.12498696E+03</rscale>
<asrwt>0</asrwt>
<pdfrwt beam="1">  1        4 0.65686523E-03 0.12498696E+03</pdfrwt>
<pdfrwt beam="2">  1       -4 0.14072344E+00 0.12498696E+03</pdfrwt>
<totfact> 0.33453316E+03</totfact>
</mgrwt>
</event>
<event>
 5    1  0.3184438E-002  0.1250001E+03  0.7818608E-02  0.1235069E+00
         -4   -1    0    0    0  501 -0.00000000000E+00  0.00000000000E+00  0.24822829449E+03  0.24823154329E+03  0.12700000000E+01 0.  1.
          4   -1    0    0  501    0  0.00000000000E+00 -0.00000000000E+00 -0.15707555503E+02  0.15758813403E+02  0.12700000000E+01 0.  1.
         25    2    1    2    0    0  0.00000000000E+00  0.00000000000E+00  0.23252073899E+03  0.26399035669E+03  0.12500005748E+03 0.  0.
    9000005    1    3    3    0    0 -0.42537446501E+01  0.56048163589E+02  0.17393411438E+03  0.18279378307E+03  0.10000000000E+01 0.  0.
    9000005    1    3    3    0    0  0.42537446501E+01 -0.56048163589E+02  0.58586624608E+02  0.81196573623E+02  0.10000000000E+01 0.  0.
<mgrwt>
<rscale>  0 0.12500006E+03</rscale>
<asrwt>0</asrwt>
<pdfrwt beam="2">  1        4 0.24207397E-02 0.12500006E+03</pdfrwt>
<pdfrwt beam="1">  1       -4 0.38193163E-01 0.12500006E+03</pdfrwt>
<totfact> 0.80349207E+03</totfact>
</mgrwt>
</event>
<event>
 5    1  0.3184438E-002  0.1249993E+03  0.7818608E-02  0.1235070E+00
         -4   -1    0    0    0  501 -0.00000000000E+00  0.00000000000E+00  0.41047963324E+02  0.41067605153E+02  0.12700000000E+01 0.  1.
          4   -1    0    0  501    0  0.00000000000E+00 -0.00000000000E+00 -0.95115397281E+02  0.95123875551E+02  0.12700000000E+01 0.  1.
         25    2    1    2    0    0  0.00000000000E+00  0.00000000000E+00 -0.54067433957E+02  0.13619148070E+03  0.12499932801E+03 0.  0.
    9000005    1    3    3    0    0 -0.35434296750E+01 -0.13210834262E+02  0.39402410977E+02  0.41720882380E+02  0.10000000000E+01 0.  0.
    9000005    1    3    3    0    0  0.35434296750E+01  0.13210834262E+02 -0.93469844934E+02  0.94470598324E+02  0.10000000000E+01 0.  0.
<mgrwt>
<rscale>  0 0.12499933E+03</rscale>
<asrwt>0</asrwt>
<pdfrwt beam="2">  1        4 0.14635301E-01 0.12499933E+03</pdfrwt>
<pdfrwt beam="1">  1       -4 0.63172344E-02 0.12499933E+03</pdfrwt>
<totfact> 0.10213173E+04</totfact>
</mgrwt>
</event>
<event>
 5    1  0.3184438E-002  0.1250010E+03  0.7818608E-02  0.1235068E+00
         -4   -1    0    0    0  501 -0.00000000000E+00  0.00000000000E+00  0.54291792588E+03  0.54291941128E+03  0.12700000000E+01 0.  1.
          4   -1    0    0  501    0  0.00000000000E+00 -0.00000000000E+00 -0.71374879082E+01  0.72495954121E+01  0.12700000000E+01 0.  1.
         25    2    1    2    0    0  0.00000000000E+00  0.00000000000E+00  0.53578043798E+03  0.55016900669E+03  0.12500103283E+03 0.  0.
    9000005    1    3    3    0    0 -0.30918822176E+02 -0.35671334468E+02  0.44812379460E+03  0.45060443069E+03  0.10000000000E+01 0.  0.
    9000005    1    3    3    0    0  0.30918822176E+02  0.35671334468E+02  0.87656643371E+02  0.99564576003E+02  0.10000000000E+01 0.  0.
<mgrwt>
<rscale>  0 0.12500103E+03</rscale>
<asrwt>0</asrwt>
<pdfrwt beam="2">  1        4 0.11068127E-02 0.12500103E+03</pdfrwt>
<pdfrwt beam="1">  1       -4 0.83534593E-01 0.12500103E+03</pdfrwt>
<totfact> 0.52170959E+03</totfact>
</mgrwt>
</event>
<event>
 5    1  0.3184438E-002  0.1250158E+03  0.7818608E-02  0.1235045E+00
          4   -1    0    0  501    0  0.00000000000E+00  0.00000000000E+00  0.76488791980E+03  0.76488897414E+03  0.12700000000E+01 0. -1.
         -4   -1    0    0    0  501 -0.00000000000E+00 -0.00000000000E+00 -0.50282344010E+01  0.51861393340E+01  0.12700000000E+01 0. -1.
         25    2    1    2    0    0  0.00000000000E+00  0.00000000000E+00  0.75985968540E+03  0.77007511347E+03  0.12501575458E+03 0.  0.
    9000005    1    3    3    0    0  0.75407749963E+01  0.22634786753E+02  0.24094641104E+02  0.33922685460E+02  0.10000000000E+01 0.  0.
    9000005    1    3    3    0    0 -0.75407749963E+01 -0.22634786753E+02  0.73576504430E+03  0.73615242801E+03  0.10000000000E+01 0.  0.
<mgrwt>
<rscale>  0 0.12501575E+03</rscale>
<asrwt>0</asrwt>
<pdfrwt beam="1">  1        4 0.11768733E+00 0.12501575E+03</pdfrwt>
<pdfrwt beam="2">  1       -4 0.78580194E-03 0.12501575E+03</pdfrwt>
<totfact> 0.39618192E+03</totfact>
</mgrwt>
</event>
<event>
 5    1  0.3184438E-002  0.1249984E+03  0.7818608E-02  0.1235072E+00
          4   -1    0    0  501    0  0.00000000000E+00  0.00000000000E+00  0.13934985617E+03  0.13935564328E+03  0.12700000000E+01 0. -1.
         -4   -1    0    0    0  501 -0.00000000000E+00 -0.00000000000E+00 -0.28010486353E+02  0.28039262575E+02  0.12700000000E+01 0. -1.
         25    2    1    2    0    0  0.00000000000E+00  0.00000000000E+00  0.11133936981E+03  0.16739490585E+03  0.12499839693E+03 0.  0.
    9000005    1    3    3    0    0  0.51484295200E+02 -0.16921225846E+02  0.97339150170E+02  0.11141306338E+03  0.10000000000E+01 0.  0.
    9000005    1    3    3    0    0 -0.51484295200E+02  0.16921225846E+02  0.14000219644E+02  0.55981842471E+02  0.10000000000E+01 0.  0.
<mgrwt>
<rscale>  0 0.12499840E+03</rscale>
<asrwt>0</asrwt>
<pdfrwt beam="1">  1        4 0.21441098E-01 0.12499840E+03</pdfrwt>
<pdfrwt beam="2">  1       -4 0.43119644E-02 0.12499840E+03</pdfrwt>
<totfact> 0.95939202E+03</totfact>
</mgrwt>
</event>
<event>
 5    1  0.3184438E-002  0.1250025E+03  0.7818608E-02  0.1235065E+00
         -4   -1    0    0    0  501 -0.00000000000E+00  0.00000000000E+00  0.57391375250E+01  0.58779758021E+01  0.12700000000E+01 0. -1.
          4   -1    0    0  501    0  0.00000000000E+00 -0.00000000000E+00 -0.67238699062E+03  0.67238819000E+03  0.12700000000E+01 0. -1.
         25    2    1    2    0    0  0.00000000000E+00  0.00000000000E+00 -0.66664785309E+03  0.67826616580E+03  0.12500252653E+03 0.  0.
    9000005    1    3    3    0    0  0.19557058662E+02  0.52903329562E+02 -0.47934002971E+03  0.48264801347E+03  0.10000000000E+01 0.  0.
    9000005    1    3    3    0    0 -0.19557058662E+02 -0.52903329562E+02 -0.18730782338E+03  0.19561815233E+03  0.10000000000E+01 0.  0.
<mgrwt>
<rscale>  0 0.12500253E+03</rscale>
<asrwt>0</asrwt>
<pdfrwt beam="2">  1        4 0.10345486E+00 0.12500253E+03</pdfrwt>
<pdfrwt beam="1">  1       -4 0.89371690E-03 0.12500253E+03</pdfrwt>
<totfact> 0.44256673E+03</totfact>
</mgrwt>
</event>
<event>
 5    1  0.3184438E-002  0.1249980E+03  0.7818608E-02  0.1235072E+00
          4   -1    0    0  501    0  0.00000000000E+00  0.00000000000E+00  0.27180609440E+02  0.27210263312E+02  0.12700000000E+01 0.  1.
         -4   -1    0    0    0  501 -0.00000000000E+00 -0.00000000000E+00 -0.14359917340E+03  0.14360478927E+03  0.12700000000E+01 0.  1.
         25    2    1    2    0    0  0.00000000000E+00  0.00000000000E+00 -0.11641856396E+03  0.17081505259E+03  0.12499800060E+03 0.  0.
    9000005    1    3    3    0    0 -0.36905621868E+02 -0.43067870560E+02 -0.22358477283E+02  0.60973501675E+02  0.10000000000E+01 0.  0.
    9000005    1    3    3    0    0  0.36905621868E+02  0.43067870560E+02 -0.94060086681E+02  0.10984155091E+03  0.10000000000E+01 0.  0.
<mgrwt>
<rscale>  0 0.12499800E+03</rscale>
<asrwt>0</asrwt>
<pdfrwt beam="1">  1        4 0.41843453E-02 0.12499800E+03</pdfrwt>
<pdfrwt beam="2">  1       -4 0.22094893E-01 0.12499800E+03</pdfrwt>
<totfact> 0.95301216E+03</totfact>
</mgrwt>
</event>
<event>
 5    1  0.3184438E-002  0.1250025E+03  0.7818608E-02  0.1235065E+00
          4   -1    0    0  501    0  0.00000000000E+00  0.00000000000E+00  0.92845170055E+02  0.92853855615E+02  0.12700000000E+01 0.  1.
         -4   -1    0    0    0  501 -0.00000000000E+00 -0.00000000000E+00 -0.42054205550E+02  0.42073377621E+02  0.12700000000E+01 0.  1.
         25    2    1    2    0    0  0.00000000000E+00  0.00000000000E+00  0.50790964505E+02  0.13492723324E+03  0.12500254475E+03 0.  0.
    9000005    1    3    3    0    0 -0.23343815945E+02 -0.72678011030E+01 -0.36682961626E+02  0.44095287157E+02  0.10000000000E+01 0.  0.
    9000005    1    3    3    0    0  0.23343815945E+02  0.72678011030E+01  0.87473926131E+02  0.90831946080E+02  0.10000000000E+01 0.  0.
<mgrwt>
<rscale>  0 0.12500254E+03</rscale>
<asrwt>0</asrwt>
<pdfrwt beam="1">  1        4 0.14286015E-01 0.12500254E+03</pdfrwt>
<pdfrwt beam="2">  1       -4 0.64720208E-02 0.12500254E+03</pdfrwt>
<totfact> 0.10239017E+04</totfact>
</mgrwt>
</event>
<event>
 5    1  0.3184438E-002  0.1250004E+03  0.7818608E-02  0.1235069E+00
         -4   -1    0    0    0  501 -0.00000000000E+00  0.00000000000E+00  0.87175592932E+01  0.88095822847E+01  0.12700000000E+01 0. -1.
          4   -1    0    0  501    0  0.00000000000E+00 -0.00000000000E+00 -0.44564749243E+03  0.44564930204E+03  0.12700000000E+01 0. -1.
         25    2    1    2    0    0  0.00000000000E+00  0.00000000000E+00 -0.43692993314E+03  0.45445888433E+03  0.12500044428E+03 0.  0.
    9000005    1    3    3    0    0 -0.38998222539E+02  0.48828425269E+02 -0.21683380590E+03  0.22566119706E+03  0.10000000000E+01 0.  0.
    9000005    1    3    3    0    0  0.38998222539E+02 -0.48828425269E+02 -0.22009612724E+03  0.22879768727E+03  0.10000000000E+01 0.  0.
<mgrwt>
<rscale>  0 0.12500044E+03</rscale>
<asrwt>0</asrwt>
<pdfrwt beam="2">  1        4 0.68568353E-01 0.12500044E+03</pdfrwt>
<pdfrwt beam="1">  1       -4 0.13483812E-02 0.12500044E+03</pdfrwt>
<totfact> 0.59578884E+03</totfact>
</mgrwt>
</event>
<event>
 5    1  0.3184438E-002  0.1249984E+03  0.7818608E-02  0.1235072E+00
          4   -1    0    0  501    0  0.00000000000E+00  0.00000000000E+00  0.21205060777E+01  0.24717293593E+01  0.12700000000E+01 0. -1.
         -4   -1    0    0    0  501 -0.00000000000E+00 -0.00000000000E+00 -0.17008451870E+04  0.17008456611E+04  0.12700000000E+01 0. -1.
         25    2    1    2    0    0  0.00000000000E+00  0.00000000000E+00 -0.16987246809E+04  0.17033173905E+04  0.12499836489E+03 0.  0.
    9000005    1    3    3    0    0 -0.40021744777E+02 -0.46541653034E+02 -0.10090232124E+04  0.10108890684E+04  0.10000000000E+01 0.  0.
    9000005    1    3    3    0    0  0.40021744777E+02  0.46541653034E+02 -0.68970146851E+03  0.69242832206E+03  0.10000000000E+01 0.  0.
<mgrwt>
<rscale>  0 0.12499836E+03</rscale>
<asrwt>0</asrwt>
<pdfrwt beam="1">  1        4 0.35328671E-03 0.12499836E+03</pdfrwt>
<pdfrwt beam="2">  1       -4 0.26169454E+00 0.12499836E+03</pdfrwt>
<totfact> 0.14253263E+03</totfact>
</mgrwt>
</event>
<event>
 5    1  0.3184438E-002  0.1249865E+03  0.7818608E-02  0.1235090E+00
         -4   -1    0    0    0  501 -0.00000000000E+00  0.00000000000E+00  0.33715212262E+02  0.33739123253E+02  0.12700000000E+01 0.  1.
          4   -1    0    0  501    0  0.00000000000E+00 -0.00000000000E+00 -0.11576667862E+03  0.11577364458E+03  0.12700000000E+01 0.  1.
         25    2    1    2    0    0  0.00000000000E+00  0.00000000000E+00 -0.82051466359E+02  0.14951276783E+03  0.12498649772E+03 0.  0.
    9000005    1    3    3    0    0  0.33103256638E+02  0.51827691245E+02 -0.27787446933E+02  0.67491313418E+02  0.10000000000E+01 0.  0.
    9000005    1    3    3    0    0 -0.33103256638E+02 -0.51827691245E+02 -0.54264019426E+02  0.82021454413E+02  0.10000000000E+01 0.  0.
<mgrwt>
<rscale>  0 0.12498650E+03</rscale>
<asrwt>0</asrwt>
<pdfrwt beam="2">  1        4 0.17812633E-01 0.12498650E+03</pdfrwt>
<pdfrwt beam="1">  1       -4 0.51893309E-02 0.12498650E+03</pdfrwt>
<totfact> 0.99431122E+03</totfact>
</mgrwt>
</event>
<event>
 5    1  0.3184438E-002  0.1249986E+03  0.7818608E-02  0.1235072E+00
          4   -1    0    0  501    0  0.00000000000E+00  0.00000000000E+00  0.29400060444E+02  0.29427477875E+02  0.12700000000E+01 0.  1.
         -4   -1    0    0    0  501 -0.00000000000E+00 -0.00000000000E+00 -0.13276991812E+03  0.13277599202E+03  0.12700000000E+01 0.  1.
         25    2    1    2    0    0  0.00000000000E+00  0.00000000000E+00 -0.10336985767E+03  0.16220346990E+03  0.12499855268E+03 0.  0.
    9000005    1    3    3    0    0 -0.32164249619E+02  0.44605699340E+02 -0.90200054774E+02  0.10564685158E+03  0.10000000000E+01 0.  0.
    9000005    1    3    3    0    0  0.32164249619E+02 -0.44605699340E+02 -0.13169802901E+02  0.56556618318E+02  0.10000000000E+01 0.  0.
<mgrwt>
<rscale>  0 0.12499855E+03</rscale>
<asrwt>0</asrwt>
<pdfrwt beam="1">  1        4 0.45256626E-02 0.12499855E+03</pdfrwt>
<pdfrwt beam="2">  1       -4 0.20428717E-01 0.12499855E+03</pdfrwt>
<totfact> 0.96922800E+03</totfact>
</mgrwt>
</event>
<event>
 5    1  0.3184438E-002  0.1250003E+03  0.7818608E-02  0.1235069E+00
         -4   -1    0    0    0  501 -0.00000000000E+00  0.00000000000E+00  0.16241591101E+03  0.16242087627E+03  0.12700000000E+01 0. -1.
          4   -1    0    0  501    0  0.00000000000E+00 -0.00000000000E+00 -0.24028926986E+02  0.24062465213E+02  0.12700000000E+01 0. -1.
         25    2    1    2    0    0  0.00000000000E+00  0.00000000000E+00  0.13838698402E+03  0.18648334148E+03  0.12500031722E+03 0.  0.
    9000005    1    3    3    0    0 -0.36167931823E+02 -0.31568450518E+02  0.12887888949E+03  0.13753346689E+03  0.10000000000E+01 0.  0.
    9000005    1    3    3    0    0  0.36167931823E+02  0.31568450518E+02  0.95080945318E+01  0.48949874587E+02  0.10000000000E+01 0.  0.
<mgrwt>
<rscale>  0 0.12500032E+03</rscale>
<asrwt>0</asrwt>
<pdfrwt beam="2">  1        4 0.36997199E-02 0.12500032E+03</pdfrwt>
<pdfrwt beam="1">  1       -4 0.24990025E-01 0.12500032E+03</pdfrwt>
<totfact> 0.92462170E+03</totfact>
</mgrwt>
</event>
<event>
 5    1  0.3184438E-002  0.1250004E+03  0.7818608E-02  0.1235069E+00
         -4   -1    0    0    0  501 -0.00000000000E+00  0.00000000000E+00  0.16152655730E+03  0.16153154990E+03  0.12700000000E+01 0. -1.
          4   -1    0    0  501    0  0.00000000000E+00 -0.00000000000E+00 -0.24161431006E+02  0.24194785559E+02  0.12700000000E+01 0. -1.
         25    2    1    2    0    0  0.00000000000E+00  0.00000000000E+00  0.13736512630E+03  0.18572633546E+03  0.12500037505E+03 0.  0.
    9000005    1    3    3    0    0 -0.17616170219E+02 -0.17175617337E+02 -0.16669758241E+02  0.29735704530E+02  0.10000000000E+01 0.  0.
    9000005    1    3    3    0    0  0.17616170219E+02  0.17175617337E+02  0.15403488454E+03  0.15599063093E+03  0.10000000000E+01 0.  0.
<mgrwt>
<rscale>  0 0.12500038E+03</rscale>
<asrwt>0</asrwt>
<pdfrwt beam="2">  1        4 0.37200928E-02 0.12500038E+03</pdfrwt>
<pdfrwt beam="1">  1       -4 0.24853191E-01 0.12500038E+03</pdfrwt>
<totfact> 0.92595502E+03</totfact>
</mgrwt>
</event>
<event>
 4    1  0.3184438E-002  0.1251964E+03  0.7818608E-02  0.1234763E+00
         -4   -1    0    0    0  501 -0.00000000000E+00  0.00000000000E+00  0.18815388089E+02  0.18858200576E+02  0.12700000000E+01 0.  1.
          4   -1    0    0  501    0  0.00000000000E+00 -0.00000000000E+00 -0.20798089125E+03  0.20798476873E+03  0.12700000000E+01 0.  1.
    9000005    1    1    2    0    0  0.37074387470E+02  0.49286985561E+02 -0.75252343270E+02  0.97301759078E+02  0.10000000000E+01 0.  0.
    9000005    1    1    2    0    0 -0.37074387470E+02 -0.49286985561E+02 -0.11391315989E+03  0.12954121023E+03  0.10000000000E+01 0.  0.
<mgrwt>
<rscale>  0 0.12519643E+03</rscale>
<asrwt>0</asrwt>
<pdfrwt beam="2">  1        4 0.32000650E-01 0.12519643E+03</pdfrwt>
<pdfrwt beam="1">  1       -4 0.28982668E-02 0.12519643E+03</pdfrwt>
<totfact> 0.85421703E+03</totfact>
</mgrwt>
</event>
<event>
 5    1  0.3184438E-002  0.1250077E+03  0.7818608E-02  0.1235057E+00
         -4   -1    0    0    0  501 -0.00000000000E+00  0.00000000000E+00  0.81364160167E+02  0.81374071176E+02  0.12700000000E+01 0.  1.
          4   -1    0    0  501    0  0.00000000000E+00 -0.00000000000E+00 -0.47994174344E+02  0.48010974484E+02  0.12700000000E+01 0.  1.
         25    2    1    2    0    0  0.00000000000E+00  0.00000000000E+00  0.33369985823E+02  0.12938504566E+03  0.12500773611E+03 0.  0.
    9000005    1    3    3    0    0 -0.37888420278E+02  0.42958576057E+02 -0.91854850585E+01  0.58020210132E+02  0.10000000000E+01 0.  0.
    9000005    1    3    3    0    0  0.37888420278E+02 -0.42958576057E+02  0.42555470882E+02  0.71364835528E+02  0.10000000000E+01 0.  0.
<mgrwt>
<rscale>  0 0.12500774E+03</rscale>
<asrwt>0</asrwt>
<pdfrwt beam="2">  1        4 0.73857739E-02 0.12500774E+03</pdfrwt>
<pdfrwt beam="1">  1       -4 0.12519618E-01 0.12500774E+03</pdfrwt>
<totfact> 0.10355872E+04</totfact>
</mgrwt>
</event>
<event>
 5    1  0.3184438E-002  0.1250043E+03  0.7818608E-02  0.1235063E+00
         -4   -1    0    0    0  501 -0.00000000000E+00  0.00000000000E+00  0.54903922248E+02  0.54918608670E+02  0.12700000000E+01 0.  1.
          4   -1    0    0  501    0  0.00000000000E+00 -0.00000000000E+00 -0.71122036785E+02  0.71133374842E+02  0.12700000000E+01 0.  1.
         25    2    1    2    0    0  0.00000000000E+00  0.00000000000E+00 -0.16218114536E+02  0.12605198351E+03  0.12500430116E+03 0.  0.
    9000005    1    3    3    0    0  0.18553314998E+01  0.47375510662E+02 -0.49164384408E+02  0.68308256892E+02  0.10000000000E+01 0.  0.
    9000005    1    3    3    0    0 -0.18553314998E+01 -0.47375510662E+02  0.32946269872E+02  0.57743726620E+02  0.10000000000E+01 0.  0.
<mgrwt>
<rscale>  0 0.12500430E+03</rscale>
<asrwt>0</asrwt>
<pdfrwt beam="2">  1        4 0.10943854E-01 0.12500430E+03</pdfrwt>
<pdfrwt beam="1">  1       -4 0.84487591E-02 0.12500430E+03</pdfrwt>
<totfact> 0.10428806E+04</totfact>
</mgrwt>
</event>
<event>
 5    1  0.3184438E-002  0.1250005E+03  0.7818608E-02  0.1235069E+00
         -4   -1    0    0    0  501 -0.00000000000E+00  0.00000000000E+00  0.10782471978E+03  0.10783219879E+03  0.12700000000E+01 0.  1.
          4   -1    0    0  501    0  0.00000000000E+00 -0.00000000000E+00 -0.36208183508E+02  0.36230449251E+02  0.12700000000E+01 0.  1.
         25    2    1    2    0    0  0.00000000000E+00  0.00000000000E+00  0.71616536269E+02  0.14406264804E+03  0.12500047317E+03 0.  0.
    9000005    1    3    3    0    0  0.39717034923E+02  0.38248980641E+02  0.19152158865E+01  0.55182383376E+02  0.10000000000E+01 0.  0.
    9000005    1    3    3    0    0 -0.39717034923E+02 -0.38248980641E+02  0.69701320383E+02  0.88880264661E+02  0.10000000000E+01 0.  0.
<mgrwt>
<rscale>  0 0.12500047E+03</rscale>
<asrwt>0</asrwt>
<pdfrwt beam="2">  1        4 0.55727779E-02 0.12500047E+03</pdfrwt>
<pdfrwt beam="1">  1       -4 0.16590706E-01 0.12500047E+03</pdfrwt>
<totfact> 0.10049961E+04</totfact>
</mgrwt>
</event>
<event>
 5    1  0.3184438E-002  0.1250035E+03  0.7818608E-02  0.1235064E+00
         -4   -1    0    0    0  501 -0.00000000000E+00  0.00000000000E+00  0.48377505441E+02  0.48394172507E+02  0.12700000000E+01 0. -1.
          4   -1    0    0  501    0  0.00000000000E+00 -0.00000000000E+00 -0.80714119795E+02  0.80724110613E+02  0.12700000000E+01 0. -1.
         25    2    1    2    0    0  0.00000000000E+00  0.00000000000E+00 -0.32336614354E+02  0.12911828312E+03  0.12500349758E+03 0.  0.
    9000005    1    3    3    0    0 -0.94240155905E+01 -0.53100517712E+02 -0.48782851631E+02  0.72727186556E+02  0.10000000000E+01 0.  0.
    9000005    1    3    3    0    0  0.94240155905E+01  0.53100517712E+02  0.16446237277E+02  0.56391096564E+02  0.10000000000E+01 0.  0.
<mgrwt>
<rscale>  0 0.12500350E+03</rscale>
<asrwt>0</asrwt>
<pdfrwt beam="2">  1        4 0.12419607E-01 0.12500350E+03</pdfrwt>
<pdfrwt beam="1">  1       -4 0.74447438E-02 0.12500350E+03</pdfrwt>
<totfact> 0.10362588E+04</totfact>
</mgrwt>
</event>
<event>
 5    1  0.3184438E-002  0.1249984E+03  0.7818608E-02  0.1235072E+00
         -4   -1    0    0    0  501 -0.00000000000E+00  0.00000000000E+00  0.10716487938E+02  0.10791478756E+02  0.12700000000E+01 0. -1.
          4   -1    0    0  501    0  0.00000000000E+00 -0.00000000000E+00 -0.36315188501E+03  0.36315410570E+03  0.12700000000E+01 0. -1.
         25    2    1    2    0    0  0.00000000000E+00  0.00000000000E+00 -0.35243539707E+03  0.37394558445E+03  0.12499836409E+03 0.  0.
    9000005    1    3    3    0    0  0.61638617317E+02  0.11012435073E+01 -0.20681639138E+03  0.21581137974E+03  0.10000000000E+01 0.  0.
    9000005    1    3    3    0    0 -0.61638617317E+02 -0.11012435073E+01 -0.14561900569E+03  0.15813420472E+03  0.10000000000E+01 0.  0.
<mgrwt>
<rscale>  0 0.12499836E+03</rscale>
<asrwt>0</asrwt>
<pdfrwt beam="2">  1        4 0.55875451E-01 0.12499836E+03</pdfrwt>
<pdfrwt beam="1">  1       -4 0.16546301E-02 0.12499836E+03</pdfrwt>
<totfact> 0.67170599E+03</totfact>
</mgrwt>
</event>
<event>
 5    1  0.3184438E-002  0.1249993E+03  0.7818608E-02  0.1235070E+00
         -4   -1    0    0    0  501 -0.00000000000E+00  0.00000000000E+00  0.18332063130E+02  0.18376001703E+02  0.12700000000E+01 0.  1.
          4   -1    0    0  501    0  0.00000000000E+00 -0.00000000000E+00 -0.21277953704E+03  0.21278332708E+03  0.12700000000E+01 0.  1.
         25    2    1    2    0    0  0.00000000000E+00  0.00000000000E+00 -0.19444747391E+03  0.23115932878E+03  0.12499926069E+03 0.  0.
    9000005    1    3    3    0    0 -0.47081152365E+02 -0.10124977133E+02 -0.17087207098E+03  0.17753144710E+03  0.10000000000E+01 0.  0.
    9000005    1    3    3    0    0  0.47081152365E+02  0.10124977133E+02 -0.23575402931E+02  0.53627881679E+02  0.10000000000E+01 0.  0.
<mgrwt>
<rscale>  0 0.12499926E+03</rscale>
<asrwt>0</asrwt>
<pdfrwt beam="2">  1        4 0.32738983E-01 0.12499926E+03</pdfrwt>
<pdfrwt beam="1">  1       -4 0.28239890E-02 0.12499926E+03</pdfrwt>
<totfact> 0.85133303E+03</totfact>
</mgrwt>
</event>
<event>
 5    1  0.3184438E-002  0.1249871E+03  0.7818608E-02  0.1235089E+00
          4   -1    0    0  501    0  0.00000000000E+00  0.00000000000E+00  0.46508590211E+03  0.46508763609E+03  0.12700000000E+01 0.  1.
         -4   -1    0    0    0  501 -0.00000000000E+00 -0.00000000000E+00 -0.83474730769E+01  0.84435304683E+01  0.12700000000E+01 0.  1.
         25    2    1    2    0    0  0.00000000000E+00  0.00000000000E+00  0.45673842903E+03  0.47353116656E+03  0.12498709191E+03 0.  0.
    9000005    1    3    3    0    0 -0.15079133139E+01  0.45360348049E+02  0.65651256634E+02  0.79818058579E+02  0.10000000000E+01 0.  0.
    9000005    1    3    3    0    0  0.15079133139E+01 -0.45360348049E+02  0.39108717240E+03  0.39371310798E+03  0.10000000000E+01 0.  0.
<mgrwt>
<rscale>  0 0.12498709E+03</rscale>
<asrwt>0</asrwt>
<pdfrwt beam="1">  1        4 0.71559224E-01 0.12498709E+03</pdfrwt>
<pdfrwt beam="2">  1       -4 0.12917486E-02 0.12498709E+03</pdfrwt>
<totfact> 0.57994602E+03</totfact>
</mgrwt>
</event>
<event>
 5    1  0.3184438E-002  0.1249950E+03  0.7818608E-02  0.1235077E+00
          4   -1    0    0  501    0  0.00000000000E+00  0.00000000000E+00  0.76124695319E+01  0.77176805047E+01  0.12700000000E+01 0. -1.
         -4   -1    0    0    0  501 -0.00000000000E+00 -0.00000000000E+00 -0.50947015731E+03  0.50947174023E+03  0.12700000000E+01 0. -1.
         25    2    1    2    0    0  0.00000000000E+00  0.00000000000E+00 -0.50185768778E+03  0.51718942073E+03  0.12499503244E+03 0.  0.
    9000005    1    3    3    0    0 -0.61890381313E+02 -0.60355460114E+01 -0.27646621305E+03  0.28337504137E+03  0.10000000000E+01 0.  0.
    9000005    1    3    3    0    0  0.61890381313E+02  0.60355460114E+01 -0.22539147473E+03  0.23381437936E+03  0.10000000000E+01 0.  0.
<mgrwt>
<rscale>  0 0.12499503E+03</rscale>
<asrwt>0</asrwt>
<pdfrwt beam="1">  1        4 0.11793645E-02 0.12499503E+03</pdfrwt>
<pdfrwt beam="2">  1       -4 0.78388213E-01 0.12499503E+03</pdfrwt>
<totfact> 0.54560883E+03</totfact>
</mgrwt>
</event>
<event>
 5    1  0.3184438E-002  0.1250005E+03  0.7818608E-02  0.1235068E+00
         -4   -1    0    0    0  501 -0.00000000000E+00  0.00000000000E+00  0.20980011766E+02  0.21018415585E+02  0.12700000000E+01 0.  1.
          4   -1    0    0  501    0  0.00000000000E+00 -0.00000000000E+00 -0.18597985072E+03  0.18598418689E+03  0.12700000000E+01 0.  1.
         25    2    1    2    0    0  0.00000000000E+00  0.00000000000E+00 -0.16499983896E+03  0.20700260248E+03  0.12500052231E+03 0.  0.
    9000005    1    3    3    0    0  0.14501351876E+02  0.56137599024E+02 -0.43890872058E+02  0.72726390537E+02  0.10000000000E+01 0.  0.
    9000005    1    3    3    0    0 -0.14501351876E+02 -0.56137599024E+02 -0.12110896690E+03  0.13427621194E+03  0.10000000000E+01 0.  0.
<mgrwt>
<rscale>  0 0.12500052E+03</rscale>
<asrwt>0</asrwt>
<pdfrwt beam="2">  1        4 0.28615571E-01 0.12500052E+03</pdfrwt>
<pdfrwt beam="1">  1       -4 0.32309819E-02 0.12500052E+03</pdfrwt>
<totfact> 0.88966708E+03</totfact>
</mgrwt>
</event>
<event>
 4    1  0.3184438E-002  0.1248987E+03  0.7818608E-02  0.1235228E+00
         -4   -1    0    0    0  501 -0.00000000000E+00  0.00000000000E+00  0.80578555083E+01  0.81573240338E+01  0.12700000000E+01 0.  1.
          4   -1    0    0  501    0  0.00000000000E+00 -0.00000000000E+00 -0.48092046928E+03  0.48092214617E+03  0.12700000000E+01 0.  1.
    9000005    1    1    2    0    0  0.56267854446E+02  0.79041130357E+01 -0.33781772990E+03  0.34256439552E+03  0.10000000000E+01 0.  0.
    9000005    1    1    2    0    0 -0.56267854446E+02 -0.79041130357E+01 -0.13504488387E+03  0.14651507468E+03  0.10000000000E+01 0.  0.
<mgrwt>
<rscale>  0 0.12489867E+03</rscale>
<asrwt>0</asrwt>
<pdfrwt beam="2">  1        4 0.73995523E-01 0.12489867E+03</pdfrwt>
<pdfrwt beam="1">  1       -4 0.12474509E-02 0.12489867E+03</pdfrwt>
<totfact> 0.56848360E+03</totfact>
</mgrwt>
</event>
<event>
 5    1  0.3184438E-002  0.1250007E+03  0.7818608E-02  0.1235068E+00
         -4   -1    0    0    0  501 -0.00000000000E+00  0.00000000000E+00  0.62803251933E+01  0.64074475834E+01  0.12700000000E+01 0.  1.
          4   -1    0    0  501    0  0.00000000000E+00 -0.00000000000E+00 -0.61562950364E+03  0.61563081360E+03  0.12700000000E+01 0.  1.
         25    2    1    2    0    0  0.00000000000E+00  0.00000000000E+00 -0.60934917845E+03  0.62203826118E+03  0.12500070840E+03 0.  0.
    9000005    1    3    3    0    0 -0.37167216230E+02 -0.46515108052E+02 -0.39912390252E+03  0.40354175348E+03  0.10000000000E+01 0.  0.
    9000005    1    3    3    0    0  0.37167216230E+02  0.46515108052E+02 -0.21022527593E+03  0.21849650770E+03  0.10000000000E+01 0.  0.
<mgrwt>
<rscale>  0 0.12500071E+03</rscale>
<asrwt>0</asrwt>
<pdfrwt beam="2">  1        4 0.94722064E-01 0.12500071E+03</pdfrwt>
<pdfrwt beam="1">  1       -4 0.97608377E-03 0.12500071E+03</pdfrwt>
<totfact> 0.47504680E+03</totfact>
</mgrwt>
</event>
<event>
 5    1  0.3184438E-002  0.1250007E+03  0.7818608E-02  0.1235068E+00
         -4   -1    0    0    0  501 -0.00000000000E+00  0.00000000000E+00  0.17175006755E+02  0.17221897602E+02  0.12700000000E+01 0. -1.
          4   -1    0    0  501    0  0.00000000000E+00 -0.00000000000E+00 -0.22708180557E+03  0.22708535691E+03  0.12700000000E+01 0. -1.
         25    2    1    2    0    0  0.00000000000E+00  0.00000000000E+00 -0.20990679882E+03  0.24430725451E+03  0.12500068166E+03 0.  0.
    9000005    1    3    3    0    0 -0.12738437344E+02  0.35598638636E+02 -0.77059082704E+01  0.38599376691E+02  0.10000000000E+01 0.  0.
    9000005    1    3    3    0    0  0.12738437344E+02 -0.35598638636E+02 -0.20220089054E+03  0.20570787782E+03  0.10000000000E+01 0.  0.
<mgrwt>
<rscale>  0 0.12500068E+03</rscale>
<asrwt>0</asrwt>
<pdfrwt beam="2">  1        4 0.34939540E-01 0.12500068E+03</pdfrwt>
<pdfrwt beam="1">  1       -4 0.26461891E-02 0.12500068E+03</pdfrwt>
<totfact> 0.83158769E+03</totfact>
</mgrwt>
</event>
<event>
 5    1  0.3184438E-002  0.1250208E+03  0.7818608E-02  0.1235037E+00
          4   -1    0    0  501    0  0.00000000000E+00  0.00000000000E+00  0.56219276854E+01  0.57635901051E+01  0.12700000000E+01 0. -1.
         -4   -1    0    0    0  501 -0.00000000000E+00 -0.00000000000E+00 -0.68626501254E+03  0.68626618767E+03  0.12700000000E+01 0. -1.
         25    2    1    2    0    0  0.00000000000E+00  0.00000000000E+00 -0.68064308485E+03  0.69202977777E+03  0.12502081572E+03 0.  0.
    9000005    1    3    3    0    0  0.40260022934E+02 -0.34771116215E+01 -0.60425755864E+03  0.60560808856E+03  0.10000000000E+01 0.  0.
    9000005    1    3    3    0    0 -0.40260022934E+02  0.34771116215E+01 -0.76385526212E+02  0.86421689214E+02  0.10000000000E+01 0.  0.
<mgrwt>
<rscale>  0 0.12502082E+03</rscale>
<asrwt>0</asrwt>
<pdfrwt beam="1">  1        4 0.87590000E-03 0.12502082E+03</pdfrwt>
<pdfrwt beam="2">  1       -4 0.10559015E+00 0.12502082E+03</pdfrwt>
<totfact> 0.43490988E+03</totfact>
</mgrwt>
</event>
<event>
 5    1  0.3184438E-002  0.1249988E+03  0.7818608E-02  0.1235071E+00
          4   -1    0    0  501    0  0.00000000000E+00  0.00000000000E+00  0.50402704969E+02  0.50418702564E+02  0.12700000000E+01 0. -1.
         -4   -1    0    0    0  501 -0.00000000000E+00 -0.00000000000E+00 -0.77465766701E+02  0.77476176406E+02  0.12700000000E+01 0. -1.
         25    2    1    2    0    0  0.00000000000E+00  0.00000000000E+00 -0.27063061731E+02  0.12789487897E+03  0.12499876302E+03 0.  0.
    9000005    1    3    3    0    0 -0.53871161777E+02 -0.79344930322E+01  0.17840150931E+02  0.57309067660E+02  0.10000000000E+01 0.  0.
    9000005    1    3    3    0    0  0.53871161777E+02  0.79344930322E+01 -0.44903212662E+02  0.70585811310E+02  0.10000000000E+01 0.  0.
<mgrwt>
<rscale>  0 0.12499876E+03</rscale>
<asrwt>0</asrwt>
<pdfrwt beam="1">  1        4 0.77562937E-02 0.12499876E+03</pdfrwt>
<pdfrwt beam="2">  1       -4 0.11919842E-01 0.12499876E+03</pdfrwt>
<totfact> 0.10390049E+04</totfact>
</mgrwt>
</event>
<event>
 5    1  0.3184438E-002  0.1250048E+03  0.7818608E-02  0.1235062E+00
         -4   -1    0    0    0  501 -0.00000000000E+00  0.00000000000E+00  0.21242140484E+02  0.21280071248E+02  0.12700000000E+01 0.  1.
          4   -1    0    0  501    0  0.00000000000E+00 -0.00000000000E+00 -0.18370136459E+03  0.18370575454E+03  0.12700000000E+01 0.  1.
         25    2    1    2    0    0  0.00000000000E+00  0.00000000000E+00 -0.16245922411E+03  0.20498582579E+03  0.12500475702E+03 0.  0.
    9000005    1    3    3    0    0  0.32400422395E+02  0.48067270801E+02 -0.42937086104E+02  0.72144599636E+02  0.10000000000E+01 0.  0.
    9000005    1    3    3    0    0 -0.32400422395E+02 -0.48067270801E+02 -0.11952213800E+03  0.13284122616E+03  0.10000000000E+01 0.  0.
<mgrwt>
<rscale>  0 0.12500476E+03</rscale>
<asrwt>0</asrwt>
<pdfrwt beam="2">  1        4 0.28265003E-01 0.12500476E+03</pdfrwt>
<pdfrwt beam="1">  1       -4 0.32712772E-02 0.12500476E+03</pdfrwt>
<totfact> 0.89291864E+03</totfact>
</mgrwt>
</event>
<event>
 5    1  0.3184438E-002  0.1250030E+03  0.7818608E-02  0.1235065E+00
          4   -1    0    0  501    0  0.00000000000E+00  0.00000000000E+00  0.27828450698E+02  0.27857414960E+02  0.12700000000E+01 0. -1.
         -4   -1    0    0    0  501 -0.00000000000E+00 -0.00000000000E+00 -0.14027081352E+03  0.14027656263E+03  0.12700000000E+01 0. -1.
         25    2    1    2    0    0  0.00000000000E+00  0.00000000000E+00 -0.11244236282E+03  0.16813397759E+03  0.12500299783E+03 0.  0.
    9000005    1    3    3    0    0  0.33417263273E+02  0.34659717444E+02 -0.26313909242E+01  0.48227935019E+02  0.10000000000E+01 0.  0.
    9000005    1    3    3    0    0 -0.33417263273E+02 -0.34659717444E+02 -0.10981097189E+03  0.11990604257E+03  0.10000000000E+01 0.  0.
<mgrwt>
<rscale>  0 0.12500300E+03</rscale>
<asrwt>0</asrwt>
<pdfrwt beam="1">  1        4 0.42839704E-02 0.12500300E+03</pdfrwt>
<pdfrwt beam="2">  1       -4 0.21582795E-01 0.12500300E+03</pdfrwt>
<totfact> 0.95790688E+03</totfact>
</mgrwt>
</event>
<event>
 5    1  0.3184438E-002  0.1249973E+03  0.7818608E-02  0.1235073E+00
         -4   -1    0    0    0  501 -0.00000000000E+00  0.00000000000E+00  0.30465676989E+02  0.30492136272E+02  0.12700000000E+01 0.  1.
          4   -1    0    0  501    0  0.00000000000E+00 -0.00000000000E+00 -0.12812731725E+03  0.12813361122E+03  0.12700000000E+01 0.  1.
         25    2    1    2    0    0  0.00000000000E+00  0.00000000000E+00 -0.97661640257E+02  0.15862574749E+03  0.12499732713E+03 0.  0.
    9000005    1    3    3    0    0  0.61449978823E+01 -0.40414116717E+01 -0.12758236659E+03  0.12779809965E+03  0.10000000000E+01 0.  0.
    9000005    1    3    3    0    0 -0.61449978823E+01  0.40414116717E+01  0.29920726337E+02  0.30827647848E+02  0.10000000000E+01 0.  0.
<mgrwt>
<rscale>  0 0.12499733E+03</rscale>
<asrwt>0</asrwt>
<pdfrwt beam="2">  1        4 0.19714414E-01 0.12499733E+03</pdfrwt>
<pdfrwt beam="1">  1       -4 0.46895468E-02 0.12499733E+03</pdfrwt>
<totfact> 0.97614251E+03</totfact>
</mgrwt>
</event>
<event>
 5    1  0.3184438E-002  0.1249912E+03  0.7818608E-02  0.1235083E+00
          4   -1    0    0  501    0  0.00000000000E+00  0.00000000000E+00  0.56221798238E+01  0.57638360466E+01  0.12700000000E+01 0.  1.
         -4   -1    0    0    0  501 -0.00000000000E+00 -0.00000000000E+00 -0.68590932533E+03  0.68591050107E+03  0.12700000000E+01 0.  1.
         25    2    1    2    0    0  0.00000000000E+00  0.00000000000E+00 -0.68028714550E+03  0.69167433711E+03  0.12499115281E+03 0.  0.
    9000005    1    3    3    0    0  0.59828481366E+02 -0.44386374402E+01 -0.43687383952E+03  0.44097494299E+03  0.10000000000E+01 0.  0.
    9000005    1    3    3    0    0 -0.59828481366E+02  0.44386374402E+01 -0.24341330598E+03  0.25069939412E+03  0.10000000000E+01 0.  0.
<mgrwt>
<rscale>  0 0.12499115E+03</rscale>
<asrwt>0</asrwt>
<pdfrwt beam="1">  1        4 0.87593836E-03 0.12499115E+03</pdfrwt>
<pdfrwt beam="2">  1       -4 0.10553543E+00 0.12499115E+03</pdfrwt>
<totfact> 0.43538298E+03</totfact>
</mgrwt>
</event>
<event>
 5    1  0.3184438E-002  0.1250005E+03  0.7818608E-02  0.1235069E+00
          4   -1    0    0  501    0  0.00000000000E+00  0.00000000000E+00  0.52660617916E+02  0.52675929790E+02  0.12700000000E+01 0. -1.
         -4   -1    0    0    0  501 -0.00000000000E+00 -0.00000000000E+00 -0.74146876588E+02  0.74157752176E+02  0.12700000000E+01 0. -1.
         25    2    1    2    0    0  0.00000000000E+00  0.00000000000E+00 -0.21486258672E+02  0.12683368197E+03  0.12500049428E+03 0.  0.
    9000005    1    3    3    0    0  0.44681628445E+02 -0.42773030117E+02 -0.17074286533E+01  0.61886148196E+02  0.10000000000E+01 0.  0.
    9000005    1    3    3    0    0 -0.44681628445E+02  0.42773030117E+02 -0.19778830019E+02  0.64947533770E+02  0.10000000000E+01 0.  0.
<mgrwt>
<rscale>  0 0.12500049E+03</rscale>
<asrwt>0</asrwt>
<pdfrwt beam="1">  1        4 0.81036479E-02 0.12500049E+03</pdfrwt>
<pdfrwt beam="2">  1       -4 0.11409226E-01 0.12500049E+03</pdfrwt>
<totfact> 0.10412645E+04</totfact>
</mgrwt>
</event>
<event>
 5    1  0.3184438E-002  0.1250004E+03  0.7818608E-02  0.1235069E+00
          4   -1    0    0  501    0  0.00000000000E+00  0.00000000000E+00  0.29842097523E+03  0.29842367761E+03  0.12700000000E+01 0. -1.
         -4   -1    0    0    0  501 -0.00000000000E+00 -0.00000000000E+00 -0.13056232866E+02  0.13117854880E+02  0.12700000000E+01 0. -1.
         25    2    1    2    0    0  0.00000000000E+00  0.00000000000E+00  0.28536474237E+03  0.31154153249E+03  0.12500036112E+03 0.  0.
    9000005    1    3    3    0    0  0.48443799676E+02  0.36580016947E+02  0.17968086771E+03  0.18966052195E+03  0.10000000000E+01 0.  0.
    9000005    1    3    3    0    0 -0.48443799676E+02 -0.36580016947E+02  0.10568387466E+03  0.12188101054E+03  0.10000000000E+01 0.  0.
<mgrwt>
<rscale>  0 0.12500036E+03</rscale>
<asrwt>0</asrwt>
<pdfrwt beam="1">  1        4 0.45915866E-01 0.12500036E+03</pdfrwt>
<pdfrwt beam="2">  1       -4 0.20135993E-02 0.12500036E+03</pdfrwt>
<totfact> 0.74172933E+03</totfact>
</mgrwt>
</event>
<event>
 5    1  0.3184438E-002  0.1250022E+03  0.7818608E-02  0.1235066E+00
          4   -1    0    0  501    0  0.00000000000E+00  0.00000000000E+00  0.13508669664E+03  0.13509266638E+03  0.12700000000E+01 0.  1.
         -4   -1    0    0    0  501 -0.00000000000E+00 -0.00000000000E+00 -0.28897074919E+02  0.28924969125E+02  0.12700000000E+01 0.  1.
         25    2    1    2    0    0  0.00000000000E+00  0.00000000000E+00  0.10618962172E+03  0.16401763551E+03  0.12500219596E+03 0.  0.
    9000005    1    3    3    0    0 -0.19984076811E+02  0.24892172984E+01 -0.24529228320E+02  0.31752835633E+02  0.10000000000E+01 0.  0.
    9000005    1    3    3    0    0  0.19984076811E+02 -0.24892172984E+01  0.13071885004E+03  0.13226479987E+03  0.10000000000E+01 0.  0.
<mgrwt>
<rscale>  0 0.12500220E+03</rscale>
<asrwt>0</asrwt>
<pdfrwt beam="1">  1        4 0.20785173E-01 0.12500220E+03</pdfrwt>
<pdfrwt beam="2">  1       -4 0.44483088E-02 0.12500220E+03</pdfrwt>
<totfact> 0.96568996E+03</totfact>
</mgrwt>
</event>
<event>
 5    1  0.3184438E-002  0.1250008E+03  0.7818608E-02  0.1235068E+00
         -4   -1    0    0    0  501 -0.00000000000E+00  0.00000000000E+00  0.75113756903E+02  0.75124492518E+02  0.12700000000E+01 0.  1.
          4   -1    0    0  501    0  0.00000000000E+00 -0.00000000000E+00 -0.51982889391E+02  0.51998400835E+02  0.12700000000E+01 0.  1.
         25    2    1    2    0    0  0.00000000000E+00  0.00000000000E+00  0.23130867512E+02  0.12712289335E+03  0.12500077193E+03 0.  0.
    9000005    1    3    3    0    0  0.15739858527E+02  0.21134005660E+02 -0.46061440850E+02  0.53075848320E+02  0.10000000000E+01 0.  0.
    9000005    1    3    3    0    0 -0.15739858527E+02 -0.21134005660E+02  0.69192308362E+02  0.74047045033E+02  0.10000000000E+01 0.  0.
<mgrwt>
<rscale>  0 0.12500077E+03</rscale>
<asrwt>0</asrwt>
<pdfrwt beam="2">  1        4 0.79993866E-02 0.12500077E+03</pdfrwt>
<pdfrwt beam="1">  1       -4 0.11557982E-01 0.12500077E+03</pdfrwt>
<totfact> 0.10406295E+04</totfact>
</mgrwt>
</event>
<event>
 5    1  0.3184438E-002  0.1249902E+03  0.7818608E-02  0.1235085E+00
         -4   -1    0    0    0  501 -0.00000000000E+00  0.00000000000E+00  0.99768838871E+02  0.99776921729E+02  0.12700000000E+01 0. -1.
          4   -1    0    0  501    0  0.00000000000E+00 -0.00000000000E+00 -0.39126918510E+02  0.39147524214E+02  0.12700000000E+01 0. -1.
         25    2    1    2    0    0  0.00000000000E+00  0.00000000000E+00  0.60641920361E+02  0.13892444594E+03  0.12499023632E+03 0.  0.
    9000005    1    3    3    0    0 -0.54514241474E+02 -0.13582578261E+02  0.60726674374E+02  0.82734623564E+02  0.10000000000E+01 0.  0.
    9000005    1    3    3    0    0  0.54514241474E+02  0.13582578261E+02 -0.84754013371E-01  0.56189822379E+02  0.10000000000E+01 0.  0.
<mgrwt>
<rscale>  0 0.12499024E+03</rscale>
<asrwt>0</asrwt>
<pdfrwt beam="2">  1        4 0.60217328E-02 0.12499024E+03</pdfrwt>
<pdfrwt beam="1">  1       -4 0.15351259E-01 0.12499024E+03</pdfrwt>
<totfact> 0.10158160E+04</totfact>
</mgrwt>
</event>
<event>
 5    1  0.3184438E-002  0.1250020E+03  0.7818608E-02  0.1235066E+00
         -4   -1    0    0    0  501 -0.00000000000E+00  0.00000000000E+00  0.21662269028E+03  0.21662641308E+03  0.12700000000E+01 0.  1.
          4   -1    0    0  501    0  0.00000000000E+00 -0.00000000000E+00 -0.18006840598E+02  0.18051570799E+02  0.12700000000E+01 0.  1.
         25    2    1    2    0    0  0.00000000000E+00  0.00000000000E+00  0.19861584968E+03  0.23467798388E+03  0.12500200147E+03 0.  0.
    9000005    1    3    3    0    0  0.51035747163E+02  0.29625386141E+02  0.13792314089E+03  0.15002034457E+03  0.10000000000E+01 0.  0.
    9000005    1    3    3    0    0 -0.51035747163E+02 -0.29625386141E+02  0.60692708789E+02  0.84657639305E+02  0.10000000000E+01 0.  0.
<mgrwt>
<rscale>  0 0.12500200E+03</rscale>
<asrwt>0</asrwt>
<pdfrwt beam="2">  1        4 0.27740104E-02 0.12500200E+03</pdfrwt>
<pdfrwt beam="1">  1       -4 0.33330294E-01 0.12500200E+03</pdfrwt>
<totfact> 0.84592650E+03</totfact>
</mgrwt>
</event>
<event>
 4    1  0.3184438E-002  0.1251521E+03  0.7818608E-02  0.1234832E+00
          4   -1    0    0  501    0  0.00000000000E+00  0.00000000000E+00  0.12236957248E+02  0.12302683557E+02  0.12700000000E+01 0.  1.
         -4   -1    0    0    0  501 -0.00000000000E+00 -0.00000000000E+00 -0.31907065357E+03  0.31907318106E+03  0.12700000000E+01 0.  1.
    9000005    1    1    2    0    0  0.19229999729E+02 -0.30264342163E+02 -0.28917978178E+03  0.29139606978E+03  0.10000000000E+01 0.  0.
    9000005    1    1    2    0    0 -0.19229999729E+02  0.30264342163E+02 -0.17653914548E+02  0.39979794834E+02  0.10000000000E+01 0.  0.
<mgrwt>
<rscale>  0 0.12515209E+03</rscale>
<asrwt>0</asrwt>
<pdfrwt beam="1">  1        4 0.18878593E-02 0.12515209E+03</pdfrwt>
<pdfrwt beam="2">  1       -4 0.49093037E-01 0.12515209E+03</pdfrwt>
<totfact> 0.71581784E+03</totfact>
</mgrwt>
</event>
<event>
 4    1  0.3184438E-002  0.1249021E+03  0.7818608E-02  0.1235222E+00
         -4   -1    0    0    0  501 -0.00000000000E+00  0.00000000000E+00  0.12163400745E+02  0.12229522382E+02  0.12700000000E+01 0. -1.
          4   -1    0    0  501    0  0.00000000000E+00 -0.00000000000E+00 -0.31970841130E+03  0.31971093375E+03  0.12700000000E+01 0. -1.
    9000005    1    1    2    0    0 -0.29468060811E+02 -0.28576254948E+02 -0.28719138477E+02  0.50107463213E+02  0.10000000000E+01 0.  0.
    9000005    1    1    2    0    0  0.29468060811E+02  0.28576254948E+02 -0.27882587208E+03  0.28183299292E+03  0.10000000000E+01 0.  0.
<mgrwt>
<rscale>  0 0.12490209E+03</rscale>
<asrwt>0</asrwt>
<pdfrwt beam="2">  1        4 0.49191183E-01 0.12490209E+03</pdfrwt>
<pdfrwt beam="1">  1       -4 0.18765730E-02 0.12490209E+03</pdfrwt>
<totfact> 0.71913973E+03</totfact>
</mgrwt>
</event>
<event>
 5    1  0.3184438E-002  0.1250020E+03  0.7818608E-02  0.1235066E+00
          4   -1    0    0  501    0  0.00000000000E+00  0.00000000000E+00  0.16406945083E+03  0.16407436605E+03  0.12700000000E+01 0.  1.
         -4   -1    0    0    0  501 -0.00000000000E+00 -0.00000000000E+00 -0.23787073527E+02  0.23820952268E+02  0.12700000000E+01 0.  1.
         25    2    1    2    0    0  0.00000000000E+00  0.00000000000E+00  0.14028237730E+03  0.18789531832E+03  0.12500202104E+03 0.  0.
    9000005    1    3    3    0    0 -0.44924870636E+02 -0.40914965778E+02  0.48198567790E+02  0.77565329647E+02  0.10000000000E+01 0.  0.
    9000005    1    3    3    0    0  0.44924870636E+02  0.40914965778E+02  0.92083809511E+02  0.11032998867E+03  0.10000000000E+01 0.  0.
<mgrwt>
<rscale>  0 0.12500202E+03</rscale>
<asrwt>0</asrwt>
<pdfrwt beam="1">  1        4 0.25244438E-01 0.12500202E+03</pdfrwt>
<pdfrwt beam="2">  1       -4 0.36625339E-02 0.12500202E+03</pdfrwt>
<totfact> 0.92210641E+03</totfact>
</mgrwt>
</event>
<event>
 5    1  0.3184438E-002  0.1249974E+03  0.7818608E-02  0.1235073E+00
         -4   -1    0    0    0  501 -0.00000000000E+00  0.00000000000E+00  0.33125131777E+03  0.33125375232E+03  0.12700000000E+01 0.  1.
          4   -1    0    0  501    0  0.00000000000E+00 -0.00000000000E+00 -0.11755232032E+02  0.11823636501E+02  0.12700000000E+01 0.  1.
         25    2    1    2    0    0  0.00000000000E+00  0.00000000000E+00  0.31949608574E+03  0.34307738882E+03  0.12499738364E+03 0.  0.
    9000005    1    3    3    0    0 -0.29255841381E+02  0.23329060170E+02  0.22378772246E+02  0.43611452057E+02  0.10000000000E+01 0.  0.
    9000005    1    3    3    0    0  0.29255841381E+02 -0.23329060170E+02  0.29711731349E+03  0.29946593676E+03  0.10000000000E+01 0.  0.
<mgrwt>
<rscale>  0 0.12499738E+03</rscale>
<asrwt>0</asrwt>
<pdfrwt beam="2">  1        4 0.18139467E-02 0.12499738E+03</pdfrwt>
<pdfrwt beam="1">  1       -4 0.50967181E-01 0.12499738E+03</pdfrwt>
<totfact> 0.70496990E+03</totfact>
</mgrwt>
</event>
<event>
 5    1  0.3184438E-002  0.1250007E+03  0.7818608E-02  0.1235068E+00
         -4   -1    0    0    0  501 -0.00000000000E+00  0.00000000000E+00  0.67996564920E+01  0.69172413873E+01  0.12700000000E+01 0.  1.
          4   -1    0    0  501    0  0.00000000000E+00 -0.00000000000E+00 -0.56944149122E+03  0.56944290743E+03  0.12700000000E+01 0.  1.
         25    2    1    2    0    0  0.00000000000E+00  0.00000000000E+00 -0.56264183473E+03  0.57636014882E+03  0.12500074783E+03 0.  0.
    9000005    1    3    3    0    0  0.52213517733E+02  0.33546267356E+02 -0.31510726052E+03  0.32116224734E+03  0.10000000000E+01 0.  0.
    9000005    1    3    3    0    0 -0.52213517733E+02 -0.33546267356E+02 -0.24753457421E+03  0.25519790148E+03  0.10000000000E+01 0.  0.
<mgrwt>
<rscale>  0 0.12500075E+03</rscale>
<asrwt>0</asrwt>
<pdfrwt beam="2">  1        4 0.87615500E-01 0.12500075E+03</pdfrwt>
<pdfrwt beam="1">  1       -4 0.10552554E-02 0.12500075E+03</pdfrwt>
<totfact> 0.50393843E+03</totfact>
</mgrwt>
</event>
<event>
 5    1  0.3184438E-002  0.1250076E+03  0.7818608E-02  0.1235057E+00
          4   -1    0    0  501    0  0.00000000000E+00  0.00000000000E+00  0.30665236160E+02  0.30691523402E+02  0.12700000000E+01 0. -1.
         -4   -1    0    0    0  501 -0.00000000000E+00 -0.00000000000E+00 -0.12731520057E+03  0.12732153469E+03  0.12700000000E+01 0. -1.
         25    2    1    2    0    0  0.00000000000E+00  0.00000000000E+00 -0.96649964407E+02  0.15801305809E+03  0.12500764340E+03 0.  0.
    9000005    1    3    3    0    0 -0.13235010900E+02  0.53415666065E+02 -0.10884829517E+02  0.56105956977E+02  0.10000000000E+01 0.  0.
    9000005    1    3    3    0    0  0.13235010900E+02 -0.53415666065E+02 -0.85765134890E+02  0.10190710111E+03  0.10000000000E+01 0.  0.
<mgrwt>
<rscale>  0 0.12500764E+03</rscale>
<asrwt>0</asrwt>
<pdfrwt beam="1">  1        4 0.47202380E-02 0.12500764E+03</pdfrwt>
<pdfrwt beam="2">  1       -4 0.19589463E-01 0.12500764E+03</pdfrwt>
<totfact> 0.97710433E+03</totfact>
</mgrwt>
</event>
<event>
 5    1  0.3184438E-002  0.1250013E+03  0.7818608E-02  0.1235067E+00
          4   -1    0    0  501    0  0.00000000000E+00  0.00000000000E+00  0.22543528000E+02  0.22579272678E+02  0.12700000000E+01 0.  1.
         -4   -1    0    0    0  501 -0.00000000000E+00 -0.00000000000E+00 -0.17310412284E+03  0.17310878154E+03  0.12700000000E+01 0.  1.
         25    2    1    2    0    0  0.00000000000E+00  0.00000000000E+00 -0.15056059484E+03  0.19568805422E+03  0.12500128737E+03 0.  0.
    9000005    1    3    3    0    0  0.41287717226E+02  0.18246969906E+02 -0.14293589468E+03  0.14989762337E+03  0.10000000000E+01 0.  0.
    9000005    1    3    3    0    0 -0.41287717226E+02 -0.18246969906E+02 -0.76247001660E+01  0.45790430847E+02  0.10000000000E+01 0.  0.
<mgrwt>
<rscale>  0 0.12500129E+03</rscale>
<asrwt>0</asrwt>
<pdfrwt beam="1">  1        4 0.34713431E-02 0.12500129E+03</pdfrwt>
<pdfrwt beam="2">  1       -4 0.26634511E-01 0.12500129E+03</pdfrwt>
<totfact> 0.90864304E+03</totfact>
</mgrwt>
</event>
<event>
 5    1  0.3184438E-002  0.1250005E+03  0.7818608E-02  0.1235069E+00
          4   -1    0    0  501    0  0.00000000000E+00  0.00000000000E+00  0.25519136731E+02  0.25550718963E+02  0.12700000000E+01 0. -1.
         -4   -1    0    0    0  501 -0.00000000000E+00 -0.00000000000E+00 -0.15294366634E+03  0.15294893910E+03  0.12700000000E+01 0. -1.
         25    2    1    2    0    0  0.00000000000E+00  0.00000000000E+00 -0.12742452961E+03  0.17849965807E+03  0.12500046874E+03 0.  0.
    9000005    1    3    3    0    0  0.56700994421E+02 -0.25942345622E+02 -0.57777720190E+02  0.85013369625E+02  0.10000000000E+01 0.  0.
    9000005    1    3    3    0    0 -0.56700994421E+02  0.25942345622E+02 -0.69646809417E+02  0.93486288442E+02  0.10000000000E+01 0.  0.
<mgrwt>
<rscale>  0 0.12500047E+03</rscale>
<asrwt>0</asrwt>
<pdfrwt beam="1">  1        4 0.39288561E-02 0.12500047E+03</pdfrwt>
<pdfrwt beam="2">  1       -4 0.23532629E-01 0.12500047E+03</pdfrwt>
<totfact> 0.93886782E+03</totfact>
</mgrwt>
</event>
<event>
 5    1  0.3184438E-002  0.1249965E+03  0.7818608E-02  0.1235075E+00
         -4   -1    0    0    0  501 -0.00000000000E+00  0.00000000000E+00  0.17717134946E+01  0.21798781404E+01  0.12700000000E+01 0.  1.
          4   -1    0    0  501    0  0.00000000000E+00 -0.00000000000E+00 -0.19765327281E+04  0.19765331361E+04  0.12700000000E+01 0.  1.
         25    2    1    2    0    0  0.00000000000E+00  0.00000000000E+00 -0.19747610146E+04  0.19787130143E+04  0.12499651182E+03 0.  0.
    9000005    1    3    3    0    0  0.41310541596E+02 -0.43925390175E+02 -0.72773173365E+03  0.73022631896E+03  0.10000000000E+01 0.  0.
    9000005    1    3    3    0    0 -0.41310541596E+02  0.43925390175E+02 -0.12470292810E+04  0.12484866953E+04  0.10000000000E+01 0.  0.
<mgrwt>
<rscale>  0 0.12499651E+03</rscale>
<asrwt>0</asrwt>
<pdfrwt beam="2">  1        4 0.30411180E+00 0.12499651E+03</pdfrwt>
<pdfrwt beam="1">  1       -4 0.30400155E-03 0.12499651E+03</pdfrwt>
<totfact> 0.10142592E+03</totfact>
</mgrwt>
</event>
<event>
 5    1  0.3184438E-002  0.1249967E+03  0.7818608E-02  0.1235075E+00
          4   -1    0    0  501    0  0.00000000000E+00  0.00000000000E+00  0.14635551863E+04  0.14635557373E+04  0.12700000000E+01 0.  1.
         -4   -1    0    0    0  501 -0.00000000000E+00 -0.00000000000E+00 -0.25172046219E+01  0.28194359558E+01  0.12700000000E+01 0.  1.
         25    2    1    2    0    0  0.00000000000E+00  0.00000000000E+00  0.14610379816E+04  0.14663751732E+04  0.12499665954E+03 0.  0.
    9000005    1    3    3    0    0 -0.52341387764E+02 -0.11562244608E+02  0.11073362120E+04  0.11086332995E+04  0.10000000000E+01 0.  0.
    9000005    1    3    3    0    0  0.52341387764E+02  0.11562244608E+02  0.35370176966E+03  0.35774187375E+03  0.10000000000E+01 0.  0.
<mgrwt>
<rscale>  0 0.12499666E+03</rscale>
<asrwt>0</asrwt>
<pdfrwt beam="1">  1        4 0.22518586E+00 0.12499666E+03</pdfrwt>
<pdfrwt beam="2">  1       -4 0.41055277E-03 0.12499666E+03</pdfrwt>
<totfact> 0.18601146E+03</totfact>
</mgrwt>
</event>
<event>
 5    1  0.3184438E-002  0.1250021E+03  0.7818608E-02  0.1235066E+00
         -4   -1    0    0    0  501 -0.00000000000E+00  0.00000000000E+00  0.53225917092E+01  0.54720090007E+01  0.12700000000E+01 0. -1.
          4   -1    0    0  501    0  0.00000000000E+00 -0.00000000000E+00 -0.72361622087E+03  0.72361733534E+03  0.12700000000E+01 0. -1.
         25    2    1    2    0    0  0.00000000000E+00  0.00000000000E+00 -0.71829362916E+03  0.72908934434E+03  0.12500213734E+03 0.  0.
    9000005    1    3    3    0    0  0.38166105791E+02 -0.23873367210E+01 -0.64743572804E+03  0.64856485640E+03  0.10000000000E+01 0.  0.
    9000005    1    3    3    0    0 -0.38166105791E+02  0.23873367210E+01 -0.70857901119E+02  0.80524487945E+02  0.10000000000E+01 0.  0.
<mgrwt>
<rscale>  0 0.12500214E+03</rscale>
<asrwt>0</asrwt>
<pdfrwt beam="2">  1        4 0.11133707E+00 0.12500214E+03</pdfrwt>
<pdfrwt beam="1">  1       -4 0.83044021E-03 0.12500214E+03</pdfrwt>
<totfact> 0.41592894E+03</totfact>
</mgrwt>
</event>
<event>
 5    1  0.3184438E-002  0.1249998E+03  0.7818608E-02  0.1235070E+00
         -4   -1    0    0    0  501 -0.00000000000E+00  0.00000000000E+00  0.31717225284E+03  0.31717479545E+03  0.12700000000E+01 0. -1.
          4   -1    0    0  501    0  0.00000000000E+00 -0.00000000000E+00 -0.12280477073E+02  0.12345971697E+02  0.12700000000E+01 0. -1.
         25    2    1    2    0    0  0.00000000000E+00  0.00000000000E+00  0.30489177576E+03  0.32952076715E+03  0.12499976421E+03 0.  0.
    9000005    1    3    3    0    0  0.38620850028E+01 -0.44962459446E+02  0.26640341529E+03  0.27020051469E+03  0.10000000000E+01 0.  0.
    9000005    1    3    3    0    0 -0.38620850028E+01  0.44962459446E+02  0.38488360476E+02  0.59320252461E+02  0.10000000000E+01 0.  0.
<mgrwt>
<rscale>  0 0.12499976E+03</rscale>
<asrwt>0</asrwt>
<pdfrwt beam="2">  1        4 0.18945378E-02 0.12499976E+03</pdfrwt>
<pdfrwt beam="1">  1       -4 0.48800966E-01 0.12499976E+03</pdfrwt>
<totfact> 0.72038258E+03</totfact>
</mgrwt>
</event>
<event>
 5    1  0.3184438E-002  0.1250003E+03  0.7818608E-02  0.1235069E+00
         -4   -1    0    0    0  501 -0.00000000000E+00  0.00000000000E+00  0.10393938829E+03  0.10394714684E+03  0.12700000000E+01 0.  1.
          4   -1    0    0  501    0  0.00000000000E+00 -0.00000000000E+00 -0.37562263597E+02  0.37583727151E+02  0.12700000000E+01 0.  1.
         25    2    1    2    0    0  0.00000000000E+00  0.00000000000E+00  0.66377124688E+02  0.14153087400E+03  0.12500026245E+03 0.  0.
    9000005    1    3    3    0    0 -0.25123279656E+02 -0.23953697122E+02 -0.25647945030E+02  0.43171470565E+02  0.10000000000E+01 0.  0.
    9000005    1    3    3    0    0  0.25123279656E+02  0.23953697122E+02  0.92025069719E+02  0.98359403430E+02  0.10000000000E+01 0.  0.
<mgrwt>
<rscale>  0 0.12500026E+03</rscale>
<asrwt>0</asrwt>
<pdfrwt beam="2">  1        4 0.57810576E-02 0.12500026E+03</pdfrwt>
<pdfrwt beam="1">  1       -4 0.15992923E-01 0.12500026E+03</pdfrwt>
<totfact> 0.10101896E+04</totfact>
</mgrwt>
</event>
<event>
 5    1  0.3184438E-002  0.1250018E+03  0.7818608E-02  0.1235066E+00
          4   -1    0    0  501    0  0.00000000000E+00  0.00000000000E+00  0.73947285422E+02  0.73958190360E+02  0.12700000000E+01 0.  1.
         -4   -1    0    0    0  501 -0.00000000000E+00 -0.00000000000E+00 -0.52803904922E+02  0.52819175259E+02  0.12700000000E+01 0.  1.
         25    2    1    2    0    0  0.00000000000E+00  0.00000000000E+00  0.21143380500E+02  0.12677736562E+03  0.12500183156E+03 0.  0.
    9000005    1    3    3    0    0 -0.41228865310E+02 -0.18419280465E+02  0.54385719560E+02  0.70695797044E+02  0.10000000000E+01 0.  0.
    9000005    1    3    3    0    0  0.41228865310E+02  0.18419280465E+02 -0.33242339060E+02  0.56081568575E+02  0.10000000000E+01 0.  0.
<mgrwt>
<rscale>  0 0.12500183E+03</rscale>
<asrwt>0</asrwt>
<pdfrwt beam="1">  1        4 0.11378519E-01 0.12500183E+03</pdfrwt>
<pdfrwt beam="2">  1       -4 0.81256912E-02 0.12500183E+03</pdfrwt>
<totfact> 0.10413556E+04</totfact>
</mgrwt>
</event>
<event>
 5    1  0.3184438E-002  0.1250039E+03  0.7818608E-02  0.1235063E+00
         -4   -1    0    0    0  501 -0.00000000000E+00  0.00000000000E+00  0.31132300534E+02  0.31158193730E+02  0.12700000000E+01 0.  1.
          4   -1    0    0  501    0  0.00000000000E+00 -0.00000000000E+00 -0.12539904867E+03  0.12540547957E+03  0.12700000000E+01 0.  1.
         25    2    1    2    0    0  0.00000000000E+00  0.00000000000E+00 -0.94266748136E+02  0.15656367330E+03  0.12500385592E+03 0.  0.
    9000005    1    3    3    0    0  0.19095432087E+02  0.84622609506E+01 -0.12090427993E+03  0.12269918619E+03  0.10000000000E+01 0.  0.
    9000005    1    3    3    0    0 -0.19095432087E+02 -0.84622609506E+01  0.26637531796E+02  0.33864487109E+02  0.10000000000E+01 0.  0.
<mgrwt>
<rscale>  0 0.12500386E+03</rscale>
<asrwt>0</asrwt>
<pdfrwt beam="2">  1        4 0.19294648E-01 0.12500386E+03</pdfrwt>
<pdfrwt beam="1">  1       -4 0.47920712E-02 0.12500386E+03</pdfrwt>
<totfact> 0.98000905E+03</totfact>
</mgrwt>
</event>
<event>
 5    1  0.3184438E-002  0.1250008E+03  0.7818608E-02  0.1235068E+00
          4   -1    0    0  501    0  0.00000000000E+00  0.00000000000E+00  0.69864813462E+02  0.69876355515E+02  0.12700000000E+01 0.  1.
         -4   -1    0    0    0  501 -0.00000000000E+00 -0.00000000000E+00 -0.55888884482E+02  0.55903312144E+02  0.12700000000E+01 0.  1.
         25    2    1    2    0    0  0.00000000000E+00  0.00000000000E+00  0.13975928980E+02  0.12577966766E+03  0.12500079282E+03 0.  0.
    9000005    1    3    3    0    0  0.38546253048E+02 -0.36371277886E+02 -0.26333568912E+02  0.59187332519E+02  0.10000000000E+01 0.  0.
    9000005    1    3    3    0    0 -0.38546253048E+02  0.36371277886E+02  0.40309497892E+02  0.66592335140E+02  0.10000000000E+01 0.  0.
<mgrwt>
<rscale>  0 0.12500079E+03</rscale>
<asrwt>0</asrwt>
<pdfrwt beam="1">  1        4 0.10750431E-01 0.12500079E+03</pdfrwt>
<pdfrwt beam="2">  1       -4 0.86002876E-02 0.12500079E+03</pdfrwt>
<totfact> 0.10435605E+04</totfact>
</mgrwt>
</event>
<event>
 4    1  0.3184438E-002  0.1251220E+03  0.7818608E-02  0.1234879E+00
          4   -1    0    0  501    0  0.00000000000E+00  0.00000000000E+00  0.56050058554E+02  0.56064444739E+02  0.12700000000E+01 0.  1.
         -4   -1    0    0    0  501 -0.00000000000E+00 -0.00000000000E+00 -0.69799145984E+02  0.69810698894E+02  0.12700000000E+01 0.  1.
    9000005    1    1    2    0    0  0.68095101361E+01  0.19424615216E+02  0.52550407681E+02  0.56446704528E+02  0.10000000000E+01 0.  0.
    9000005    1    1    2    0    0 -0.68095101361E+01 -0.19424615216E+02 -0.66299495111E+02  0.69428439105E+02  0.10000000000E+01 0.  0.
<mgrwt>
<rscale>  0 0.12512200E+03</rscale>
<asrwt>0</asrwt>
<pdfrwt beam="1">  1        4 0.86250812E-02 0.12512200E+03</pdfrwt>
<pdfrwt beam="2">  1       -4 0.10740325E-01 0.12512200E+03</pdfrwt>
<totfact> 0.10405026E+04</totfact>
</mgrwt>
</event>
<event>
 5    1  0.3184438E-002  0.1250006E+03  0.7818608E-02  0.1235068E+00
          4   -1    0    0  501    0  0.00000000000E+00  0.00000000000E+00  0.60388403917E+02  0.60401756825E+02  0.12700000000E+01 0.  1.
         -4   -1    0    0    0  501 -0.00000000000E+00 -0.00000000000E+00 -0.64659287259E+02  0.64671758356E+02  0.12700000000E+01 0.  1.
         25    2    1    2    0    0  0.00000000000E+00  0.00000000000E+00 -0.42708833425E+01  0.12507351518E+03  0.12500057502E+03 0.  0.
    9000005    1    3    3    0    0  0.44165329134E+02 -0.28188914498E+02  0.31944596613E+02  0.61373027063E+02  0.10000000000E+01 0.  0.
    9000005    1    3    3    0    0 -0.44165329134E+02  0.28188914498E+02 -0.36215479956E+02  0.63700488118E+02  0.10000000000E+01 0.  0.
<mgrwt>
<rscale>  0 0.12500058E+03</rscale>
<asrwt>0</asrwt>
<pdfrwt beam="1">  1        4 0.92925102E-02 0.12500058E+03</pdfrwt>
<pdfrwt beam="2">  1       -4 0.99495691E-02 0.12500058E+03</pdfrwt>
<totfact> 0.10451130E+04</totfact>
</mgrwt>
</event>
<event>
 5    1  0.3184438E-002  0.1250014E+03  0.7818608E-02  0.1235067E+00
         -4   -1    0    0    0  501 -0.00000000000E+00  0.00000000000E+00  0.24071583318E+02  0.24105062196E+02  0.12700000000E+01 0. -1.
          4   -1    0    0  501    0  0.00000000000E+00 -0.00000000000E+00 -0.16213136222E+03  0.16213633619E+03  0.12700000000E+01 0. -1.
         25    2    1    2    0    0  0.00000000000E+00  0.00000000000E+00 -0.13805977890E+03  0.18624139839E+03  0.12500142369E+03 0.  0.
    9000005    1    3    3    0    0  0.47157080983E+02 -0.30466683063E+02 -0.10992335079E+03  0.12343480916E+03  0.10000000000E+01 0.  0.
    9000005    1    3    3    0    0 -0.47157080983E+02  0.30466683063E+02 -0.28136428108E+02  0.62806589228E+02  0.10000000000E+01 0.  0.
<mgrwt>
<rscale>  0 0.12500142E+03</rscale>
<asrwt>0</asrwt>
<pdfrwt beam="2">  1        4 0.24946244E-01 0.12500142E+03</pdfrwt>
<pdfrwt beam="1">  1       -4 0.37062785E-02 0.12500142E+03</pdfrwt>
<totfact> 0.92502492E+03</totfact>
</mgrwt>
</event>
<event>
 5    1  0.3184438E-002  0.1250128E+03  0.7818608E-02  0.1235049E+00
          4   -1    0    0  501    0  0.00000000000E+00  0.00000000000E+00  0.23164763684E+02  0.23199551214E+02  0.12700000000E+01 0. -1.
         -4   -1    0    0    0  501 -0.00000000000E+00 -0.00000000000E+00 -0.16849974846E+03  0.16850453445E+03  0.12700000000E+01 0. -1.
         25    2    1    2    0    0  0.00000000000E+00  0.00000000000E+00 -0.14533498478E+03  0.19170408567E+03  0.12501279399E+03 0.  0.
    9000005    1    3    3    0    0 -0.34227599345E+02  0.15352668000E+02 -0.14932313108E+03  0.15396632894E+03  0.10000000000E+01 0.  0.
    9000005    1    3    3    0    0  0.34227599345E+02 -0.15352668000E+02  0.39881463058E+01  0.37737756724E+02  0.10000000000E+01 0.  0.
<mgrwt>
<rscale>  0 0.12501279E+03</rscale>
<asrwt>0</asrwt>
<pdfrwt beam="1">  1        4 0.35668540E-02 0.12501279E+03</pdfrwt>
<pdfrwt beam="2">  1       -4 0.25926082E-01 0.12501279E+03</pdfrwt>
<totfact> 0.91525425E+03</totfact>
</mgrwt>
</event>
<event>
 5    1  0.3184438E-002  0.1250025E+03  0.7818608E-02  0.1235065E+00
         -4   -1    0    0    0  501 -0.00000000000E+00  0.00000000000E+00  0.14937530599E+03  0.14938070471E+03  0.12700000000E+01 0. -1.
          4   -1    0    0  501    0  0.00000000000E+00 -0.00000000000E+00 -0.26130332921E+02  0.26161177316E+02  0.12700000000E+01 0. -1.
         25    2    1    2    0    0  0.00000000000E+00  0.00000000000E+00  0.12324497307E+03  0.17554188202E+03  0.12500251581E+03 0.  0.
    9000005    1    3    3    0    0  0.12166636564E+02 -0.46080993129E+02  0.11838710094E+03  0.12762441240E+03  0.10000000000E+01 0.  0.
    9000005    1    3    3    0    0 -0.12166636564E+02  0.46080993129E+02  0.48578721278E+01  0.47917469619E+02  0.10000000000E+01 0.  0.
<mgrwt>
<rscale>  0 0.12500252E+03</rscale>
<asrwt>0</asrwt>
<pdfrwt beam="2">  1        4 0.40228391E-02 0.12500252E+03</pdfrwt>
<pdfrwt beam="1">  1       -4 0.22983605E-01 0.12500252E+03</pdfrwt>
<totfact> 0.94420360E+03</totfact>
</mgrwt>
</event>
<event>
 5    1  0.3184438E-002  0.1249998E+03  0.7818608E-02  0.1235070E+00
         -4   -1    0    0    0  501 -0.00000000000E+00  0.00000000000E+00  0.28276779591E+02  0.28305285091E+02  0.12700000000E+01 0. -1.
          4   -1    0    0  501    0  0.00000000000E+00 -0.00000000000E+00 -0.13804202305E+03  0.13804786499E+03  0.12700000000E+01 0. -1.
         25    2    1    2    0    0  0.00000000000E+00  0.00000000000E+00 -0.10976524346E+03  0.16635315008E+03  0.12499984748E+03 0.  0.
    9000005    1    3    3    0    0  0.44367198866E+02  0.31982208986E+02 -0.14650020062E+02  0.56629789993E+02  0.10000000000E+01 0.  0.
    9000005    1    3    3    0    0 -0.44367198866E+02 -0.31982208986E+02 -0.95115223401E+02  0.10972336009E+03  0.10000000000E+01 0.  0.
<mgrwt>
<rscale>  0 0.12499985E+03</rscale>
<asrwt>0</asrwt>
<pdfrwt beam="2">  1        4 0.21239876E-01 0.12499985E+03</pdfrwt>
<pdfrwt beam="1">  1       -4 0.43529160E-02 0.12499985E+03</pdfrwt>
<totfact> 0.96132069E+03</totfact>
</mgrwt>
</event>
<event>
 5    1  0.3184438E-002  0.1250005E+03  0.7818608E-02  0.1235069E+00
          4   -1    0    0  501    0  0.00000000000E+00  0.00000000000E+00  0.51108072634E+03  0.51108230427E+03  0.12700000000E+01 0. -1.
         -4   -1    0    0    0  501 -0.00000000000E+00 -0.00000000000E+00 -0.75888213879E+01  0.76943557273E+01  0.12700000000E+01 0. -1.
         25    2    1    2    0    0  0.00000000000E+00  0.00000000000E+00  0.50349190495E+03  0.51877666000E+03  0.12500049841E+03 0.  0.
    9000005    1    3    3    0    0 -0.51847603418E+02 -0.34121881556E+02  0.22158787754E+03  0.23011880465E+03  0.10000000000E+01 0.  0.
    9000005    1    3    3    0    0  0.51847603418E+02  0.34121881556E+02  0.28190402741E+03  0.28865785535E+03  0.10000000000E+01 0.  0.
<mgrwt>
<rscale>  0 0.12500050E+03</rscale>
<asrwt>0</asrwt>
<pdfrwt beam="1">  1        4 0.78636058E-01 0.12500050E+03</pdfrwt>
<pdfrwt beam="2">  1       -4 0.11757502E-02 0.12500050E+03</pdfrwt>
<totfact> 0.54435797E+03</totfact>
</mgrwt>
</event>
<event>
 5    1  0.3184438E-002  0.1249982E+03  0.7818608E-02  0.1235072E+00
         -4   -1    0    0    0  501 -0.00000000000E+00  0.00000000000E+00  0.23551190880E+03  0.23551533302E+03  0.12700000000E+01 0.  1.
          4   -1    0    0  501    0  0.00000000000E+00 -0.00000000000E+00 -0.16557862242E+02  0.16606495778E+02  0.12700000000E+01 0.  1.
         25    2    1    2    0    0  0.00000000000E+00  0.00000000000E+00  0.21895404656E+03  0.25212182880E+03  0.12499816819E+03 0.  0.
    9000005    1    3    3    0    0 -0.49558008278E+02 -0.70702894835E+01  0.18492350469E+03  0.19158206536E+03  0.10000000000E+01 0.  0.
    9000005    1    3    3    0    0  0.49558008278E+02  0.70702894835E+01  0.34030541865E+02  0.60539763441E+02  0.10000000000E+01 0.  0.
<mgrwt>
<rscale>  0 0.12499817E+03</rscale>
<asrwt>0</asrwt>
<pdfrwt beam="2">  1        4 0.25513681E-02 0.12499817E+03</pdfrwt>
<pdfrwt beam="1">  1       -4 0.36236603E-01 0.12499817E+03</pdfrwt>
<totfact> 0.82027870E+03</totfact>
</mgrwt>
</event>
<event>
 5    1  0.3184438E-002  0.1249946E+03  0.7818608E-02  0.1235078E+00
          4   -1    0    0  501    0  0.00000000000E+00  0.00000000000E+00  0.27462494732E+02  0.27491844552E+02  0.12700000000E+01 0. -1.
         -4   -1    0    0    0  501 -0.00000000000E+00 -0.00000000000E+00 -0.14211895421E+03  0.14212462857E+03  0.12700000000E+01 0. -1.
         25    2    1    2    0    0  0.00000000000E+00  0.00000000000E+00 -0.11465645948E+03  0.16961647312E+03  0.12499457690E+03 0.  0.
    9000005    1    3    3    0    0  0.51659457522E+02  0.16224899302E+02 -0.99655988958E+02  0.11342073463E+03  0.10000000000E+01 0.  0.
    9000005    1    3    3    0    0 -0.51659457522E+02 -0.16224899302E+02 -0.15000470523E+02  0.56195738493E+02  0.10000000000E+01 0.  0.
<mgrwt>
<rscale>  0 0.12499458E+03</rscale>
<asrwt>0</asrwt>
<pdfrwt beam="1">  1        4 0.42276934E-02 0.12499458E+03</pdfrwt>
<pdfrwt beam="2">  1       -4 0.21867148E-01 0.12499458E+03</pdfrwt>
<totfact> 0.95531797E+03</totfact>
</mgrwt>
</event>
<event>
 5    1  0.3184438E-002  0.1249979E+03  0.7818608E-02  0.1235073E+00
         -4   -1    0    0    0  501 -0.00000000000E+00  0.00000000000E+00  0.15929323263E+04  0.15929328326E+04  0.12700000000E+01 0.  1.
          4   -1    0    0  501    0  0.00000000000E+00 -0.00000000000E+00 -0.22871780312E+01  0.26161199029E+01  0.12700000000E+01 0.  1.
         25    2    1    2    0    0  0.00000000000E+00  0.00000000000E+00  0.15906451483E+04  0.15955489525E+04  0.12499788806E+03 0.  0.
    9000005    1    3    3    0    0 -0.55248804125E+02  0.17817703389E+02  0.50001645554E+03  0.50337595961E+03  0.10000000000E+01 0.  0.
    9000005    1    3    3    0    0  0.55248804125E+02 -0.17817703389E+02  0.10906286927E+04  0.10921729929E+04  0.10000000000E+01 0.  0.
<mgrwt>
<rscale>  0 0.12499789E+03</rscale>
<asrwt>0</asrwt>
<pdfrwt beam="2">  1        4 0.37721784E-03 0.12499789E+03</pdfrwt>
<pdfrwt beam="1">  1       -4 0.24509047E+00 0.12499789E+03</pdfrwt>
<totfact> 0.16127566E+03</totfact>
</mgrwt>
</event>
<event>
 5    1  0.3184438E-002  0.1250005E+03  0.7818608E-02  0.1235068E+00
          4   -1    0    0  501    0  0.00000000000E+00  0.00000000000E+00  0.14901003142E+03  0.14901544337E+03  0.12700000000E+01 0. -1.
         -4   -1    0    0    0  501 -0.00000000000E+00 -0.00000000000E+00 -0.26193616809E+02  0.26224386771E+02  0.12700000000E+01 0. -1.
         25    2    1    2    0    0  0.00000000000E+00  0.00000000000E+00  0.12281641461E+03  0.17523983014E+03  0.12500050548E+03 0.  0.
    9000005    1    3    3    0    0  0.52452745579E+02 -0.17758918682E+02  0.10200591944E+03  0.11607272424E+03  0.10000000000E+01 0.  0.
    9000005    1    3    3    0    0 -0.52452745579E+02  0.17758918682E+02  0.20810495164E+02  0.59167105899E+02  0.10000000000E+01 0.  0.
<mgrwt>
<rscale>  0 0.12500051E+03</rscale>
<asrwt>0</asrwt>
<pdfrwt beam="1">  1        4 0.22927404E-01 0.12500051E+03</pdfrwt>
<pdfrwt beam="2">  1       -4 0.40325704E-02 0.12500051E+03</pdfrwt>
<totfact> 0.94479863E+03</totfact>
</mgrwt>
</event>
<event>
 5    1  0.3184438E-002  0.1250048E+03  0.7818608E-02  0.1235062E+00
          4   -1    0    0  501    0  0.00000000000E+00  0.00000000000E+00  0.38278637973E+02  0.38299700065E+02  0.12700000000E+01 0.  1.
         -4   -1    0    0    0  501 -0.00000000000E+00 -0.00000000000E+00 -0.10200252328E+03  0.10201042915E+03  0.12700000000E+01 0.  1.
         25    2    1    2    0    0  0.00000000000E+00  0.00000000000E+00 -0.63723885302E+02  0.14031012921E+03  0.12500479511E+03 0.  0.
    9000005    1    3    3    0    0 -0.49412327646E+02 -0.10343306904E+02 -0.73209540935E+02  0.88933677564E+02  0.10000000000E+01 0.  0.
    9000005    1    3    3    0    0  0.49412327646E+02  0.10343306904E+02  0.94856556330E+01  0.51376451647E+02  0.10000000000E+01 0.  0.
<mgrwt>
<rscale>  0 0.12500480E+03</rscale>
<asrwt>0</asrwt>
<pdfrwt beam="1">  1        4 0.58912496E-02 0.12500480E+03</pdfrwt>
<pdfrwt beam="2">  1       -4 0.15694924E-01 0.12500480E+03</pdfrwt>
<totfact> 0.10126068E+04</totfact>
</mgrwt>
</event>
<event>
 5    1  0.3184438E-002  0.1250013E+03  0.7818608E-02  0.1235067E+00
          4   -1    0    0  501    0  0.00000000000E+00  0.00000000000E+00  0.16116847311E+02  0.16166807577E+02  0.12700000000E+01 0.  1.
         -4   -1    0    0    0  501 -0.00000000000E+00 -0.00000000000E+00 -0.24194883341E+03  0.24195216653E+03  0.12700000000E+01 0.  1.
         25    2    1    2    0    0  0.00000000000E+00  0.00000000000E+00 -0.22583198610E+03  0.25811897410E+03  0.12500127539E+03 0.  0.
    9000005    1    3    3    0    0 -0.39700452310E+02 -0.94603387790E+01 -0.21063993396E+03  0.21455956213E+03  0.10000000000E+01 0.  0.
    9000005    1    3    3    0    0  0.39700452310E+02  0.94603387790E+01 -0.15192052140E+02  0.43559411976E+02  0.10000000000E+01 0.  0.
<mgrwt>
<rscale>  0 0.12500128E+03</rscale>
<asrwt>0</asrwt>
<pdfrwt beam="1">  1        4 0.24836146E-02 0.12500128E+03</pdfrwt>
<pdfrwt beam="2">  1       -4 0.37226994E-01 0.12500128E+03</pdfrwt>
<totfact> 0.81168459E+03</totfact>
</mgrwt>
</event>
<event>
 5    1  0.3184438E-002  0.1250002E+03  0.7818608E-02  0.1235069E+00
          4   -1    0    0  501    0  0.00000000000E+00  0.00000000000E+00  0.43340191482E+03  0.43340377556E+03  0.12700000000E+01 0. -1.
         -4   -1    0    0    0  501 -0.00000000000E+00 -0.00000000000E+00 -0.89664022482E+01  0.90558969339E+01  0.12700000000E+01 0. -1.
         25    2    1    2    0    0  0.00000000000E+00  0.00000000000E+00  0.42443551257E+03  0.44245967249E+03  0.12500022980E+03 0.  0.
    9000005    1    3    3    0    0  0.20484404339E+02 -0.57759350395E+02  0.25549897005E+03  0.26274793448E+03  0.10000000000E+01 0.  0.
    9000005    1    3    3    0    0 -0.20484404339E+02  0.57759350395E+02  0.16893654252E+03  0.17971173801E+03  0.10000000000E+01 0.  0.
<mgrwt>
<rscale>  0 0.12500023E+03</rscale>
<asrwt>0</asrwt>
<pdfrwt beam="1">  1        4 0.66684242E-01 0.12500023E+03</pdfrwt>
<pdfrwt beam="2">  1       -4 0.13864739E-02 0.12500023E+03</pdfrwt>
<totfact> 0.60622302E+03</totfact>
</mgrwt>
</event>
<event>
 5    1  0.3184438E-002  0.1250083E+03  0.7818608E-02  0.1235056E+00
         -4   -1    0    0    0  501 -0.00000000000E+00  0.00000000000E+00  0.25571724662E+02  0.25603242025E+02  0.12700000000E+01 0. -1.
          4   -1    0    0  501    0  0.00000000000E+00 -0.00000000000E+00 -0.15264871282E+03  0.15265399578E+03  0.12700000000E+01 0. -1.
         25    2    1    2    0    0  0.00000000000E+00  0.00000000000E+00 -0.12707698816E+03  0.17825723780E+03  0.12500832736E+03 0.  0.
    9000005    1    3    3    0    0  0.17617017486E+02  0.58021572988E+02 -0.41964083395E+02  0.73748535797E+02  0.10000000000E+01 0.  0.
    9000005    1    3    3    0    0 -0.17617017486E+02 -0.58021572988E+02 -0.85112904767E+02  0.10450870201E+03  0.10000000000E+01 0.  0.
<mgrwt>
<rscale>  0 0.12500833E+03</rscale>
<asrwt>0</asrwt>
<pdfrwt beam="2">  1        4 0.23487248E-01 0.12500833E+03</pdfrwt>
<pdfrwt beam="1">  1       -4 0.39369424E-02 0.12500833E+03</pdfrwt>
<totfact> 0.93914111E+03</totfact>
</mgrwt>
</event>
<event>
 5    1  0.3184438E-002  0.1250028E+03  0.7818608E-02  0.1235065E+00
         -4   -1    0    0    0  501 -0.00000000000E+00  0.00000000000E+00  0.28924797041E+02  0.28952664538E+02  0.12700000000E+01 0.  1.
          4   -1    0    0  501    0  0.00000000000E+00 -0.00000000000E+00 -0.13495855783E+03  0.13496453324E+03  0.12700000000E+01 0.  1.
         25    2    1    2    0    0  0.00000000000E+00  0.00000000000E+00 -0.10603376079E+03  0.16391719777E+03  0.12500275717E+03 0.  0.
    9000005    1    3    3    0    0  0.60261794130E+02 -0.12117566062E+02 -0.38233186015E+02  0.72395412505E+02  0.10000000000E+01 0.  0.
    9000005    1    3    3    0    0 -0.60261794130E+02  0.12117566062E+02 -0.67800574776E+02  0.91521785270E+02  0.10000000000E+01 0.  0.
<mgrwt>
<rscale>  0 0.12500276E+03</rscale>
<asrwt>0</asrwt>
<pdfrwt beam="2">  1        4 0.20765458E-01 0.12500276E+03</pdfrwt>
<pdfrwt beam="1">  1       -4 0.44525721E-02 0.12500276E+03</pdfrwt>
<totfact> 0.96586868E+03</totfact>
</mgrwt>
</event>
<event>
 5    1  0.3184438E-002  0.1249940E+03  0.7818608E-02  0.1235079E+00
         -4   -1    0    0    0  501 -0.00000000000E+00  0.00000000000E+00  0.29717656937E+02  0.29744781623E+02  0.12700000000E+01 0.  1.
          4   -1    0    0  501    0  0.00000000000E+00 -0.00000000000E+00 -0.13134270869E+03  0.13134884859E+03  0.12700000000E+01 0.  1.
         25    2    1    2    0    0  0.00000000000E+00  0.00000000000E+00 -0.10162505175E+03  0.16109363021E+03  0.12499402606E+03 0.  0.
    9000005    1    3    3    0    0 -0.55079597122E+02  0.23220908231E+02 -0.27332672497E+02  0.65734675659E+02  0.10000000000E+01 0.  0.
    9000005    1    3    3    0    0  0.55079597122E+02 -0.23220908231E+02 -0.74292379253E+02  0.95358954552E+02  0.10000000000E+01 0.  0.
<mgrwt>
<rscale>  0 0.12499403E+03</rscale>
<asrwt>0</asrwt>
<pdfrwt beam="2">  1        4 0.20209129E-01 0.12499403E+03</pdfrwt>
<pdfrwt beam="1">  1       -4 0.45745061E-02 0.12499403E+03</pdfrwt>
<totfact> 0.97145398E+03</totfact>
</mgrwt>
</event>
<event>
 5    1  0.3184438E-002  0.1250006E+03  0.7818608E-02  0.1235068E+00
          4   -1    0    0  501    0  0.00000000000E+00  0.00000000000E+00  0.11007812719E+03  0.11008545310E+03  0.12700000000E+01 0.  1.
         -4   -1    0    0    0  501 -0.00000000000E+00 -0.00000000000E+00 -0.35466652739E+02  0.35489383715E+02  0.12700000000E+01 0.  1.
         25    2    1    2    0    0  0.00000000000E+00  0.00000000000E+00  0.74611474448E+02  0.14557483682E+03  0.12500064398E+03 0.  0.
    9000005    1    3    3    0    0  0.22979423913E+02  0.55430803246E+02  0.57633214048E+02  0.83205860571E+02  0.10000000000E+01 0.  0.
    9000005    1    3    3    0    0 -0.22979423913E+02 -0.55430803246E+02  0.16978260400E+02  0.62368976247E+02  0.10000000000E+01 0.  0.
<mgrwt>
<rscale>  0 0.12500064E+03</rscale>
<asrwt>0</asrwt>
<pdfrwt beam="1">  1        4 0.16937408E-01 0.12500064E+03</pdfrwt>
<pdfrwt beam="2">  1       -4 0.54587203E-02 0.12500064E+03</pdfrwt>
<totfact> 0.10019177E+04</totfact>
</mgrwt>
</event>
<event>
 5    1  0.3184438E-002  0.1250003E+03  0.7818608E-02  0.1235069E+00
         -4   -1    0    0    0  501 -0.00000000000E+00  0.00000000000E+00  0.16414716990E+02  0.16463773378E+02  0.12700000000E+01 0.  1.
          4   -1    0    0  501    0  0.00000000000E+00 -0.00000000000E+00 -0.23756767949E+03  0.23757107408E+03  0.12700000000E+01 0.  1.
         25    2    1    2    0    0  0.00000000000E+00  0.00000000000E+00 -0.22115296250E+03  0.25403484746E+03  0.12500028360E+03 0.  0.
    9000005    1    3    3    0    0 -0.19743912958E+02  0.40862292205E+02 -0.23266267094E+02  0.51008511129E+02  0.10000000000E+01 0.  0.
    9000005    1    3    3    0    0  0.19743912958E+02 -0.40862292205E+02 -0.19788669541E+03  0.20302633633E+03  0.10000000000E+01 0.  0.
<mgrwt>
<rscale>  0 0.12500028E+03</rscale>
<asrwt>0</asrwt>
<pdfrwt beam="2">  1        4 0.36552906E-01 0.12500028E+03</pdfrwt>
<pdfrwt beam="1">  1       -4 0.25293759E-02 0.12500028E+03</pdfrwt>
<totfact> 0.81750027E+03</totfact>
</mgrwt>
</event>
<event>
 5    1  0.3184438E-002  0.1250001E+03  0.7818608E-02  0.1235069E+00
          4   -1    0    0  501    0  0.00000000000E+00  0.00000000000E+00  0.43957075285E+01  0.45754939270E+01  0.12700000000E+01 0.  1.
         -4   -1    0    0    0  501 -0.00000000000E+00 -0.00000000000E+00 -0.87066290515E+03  0.87066383140E+03  0.12700000000E+01 0.  1.
         25    2    1    2    0    0  0.00000000000E+00  0.00000000000E+00 -0.86626719762E+03  0.87523932533E+03  0.12500007568E+03 0.  0.
    9000005    1    3    3    0    0  0.54276260041E+01 -0.42490564135E+02 -0.75172802734E+03  0.75294816173E+03  0.10000000000E+01 0.  0.
    9000005    1    3    3    0    0 -0.54276260041E+01  0.42490564135E+02 -0.11453917028E+03  0.12229116359E+03  0.10000000000E+01 0.  0.
<mgrwt>
<rscale>  0 0.12500008E+03</rscale>
<asrwt>0</asrwt>
<pdfrwt beam="1">  1        4 0.69016436E-03 0.12500008E+03</pdfrwt>
<pdfrwt beam="2">  1       -4 0.13396191E+00 0.12500008E+03</pdfrwt>
<totfact> 0.35116152E+03</totfact>
</mgrwt>
</event>
<event>
 5    1  0.3184438E-002  0.1250000E+03  0.7818608E-02  0.1235069E+00
          4   -1    0    0  501    0  0.00000000000E+00  0.00000000000E+00  0.25240331042E+03  0.25240650548E+03  0.12700000000E+01 0. -1.
         -4   -1    0    0    0  501 -0.00000000000E+00 -0.00000000000E+00 -0.15446858893E+02  0.15498978987E+02  0.12700000000E+01 0. -1.
         25    2    1    2    0    0  0.00000000000E+00  0.00000000000E+00  0.23695645153E+03  0.26790548447E+03  0.12499995476E+03 0.  0.
    9000005    1    3    3    0    0  0.30805037072E+01 -0.46391108729E+02  0.20797306780E+03  0.21310894257E+03  0.10000000000E+01 0.  0.
    9000005    1    3    3    0    0 -0.30805037072E+01  0.46391108729E+02  0.28983383723E+02  0.54796541900E+02  0.10000000000E+01 0.  0.
<mgrwt>
<rscale>  0 0.12499995E+03</rscale>
<asrwt>0</asrwt>
<pdfrwt beam="1">  1        4 0.38835532E-01 0.12499995E+03</pdfrwt>
<pdfrwt beam="2">  1       -4 0.23806950E-02 0.12499995E+03</pdfrwt>
<totfact> 0.79809362E+03</totfact>
</mgrwt>
</event>
<event>
 5    1  0.3184438E-002  0.1249837E+03  0.7818608E-02  0.1235095E+00
          4   -1    0    0  501    0  0.00000000000E+00  0.00000000000E+00  0.17461918226E+03  0.17462380054E+03  0.12700000000E+01 0.  1.
         -4   -1    0    0    0  501 -0.00000000000E+00 -0.00000000000E+00 -0.22341331950E+02  0.22377399610E+02  0.12700000000E+01 0.  1.
         25    2    1    2    0    0  0.00000000000E+00  0.00000000000E+00  0.15227785031E+03  0.19700120015E+03  0.12498371559E+03 0.  0.
    9000005    1    3    3    0    0  0.19769236646E+02  0.34673990508E+02  0.36373061446E+00  0.39927943038E+02  0.10000000000E+01 0.  0.
    9000005    1    3    3    0    0 -0.19769236646E+02 -0.34673990508E+02  0.15191411970E+03  0.15707325711E+03  0.10000000000E+01 0.  0.
<mgrwt>
<rscale>  0 0.12498372E+03</rscale>
<asrwt>0</asrwt>
<pdfrwt beam="1">  1        4 0.26867618E-01 0.12498372E+03</pdfrwt>
<pdfrwt beam="2">  1       -4 0.34402578E-02 0.12498372E+03</pdfrwt>
<totfact> 0.90676247E+03</totfact>
</mgrwt>
</event>
<event>
 5    1  0.3184438E-002  0.1249981E+03  0.7818608E-02  0.1235072E+00
          4   -1    0    0  501    0  0.00000000000E+00  0.00000000000E+00  0.52309705615E+02  0.52325120177E+02  0.12700000000E+01 0. -1.
         -4   -1    0    0    0  501 -0.00000000000E+00 -0.00000000000E+00 -0.74641343964E+02  0.74652147516E+02  0.12700000000E+01 0. -1.
         25    2    1    2    0    0  0.00000000000E+00  0.00000000000E+00 -0.22331638349E+02  0.12697726769E+03  0.12499809774E+03 0.  0.
    9000005    1    3    3    0    0  0.40968853830E+02 -0.19092163951E+02 -0.55001992289E+02  0.71198152112E+02  0.10000000000E+01 0.  0.
    9000005    1    3    3    0    0 -0.40968853830E+02  0.19092163951E+02  0.32670353940E+02  0.55779115581E+02  0.10000000000E+01 0.  0.
<mgrwt>
<rscale>  0 0.12499810E+03</rscale>
<asrwt>0</asrwt>
<pdfrwt beam="1">  1        4 0.80496638E-02 0.12499810E+03</pdfrwt>
<pdfrwt beam="2">  1       -4 0.11485300E-01 0.12499810E+03</pdfrwt>
<totfact> 0.10410087E+04</totfact>
</mgrwt>
</event>
<event>
 5    1  0.3184438E-002  0.1250014E+03  0.7818608E-02  0.1235067E+00
          4   -1    0    0  501    0  0.00000000000E+00  0.00000000000E+00  0.75950764147E+01  0.77005250305E+01  0.12700000000E+01 0.  1.
         -4   -1    0    0    0  501 -0.00000000000E+00 -0.00000000000E+00 -0.51067306940E+03  0.51067464859E+03  0.12700000000E+01 0.  1.
         25    2    1    2    0    0  0.00000000000E+00  0.00000000000E+00 -0.50307799299E+03  0.51837517362E+03  0.12500141438E+03 0.  0.
    9000005    1    3    3    0    0 -0.59988092420E+02  0.15338165306E+02 -0.21647138925E+03  0.22515481987E+03  0.10000000000E+01 0.  0.
    9000005    1    3    3    0    0  0.59988092420E+02 -0.15338165306E+02 -0.28660660374E+03  0.29322035375E+03  0.10000000000E+01 0.  0.
<mgrwt>
<rscale>  0 0.12500141E+03</rscale>
<asrwt>0</asrwt>
<pdfrwt beam="1">  1        4 0.11767066E-02 0.12500141E+03</pdfrwt>
<pdfrwt beam="2">  1       -4 0.78573294E-01 0.12500141E+03</pdfrwt>
<totfact> 0.54464660E+03</totfact>
</mgrwt>
</event>
<event>
 5    1  0.3184438E-002  0.1250016E+03  0.7818608E-02  0.1235067E+00
         -4   -1    0    0    0  501 -0.00000000000E+00  0.00000000000E+00  0.49829445686E+02  0.49845627265E+02  0.12700000000E+01 0.  1.
          4   -1    0    0  501    0  0.00000000000E+00 -0.00000000000E+00 -0.78360310932E+02  0.78370601818E+02  0.12700000000E+01 0.  1.
         25    2    1    2    0    0  0.00000000000E+00  0.00000000000E+00 -0.28530865245E+02  0.12821622908E+03  0.12500156450E+03 0.  0.
    9000005    1    3    3    0    0  0.22511631236E+01 -0.38594019508E+01 -0.78201303391E+02  0.78335219224E+02  0.10000000000E+01 0.  0.
    9000005    1    3    3    0    0 -0.22511631236E+01  0.38594019508E+01  0.49670438146E+02  0.49881009858E+02  0.10000000000E+01 0.  0.
<mgrwt>
<rscale>  0 0.12500156E+03</rscale>
<asrwt>0</asrwt>
<pdfrwt beam="2">  1        4 0.12057469E-01 0.12500156E+03</pdfrwt>
<pdfrwt beam="1">  1       -4 0.76681049E-02 0.12500156E+03</pdfrwt>
<totfact> 0.10382454E+04</totfact>
</mgrwt>
</event>
<event>
 5    1  0.3184438E-002  0.1250023E+03  0.7818608E-02  0.1235066E+00
          4   -1    0    0  501    0  0.00000000000E+00  0.00000000000E+00  0.61656444316E+03  0.61656575113E+03  0.12700000000E+01 0. -1.
         -4   -1    0    0    0  501 -0.00000000000E+00 -0.00000000000E+00 -0.62707679866E+01  0.63980802701E+01  0.12700000000E+01 0. -1.
         25    2    1    2    0    0  0.00000000000E+00  0.00000000000E+00  0.61029367518E+03  0.62296383140E+03  0.12500226109E+03 0.  0.
    9000005    1    3    3    0    0  0.17020915651E+02  0.41577428915E+02  0.52163322169E+03  0.52356528928E+03  0.10000000000E+01 0.  0.
    9000005    1    3    3    0    0 -0.17020915651E+02 -0.41577428915E+02  0.88660453483E+02  0.99398542125E+02  0.10000000000E+01 0.  0.
<mgrwt>
<rscale>  0 0.12500226E+03</rscale>
<asrwt>0</asrwt>
<pdfrwt beam="1">  1        4 0.94865955E-01 0.12500226E+03</pdfrwt>
<pdfrwt beam="2">  1       -4 0.97462747E-03 0.12500226E+03</pdfrwt>
<totfact> 0.47447077E+03</totfact>
</mgrwt>
</event>
<event>
 5    1  0.3184438E-002  0.1250055E+03  0.7818608E-02  0.1235061E+00
          4   -1    0    0  501    0  0.00000000000E+00  0.00000000000E+00  0.89853617735E+02  0.89862592440E+02  0.12700000000E+01 0.  1.
         -4   -1    0    0    0  501 -0.00000000000E+00 -0.00000000000E+00 -0.43456910369E+02  0.43475463871E+02  0.12700000000E+01 0.  1.
         25    2    1    2    0    0  0.00000000000E+00  0.00000000000E+00  0.46396707365E+02  0.13333805631E+03  0.12500553110E+03 0.  0.
    9000005    1    3    3    0    0 -0.40711890646E+01  0.61539383785E+02  0.12429585518E+02  0.62921895499E+02  0.10000000000E+01 0.  0.
    9000005    1    3    3    0    0  0.40711890646E+01 -0.61539383785E+02  0.33967121848E+02  0.70416160813E+02  0.10000000000E+01 0.  0.
<mgrwt>
<rscale>  0 0.12500553E+03</rscale>
<asrwt>0</asrwt>
<pdfrwt beam="1">  1        4 0.13825751E-01 0.12500553E+03</pdfrwt>
<pdfrwt beam="2">  1       -4 0.66877961E-02 0.12500553E+03</pdfrwt>
<totfact> 0.10271939E+04</totfact>
</mgrwt>
</event>
<event>
 5    1  0.3184438E-002  0.1249972E+03  0.7818608E-02  0.1235074E+00
          4   -1    0    0  501    0  0.00000000000E+00  0.00000000000E+00  0.27669129513E+03  0.27669420973E+03  0.12700000000E+01 0.  1.
         -4   -1    0    0    0  501 -0.00000000000E+00 -0.00000000000E+00 -0.14085533109E+02  0.14142670998E+02  0.12700000000E+01 0.  1.
         25    2    1    2    0    0  0.00000000000E+00  0.00000000000E+00  0.26260576202E+03  0.29083688073E+03  0.12499721976E+03 0.  0.
    9000005    1    3    3    0    0 -0.54381735800E+02 -0.30646582636E+02  0.12452328980E+03  0.13929693435E+03  0.10000000000E+01 0.  0.
    9000005    1    3    3    0    0  0.54381735800E+02  0.30646582636E+02  0.13808247222E+03  0.15153994638E+03  0.10000000000E+01 0.  0.
<mgrwt>
<rscale>  0 0.12499722E+03</rscale>
<asrwt>0</asrwt>
<pdfrwt beam="1">  1        4 0.42572502E-01 0.12499722E+03</pdfrwt>
<pdfrwt beam="2">  1       -4 0.21716250E-02 0.12499722E+03</pdfrwt>
<totfact> 0.76767556E+03</totfact>
</mgrwt>
</event>
<event>
 5    1  0.3184438E-002  0.1249702E+03  0.7818608E-02  0.1235116E+00
          4   -1    0    0  501    0  0.00000000000E+00  0.00000000000E+00  0.24881393654E+01  0.27935170488E+01  0.12700000000E+01 0.  1.
         -4   -1    0    0    0  501 -0.00000000000E+00 -0.00000000000E+00 -0.14781645512E+04  0.14781650968E+04  0.12700000000E+01 0.  1.
         25    2    1    2    0    0  0.00000000000E+00  0.00000000000E+00 -0.14756764119E+04  0.14809586138E+04  0.12497017010E+03 0.  0.
    9000005    1    3    3    0    0 -0.40535437534E+02  0.45785462136E+02 -0.88957807599E+03  0.89167795953E+03  0.10000000000E+01 0.  0.
    9000005    1    3    3    0    0  0.40535437534E+02 -0.45785462136E+02 -0.58609833587E+03  0.58928065431E+03  0.10000000000E+01 0.  0.
<mgrwt>
<rscale>  0 0.12497017E+03</rscale>
<asrwt>0</asrwt>
<pdfrwt beam="1">  1        4 0.40632441E-03 0.12497017E+03</pdfrwt>
<pdfrwt beam="2">  1       -4 0.22743280E+00 0.12497017E+03</pdfrwt>
<totfact> 0.18319449E+03</totfact>
</mgrwt>
</event>
<event>
 5    1  0.3184438E-002  0.1249999E+03  0.7818608E-02  0.1235070E+00
          4   -1    0    0  501    0  0.00000000000E+00  0.00000000000E+00  0.62862462695E+01  0.64132512940E+01  0.12700000000E+01 0.  1.
         -4   -1    0    0    0  501 -0.00000000000E+00 -0.00000000000E+00 -0.61505276714E+03  0.61505407833E+03  0.12700000000E+01 0.  1.
         25    2    1    2    0    0  0.00000000000E+00  0.00000000000E+00 -0.60876652087E+03  0.62146732962E+03  0.12499985941E+03 0.  0.
    9000005    1    3    3    0    0 -0.11118828252E+02  0.12896799639E+02 -0.54459837609E+01  0.17905711987E+02  0.10000000000E+01 0.  0.
    9000005    1    3    3    0    0  0.11118828252E+02 -0.12896799639E+02 -0.60332053711E+03  0.60356161764E+03  0.10000000000E+01 0.  0.
<mgrwt>
<rscale>  0 0.12499986E+03</rscale>
<asrwt>0</asrwt>
<pdfrwt beam="1">  1        4 0.97698578E-03 0.12499986E+03</pdfrwt>
<pdfrwt beam="2">  1       -4 0.94633326E-01 0.12499986E+03</pdfrwt>
<totfact> 0.47540140E+03</totfact>
</mgrwt>
</event>
<event>
 5    1  0.3184438E-002  0.1250057E+03  0.7818608E-02  0.1235060E+00
         -4   -1    0    0    0  501 -0.00000000000E+00  0.00000000000E+00  0.61282600995E+03  0.61282732590E+03  0.12700000000E+01 0.  1.
          4   -1    0    0  501    0  0.00000000000E+00 -0.00000000000E+00 -0.63101456281E+01  0.64366791009E+01  0.12700000000E+01 0.  1.
         25    2    1    2    0    0  0.00000000000E+00  0.00000000000E+00  0.60651586432E+03  0.61926400500E+03  0.12500565674E+03 0.  0.
    9000005    1    3    3    0    0  0.60867897243E+02 -0.14092317212E+02  0.31045256552E+03  0.31667852746E+03  0.10000000000E+01 0.  0.
    9000005    1    3    3    0    0 -0.60867897243E+02  0.14092317212E+02  0.29606329880E+03  0.30258547754E+03  0.10000000000E+01 0.  0.
<mgrwt>
<rscale>  0 0.12500566E+03</rscale>
<asrwt>0</asrwt>
<pdfrwt beam="2">  1        4 0.98062638E-03 0.12500566E+03</pdfrwt>
<pdfrwt beam="1">  1       -4 0.94290742E-01 0.12500566E+03</pdfrwt>
<totfact> 0.47667855E+03</totfact>
</mgrwt>
</event>
<event>
 5    1  0.3184438E-002  0.1249998E+03  0.7818608E-02  0.1235070E+00
          4   -1    0    0  501    0  0.00000000000E+00  0.00000000000E+00  0.79864981305E+01  0.80868444024E+01  0.12700000000E+01 0. -1.
         -4   -1    0    0    0  501 -0.00000000000E+00 -0.00000000000E+00 -0.48595035576E+03  0.48595201529E+03  0.12700000000E+01 0. -1.
         25    2    1    2    0    0  0.00000000000E+00  0.00000000000E+00 -0.47796385763E+03  0.49403885970E+03  0.12499978274E+03 0.  0.
    9000005    1    3    3    0    0  0.66985960772E+01  0.52099642566E+02 -0.10518605025E+03  0.11757699228E+03  0.10000000000E+01 0.  0.
    9000005    1    3    3    0    0 -0.66985960772E+01 -0.52099642566E+02 -0.37277780738E+03  0.37646186742E+03  0.10000000000E+01 0.  0.
<mgrwt>
<rscale>  0 0.12499978E+03</rscale>
<asrwt>0</asrwt>
<pdfrwt beam="1">  1        4 0.12365390E-02 0.12499978E+03</pdfrwt>
<pdfrwt beam="2">  1       -4 0.74769417E-01 0.12499978E+03</pdfrwt>
<totfact> 0.56330141E+03</totfact>
</mgrwt>
</event>
<event>
 5    1  0.3184438E-002  0.1250064E+03  0.7818608E-02  0.1235059E+00
          4   -1    0    0  501    0  0.00000000000E+00  0.00000000000E+00  0.21755478699E+02  0.21792515995E+02  0.12700000000E+01 0.  1.
         -4   -1    0    0    0  501 -0.00000000000E+00 -0.00000000000E+00 -0.17937887385E+03  0.17938336959E+03  0.12700000000E+01 0.  1.
         25    2    1    2    0    0  0.00000000000E+00  0.00000000000E+00 -0.15762339515E+03  0.20117588558E+03  0.12500640880E+03 0.  0.
    9000005    1    3    3    0    0  0.27831789786E+02 -0.65823553154E+01 -0.16823737137E+03  0.17065388671E+03  0.10000000000E+01 0.  0.
    9000005    1    3    3    0    0 -0.27831789786E+02  0.65823553154E+01  0.10613976214E+02  0.30521998874E+02  0.10000000000E+01 0.  0.
<mgrwt>
<rscale>  0 0.12500641E+03</rscale>
<asrwt>0</asrwt>
<pdfrwt beam="1">  1        4 0.33501917E-02 0.12500641E+03</pdfrwt>
<pdfrwt beam="2">  1       -4 0.27599944E-01 0.12500641E+03</pdfrwt>
<totfact> 0.89924667E+03</totfact>
</mgrwt>
</event>
<event>
 5    1  0.3184438E-002  0.1250005E+03  0.7818608E-02  0.1235069E+00
          4   -1    0    0  501    0  0.00000000000E+00  0.00000000000E+00  0.18588502465E+02  0.18631836300E+02  0.12700000000E+01 0. -1.
         -4   -1    0    0    0  501 -0.00000000000E+00 -0.00000000000E+00 -0.20985505865E+03  0.20985890150E+03  0.12700000000E+01 0. -1.
         25    2    1    2    0    0  0.00000000000E+00  0.00000000000E+00 -0.19126655618E+03  0.22849073780E+03  0.12500048699E+03 0.  0.
    9000005    1    3    3    0    0 -0.40149419788E+01  0.52615077155E+02 -0.34437179837E+02  0.63018929364E+02  0.10000000000E+01 0.  0.
    9000005    1    3    3    0    0  0.40149419788E+01 -0.52615077155E+02 -0.15682937634E+03  0.16547180844E+03  0.10000000000E+01 0.  0.
<mgrwt>
<rscale>  0 0.12500049E+03</rscale>
<asrwt>0</asrwt>
<pdfrwt beam="1">  1        4 0.28633987E-02 0.12500049E+03</pdfrwt>
<pdfrwt beam="2">  1       -4 0.32289021E-01 0.12500049E+03</pdfrwt>
<totfact> 0.85540957E+03</totfact>
</mgrwt>
</event>
<event>
 5    1  0.3184438E-002  0.1249999E+03  0.7818608E-02  0.1235069E+00
         -4   -1    0    0    0  501 -0.00000000000E+00  0.00000000000E+00  0.10842645686E+03  0.10843389436E+03  0.12700000000E+01 0. -1.
          4   -1    0    0  501    0  0.00000000000E+00 -0.00000000000E+00 -0.36006805452E+02  0.36029195645E+02  0.12700000000E+01 0. -1.
         25    2    1    2    0    0  0.00000000000E+00  0.00000000000E+00  0.72419651407E+02  0.14446309001E+03  0.12499991386E+03 0.  0.
    9000005    1    3    3    0    0 -0.61878387102E+02  0.86025188469E+01  0.37965013053E+02  0.73111424121E+02  0.10000000000E+01 0.  0.
    9000005    1    3    3    0    0  0.61878387102E+02 -0.86025188469E+01  0.34454638354E+02  0.71351665888E+02  0.10000000000E+01 0.  0.
<mgrwt>
<rscale>  0 0.12499991E+03</rscale>
<asrwt>0</asrwt>
<pdfrwt beam="2">  1        4 0.55418030E-02 0.12499991E+03</pdfrwt>
<pdfrwt beam="1">  1       -4 0.16683288E-01 0.12499991E+03</pdfrwt>
<totfact> 0.10041928E+04</totfact>
</mgrwt>
</event>
<event>
 5    1  0.3184438E-002  0.1250018E+03  0.7818608E-02  0.1235066E+00
          4   -1    0    0  501    0  0.00000000000E+00  0.00000000000E+00  0.29714426237E+01  0.32314658077E+01  0.12700000000E+01 0.  1.
         -4   -1    0    0    0  501 -0.00000000000E+00 -0.00000000000E+00 -0.12592656888E+04  0.12592663292E+04  0.12700000000E+01 0.  1.
         25    2    1    2    0    0  0.00000000000E+00  0.00000000000E+00 -0.12562942462E+04  0.12624977950E+04  0.12500179781E+03 0.  0.
    9000005    1    3    3    0    0  0.36739132537E+02 -0.41367130783E+02 -0.92162673513E+03  0.92328643566E+03  0.10000000000E+01 0.  0.
    9000005    1    3    3    0    0 -0.36739132537E+02  0.41367130783E+02 -0.33466751106E+03  0.33921135937E+03  0.10000000000E+01 0.  0.
<mgrwt>
<rscale>  0 0.12500180E+03</rscale>
<asrwt>0</asrwt>
<pdfrwt beam="1">  1        4 0.47719707E-03 0.12500180E+03</pdfrwt>
<pdfrwt beam="2">  1       -4 0.19375283E+00 0.12500180E+03</pdfrwt>
<totfact> 0.23130456E+03</totfact>
</mgrwt>
</event>
<event>
 5    1  0.3184438E-002  0.1250051E+03  0.7818608E-02  0.1235061E+00
         -4   -1    0    0    0  501 -0.00000000000E+00  0.00000000000E+00  0.41012215949E+02  0.41031874891E+02  0.12700000000E+01 0.  1.
          4   -1    0    0  501    0  0.00000000000E+00 -0.00000000000E+00 -0.95207004939E+02  0.95215475052E+02  0.12700000000E+01 0.  1.
         25    2    1    2    0    0  0.00000000000E+00  0.00000000000E+00 -0.54194788990E+02  0.13624734994E+03  0.12500506075E+03 0.  0.
    9000005    1    3    3    0    0 -0.38850563580E+02  0.21919194062E+01 -0.80397267271E+02  0.89324640418E+02  0.10000000000E+01 0.  0.
    9000005    1    3    3    0    0  0.38850563580E+02 -0.21919194062E+01  0.26202478281E+02  0.46922709525E+02  0.10000000000E+01 0.  0.
<mgrwt>
<rscale>  0 0.12500506E+03</rscale>
<asrwt>0</asrwt>
<pdfrwt beam="2">  1        4 0.14649395E-01 0.12500506E+03</pdfrwt>
<pdfrwt beam="1">  1       -4 0.63117355E-02 0.12500506E+03</pdfrwt>
<totfact> 0.10210681E+04</totfact>
</mgrwt>
</event>
<event>
 5    1  0.3184438E-002  0.1249998E+03  0.7818608E-02  0.1235070E+00
          4   -1    0    0  501    0  0.00000000000E+00  0.00000000000E+00  0.28358957866E+02  0.28387380846E+02  0.12700000000E+01 0.  1.
         -4   -1    0    0    0  501 -0.00000000000E+00 -0.00000000000E+00 -0.13764220187E+03  0.13764806077E+03  0.12700000000E+01 0.  1.
         25    2    1    2    0    0  0.00000000000E+00  0.00000000000E+00 -0.10928324400E+03  0.16603544162E+03  0.12499976182E+03 0.  0.
    9000005    1    3    3    0    0  0.39858421350E+02  0.48032355220E+02 -0.50561769543E+02  0.80332393465E+02  0.10000000000E+01 0.  0.
    9000005    1    3    3    0    0 -0.39858421350E+02 -0.48032355220E+02 -0.58721474456E+02  0.85703048153E+02  0.10000000000E+01 0.  0.
<mgrwt>
<rscale>  0 0.12499976E+03</rscale>
<asrwt>0</asrwt>
<pdfrwt beam="1">  1        4 0.43655537E-02 0.12499976E+03</pdfrwt>
<pdfrwt beam="2">  1       -4 0.21178360E-01 0.12499976E+03</pdfrwt>
<totfact> 0.96192170E+03</totfact>
</mgrwt>
</event>
<event>
 5    1  0.3184438E-002  0.1249895E+03  0.7818608E-02  0.1235086E+00
         -4   -1    0    0    0  501 -0.00000000000E+00  0.00000000000E+00  0.19848907335E+03  0.19849313625E+03  0.12700000000E+01 0. -1.
          4   -1    0    0  501    0  0.00000000000E+00 -0.00000000000E+00 -0.19651841460E+02  0.19692835570E+02  0.12700000000E+01 0. -1.
         25    2    1    2    0    0  0.00000000000E+00  0.00000000000E+00  0.17883723189E+03  0.21818597182E+03  0.12498945072E+03 0.  0.
    9000005    1    3    3    0    0 -0.15258726604E+02  0.58271391421E+02  0.60407079597E+02  0.85313533869E+02  0.10000000000E+01 0.  0.
    9000005    1    3    3    0    0  0.15258726604E+02 -0.58271391421E+02  0.11843015229E+03  0.13287243795E+03  0.10000000000E+01 0.  0.
<mgrwt>
<rscale>  0 0.12498945E+03</rscale>
<asrwt>0</asrwt>
<pdfrwt beam="2">  1        4 0.30268260E-02 0.12498945E+03</pdfrwt>
<pdfrwt beam="1">  1       -4 0.30540248E-01 0.12498945E+03</pdfrwt>
<totfact> 0.87176753E+03</totfact>
</mgrwt>
</event>
<event>
 5    1  0.3184438E-002  0.1250308E+03  0.7818608E-02  0.1235021E+00
          4   -1    0    0  501    0  0.00000000000E+00  0.00000000000E+00  0.37693920529E+02  0.37715309158E+02  0.12700000000E+01 0.  1.
         -4   -1    0    0    0  501 -0.00000000000E+00 -0.00000000000E+00 -0.10362715015E+03  0.10363493208E+03  0.12700000000E+01 0.  1.
         25    2    1    2    0    0  0.00000000000E+00  0.00000000000E+00 -0.65933229617E+02  0.14135024124E+03  0.12503079593E+03 0.  0.
    9000005    1    3    3    0    0  0.16375517865E+02  0.57305554640E+02 -0.11663197675E+02  0.60738079966E+02  0.10000000000E+01 0.  0.
    9000005    1    3    3    0    0 -0.16375517865E+02 -0.57305554640E+02 -0.54270031942E+02  0.80612161272E+02  0.10000000000E+01 0.  0.
<mgrwt>
<rscale>  0 0.12503080E+03</rscale>
<asrwt>0</asrwt>
<pdfrwt beam="1">  1        4 0.58013086E-02 0.12503080E+03</pdfrwt>
<pdfrwt beam="2">  1       -4 0.15944882E-01 0.12503080E+03</pdfrwt>
<totfact> 0.10098670E+04</totfact>
</mgrwt>
</event>
<event>
 5    1  0.3184438E-002  0.1249966E+03  0.7818608E-02  0.1235075E+00
         -4   -1    0    0    0  501 -0.00000000000E+00  0.00000000000E+00  0.59906860180E+01  0.61238238844E+01  0.12700000000E+01 0.  1.
          4   -1    0    0  501    0  0.00000000000E+00 -0.00000000000E+00 -0.64471934952E+03  0.64472060038E+03  0.12700000000E+01 0.  1.
         25    2    1    2    0    0  0.00000000000E+00  0.00000000000E+00 -0.63872866350E+03  0.65084442426E+03  0.12499663599E+03 0.  0.
    9000005    1    3    3    0    0  0.13345085052E+02  0.56657897922E+01 -0.63586680632E+03  0.63603285123E+03  0.10000000000E+01 0.  0.
    9000005    1    3    3    0    0 -0.13345085052E+02 -0.56657897922E+01 -0.28618571864E+01  0.14811573028E+02  0.10000000000E+01 0.  0.
<mgrwt>
<rscale>  0 0.12499664E+03</rscale>
<asrwt>0</asrwt>
<pdfrwt beam="2">  1        4 0.99197876E-01 0.12499664E+03</pdfrwt>
<pdfrwt beam="1">  1       -4 0.93198211E-03 0.12499664E+03</pdfrwt>
<totfact> 0.45810993E+03</totfact>
</mgrwt>
</event>
<event>
 5    1  0.3184438E-002  0.1249938E+03  0.7818608E-02  0.1235079E+00
         -4   -1    0    0    0  501 -0.00000000000E+00  0.00000000000E+00  0.11549289882E+04  0.11549296865E+04  0.12700000000E+01 0. -1.
          4   -1    0    0  501    0  0.00000000000E+00 -0.00000000000E+00 -0.32619510988E+01  0.35004606799E+01  0.12700000000E+01 0. -1.
         25    2    1    2    0    0  0.00000000000E+00  0.00000000000E+00  0.11516670371E+04  0.11584301471E+04  0.12499376574E+03 0.  0.
    9000005    1    3    3    0    0 -0.83860001559E+01 -0.23730423021E+02  0.11059221402E+04  0.11062089487E+04  0.10000000000E+01 0.  0.
    9000005    1    3    3    0    0  0.83860001559E+01  0.23730423021E+02  0.45744896855E+02  0.52221198413E+02  0.10000000000E+01 0.  0.
<mgrwt>
<rscale>  0 0.12499377E+03</rscale>
<asrwt>0</asrwt>
<pdfrwt beam="2">  1        4 0.52023923E-03 0.12499377E+03</pdfrwt>
<pdfrwt beam="1">  1       -4 0.17769979E+00 0.12499377E+03</pdfrwt>
<totfact> 0.25830994E+03</totfact>
</mgrwt>
</event>
<event>
 5    1  0.3184438E-002  0.1249976E+03  0.7818608E-02  0.1235073E+00
         -4   -1    0    0    0  501 -0.00000000000E+00  0.00000000000E+00  0.31797491225E+02  0.31822843182E+02  0.12700000000E+01 0. -1.
          4   -1    0    0  501    0  0.00000000000E+00 -0.00000000000E+00 -0.12276535918E+03  0.12277192804E+03  0.12700000000E+01 0. -1.
         25    2    1    2    0    0  0.00000000000E+00  0.00000000000E+00 -0.90967867959E+02  0.15459477123E+03  0.12499756113E+03 0.  0.
    9000005    1    3    3    0    0  0.35616886025E+02  0.51323235525E+02 -0.43543920631E+02  0.76155827740E+02  0.10000000000E+01 0.  0.
    9000005    1    3    3    0    0 -0.35616886025E+02 -0.51323235525E+02 -0.47423947328E+02  0.78438943485E+02  0.10000000000E+01 0.  0.
<mgrwt>
<rscale>  0 0.12499756E+03</rscale>
<asrwt>0</asrwt>
<pdfrwt beam="2">  1        4 0.18889433E-01 0.12499756E+03</pdfrwt>
<pdfrwt beam="1">  1       -4 0.48943773E-02 0.12499756E+03</pdfrwt>
<totfact> 0.98400507E+03</totfact>
</mgrwt>
</event>
<event>
 5    1  0.3184438E-002  0.1250007E+03  0.7818608E-02  0.1235068E+00
          4   -1    0    0  501    0  0.00000000000E+00  0.00000000000E+00  0.74905362986E+03  0.74905470649E+03  0.12700000000E+01 0. -1.
         -4   -1    0    0    0  501 -0.00000000000E+00 -0.00000000000E+00 -0.51365582425E+01  0.52912314803E+01  0.12700000000E+01 0. -1.
         25    2    1    2    0    0  0.00000000000E+00  0.00000000000E+00  0.74391707162E+03  0.75434593797E+03  0.12500073872E+03 0.  0.
    9000005    1    3    3    0    0 -0.39125608823E+02 -0.46279565007E+02  0.46401238493E+03  0.46795416952E+03  0.10000000000E+01 0.  0.
    9000005    1    3    3    0    0  0.39125608823E+02  0.46279565007E+02  0.27990468669E+03  0.28639176844E+03  0.10000000000E+01 0.  0.
<mgrwt>
<rscale>  0 0.12500074E+03</rscale>
<asrwt>0</asrwt>
<pdfrwt beam="1">  1        4 0.11525096E+00 0.12500074E+03</pdfrwt>
<pdfrwt beam="2">  1       -4 0.80222080E-03 0.12500074E+03</pdfrwt>
<totfact> 0.40366489E+03</totfact>
</mgrwt>
</event>
<event>
 5    1  0.3184438E-002  0.1250476E+03  0.7818608E-02  0.1234995E+00
         -4   -1    0    0    0  501 -0.00000000000E+00  0.00000000000E+00  0.11580808982E+03  0.11581505328E+03  0.12700000000E+01 0. -1.
          4   -1    0    0  501    0  0.00000000000E+00 -0.00000000000E+00 -0.33736165885E+02  0.33760062035E+02  0.12700000000E+01 0. -1.
         25    2    1    2    0    0  0.00000000000E+00  0.00000000000E+00  0.82071923930E+02  0.14957511532E+03  0.12504764862E+03 0.  0.
    9000005    1    3    3    0    0  0.23123710520E+02  0.29338803732E+02 -0.18923686895E+02  0.41887675017E+02  0.10000000000E+01 0.  0.
    9000005    1    3    3    0    0 -0.23123710520E+02 -0.29338803732E+02  0.10099561083E+03  0.10768744030E+03  0.10000000000E+01 0.  0.
<mgrwt>
<rscale>  0 0.12504765E+03</rscale>
<asrwt>0</asrwt>
<pdfrwt beam="2">  1        4 0.51925531E-02 0.12504765E+03</pdfrwt>
<pdfrwt beam="1">  1       -4 0.17819003E-01 0.12504765E+03</pdfrwt>
<totfact> 0.99281949E+03</totfact>
</mgrwt>
</event>
<event>
 5    1  0.3184438E-002  0.1249981E+03  0.7818608E-02  0.1235072E+00
          4   -1    0    0  501    0  0.00000000000E+00  0.00000000000E+00  0.63348335686E+03  0.63348462990E+03  0.12700000000E+01 0. -1.
         -4   -1    0    0    0  501 -0.00000000000E+00 -0.00000000000E+00 -0.60994270221E+01  0.62302415682E+01  0.12700000000E+01 0. -1.
         25    2    1    2    0    0  0.00000000000E+00  0.00000000000E+00  0.62738392984E+03  0.63971487147E+03  0.12499808542E+03 0.  0.
    9000005    1    3    3    0    0 -0.38173757145E+01  0.61147802562E+02  0.37668542395E+03  0.38163665276E+03  0.10000000000E+01 0.  0.
    9000005    1    3    3    0    0  0.38173757145E+01 -0.61147802562E+02  0.25069850589E+03  0.25807821871E+03  0.10000000000E+01 0.  0.
<mgrwt>
<rscale>  0 0.12499809E+03</rscale>
<asrwt>0</asrwt>
<pdfrwt beam="1">  1        4 0.97469046E-01 0.12499809E+03</pdfrwt>
<pdfrwt beam="2">  1       -4 0.94853487E-03 0.12499809E+03</pdfrwt>
<totfact> 0.46454898E+03</totfact>
</mgrwt>
</event>
<event>
 5    1  0.3184438E-002  0.1250023E+03  0.7818608E-02  0.1235066E+00
          4   -1    0    0  501    0  0.00000000000E+00  0.00000000000E+00  0.23028829835E+04  0.23028833337E+04  0.12700000000E+01 0.  1.
         -4   -1    0    0    0  501 -0.00000000000E+00 -0.00000000000E+00 -0.14581978965E+01  0.19337117431E+01  0.12700000000E+01 0.  1.
         25    2    1    2    0    0  0.00000000000E+00  0.00000000000E+00  0.23014247856E+04  0.23048170455E+04  0.12500227652E+03 0.  0.
    9000005    1    3    3    0    0 -0.29059966033E+02 -0.54795278170E+02  0.10098221603E+04  0.10117256543E+04  0.10000000000E+01 0.  0.
    9000005    1    3    3    0    0  0.29059966033E+02  0.54795278170E+02  0.12916026253E+04  0.12930913911E+04  0.10000000000E+01 0.  0.
<mgrwt>
<rscale>  0 0.12500228E+03</rscale>
<asrwt>0</asrwt>
<pdfrwt beam="1">  1        4 0.35432725E+00 0.12500228E+03</pdfrwt>
<pdfrwt beam="2">  1       -4 0.26094236E-03 0.12500228E+03</pdfrwt>
<totfact> 0.63886259E+02</totfact>
</mgrwt>
</event>
<event>
 5    1  0.3184438E-002  0.1250015E+03  0.7818608E-02  0.1235067E+00
         -4   -1    0    0    0  501 -0.00000000000E+00  0.00000000000E+00  0.34665008733E+02  0.34688265026E+02  0.12700000000E+01 0. -1.
          4   -1    0    0  501    0  0.00000000000E+00 -0.00000000000E+00 -0.11262377683E+03  0.11263093717E+03  0.12700000000E+01 0. -1.
         25    2    1    2    0    0  0.00000000000E+00  0.00000000000E+00 -0.77958768100E+02  0.14731920220E+03  0.12500151124E+03 0.  0.
    9000005    1    3    3    0    0 -0.34525860987E+02 -0.41864328080E+01  0.22211478131E+02  0.41278457545E+02  0.10000000000E+01 0.  0.
    9000005    1    3    3    0    0  0.34525860987E+02  0.41864328080E+01 -0.10017024623E+03  0.10604074465E+03  0.10000000000E+01 0.  0.
<mgrwt>
<rscale>  0 0.12500151E+03</rscale>
<asrwt>0</asrwt>
<pdfrwt beam="2">  1        4 0.17329074E-01 0.12500151E+03</pdfrwt>
<pdfrwt beam="1">  1       -4 0.53354181E-02 0.12500151E+03</pdfrwt>
<totfact> 0.99837388E+03</totfact>
</mgrwt>
</event>
<event>
 5    1  0.3184438E-002  0.1250016E+03  0.7818608E-02  0.1235067E+00
          4   -1    0    0  501    0  0.00000000000E+00  0.00000000000E+00  0.25888679380E+02  0.25919811343E+02  0.12700000000E+01 0.  1.
         -4   -1    0    0    0  501 -0.00000000000E+00 -0.00000000000E+00 -0.15076571709E+03  0.15077106602E+03  0.12700000000E+01 0.  1.
         25    2    1    2    0    0  0.00000000000E+00  0.00000000000E+00 -0.12487703771E+03  0.17669087736E+03  0.12500156638E+03 0.  0.
    9000005    1    3    3    0    0 -0.61734244067E+02 -0.25342004365E+01 -0.49193036321E+02  0.78984136919E+02  0.10000000000E+01 0.  0.
    9000005    1    3    3    0    0  0.61734244067E+02  0.25342004365E+01 -0.75684001386E+02  0.97706740444E+02  0.10000000000E+01 0.  0.
<mgrwt>
<rscale>  0 0.12500157E+03</rscale>
<asrwt>0</asrwt>
<pdfrwt beam="1">  1        4 0.39856801E-02 0.12500157E+03</pdfrwt>
<pdfrwt beam="2">  1       -4 0.23197531E-01 0.12500157E+03</pdfrwt>
<totfact> 0.94212760E+03</totfact>
</mgrwt>
</event>
<event>
 5    1  0.3184438E-002  0.1250060E+03  0.7818608E-02  0.1235060E+00
         -4   -1    0    0    0  501 -0.00000000000E+00  0.00000000000E+00  0.36489825100E+02  0.36511919092E+02  0.12700000000E+01 0.  1.
          4   -1    0    0  501    0  0.00000000000E+00 -0.00000000000E+00 -0.10700244282E+03  0.10700997930E+03  0.12700000000E+01 0.  1.
         25    2    1    2    0    0  0.00000000000E+00  0.00000000000E+00 -0.70512617720E+02  0.14352189839E+03  0.12500602409E+03 0.  0.
    9000005    1    3    3    0    0 -0.39604656447E+02 -0.48249831628E+02 -0.38710499636E+02  0.73458000561E+02  0.10000000000E+01 0.  0.
    9000005    1    3    3    0    0  0.39604656447E+02  0.48249831628E+02 -0.31802118085E+02  0.70063897830E+02  0.10000000000E+01 0.  0.
<mgrwt>
<rscale>  0 0.12500602E+03</rscale>
<asrwt>0</asrwt>
<pdfrwt beam="2">  1        4 0.16464193E-01 0.12500602E+03</pdfrwt>
<pdfrwt beam="1">  1       -4 0.56160985E-02 0.12500602E+03</pdfrwt>
<totfact> 0.10059742E+04</totfact>
</mgrwt>
</event>
<event>
 5    1  0.3184438E-002  0.1250037E+03  0.7818608E-02  0.1235063E+00
          4   -1    0    0  501    0  0.00000000000E+00  0.00000000000E+00  0.59826562083E+02  0.59840040364E+02  0.12700000000E+01 0. -1.
         -4   -1    0    0    0  501 -0.00000000000E+00 -0.00000000000E+00 -0.65269810148E+02  0.65282164614E+02  0.12700000000E+01 0. -1.
         25    2    1    2    0    0  0.00000000000E+00  0.00000000000E+00 -0.54432480641E+01  0.12512220498E+03  0.12500374886E+03 0.  0.
    9000005    1    3    3    0    0 -0.57378546767E+01 -0.60303875965E+02  0.12655351311E+02  0.61892150952E+02  0.10000000000E+01 0.  0.
    9000005    1    3    3    0    0  0.57378546767E+01  0.60303875965E+02 -0.18098599375E+02  0.63230054025E+02  0.10000000000E+01 0.  0.
<mgrwt>
<rscale>  0 0.12500375E+03</rscale>
<asrwt>0</asrwt>
<pdfrwt beam="1">  1        4 0.92060736E-02 0.12500375E+03</pdfrwt>
<pdfrwt beam="2">  1       -4 0.10043496E-01 0.12500375E+03</pdfrwt>
<totfact> 0.10449324E+04</totfact>
</mgrwt>
</event>
<event>
 5    1  0.3184438E-002  0.1249865E+03  0.7818608E-02  0.1235090E+00
         -4   -1    0    0    0  501 -0.00000000000E+00  0.00000000000E+00  0.32044591439E+02  0.32069748058E+02  0.12700000000E+01 0.  1.
          4   -1    0    0  501    0  0.00000000000E+00 -0.00000000000E+00 -0.12179780626E+03  0.12180442730E+03  0.12700000000E+01 0.  1.
         25    2    1    2    0    0  0.00000000000E+00  0.00000000000E+00 -0.89753214820E+02  0.15387417536E+03  0.12498648835E+03 0.  0.
    9000005    1    3    3    0    0 -0.61799845303E+02 -0.36165645449E+01 -0.55330687241E+02  0.83034844307E+02  0.10000000000E+01 0.  0.
    9000005    1    3    3    0    0  0.61799845303E+02  0.36165645449E+01 -0.34422527579E+02  0.70839331049E+02  0.10000000000E+01 0.  0.
<mgrwt>
<rscale>  0 0.12498649E+03</rscale>
<asrwt>0</asrwt>
<pdfrwt beam="2">  1        4 0.18740568E-01 0.12498649E+03</pdfrwt>
<pdfrwt beam="1">  1       -4 0.49323817E-02 0.12498649E+03</pdfrwt>
<totfact> 0.98566919E+03</totfact>
</mgrwt>
</event>
<event>
 5    1  0.3184438E-002  0.1250019E+03  0.7818608E-02  0.1235066E+00
         -4   -1    0    0    0  501 -0.00000000000E+00  0.00000000000E+00  0.31814756904E+01  0.34255930244E+01  0.12700000000E+01 0.  1.
          4   -1    0    0  501    0  0.00000000000E+00 -0.00000000000E+00 -0.11822377915E+04  0.11822384737E+04  0.12700000000E+01 0.  1.
         25    2    1    2    0    0  0.00000000000E+00  0.00000000000E+00 -0.11790563158E+04  0.11856640667E+04  0.12500193249E+03 0.  0.
    9000005    1    3    3    0    0 -0.30833572290E+02 -0.12918190583E+02 -0.88716612607E+02  0.94811529787E+02  0.10000000000E+01 0.  0.
    9000005    1    3    3    0    0  0.30833572290E+02  0.12918190583E+02 -0.10903397032E+04  0.10908525369E+04  0.10000000000E+01 0.  0.
<mgrwt>
<rscale>  0 0.12500193E+03</rscale>
<asrwt>0</asrwt>
<pdfrwt beam="2">  1        4 0.18190123E+00 0.12500193E+03</pdfrwt>
<pdfrwt beam="1">  1       -4 0.50828947E-03 0.12500193E+03</pdfrwt>
<totfact> 0.25090104E+03</totfact>
</mgrwt>
</event>
<event>
 5    1  0.3184438E-002  0.1250015E+03  0.7818608E-02  0.1235067E+00
         -4   -1    0    0    0  501 -0.00000000000E+00  0.00000000000E+00  0.21144947544E+01  0.24665741559E+01  0.12700000000E+01 0. -1.
          4   -1    0    0  501    0  0.00000000000E+00 -0.00000000000E+00 -0.17050760917E+04  0.17050765647E+04  0.12700000000E+01 0. -1.
         25    2    1    2    0    0  0.00000000000E+00  0.00000000000E+00 -0.17029615969E+04  0.17075431388E+04  0.12500148111E+03 0.  0.
    9000005    1    3    3    0    0 -0.14131433269E+02  0.87215468892E+01 -0.28509481268E+02  0.33008382398E+02  0.10000000000E+01 0.  0.
    9000005    1    3    3    0    0  0.14131433269E+02 -0.87215468892E+01 -0.16744521157E+04  0.16745347564E+04  0.10000000000E+01 0.  0.
<mgrwt>
<rscale>  0 0.12500148E+03</rscale>
<asrwt>0</asrwt>
<pdfrwt beam="2">  1        4 0.26234550E+00 0.12500148E+03</pdfrwt>
<pdfrwt beam="1">  1       -4 0.35242766E-03 0.12500148E+03</pdfrwt>
<totfact> 0.14182101E+03</totfact>
</mgrwt>
</event>
<event>
 5    1  0.3184438E-002  0.1250002E+03  0.7818608E-02  0.1235069E+00
         -4   -1    0    0    0  501 -0.00000000000E+00  0.00000000000E+00  0.16332406840E+02  0.16381709715E+02  0.12700000000E+01 0.  1.
          4   -1    0    0  501    0  0.00000000000E+00 -0.00000000000E+00 -0.23876100395E+03  0.23876438157E+03  0.12700000000E+01 0.  1.
         25    2    1    2    0    0  0.00000000000E+00  0.00000000000E+00 -0.22242859711E+03  0.25514609129E+03  0.12500018835E+03 0.  0.
    9000005    1    3    3    0    0  0.39865312558E+02 -0.88291988773E+01 -0.20777813030E+03  0.21175445527E+03  0.10000000000E+01 0.  0.
    9000005    1    3    3    0    0 -0.39865312558E+02  0.88291988773E+01 -0.14650466815E+02  0.43391636015E+02  0.10000000000E+01 0.  0.
<mgrwt>
<rscale>  0 0.12500019E+03</rscale>
<asrwt>0</asrwt>
<pdfrwt beam="2">  1        4 0.36736512E-01 0.12500019E+03</pdfrwt>
<pdfrwt beam="1">  1       -4 0.25167305E-02 0.12500019E+03</pdfrwt>
<totfact> 0.81591759E+03</totfact>
</mgrwt>
</event>
<event>
 5    1  0.3184438E-002  0.1249946E+03  0.7818608E-02  0.1235078E+00
         -4   -1    0    0    0  501 -0.00000000000E+00  0.00000000000E+00  0.85720159216E+01  0.86655846288E+01  0.12700000000E+01 0.  1.
          4   -1    0    0  501    0  0.00000000000E+00 -0.00000000000E+00 -0.45309051213E+03  0.45309229201E+03  0.12700000000E+01 0.  1.
         25    2    1    2    0    0  0.00000000000E+00  0.00000000000E+00 -0.44451849620E+03  0.46175787664E+03  0.12499457256E+03 0.  0.
    9000005    1    3    3    0    0 -0.50317159749E+02  0.15797394680E+02 -0.34608664945E+03  0.35008333747E+03  0.10000000000E+01 0.  0.
    9000005    1    3    3    0    0  0.50317159749E+02 -0.15797394680E+02 -0.98431846755E+02  0.11167453917E+03  0.10000000000E+01 0.  0.
<mgrwt>
<rscale>  0 0.12499457E+03</rscale>
<asrwt>0</asrwt>
<pdfrwt beam="2">  1        4 0.69713549E-01 0.12499457E+03</pdfrwt>
<pdfrwt beam="1">  1       -4 0.13261065E-02 0.12499457E+03</pdfrwt>
<totfact> 0.58965629E+03</totfact>
</mgrwt>
</event>
<event>
 5    1  0.3184438E-002  0.1250003E+03  0.7818608E-02  0.1235069E+00
          4   -1    0    0  501    0  0.00000000000E+00  0.00000000000E+00  0.40428587227E+03  0.40428786702E+03  0.12700000000E+01 0.  1.
         -4   -1    0    0    0  501 -0.00000000000E+00 -0.00000000000E+00 -0.96183922587E+01  0.97018745427E+01  0.12700000000E+01 0.  1.
         25    2    1    2    0    0  0.00000000000E+00  0.00000000000E+00  0.39466748001E+03  0.41398974156E+03  0.12500034535E+03 0.  0.
    9000005    1    3    3    0    0 -0.57963035610E+02 -0.10179090179E+01  0.12005036818E+03  0.13331856786E+03  0.10000000000E+01 0.  0.
    9000005    1    3    3    0    0  0.57963035610E+02  0.10179090179E+01  0.27461711183E+03  0.28067117370E+03  0.10000000000E+01 0.  0.
<mgrwt>
<rscale>  0 0.12500035E+03</rscale>
<asrwt>0</asrwt>
<pdfrwt beam="1">  1        4 0.62204391E-01 0.12500035E+03</pdfrwt>
<pdfrwt beam="2">  1       -4 0.14863281E-02 0.12500035E+03</pdfrwt>
<totfact> 0.63214055E+03</totfact>
</mgrwt>
</event>
<event>
 5    1  0.3184438E-002  0.1249968E+03  0.7818608E-02  0.1235074E+00
          4   -1    0    0  501    0  0.00000000000E+00  0.00000000000E+00  0.57252489847E+02  0.57266573965E+02  0.12700000000E+01 0. -1.
         -4   -1    0    0    0  501 -0.00000000000E+00 -0.00000000000E+00 -0.68196580498E+02  0.68208404846E+02  0.12700000000E+01 0. -1.
         25    2    1    2    0    0  0.00000000000E+00  0.00000000000E+00 -0.10944090651E+02  0.12547497881E+03  0.12499678871E+03 0.  0.
    9000005    1    3    3    0    0  0.74795061093E+01 -0.55640148414E+02  0.22078902394E+02  0.60334459955E+02  0.10000000000E+01 0.  0.
    9000005    1    3    3    0    0 -0.74795061093E+01  0.55640148414E+02 -0.33022993046E+02  0.65140518856E+02  0.10000000000E+01 0.  0.
<mgrwt>
<rscale>  0 0.12499679E+03</rscale>
<asrwt>0</asrwt>
<pdfrwt beam="1">  1        4 0.88100683E-02 0.12499679E+03</pdfrwt>
<pdfrwt beam="2">  1       -4 0.10493775E-01 0.12499679E+03</pdfrwt>
<totfact> 0.10443264E+04</totfact>
</mgrwt>
</event>
<event>
 5    1  0.3184438E-002  0.1249960E+03  0.7818608E-02  0.1235076E+00
         -4   -1    0    0    0  501 -0.00000000000E+00  0.00000000000E+00  0.48672476204E+02  0.48689042297E+02  0.12700000000E+01 0. -1.
          4   -1    0    0  501    0  0.00000000000E+00 -0.00000000000E+00 -0.80215449727E+02  0.80225502647E+02  0.12700000000E+01 0. -1.
         25    2    1    2    0    0  0.00000000000E+00  0.00000000000E+00 -0.31542973523E+02  0.12891454494E+03  0.12499600281E+03 0.  0.
    9000005    1    3    3    0    0 -0.36497026047E+02 -0.16687942736E+02 -0.65173871958E+02  0.76545110418E+02  0.10000000000E+01 0.  0.
    9000005    1    3    3    0    0  0.36497026047E+02  0.16687942736E+02  0.33630898434E+02  0.52369434525E+02  0.10000000000E+01 0.  0.
<mgrwt>
<rscale>  0 0.12499600E+03</rscale>
<asrwt>0</asrwt>
<pdfrwt beam="2">  1        4 0.12342886E-01 0.12499600E+03</pdfrwt>
<pdfrwt beam="1">  1       -4 0.74901209E-02 0.12499600E+03</pdfrwt>
<totfact> 0.10368719E+04</totfact>
</mgrwt>
</event>
<event>
 5    1  0.3184438E-002  0.1249984E+03  0.7818608E-02  0.1235072E+00
         -4   -1    0    0    0  501 -0.00000000000E+00  0.00000000000E+00  0.47557655176E+03  0.47557824748E+03  0.12700000000E+01 0.  1.
          4   -1    0    0  501    0  0.00000000000E+00 -0.00000000000E+00 -0.81626889011E+01  0.82608952357E+01  0.12700000000E+01 0.  1.
         25    2    1    2    0    0  0.00000000000E+00  0.00000000000E+00  0.46741386286E+03  0.48383914272E+03  0.12499838735E+03 0.  0.
    9000005    1    3    3    0    0  0.24259701199E+02 -0.14264704262E+01  0.10857809508E+02  0.26635689356E+02  0.10000000000E+01 0.  0.
    9000005    1    3    3    0    0 -0.24259701199E+02  0.14264704262E+01  0.45655605335E+03  0.45720345336E+03  0.10000000000E+01 0.  0.
<mgrwt>
<rscale>  0 0.12499839E+03</rscale>
<asrwt>0</asrwt>
<pdfrwt beam="2">  1        4 0.12634832E-02 0.12499839E+03</pdfrwt>
<pdfrwt beam="1">  1       -4 0.73173300E-01 0.12499839E+03</pdfrwt>
<totfact> 0.57142449E+03</totfact>
</mgrwt>
</event>
<event>
 5    1  0.3184438E-002  0.1250005E+03  0.7818608E-02  0.1235068E+00
          4   -1    0    0  501    0  0.00000000000E+00  0.00000000000E+00  0.14395095302E+03  0.14395655517E+03  0.12700000000E+01 0.  1.
         -4   -1    0    0    0  501 -0.00000000000E+00 -0.00000000000E+00 -0.27115221692E+02  0.27144946996E+02  0.12700000000E+01 0.  1.
         25    2    1    2    0    0  0.00000000000E+00  0.00000000000E+00  0.11683573133E+03  0.17110150217E+03  0.12500054371E+03 0.  0.
    9000005    1    3    3    0    0 -0.25257874057E+02 -0.56301658996E+02  0.44905664569E+02  0.76324017963E+02  0.10000000000E+01 0.  0.
    9000005    1    3    3    0    0  0.25257874057E+02  0.56301658996E+02  0.71930066762E+02  0.94777484204E+02  0.10000000000E+01 0.  0.
<mgrwt>
<rscale>  0 0.12500054E+03</rscale>
<asrwt>0</asrwt>
<pdfrwt beam="1">  1        4 0.22149018E-01 0.12500054E+03</pdfrwt>
<pdfrwt beam="2">  1       -4 0.41742901E-02 0.12500054E+03</pdfrwt>
<totfact> 0.95242567E+03</totfact>
</mgrwt>
</event>
<event>
 5    1  0.3184438E-002  0.1249474E+03  0.7818608E-02  0.1235152E+00
         -4   -1    0    0    0  501 -0.00000000000E+00  0.00000000000E+00  0.89784755667E+02  0.89793737254E+02  0.12700000000E+01 0.  1.
          4   -1    0    0  501    0  0.00000000000E+00 -0.00000000000E+00 -0.43449780544E+02  0.43468337089E+02  0.12700000000E+01 0.  1.
         25    2    1    2    0    0  0.00000000000E+00  0.00000000000E+00  0.46334975123E+02  0.13326207434E+03  0.12494739108E+03 0.  0.
    9000005    1    3    3    0    0 -0.45687243882E+02 -0.42118983391E+02  0.29965794251E+02  0.68994795750E+02  0.10000000000E+01 0.  0.
    9000005    1    3    3    0    0  0.45687243882E+02  0.42118983391E+02  0.16369180872E+02  0.64267278594E+02  0.10000000000E+01 0.  0.
<mgrwt>
<rscale>  0 0.12494739E+03</rscale>
<asrwt>0</asrwt>
<pdfrwt beam="2">  1        4 0.66867000E-02 0.12494739E+03</pdfrwt>
<pdfrwt beam="1">  1       -4 0.13815157E-01 0.12494739E+03</pdfrwt>
<totfact> 0.10287036E+04</totfact>
</mgrwt>
</event>
<event>
 5    1  0.3184438E-002  0.1250017E+03  0.7818608E-02  0.1235067E+00
         -4   -1    0    0    0  501 -0.00000000000E+00  0.00000000000E+00  0.26631563226E+02  0.26661827767E+02  0.12700000000E+01 0.  1.
          4   -1    0    0  501    0  0.00000000000E+00 -0.00000000000E+00 -0.14656515955E+03  0.14657066178E+03  0.12700000000E+01 0.  1.
         25    2    1    2    0    0  0.00000000000E+00  0.00000000000E+00 -0.11993359632E+03  0.17323248954E+03  0.12500171161E+03 0.  0.
    9000005    1    3    3    0    0  0.28808176004E+02 -0.52417194956E+02 -0.34872603411E+02  0.69242846565E+02  0.10000000000E+01 0.  0.
    9000005    1    3    3    0    0 -0.28808176004E+02  0.52417194956E+02 -0.85060992910E+02  0.10398964298E+03  0.10000000000E+01 0.  0.
<mgrwt>
<rscale>  0 0.12500171E+03</rscale>
<asrwt>0</asrwt>
<pdfrwt beam="2">  1        4 0.22551237E-01 0.12500171E+03</pdfrwt>
<pdfrwt beam="1">  1       -4 0.40999150E-02 0.12500171E+03</pdfrwt>
<totfact> 0.94845914E+03</totfact>
</mgrwt>
</event>
<event>
 5    1  0.3184438E-002  0.1250030E+03  0.7818608E-02  0.1235065E+00
          4   -1    0    0  501    0  0.00000000000E+00  0.00000000000E+00  0.50039888952E+03  0.50040050114E+03  0.12700000000E+01 0. -1.
         -4   -1    0    0    0  501 -0.00000000000E+00 -0.00000000000E+00 -0.77533607174E+01  0.78566852052E+01  0.12700000000E+01 0. -1.
         25    2    1    2    0    0  0.00000000000E+00  0.00000000000E+00  0.49264552881E+03  0.50825718634E+03  0.12500300162E+03 0.  0.
    9000005    1    3    3    0    0 -0.61034226960E+02  0.53052901266E+01  0.29647018424E+03  0.30273568192E+03  0.10000000000E+01 0.  0.
    9000005    1    3    3    0    0  0.61034226960E+02 -0.53052901266E+01  0.19617534457E+03  0.20552150442E+03  0.10000000000E+01 0.  0.
<mgrwt>
<rscale>  0 0.12500300E+03</rscale>
<asrwt>0</asrwt>
<pdfrwt beam="1">  1        4 0.76992528E-01 0.12500300E+03</pdfrwt>
<pdfrwt beam="2">  1       -4 0.12008966E-02 0.12500300E+03</pdfrwt>
<totfact> 0.55225703E+03</totfact>
</mgrwt>
</event>
<event>
 5    1  0.3184438E-002  0.1250021E+03  0.7818608E-02  0.1235066E+00
         -4   -1    0    0    0  501 -0.00000000000E+00  0.00000000000E+00  0.11951387228E+03  0.11952061984E+03  0.12700000000E+01 0.  1.
          4   -1    0    0  501    0  0.00000000000E+00 -0.00000000000E+00 -0.32665552963E+02  0.32690231728E+02  0.12700000000E+01 0.  1.
         25    2    1    2    0    0  0.00000000000E+00  0.00000000000E+00  0.86848319313E+02  0.15221085157E+03  0.12500205105E+03 0.  0.
    9000005    1    3    3    0    0 -0.12846468005E+02 -0.61153752663E+02  0.42508893065E+02  0.75583193863E+02  0.10000000000E+01 0.  0.
    9000005    1    3    3    0    0  0.12846468005E+02  0.61153752663E+02  0.44339426248E+02  0.76627657702E+02  0.10000000000E+01 0.  0.
<mgrwt>
<rscale>  0 0.12500205E+03</rscale>
<asrwt>0</asrwt>
<pdfrwt beam="2">  1        4 0.50278871E-02 0.12500205E+03</pdfrwt>
<pdfrwt beam="1">  1       -4 0.18389167E-01 0.12500205E+03</pdfrwt>
<totfact> 0.98860247E+03</totfact>
</mgrwt>
</event>
<event>
 5    1  0.3184438E-002  0.1249961E+03  0.7818608E-02  0.1235075E+00
         -4   -1    0    0    0  501 -0.00000000000E+00  0.00000000000E+00  0.32652238972E+02  0.32676927791E+02  0.12700000000E+01 0.  1.
          4   -1    0    0  501    0  0.00000000000E+00 -0.00000000000E+00 -0.11955113938E+03  0.11955788484E+03  0.12700000000E+01 0.  1.
         25    2    1    2    0    0  0.00000000000E+00  0.00000000000E+00 -0.86898900412E+02  0.15223481263E+03  0.12499607708E+03 0.  0.
    9000005    1    3    3    0    0  0.31356616833E+02 -0.44481409095E+01 -0.10905867547E+03  0.11356856110E+03  0.10000000000E+01 0.  0.
    9000005    1    3    3    0    0 -0.31356616833E+02  0.44481409095E+01  0.22159775055E+02  0.38666251529E+02  0.10000000000E+01 0.  0.
<mgrwt>
<rscale>  0 0.12499608E+03</rscale>
<asrwt>0</asrwt>
<pdfrwt beam="2">  1        4 0.18394901E-01 0.12499608E+03</pdfrwt>
<pdfrwt beam="1">  1       -4 0.50258394E-02 0.12499608E+03</pdfrwt>
<totfact> 0.98868800E+03</totfact>
</mgrwt>
</event>
<event>
 5    1  0.3184438E-002  0.1250141E+03  0.7818608E-02  0.1235047E+00
          4   -1    0    0  501    0  0.00000000000E+00  0.00000000000E+00  0.59257250682E+03  0.59257386775E+03  0.12700000000E+01 0.  1.
         -4   -1    0    0    0  501 -0.00000000000E+00 -0.00000000000E+00 -0.65309762479E+01  0.66533112621E+01  0.12700000000E+01 0.  1.
         25    2    1    2    0    0  0.00000000000E+00  0.00000000000E+00  0.58604153058E+03  0.59922717901E+03  0.12501414524E+03 0.  0.
    9000005    1    3    3    0    0 -0.30240049196E+02  0.23591518555E+02  0.52955389533E+03  0.53094194445E+03  0.10000000000E+01 0.  0.
    9000005    1    3    3    0    0  0.30240049196E+02 -0.23591518555E+02  0.56487635246E+02  0.68285234559E+02  0.10000000000E+01 0.  0.
<mgrwt>
<rscale>  0 0.12501415E+03</rscale>
<asrwt>0</asrwt>
<pdfrwt beam="1">  1        4 0.91174529E-01 0.12501415E+03</pdfrwt>
<pdfrwt beam="2">  1       -4 0.10142805E-02 0.12501415E+03</pdfrwt>
<totfact> 0.48901255E+03</totfact>
</mgrwt>
</event>
<event>
 5    1  0.3184438E-002  0.1250022E+03  0.7818608E-02  0.1235066E+00
          4   -1    0    0  501    0  0.00000000000E+00  0.00000000000E+00  0.36273838689E+02  0.36296064156E+02  0.12700000000E+01 0.  1.
         -4   -1    0    0    0  501 -0.00000000000E+00 -0.00000000000E+00 -0.10763268759E+03  0.10764017994E+03  0.12700000000E+01 0.  1.
         25    2    1    2    0    0  0.00000000000E+00  0.00000000000E+00 -0.71358848900E+02  0.14393624410E+03  0.12500222817E+03 0.  0.
    9000005    1    3    3    0    0 -0.47976901281E+02  0.29399299669E+02 -0.43711552655E+01  0.56446513408E+02  0.10000000000E+01 0.  0.
    9000005    1    3    3    0    0  0.47976901281E+02 -0.29399299669E+02 -0.66987693635E+02  0.87489730689E+02  0.10000000000E+01 0.  0.
<mgrwt>
<rscale>  0 0.12500223E+03</rscale>
<asrwt>0</asrwt>
<pdfrwt beam="1">  1        4 0.55828766E-02 0.12500223E+03</pdfrwt>
<pdfrwt beam="2">  1       -4 0.16561161E-01 0.12500223E+03</pdfrwt>
<totfact> 0.10052142E+04</totfact>
</mgrwt>
</event>
<event>
 5    1  0.3184438E-002  0.1250192E+03  0.7818608E-02  0.1235039E+00
         -4   -1    0    0    0  501 -0.00000000000E+00  0.00000000000E+00  0.16341107381E+04  0.16341112316E+04  0.12700000000E+01 0. -1.
          4   -1    0    0  501    0  0.00000000000E+00 -0.00000000000E+00 -0.22220186459E+01  0.25593489138E+01  0.12700000000E+01 0. -1.
         25    2    1    2    0    0  0.00000000000E+00  0.00000000000E+00  0.16318887194E+04  0.16366705805E+04  0.12501918441E+03 0.  0.
    9000005    1    3    3    0    0 -0.18037714882E+02 -0.22478272534E+02  0.89897123066E+02  0.94409346093E+02  0.10000000000E+01 0.  0.
    9000005    1    3    3    0    0  0.18037714882E+02  0.22478272534E+02  0.15419915964E+04  0.15422612344E+04  0.10000000000E+01 0.  0.
<mgrwt>
<rscale>  0 0.12501918E+03</rscale>
<asrwt>0</asrwt>
<pdfrwt beam="2">  1        4 0.36783449E-03 0.12501918E+03</pdfrwt>
<pdfrwt beam="1">  1       -4 0.25142831E+00 0.12501918E+03</pdfrwt>
<totfact> 0.15385816E+03</totfact>
</mgrwt>
</event>
<event>
 5    1  0.3184438E-002  0.1249983E+03  0.7818608E-02  0.1235072E+00
          4   -1    0    0  501    0  0.00000000000E+00  0.00000000000E+00  0.79858372595E+02  0.79868470459E+02  0.12700000000E+01 0. -1.
         -4   -1    0    0    0  501 -0.00000000000E+00 -0.00000000000E+00 -0.48891920104E+02  0.48908411868E+02  0.12700000000E+01 0. -1.
         25    2    1    2    0    0  0.00000000000E+00  0.00000000000E+00  0.30966452491E+02  0.12877688233E+03  0.12499825696E+03 0.  0.
    9000005    1    3    3    0    0  0.24840355363E+02  0.20524130583E+02  0.70644848624E+02  0.77652931869E+02  0.10000000000E+01 0.  0.
    9000005    1    3    3    0    0 -0.24840355363E+02 -0.20524130583E+02 -0.39678396133E+02  0.51123950458E+02  0.10000000000E+01 0.  0.
<mgrwt>
<rscale>  0 0.12499826E+03</rscale>
<asrwt>0</asrwt>
<pdfrwt beam="1">  1        4 0.12287949E-01 0.12499826E+03</pdfrwt>
<pdfrwt beam="2">  1       -4 0.75238793E-02 0.12499826E+03</pdfrwt>
<totfact> 0.10371152E+04</totfact>
</mgrwt>
</event>
<event>
 5    1  0.3184438E-002  0.1250017E+03  0.7818608E-02  0.1235067E+00
         -4   -1    0    0    0  501 -0.00000000000E+00  0.00000000000E+00  0.22772090912E+02  0.22807477381E+02  0.12700000000E+01 0. -1.
          4   -1    0    0  501    0  0.00000000000E+00 -0.00000000000E+00 -0.17137044212E+03  0.17137514794E+03  0.12700000000E+01 0. -1.
         25    2    1    2    0    0  0.00000000000E+00  0.00000000000E+00 -0.14859835121E+03  0.19418262532E+03  0.12500168797E+03 0.  0.
    9000005    1    3    3    0    0  0.44165010010E+02  0.40711795159E+02 -0.47511584249E+02  0.76592094971E+02  0.10000000000E+01 0.  0.
    9000005    1    3    3    0    0 -0.44165010010E+02 -0.40711795159E+02 -0.10108676696E+03  0.11759053035E+03  0.10000000000E+01 0.  0.
<mgrwt>
<rscale>  0 0.12500169E+03</rscale>
<asrwt>0</asrwt>
<pdfrwt beam="2">  1        4 0.26367767E-01 0.12500169E+03</pdfrwt>
<pdfrwt beam="1">  1       -4 0.35064827E-02 0.12500169E+03</pdfrwt>
<totfact> 0.91121158E+03</totfact>
</mgrwt>
</event>
<event>
 5    1  0.3184438E-002  0.1249973E+03  0.7818608E-02  0.1235073E+00
         -4   -1    0    0    0  501 -0.00000000000E+00  0.00000000000E+00  0.11838250806E+04  0.11838257618E+04  0.12700000000E+01 0.  1.
          4   -1    0    0  501    0  0.00000000000E+00 -0.00000000000E+00 -0.31766294905E+01  0.34210926500E+01  0.12700000000E+01 0.  1.
         25    2    1    2    0    0  0.00000000000E+00  0.00000000000E+00  0.11806484511E+04  0.11872468545E+04  0.12499731337E+03 0.  0.
    9000005    1    3    3    0    0  0.46054499650E+01 -0.10820841549E+02  0.11732665015E+04  0.11733258645E+04  0.10000000000E+01 0.  0.
    9000005    1    3    3    0    0 -0.46054499650E+01  0.10820841549E+02  0.73819495795E+01  0.13920989936E+02  0.10000000000E+01 0.  0.
<mgrwt>
<rscale>  0 0.12499731E+03</rscale>
<asrwt>0</asrwt>
<pdfrwt beam="2">  1        4 0.50756987E-03 0.12499731E+03</pdfrwt>
<pdfrwt beam="1">  1       -4 0.18214566E+00 0.12499731E+03</pdfrwt>
<totfact> 0.25050513E+03</totfact>
</mgrwt>
</event>
<event>
 5    1  0.3184438E-002  0.1249998E+03  0.7818608E-02  0.1235070E+00
          4   -1    0    0  501    0  0.00000000000E+00  0.00000000000E+00  0.21513867900E+02  0.21551320424E+02  0.12700000000E+01 0. -1.
         -4   -1    0    0    0  501 -0.00000000000E+00 -0.00000000000E+00 -0.18137077733E+03  0.18137522369E+03  0.12700000000E+01 0. -1.
         25    2    1    2    0    0  0.00000000000E+00  0.00000000000E+00 -0.15985690943E+03  0.20292654411E+03  0.12499980326E+03 0.  0.
    9000005    1    3    3    0    0  0.21303324164E+02  0.51118497840E+02 -0.32924908385E+02  0.64435875364E+02  0.10000000000E+01 0.  0.
    9000005    1    3    3    0    0 -0.21303324164E+02 -0.51118497840E+02 -0.12693200104E+03  0.13849066875E+03  0.10000000000E+01 0.  0.
<mgrwt>
<rscale>  0 0.12499980E+03</rscale>
<asrwt>0</asrwt>
<pdfrwt beam="1">  1        4 0.33130489E-02 0.12499980E+03</pdfrwt>
<pdfrwt beam="2">  1       -4 0.27906418E-01 0.12499980E+03</pdfrwt>
<totfact> 0.89644653E+03</totfact>
</mgrwt>
</event>
<event>
 5    1  0.3184438E-002  0.1250006E+03  0.7818608E-02  0.1235068E+00
         -4   -1    0    0    0  501 -0.00000000000E+00  0.00000000000E+00  0.38441113710E+01  0.40484678870E+01  0.12700000000E+01 0. -1.
          4   -1    0    0  501    0  0.00000000000E+00 -0.00000000000E+00 -0.98965845626E+03  0.98965927114E+03  0.12700000000E+01 0. -1.
         25    2    1    2    0    0  0.00000000000E+00  0.00000000000E+00 -0.98581434489E+03  0.99370773902E+03  0.12500059203E+03 0.  0.
    9000005    1    3    3    0    0  0.47490344668E+02  0.39100292924E+02 -0.58039684459E+03  0.58364857831E+03  0.10000000000E+01 0.  0.
    9000005    1    3    3    0    0 -0.47490344668E+02 -0.39100292924E+02 -0.40541750030E+03  0.41005916072E+03  0.10000000000E+01 0.  0.
<mgrwt>
<rscale>  0 0.12500059E+03</rscale>
<asrwt>0</asrwt>
<pdfrwt beam="2">  1        4 0.15227073E+00 0.12500059E+03</pdfrwt>
<pdfrwt beam="1">  1       -4 0.60718495E-03 0.12500059E+03</pdfrwt>
<totfact> 0.30812797E+03</totfact>
</mgrwt>
</event>
<event>
 5    1  0.3184438E-002  0.1249792E+03  0.7818608E-02  0.1235102E+00
          4   -1    0    0  501    0  0.00000000000E+00  0.00000000000E+00  0.47380349682E+02  0.47397367395E+02  0.12700000000E+01 0.  1.
         -4   -1    0    0    0  501 -0.00000000000E+00 -0.00000000000E+00 -0.82380418125E+02  0.82390206885E+02  0.12700000000E+01 0.  1.
         25    2    1    2    0    0  0.00000000000E+00  0.00000000000E+00 -0.35000068443E+02  0.12978757428E+03  0.12497923686E+03 0.  0.
    9000005    1    3    3    0    0 -0.16886380422E+02  0.59991494121E+02 -0.12876414169E+02  0.63646926497E+02  0.10000000000E+01 0.  0.
    9000005    1    3    3    0    0  0.16886380422E+02 -0.59991494121E+02 -0.22123654275E+02  0.66140647783E+02  0.10000000000E+01 0.  0.
<mgrwt>
<rscale>  0 0.12497924E+03</rscale>
<asrwt>0</asrwt>
<pdfrwt beam="1">  1        4 0.72913466E-02 0.12497924E+03</pdfrwt>
<pdfrwt beam="2">  1       -4 0.12675973E-01 0.12497924E+03</pdfrwt>
<totfact> 0.10353906E+04</totfact>
</mgrwt>
</event>
<event>
 5    1  0.3184438E-002  0.1249914E+03  0.7818608E-02  0.1235083E+00
         -4   -1    0    0    0  501 -0.00000000000E+00  0.00000000000E+00  0.27883396669E+03  0.27883685890E+03  0.12700000000E+01 0.  1.
          4   -1    0    0  501    0  0.00000000000E+00 -0.00000000000E+00 -0.13975553592E+02  0.14033139286E+02  0.12700000000E+01 0.  1.
         25    2    1    2    0    0  0.00000000000E+00  0.00000000000E+00  0.26485841310E+03  0.29286999818E+03  0.12499142710E+03 0.  0.
    9000005    1    3    3    0    0 -0.13308098727E+02  0.59769269233E+02  0.10323471495E+03  0.12003281805E+03  0.10000000000E+01 0.  0.
    9000005    1    3    3    0    0  0.13308098727E+02 -0.59769269233E+02  0.16162369814E+03  0.17283718014E+03  0.10000000000E+01 0.  0.
<mgrwt>
<rscale>  0 0.12499143E+03</rscale>
<asrwt>0</asrwt>
<pdfrwt beam="2">  1        4 0.21547374E-02 0.12499143E+03</pdfrwt>
<pdfrwt beam="1">  1       -4 0.42902185E-01 0.12499143E+03</pdfrwt>
<totfact> 0.76516573E+03</totfact>
</mgrwt>
</event>
<event>
 5    1  0.3184438E-002  0.1250015E+03  0.7818608E-02  0.1235067E+00
         -4   -1    0    0    0  501 -0.00000000000E+00  0.00000000000E+00  0.10699451843E+02  0.10774561232E+02  0.12700000000E+01 0.  1.
          4   -1    0    0  501    0  0.00000000000E+00 -0.00000000000E+00 -0.36374430055E+03  0.36374651762E+03  0.12700000000E+01 0.  1.
         25    2    1    2    0    0  0.00000000000E+00  0.00000000000E+00 -0.35304484870E+03  0.37452107885E+03  0.12500149322E+03 0.  0.
    9000005    1    3    3    0    0 -0.55623548330E+01  0.60331963566E+02 -0.22239924599E+03  0.23050663816E+03  0.10000000000E+01 0.  0.
    9000005    1    3    3    0    0  0.55623548330E+01 -0.60331963566E+02 -0.13064560271E+03  0.14401444069E+03  0.10000000000E+01 0.  0.
<mgrwt>
<rscale>  0 0.12500149E+03</rscale>
<asrwt>0</asrwt>
<pdfrwt beam="2">  1        4 0.55966600E-01 0.12500149E+03</pdfrwt>
<pdfrwt beam="1">  1       -4 0.16520180E-02 0.12500149E+03</pdfrwt>
<totfact> 0.67106375E+03</totfact>
</mgrwt>
</event>
<event>
 5    1  0.3184438E-002  0.1249921E+03  0.7818608E-02  0.1235082E+00
          4   -1    0    0  501    0  0.00000000000E+00  0.00000000000E+00  0.83538522599E+02  0.83548175671E+02  0.12700000000E+01 0. -1.
         -4   -1    0    0    0  501 -0.00000000000E+00 -0.00000000000E+00 -0.46732996922E+02  0.46750250281E+02  0.12700000000E+01 0. -1.
         25    2    1    2    0    0  0.00000000000E+00  0.00000000000E+00  0.36805525677E+02  0.13029842595E+03  0.12499213209E+03 0.  0.
    9000005    1    3    3    0    0 -0.54042889202E+01  0.73606726123E+01  0.82844342259E+02  0.83352089862E+02  0.10000000000E+01 0.  0.
    9000005    1    3    3    0    0  0.54042889202E+01 -0.73606726123E+01 -0.46038816582E+02  0.46946336090E+02  0.10000000000E+01 0.  0.
<mgrwt>
<rscale>  0 0.12499213E+03</rscale>
<asrwt>0</asrwt>
<pdfrwt beam="1">  1        4 0.12854150E-01 0.12499213E+03</pdfrwt>
<pdfrwt beam="2">  1       -4 0.71917617E-02 0.12499213E+03</pdfrwt>
<totfact> 0.10339964E+04</totfact>
</mgrwt>
</event>
<event>
 5    1  0.3184438E-002  0.1250022E+03  0.7818608E-02  0.1235066E+00
         -4   -1    0    0    0  501 -0.00000000000E+00  0.00000000000E+00  0.49902648304E+02  0.49918806153E+02  0.12700000000E+01 0. -1.
          4   -1    0    0  501    0  0.00000000000E+00 -0.00000000000E+00 -0.78246157222E+02  0.78256463119E+02  0.12700000000E+01 0. -1.
         25    2    1    2    0    0  0.00000000000E+00  0.00000000000E+00 -0.28343508918E+02  0.12817526927E+03  0.12500218060E+03 0.  0.
    9000005    1    3    3    0    0  0.40904114886E+02 -0.21725801953E+02 -0.57191839085E+02  0.73600703414E+02  0.10000000000E+01 0.  0.
    9000005    1    3    3    0    0 -0.40904114886E+02  0.21725801953E+02  0.28848330167E+02  0.54574565858E+02  0.10000000000E+01 0.  0.
<mgrwt>
<rscale>  0 0.12500218E+03</rscale>
<asrwt>0</asrwt>
<pdfrwt beam="2">  1        4 0.12039906E-01 0.12500218E+03</pdfrwt>
<pdfrwt beam="1">  1       -4 0.76793661E-02 0.12500218E+03</pdfrwt>
<totfact> 0.10383193E+04</totfact>
</mgrwt>
</event>
<event>
 5    1  0.3184438E-002  0.1250024E+03  0.7818608E-02  0.1235066E+00
          4   -1    0    0  501    0  0.00000000000E+00  0.00000000000E+00  0.74126744694E+01  0.75206810057E+01  0.12700000000E+01 0. -1.
         -4   -1    0    0    0  501 -0.00000000000E+00 -0.00000000000E+00 -0.52306904757E+03  0.52307058933E+03  0.12700000000E+01 0. -1.
         25    2    1    2    0    0  0.00000000000E+00  0.00000000000E+00 -0.51565637310E+03  0.53059127034E+03  0.12500240414E+03 0.  0.
    9000005    1    3    3    0    0  0.23774853993E+02 -0.26793191448E+02 -0.40467304564E+02  0.54052951159E+02  0.10000000000E+01 0.  0.
    9000005    1    3    3    0    0 -0.23774853993E+02  0.26793191448E+02 -0.47518906853E+03  0.47653831918E+03  0.10000000000E+01 0.  0.
<mgrwt>
<rscale>  0 0.12500240E+03</rscale>
<asrwt>0</asrwt>
<pdfrwt beam="1">  1        4 0.11488387E-02 0.12500240E+03</pdfrwt>
<pdfrwt beam="2">  1       -4 0.80480559E-01 0.12500240E+03</pdfrwt>
<totfact> 0.53563781E+03</totfact>
</mgrwt>
</event>
<event>
 5    1  0.3184438E-002  0.1249974E+03  0.7818608E-02  0.1235073E+00
          4   -1    0    0  501    0  0.00000000000E+00  0.00000000000E+00  0.13481235250E+02  0.13540923302E+02  0.12700000000E+01 0. -1.
         -4   -1    0    0    0  501 -0.00000000000E+00 -0.00000000000E+00 -0.28904162508E+03  0.28904441515E+03  0.12700000000E+01 0. -1.
         25    2    1    2    0    0  0.00000000000E+00  0.00000000000E+00 -0.27556038983E+03  0.30258533846E+03  0.12499743439E+03 0.  0.
    9000005    1    3    3    0    0  0.22112354798E+02  0.56927165468E+02 -0.10571748263E+03  0.12209358925E+03  0.10000000000E+01 0.  0.
    9000005    1    3    3    0    0 -0.22112354798E+02 -0.56927165468E+02 -0.16984290721E+03  0.18049174921E+03  0.10000000000E+01 0.  0.
<mgrwt>
<rscale>  0 0.12499743E+03</rscale>
<asrwt>0</asrwt>
<pdfrwt beam="1">  1        4 0.20788424E-02 0.12499743E+03</pdfrwt>
<pdfrwt beam="2">  1       -4 0.44472744E-01 0.12499743E+03</pdfrwt>
<totfact> 0.75279968E+03</totfact>
</mgrwt>
</event>
<event>
 5    1  0.3184438E-002  0.1249781E+03  0.7818608E-02  0.1235103E+00
         -4   -1    0    0    0  501 -0.00000000000E+00  0.00000000000E+00  0.40233169864E+02  0.40253209279E+02  0.12700000000E+01 0.  1.
          4   -1    0    0  501    0  0.00000000000E+00 -0.00000000000E+00 -0.97007946079E+02  0.97016258959E+02  0.12700000000E+01 0.  1.
         25    2    1    2    0    0  0.00000000000E+00  0.00000000000E+00 -0.56774776215E+02  0.13726946824E+03  0.12497812487E+03 0.  0.
    9000005    1    3    3    0    0  0.20406474376E+00 -0.16381640427E+02 -0.94612242833E+02  0.96025393930E+02  0.10000000000E+01 0.  0.
    9000005    1    3    3    0    0 -0.20406474376E+00  0.16381640427E+02  0.37837466618E+02  0.41244074309E+02  0.10000000000E+01 0.  0.
<mgrwt>
<rscale>  0 0.12497812E+03</rscale>
<asrwt>0</asrwt>
<pdfrwt beam="2">  1        4 0.14926480E-01 0.12497812E+03</pdfrwt>
<pdfrwt beam="1">  1       -4 0.61918994E-02 0.12497812E+03</pdfrwt>
<totfact> 0.10195482E+04</totfact>
</mgrwt>
</event>
<event>
 5    1  0.3184438E-002  0.1250001E+03  0.7818608E-02  0.1235069E+00
         -4   -1    0    0    0  501 -0.00000000000E+00  0.00000000000E+00  0.34040213874E+01  0.36332164271E+01  0.12700000000E+01 0.  1.
          4   -1    0    0  501    0  0.00000000000E+00 -0.00000000000E+00 -0.11099371627E+04  0.11099378893E+04  0.12700000000E+01 0.  1.
         25    2    1    2    0    0  0.00000000000E+00  0.00000000000E+00 -0.11065331413E+04  0.11135711057E+04  0.12500005850E+03 0.  0.
    9000005    1    3    3    0    0 -0.19515092151E+02  0.51446090560E+02 -0.28933921968E+03  0.29452626895E+03  0.10000000000E+01 0.  0.
    9000005    1    3    3    0    0  0.19515092151E+02 -0.51446090560E+02 -0.81719392163E+03  0.81904483675E+03  0.10000000000E+01 0.  0.
<mgrwt>
<rscale>  0 0.12500006E+03</rscale>
<asrwt>0</asrwt>
<pdfrwt beam="2">  1        4 0.17077697E+00 0.12500006E+03</pdfrwt>
<pdfrwt beam="1">  1       -4 0.54138276E-03 0.12500006E+03</pdfrwt>
<totfact> 0.27089583E+03</totfact>
</mgrwt>
</event>
<event>
 5    1  0.3184438E-002  0.1250017E+03  0.7818608E-02  0.1235067E+00
          4   -1    0    0  501    0  0.00000000000E+00  0.00000000000E+00  0.15158021750E+02  0.15211131561E+02  0.12700000000E+01 0. -1.
         -4   -1    0    0    0  501 -0.00000000000E+00 -0.00000000000E+00 -0.25720335945E+03  0.25720649489E+03  0.12700000000E+01 0. -1.
         25    2    1    2    0    0  0.00000000000E+00  0.00000000000E+00 -0.24204533770E+03  0.27241762645E+03  0.12500167078E+03 0.  0.
    9000005    1    3    3    0    0  0.50285157409E+02 -0.18196300527E+02 -0.50551256365E+02  0.73594374300E+02  0.10000000000E+01 0.  0.
    9000005    1    3    3    0    0 -0.50285157409E+02  0.18196300527E+02 -0.19149408133E+03  0.19882325215E+03  0.10000000000E+01 0.  0.
<mgrwt>
<rscale>  0 0.12500167E+03</rscale>
<asrwt>0</asrwt>
<pdfrwt beam="1">  1        4 0.23363301E-02 0.12500167E+03</pdfrwt>
<pdfrwt beam="2">  1       -4 0.39574071E-01 0.12500167E+03</pdfrwt>
<totfact> 0.79191394E+03</totfact>
</mgrwt>
</event>
<event>
 5    1  0.3184438E-002  0.1250019E+03  0.7818608E-02  0.1235066E+00
         -4   -1    0    0    0  501 -0.00000000000E+00  0.00000000000E+00  0.35123557816E+02  0.35146510689E+02  0.12700000000E+01 0. -1.
          4   -1    0    0  501    0  0.00000000000E+00 -0.00000000000E+00 -0.11115492884E+03  0.11116218379E+03  0.12700000000E+01 0. -1.
         25    2    1    2    0    0  0.00000000000E+00  0.00000000000E+00 -0.76031371020E+02  0.14630869448E+03  0.12500185879E+03 0.  0.
    9000005    1    3    3    0    0 -0.46005037587E+02  0.37173751069E+02 -0.61629102178E+02  0.85425391349E+02  0.10000000000E+01 0.  0.
    9000005    1    3    3    0    0  0.46005037587E+02 -0.37173751069E+02 -0.14402268843E+02  0.60883303128E+02  0.10000000000E+01 0.  0.
<mgrwt>
<rscale>  0 0.12500186E+03</rscale>
<asrwt>0</asrwt>
<pdfrwt beam="2">  1        4 0.17103082E-01 0.12500186E+03</pdfrwt>
<pdfrwt beam="1">  1       -4 0.54059480E-02 0.12500186E+03</pdfrwt>
<totfact> 0.10004047E+04</totfact>
</mgrwt>
</event>
<event>
 5    1  0.3184438E-002  0.1250013E+03  0.7818608E-02  0.1235067E+00
         -4   -1    0    0    0  501 -0.00000000000E+00  0.00000000000E+00  0.43150556977E+03  0.43150743869E+03  0.12700000000E+01 0. -1.
          4   -1    0    0  501    0  0.00000000000E+00 -0.00000000000E+00 -0.90063595572E+01  0.90954610918E+01  0.12700000000E+01 0. -1.
         25    2    1    2    0    0  0.00000000000E+00  0.00000000000E+00  0.42249921022E+03  0.44060289978E+03  0.12500133065E+03 0.  0.
    9000005    1    3    3    0    0 -0.14138777483E+02  0.55456522907E+02  0.29972117820E+03  0.30513786331E+03  0.10000000000E+01 0.  0.
    9000005    1    3    3    0    0  0.14138777483E+02 -0.55456522907E+02  0.12277803201E+03  0.13546503647E+03  0.10000000000E+01 0.  0.
<mgrwt>
<rscale>  0 0.12500133E+03</rscale>
<asrwt>0</asrwt>
<pdfrwt beam="2">  1        4 0.13925915E-02 0.12500133E+03</pdfrwt>
<pdfrwt beam="1">  1       -4 0.66392472E-01 0.12500133E+03</pdfrwt>
<totfact> 0.60784737E+03</totfact>
</mgrwt>
</event>
<event>
 5    1  0.3184438E-002  0.1250046E+03  0.7818608E-02  0.1235062E+00
          4   -1    0    0  501    0  0.00000000000E+00  0.00000000000E+00  0.88971006005E+02  0.88980069733E+02  0.12700000000E+01 0. -1.
         -4   -1    0    0    0  501 -0.00000000000E+00 -0.00000000000E+00 -0.43887508464E+02  0.43905880007E+02  0.12700000000E+01 0. -1.
         25    2    1    2    0    0  0.00000000000E+00  0.00000000000E+00  0.45083497542E+02  0.13288594974E+03  0.12500461546E+03 0.  0.
    9000005    1    3    3    0    0 -0.13312971847E+00 -0.22021110538E+01  0.88934811357E+02  0.88967790170E+02  0.10000000000E+01 0.  0.
    9000005    1    3    3    0    0  0.13312971847E+00  0.22021110538E+01 -0.43851313815E+02  0.43918159569E+02  0.10000000000E+01 0.  0.
<mgrwt>
<rscale>  0 0.12500462E+03</rscale>
<asrwt>0</asrwt>
<pdfrwt beam="1">  1        4 0.13689957E-01 0.12500462E+03</pdfrwt>
<pdfrwt beam="2">  1       -4 0.67540348E-02 0.12500462E+03</pdfrwt>
<totfact> 0.10281754E+04</totfact>
</mgrwt>
</event>
<event>
 5    1  0.3184438E-002  0.1250007E+03  0.7818608E-02  0.1235068E+00
          4   -1    0    0  501    0  0.00000000000E+00  0.00000000000E+00  0.45032250630E+02  0.45050155347E+02  0.12700000000E+01 0.  1.
         -4   -1    0    0    0  501 -0.00000000000E+00 -0.00000000000E+00 -0.86704623862E+02  0.86713924482E+02  0.12700000000E+01 0.  1.
         25    2    1    2    0    0  0.00000000000E+00  0.00000000000E+00 -0.41672373232E+02  0.13176407983E+03  0.12500074417E+03 0.  0.
    9000005    1    3    3    0    0 -0.17204829134E+02 -0.55552769701E+02  0.32745268216E+01  0.58256663935E+02  0.10000000000E+01 0.  0.
    9000005    1    3    3    0    0  0.17204829134E+02  0.55552769701E+02 -0.44946900054E+02  0.73507415894E+02  0.10000000000E+01 0.  0.
<mgrwt>
<rscale>  0 0.12500074E+03</rscale>
<asrwt>0</asrwt>
<pdfrwt beam="1">  1        4 0.69301313E-02 0.12500074E+03</pdfrwt>
<pdfrwt beam="2">  1       -4 0.13341266E-01 0.12500074E+03</pdfrwt>
<totfact> 0.10306563E+04</totfact>
</mgrwt>
</event>
<event>
 4    1  0.3184438E-002  0.1248840E+03  0.7818608E-02  0.1235251E+00
          4   -1    0    0  501    0  0.00000000000E+00  0.00000000000E+00  0.18410074850E+02  0.18453827678E+02  0.12700000000E+01 0.  1.
         -4   -1    0    0    0  501 -0.00000000000E+00 -0.00000000000E+00 -0.21148941223E+03  0.21149322539E+03  0.12700000000E+01 0.  1.
    9000005    1    1    2    0    0 -0.39980884183E-01  0.41889088029E+02 -0.18178354326E+03  0.18655013775E+03  0.10000000000E+01 0.  0.
    9000005    1    1    2    0    0  0.39980884183E-01 -0.41889088029E+02 -0.11295794123E+02  0.43396915320E+02  0.10000000000E+01 0.  0.
<mgrwt>
<rscale>  0 0.12488401E+03</rscale>
<asrwt>0</asrwt>
<pdfrwt beam="1">  1        4 0.28359783E-02 0.12488401E+03</pdfrwt>
<pdfrwt beam="2">  1       -4 0.32540490E-01 0.12488401E+03</pdfrwt>
<totfact> 0.85538896E+03</totfact>
</mgrwt>
</event>
<event>
 5    1  0.3184438E-002  0.1250026E+03  0.7818608E-02  0.1235065E+00
         -4   -1    0    0    0  501 -0.00000000000E+00  0.00000000000E+00  0.61010266464E+03  0.61010398647E+03  0.12700000000E+01 0. -1.
          4   -1    0    0  501    0  0.00000000000E+00 -0.00000000000E+00 -0.63385600272E+01  0.64645373554E+01  0.12700000000E+01 0. -1.
         25    2    1    2    0    0  0.00000000000E+00  0.00000000000E+00  0.60376410461E+03  0.61656852382E+03  0.12500260216E+03 0.  0.
    9000005    1    3    3    0    0 -0.38419252182E+02  0.49082018807E+02  0.32412138119E+03  0.33006174157E+03  0.10000000000E+01 0.  0.
    9000005    1    3    3    0    0  0.38419252182E+02 -0.49082018807E+02  0.27964272343E+03  0.28650678225E+03  0.10000000000E+01 0.  0.
<mgrwt>
<rscale>  0 0.12500260E+03</rscale>
<asrwt>0</asrwt>
<pdfrwt beam="2">  1        4 0.98495525E-03 0.12500260E+03</pdfrwt>
<pdfrwt beam="1">  1       -4 0.93871748E-01 0.12500260E+03</pdfrwt>
<totfact> 0.47835453E+03</totfact>
</mgrwt>
</event>
<event>
 5    1  0.3184438E-002  0.1250003E+03  0.7818608E-02  0.1235069E+00
         -4   -1    0    0    0  501 -0.00000000000E+00  0.00000000000E+00  0.22109704198E+01  0.25497627727E+01  0.12700000000E+01 0.  1.
          4   -1    0    0  501    0  0.00000000000E+00 -0.00000000000E+00 -0.16406963695E+04  0.16406968610E+04  0.12700000000E+01 0.  1.
         25    2    1    2    0    0  0.00000000000E+00  0.00000000000E+00 -0.16384853991E+04  0.16432466238E+04  0.12500025455E+03 0.  0.
    9000005    1    3    3    0    0  0.51067842210E+02  0.33276232853E+02 -0.63802225320E+03  0.64092794272E+03  0.10000000000E+01 0.  0.
    9000005    1    3    3    0    0 -0.51067842210E+02 -0.33276232853E+02 -0.10004631459E+04  0.10023186811E+04  0.10000000000E+01 0.  0.
<mgrwt>
<rscale>  0 0.12500025E+03</rscale>
<asrwt>0</asrwt>
<pdfrwt beam="2">  1        4 0.25244002E+00 0.12500025E+03</pdfrwt>
<pdfrwt beam="1">  1       -4 0.36624937E-03 0.12500025E+03</pdfrwt>
<totfact> 0.15277130E+03</totfact>
</mgrwt>
</event>
<event>
 5    1  0.3184438E-002  0.1250001E+03  0.7818608E-02  0.1235069E+00
          4   -1    0    0  501    0  0.00000000000E+00  0.00000000000E+00  0.58517781144E+02  0.58531560802E+02  0.12700000000E+01 0.  1.
         -4   -1    0    0    0  501 -0.00000000000E+00 -0.00000000000E+00 -0.66725630193E+02  0.66737715159E+02  0.12700000000E+01 0.  1.
         25    2    1    2    0    0  0.00000000000E+00  0.00000000000E+00 -0.82078490492E+01  0.12526927596E+03  0.12500009086E+03 0.  0.
    9000005    1    3    3    0    0 -0.55751656299E-01  0.52476273581E+02 -0.38110659962E+02  0.64862815233E+02  0.10000000000E+01 0.  0.
    9000005    1    3    3    0    0  0.55751656299E-01 -0.52476273581E+02  0.29902810913E+02  0.60406460728E+02  0.10000000000E+01 0.  0.
<mgrwt>
<rscale>  0 0.12500009E+03</rscale>
<asrwt>0</asrwt>
<pdfrwt beam="1">  1        4 0.90047252E-02 0.12500009E+03</pdfrwt>
<pdfrwt beam="2">  1       -4 0.10267471E-01 0.12500009E+03</pdfrwt>
<totfact> 0.10446995E+04</totfact>
</mgrwt>
</event>
<event>
 5    1  0.3184438E-002  0.1249990E+03  0.7818608E-02  0.1235071E+00
          4   -1    0    0  501    0  0.00000000000E+00  0.00000000000E+00  0.41473702618E+02  0.41493142913E+02  0.12700000000E+01 0.  1.
         -4   -1    0    0    0  501 -0.00000000000E+00 -0.00000000000E+00 -0.94138961942E+02  0.94147528143E+02  0.12700000000E+01 0.  1.
         25    2    1    2    0    0  0.00000000000E+00  0.00000000000E+00 -0.52665259324E+02  0.13564067106E+03  0.12499904842E+03 0.  0.
    9000005    1    3    3    0    0 -0.12665550511E+02  0.30685349661E+02 -0.83785138776E+02  0.90127444950E+02  0.10000000000E+01 0.  0.
    9000005    1    3    3    0    0  0.12665550511E+02 -0.30685349661E+02  0.31119879452E+02  0.45513226107E+02  0.10000000000E+01 0.  0.
<mgrwt>
<rscale>  0 0.12499905E+03</rscale>
<asrwt>0</asrwt>
<pdfrwt beam="1">  1        4 0.63827240E-02 0.12499905E+03</pdfrwt>
<pdfrwt beam="2">  1       -4 0.14485072E-01 0.12499905E+03</pdfrwt>
<totfact> 0.10224804E+04</totfact>
</mgrwt>
</event>
<event>
 5    1  0.3184438E-002  0.1250224E+03  0.7818608E-02  0.1235034E+00
         -4   -1    0    0    0  501 -0.00000000000E+00  0.00000000000E+00  0.10810075736E+02  0.10884421777E+02  0.12700000000E+01 0.  1.
          4   -1    0    0  501    0  0.00000000000E+00 -0.00000000000E+00 -0.36016801438E+03  0.36017025347E+03  0.12700000000E+01 0.  1.
         25    2    1    2    0    0  0.00000000000E+00  0.00000000000E+00 -0.34935793865E+03  0.37105467525E+03  0.12502240890E+03 0.  0.
    9000005    1    3    3    0    0 -0.10131149942E+02 -0.61339098615E+02 -0.15555371181E+03  0.16752039421E+03  0.10000000000E+01 0.  0.
    9000005    1    3    3    0    0  0.10131149942E+02  0.61339098615E+02 -0.19380422684E+03  0.20353428104E+03  0.10000000000E+01 0.  0.
<mgrwt>
<rscale>  0 0.12502241E+03</rscale>
<asrwt>0</asrwt>
<pdfrwt beam="2">  1        4 0.55416346E-01 0.12502241E+03</pdfrwt>
<pdfrwt beam="1">  1       -4 0.16689800E-02 0.12502241E+03</pdfrwt>
<totfact> 0.67435334E+03</totfact>
</mgrwt>
</event>
<event>
 5    1  0.3184438E-002  0.1250037E+03  0.7818608E-02  0.1235063E+00
         -4   -1    0    0    0  501 -0.00000000000E+00  0.00000000000E+00  0.24592001202E+03  0.24592329132E+03  0.12700000000E+01 0.  1.
          4   -1    0    0  501    0  0.00000000000E+00 -0.00000000000E+00 -0.15856400607E+02  0.15907178889E+02  0.12700000000E+01 0.  1.
         25    2    1    2    0    0  0.00000000000E+00  0.00000000000E+00  0.23006361142E+03  0.26183047021E+03  0.12500371927E+03 0.  0.
    9000005    1    3    3    0    0  0.38965898223E+02  0.44776460354E+02  0.74082345813E+02  0.94934011752E+02  0.10000000000E+01 0.  0.
    9000005    1    3    3    0    0 -0.38965898223E+02 -0.44776460354E+02  0.15598126560E+03  0.16689645846E+03  0.10000000000E+01 0.  0.
<mgrwt>
<rscale>  0 0.12500372E+03</rscale>
<asrwt>0</asrwt>
<pdfrwt beam="2">  1        4 0.24436044E-02 0.12500372E+03</pdfrwt>
<pdfrwt beam="1">  1       -4 0.37838008E-01 0.12500372E+03</pdfrwt>
<totfact> 0.80643186E+03</totfact>
</mgrwt>
</event>
<event>
 5    1  0.3184438E-002  0.1250054E+03  0.7818608E-02  0.1235061E+00
         -4   -1    0    0    0  501 -0.00000000000E+00  0.00000000000E+00  0.78263684309E+02  0.78273987899E+02  0.12700000000E+01 0. -1.
          4   -1    0    0  501    0  0.00000000000E+00 -0.00000000000E+00 -0.49894020746E+02  0.49910181388E+02  0.12700000000E+01 0. -1.
         25    2    1    2    0    0  0.00000000000E+00  0.00000000000E+00  0.28369663563E+02  0.12818416929E+03  0.12500537366E+03 0.  0.
    9000005    1    3    3    0    0  0.41611633557E+02  0.41573561549E+02  0.35833214926E+02  0.68883295211E+02  0.10000000000E+01 0.  0.
    9000005    1    3    3    0    0 -0.41611633557E+02 -0.41573561549E+02 -0.74635513626E+01  0.59300874076E+02  0.10000000000E+01 0.  0.
<mgrwt>
<rscale>  0 0.12500537E+03</rscale>
<asrwt>0</asrwt>
<pdfrwt beam="2">  1        4 0.76780389E-02 0.12500537E+03</pdfrwt>
<pdfrwt beam="1">  1       -4 0.12042602E-01 0.12500537E+03</pdfrwt>
<totfact> 0.10382253E+04</totfact>
</mgrwt>
</event>
<event>
 5    1  0.3184438E-002  0.1250001E+03  0.7818608E-02  0.1235069E+00
         -4   -1    0    0    0  501 -0.00000000000E+00  0.00000000000E+00  0.68849114917E+02  0.68860827216E+02  0.12700000000E+01 0. -1.
          4   -1    0    0  501    0  0.00000000000E+00 -0.00000000000E+00 -0.56712846519E+02  0.56727064619E+02  0.12700000000E+01 0. -1.
         25    2    1    2    0    0  0.00000000000E+00  0.00000000000E+00  0.12136268398E+02  0.12558789183E+03  0.12500011826E+03 0.  0.
    9000005    1    3    3    0    0  0.20973083606E+02  0.12047445958E+01 -0.53063823850E+02  0.57079690321E+02  0.10000000000E+01 0.  0.
    9000005    1    3    3    0    0 -0.20973083606E+02 -0.12047445958E+01  0.65200092248E+02  0.68508201514E+02  0.10000000000E+01 0.  0.
<mgrwt>
<rscale>  0 0.12500012E+03</rscale>
<asrwt>0</asrwt>
<pdfrwt beam="2">  1        4 0.87270479E-02 0.12500012E+03</pdfrwt>
<pdfrwt beam="1">  1       -4 0.10594166E-01 0.12500012E+03</pdfrwt>
<totfact> 0.10439986E+04</totfact>
</mgrwt>
</event>
<event>
 5    1  0.3184438E-002  0.1249991E+03  0.7818608E-02  0.1235071E+00
          4   -1    0    0  501    0  0.00000000000E+00  0.00000000000E+00  0.18533225488E+03  0.18533660621E+03  0.12700000000E+01 0. -1.
         -4   -1    0    0    0  501 -0.00000000000E+00 -0.00000000000E+00 -0.21052966686E+02  0.21091237666E+02  0.12700000000E+01 0. -1.
         25    2    1    2    0    0  0.00000000000E+00  0.00000000000E+00  0.16427928820E+03  0.20642784387E+03  0.12499908078E+03 0.  0.
    9000005    1    3    3    0    0  0.49119865640E+02 -0.60433295581E+01  0.19126862763E+02  0.53067126470E+02  0.10000000000E+01 0.  0.
    9000005    1    3    3    0    0 -0.49119865640E+02  0.60433295581E+01  0.14515242544E+03  0.15336071740E+03  0.10000000000E+01 0.  0.
<mgrwt>
<rscale>  0 0.12499908E+03</rscale>
<asrwt>0</asrwt>
<pdfrwt beam="1">  1        4 0.28515935E-01 0.12499908E+03</pdfrwt>
<pdfrwt beam="2">  1       -4 0.32421964E-02 0.12499908E+03</pdfrwt>
<totfact> 0.89064433E+03</totfact>
</mgrwt>
</event>
<event>
 5    1  0.3184438E-002  0.1250006E+03  0.7818608E-02  0.1235068E+00
          4   -1    0    0  501    0  0.00000000000E+00  0.00000000000E+00  0.28177672780E+02  0.28206278438E+02  0.12700000000E+01 0.  1.
         -4   -1    0    0    0  501 -0.00000000000E+00 -0.00000000000E+00 -0.13852870817E+03  0.13853452959E+03  0.12700000000E+01 0.  1.
         25    2    1    2    0    0  0.00000000000E+00  0.00000000000E+00 -0.11035103539E+03  0.16674080802E+03  0.12500058419E+03 0.  0.
    9000005    1    3    3    0    0 -0.10153778545E+02 -0.60321812997E+02 -0.72230206643E+02  0.94657398515E+02  0.10000000000E+01 0.  0.
    9000005    1    3    3    0    0  0.10153778545E+02  0.60321812997E+02 -0.38120828749E+02  0.72083409510E+02  0.10000000000E+01 0.  0.
<mgrwt>
<rscale>  0 0.12500058E+03</rscale>
<asrwt>0</asrwt>
<pdfrwt beam="1">  1        4 0.43376749E-02 0.12500058E+03</pdfrwt>
<pdfrwt beam="2">  1       -4 0.21314757E-01 0.12500058E+03</pdfrwt>
<totfact> 0.96057463E+03</totfact>
</mgrwt>
</event>
<event>
 5    1  0.3184438E-002  0.1249970E+03  0.7818608E-02  0.1235074E+00
         -4   -1    0    0    0  501 -0.00000000000E+00  0.00000000000E+00  0.24253787858E+02  0.24287015573E+02  0.12700000000E+01 0. -1.
          4   -1    0    0  501    0  0.00000000000E+00 -0.00000000000E+00 -0.16090368257E+03  0.16090869450E+03  0.12700000000E+01 0. -1.
         25    2    1    2    0    0  0.00000000000E+00  0.00000000000E+00 -0.13664989472E+03  0.18519571007E+03  0.12499702918E+03 0.  0.
    9000005    1    3    3    0    0  0.43660682987E+02 -0.43219473501E+02 -0.51374617416E+02  0.80090757540E+02  0.10000000000E+01 0.  0.
    9000005    1    3    3    0    0 -0.43660682987E+02  0.43219473501E+02 -0.85275277301E+02  0.10510495253E+03  0.10000000000E+01 0.  0.
<mgrwt>
<rscale>  0 0.12499703E+03</rscale>
<asrwt>0</asrwt>
<pdfrwt beam="2">  1        4 0.24757354E-01 0.12499703E+03</pdfrwt>
<pdfrwt beam="1">  1       -4 0.37342936E-02 0.12499703E+03</pdfrwt>
<totfact> 0.92696202E+03</totfact>
</mgrwt>
</event>
<event>
 5    1  0.3184438E-002  0.1250367E+03  0.7818608E-02  0.1235012E+00
         -4   -1    0    0    0  501 -0.00000000000E+00  0.00000000000E+00  0.18091843512E+03  0.18092289260E+03  0.12700000000E+01 0.  1.
          4   -1    0    0  501    0  0.00000000000E+00 -0.00000000000E+00 -0.21580517539E+02  0.21617854594E+02  0.12700000000E+01 0.  1.
         25    2    1    2    0    0  0.00000000000E+00  0.00000000000E+00  0.15933791758E+03  0.20254074720E+03  0.12503672378E+03 0.  0.
    9000005    1    3    3    0    0  0.23711672335E+02  0.15091870882E+02  0.17011314850E+03  0.17242242100E+03  0.10000000000E+01 0.  0.
    9000005    1    3    3    0    0 -0.23711672335E+02 -0.15091870882E+02 -0.10775230914E+02  0.30118326196E+02  0.10000000000E+01 0.  0.
<mgrwt>
<rscale>  0 0.12503672E+03</rscale>
<asrwt>0</asrwt>
<pdfrwt beam="2">  1        4 0.33232947E-02 0.12503672E+03</pdfrwt>
<pdfrwt beam="1">  1       -4 0.27836820E-01 0.12503672E+03</pdfrwt>
<totfact> 0.89635088E+03</totfact>
</mgrwt>
</event>
<event>
 5    1  0.3184438E-002  0.1250011E+03  0.7818608E-02  0.1235068E+00
          4   -1    0    0  501    0  0.00000000000E+00  0.00000000000E+00  0.33346593259E+02  0.33370768376E+02  0.12700000000E+01 0.  1.
         -4   -1    0    0    0  501 -0.00000000000E+00 -0.00000000000E+00 -0.11707292321E+03  0.11707981145E+03  0.12700000000E+01 0.  1.
         25    2    1    2    0    0  0.00000000000E+00  0.00000000000E+00 -0.83726329949E+02  0.15045057982E+03  0.12500111457E+03 0.  0.
    9000005    1    3    3    0    0 -0.49478664619E+02 -0.36300987012E+02 -0.56074737329E+02  0.83134084929E+02  0.10000000000E+01 0.  0.
    9000005    1    3    3    0    0  0.49478664619E+02  0.36300987012E+02 -0.27651592620E+02  0.67316494894E+02  0.10000000000E+01 0.  0.
<mgrwt>
<rscale>  0 0.12500111E+03</rscale>
<asrwt>0</asrwt>
<pdfrwt beam="1">  1        4 0.51326347E-02 0.12500111E+03</pdfrwt>
<pdfrwt beam="2">  1       -4 0.18013608E-01 0.12500111E+03</pdfrwt>
<totfact> 0.99211469E+03</totfact>
</mgrwt>
</event>
<event>
 5    1  0.3184438E-002  0.1250052E+03  0.7818608E-02  0.1235061E+00
          4   -1    0    0  501    0  0.00000000000E+00  0.00000000000E+00  0.12322341288E+03  0.12322995733E+03  0.12700000000E+01 0.  1.
         -4   -1    0    0    0  501 -0.00000000000E+00 -0.00000000000E+00 -0.31683066287E+02  0.31708509731E+02  0.12700000000E+01 0.  1.
         25    2    1    2    0    0  0.00000000000E+00  0.00000000000E+00  0.91540346596E+02  0.15493846706E+03  0.12500517397E+03 0.  0.
    9000005    1    3    3    0    0  0.22822064530E+02  0.21283994302E+02  0.11288096893E+03  0.11711946119E+03  0.10000000000E+01 0.  0.
    9000005    1    3    3    0    0 -0.22822064530E+02 -0.21283994302E+02 -0.21340622336E+02  0.37819005864E+02  0.10000000000E+01 0.  0.
<mgrwt>
<rscale>  0 0.12500517E+03</rscale>
<asrwt>0</asrwt>
<pdfrwt beam="1">  1        4 0.18959908E-01 0.12500517E+03</pdfrwt>
<pdfrwt beam="2">  1       -4 0.48767787E-02 0.12500517E+03</pdfrwt>
<totfact> 0.98316140E+03</totfact>
</mgrwt>
</event>
<event>
 5    1  0.3184438E-002  0.1249984E+03  0.7818608E-02  0.1235072E+00
          4   -1    0    0  501    0  0.00000000000E+00  0.00000000000E+00  0.11481863966E+03  0.11482566313E+03  0.12700000000E+01 0.  1.
         -4   -1    0    0    0  501 -0.00000000000E+00 -0.00000000000E+00 -0.34000245670E+02  0.34023956349E+02  0.12700000000E+01 0.  1.
         25    2    1    2    0    0  0.00000000000E+00  0.00000000000E+00  0.80818393992E+02  0.14884961948E+03  0.12499838564E+03 0.  0.
    9000005    1    3    3    0    0  0.82929160516E+01 -0.54851825022E+02  0.61507463748E+01  0.55824070488E+02  0.10000000000E+01 0.  0.
    9000005    1    3    3    0    0 -0.82929160516E+01  0.54851825022E+02  0.74667647617E+02  0.93025548994E+02  0.10000000000E+01 0.  0.
<mgrwt>
<rscale>  0 0.12499839E+03</rscale>
<asrwt>0</asrwt>
<pdfrwt beam="1">  1        4 0.17666771E-01 0.12499839E+03</pdfrwt>
<pdfrwt beam="2">  1       -4 0.52331711E-02 0.12499839E+03</pdfrwt>
<totfact> 0.99537121E+03</totfact>
</mgrwt>
</event>
<event>
 5    1  0.3184438E-002  0.1250034E+03  0.7818608E-02  0.1235064E+00
         -4   -1    0    0    0  501 -0.00000000000E+00  0.00000000000E+00  0.42262550139E+02  0.42281627739E+02  0.12700000000E+01 0.  1.
          4   -1    0    0  501    0  0.00000000000E+00 -0.00000000000E+00 -0.92388820339E+02  0.92397548797E+02  0.12700000000E+01 0.  1.
         25    2    1    2    0    0  0.00000000000E+00  0.00000000000E+00 -0.50126270200E+02  0.13467917654E+03  0.12500335047E+03 0.  0.
    9000005    1    3    3    0    0 -0.80370183861E+01 -0.16221202911E+02  0.39380953338E+02  0.43354129841E+02  0.10000000000E+01 0.  0.
    9000005    1    3    3    0    0  0.80370183861E+01  0.16221202911E+02 -0.89507223538E+02  0.91325046695E+02  0.10000000000E+01 0.  0.
<mgrwt>
<rscale>  0 0.12500335E+03</rscale>
<asrwt>0</asrwt>
<pdfrwt beam="2">  1        4 0.14215804E-01 0.12500335E+03</pdfrwt>
<pdfrwt beam="1">  1       -4 0.65040697E-02 0.12500335E+03</pdfrwt>
<totfact> 0.10244063E+04</totfact>
</mgrwt>
</event>
<event>
 5    1  0.3184438E-002  0.1249983E+03  0.7818608E-02  0.1235072E+00
          4   -1    0    0  501    0  0.00000000000E+00  0.00000000000E+00  0.22529869899E+02  0.22565636212E+02  0.12700000000E+01 0.  1.
         -4   -1    0    0    0  501 -0.00000000000E+00 -0.00000000000E+00 -0.17320072779E+03  0.17320538389E+03  0.12700000000E+01 0.  1.
         25    2    1    2    0    0  0.00000000000E+00  0.00000000000E+00 -0.15067085789E+03  0.19577102010E+03  0.12499833956E+03 0.  0.
    9000005    1    3    3    0    0  0.20488888091E+02  0.48875557958E+02 -0.12719808090E+03  0.13780045895E+03  0.10000000000E+01 0.  0.
    9000005    1    3    3    0    0 -0.20488888091E+02 -0.48875557958E+02 -0.23472776993E+02  0.57970561155E+02  0.10000000000E+01 0.  0.
<mgrwt>
<rscale>  0 0.12499834E+03</rscale>
<asrwt>0</asrwt>
<pdfrwt beam="1">  1        4 0.34692434E-02 0.12499834E+03</pdfrwt>
<pdfrwt beam="2">  1       -4 0.26649374E-01 0.12499834E+03</pdfrwt>
<totfact> 0.90856137E+03</totfact>
</mgrwt>
</event>
<event>
 5    1  0.3184438E-002  0.1249996E+03  0.7818608E-02  0.1235070E+00
         -4   -1    0    0    0  501 -0.00000000000E+00  0.00000000000E+00  0.35324817632E+03  0.35325045926E+03  0.12700000000E+01 0. -1.
          4   -1    0    0  501    0  0.00000000000E+00 -0.00000000000E+00 -0.11019223819E+02  0.11092168119E+02  0.12700000000E+01 0. -1.
         25    2    1    2    0    0  0.00000000000E+00  0.00000000000E+00  0.34222895250E+03  0.36434262738E+03  0.12499957680E+03 0.  0.
    9000005    1    3    3    0    0  0.61212151437E+02 -0.96568602183E+01  0.14760757190E+03  0.16009115439E+03  0.10000000000E+01 0.  0.
    9000005    1    3    3    0    0 -0.61212151437E+02  0.96568602183E+01  0.19462138060E+03  0.20425147299E+03  0.10000000000E+01 0.  0.
<mgrwt>
<rscale>  0 0.12499958E+03</rscale>
<asrwt>0</asrwt>
<pdfrwt beam="2">  1        4 0.17010522E-02 0.12499958E+03</pdfrwt>
<pdfrwt beam="1">  1       -4 0.54351652E-01 0.12499958E+03</pdfrwt>
<totfact> 0.68175628E+03</totfact>
</mgrwt>
</event>
<event>
 5    1  0.3184438E-002  0.1249796E+03  0.7818608E-02  0.1235101E+00
         -4   -1    0    0    0  501 -0.00000000000E+00  0.00000000000E+00  0.29845163710E+03  0.29845433920E+03  0.12700000000E+01 0. -1.
          4   -1    0    0  501    0  0.00000000000E+00 -0.00000000000E+00 -0.13050519228E+02  0.13112168094E+02  0.12700000000E+01 0. -1.
         25    2    1    2    0    0  0.00000000000E+00  0.00000000000E+00  0.28540111787E+03  0.31156650729E+03  0.12497955987E+03 0.  0.
    9000005    1    3    3    0    0  0.41862979745E+02  0.12139969879E+02  0.25430200095E+03  0.25801239433E+03  0.10000000000E+01 0.  0.
    9000005    1    3    3    0    0 -0.41862979745E+02 -0.12139969879E+02  0.31099116921E+02  0.53554112961E+02  0.10000000000E+01 0.  0.
<mgrwt>
<rscale>  0 0.12497956E+03</rscale>
<asrwt>0</asrwt>
<pdfrwt beam="2">  1        4 0.20127223E-02 0.12497956E+03</pdfrwt>
<pdfrwt beam="1">  1       -4 0.45920586E-01 0.12497956E+03</pdfrwt>
<totfact> 0.74204131E+03</totfact>
</mgrwt>
</event>
<event>
 5    1  0.3184438E-002  0.1249986E+03  0.7818608E-02  0.1235071E+00
         -4   -1    0    0    0  501 -0.00000000000E+00  0.00000000000E+00  0.26546923785E+03  0.26547227566E+03  0.12700000000E+01 0. -1.
          4   -1    0    0  501    0  0.00000000000E+00 -0.00000000000E+00 -0.14683657095E+02  0.14738476369E+02  0.12700000000E+01 0. -1.
         25    2    1    2    0    0  0.00000000000E+00  0.00000000000E+00  0.25078558076E+03  0.28021075203E+03  0.12499863215E+03 0.  0.
    9000005    1    3    3    0    0  0.33338712596E+01  0.62374296488E+02  0.12958481886E+03  0.14385719599E+03  0.10000000000E+01 0.  0.
    9000005    1    3    3    0    0 -0.33338712596E+01 -0.62374296488E+02  0.12120076190E+03  0.13635355604E+03  0.10000000000E+01 0.  0.
<mgrwt>
<rscale>  0 0.12499863E+03</rscale>
<asrwt>0</asrwt>
<pdfrwt beam="2">  1        4 0.22634747E-02 0.12499863E+03</pdfrwt>
<pdfrwt beam="1">  1       -4 0.40845871E-01 0.12499863E+03</pdfrwt>
<totfact> 0.78152545E+03</totfact>
</mgrwt>
</event>
<event>
 5    1  0.3184438E-002  0.1250071E+03  0.7818608E-02  0.1235058E+00
         -4   -1    0    0    0  501 -0.00000000000E+00  0.00000000000E+00  0.99704063046E+02  0.99712151154E+02  0.12700000000E+01 0.  1.
          4   -1    0    0  501    0  0.00000000000E+00 -0.00000000000E+00 -0.39162894784E+02  0.39183481569E+02  0.12700000000E+01 0.  1.
         25    2    1    2    0    0  0.00000000000E+00  0.00000000000E+00  0.60541168261E+02  0.13889563272E+03  0.12500705474E+03 0.  0.
    9000005    1    3    3    0    0  0.61343396654E+02 -0.48380300040E+01  0.42405128550E+02  0.74736963911E+02  0.10000000000E+01 0.  0.
    9000005    1    3    3    0    0 -0.61343396654E+02  0.48380300040E+01  0.18136039712E+02  0.64158668812E+02  0.10000000000E+01 0.  0.
<mgrwt>
<rscale>  0 0.12500705E+03</rscale>
<asrwt>0</asrwt>
<pdfrwt beam="2">  1        4 0.60272665E-02 0.12500705E+03</pdfrwt>
<pdfrwt beam="1">  1       -4 0.15341292E-01 0.12500705E+03</pdfrwt>
<totfact> 0.10154911E+04</totfact>
</mgrwt>
</event>
<event>
 5    1  0.3184438E-002  0.1249997E+03  0.7818608E-02  0.1235070E+00
         -4   -1    0    0    0  501 -0.00000000000E+00  0.00000000000E+00  0.65484712684E+01  0.66704854361E+01  0.12700000000E+01 0. -1.
          4   -1    0    0  501    0  0.00000000000E+00 -0.00000000000E+00 -0.59088130292E+03  0.59088266775E+03  0.12700000000E+01 0. -1.
         25    2    1    2    0    0  0.00000000000E+00  0.00000000000E+00 -0.58433283166E+03  0.59755315318E+03  0.12499965092E+03 0.  0.
    9000005    1    3    3    0    0 -0.40094987793E+02  0.47626754723E+02 -0.31804814066E+03  0.32408569174E+03  0.10000000000E+01 0.  0.
    9000005    1    3    3    0    0  0.40094987793E+02 -0.47626754723E+02 -0.26628469100E+03  0.27346746145E+03  0.10000000000E+01 0.  0.
<mgrwt>
<rscale>  0 0.12499965E+03</rscale>
<asrwt>0</asrwt>
<pdfrwt beam="2">  1        4 0.90914265E-01 0.12499965E+03</pdfrwt>
<pdfrwt beam="1">  1       -4 0.10169483E-02 0.12499965E+03</pdfrwt>
<totfact> 0.49022819E+03</totfact>
</mgrwt>
</event>
<event>
 5    1  0.3184438E-002  0.1249813E+03  0.7818608E-02  0.1235099E+00
         -4   -1    0    0    0  501 -0.00000000000E+00  0.00000000000E+00  0.87746600848E+02  0.87755791036E+02  0.12700000000E+01 0. -1.
          4   -1    0    0  501    0  0.00000000000E+00 -0.00000000000E+00 -0.44483456994E+02  0.44501582512E+02  0.12700000000E+01 0. -1.
         25    2    1    2    0    0  0.00000000000E+00  0.00000000000E+00  0.43263143854E+02  0.13225737355E+03  0.12498125156E+03 0.  0.
    9000005    1    3    3    0    0  0.35157868886E+02  0.47642399443E+02  0.51477615407E+00  0.59221102352E+02  0.10000000000E+01 0.  0.
    9000005    1    3    3    0    0 -0.35157868886E+02 -0.47642399443E+02  0.42748367700E+02  0.73036271197E+02  0.10000000000E+01 0.  0.
<mgrwt>
<rscale>  0 0.12498125E+03</rscale>
<asrwt>0</asrwt>
<pdfrwt beam="2">  1        4 0.68457100E-02 0.12498125E+03</pdfrwt>
<pdfrwt beam="1">  1       -4 0.13501578E-01 0.12498125E+03</pdfrwt>
<totfact> 0.10300564E+04</totfact>
</mgrwt>
</event>
<event>
 5    1  0.3184438E-002  0.1250550E+03  0.7818608E-02  0.1234983E+00
          4   -1    0    0  501    0  0.00000000000E+00  0.00000000000E+00  0.41861685613E+01  0.43745750906E+01  0.12700000000E+01 0. -1.
         -4   -1    0    0    0  501 -0.00000000000E+00 -0.00000000000E+00 -0.91321092129E+03  0.91321180438E+03  0.12700000000E+01 0. -1.
         25    2    1    2    0    0  0.00000000000E+00  0.00000000000E+00 -0.90902475273E+03  0.91758637947E+03  0.12505503877E+03 0.  0.
    9000005    1    3    3    0    0  0.17197418511E+02 -0.29739054677E+02 -0.83778692320E+03  0.83849155706E+03  0.10000000000E+01 0.  0.
    9000005    1    3    3    0    0 -0.17197418511E+02  0.29739054677E+02 -0.71237829529E+02  0.79094822413E+02  0.10000000000E+01 0.  0.
<mgrwt>
<rscale>  0 0.12505504E+03</rscale>
<asrwt>0</asrwt>
<pdfrwt beam="1">  1        4 0.65858740E-03 0.12505504E+03</pdfrwt>
<pdfrwt beam="2">  1       -4 0.14050839E+00 0.12505504E+03</pdfrwt>
<totfact> 0.33455248E+03</totfact>
</mgrwt>
</event>
<event>
 5    1  0.3184438E-002  0.1249445E+03  0.7818608E-02  0.1235156E+00
         -4   -1    0    0    0  501 -0.00000000000E+00  0.00000000000E+00  0.27582339568E+03  0.27582631945E+03  0.12700000000E+01 0.  1.
          4   -1    0    0  501    0  0.00000000000E+00 -0.00000000000E+00 -0.14118077044E+02  0.14175083753E+02  0.12700000000E+01 0.  1.
         25    2    1    2    0    0  0.00000000000E+00  0.00000000000E+00  0.26170531863E+03  0.29000140321E+03  0.12494454794E+03 0.  0.
    9000005    1    3    3    0    0 -0.56794234676E+02 -0.24290308415E+02  0.15239972573E+03  0.16444537263E+03  0.10000000000E+01 0.  0.
    9000005    1    3    3    0    0  0.56794234676E+02  0.24290308415E+02  0.10930559290E+03  0.12555603058E+03  0.10000000000E+01 0.  0.
<mgrwt>
<rscale>  0 0.12494455E+03</rscale>
<asrwt>0</asrwt>
<pdfrwt beam="2">  1        4 0.21766221E-02 0.12494455E+03</pdfrwt>
<pdfrwt beam="1">  1       -4 0.42438974E-01 0.12494455E+03</pdfrwt>
<totfact> 0.76965176E+03</totfact>
</mgrwt>
</event>
<event>
 5    1  0.3184438E-002  0.1250009E+03  0.7818608E-02  0.1235068E+00
          4   -1    0    0  501    0  0.00000000000E+00  0.00000000000E+00  0.17783787532E+02  0.17829077346E+02  0.12700000000E+01 0. -1.
         -4   -1    0    0    0  501 -0.00000000000E+00 -0.00000000000E+00 -0.21932902062E+03  0.21933269748E+03  0.12700000000E+01 0. -1.
         25    2    1    2    0    0  0.00000000000E+00  0.00000000000E+00 -0.20154523309E+03  0.23716177483E+03  0.12500090584E+03 0.  0.
    9000005    1    3    3    0    0  0.60758798326E+01  0.35916880129E+02 -0.44332060245E+01  0.36709561556E+02  0.10000000000E+01 0.  0.
    9000005    1    3    3    0    0 -0.60758798326E+01 -0.35916880129E+02 -0.19711202706E+03  0.20045221327E+03  0.10000000000E+01 0.  0.
<mgrwt>
<rscale>  0 0.12500091E+03</rscale>
<asrwt>0</asrwt>
<pdfrwt beam="1">  1        4 0.27397341E-02 0.12500091E+03</pdfrwt>
<pdfrwt beam="2">  1       -4 0.33746691E-01 0.12500091E+03</pdfrwt>
<totfact> 0.84220194E+03</totfact>
</mgrwt>
</event>
<event>
 5    1  0.3184438E-002  0.1250036E+03  0.7818608E-02  0.1235064E+00
         -4   -1    0    0    0  501 -0.00000000000E+00  0.00000000000E+00  0.60507018894E+01  0.61825474810E+01  0.12700000000E+01 0. -1.
          4   -1    0    0  501    0  0.00000000000E+00 -0.00000000000E+00 -0.63853266442E+03  0.63853392739E+03  0.12700000000E+01 0. -1.
         25    2    1    2    0    0  0.00000000000E+00  0.00000000000E+00 -0.63248196253E+03  0.64471647487E+03  0.12500360014E+03 0.  0.
    9000005    1    3    3    0    0 -0.16673768404E+02  0.34510045000E+02 -0.57082491495E+03  0.57211103930E+03  0.10000000000E+01 0.  0.
    9000005    1    3    3    0    0  0.16673768404E+02 -0.34510045000E+02 -0.61657047576E+02  0.72605435571E+02  0.10000000000E+01 0.  0.
<mgrwt>
<rscale>  0 0.12500360E+03</rscale>
<asrwt>0</asrwt>
<pdfrwt beam="2">  1        4 0.98245981E-01 0.12500360E+03</pdfrwt>
<pdfrwt beam="1">  1       -4 0.94111684E-03 0.12500360E+03</pdfrwt>
<totfact> 0.46157656E+03</totfact>
</mgrwt>
</event>
<event>
 5    1  0.3184438E-002  0.1249985E+03  0.7818608E-02  0.1235072E+00
          4   -1    0    0  501    0  0.00000000000E+00  0.00000000000E+00  0.49145280277E+02  0.49161687049E+02  0.12700000000E+01 0.  1.
         -4   -1    0    0    0  501 -0.00000000000E+00 -0.00000000000E+00 -0.79447056170E+02  0.79457206307E+02  0.12700000000E+01 0.  1.
         25    2    1    2    0    0  0.00000000000E+00  0.00000000000E+00 -0.30301775894E+02  0.12861889336E+03  0.12499848841E+03 0.  0.
    9000005    1    3    3    0    0  0.26147237527E+02  0.52288633029E+02 -0.37866907503E+02  0.69661193345E+02  0.10000000000E+01 0.  0.
    9000005    1    3    3    0    0 -0.26147237527E+02 -0.52288633029E+02  0.75651316092E+01  0.58957700011E+02  0.10000000000E+01 0.  0.
<mgrwt>
<rscale>  0 0.12499849E+03</rscale>
<asrwt>0</asrwt>
<pdfrwt beam="1">  1        4 0.75628552E-02 0.12499849E+03</pdfrwt>
<pdfrwt beam="2">  1       -4 0.12224667E-01 0.12499849E+03</pdfrwt>
<totfact> 0.10374497E+04</totfact>
</mgrwt>
</event>
<event>
 5    1  0.3184438E-002  0.1250046E+03  0.7818608E-02  0.1235062E+00
         -4   -1    0    0    0  501 -0.00000000000E+00  0.00000000000E+00  0.20154186489E+03  0.20154586625E+03  0.12700000000E+01 0.  1.
          4   -1    0    0  501    0  0.00000000000E+00 -0.00000000000E+00 -0.19358258262E+02  0.19399872756E+02  0.12700000000E+01 0.  1.
         25    2    1    2    0    0  0.00000000000E+00  0.00000000000E+00  0.18218360662E+03  0.22094573900E+03  0.12500461216E+03 0.  0.
    9000005    1    3    3    0    0 -0.54711253108E+02  0.17658111047E+02  0.47782331465E+02  0.74761496123E+02  0.10000000000E+01 0.  0.
    9000005    1    3    3    0    0  0.54711253108E+02 -0.17658111047E+02  0.13440127516E+03  0.14618424288E+03  0.10000000000E+01 0.  0.
<mgrwt>
<rscale>  0 0.12500461E+03</rscale>
<asrwt>0</asrwt>
<pdfrwt beam="2">  1        4 0.29817025E-02 0.12500461E+03</pdfrwt>
<pdfrwt beam="1">  1       -4 0.31009949E-01 0.12500461E+03</pdfrwt>
<totfact> 0.86709987E+03</totfact>
</mgrwt>
</event>
<event>
 5    1  0.3184438E-002  0.1250041E+03  0.7818608E-02  0.1235063E+00
          4   -1    0    0  501    0  0.00000000000E+00  0.00000000000E+00  0.34404666072E+03  0.34404900472E+03  0.12700000000E+01 0. -1.
         -4   -1    0    0    0  501 -0.00000000000E+00 -0.00000000000E+00 -0.11316678721E+02  0.11387717825E+02  0.12700000000E+01 0. -1.
         25    2    1    2    0    0  0.00000000000E+00  0.00000000000E+00  0.33272998200E+03  0.35543672255E+03  0.12500409120E+03 0.  0.
    9000005    1    3    3    0    0 -0.65246083078E+01 -0.24345959522E+02  0.37630023055E+01  0.25504047619E+02  0.10000000000E+01 0.  0.
    9000005    1    3    3    0    0  0.65246083078E+01  0.24345959522E+02  0.32896697969E+03  0.32993267493E+03  0.10000000000E+01 0.  0.
<mgrwt>
<rscale>  0 0.12500409E+03</rscale>
<asrwt>0</asrwt>
<pdfrwt beam="1">  1        4 0.52935895E-01 0.12500409E+03</pdfrwt>
<pdfrwt beam="2">  1       -4 0.17466725E-02 0.12500409E+03</pdfrwt>
<totfact> 0.69124307E+03</totfact>
</mgrwt>
</event>
<event>
 5    1  0.3184438E-002  0.1249970E+03  0.7818608E-02  0.1235074E+00
         -4   -1    0    0    0  501 -0.00000000000E+00  0.00000000000E+00  0.77871649153E+02  0.77882004608E+02  0.12700000000E+01 0. -1.
          4   -1    0    0  501    0  0.00000000000E+00 -0.00000000000E+00 -0.50138539874E+02  0.50154621728E+02  0.12700000000E+01 0. -1.
         25    2    1    2    0    0  0.00000000000E+00  0.00000000000E+00  0.27733109279E+02  0.12803662634E+03  0.12499700930E+03 0.  0.
    9000005    1    3    3    0    0 -0.27079815308E+02  0.32065504203E+02 -0.33557799179E+02  0.53746058857E+02  0.10000000000E+01 0.  0.
    9000005    1    3    3    0    0  0.27079815308E+02 -0.32065504203E+02  0.61290908458E+02  0.74290567480E+02  0.10000000000E+01 0.  0.
<mgrwt>
<rscale>  0 0.12499701E+03</rscale>
<asrwt>0</asrwt>
<pdfrwt beam="2">  1        4 0.77156552E-02 0.12499701E+03</pdfrwt>
<pdfrwt beam="1">  1       -4 0.11982287E-01 0.12499701E+03</pdfrwt>
<totfact> 0.10387398E+04</totfact>
</mgrwt>
</event>
<event>
 5    1  0.3184438E-002  0.1250020E+03  0.7818608E-02  0.1235066E+00
         -4   -1    0    0    0  501 -0.00000000000E+00  0.00000000000E+00  0.43328718900E+02  0.43347327271E+02  0.12700000000E+01 0. -1.
          4   -1    0    0  501    0  0.00000000000E+00 -0.00000000000E+00 -0.90114296461E+02  0.90123245207E+02  0.12700000000E+01 0. -1.
         25    2    1    2    0    0  0.00000000000E+00  0.00000000000E+00 -0.46785577561E+02  0.13347057248E+03  0.12500201378E+03 0.  0.
    9000005    1    3    3    0    0  0.22097983904E+02  0.17015842028E+02 -0.83105706173E+02  0.87666516818E+02  0.10000000000E+01 0.  0.
    9000005    1    3    3    0    0 -0.22097983904E+02 -0.17015842028E+02  0.36320128612E+02  0.45804055660E+02  0.10000000000E+01 0.  0.
<mgrwt>
<rscale>  0 0.12500201E+03</rscale>
<asrwt>0</asrwt>
<pdfrwt beam="2">  1        4 0.13865858E-01 0.12500201E+03</pdfrwt>
<pdfrwt beam="1">  1       -4 0.66680765E-02 0.12500201E+03</pdfrwt>
<totfact> 0.10269942E+04</totfact>
</mgrwt>
</event>
<event>
 5    1  0.3184438E-002  0.1250284E+03  0.7818608E-02  0.1235025E+00
         -4   -1    0    0    0  501 -0.00000000000E+00  0.00000000000E+00  0.12101226827E+03  0.12101893229E+03  0.12700000000E+01 0. -1.
          4   -1    0    0  501    0  0.00000000000E+00 -0.00000000000E+00 -0.32274432306E+02  0.32299409912E+02  0.12700000000E+01 0. -1.
         25    2    1    2    0    0  0.00000000000E+00  0.00000000000E+00  0.88737835967E+02  0.15331834220E+03  0.12502843886E+03 0.  0.
    9000005    1    3    3    0    0  0.23674270790E+02  0.36715941751E+02  0.99188657131E+02  0.10838782764E+03  0.10000000000E+01 0.  0.
    9000005    1    3    3    0    0 -0.23674270790E+02 -0.36715941751E+02 -0.10450821164E+02  0.44930514566E+02  0.10000000000E+01 0.  0.
<mgrwt>
<rscale>  0 0.12502844E+03</rscale>
<asrwt>0</asrwt>
<pdfrwt beam="2">  1        4 0.49677312E-02 0.12502844E+03</pdfrwt>
<pdfrwt beam="1">  1       -4 0.18619706E-01 0.12502844E+03</pdfrwt>
<totfact> 0.98583214E+03</totfact>
</mgrwt>
</event>
<event>
 5    1  0.3184438E-002  0.1249987E+03  0.7818608E-02  0.1235071E+00
         -4   -1    0    0    0  501 -0.00000000000E+00  0.00000000000E+00  0.10007986106E+04  0.10007994164E+04  0.12700000000E+01 0. -1.
          4   -1    0    0  501    0  0.00000000000E+00 -0.00000000000E+00 -0.37989149795E+01  0.40055779884E+01  0.12700000000E+01 0. -1.
         25    2    1    2    0    0  0.00000000000E+00  0.00000000000E+00  0.99699969563E+03  0.10048049944E+04  0.12499873477E+03 0.  0.
    9000005    1    3    3    0    0  0.56733823268E+01  0.63884234069E+00 -0.17375042336E+01  0.60509757498E+01  0.10000000000E+01 0.  0.
    9000005    1    3    3    0    0 -0.56733823268E+01 -0.63884234069E+00  0.99873719986E+03  0.99875401866E+03  0.10000000000E+01 0.  0.
<mgrwt>
<rscale>  0 0.12499873E+03</rscale>
<asrwt>0</asrwt>
<pdfrwt beam="2">  1        4 0.60040645E-03 0.12499873E+03</pdfrwt>
<pdfrwt beam="1">  1       -4 0.15398527E+00 0.12499873E+03</pdfrwt>
<totfact> 0.30447133E+03</totfact>
</mgrwt>
</event>
<event>
 5    1  0.3184438E-002  0.1250014E+03  0.7818608E-02  0.1235067E+00
          4   -1    0    0  501    0  0.00000000000E+00  0.00000000000E+00  0.26256252359E+02  0.26286949004E+02  0.12700000000E+01 0.  1.
         -4   -1    0    0    0  501 -0.00000000000E+00 -0.00000000000E+00 -0.14865710583E+03  0.14866253063E+03  0.12700000000E+01 0.  1.
         25    2    1    2    0    0  0.00000000000E+00  0.00000000000E+00 -0.12240085347E+03  0.17494947964E+03  0.12500140597E+03 0.  0.
    9000005    1    3    3    0    0 -0.31579706849E+02  0.31018499609E+02  0.53855043500E+00  0.44279964310E+02  0.10000000000E+01 0.  0.
    9000005    1    3    3    0    0  0.31579706849E+02 -0.31018499609E+02 -0.12293940391E+03  0.13066951533E+03  0.10000000000E+01 0.  0.
<mgrwt>
<rscale>  0 0.12500141E+03</rscale>
<asrwt>0</asrwt>
<pdfrwt beam="1">  1        4 0.40422021E-02 0.12500141E+03</pdfrwt>
<pdfrwt beam="2">  1       -4 0.22873102E-01 0.12500141E+03</pdfrwt>
<totfact> 0.94531113E+03</totfact>
</mgrwt>
</event>
<event>
 5    1  0.3184438E-002  0.1249995E+03  0.7818608E-02  0.1235070E+00
          4   -1    0    0  501    0  0.00000000000E+00  0.00000000000E+00  0.10820603425E+02  0.10894877626E+02  0.12700000000E+01 0. -1.
         -4   -1    0    0    0  501 -0.00000000000E+00 -0.00000000000E+00 -0.35968796672E+03  0.35969020879E+03  0.12700000000E+01 0. -1.
         25    2    1    2    0    0  0.00000000000E+00  0.00000000000E+00 -0.34886736329E+03  0.37058508642E+03  0.12499947642E+03 0.  0.
    9000005    1    3    3    0    0  0.21345295277E+02  0.21121431090E+02 -0.33691078715E+03  0.33824786027E+03  0.10000000000E+01 0.  0.
    9000005    1    3    3    0    0 -0.21345295277E+02 -0.21121431090E+02 -0.11956576144E+02  0.32337226146E+02  0.10000000000E+01 0.  0.
<mgrwt>
<rscale>  0 0.12499948E+03</rscale>
<asrwt>0</asrwt>
<pdfrwt beam="1">  1        4 0.16705944E-02 0.12499948E+03</pdfrwt>
<pdfrwt beam="2">  1       -4 0.55342487E-01 0.12499948E+03</pdfrwt>
<totfact> 0.67518556E+03</totfact>
</mgrwt>
</event>
<event>
 5    1  0.3184438E-002  0.1250015E+03  0.7818608E-02  0.1235067E+00
         -4   -1    0    0    0  501 -0.00000000000E+00  0.00000000000E+00  0.23095011098E+03  0.23095360283E+03  0.12700000000E+01 0. -1.
          4   -1    0    0  501    0  0.00000000000E+00 -0.00000000000E+00 -0.16886772646E+02  0.16934461621E+02  0.12700000000E+01 0. -1.
         25    2    1    2    0    0  0.00000000000E+00  0.00000000000E+00  0.21406333833E+03  0.24788806445E+03  0.12500151871E+03 0.  0.
    9000005    1    3    3    0    0  0.26947617525E+02  0.39101676917E+02  0.26472955039E+02  0.54377684545E+02  0.10000000000E+01 0.  0.
    9000005    1    3    3    0    0 -0.26947617525E+02 -0.39101676917E+02  0.18759038329E+03  0.19351037991E+03  0.10000000000E+01 0.  0.
<mgrwt>
<rscale>  0 0.12500152E+03</rscale>
<asrwt>0</asrwt>
<pdfrwt beam="2">  1        4 0.26019022E-02 0.12500152E+03</pdfrwt>
<pdfrwt beam="1">  1       -4 0.35534721E-01 0.12500152E+03</pdfrwt>
<totfact> 0.82633635E+03</totfact>
</mgrwt>
</event>
<event>
 5    1  0.3184438E-002  0.1249982E+03  0.7818608E-02  0.1235072E+00
         -4   -1    0    0    0  501 -0.00000000000E+00  0.00000000000E+00  0.18385105614E+03  0.18385544252E+03  0.12700000000E+01 0. -1.
          4   -1    0    0  501    0  0.00000000000E+00 -0.00000000000E+00 -0.21222570293E+02  0.21260535972E+02  0.12700000000E+01 0. -1.
         25    2    1    2    0    0  0.00000000000E+00  0.00000000000E+00  0.16262848585E+03  0.20511597849E+03  0.12499816088E+03 0.  0.
    9000005    1    3    3    0    0 -0.10168611256E+02  0.48726273483E+02  0.19315683724E+02  0.53401741733E+02  0.10000000000E+01 0.  0.
    9000005    1    3    3    0    0  0.10168611256E+02 -0.48726273483E+02  0.14331280212E+03  0.15171423676E+03  0.10000000000E+01 0.  0.
<mgrwt>
<rscale>  0 0.12499816E+03</rscale>
<asrwt>0</asrwt>
<pdfrwt beam="2">  1        4 0.32682685E-02 0.12499816E+03</pdfrwt>
<pdfrwt beam="1">  1       -4 0.28288037E-01 0.12499816E+03</pdfrwt>
<totfact> 0.89283440E+03</totfact>
</mgrwt>
</event>
<event>
 5    1  0.3184438E-002  0.1249990E+03  0.7818608E-02  0.1235071E+00
         -4   -1    0    0    0  501 -0.00000000000E+00  0.00000000000E+00  0.17477560180E+02  0.17523641455E+02  0.12700000000E+01 0. -1.
          4   -1    0    0  501    0  0.00000000000E+00 -0.00000000000E+00 -0.22315510280E+03  0.22315871663E+03  0.12700000000E+01 0. -1.
         25    2    1    2    0    0  0.00000000000E+00  0.00000000000E+00 -0.20567754262E+03  0.24068235808E+03  0.12499898381E+03 0.  0.
    9000005    1    3    3    0    0 -0.52993982666E+02 -0.47006149895E+01 -0.39715839782E+02  0.66398839671E+02  0.10000000000E+01 0.  0.
    9000005    1    3    3    0    0  0.52993982666E+02  0.47006149895E+01 -0.16596170284E+03  0.17428351841E+03  0.10000000000E+01 0.  0.
<mgrwt>
<rscale>  0 0.12499898E+03</rscale>
<asrwt>0</asrwt>
<pdfrwt beam="2">  1        4 0.34335375E-01 0.12499898E+03</pdfrwt>
<pdfrwt beam="1">  1       -4 0.26926783E-02 0.12499898E+03</pdfrwt>
<totfact> 0.83697744E+03</totfact>
</mgrwt>
</event>
<event>
 5    1  0.3184438E-002  0.1249999E+03  0.7818608E-02  0.1235070E+00
         -4   -1    0    0    0  501 -0.00000000000E+00  0.00000000000E+00  0.91832940059E+01  0.92706951627E+01  0.12700000000E+01 0.  1.
          4   -1    0    0  501    0  0.00000000000E+00 -0.00000000000E+00 -0.42326083424E+03  0.42326273956E+03  0.12700000000E+01 0.  1.
         25    2    1    2    0    0  0.00000000000E+00  0.00000000000E+00 -0.41407754023E+03  0.43253343472E+03  0.12499985131E+03 0.  0.
    9000005    1    3    3    0    0  0.47378210637E+02 -0.27622931267E+02 -0.31070376769E+03  0.31550840310E+03  0.10000000000E+01 0.  0.
    9000005    1    3    3    0    0 -0.47378210637E+02  0.27622931267E+02 -0.10337377254E+03  0.11702503162E+03  0.10000000000E+01 0.  0.
<mgrwt>
<rscale>  0 0.12499985E+03</rscale>
<asrwt>0</asrwt>
<pdfrwt beam="2">  1        4 0.65123906E-01 0.12499985E+03</pdfrwt>
<pdfrwt beam="1">  1       -4 0.14196845E-02 0.12499985E+03</pdfrwt>
<totfact> 0.61507229E+03</totfact>
</mgrwt>
</event>
<event>
 5    1  0.3184438E-002  0.1250025E+03  0.7818608E-02  0.1235065E+00
          4   -1    0    0  501    0  0.00000000000E+00  0.00000000000E+00  0.81916234327E+02  0.81926078548E+02  0.12700000000E+01 0.  1.
         -4   -1    0    0    0  501 -0.00000000000E+00 -0.00000000000E+00 -0.47666620320E+02  0.47683535866E+02  0.12700000000E+01 0.  1.
         25    2    1    2    0    0  0.00000000000E+00  0.00000000000E+00  0.34249614007E+02  0.12960961441E+03  0.12500246433E+03 0.  0.
    9000005    1    3    3    0    0  0.53213547198E+02  0.22421754437E+02 -0.76512325171E+01  0.58257686501E+02  0.10000000000E+01 0.  0.
    9000005    1    3    3    0    0 -0.53213547198E+02 -0.22421754437E+02  0.41900846524E+02  0.71351927913E+02  0.10000000000E+01 0.  0.
<mgrwt>
<rscale>  0 0.12500246E+03</rscale>
<asrwt>0</asrwt>
<pdfrwt beam="1">  1        4 0.12604556E-01 0.12500246E+03</pdfrwt>
<pdfrwt beam="2">  1       -4 0.73353847E-02 0.12500246E+03</pdfrwt>
<totfact> 0.10352290E+04</totfact>
</mgrwt>
</event>
<event>
 4    1  0.3184438E-002  0.1236158E+03  0.7818608E-02  0.1237248E+00
         -4   -1    0    0    0  501 -0.00000000000E+00  0.00000000000E+00  0.92803865637E+01  0.93668818063E+01  0.12700000000E+01 0. -1.
          4   -1    0    0  501    0  0.00000000000E+00 -0.00000000000E+00 -0.40964745780E+03  0.40964942644E+03  0.12700000000E+01 0. -1.
    9000005    1    1    2    0    0  0.35239237123E+01 -0.25403443510E+02 -0.95931204516E+01  0.27400382124E+02  0.10000000000E+01 0.  0.
    9000005    1    1    2    0    0 -0.35239237123E+01  0.25403443510E+02 -0.39077395078E+03  0.39161592612E+03  0.10000000000E+01 0.  0.
<mgrwt>
<rscale>  0 0.12361584E+03</rscale>
<asrwt>0</asrwt>
<pdfrwt beam="2">  1        4 0.63029477E-01 0.12361584E+03</pdfrwt>
<pdfrwt beam="1">  1       -4 0.14345570E-02 0.12361584E+03</pdfrwt>
<totfact> 0.64699432E+03</totfact>
</mgrwt>
</event>
<event>
 5    1  0.3184438E-002  0.1249958E+03  0.7818608E-02  0.1235076E+00
         -4   -1    0    0    0  501 -0.00000000000E+00  0.00000000000E+00  0.17448202474E+03  0.17448664664E+03  0.12700000000E+01 0.  1.
          4   -1    0    0  501    0  0.00000000000E+00 -0.00000000000E+00 -0.22363246034E+02  0.22399278407E+02  0.12700000000E+01 0.  1.
         25    2    1    2    0    0  0.00000000000E+00  0.00000000000E+00  0.15211877870E+03  0.19688592505E+03  0.12499577852E+03 0.  0.
    9000005    1    3    3    0    0  0.24080275116E+02  0.30290269399E+01  0.16676275662E+03  0.16852255531E+03  0.10000000000E+01 0.  0.
    9000005    1    3    3    0    0 -0.24080275116E+02 -0.30290269399E+01 -0.14643977913E+02  0.28363369740E+02  0.10000000000E+01 0.  0.
<mgrwt>
<rscale>  0 0.12499578E+03</rscale>
<asrwt>0</asrwt>
<pdfrwt beam="2">  1        4 0.34436267E-02 0.12499578E+03</pdfrwt>
<pdfrwt beam="1">  1       -4 0.26846516E-01 0.12499578E+03</pdfrwt>
<totfact> 0.90671366E+03</totfact>
</mgrwt>
</event>
<event>
 5    1  0.3184438E-002  0.1249921E+03  0.7818608E-02  0.1235082E+00
         -4   -1    0    0    0  501 -0.00000000000E+00  0.00000000000E+00  0.13033295407E+02  0.13095025360E+02  0.12700000000E+01 0.  1.
          4   -1    0    0  501    0  0.00000000000E+00 -0.00000000000E+00 -0.29890422000E+03  0.29890691801E+03  0.12700000000E+01 0.  1.
         25    2    1    2    0    0  0.00000000000E+00  0.00000000000E+00 -0.28587092459E+03  0.31200194337E+03  0.12499210830E+03 0.  0.
    9000005    1    3    3    0    0  0.16992920502E+02 -0.88324899162E+01 -0.29141023604E+03  0.29204057576E+03  0.10000000000E+01 0.  0.
    9000005    1    3    3    0    0 -0.16992920502E+02  0.88324899162E+01  0.55393114459E+01  0.19961367604E+02  0.10000000000E+01 0.  0.
<mgrwt>
<rscale>  0 0.12499211E+03</rscale>
<asrwt>0</asrwt>
<pdfrwt beam="2">  1        4 0.45990215E-01 0.12499211E+03</pdfrwt>
<pdfrwt beam="1">  1       -4 0.20100786E-02 0.12499211E+03</pdfrwt>
<totfact> 0.74130563E+03</totfact>
</mgrwt>
</event>
<event>
 5    1  0.3184438E-002  0.1249899E+03  0.7818608E-02  0.1235085E+00
          4   -1    0    0  501    0  0.00000000000E+00  0.00000000000E+00  0.29763813098E+02  0.29790895759E+02  0.12700000000E+01 0. -1.
         -4   -1    0    0    0  501 -0.00000000000E+00 -0.00000000000E+00 -0.13113060499E+03  0.13113675482E+03  0.12700000000E+01 0. -1.
         25    2    1    2    0    0  0.00000000000E+00  0.00000000000E+00 -0.10136679189E+03  0.16092765058E+03  0.12498992848E+03 0.  0.
    9000005    1    3    3    0    0  0.51192370782E+02 -0.29776907863E+02 -0.25020033318E+02  0.64298717992E+02  0.10000000000E+01 0.  0.
    9000005    1    3    3    0    0 -0.51192370782E+02  0.29776907863E+02 -0.76346758572E+02  0.96628932586E+02  0.10000000000E+01 0.  0.
<mgrwt>
<rscale>  0 0.12498993E+03</rscale>
<asrwt>0</asrwt>
<pdfrwt beam="1">  1        4 0.45816046E-02 0.12498993E+03</pdfrwt>
<pdfrwt beam="2">  1       -4 0.20176495E-01 0.12498993E+03</pdfrwt>
<totfact> 0.97186236E+03</totfact>
</mgrwt>
</event>
<event>
 5    1  0.3184438E-002  0.1250004E+03  0.7818608E-02  0.1235069E+00
         -4   -1    0    0    0  501 -0.00000000000E+00  0.00000000000E+00  0.48921734597E+02  0.48938216314E+02  0.12700000000E+01 0. -1.
          4   -1    0    0  501    0  0.00000000000E+00 -0.00000000000E+00 -0.79812486098E+02  0.79822589767E+02  0.12700000000E+01 0. -1.
         25    2    1    2    0    0  0.00000000000E+00  0.00000000000E+00 -0.30890751500E+02  0.12876080608E+03  0.12500042662E+03 0.  0.
    9000005    1    3    3    0    0  0.28610998496E+02  0.29758303883E+02  0.32882211650E+02  0.52786226688E+02  0.10000000000E+01 0.  0.
    9000005    1    3    3    0    0 -0.28610998496E+02 -0.29758303883E+02 -0.63772963150E+02  0.75974579393E+02  0.10000000000E+01 0.  0.
<mgrwt>
<rscale>  0 0.12500043E+03</rscale>
<asrwt>0</asrwt>
<pdfrwt beam="2">  1        4 0.12280889E-01 0.12500043E+03</pdfrwt>
<pdfrwt beam="1">  1       -4 0.75284657E-02 0.12500043E+03</pdfrwt>
<totfact> 0.10370990E+04</totfact>
</mgrwt>
</event>
<event>
 5    1  0.3184438E-002  0.1249982E+03  0.7818608E-02  0.1235072E+00
         -4   -1    0    0    0  501 -0.00000000000E+00  0.00000000000E+00  0.35837727353E+02  0.35860223115E+02  0.12700000000E+01 0.  1.
          4   -1    0    0  501    0  0.00000000000E+00 -0.00000000000E+00 -0.10893464394E+03  0.10894204675E+03  0.12700000000E+01 0.  1.
         25    2    1    2    0    0  0.00000000000E+00  0.00000000000E+00 -0.73096916585E+02  0.14480226986E+03  0.12499815256E+03 0.  0.
    9000005    1    3    3    0    0 -0.13857253489E+02 -0.58907791461E+02 -0.18490864910E+02  0.63285570663E+02  0.10000000000E+01 0.  0.
    9000005    1    3    3    0    0  0.13857253489E+02  0.58907791461E+02 -0.54606051675E+02  0.81516699201E+02  0.10000000000E+01 0.  0.
<mgrwt>
<rscale>  0 0.12499815E+03</rscale>
<asrwt>0</asrwt>
<pdfrwt beam="2">  1        4 0.16761476E-01 0.12499815E+03</pdfrwt>
<pdfrwt beam="1">  1       -4 0.55157964E-02 0.12499815E+03</pdfrwt>
<totfact> 0.10035425E+04</totfact>
</mgrwt>
</event>
<event>
 5    1  0.3184438E-002  0.1250008E+03  0.7818608E-02  0.1235068E+00
         -4   -1    0    0    0  501 -0.00000000000E+00  0.00000000000E+00  0.94095954816E+02  0.94104524932E+02  0.12700000000E+01 0. -1.
          4   -1    0    0  501    0  0.00000000000E+00 -0.00000000000E+00 -0.41493836871E+02  0.41513267738E+02  0.12700000000E+01 0. -1.
         25    2    1    2    0    0  0.00000000000E+00  0.00000000000E+00  0.52602117945E+02  0.13561779267E+03  0.12500081150E+03 0.  0.
    9000005    1    3    3    0    0  0.10177380572E+02  0.34013405558E+02  0.82096802437E+02  0.89450409744E+02  0.10000000000E+01 0.  0.
    9000005    1    3    3    0    0 -0.10177380572E+02 -0.34013405558E+02 -0.29494684492E+02  0.46167382926E+02  0.10000000000E+01 0.  0.
<mgrwt>
<rscale>  0 0.12500081E+03</rscale>
<asrwt>0</asrwt>
<pdfrwt beam="2">  1        4 0.63858212E-02 0.12500081E+03</pdfrwt>
<pdfrwt beam="1">  1       -4 0.14478455E-01 0.12500081E+03</pdfrwt>
<totfact> 0.10224879E+04</totfact>
</mgrwt>
</event>
<event>
 5    1  0.3184438E-002  0.1250236E+03  0.7818608E-02  0.1235032E+00
         -4   -1    0    0    0  501 -0.00000000000E+00  0.00000000000E+00  0.46272078635E+03  0.46272252919E+03  0.12700000000E+01 0. -1.
          4   -1    0    0  501    0  0.00000000000E+00 -0.00000000000E+00 -0.83955904163E+01  0.84911034877E+01  0.12700000000E+01 0. -1.
         25    2    1    2    0    0  0.00000000000E+00  0.00000000000E+00  0.45432519593E+03  0.47121363268E+03  0.12502361362E+03 0.  0.
    9000005    1    3    3    0    0 -0.31574377807E+02  0.53439146368E+02  0.25486980047E+03  0.26232098446E+03  0.10000000000E+01 0.  0.
    9000005    1    3    3    0    0  0.31574377807E+02 -0.53439146368E+02  0.19945539546E+03  0.20889264821E+03  0.10000000000E+01 0.  0.
<mgrwt>
<rscale>  0 0.12502361E+03</rscale>
<asrwt>0</asrwt>
<pdfrwt beam="2">  1        4 0.12991105E-02 0.12502361E+03</pdfrwt>
<pdfrwt beam="1">  1       -4 0.71195294E-01 0.12502361E+03</pdfrwt>
<totfact> 0.58138897E+03</totfact>
</mgrwt>
</event>
<event>
 5    1  0.3184438E-002  0.1250071E+03  0.7818608E-02  0.1235058E+00
          4   -1    0    0  501    0  0.00000000000E+00  0.00000000000E+00  0.51106874244E+01  0.52661205787E+01  0.12700000000E+01 0. -1.
         -4   -1    0    0    0  501 -0.00000000000E+00 -0.00000000000E+00 -0.75281053756E+03  0.75281160882E+03  0.12700000000E+01 0. -1.
         25    2    1    2    0    0  0.00000000000E+00  0.00000000000E+00 -0.74769985014E+03  0.75807772939E+03  0.12500711142E+03 0.  0.
    9000005    1    3    3    0    0 -0.15111184630E+02 -0.56414499432E+02 -0.23896224551E+03  0.24599776101E+03  0.10000000000E+01 0.  0.
    9000005    1    3    3    0    0  0.15111184630E+02  0.56414499432E+02 -0.50873760463E+03  0.51207996838E+03  0.10000000000E+01 0.  0.
<mgrwt>
<rscale>  0 0.12500711E+03</rscale>
<asrwt>0</asrwt>
<pdfrwt beam="1">  1        4 0.79829900E-03 0.12500711E+03</pdfrwt>
<pdfrwt beam="2">  1       -4 0.11582896E+00 0.12500711E+03</pdfrwt>
<totfact> 0.40184507E+03</totfact>
</mgrwt>
</event>
<event>
 5    1  0.3184438E-002  0.1249960E+03  0.7818608E-02  0.1235075E+00
         -4   -1    0    0    0  501 -0.00000000000E+00  0.00000000000E+00  0.29478529397E+03  0.29478802967E+03  0.12700000000E+01 0.  1.
          4   -1    0    0  501    0  0.00000000000E+00 -0.00000000000E+00 -0.13217095658E+02  0.13277971141E+02  0.12700000000E+01 0.  1.
         25    2    1    2    0    0  0.00000000000E+00  0.00000000000E+00  0.28156819831E+03  0.30806600081E+03  0.12499604217E+03 0.  0.
    9000005    1    3    3    0    0 -0.42524724731E+02 -0.45420046610E+02  0.15508514266E+03  0.16710396261E+03  0.10000000000E+01 0.  0.
    9000005    1    3    3    0    0  0.42524724731E+02  0.45420046610E+02  0.12648305565E+03  0.14096203820E+03  0.10000000000E+01 0.  0.
<mgrwt>
<rscale>  0 0.12499604E+03</rscale>
<asrwt>0</asrwt>
<pdfrwt beam="2">  1        4 0.20382926E-02 0.12499604E+03</pdfrwt>
<pdfrwt beam="1">  1       -4 0.45356474E-01 0.12499604E+03</pdfrwt>
<totfact> 0.74604618E+03</totfact>
</mgrwt>
</event>
<event>
 5    1  0.3184438E-002  0.1249959E+03  0.7818608E-02  0.1235076E+00
         -4   -1    0    0    0  501 -0.00000000000E+00  0.00000000000E+00  0.42504454903E+02  0.42523423976E+02  0.12700000000E+01 0. -1.
          4   -1    0    0  501    0  0.00000000000E+00 -0.00000000000E+00 -0.91852235325E+02  0.91861014768E+02  0.12700000000E+01 0. -1.
         25    2    1    2    0    0  0.00000000000E+00  0.00000000000E+00 -0.49347780421E+02  0.13438443874E+03  0.12499589571E+03 0.  0.
    9000005    1    3    3    0    0 -0.58842783415E+02  0.14862435022E+02 -0.86685140111E+01  0.61314829120E+02  0.10000000000E+01 0.  0.
    9000005    1    3    3    0    0  0.58842783415E+02 -0.14862435022E+02 -0.40679266410E+02  0.73069609623E+02  0.10000000000E+01 0.  0.
<mgrwt>
<rscale>  0 0.12499590E+03</rscale>
<asrwt>0</asrwt>
<pdfrwt beam="2">  1        4 0.14133248E-01 0.12499590E+03</pdfrwt>
<pdfrwt beam="1">  1       -4 0.65412814E-02 0.12499590E+03</pdfrwt>
<totfact> 0.10252011E+04</totfact>
</mgrwt>
</event>
<event>
 5    1  0.3184438E-002  0.1249993E+03  0.7818608E-02  0.1235070E+00
         -4   -1    0    0    0  501 -0.00000000000E+00  0.00000000000E+00  0.20092211428E+02  0.20132308861E+02  0.12700000000E+01 0. -1.
          4   -1    0    0  501    0  0.00000000000E+00 -0.00000000000E+00 -0.19417792314E+03  0.19418207624E+03  0.12700000000E+01 0. -1.
         25    2    1    2    0    0  0.00000000000E+00  0.00000000000E+00 -0.17408571171E+03  0.21431438510E+03  0.12499928256E+03 0.  0.
    9000005    1    3    3    0    0 -0.53962390647E+02 -0.60889607577E+01 -0.14005995073E+03  0.15022251778E+03  0.10000000000E+01 0.  0.
    9000005    1    3    3    0    0  0.53962390647E+02  0.60889607577E+01 -0.34025760975E+02  0.64091867327E+02  0.10000000000E+01 0.  0.
<mgrwt>
<rscale>  0 0.12499928E+03</rscale>
<asrwt>0</asrwt>
<pdfrwt beam="2">  1        4 0.29876929E-01 0.12499928E+03</pdfrwt>
<pdfrwt beam="1">  1       -4 0.30945135E-02 0.12499928E+03</pdfrwt>
<totfact> 0.87777505E+03</totfact>
</mgrwt>
</event>
<event>
 5    1  0.3184438E-002  0.1250011E+03  0.7818608E-02  0.1235068E+00
          4   -1    0    0  501    0  0.00000000000E+00  0.00000000000E+00  0.20581818096E+03  0.20582209919E+03  0.12700000000E+01 0. -1.
         -4   -1    0    0    0  501 -0.00000000000E+00 -0.00000000000E+00 -0.18954105839E+02  0.18996605701E+02  0.12700000000E+01 0. -1.
         25    2    1    2    0    0  0.00000000000E+00  0.00000000000E+00  0.18686407512E+03  0.22481870489E+03  0.12500106998E+03 0.  0.
    9000005    1    3    3    0    0 -0.41430573829E+02  0.46710154260E+02  0.98185722218E+02  0.11636050449E+03  0.10000000000E+01 0.  0.
    9000005    1    3    3    0    0  0.41430573829E+02 -0.46710154260E+02  0.88678352906E+02  0.10845820040E+03  0.10000000000E+01 0.  0.
<mgrwt>
<rscale>  0 0.12500107E+03</rscale>
<asrwt>0</asrwt>
<pdfrwt beam="1">  1        4 0.31667906E-01 0.12500107E+03</pdfrwt>
<pdfrwt beam="2">  1       -4 0.29195869E-02 0.12500107E+03</pdfrwt>
<totfact> 0.86109491E+03</totfact>
</mgrwt>
</event>
<event>
 5    1  0.3184438E-002  0.1249982E+03  0.7818608E-02  0.1235072E+00
         -4   -1    0    0    0  501 -0.00000000000E+00  0.00000000000E+00  0.17052323615E+02  0.17099550891E+02  0.12700000000E+01 0. -1.
          4   -1    0    0  501    0  0.00000000000E+00 -0.00000000000E+00 -0.22870210862E+03  0.22870563479E+03  0.12700000000E+01 0. -1.
         25    2    1    2    0    0  0.00000000000E+00  0.00000000000E+00 -0.21164978500E+03  0.24580518569E+03  0.12499823126E+03 0.  0.
    9000005    1    3    3    0    0  0.13768337043E+02 -0.32212326134E+02 -0.20758732135E+03  0.21052481337E+03  0.10000000000E+01 0.  0.
    9000005    1    3    3    0    0 -0.13768337043E+02  0.32212326134E+02 -0.40624636581E+01  0.35280372318E+02  0.10000000000E+01 0.  0.
<mgrwt>
<rscale>  0 0.12499823E+03</rscale>
<asrwt>0</asrwt>
<pdfrwt beam="2">  1        4 0.35188842E-01 0.12499823E+03</pdfrwt>
<pdfrwt beam="1">  1       -4 0.26273387E-02 0.12499823E+03</pdfrwt>
<totfact> 0.82943584E+03</totfact>
</mgrwt>
</event>
<event>
 5    1  0.3184438E-002  0.1250021E+03  0.7818608E-02  0.1235066E+00
         -4   -1    0    0    0  501 -0.00000000000E+00  0.00000000000E+00  0.54361738509E+02  0.54376571368E+02  0.12700000000E+01 0.  1.
          4   -1    0    0  501    0  0.00000000000E+00 -0.00000000000E+00 -0.71828793428E+02  0.71840019942E+02  0.12700000000E+01 0.  1.
         25    2    1    2    0    0  0.00000000000E+00  0.00000000000E+00 -0.17467054918E+02  0.12621659131E+03  0.12500211964E+03 0.  0.
    9000005    1    3    3    0    0  0.28821193375E+02 -0.44401570370E+02 -0.42271012747E+02  0.67749532526E+02  0.10000000000E+01 0.  0.
    9000005    1    3    3    0    0 -0.28821193375E+02  0.44401570370E+02  0.24803957829E+02  0.58467058784E+02  0.10000000000E+01 0.  0.
<mgrwt>
<rscale>  0 0.12500212E+03</rscale>
<asrwt>0</asrwt>
<pdfrwt beam="2">  1        4 0.11052588E-01 0.12500212E+03</pdfrwt>
<pdfrwt beam="1">  1       -4 0.83653489E-02 0.12500212E+03</pdfrwt>
<totfact> 0.10425717E+04</totfact>
</mgrwt>
</event>
<event>
 5    1  0.3184438E-002  0.1250002E+03  0.7818608E-02  0.1235069E+00
          4   -1    0    0  501    0  0.00000000000E+00  0.00000000000E+00  0.93673934990E+01  0.94530926667E+01  0.12700000000E+01 0.  1.
         -4   -1    0    0    0  501 -0.00000000000E+00 -0.00000000000E+00 -0.41502105858E+03  0.41502300173E+03  0.12700000000E+01 0.  1.
         25    2    1    2    0    0  0.00000000000E+00  0.00000000000E+00 -0.40565366508E+03  0.42447609440E+03  0.12500023488E+03 0.  0.
    9000005    1    3    3    0    0  0.44368714082E+02  0.26306949847E+02 -0.83025433125E+02  0.97748969023E+02  0.10000000000E+01 0.  0.
    9000005    1    3    3    0    0 -0.44368714082E+02 -0.26306949847E+02 -0.32262823196E+03  0.32672712538E+03  0.10000000000E+01 0.  0.
<mgrwt>
<rscale>  0 0.12500023E+03</rscale>
<asrwt>0</asrwt>
<pdfrwt beam="1">  1        4 0.14478795E-02 0.12500023E+03</pdfrwt>
<pdfrwt beam="2">  1       -4 0.63856121E-01 0.12500023E+03</pdfrwt>
<totfact> 0.62239595E+03</totfact>
</mgrwt>
</event>
<event>
 5    1  0.3184438E-002  0.1250028E+03  0.7818608E-02  0.1235065E+00
          4   -1    0    0  501    0  0.00000000000E+00  0.00000000000E+00  0.61383194207E+02  0.61396330763E+02  0.12700000000E+01 0. -1.
         -4   -1    0    0    0  501 -0.00000000000E+00 -0.00000000000E+00 -0.63613656996E+02  0.63626333043E+02  0.12700000000E+01 0. -1.
         25    2    1    2    0    0  0.00000000000E+00  0.00000000000E+00 -0.22304627888E+01  0.12502266381E+03  0.12500276597E+03 0.  0.
    9000005    1    3    3    0    0 -0.11280798849E+02 -0.35967421904E+02  0.48737572355E+02  0.61621934570E+02  0.10000000000E+01 0.  0.
    9000005    1    3    3    0    0  0.11280798849E+02  0.35967421904E+02 -0.50968035144E+02  0.63400729235E+02  0.10000000000E+01 0.  0.
<mgrwt>
<rscale>  0 0.12500277E+03</rscale>
<asrwt>0</asrwt>
<pdfrwt beam="1">  1        4 0.94455539E-02 0.12500277E+03</pdfrwt>
<pdfrwt beam="2">  1       -4 0.97887021E-02 0.12500277E+03</pdfrwt>
<totfact> 0.10451717E+04</totfact>
</mgrwt>
</event>
<event>
 5    1  0.3184438E-002  0.1249951E+03  0.7818608E-02  0.1235077E+00
          4   -1    0    0  501    0  0.00000000000E+00  0.00000000000E+00  0.21746322998E+03  0.21746693839E+03  0.12700000000E+01 0. -1.
         -4   -1    0    0    0  501 -0.00000000000E+00 -0.00000000000E+00 -0.17935091627E+02  0.17980000324E+02  0.12700000000E+01 0. -1.
         25    2    1    2    0    0  0.00000000000E+00  0.00000000000E+00  0.19952813835E+03  0.23544693871E+03  0.12499513173E+03 0.  0.
    9000005    1    3    3    0    0  0.49309455664E+01 -0.57940314013E+02  0.56663831533E+02  0.81198423729E+02  0.10000000000E+01 0.  0.
    9000005    1    3    3    0    0 -0.49309455664E+01  0.57940314013E+02  0.14286430682E+03  0.15424851498E+03  0.10000000000E+01 0.  0.
<mgrwt>
<rscale>  0 0.12499513E+03</rscale>
<asrwt>0</asrwt>
<pdfrwt beam="1">  1        4 0.33459620E-01 0.12499513E+03</pdfrwt>
<pdfrwt beam="2">  1       -4 0.27629848E-02 0.12499513E+03</pdfrwt>
<totfact> 0.84489345E+03</totfact>
</mgrwt>
</event>
<event>
 5    1  0.3184438E-002  0.1250024E+03  0.7818608E-02  0.1235066E+00
          4   -1    0    0  501    0  0.00000000000E+00  0.00000000000E+00  0.17722981917E+03  0.17723436942E+03  0.12700000000E+01 0.  1.
         -4   -1    0    0    0  501 -0.00000000000E+00 -0.00000000000E+00 -0.22018297903E+02  0.22054893846E+02  0.12700000000E+01 0.  1.
         25    2    1    2    0    0  0.00000000000E+00  0.00000000000E+00  0.15521152126E+03  0.19928926326E+03  0.12500237645E+03 0.  0.
    9000005    1    3    3    0    0 -0.46250804986E+02  0.39105431218E+02  0.53060685026E+02  0.80528305633E+02  0.10000000000E+01 0.  0.
    9000005    1    3    3    0    0  0.46250804986E+02 -0.39105431218E+02  0.10215083624E+03  0.11876095763E+03  0.10000000000E+01 0.  0.
<mgrwt>
<rscale>  0 0.12500238E+03</rscale>
<asrwt>0</asrwt>
<pdfrwt beam="1">  1        4 0.27269291E-01 0.12500238E+03</pdfrwt>
<pdfrwt beam="2">  1       -4 0.33905956E-02 0.12500238E+03</pdfrwt>
<totfact> 0.90250717E+03</totfact>
</mgrwt>
</event>
<event>
 5    1  0.3184438E-002  0.1249997E+03  0.7818608E-02  0.1235070E+00
         -4   -1    0    0    0  501 -0.00000000000E+00  0.00000000000E+00  0.78069522702E+01  0.79095767111E+01  0.12700000000E+01 0. -1.
          4   -1    0    0  501    0  0.00000000000E+00 -0.00000000000E+00 -0.49698200991E+03  0.49698363260E+03  0.12700000000E+01 0. -1.
         25    2    1    2    0    0  0.00000000000E+00  0.00000000000E+00 -0.48917505764E+03  0.50489320931E+03  0.12499966317E+03 0.  0.
    9000005    1    3    3    0    0  0.34826282380E+02 -0.50096904661E+02 -0.29917731583E+03  0.30533692228E+03  0.10000000000E+01 0.  0.
    9000005    1    3    3    0    0 -0.34826282380E+02  0.50096904661E+02 -0.18999774181E+03  0.19955628703E+03  0.10000000000E+01 0.  0.
<mgrwt>
<rscale>  0 0.12499966E+03</rscale>
<asrwt>0</asrwt>
<pdfrwt beam="2">  1        4 0.76466765E-01 0.12499966E+03</pdfrwt>
<pdfrwt beam="1">  1       -4 0.12090890E-02 0.12499966E+03</pdfrwt>
<totfact> 0.55487124E+03</totfact>
</mgrwt>
</event>
<event>
 5    1  0.3184438E-002  0.1250196E+03  0.7818608E-02  0.1235039E+00
         -4   -1    0    0    0  501 -0.00000000000E+00  0.00000000000E+00  0.21128794208E+03  0.21129175887E+03  0.12700000000E+01 0.  1.
          4   -1    0    0  501    0  0.00000000000E+00 -0.00000000000E+00 -0.18467796432E+02  0.18511412833E+02  0.12700000000E+01 0.  1.
         25    2    1    2    0    0  0.00000000000E+00  0.00000000000E+00  0.19282014565E+03  0.22980317171E+03  0.12501955511E+03 0.  0.
    9000005    1    3    3    0    0  0.15060521132E+02 -0.53088766713E+02  0.42466573337E+02  0.69639401914E+02  0.10000000000E+01 0.  0.
    9000005    1    3    3    0    0 -0.15060521132E+02  0.53088766713E+02  0.15035357231E+03  0.16016376979E+03  0.10000000000E+01 0.  0.
<mgrwt>
<rscale>  0 0.12501956E+03</rscale>
<asrwt>0</asrwt>
<pdfrwt beam="2">  1        4 0.28448481E-02 0.12501956E+03</pdfrwt>
<pdfrwt beam="1">  1       -4 0.32509487E-01 0.12501956E+03</pdfrwt>
<totfact> 0.85302603E+03</totfact>
</mgrwt>
</event>
<event>
 5    1  0.3184438E-002  0.1250028E+03  0.7818608E-02  0.1235065E+00
          4   -1    0    0  501    0  0.00000000000E+00  0.00000000000E+00  0.59504664804E+02  0.59518215980E+02  0.12700000000E+01 0. -1.
         -4   -1    0    0    0  501 -0.00000000000E+00 -0.00000000000E+00 -0.65621915791E+02  0.65634203980E+02  0.12700000000E+01 0. -1.
         25    2    1    2    0    0  0.00000000000E+00  0.00000000000E+00 -0.61172509869E+01  0.12515241996E+03  0.12500282982E+03 0.  0.
    9000005    1    3    3    0    0  0.28645127217E+02  0.54220318472E+02 -0.15116318606E+02  0.63165570818E+02  0.10000000000E+01 0.  0.
    9000005    1    3    3    0    0 -0.28645127217E+02 -0.54220318472E+02  0.89990676194E+01  0.61986849142E+02  0.10000000000E+01 0.  0.
<mgrwt>
<rscale>  0 0.12500283E+03</rscale>
<asrwt>0</asrwt>
<pdfrwt beam="1">  1        4 0.91565515E-02 0.12500283E+03</pdfrwt>
<pdfrwt beam="2">  1       -4 0.10097667E-01 0.12500283E+03</pdfrwt>
<totfact> 0.10448885E+04</totfact>
</mgrwt>
</event>
<event>
 5    1  0.3184438E-002  0.1250003E+03  0.7818608E-02  0.1235069E+00
         -4   -1    0    0    0  501 -0.00000000000E+00  0.00000000000E+00  0.22216232700E+02  0.22252503126E+02  0.12700000000E+01 0.  1.
          4   -1    0    0  501    0  0.00000000000E+00 -0.00000000000E+00 -0.17564757700E+03  0.17565216824E+03  0.12700000000E+01 0.  1.
         25    2    1    2    0    0  0.00000000000E+00  0.00000000000E+00 -0.15343134430E+03  0.19790467136E+03  0.12500032613E+03 0.  0.
    9000005    1    3    3    0    0 -0.18853963931E+02  0.59241896998E+02 -0.66677915039E+02  0.91170272950E+02  0.10000000000E+01 0.  0.
    9000005    1    3    3    0    0  0.18853963931E+02 -0.59241896998E+02 -0.86753429261E+02  0.10673439841E+03  0.10000000000E+01 0.  0.
<mgrwt>
<rscale>  0 0.12500033E+03</rscale>
<asrwt>0</asrwt>
<pdfrwt beam="2">  1        4 0.27025846E-01 0.12500033E+03</pdfrwt>
<pdfrwt beam="1">  1       -4 0.34210253E-02 0.12500033E+03</pdfrwt>
<totfact> 0.90489167E+03</totfact>
</mgrwt>
</event>
<event>
 5    1  0.3184438E-002  0.1249891E+03  0.7818608E-02  0.1235086E+00
          4   -1    0    0  501    0  0.00000000000E+00  0.00000000000E+00  0.33197325689E+02  0.33221609427E+02  0.12700000000E+01 0. -1.
         -4   -1    0    0    0  501 -0.00000000000E+00 -0.00000000000E+00 -0.11757633145E+03  0.11758319020E+03  0.12700000000E+01 0. -1.
         25    2    1    2    0    0  0.00000000000E+00  0.00000000000E+00 -0.84379005764E+02  0.15080479963E+03  0.12498908343E+03 0.  0.
    9000005    1    3    3    0    0 -0.37113355933E+02  0.55593750064E+00  0.18460867192E+02  0.41467021506E+02  0.10000000000E+01 0.  0.
    9000005    1    3    3    0    0  0.37113355933E+02 -0.55593750064E+00 -0.10283987296E+03  0.10933777812E+03  0.10000000000E+01 0.  0.
<mgrwt>
<rscale>  0 0.12498908E+03</rscale>
<asrwt>0</asrwt>
<pdfrwt beam="1">  1        4 0.51096765E-02 0.12498908E+03</pdfrwt>
<pdfrwt beam="2">  1       -4 0.18091062E-01 0.12498908E+03</pdfrwt>
<totfact> 0.99167875E+03</totfact>
</mgrwt>
</event>
<event>
 5    1  0.3184438E-002  0.1249973E+03  0.7818608E-02  0.1235073E+00
         -4   -1    0    0    0  501 -0.00000000000E+00  0.00000000000E+00  0.10108864367E+03  0.10109662101E+03  0.12700000000E+01 0.  1.
          4   -1    0    0  501    0  0.00000000000E+00 -0.00000000000E+00 -0.38620219278E+02  0.38641095185E+02  0.12700000000E+01 0.  1.
         25    2    1    2    0    0  0.00000000000E+00  0.00000000000E+00  0.62468424391E+02  0.13973771619E+03  0.12499730109E+03 0.  0.
    9000005    1    3    3    0    0 -0.18691476425E+02  0.16422562301E+02 -0.32849463053E+02  0.41220857176E+02  0.10000000000E+01 0.  0.
    9000005    1    3    3    0    0  0.18691476425E+02 -0.16422562301E+02  0.95317887444E+02  0.98516859015E+02  0.10000000000E+01 0.  0.
<mgrwt>
<rscale>  0 0.12499730E+03</rscale>
<asrwt>0</asrwt>
<pdfrwt beam="2">  1        4 0.59437916E-02 0.12499730E+03</pdfrwt>
<pdfrwt beam="1">  1       -4 0.15554319E-01 0.12499730E+03</pdfrwt>
<totfact> 0.10139641E+04</totfact>
</mgrwt>
</event>
<event>
 5    1  0.3184438E-002  0.1249998E+03  0.7818608E-02  0.1235070E+00
         -4   -1    0    0    0  501 -0.00000000000E+00  0.00000000000E+00  0.27595355293E+01  0.30377518558E+01  0.12700000000E+01 0. -1.
          4   -1    0    0  501    0  0.00000000000E+00 -0.00000000000E+00 -0.13473309805E+04  0.13473315790E+04  0.12700000000E+01 0. -1.
         25    2    1    2    0    0  0.00000000000E+00  0.00000000000E+00 -0.13445714450E+04  0.13503693309E+04  0.12499983692E+03 0.  0.
    9000005    1    3    3    0    0  0.45788079962E+02 -0.36580463714E+02 -0.90662829002E+03  0.90852107012E+03  0.10000000000E+01 0.  0.
    9000005    1    3    3    0    0 -0.45788079962E+02  0.36580463714E+02 -0.43794315493E+03  0.44184826077E+03  0.10000000000E+01 0.  0.
<mgrwt>
<rscale>  0 0.12499984E+03</rscale>
<asrwt>0</asrwt>
<pdfrwt beam="2">  1        4 0.20730264E+00 0.12499984E+03</pdfrwt>
<pdfrwt beam="1">  1       -4 0.44599230E-03 0.12499984E+03</pdfrwt>
<totfact> 0.21070116E+03</totfact>
</mgrwt>
</event>
<event>
 5    1  0.3184438E-002  0.1250002E+03  0.7818608E-02  0.1235069E+00
         -4   -1    0    0    0  501 -0.00000000000E+00  0.00000000000E+00  0.30421734314E+01  0.32966223907E+01  0.12700000000E+01 0.  1.
          4   -1    0    0  501    0  0.00000000000E+00 -0.00000000000E+00 -0.12322390783E+04  0.12322397328E+04  0.12700000000E+01 0.  1.
         25    2    1    2    0    0  0.00000000000E+00  0.00000000000E+00 -0.12291969049E+04  0.12355363552E+04  0.12500021583E+03 0.  0.
    9000005    1    3    3    0    0 -0.58010911159E+02  0.23045981185E+02 -0.64405363354E+03  0.64707222622E+03  0.10000000000E+01 0.  0.
    9000005    1    3    3    0    0  0.58010911159E+02 -0.23045981185E+02 -0.58514327135E+03  0.58846412895E+03  0.10000000000E+01 0.  0.
<mgrwt>
<rscale>  0 0.12500022E+03</rscale>
<asrwt>0</asrwt>
<pdfrwt beam="2">  1        4 0.18959448E+00 0.12500022E+03</pdfrwt>
<pdfrwt beam="1">  1       -4 0.48765101E-03 0.12500022E+03</pdfrwt>
<totfact> 0.23801029E+03</totfact>
</mgrwt>
</event>
<event>
 5    1  0.3184438E-002  0.1249990E+03  0.7818608E-02  0.1235071E+00
         -4   -1    0    0    0  501 -0.00000000000E+00  0.00000000000E+00  0.73459118517E+01  0.74548857089E+01  0.12700000000E+01 0.  1.
          4   -1    0    0  501    0  0.00000000000E+00 -0.00000000000E+00 -0.52772458370E+03  0.52772611186E+03  0.12700000000E+01 0.  1.
         25    2    1    2    0    0  0.00000000000E+00  0.00000000000E+00 -0.52037867185E+03  0.53518099757E+03  0.12499895218E+03 0.  0.
    9000005    1    3    3    0    0  0.34912009429E+02  0.39148989600E+02 -0.11476423000E+03  0.12618763916E+03  0.10000000000E+01 0.  0.
    9000005    1    3    3    0    0 -0.34912009429E+02 -0.39148989600E+02 -0.40561444185E+03  0.40899335841E+03  0.10000000000E+01 0.  0.
<mgrwt>
<rscale>  0 0.12499895E+03</rscale>
<asrwt>0</asrwt>
<pdfrwt beam="2">  1        4 0.81196868E-01 0.12499895E+03</pdfrwt>
<pdfrwt beam="1">  1       -4 0.11386409E-02 0.12499895E+03</pdfrwt>
<totfact> 0.53235706E+03</totfact>
</mgrwt>
</event>
<event>
 5    1  0.3184438E-002  0.1250053E+03  0.7818608E-02  0.1235061E+00
          4   -1    0    0  501    0  0.00000000000E+00  0.00000000000E+00  0.24810958898E+02  0.24843441416E+02  0.12700000000E+01 0.  1.
         -4   -1    0    0    0  501 -0.00000000000E+00 -0.00000000000E+00 -0.15731578982E+03  0.15732091605E+03  0.12700000000E+01 0.  1.
         25    2    1    2    0    0  0.00000000000E+00  0.00000000000E+00 -0.13250483092E+03  0.18216435746E+03  0.12500529154E+03 0.  0.
    9000005    1    3    3    0    0 -0.14157639807E+02 -0.57561506089E+02 -0.95097746473E+02  0.11206403139E+03  0.10000000000E+01 0.  0.
    9000005    1    3    3    0    0  0.14157639807E+02  0.57561506089E+02 -0.37407084445E+02  0.70100326068E+02  0.10000000000E+01 0.  0.
<mgrwt>
<rscale>  0 0.12500529E+03</rscale>
<asrwt>0</asrwt>
<pdfrwt beam="1">  1        4 0.38199637E-02 0.12500529E+03</pdfrwt>
<pdfrwt beam="2">  1       -4 0.24205322E-01 0.12500529E+03</pdfrwt>
<totfact> 0.93217798E+03</totfact>
</mgrwt>
</event>
<event>
 5    1  0.3184438E-002  0.1250000E+03  0.7818608E-02  0.1235069E+00
          4   -1    0    0  501    0  0.00000000000E+00  0.00000000000E+00  0.97014837353E+02  0.97023149643E+02  0.12700000000E+01 0.  1.
         -4   -1    0    0    0  501 -0.00000000000E+00 -0.00000000000E+00 -0.40244416053E+02  0.40264449872E+02  0.12700000000E+01 0.  1.
         25    2    1    2    0    0  0.00000000000E+00  0.00000000000E+00  0.56770421300E+02  0.13728759951E+03  0.12500001698E+03 0.  0.
    9000005    1    3    3    0    0 -0.10500944359E+02  0.69377966995E+00 -0.39269573408E+02  0.40667561499E+02  0.10000000000E+01 0.  0.
    9000005    1    3    3    0    0  0.10500944359E+02 -0.69377966995E+00  0.96039994708E+02  0.96620038015E+02  0.10000000000E+01 0.  0.
<mgrwt>
<rscale>  0 0.12500002E+03</rscale>
<asrwt>0</asrwt>
<pdfrwt beam="1">  1        4 0.14927540E-01 0.12500002E+03</pdfrwt>
<pdfrwt beam="2">  1       -4 0.61936291E-02 0.12500002E+03</pdfrwt>
<totfact> 0.10190072E+04</totfact>
</mgrwt>
</event>
<event>
 5    1  0.3184438E-002  0.1249877E+03  0.7818608E-02  0.1235089E+00
          4   -1    0    0  501    0  0.00000000000E+00  0.00000000000E+00  0.25748818980E+03  0.25749132177E+03  0.12700000000E+01 0. -1.
         -4   -1    0    0    0  501 -0.00000000000E+00 -0.00000000000E+00 -0.15137792728E+02  0.15190973263E+02  0.12700000000E+01 0. -1.
         25    2    1    2    0    0  0.00000000000E+00  0.00000000000E+00  0.24235039707E+03  0.27268229503E+03  0.12498767564E+03 0.  0.
    9000005    1    3    3    0    0  0.35885028709E+02 -0.37954022745E+02  0.19599854021E+03  0.20284149204E+03  0.10000000000E+01 0.  0.
    9000005    1    3    3    0    0 -0.35885028709E+02  0.37954022745E+02  0.46351856859E+02  0.69840802990E+02  0.10000000000E+01 0.  0.
<mgrwt>
<rscale>  0 0.12498768E+03</rscale>
<asrwt>0</asrwt>
<pdfrwt beam="1">  1        4 0.39617898E-01 0.12498768E+03</pdfrwt>
<pdfrwt beam="2">  1       -4 0.23332230E-02 0.12498768E+03</pdfrwt>
<totfact> 0.79180193E+03</totfact>
</mgrwt>
</event>
<event>
 5    1  0.3184438E-002  0.1249985E+03  0.7818608E-02  0.1235072E+00
         -4   -1    0    0    0  501 -0.00000000000E+00  0.00000000000E+00  0.12497766369E+02  0.12562128172E+02  0.12700000000E+01 0. -1.
          4   -1    0    0  501    0  0.00000000000E+00 -0.00000000000E+00 -0.31168000446E+03  0.31168259188E+03  0.12700000000E+01 0. -1.
         25    2    1    2    0    0  0.00000000000E+00  0.00000000000E+00 -0.29918223809E+03  0.32424472005E+03  0.12499850756E+03 0.  0.
    9000005    1    3    3    0    0 -0.36669987116E+02  0.41030719241E+02 -0.22640774290E+03  0.23300144617E+03  0.10000000000E+01 0.  0.
    9000005    1    3    3    0    0  0.36669987116E+02 -0.41030719241E+02 -0.72774495196E+02  0.91243273876E+02  0.10000000000E+01 0.  0.
<mgrwt>
<rscale>  0 0.12499851E+03</rscale>
<asrwt>0</asrwt>
<pdfrwt beam="2">  1        4 0.47955914E-01 0.12499851E+03</pdfrwt>
<pdfrwt beam="1">  1       -4 0.19278835E-02 0.12499851E+03</pdfrwt>
<totfact> 0.72656506E+03</totfact>
</mgrwt>
</event>
<event>
 5    1  0.3184438E-002  0.1250006E+03  0.7818608E-02  0.1235068E+00
          4   -1    0    0  501    0  0.00000000000E+00  0.00000000000E+00  0.38354997138E+01  0.40402918279E+01  0.12700000000E+01 0. -1.
         -4   -1    0    0    0  501 -0.00000000000E+00 -0.00000000000E+00 -0.99176811103E+03  0.99176892417E+03  0.12700000000E+01 0. -1.
         25    2    1    2    0    0  0.00000000000E+00  0.00000000000E+00 -0.98793261131E+03  0.99580921600E+03  0.12500060068E+03 0.  0.
    9000005    1    3    3    0    0 -0.20795910922E+02  0.29030717000E+02 -0.85416682992E+02  0.92586511836E+02  0.10000000000E+01 0.  0.
    9000005    1    3    3    0    0  0.20795910922E+02 -0.29030717000E+02 -0.90251592832E+03  0.90322270416E+03  0.10000000000E+01 0.  0.
<mgrwt>
<rscale>  0 0.12500060E+03</rscale>
<asrwt>0</asrwt>
<pdfrwt beam="1">  1        4 0.60589346E-03 0.12500060E+03</pdfrwt>
<pdfrwt beam="2">  1       -4 0.15259533E+00 0.12500060E+03</pdfrwt>
<totfact> 0.30742897E+03</totfact>
</mgrwt>
</event>
<event>
 5    1  0.3184438E-002  0.1249881E+03  0.7818608E-02  0.1235088E+00
          4   -1    0    0  501    0  0.00000000000E+00  0.00000000000E+00  0.66192945940E+03  0.66193067773E+03  0.12700000000E+01 0.  1.
         -4   -1    0    0    0  501 -0.00000000000E+00 -0.00000000000E+00 -0.58306100347E+01  0.59673204520E+01  0.12700000000E+01 0.  1.
         25    2    1    2    0    0  0.00000000000E+00  0.00000000000E+00  0.65609884937E+03  0.66789799818E+03  0.12498814279E+03 0.  0.
    9000005    1    3    3    0    0  0.30700716421E+02  0.54350725081E+02  0.31296009240E+03  0.31912623638E+03  0.10000000000E+01 0.  0.
    9000005    1    3    3    0    0 -0.30700716421E+02 -0.54350725081E+02  0.34313875696E+03  0.34877176181E+03  0.10000000000E+01 0.  0.
<mgrwt>
<rscale>  0 0.12498814E+03</rscale>
<asrwt>0</asrwt>
<pdfrwt beam="1">  1        4 0.10184587E+00 0.12498814E+03</pdfrwt>
<pdfrwt beam="2">  1       -4 0.90762716E-03 0.12498814E+03</pdfrwt>
<totfact> 0.44847969E+03</totfact>
</mgrwt>
</event>
<event>
 5    1  0.3184438E-002  0.1250064E+03  0.7818608E-02  0.1235059E+00
          4   -1    0    0  501    0  0.00000000000E+00  0.00000000000E+00  0.14909086166E+03  0.14909627068E+03  0.12700000000E+01 0. -1.
         -4   -1    0    0    0  501 -0.00000000000E+00 -0.00000000000E+00 -0.26181854675E+02  0.26212638445E+02  0.12700000000E+01 0. -1.
         25    2    1    2    0    0  0.00000000000E+00  0.00000000000E+00  0.12290900698E+03  0.17530890912E+03  0.12500635832E+03 0.  0.
    9000005    1    3    3    0    0 -0.54291682622E+02 -0.29550740380E+02  0.48539142698E+02  0.78599500207E+02  0.10000000000E+01 0.  0.
    9000005    1    3    3    0    0  0.54291682622E+02  0.29550740380E+02  0.74369864286E+02  0.96709408916E+02  0.10000000000E+01 0.  0.
<mgrwt>
<rscale>  0 0.12500636E+03</rscale>
<asrwt>0</asrwt>
<pdfrwt beam="1">  1        4 0.22939840E-01 0.12500636E+03</pdfrwt>
<pdfrwt beam="2">  1       -4 0.40307617E-02 0.12500636E+03</pdfrwt>
<totfact> 0.94454822E+03</totfact>
</mgrwt>
</event>
<event>
 5    1  0.3184438E-002  0.1249986E+03  0.7818608E-02  0.1235072E+00
         -4   -1    0    0    0  501 -0.00000000000E+00  0.00000000000E+00  0.27267473912E+02  0.27297033420E+02  0.12700000000E+01 0.  1.
          4   -1    0    0  501    0  0.00000000000E+00 -0.00000000000E+00 -0.14314351298E+03  0.14314914673E+03  0.12700000000E+01 0.  1.
         25    2    1    2    0    0  0.00000000000E+00  0.00000000000E+00 -0.11587603907E+03  0.17044618015E+03  0.12499857558E+03 0.  0.
    9000005    1    3    3    0    0 -0.25296544252E+02  0.56066481583E+02 -0.72986677421E+02  0.95453761525E+02  0.10000000000E+01 0.  0.
    9000005    1    3    3    0    0  0.25296544252E+02 -0.56066481583E+02 -0.42889361648E+02  0.74992418622E+02  0.10000000000E+01 0.  0.
<mgrwt>
<rscale>  0 0.12499858E+03</rscale>
<asrwt>0</asrwt>
<pdfrwt beam="2">  1        4 0.22024786E-01 0.12499858E+03</pdfrwt>
<pdfrwt beam="1">  1       -4 0.41977032E-02 0.12499858E+03</pdfrwt>
<totfact> 0.95368589E+03</totfact>
</mgrwt>
</event>
<event>
 5    1  0.3184438E-002  0.1250038E+03  0.7818608E-02  0.1235063E+00
          4   -1    0    0  501    0  0.00000000000E+00  0.00000000000E+00  0.27609295337E+03  0.27609587429E+03  0.12700000000E+01 0.  1.
         -4   -1    0    0    0  501 -0.00000000000E+00 -0.00000000000E+00 -0.14117676975E+02  0.14174685293E+02  0.12700000000E+01 0.  1.
         25    2    1    2    0    0  0.00000000000E+00  0.00000000000E+00  0.26197527640E+03  0.29027055958E+03  0.12500380922E+03 0.  0.
    9000005    1    3    3    0    0  0.52615183497E+02  0.14002620386E+02  0.20222170615E+03  0.20942552220E+03  0.10000000000E+01 0.  0.
    9000005    1    3    3    0    0 -0.52615183497E+02 -0.14002620386E+02  0.59753570247E+02  0.80845037382E+02  0.10000000000E+01 0.  0.
<mgrwt>
<rscale>  0 0.12500381E+03</rscale>
<asrwt>0</asrwt>
<pdfrwt beam="1">  1        4 0.42480449E-01 0.12500381E+03</pdfrwt>
<pdfrwt beam="2">  1       -4 0.21765602E-02 0.12500381E+03</pdfrwt>
<totfact> 0.76829215E+03</totfact>
</mgrwt>
</event>
<event>
 5    1  0.3184438E-002  0.1249990E+03  0.7818608E-02  0.1235071E+00
         -4   -1    0    0    0  501 -0.00000000000E+00  0.00000000000E+00  0.26544064412E+02  0.26574428602E+02  0.12700000000E+01 0. -1.
          4   -1    0    0  501    0  0.00000000000E+00 -0.00000000000E+00 -0.14704131359E+03  0.14704679800E+03  0.12700000000E+01 0. -1.
         25    2    1    2    0    0  0.00000000000E+00  0.00000000000E+00 -0.12049724918E+03  0.17362122660E+03  0.12499897307E+03 0.  0.
    9000005    1    3    3    0    0  0.36792625859E+02  0.98502207571E+01  0.85650105584E+01  0.39052318400E+02  0.10000000000E+01 0.  0.
    9000005    1    3    3    0    0 -0.36792625859E+02 -0.98502207571E+01 -0.12906225974E+03  0.13456890820E+03  0.10000000000E+01 0.  0.
<mgrwt>
<rscale>  0 0.12499897E+03</rscale>
<asrwt>0</asrwt>
<pdfrwt beam="2">  1        4 0.22624498E-01 0.12499897E+03</pdfrwt>
<pdfrwt beam="1">  1       -4 0.40864599E-02 0.12499897E+03</pdfrwt>
<totfact> 0.94780152E+03</totfact>
</mgrwt>
</event>
<event>
 5    1  0.3184438E-002  0.1250006E+03  0.7818608E-02  0.1235068E+00
         -4   -1    0    0    0  501 -0.00000000000E+00  0.00000000000E+00  0.96690790484E+02  0.96699130629E+02  0.12700000000E+01 0.  1.
          4   -1    0    0  501    0  0.00000000000E+00 -0.00000000000E+00 -0.40379731642E+02  0.40399698359E+02  0.12700000000E+01 0.  1.
         25    2    1    2    0    0  0.00000000000E+00  0.00000000000E+00  0.56311058841E+02  0.13709882899E+03  0.12500061425E+03 0.  0.
    9000005    1    3    3    0    0  0.30177758875E+02  0.39808317069E+02  0.69338159864E+02  0.85464493516E+02  0.10000000000E+01 0.  0.
    9000005    1    3    3    0    0 -0.30177758875E+02 -0.39808317069E+02 -0.13027101023E+02  0.51634335472E+02  0.10000000000E+01 0.  0.
<mgrwt>
<rscale>  0 0.12500061E+03</rscale>
<asrwt>0</asrwt>
<pdfrwt beam="2">  1        4 0.62144439E-02 0.12500061E+03</pdfrwt>
<pdfrwt beam="1">  1       -4 0.14877684E-01 0.12500061E+03</pdfrwt>
<totfact> 0.10193879E+04</totfact>
</mgrwt>
</event>
<event>
 5    1  0.3184438E-002  0.1249928E+03  0.7818608E-02  0.1235080E+00
         -4   -1    0    0    0  501 -0.00000000000E+00  0.00000000000E+00  0.15682577196E+03  0.15683091421E+03  0.12700000000E+01 0.  1.
          4   -1    0    0  501    0  0.00000000000E+00 -0.00000000000E+00 -0.24883613943E+02  0.24916001743E+02  0.12700000000E+01 0.  1.
         25    2    1    2    0    0  0.00000000000E+00  0.00000000000E+00  0.13194215802E+03  0.18174691595E+03  0.12499283338E+03 0.  0.
    9000005    1    3    3    0    0 -0.95253319817E+01 -0.39256995513E+01 -0.23647301952E+02  0.25813522734E+02  0.10000000000E+01 0.  0.
    9000005    1    3    3    0    0  0.95253319817E+01  0.39256995513E+01  0.15558945997E+03  0.15593339322E+03  0.10000000000E+01 0.  0.
<mgrwt>
<rscale>  0 0.12499283E+03</rscale>
<asrwt>0</asrwt>
<pdfrwt beam="2">  1        4 0.38311353E-02 0.12499283E+03</pdfrwt>
<pdfrwt beam="1">  1       -4 0.24129928E-01 0.12499283E+03</pdfrwt>
<totfact> 0.93318487E+03</totfact>
</mgrwt>
</event>
<event>
 5    1  0.3184438E-002  0.1250019E+03  0.7818608E-02  0.1235066E+00
         -4   -1    0    0    0  501 -0.00000000000E+00  0.00000000000E+00  0.75042497450E+02  0.75053243258E+02  0.12700000000E+01 0.  1.
          4   -1    0    0  501    0  0.00000000000E+00 -0.00000000000E+00 -0.52033207610E+02  0.52048704059E+02  0.12700000000E+01 0.  1.
         25    2    1    2    0    0  0.00000000000E+00  0.00000000000E+00  0.23009289840E+02  0.12710194732E+03  0.12500191036E+03 0.  0.
    9000005    1    3    3    0    0  0.55973793433E+02  0.27783863063E+02  0.12115402596E+02  0.63661539237E+02  0.10000000000E+01 0.  0.
    9000005    1    3    3    0    0 -0.55973793433E+02 -0.27783863063E+02  0.10893887243E+02  0.63440408079E+02  0.10000000000E+01 0.  0.
<mgrwt>
<rscale>  0 0.12500191E+03</rscale>
<asrwt>0</asrwt>
<pdfrwt beam="2">  1        4 0.80071276E-02 0.12500191E+03</pdfrwt>
<pdfrwt beam="1">  1       -4 0.11547018E-01 0.12500191E+03</pdfrwt>
<totfact> 0.10406483E+04</totfact>
</mgrwt>
</event>
<event>
 5    1  0.3184438E-002  0.1249997E+03  0.7818608E-02  0.1235070E+00
          4   -1    0    0  501    0  0.00000000000E+00  0.00000000000E+00  0.12440420492E+02  0.12505077449E+02  0.12700000000E+01 0.  1.
         -4   -1    0    0    0  501 -0.00000000000E+00 -0.00000000000E+00 -0.31311545610E+03  0.31311803166E+03  0.12700000000E+01 0.  1.
         25    2    1    2    0    0  0.00000000000E+00  0.00000000000E+00 -0.30067503561E+03  0.32562310911E+03  0.12499972858E+03 0.  0.
    9000005    1    3    3    0    0 -0.38147818913E+02  0.42740807787E+02 -0.85306586283E+02  0.10276305952E+03  0.10000000000E+01 0.  0.
    9000005    1    3    3    0    0  0.38147818913E+02 -0.42740807787E+02 -0.21536844933E+03  0.22286004959E+03  0.10000000000E+01 0.  0.
<mgrwt>
<rscale>  0 0.12499973E+03</rscale>
<asrwt>0</asrwt>
<pdfrwt beam="1">  1        4 0.19190828E-02 0.12499973E+03</pdfrwt>
<pdfrwt beam="2">  1       -4 0.48176774E-01 0.12499973E+03</pdfrwt>
<totfact> 0.72492723E+03</totfact>
</mgrwt>
</event>
<event>
 5    1  0.3184438E-002  0.1250029E+03  0.7818608E-02  0.1235065E+00
          4   -1    0    0  501    0  0.00000000000E+00  0.00000000000E+00  0.39132405521E+01  0.41141647535E+01  0.12700000000E+01 0. -1.
         -4   -1    0    0    0  501 -0.00000000000E+00 -0.00000000000E+00 -0.97307181957E+03  0.97307264834E+03  0.12700000000E+01 0. -1.
         25    2    1    2    0    0  0.00000000000E+00  0.00000000000E+00 -0.96915857902E+03  0.97718681309E+03  0.12500286554E+03 0.  0.
    9000005    1    3    3    0    0 -0.37654292848E+02 -0.49287473493E+02 -0.54428243785E+03  0.54780605415E+03  0.10000000000E+01 0.  0.
    9000005    1    3    3    0    0  0.37654292848E+02  0.49287473493E+02 -0.42487614117E+03  0.42938075894E+03  0.10000000000E+01 0.  0.
<mgrwt>
<rscale>  0 0.12500287E+03</rscale>
<asrwt>0</asrwt>
<pdfrwt beam="1">  1        4 0.61755724E-03 0.12500287E+03</pdfrwt>
<pdfrwt beam="2">  1       -4 0.14971869E+00 0.12500287E+03</pdfrwt>
<totfact> 0.31368049E+03</totfact>
</mgrwt>
</event>
<event>
 5    1  0.3184438E-002  0.1249970E+03  0.7818608E-02  0.1235074E+00
         -4   -1    0    0    0  501 -0.00000000000E+00  0.00000000000E+00  0.20989217293E+04  0.20989221135E+04  0.12700000000E+01 0. -1.
          4   -1    0    0  501    0  0.00000000000E+00 -0.00000000000E+00 -0.16438836306E+01  0.20773187986E+01  0.12700000000E+01 0. -1.
         25    2    1    2    0    0  0.00000000000E+00  0.00000000000E+00  0.20972778456E+04  0.21009994323E+04  0.12499701065E+03 0.  0.
    9000005    1    3    3    0    0  0.45079558158E+02 -0.27611394853E+02  0.48851122073E+03  0.49136419127E+03  0.10000000000E+01 0.  0.
    9000005    1    3    3    0    0 -0.45079558158E+02  0.27611394853E+02  0.16087666249E+04  0.16096352410E+04  0.10000000000E+01 0.  0.
<mgrwt>
<rscale>  0 0.12499701E+03</rscale>
<asrwt>0</asrwt>
<pdfrwt beam="2">  1        4 0.28627534E-03 0.12499701E+03</pdfrwt>
<pdfrwt beam="1">  1       -4 0.32294503E+00 0.12499701E+03</pdfrwt>
<totfact> 0.86004883E+02</totfact>
</mgrwt>
</event>
<event>
 5    1  0.3184438E-002  0.1250086E+03  0.7818608E-02  0.1235056E+00
          4   -1    0    0  501    0  0.00000000000E+00  0.00000000000E+00  0.24223610684E+03  0.24223943601E+03  0.12700000000E+01 0. -1.
         -4   -1    0    0    0  501 -0.00000000000E+00 -0.00000000000E+00 -0.16099571386E+02  0.16149585097E+02  0.12700000000E+01 0. -1.
         25    2    1    2    0    0  0.00000000000E+00  0.00000000000E+00  0.22613653546E+03  0.25838902111E+03  0.12500861395E+03 0.  0.
    9000005    1    3    3    0    0  0.19498596957E+02 -0.58569686819E+02  0.92902343580E+02  0.11154572578E+03  0.10000000000E+01 0.  0.
    9000005    1    3    3    0    0 -0.19498596957E+02  0.58569686819E+02  0.13323419188E+03  0.14684329533E+03  0.10000000000E+01 0.  0.
<mgrwt>
<rscale>  0 0.12500861E+03</rscale>
<asrwt>0</asrwt>
<pdfrwt beam="1">  1        4 0.37271197E-01 0.12500861E+03</pdfrwt>
<pdfrwt beam="2">  1       -4 0.24809604E-02 0.12500861E+03</pdfrwt>
<totfact> 0.81117114E+03</totfact>
</mgrwt>
</event>
<event>
 5    1  0.3184438E-002  0.1249990E+03  0.7818608E-02  0.1235071E+00
         -4   -1    0    0    0  501 -0.00000000000E+00  0.00000000000E+00  0.38086710616E+02  0.38107878785E+02  0.12700000000E+01 0. -1.
          4   -1    0    0  501    0  0.00000000000E+00 -0.00000000000E+00 -0.10250672983E+03  0.10251459681E+03  0.12700000000E+01 0. -1.
         25    2    1    2    0    0  0.00000000000E+00  0.00000000000E+00 -0.64420019211E+02  0.14062247560E+03  0.12499896707E+03 0.  0.
    9000005    1    3    3    0    0  0.45143529562E+02  0.29297247203E+02  0.35235561137E+01  0.53941472011E+02  0.10000000000E+01 0.  0.
    9000005    1    3    3    0    0 -0.45143529562E+02 -0.29297247203E+02 -0.67943575324E+02  0.86681003587E+02  0.10000000000E+01 0.  0.
<mgrwt>
<rscale>  0 0.12499897E+03</rscale>
<asrwt>0</asrwt>
<pdfrwt beam="2">  1        4 0.15772500E-01 0.12499897E+03</pdfrwt>
<pdfrwt beam="1">  1       -4 0.58617274E-02 0.12499897E+03</pdfrwt>
<totfact> 0.10120936E+04</totfact>
</mgrwt>
</event>
<event>
 5    1  0.3184438E-002  0.1250012E+03  0.7818608E-02  0.1235067E+00
          4   -1    0    0  501    0  0.00000000000E+00  0.00000000000E+00  0.49589173444E+03  0.49589336070E+03  0.12700000000E+01 0. -1.
         -4   -1    0    0    0  501 -0.00000000000E+00 -0.00000000000E+00 -0.78245346093E+01  0.79269314272E+01  0.12700000000E+01 0. -1.
         25    2    1    2    0    0  0.00000000000E+00  0.00000000000E+00  0.48806719983E+03  0.50382029213E+03  0.12500118083E+03 0.  0.
    9000005    1    3    3    0    0 -0.15992723475E+02 -0.54953144320E+02  0.14289164888E+03  0.15393062916E+03  0.10000000000E+01 0.  0.
    9000005    1    3    3    0    0  0.15992723475E+02  0.54953144320E+02  0.34517555096E+03  0.34988966297E+03  0.10000000000E+01 0.  0.
<mgrwt>
<rscale>  0 0.12500118E+03</rscale>
<asrwt>0</asrwt>
<pdfrwt beam="1">  1        4 0.76299056E-01 0.12500118E+03</pdfrwt>
<pdfrwt beam="2">  1       -4 0.12117760E-02 0.12500118E+03</pdfrwt>
<totfact> 0.55567720E+03</totfact>
</mgrwt>
</event>
<event>
 5    1  0.3184438E-002  0.1249948E+03  0.7818608E-02  0.1235077E+00
         -4   -1    0    0    0  501 -0.00000000000E+00  0.00000000000E+00  0.34726781929E+03  0.34727014156E+03  0.12700000000E+01 0. -1.
          4   -1    0    0  501    0  0.00000000000E+00 -0.00000000000E+00 -0.11209371386E+02  0.11281086245E+02  0.12700000000E+01 0. -1.
         25    2    1    2    0    0  0.00000000000E+00  0.00000000000E+00  0.33605844791E+03  0.35855122780E+03  0.12499481009E+03 0.  0.
    9000005    1    3    3    0    0 -0.54402577067E+02 -0.23414068568E+02  0.22518905451E+03  0.23284967097E+03  0.10000000000E+01 0.  0.
    9000005    1    3    3    0    0  0.54402577067E+02  0.23414068568E+02  0.11086939339E+03  0.12570155683E+03  0.10000000000E+01 0.  0.
<mgrwt>
<rscale>  0 0.12499481E+03</rscale>
<asrwt>0</asrwt>
<pdfrwt beam="2">  1        4 0.17302136E-02 0.12499481E+03</pdfrwt>
<pdfrwt beam="1">  1       -4 0.53431521E-01 0.12499481E+03</pdfrwt>
<totfact> 0.68801840E+03</totfact>
</mgrwt>
</event>
<event>
 5    1  0.3184438E-002  0.1250009E+03  0.7818608E-02  0.1235068E+00
          4   -1    0    0  501    0  0.00000000000E+00  0.00000000000E+00  0.16071941898E+02  0.16122041322E+02  0.12700000000E+01 0.  1.
         -4   -1    0    0    0  501 -0.00000000000E+00 -0.00000000000E+00 -0.24262124528E+03  0.24262456917E+03  0.12700000000E+01 0.  1.
         25    2    1    2    0    0  0.00000000000E+00  0.00000000000E+00 -0.22654930339E+03  0.25874661049E+03  0.12500088630E+03 0.  0.
    9000005    1    3    3    0    0 -0.53409170420E+02 -0.30054491883E+02 -0.87965789271E+02  0.10721376800E+03  0.10000000000E+01 0.  0.
    9000005    1    3    3    0    0  0.53409170420E+02  0.30054491883E+02 -0.13858351411E+03  0.15153284249E+03  0.10000000000E+01 0.  0.
<mgrwt>
<rscale>  0 0.12500089E+03</rscale>
<asrwt>0</asrwt>
<pdfrwt beam="1">  1        4 0.24767161E-02 0.12500089E+03</pdfrwt>
<pdfrwt beam="2">  1       -4 0.37330452E-01 0.12500089E+03</pdfrwt>
<totfact> 0.81080680E+03</totfact>
</mgrwt>
</event>
<event>
 5    1  0.3184438E-002  0.1249845E+03  0.7818608E-02  0.1235094E+00
         -4   -1    0    0    0  501 -0.00000000000E+00  0.00000000000E+00  0.14169868413E+03  0.14170437531E+03  0.12700000000E+01 0. -1.
          4   -1    0    0  501    0  0.00000000000E+00 -0.00000000000E+00 -0.27539581160E+02  0.27568848914E+02  0.12700000000E+01 0. -1.
         25    2    1    2    0    0  0.00000000000E+00  0.00000000000E+00  0.11415910297E+03  0.16927322423E+03  0.12498449364E+03 0.  0.
    9000005    1    3    3    0    0  0.14493359142E+02 -0.54653687920E+02  0.21062961045E+02  0.60346759568E+02  0.10000000000E+01 0.  0.
    9000005    1    3    3    0    0 -0.14493359142E+02  0.54653687920E+02  0.93096141921E+02  0.10892646466E+03  0.10000000000E+01 0.  0.
<mgrwt>
<rscale>  0 0.12498449E+03</rscale>
<asrwt>0</asrwt>
<pdfrwt beam="2">  1        4 0.42395479E-02 0.12498449E+03</pdfrwt>
<pdfrwt beam="1">  1       -4 0.21802486E-01 0.12498449E+03</pdfrwt>
<totfact> 0.95617464E+03</totfact>
</mgrwt>
</event>
<event>
 5    1  0.3184438E-002  0.1249937E+03  0.7818608E-02  0.1235079E+00
         -4   -1    0    0    0  501 -0.00000000000E+00  0.00000000000E+00  0.13649765026E+03  0.13650355829E+03  0.12700000000E+01 0. -1.
          4   -1    0    0  501    0  0.00000000000E+00 -0.00000000000E+00 -0.28594209031E+02  0.28622398399E+02  0.12700000000E+01 0. -1.
         25    2    1    2    0    0  0.00000000000E+00  0.00000000000E+00  0.10790344123E+03  0.16512595669E+03  0.12499371562E+03 0.  0.
    9000005    1    3    3    0    0  0.35764696214E+02 -0.39573248631E+02  0.10946716759E+02  0.54460867697E+02  0.10000000000E+01 0.  0.
    9000005    1    3    3    0    0 -0.35764696214E+02  0.39573248631E+02  0.96956724467E+02  0.11066508899E+03  0.10000000000E+01 0.  0.
<mgrwt>
<rscale>  0 0.12499372E+03</rscale>
<asrwt>0</asrwt>
<pdfrwt beam="2">  1        4 0.44017320E-02 0.12499372E+03</pdfrwt>
<pdfrwt beam="1">  1       -4 0.21002261E-01 0.12499372E+03</pdfrwt>
<totfact> 0.96377149E+03</totfact>
</mgrwt>
</event>
<event>
 5    1  0.3184438E-002  0.1249997E+03  0.7818608E-02  0.1235070E+00
          4   -1    0    0  501    0  0.00000000000E+00  0.00000000000E+00  0.29938949889E+02  0.29965874265E+02  0.12700000000E+01 0. -1.
         -4   -1    0    0    0  501 -0.00000000000E+00 -0.00000000000E+00 -0.13038461837E+03  0.13039080339E+03  0.12700000000E+01 0. -1.
         25    2    1    2    0    0  0.00000000000E+00  0.00000000000E+00 -0.10044566848E+03  0.16035667765E+03  0.12499972700E+03 0.  0.
    9000005    1    3    3    0    0  0.31793210506E+02  0.10833960990E+02  0.17380767442E+02  0.37832182356E+02  0.10000000000E+01 0.  0.
    9000005    1    3    3    0    0 -0.31793210506E+02 -0.10833960990E+02 -0.11782643592E+03  0.12252449530E+03  0.10000000000E+01 0.  0.
<mgrwt>
<rscale>  0 0.12499973E+03</rscale>
<asrwt>0</asrwt>
<pdfrwt beam="1">  1        4 0.46085392E-02 0.12499973E+03</pdfrwt>
<pdfrwt beam="2">  1       -4 0.20061719E-01 0.12499973E+03</pdfrwt>
<totfact> 0.97274661E+03</totfact>
</mgrwt>
</event>
<event>
 5    1  0.3184438E-002  0.1249999E+03  0.7818608E-02  0.1235070E+00
         -4   -1    0    0    0  501 -0.00000000000E+00  0.00000000000E+00  0.31914784692E+02  0.31940043549E+02  0.12700000000E+01 0. -1.
          4   -1    0    0  501    0  0.00000000000E+00 -0.00000000000E+00 -0.12231900015E+03  0.12232559298E+03  0.12700000000E+01 0. -1.
         25    2    1    2    0    0  0.00000000000E+00  0.00000000000E+00 -0.90404215463E+02  0.15426563653E+03  0.12499985777E+03 0.  0.
    9000005    1    3    3    0    0 -0.61863149063E+02  0.56578539421E+01 -0.53588774773E+02  0.82047652647E+02  0.10000000000E+01 0.  0.
    9000005    1    3    3    0    0  0.61863149063E+02 -0.56578539421E+01 -0.36815440690E+02  0.72217983885E+02  0.10000000000E+01 0.  0.
<mgrwt>
<rscale>  0 0.12499986E+03</rscale>
<asrwt>0</asrwt>
<pdfrwt beam="2">  1        4 0.18820758E-01 0.12499986E+03</pdfrwt>
<pdfrwt beam="1">  1       -4 0.49124171E-02 0.12499986E+03</pdfrwt>
<totfact> 0.98460172E+03</totfact>
</mgrwt>
</event>
<event>
 5    1  0.3184438E-002  0.1250063E+03  0.7818608E-02  0.1235059E+00
          4   -1    0    0  501    0  0.00000000000E+00  0.00000000000E+00  0.46845656320E+02  0.46862868201E+02  0.12700000000E+01 0.  1.
         -4   -1    0    0    0  501 -0.00000000000E+00 -0.00000000000E+00 -0.83356526304E+02  0.83366200450E+02  0.12700000000E+01 0.  1.
         25    2    1    2    0    0  0.00000000000E+00  0.00000000000E+00 -0.36510869984E+02  0.13022906865E+03  0.12500626662E+03 0.  0.
    9000005    1    3    3    0    0 -0.10985874426E+02  0.61500992592E+02 -0.16582040361E+02  0.64645383356E+02  0.10000000000E+01 0.  0.
    9000005    1    3    3    0    0  0.10985874426E+02 -0.61500992592E+02 -0.19928829623E+02  0.65583685295E+02  0.10000000000E+01 0.  0.
<mgrwt>
<rscale>  0 0.12500627E+03</rscale>
<asrwt>0</asrwt>
<pdfrwt beam="1">  1        4 0.72090922E-02 0.12500627E+03</pdfrwt>
<pdfrwt beam="2">  1       -4 0.12826149E-01 0.12500627E+03</pdfrwt>
<totfact> 0.10338147E+04</totfact>
</mgrwt>
</event>
<event>
 5    1  0.3184438E-002  0.1249997E+03  0.7818608E-02  0.1235070E+00
          4   -1    0    0  501    0  0.00000000000E+00  0.00000000000E+00  0.28070634792E+02  0.28099349416E+02  0.12700000000E+01 0.  1.
         -4   -1    0    0    0  501 -0.00000000000E+00 -0.00000000000E+00 -0.13905444165E+03  0.13906024106E+03  0.12700000000E+01 0.  1.
         25    2    1    2    0    0  0.00000000000E+00  0.00000000000E+00 -0.11098380686E+03  0.16715959048E+03  0.12499969321E+03 0.  0.
    9000005    1    3    3    0    0 -0.25056595642E+02 -0.55376933722E+02 -0.74907489184E+02  0.96470563953E+02  0.10000000000E+01 0.  0.
    9000005    1    3    3    0    0  0.25056595642E+02  0.55376933722E+02 -0.36076317677E+02  0.70689026523E+02  0.10000000000E+01 0.  0.
<mgrwt>
<rscale>  0 0.12499969E+03</rscale>
<asrwt>0</asrwt>
<pdfrwt beam="1">  1        4 0.43212142E-02 0.12499969E+03</pdfrwt>
<pdfrwt beam="2">  1       -4 0.21395646E-01 0.12499969E+03</pdfrwt>
<totfact> 0.95980618E+03</totfact>
</mgrwt>
</event>
<event>
 5    1  0.3184438E-002  0.1249998E+03  0.7818608E-02  0.1235070E+00
          4   -1    0    0  501    0  0.00000000000E+00  0.00000000000E+00  0.17288904602E+03  0.17289371051E+03  0.12700000000E+01 0.  1.
         -4   -1    0    0    0  501 -0.00000000000E+00 -0.00000000000E+00 -0.22571081788E+02  0.22606782899E+02  0.12700000000E+01 0.  1.
         25    2    1    2    0    0  0.00000000000E+00  0.00000000000E+00  0.15031796424E+03  0.19550049341E+03  0.12499981021E+03 0.  0.
    9000005    1    3    3    0    0  0.24401434194E+02 -0.55132120504E+02  0.49447487064E+02  0.77980989215E+02  0.10000000000E+01 0.  0.
    9000005    1    3    3    0    0 -0.24401434194E+02  0.55132120504E+02  0.10087047717E+03  0.11751950420E+03  0.10000000000E+01 0.  0.
<mgrwt>
<rscale>  0 0.12499981E+03</rscale>
<asrwt>0</asrwt>
<pdfrwt beam="1">  1        4 0.26601420E-01 0.12499981E+03</pdfrwt>
<pdfrwt beam="2">  1       -4 0.34755791E-02 0.12499981E+03</pdfrwt>
<totfact> 0.90899343E+03</totfact>
</mgrwt>
</event>
<event>
 5    1  0.3184438E-002  0.1249986E+03  0.7818608E-02  0.1235071E+00
         -4   -1    0    0    0  501 -0.00000000000E+00  0.00000000000E+00  0.55716987088E+02  0.55731459250E+02  0.12700000000E+01 0. -1.
          4   -1    0    0  501    0  0.00000000000E+00 -0.00000000000E+00 -0.70077931974E+02  0.70089438931E+02  0.12700000000E+01 0. -1.
         25    2    1    2    0    0  0.00000000000E+00  0.00000000000E+00 -0.14360944886E+02  0.12582089818E+03  0.12499864672E+03 0.  0.
    9000005    1    3    3    0    0 -0.38146795627E+02 -0.32555528513E+02  0.30349166963E+02  0.58626891344E+02  0.10000000000E+01 0.  0.
    9000005    1    3    3    0    0  0.38146795627E+02  0.32555528513E+02 -0.44710111849E+02  0.67194006838E+02  0.10000000000E+01 0.  0.
<mgrwt>
<rscale>  0 0.12499865E+03</rscale>
<asrwt>0</asrwt>
<pdfrwt beam="2">  1        4 0.10783219E-01 0.12499865E+03</pdfrwt>
<pdfrwt beam="1">  1       -4 0.85738426E-02 0.12499865E+03</pdfrwt>
<totfact> 0.10435205E+04</totfact>
</mgrwt>
</event>
<event>
 5    1  0.3184438E-002  0.1250034E+03  0.7818608E-02  0.1235064E+00
          4   -1    0    0  501    0  0.00000000000E+00  0.00000000000E+00  0.71662517947E+01  0.72779162392E+01  0.12700000000E+01 0.  1.
         -4   -1    0    0    0  501 -0.00000000000E+00 -0.00000000000E+00 -0.54079315195E+03  0.54079464318E+03  0.12700000000E+01 0.  1.
         25    2    1    2    0    0  0.00000000000E+00  0.00000000000E+00 -0.53362690015E+03  0.54807255942E+03  0.12500344724E+03 0.  0.
    9000005    1    3    3    0    0  0.14633283668E+02  0.34324146689E+02 -0.48661377723E+03  0.48804328519E+03  0.10000000000E+01 0.  0.
    9000005    1    3    3    0    0 -0.14633283668E+02 -0.34324146689E+02 -0.47013122928E+02  0.60029274228E+02  0.10000000000E+01 0.  0.
<mgrwt>
<rscale>  0 0.12500345E+03</rscale>
<asrwt>0</asrwt>
<pdfrwt beam="1">  1        4 0.11112050E-02 0.12500345E+03</pdfrwt>
<pdfrwt beam="2">  1       -4 0.83207619E-01 0.12500345E+03</pdfrwt>
<totfact> 0.52314591E+03</totfact>
</mgrwt>
</event>
<event>
 5    1  0.3184438E-002  0.1250029E+03  0.7818608E-02  0.1235065E+00
         -4   -1    0    0    0  501 -0.00000000000E+00  0.00000000000E+00  0.11355817835E+03  0.11356527978E+03  0.12700000000E+01 0. -1.
          4   -1    0    0  501    0  0.00000000000E+00 -0.00000000000E+00 -0.34380363913E+02  0.34403812620E+02  0.12700000000E+01 0. -1.
         25    2    1    2    0    0  0.00000000000E+00  0.00000000000E+00  0.79177814439E+02  0.14796909240E+03  0.12500290399E+03 0.  0.
    9000005    1    3    3    0    0 -0.50372872949E+02  0.34725571461E+02  0.54661771996E+02  0.82049990616E+02  0.10000000000E+01 0.  0.
    9000005    1    3    3    0    0  0.50372872949E+02 -0.34725571461E+02  0.24516042443E+02  0.65919101780E+02  0.10000000000E+01 0.  0.
<mgrwt>
<rscale>  0 0.12500290E+03</rscale>
<asrwt>0</asrwt>
<pdfrwt beam="2">  1        4 0.52916367E-02 0.12500290E+03</pdfrwt>
<pdfrwt beam="1">  1       -4 0.17472839E-01 0.12500290E+03</pdfrwt>
<totfact> 0.99703562E+03</totfact>
</mgrwt>
</event>
<event>
 5    1  0.3184438E-002  0.1250439E+03  0.7818608E-02  0.1235001E+00
          4   -1    0    0  501    0  0.00000000000E+00  0.00000000000E+00  0.13407774317E+03  0.13408375783E+03  0.12700000000E+01 0. -1.
         -4   -1    0    0    0  501 -0.00000000000E+00 -0.00000000000E+00 -0.29134202960E+02  0.29161870347E+02  0.12700000000E+01 0. -1.
         25    2    1    2    0    0  0.00000000000E+00  0.00000000000E+00  0.10494354021E+03  0.16324562818E+03  0.12504394622E+03 0.  0.
    9000005    1    3    3    0    0 -0.35677156946E+02 -0.32111514260E+02  0.18648516516E+00  0.48010870150E+02  0.10000000000E+01 0.  0.
    9000005    1    3    3    0    0  0.35677156946E+02  0.32111514260E+02  0.10475705505E+03  0.11523475803E+03  0.10000000000E+01 0.  0.
<mgrwt>
<rscale>  0 0.12504395E+03</rscale>
<asrwt>0</asrwt>
<pdfrwt beam="1">  1        4 0.20629936E-01 0.12504395E+03</pdfrwt>
<pdfrwt beam="2">  1       -4 0.44847761E-02 0.12504395E+03</pdfrwt>
<totfact> 0.96625234E+03</totfact>
</mgrwt>
</event>
<event>
 5    1  0.3184438E-002  0.1250003E+03  0.7818608E-02  0.1235069E+00
          4   -1    0    0  501    0  0.00000000000E+00  0.00000000000E+00  0.17599352016E+03  0.17599810237E+03  0.12700000000E+01 0.  1.
         -4   -1    0    0    0  501 -0.00000000000E+00 -0.00000000000E+00 -0.22172473196E+02  0.22208815088E+02  0.12700000000E+01 0.  1.
         25    2    1    2    0    0  0.00000000000E+00  0.00000000000E+00  0.15382104696E+03  0.19820691746E+03  0.12500027056E+03 0.  0.
    9000005    1    3    3    0    0  0.21669103511E+02 -0.37582240851E+02  0.55862855118E+01  0.43751359524E+02  0.10000000000E+01 0.  0.
    9000005    1    3    3    0    0 -0.21669103511E+02  0.37582240851E+02  0.14823476145E+03  0.15445555793E+03  0.10000000000E+01 0.  0.
<mgrwt>
<rscale>  0 0.12500027E+03</rscale>
<asrwt>0</asrwt>
<pdfrwt beam="1">  1        4 0.27079074E-01 0.12500027E+03</pdfrwt>
<pdfrwt beam="2">  1       -4 0.34142978E-02 0.12500027E+03</pdfrwt>
<totfact> 0.90438073E+03</totfact>
</mgrwt>
</event>
<event>
 5    1  0.3184438E-002  0.1249992E+03  0.7818608E-02  0.1235070E+00
         -4   -1    0    0    0  501 -0.00000000000E+00  0.00000000000E+00  0.10132214871E+02  0.10211497353E+02  0.12700000000E+01 0.  1.
          4   -1    0    0  501    0  0.00000000000E+00 -0.00000000000E+00 -0.38394020996E+03  0.38394231041E+03  0.12700000000E+01 0.  1.
         25    2    1    2    0    0  0.00000000000E+00  0.00000000000E+00 -0.37380799509E+03  0.39415380776E+03  0.12499922793E+03 0.  0.
    9000005    1    3    3    0    0  0.61847114734E+02 -0.38115567785E+00 -0.15870208300E+03  0.17033074305E+03  0.10000000000E+01 0.  0.
    9000005    1    3    3    0    0 -0.61847114734E+02  0.38115567785E+00 -0.21510591209E+03  0.22382306471E+03  0.10000000000E+01 0.  0.
<mgrwt>
<rscale>  0 0.12499923E+03</rscale>
<asrwt>0</asrwt>
<pdfrwt beam="2">  1        4 0.59073974E-01 0.12499923E+03</pdfrwt>
<pdfrwt beam="1">  1       -4 0.15650628E-02 0.12499923E+03</pdfrwt>
<totfact> 0.65126497E+03</totfact>
</mgrwt>
</event>
<event>
 5    1  0.3184438E-002  0.1249991E+03  0.7818608E-02  0.1235071E+00
         -4   -1    0    0    0  501 -0.00000000000E+00  0.00000000000E+00  0.11373412548E+03  0.11374121592E+03  0.12700000000E+01 0. -1.
          4   -1    0    0  501    0  0.00000000000E+00 -0.00000000000E+00 -0.34325079884E+02  0.34348566332E+02  0.12700000000E+01 0. -1.
         25    2    1    2    0    0  0.00000000000E+00  0.00000000000E+00  0.79409045599E+02  0.14808978225E+03  0.12499914834E+03 0.  0.
    9000005    1    3    3    0    0 -0.24575981934E+02 -0.57114353498E+02  0.47119102772E+02  0.78020754351E+02  0.10000000000E+01 0.  0.
    9000005    1    3    3    0    0  0.24575981934E+02  0.57114353498E+02  0.32289942827E+02  0.70069027903E+02  0.10000000000E+01 0.  0.
<mgrwt>
<rscale>  0 0.12499915E+03</rscale>
<asrwt>0</asrwt>
<pdfrwt beam="2">  1        4 0.52831336E-02 0.12499915E+03</pdfrwt>
<pdfrwt beam="1">  1       -4 0.17499910E-01 0.12499915E+03</pdfrwt>
<totfact> 0.99687754E+03</totfact>
</mgrwt>
</event>
<event>
 5    1  0.3184438E-002  0.1249995E+03  0.7818608E-02  0.1235070E+00
         -4   -1    0    0    0  501 -0.00000000000E+00  0.00000000000E+00  0.24789553572E+03  0.24789878889E+03  0.12700000000E+01 0.  1.
          4   -1    0    0  501    0  0.00000000000E+00 -0.00000000000E+00 -0.15728574633E+02  0.15779764256E+02  0.12700000000E+01 0.  1.
         25    2    1    2    0    0  0.00000000000E+00  0.00000000000E+00  0.23216696109E+03  0.26367855314E+03  0.12499952626E+03 0.  0.
    9000005    1    3    3    0    0 -0.13318603960E+02 -0.57413893574E+02  0.15990089800E+03  0.17042017947E+03  0.10000000000E+01 0.  0.
    9000005    1    3    3    0    0  0.13318603960E+02  0.57413893574E+02  0.72266063086E+02  0.93258373676E+02  0.10000000000E+01 0.  0.
<mgrwt>
<rscale>  0 0.12499953E+03</rscale>
<asrwt>0</asrwt>
<pdfrwt beam="2">  1        4 0.24239686E-02 0.12499953E+03</pdfrwt>
<pdfrwt beam="1">  1       -4 0.38141964E-01 0.12499953E+03</pdfrwt>
<totfact> 0.80393429E+03</totfact>
</mgrwt>
</event>
<event>
 5    1  0.3184438E-002  0.1250007E+03  0.7818608E-02  0.1235068E+00
         -4   -1    0    0    0  501 -0.00000000000E+00  0.00000000000E+00  0.96043843406E+01  0.96879873329E+01  0.12700000000E+01 0. -1.
          4   -1    0    0  501    0  0.00000000000E+00 -0.00000000000E+00 -0.40487256607E+03  0.40487455793E+03  0.12700000000E+01 0. -1.
         25    2    1    2    0    0  0.00000000000E+00  0.00000000000E+00 -0.39526818173E+03  0.41456254526E+03  0.12500067378E+03 0.  0.
    9000005    1    3    3    0    0  0.57630521008E+02 -0.13725926930E+02 -0.26359909336E+03  0.27017616483E+03  0.10000000000E+01 0.  0.
    9000005    1    3    3    0    0 -0.57630521008E+02  0.13725926930E+02 -0.13166908837E+03  0.14438638043E+03  0.10000000000E+01 0.  0.
<mgrwt>
<rscale>  0 0.12500067E+03</rscale>
<asrwt>0</asrwt>
<pdfrwt beam="2">  1        4 0.62294658E-01 0.12500067E+03</pdfrwt>
<pdfrwt beam="1">  1       -4 0.14841821E-02 0.12500067E+03</pdfrwt>
<totfact> 0.63159742E+03</totfact>
</mgrwt>
</event>
<event>
 5    1  0.3184438E-002  0.1249995E+03  0.7818608E-02  0.1235070E+00
         -4   -1    0    0    0  501 -0.00000000000E+00  0.00000000000E+00  0.23642674998E+02  0.23676760358E+02  0.12700000000E+01 0.  1.
          4   -1    0    0  501    0  0.00000000000E+00 -0.00000000000E+00 -0.16506333852E+03  0.16506822415E+03  0.12700000000E+01 0.  1.
         25    2    1    2    0    0  0.00000000000E+00  0.00000000000E+00 -0.14142066352E+03  0.18874498450E+03  0.12499946042E+03 0.  0.
    9000005    1    3    3    0    0 -0.60382760527E+02 -0.13256364695E+02 -0.56920171304E+02  0.84039959989E+02  0.10000000000E+01 0.  0.
    9000005    1    3    3    0    0  0.60382760527E+02  0.13256364695E+02 -0.84500492216E+02  0.10470502451E+03  0.10000000000E+01 0.  0.
<mgrwt>
<rscale>  0 0.12499946E+03</rscale>
<asrwt>0</asrwt>
<pdfrwt beam="2">  1        4 0.25397357E-01 0.12499946E+03</pdfrwt>
<pdfrwt beam="1">  1       -4 0.36403325E-02 0.12499946E+03</pdfrwt>
<totfact> 0.92067256E+03</totfact>
</mgrwt>
</event>
<event>
 5    1  0.3184438E-002  0.1249993E+03  0.7818608E-02  0.1235070E+00
         -4   -1    0    0    0  501 -0.00000000000E+00  0.00000000000E+00  0.50373336022E+02  0.50389342941E+02  0.12700000000E+01 0. -1.
          4   -1    0    0  501    0  0.00000000000E+00 -0.00000000000E+00 -0.77511549528E+02  0.77521953086E+02  0.12700000000E+01 0. -1.
         25    2    1    2    0    0  0.00000000000E+00  0.00000000000E+00 -0.27138213506E+02  0.12791129603E+03  0.12499926807E+03 0.  0.
    9000005    1    3    3    0    0 -0.61622471090E+02 -0.80239567978E+01 -0.20317544828E+02  0.65387425808E+02  0.10000000000E+01 0.  0.
    9000005    1    3    3    0    0  0.61622471090E+02  0.80239567978E+01 -0.68206686780E+01  0.62523870219E+02  0.10000000000E+01 0.  0.
<mgrwt>
<rscale>  0 0.12499927E+03</rscale>
<asrwt>0</asrwt>
<pdfrwt beam="2">  1        4 0.11926885E-01 0.12499927E+03</pdfrwt>
<pdfrwt beam="1">  1       -4 0.77517756E-02 0.12499927E+03</pdfrwt>
<totfact> 0.10389575E+04</totfact>
</mgrwt>
</event>
<event>
 5    1  0.3184438E-002  0.1250020E+03  0.7818608E-02  0.1235066E+00
          4   -1    0    0  501    0  0.00000000000E+00  0.00000000000E+00  0.96880514840E+02  0.96888838653E+02  0.12700000000E+01 0. -1.
         -4   -1    0    0    0  501 -0.00000000000E+00 -0.00000000000E+00 -0.40301522837E+02  0.40321528282E+02  0.12700000000E+01 0. -1.
         25    2    1    2    0    0  0.00000000000E+00  0.00000000000E+00  0.56578992003E+02  0.13721036693E+03  0.12500200982E+03 0.  0.
    9000005    1    3    3    0    0 -0.10705951625E+02 -0.55709440265E+02 -0.48559546198E+00  0.56739712176E+02  0.10000000000E+01 0.  0.
    9000005    1    3    3    0    0  0.10705951625E+02  0.55709440265E+02  0.57064587465E+02  0.80470654759E+02  0.10000000000E+01 0.  0.
<mgrwt>
<rscale>  0 0.12500201E+03</rscale>
<asrwt>0</asrwt>
<pdfrwt beam="1">  1        4 0.14906873E-01 0.12500201E+03</pdfrwt>
<pdfrwt beam="2">  1       -4 0.62024136E-02 0.12500201E+03</pdfrwt>
<totfact> 0.10191227E+04</totfact>
</mgrwt>
</event>
<event>
 5    1  0.3184438E-002  0.1250025E+03  0.7818608E-02  0.1235065E+00
         -4   -1    0    0    0  501 -0.00000000000E+00  0.00000000000E+00  0.56238659035E+02  0.56252996987E+02  0.12700000000E+01 0. -1.
          4   -1    0    0  501    0  0.00000000000E+00 -0.00000000000E+00 -0.69432210239E+02  0.69443824194E+02  0.12700000000E+01 0. -1.
         25    2    1    2    0    0  0.00000000000E+00  0.00000000000E+00 -0.13193551204E+02  0.12569682118E+03  0.12500248422E+03 0.  0.
    9000005    1    3    3    0    0  0.37234306148E+01 -0.62382212837E+02 -0.65674340866E+01  0.62845330809E+02  0.10000000000E+01 0.  0.
    9000005    1    3    3    0    0 -0.37234306148E+01  0.62382212837E+02 -0.66261171169E+01  0.62851490372E+02  0.10000000000E+01 0.  0.
<mgrwt>
<rscale>  0 0.12500248E+03</rscale>
<asrwt>0</asrwt>
<pdfrwt beam="2">  1        4 0.10683875E-01 0.12500248E+03</pdfrwt>
<pdfrwt beam="1">  1       -4 0.86540977E-02 0.12500248E+03</pdfrwt>
<totfact> 0.10437029E+04</totfact>
</mgrwt>
</event>
<event>
 5    1  0.3184438E-002  0.1250002E+03  0.7818608E-02  0.1235069E+00
         -4   -1    0    0    0  501 -0.00000000000E+00  0.00000000000E+00  0.52251158141E+01  0.53772423481E+01  0.12700000000E+01 0. -1.
          4   -1    0    0  501    0  0.00000000000E+00 -0.00000000000E+00 -0.73671444328E+03  0.73671553793E+03  0.12700000000E+01 0. -1.
         25    2    1    2    0    0  0.00000000000E+00  0.00000000000E+00 -0.73148932746E+03  0.74209278028E+03  0.12500023342E+03 0.  0.
    9000005    1    3    3    0    0  0.48519085899E+02 -0.45429053322E+01 -0.13348832122E+03  0.14210866120E+03  0.10000000000E+01 0.  0.
    9000005    1    3    3    0    0 -0.48519085899E+02  0.45429053322E+01 -0.59800100624E+03  0.59998411908E+03  0.10000000000E+01 0.  0.
<mgrwt>
<rscale>  0 0.12500023E+03</rscale>
<asrwt>0</asrwt>
<pdfrwt beam="2">  1        4 0.11335239E+00 0.12500023E+03</pdfrwt>
<pdfrwt beam="1">  1       -4 0.81565080E-03 0.12500023E+03</pdfrwt>
<totfact> 0.40955039E+03</totfact>
</mgrwt>
</event>
<event>
 5    1  0.3184438E-002  0.1249962E+03  0.7818608E-02  0.1235075E+00
         -4   -1    0    0    0  501 -0.00000000000E+00  0.00000000000E+00  0.17906102240E+03  0.17906552612E+03  0.12700000000E+01 0. -1.
          4   -1    0    0  501    0  0.00000000000E+00 -0.00000000000E+00 -0.21790596837E+02  0.21827574545E+02  0.12700000000E+01 0. -1.
         25    2    1    2    0    0  0.00000000000E+00  0.00000000000E+00  0.15727042557E+03  0.20089310067E+03  0.12499620449E+03 0.  0.
    9000005    1    3    3    0    0  0.22428323703E+02  0.58267421077E+02  0.82854125433E+02  0.10374935260E+03  0.10000000000E+01 0.  0.
    9000005    1    3    3    0    0 -0.22428323703E+02 -0.58267421077E+02  0.74416300134E+02  0.97143748068E+02  0.10000000000E+01 0.  0.
<mgrwt>
<rscale>  0 0.12499620E+03</rscale>
<asrwt>0</asrwt>
<pdfrwt beam="2">  1        4 0.33555903E-02 0.12499620E+03</pdfrwt>
<pdfrwt beam="1">  1       -4 0.27551041E-01 0.12499620E+03</pdfrwt>
<totfact> 0.89992737E+03</totfact>
</mgrwt>
</event>
<event>
 5    1  0.3184438E-002  0.1250113E+03  0.7818608E-02  0.1235052E+00
         -4   -1    0    0    0  501 -0.00000000000E+00  0.00000000000E+00  0.23466022606E+03  0.23466366271E+03  0.12700000000E+01 0. -1.
          4   -1    0    0  501    0  0.00000000000E+00 -0.00000000000E+00 -0.16621627974E+02  0.16670075480E+02  0.12700000000E+01 0. -1.
         25    2    1    2    0    0  0.00000000000E+00  0.00000000000E+00  0.21803859809E+03  0.25133373819E+03  0.12501127027E+03 0.  0.
    9000005    1    3    3    0    0  0.38404452104E+02  0.47457952944E+02  0.82136187629E+02  0.10234506611E+03  0.10000000000E+01 0.  0.
    9000005    1    3    3    0    0 -0.38404452104E+02 -0.47457952944E+02  0.13590241046E+03  0.14898867208E+03  0.10000000000E+01 0.  0.
<mgrwt>
<rscale>  0 0.12501127E+03</rscale>
<asrwt>0</asrwt>
<pdfrwt beam="2">  1        4 0.25611648E-02 0.12501127E+03</pdfrwt>
<pdfrwt beam="1">  1       -4 0.36105562E-01 0.12501127E+03</pdfrwt>
<totfact> 0.82117227E+03</totfact>
</mgrwt>
</event>
<event>
 5    1  0.3184438E-002  0.1249998E+03  0.7818608E-02  0.1235070E+00
         -4   -1    0    0    0  501 -0.00000000000E+00  0.00000000000E+00  0.41281064399E+02  0.41300595370E+02  0.12700000000E+01 0. -1.
          4   -1    0    0  501    0  0.00000000000E+00 -0.00000000000E+00 -0.94579187797E+02  0.94587714130E+02  0.12700000000E+01 0. -1.
         25    2    1    2    0    0  0.00000000000E+00  0.00000000000E+00 -0.53298123397E+02  0.13588830950E+03  0.12499977080E+03 0.  0.
    9000005    1    3    3    0    0  0.13789744138E+02  0.58877676670E+02 -0.43786037059E+02  0.74665620569E+02  0.10000000000E+01 0.  0.
    9000005    1    3    3    0    0 -0.13789744138E+02 -0.58877676670E+02 -0.95120863380E+01  0.61222688932E+02  0.10000000000E+01 0.  0.
<mgrwt>
<rscale>  0 0.12499977E+03</rscale>
<asrwt>0</asrwt>
<pdfrwt beam="2">  1        4 0.14552803E-01 0.12499977E+03</pdfrwt>
<pdfrwt beam="1">  1       -4 0.63530912E-02 0.12499977E+03</pdfrwt>
<totfact> 0.10219434E+04</totfact>
</mgrwt>
</event>
<event>
 5    1  0.3184438E-002  0.1250002E+03  0.7818608E-02  0.1235069E+00
          4   -1    0    0  501    0  0.00000000000E+00  0.00000000000E+00  0.12833595599E+04  0.12833601883E+04  0.12700000000E+01 0. -1.
         -4   -1    0    0    0  501 -0.00000000000E+00 -0.00000000000E+00 -0.29106462074E+01  0.31756513260E+01  0.12700000000E+01 0. -1.
         25    2    1    2    0    0  0.00000000000E+00  0.00000000000E+00  0.12804489137E+04  0.12865358396E+04  0.12500018416E+03 0.  0.
    9000005    1    3    3    0    0 -0.38543727094E+02 -0.49166623915E+02  0.65578487491E+03  0.65875471761E+03  0.10000000000E+01 0.  0.
    9000005    1    3    3    0    0  0.38543727094E+02  0.49166623915E+02  0.62466403880E+03  0.62778112202E+03  0.10000000000E+01 0.  0.
<mgrwt>
<rscale>  0 0.12500018E+03</rscale>
<asrwt>0</asrwt>
<pdfrwt beam="1">  1        4 0.19746035E+00 0.12500018E+03</pdfrwt>
<pdfrwt beam="2">  1       -4 0.46822511E-03 0.12500018E+03</pdfrwt>
<totfact> 0.22548452E+03</totfact>
</mgrwt>
</event>
<event>
 5    1  0.3184438E-002  0.1249993E+03  0.7818608E-02  0.1235070E+00
          4   -1    0    0  501    0  0.00000000000E+00  0.00000000000E+00  0.87794939489E+03  0.87795031345E+03  0.12700000000E+01 0.  1.
         -4   -1    0    0    0  501 -0.00000000000E+00 -0.00000000000E+00 -0.43576709150E+01  0.45389641774E+01  0.12700000000E+01 0.  1.
         25    2    1    2    0    0  0.00000000000E+00  0.00000000000E+00  0.87359172397E+03  0.88248927762E+03  0.12499929972E+03 0.  0.
    9000005    1    3    3    0    0 -0.60869277608E+02 -0.11770301258E+01  0.33726506635E+03  0.34271734613E+03  0.10000000000E+01 0.  0.
    9000005    1    3    3    0    0  0.60869277608E+02  0.11770301258E+01  0.53632665762E+03  0.53977193150E+03  0.10000000000E+01 0.  0.
<mgrwt>
<rscale>  0 0.12499930E+03</rscale>
<asrwt>0</asrwt>
<pdfrwt beam="1">  1        4 0.13508317E+00 0.12499930E+03</pdfrwt>
<pdfrwt beam="2">  1       -4 0.68442714E-03 0.12499930E+03</pdfrwt>
<totfact> 0.34833962E+03</totfact>
</mgrwt>
</event>
<event>
 5    1  0.3184438E-002  0.1250016E+03  0.7818608E-02  0.1235067E+00
          4   -1    0    0  501    0  0.00000000000E+00  0.00000000000E+00  0.49992731635E+01  0.51580647692E+01  0.12700000000E+01 0. -1.
         -4   -1    0    0    0  501 -0.00000000000E+00 -0.00000000000E+00 -0.76900903153E+03  0.76901008021E+03  0.12700000000E+01 0. -1.
         25    2    1    2    0    0  0.00000000000E+00  0.00000000000E+00 -0.76400975836E+03  0.77416814498E+03  0.12500162331E+03 0.  0.
    9000005    1    3    3    0    0  0.31272587446E+02  0.50130441533E+02 -0.25594256704E+03  0.26267590966E+03  0.10000000000E+01 0.  0.
    9000005    1    3    3    0    0 -0.31272587446E+02 -0.50130441533E+02 -0.50806719132E+03  0.51149223532E+03  0.10000000000E+01 0.  0.
<mgrwt>
<rscale>  0 0.12500162E+03</rscale>
<asrwt>0</asrwt>
<pdfrwt beam="1">  1        4 0.78141497E-03 0.12500162E+03</pdfrwt>
<pdfrwt beam="2">  1       -4 0.11832128E+00 0.12500162E+03</pdfrwt>
<totfact> 0.39442584E+03</totfact>
</mgrwt>
</event>
<event>
 5    1  0.3184438E-002  0.1249985E+03  0.7818608E-02  0.1235072E+00
          4   -1    0    0  501    0  0.00000000000E+00  0.00000000000E+00  0.33566612581E+02  0.33590629351E+02  0.12700000000E+01 0.  1.
         -4   -1    0    0    0  501 -0.00000000000E+00 -0.00000000000E+00 -0.11630115548E+03  0.11630808943E+03  0.12700000000E+01 0.  1.
         25    2    1    2    0    0  0.00000000000E+00  0.00000000000E+00 -0.82734542902E+02  0.14989871878E+03  0.12499848520E+03 0.  0.
    9000005    1    3    3    0    0 -0.19335262502E+02 -0.25050260070E+02 -0.10598855508E+03  0.11061619101E+03  0.10000000000E+01 0.  0.
    9000005    1    3    3    0    0  0.19335262502E+02  0.25050260070E+02  0.23254012178E+02  0.39282527770E+02  0.10000000000E+01 0.  0.
<mgrwt>
<rscale>  0 0.12499849E+03</rscale>
<asrwt>0</asrwt>
<pdfrwt beam="1">  1        4 0.51664751E-02 0.12499849E+03</pdfrwt>
<pdfrwt beam="2">  1       -4 0.17894866E-01 0.12499849E+03</pdfrwt>
<totfact> 0.99327277E+03</totfact>
</mgrwt>
</event>
<event>
 5    1  0.3184438E-002  0.1250001E+03  0.7818608E-02  0.1235069E+00
         -4   -1    0    0    0  501 -0.00000000000E+00  0.00000000000E+00  0.16685269100E+04  0.16685273934E+04  0.12700000000E+01 0. -1.
          4   -1    0    0  501    0  0.00000000000E+00 -0.00000000000E+00 -0.21683852418E+01  0.25129254976E+01  0.12700000000E+01 0. -1.
         25    2    1    2    0    0  0.00000000000E+00  0.00000000000E+00  0.16663585248E+04  0.16710403189E+04  0.12500005646E+03 0.  0.
    9000005    1    3    3    0    0 -0.46092976573E+02 -0.10682024219E+02  0.13789251926E+04  0.13797370600E+04  0.10000000000E+01 0.  0.
    9000005    1    3    3    0    0  0.46092976573E+02  0.10682024219E+02  0.28743333223E+03  0.29130325884E+03  0.10000000000E+01 0.  0.
<mgrwt>
<rscale>  0 0.12500006E+03</rscale>
<asrwt>0</asrwt>
<pdfrwt beam="2">  1        4 0.36013796E-03 0.12500006E+03</pdfrwt>
<pdfrwt beam="1">  1       -4 0.25672302E+00 0.12500006E+03</pdfrwt>
<totfact> 0.14796819E+03</totfact>
</mgrwt>
</event>
<event>
 5    1  0.3184438E-002  0.1250011E+03  0.7818608E-02  0.1235068E+00
         -4   -1    0    0    0  501 -0.00000000000E+00  0.00000000000E+00  0.64240140344E+02  0.64252692795E+02  0.12700000000E+01 0. -1.
          4   -1    0    0  501    0  0.00000000000E+00 -0.00000000000E+00 -0.60782957396E+02  0.60796223647E+02  0.12700000000E+01 0. -1.
         25    2    1    2    0    0  0.00000000000E+00  0.00000000000E+00  0.34571829479E+01  0.12504891644E+03  0.12500111755E+03 0.  0.
    9000005    1    3    3    0    0  0.35691653100E+02  0.51073508082E+02  0.65181689568E+01  0.62656873967E+02  0.10000000000E+01 0.  0.
    9000005    1    3    3    0    0 -0.35691653100E+02 -0.51073508082E+02 -0.30609860089E+01  0.62392042475E+02  0.10000000000E+01 0.  0.
<mgrwt>
<rscale>  0 0.12500112E+03</rscale>
<asrwt>0</asrwt>
<pdfrwt beam="2">  1        4 0.93532103E-02 0.12500112E+03</pdfrwt>
<pdfrwt beam="1">  1       -4 0.98850845E-02 0.12500112E+03</pdfrwt>
<totfact> 0.10451536E+04</totfact>
</mgrwt>
</event>
<event>
 5    1  0.3184438E-002  0.1249970E+03  0.7818608E-02  0.1235074E+00
         -4   -1    0    0    0  501 -0.00000000000E+00  0.00000000000E+00  0.98889504287E+03  0.98889585838E+03  0.12700000000E+01 0.  1.
          4   -1    0    0  501    0  0.00000000000E+00 -0.00000000000E+00 -0.38470027393E+01  0.40512134079E+01  0.12700000000E+01 0.  1.
         25    2    1    2    0    0  0.00000000000E+00  0.00000000000E+00  0.98504804013E+03  0.99294707178E+03  0.12499698396E+03 0.  0.
    9000005    1    3    3    0    0 -0.35460442948E+02 -0.25836231816E+02  0.13903904247E+03  0.14580058031E+03  0.10000000000E+01 0.  0.
    9000005    1    3    3    0    0  0.35460442948E+02  0.25836231816E+02  0.84600899766E+03  0.84714649147E+03  0.10000000000E+01 0.  0.
<mgrwt>
<rscale>  0 0.12499698E+03</rscale>
<asrwt>0</asrwt>
<pdfrwt beam="2">  1        4 0.60761808E-03 0.12499698E+03</pdfrwt>
<pdfrwt beam="1">  1       -4 0.15215341E+00 0.12499698E+03</pdfrwt>
<totfact> 0.30840546E+03</totfact>
</mgrwt>
</event>
<event>
 5    1  0.3184438E-002  0.1250014E+03  0.7818608E-02  0.1235067E+00
          4   -1    0    0  501    0  0.00000000000E+00  0.00000000000E+00  0.14846215538E+03  0.14846758731E+03  0.12700000000E+01 0. -1.
         -4   -1    0    0    0  501 -0.00000000000E+00 -0.00000000000E+00 -0.26290767036E+02  0.26321423429E+02  0.12700000000E+01 0. -1.
         25    2    1    2    0    0  0.00000000000E+00  0.00000000000E+00  0.12217138835E+03  0.17478901074E+03  0.12500140057E+03 0.  0.
    9000005    1    3    3    0    0  0.51875346630E+02  0.34563399994E+02  0.54886125179E+02  0.83061224071E+02  0.10000000000E+01 0.  0.
    9000005    1    3    3    0    0 -0.51875346630E+02 -0.34563399994E+02  0.67285263170E+02  0.91727786668E+02  0.10000000000E+01 0.  0.
<mgrwt>
<rscale>  0 0.12500140E+03</rscale>
<asrwt>0</asrwt>
<pdfrwt beam="1">  1        4 0.22843107E-01 0.12500140E+03</pdfrwt>
<pdfrwt beam="2">  1       -4 0.40475095E-02 0.12500140E+03</pdfrwt>
<totfact> 0.94560526E+03</totfact>
</mgrwt>
</event>
<event>
 4    1  0.3184438E-002  0.1252849E+03  0.7818608E-02  0.1234625E+00
         -4   -1    0    0    0  501 -0.00000000000E+00  0.00000000000E+00  0.25483487560E+02  0.25515113918E+02  0.12700000000E+01 0. -1.
          4   -1    0    0  501    0  0.00000000000E+00 -0.00000000000E+00 -0.15385529086E+03  0.15386053238E+03  0.12700000000E+01 0. -1.
    9000005    1    1    2    0    0 -0.17705427292E+02 -0.20320490458E+02 -0.14513532868E+03  0.14762001260E+03  0.10000000000E+01 0.  0.
    9000005    1    1    2    0    0  0.17705427292E+02  0.20320490458E+02  0.16763525389E+02  0.31755633697E+02  0.10000000000E+01 0.  0.
<mgrwt>
<rscale>  0 0.12528489E+03</rscale>
<asrwt>0</asrwt>
<pdfrwt beam="2">  1        4 0.23672880E-01 0.12528489E+03</pdfrwt>
<pdfrwt beam="1">  1       -4 0.39233726E-02 0.12528489E+03</pdfrwt>
<totfact> 0.93133263E+03</totfact>
</mgrwt>
</event>
<event>
 5    1  0.3184438E-002  0.1250009E+03  0.7818608E-02  0.1235068E+00
         -4   -1    0    0    0  501 -0.00000000000E+00  0.00000000000E+00  0.47520354426E+02  0.47537322020E+02  0.12700000000E+01 0. -1.
          4   -1    0    0  501    0  0.00000000000E+00 -0.00000000000E+00 -0.82166292977E+02  0.82176107243E+02  0.12700000000E+01 0. -1.
         25    2    1    2    0    0  0.00000000000E+00  0.00000000000E+00 -0.34645938551E+02  0.12971342926E+03  0.12500093069E+03 0.  0.
    9000005    1    3    3    0    0 -0.18311937198E+02 -0.37422406974E+02  0.31011391988E+02  0.51946799908E+02  0.10000000000E+01 0.  0.
    9000005    1    3    3    0    0  0.18311937198E+02  0.37422406974E+02 -0.65657330539E+02  0.77766629355E+02  0.10000000000E+01 0.  0.
<mgrwt>
<rscale>  0 0.12500093E+03</rscale>
<asrwt>0</asrwt>
<pdfrwt beam="2">  1        4 0.12643028E-01 0.12500093E+03</pdfrwt>
<pdfrwt beam="1">  1       -4 0.73128839E-02 0.12500093E+03</pdfrwt>
<totfact> 0.10350424E+04</totfact>
</mgrwt>
</event>
<event>
 5    1  0.3184438E-002  0.1250042E+03  0.7818608E-02  0.1235063E+00
          4   -1    0    0  501    0  0.00000000000E+00  0.00000000000E+00  0.51034072937E+02  0.51049872679E+02  0.12700000000E+01 0. -1.
         -4   -1    0    0    0  501 -0.00000000000E+00 -0.00000000000E+00 -0.76514170772E+02  0.76524709924E+02  0.12700000000E+01 0. -1.
         25    2    1    2    0    0  0.00000000000E+00  0.00000000000E+00 -0.25480097835E+02  0.12757458260E+03  0.12500415489E+03 0.  0.
    9000005    1    3    3    0    0 -0.42748756083E+02 -0.39791962071E+02  0.99580853173E+01  0.59253859413E+02  0.10000000000E+01 0.  0.
    9000005    1    3    3    0    0  0.42748756083E+02  0.39791962071E+02 -0.35438183152E+02  0.68320723190E+02  0.10000000000E+01 0.  0.
<mgrwt>
<rscale>  0 0.12500415E+03</rscale>
<asrwt>0</asrwt>
<pdfrwt beam="1">  1        4 0.78534219E-02 0.12500415E+03</pdfrwt>
<pdfrwt beam="2">  1       -4 0.11773437E-01 0.12500415E+03</pdfrwt>
<totfact> 0.10395711E+04</totfact>
</mgrwt>
</event>
<event>
 5    1  0.3184438E-002  0.1250153E+03  0.7818608E-02  0.1235045E+00
          4   -1    0    0  501    0  0.00000000000E+00  0.00000000000E+00  0.49289309850E+03  0.49289473465E+03  0.12700000000E+01 0.  1.
         -4   -1    0    0    0  501 -0.00000000000E+00 -0.00000000000E+00 -0.78745559954E+01  0.79763106838E+01  0.12700000000E+01 0.  1.
         25    2    1    2    0    0  0.00000000000E+00  0.00000000000E+00  0.48501854250E+03  0.50087104533E+03  0.12501526900E+03 0.  0.
    9000005    1    3    3    0    0  0.47366834718E+02  0.39913192962E+02  0.20910273954E+03  0.21808630330E+03  0.10000000000E+01 0.  0.
    9000005    1    3    3    0    0 -0.47366834718E+02 -0.39913192962E+02  0.27591580296E+03  0.28278474203E+03  0.10000000000E+01 0.  0.
<mgrwt>
<rscale>  0 0.12501527E+03</rscale>
<asrwt>0</asrwt>
<pdfrwt beam="1">  1        4 0.75837664E-01 0.12501527E+03</pdfrwt>
<pdfrwt beam="2">  1       -4 0.12194232E-02 0.12501527E+03</pdfrwt>
<totfact> 0.55778116E+03</totfact>
</mgrwt>
</event>
<event>
 5    1  0.3184438E-002  0.1250021E+03  0.7818608E-02  0.1235066E+00
         -4   -1    0    0    0  501 -0.00000000000E+00  0.00000000000E+00  0.23581014130E+03  0.23581356119E+03  0.12700000000E+01 0. -1.
          4   -1    0    0  501    0  0.00000000000E+00 -0.00000000000E+00 -0.16537909146E+02  0.16586601187E+02  0.12700000000E+01 0. -1.
         25    2    1    2    0    0  0.00000000000E+00  0.00000000000E+00  0.21927223215E+03  0.25240016237E+03  0.12500212067E+03 0.  0.
    9000005    1    3    3    0    0 -0.46384003879E+02 -0.20656786370E+02  0.18319600662E+03  0.19010511692E+03  0.10000000000E+01 0.  0.
    9000005    1    3    3    0    0  0.46384003879E+02  0.20656786370E+02  0.36076225534E+02  0.62295045451E+02  0.10000000000E+01 0.  0.
<mgrwt>
<rscale>  0 0.12500212E+03</rscale>
<asrwt>0</asrwt>
<pdfrwt beam="2">  1        4 0.25483026E-02 0.12500212E+03</pdfrwt>
<pdfrwt beam="1">  1       -4 0.36282488E-01 0.12500212E+03</pdfrwt>
<totfact> 0.81980693E+03</totfact>
</mgrwt>
</event>
<event>
 5    1  0.3184438E-002  0.1250009E+03  0.7818608E-02  0.1235068E+00
         -4   -1    0    0    0  501 -0.00000000000E+00  0.00000000000E+00  0.86042561187E+02  0.86051933364E+02  0.12700000000E+01 0. -1.
          4   -1    0    0  501    0  0.00000000000E+00 -0.00000000000E+00 -0.45378964334E+02  0.45396732306E+02  0.12700000000E+01 0. -1.
         25    2    1    2    0    0  0.00000000000E+00  0.00000000000E+00  0.40663596853E+02  0.13144866567E+03  0.12500089439E+03 0.  0.
    9000005    1    3    3    0    0 -0.54223888543E+02  0.26377234454E+02  0.30744050772E+01  0.60385764487E+02  0.10000000000E+01 0.  0.
    9000005    1    3    3    0    0  0.54223888543E+02 -0.26377234454E+02  0.37589191776E+02  0.71062901182E+02  0.10000000000E+01 0.  0.
<mgrwt>
<rscale>  0 0.12500089E+03</rscale>
<asrwt>0</asrwt>
<pdfrwt beam="2">  1        4 0.69834669E-02 0.12500089E+03</pdfrwt>
<pdfrwt beam="1">  1       -4 0.13239405E-01 0.12500089E+03</pdfrwt>
<totfact> 0.10313272E+04</totfact>
</mgrwt>
</event>
<event>
 5    1  0.3184438E-002  0.1249990E+03  0.7818608E-02  0.1235071E+00
         -4   -1    0    0    0  501 -0.00000000000E+00  0.00000000000E+00  0.37213842745E+03  0.37214059452E+03  0.12700000000E+01 0.  1.
          4   -1    0    0  501    0  0.00000000000E+00 -0.00000000000E+00 -0.10455975952E+02  0.10532821707E+02  0.12700000000E+01 0.  1.
         25    2    1    2    0    0  0.00000000000E+00  0.00000000000E+00  0.36168245150E+03  0.38267341622E+03  0.12499899104E+03 0.  0.
    9000005    1    3    3    0    0  0.47998214457E+02  0.14167433841E+02  0.66267408040E+02  0.83047661864E+02  0.10000000000E+01 0.  0.
    9000005    1    3    3    0    0 -0.47998214457E+02 -0.14167433841E+02  0.29541504346E+03  0.29962575436E+03  0.10000000000E+01 0.  0.
<mgrwt>
<rscale>  0 0.12499899E+03</rscale>
<asrwt>0</asrwt>
<pdfrwt beam="2">  1        4 0.16146899E-02 0.12499899E+03</pdfrwt>
<pdfrwt beam="1">  1       -4 0.57258133E-01 0.12499899E+03</pdfrwt>
<totfact> 0.66275057E+03</totfact>
</mgrwt>
</event>
<event>
 5    1  0.3184438E-002  0.1249994E+03  0.7818608E-02  0.1235070E+00
         -4   -1    0    0    0  501 -0.00000000000E+00  0.00000000000E+00  0.27132669729E+02  0.27162375939E+02  0.12700000000E+01 0. -1.
          4   -1    0    0  501    0  0.00000000000E+00 -0.00000000000E+00 -0.14385586663E+03  0.14386147248E+03  0.12700000000E+01 0. -1.
         25    2    1    2    0    0  0.00000000000E+00  0.00000000000E+00 -0.11672319690E+03  0.17102384842E+03  0.12499940813E+03 0.  0.
    9000005    1    3    3    0    0  0.12640576357E+02  0.43339740270E+02  0.75807321907E+00  0.45162948667E+02  0.10000000000E+01 0.  0.
    9000005    1    3    3    0    0 -0.12640576357E+02 -0.43339740270E+02 -0.11748127012E+03  0.12586089975E+03  0.10000000000E+01 0.  0.
<mgrwt>
<rscale>  0 0.12499941E+03</rscale>
<asrwt>0</asrwt>
<pdfrwt beam="2">  1        4 0.22134388E-01 0.12499941E+03</pdfrwt>
<pdfrwt beam="1">  1       -4 0.41769733E-02 0.12499941E+03</pdfrwt>
<totfact> 0.95259414E+03</totfact>
</mgrwt>
</event>
<event>
 5    1  0.3184438E-002  0.1250012E+03  0.7818608E-02  0.1235067E+00
         -4   -1    0    0    0  501 -0.00000000000E+00  0.00000000000E+00  0.53236337266E+03  0.53236488750E+03  0.12700000000E+01 0. -1.
          4   -1    0    0  501    0  0.00000000000E+00 -0.00000000000E+00 -0.72812116009E+01  0.73911394505E+01  0.12700000000E+01 0. -1.
         25    2    1    2    0    0  0.00000000000E+00  0.00000000000E+00  0.52508216106E+03  0.53975602695E+03  0.12500117109E+03 0.  0.
    9000005    1    3    3    0    0  0.55997422853E+02  0.18183322691E+01  0.14300902482E+03  0.15359556920E+03  0.10000000000E+01 0.  0.
    9000005    1    3    3    0    0 -0.55997422853E+02 -0.18183322691E+01  0.38207313624E+03  0.38616045775E+03  0.10000000000E+01 0.  0.
<mgrwt>
<rscale>  0 0.12500117E+03</rscale>
<asrwt>0</asrwt>
<pdfrwt beam="2">  1        4 0.11287585E-02 0.12500117E+03</pdfrwt>
<pdfrwt beam="1">  1       -4 0.81910662E-01 0.12500117E+03</pdfrwt>
<totfact> 0.52905173E+03</totfact>
</mgrwt>
</event>
<event>
 5    1  0.3184438E-002  0.1250038E+03  0.7818608E-02  0.1235063E+00
         -4   -1    0    0    0  501 -0.00000000000E+00  0.00000000000E+00  0.13169848978E+03  0.13170461309E+03  0.12700000000E+01 0. -1.
          4   -1    0    0  501    0  0.00000000000E+00 -0.00000000000E+00 -0.29641964519E+02  0.29669158406E+02  0.12700000000E+01 0. -1.
         25    2    1    2    0    0  0.00000000000E+00  0.00000000000E+00  0.10205652526E+03  0.16137377150E+03  0.12500383906E+03 0.  0.
    9000005    1    3    3    0    0  0.61031725483E+02  0.81093744313E+01  0.64863523152E+02  0.89436626193E+02  0.10000000000E+01 0.  0.
    9000005    1    3    3    0    0 -0.61031725483E+02 -0.81093744313E+01  0.37193002108E+02  0.71937145307E+02  0.10000000000E+01 0.  0.
<mgrwt>
<rscale>  0 0.12500384E+03</rscale>
<asrwt>0</asrwt>
<pdfrwt beam="2">  1        4 0.45628651E-02 0.12500384E+03</pdfrwt>
<pdfrwt beam="1">  1       -4 0.20263869E-01 0.12500384E+03</pdfrwt>
<totfact> 0.97070209E+03</totfact>
</mgrwt>
</event>
<event>
 5    1  0.3184438E-002  0.1249954E+03  0.7818608E-02  0.1235077E+00
         -4   -1    0    0    0  501 -0.00000000000E+00  0.00000000000E+00  0.43502436048E+02  0.43520970142E+02  0.12700000000E+01 0.  1.
          4   -1    0    0  501    0  0.00000000000E+00 -0.00000000000E+00 -0.89745033747E+02  0.89754019310E+02  0.12700000000E+01 0.  1.
         25    2    1    2    0    0  0.00000000000E+00  0.00000000000E+00 -0.46242597700E+02  0.13327498945E+03  0.12499537980E+03 0.  0.
    9000005    1    3    3    0    0 -0.43592185582E+02 -0.11810156405E+02 -0.69170036184E+02  0.82615085449E+02  0.10000000000E+01 0.  0.
    9000005    1    3    3    0    0  0.43592185582E+02  0.11810156405E+02  0.22927438484E+02  0.50659904002E+02  0.10000000000E+01 0.  0.
<mgrwt>
<rscale>  0 0.12499538E+03</rscale>
<asrwt>0</asrwt>
<pdfrwt beam="2">  1        4 0.13809045E-01 0.12499538E+03</pdfrwt>
<pdfrwt beam="1">  1       -4 0.66947993E-02 0.12499538E+03</pdfrwt>
<totfact> 0.10275630E+04</totfact>
</mgrwt>
</event>
<event>
 5    1  0.3184438E-002  0.1250001E+03  0.7818608E-02  0.1235069E+00
          4   -1    0    0  501    0  0.00000000000E+00  0.00000000000E+00  0.11651249752E+01  0.17234895439E+01  0.12700000000E+01 0. -1.
         -4   -1    0    0    0  501 -0.00000000000E+00 -0.00000000000E+00 -0.27040314350E+04  0.27040317332E+04  0.12700000000E+01 0. -1.
         25    2    1    2    0    0  0.00000000000E+00  0.00000000000E+00 -0.27028663100E+04  0.27057552228E+04  0.12500014302E+03 0.  0.
    9000005    1    3    3    0    0 -0.30007071235E+02  0.40910993711E+02 -0.21411791815E+04  0.21417804325E+04  0.10000000000E+01 0.  0.
    9000005    1    3    3    0    0  0.30007071235E+02 -0.40910993711E+02 -0.56168712851E+03  0.56397479028E+03  0.10000000000E+01 0.  0.
<mgrwt>
<rscale>  0 0.12500014E+03</rscale>
<asrwt>0</asrwt>
<pdfrwt beam="1">  1        4 0.22222622E-03 0.12500014E+03</pdfrwt>
<pdfrwt beam="2">  1       -4 0.41604376E+00 0.12500014E+03</pdfrwt>
<totfact> 0.32472706E+02</totfact>
</mgrwt>
</event>
<event>
 5    1  0.3184438E-002  0.1250006E+03  0.7818608E-02  0.1235068E+00
         -4   -1    0    0    0  501 -0.00000000000E+00  0.00000000000E+00  0.39189192612E+03  0.39189398395E+03  0.12700000000E+01 0.  1.
          4   -1    0    0  501    0  0.00000000000E+00 -0.00000000000E+00 -0.99252186186E+01  0.10006141346E+02  0.12700000000E+01 0.  1.
         25    2    1    2    0    0  0.00000000000E+00  0.00000000000E+00  0.38196670750E+03  0.40190012530E+03  0.12500058030E+03 0.  0.
    9000005    1    3    3    0    0 -0.43953092591E+02  0.37531258083E+02  0.11457165874E+03  0.12832823021E+03  0.10000000000E+01 0.  0.
    9000005    1    3    3    0    0  0.43953092591E+02 -0.37531258083E+02  0.26739504876E+03  0.27357189509E+03  0.10000000000E+01 0.  0.
<mgrwt>
<rscale>  0 0.12500058E+03</rscale>
<asrwt>0</asrwt>
<pdfrwt beam="2">  1        4 0.15333399E-02 0.12500058E+03</pdfrwt>
<pdfrwt beam="1">  1       -4 0.60297446E-01 0.12500058E+03</pdfrwt>
<totfact> 0.64367579E+03</totfact>
</mgrwt>
</event>
<event>
 5    1  0.3184438E-002  0.1250004E+03  0.7818608E-02  0.1235069E+00
          4   -1    0    0  501    0  0.00000000000E+00  0.00000000000E+00  0.13186488275E+02  0.13247504407E+02  0.12700000000E+01 0.  1.
         -4   -1    0    0    0  501 -0.00000000000E+00 -0.00000000000E+00 -0.29548695414E+03  0.29548968335E+03  0.12700000000E+01 0.  1.
         25    2    1    2    0    0  0.00000000000E+00  0.00000000000E+00 -0.28230046587E+03  0.30873718776E+03  0.12500039231E+03 0.  0.
    9000005    1    3    3    0    0 -0.51407025616E+01 -0.20963981080E+02  0.36990451408E+01  0.21922551414E+02  0.10000000000E+01 0.  0.
    9000005    1    3    3    0    0  0.51407025616E+01  0.20963981080E+02 -0.28599951101E+03  0.28681463634E+03  0.10000000000E+01 0.  0.
<mgrwt>
<rscale>  0 0.12500039E+03</rscale>
<asrwt>0</asrwt>
<pdfrwt beam="1">  1        4 0.20335942E-02 0.12500039E+03</pdfrwt>
<pdfrwt beam="2">  1       -4 0.45464430E-01 0.12500039E+03</pdfrwt>
<totfact> 0.74515125E+03</totfact>
</mgrwt>
</event>
<event>
 5    1  0.3184438E-002  0.1250131E+03  0.7818608E-02  0.1235049E+00
         -4   -1    0    0    0  501 -0.00000000000E+00  0.00000000000E+00  0.22707960186E+03  0.22708315323E+03  0.12700000000E+01 0. -1.
          4   -1    0    0  501    0  0.00000000000E+00 -0.00000000000E+00 -0.17178601878E+02  0.17225482939E+02  0.12700000000E+01 0. -1.
         25    2    1    2    0    0  0.00000000000E+00  0.00000000000E+00  0.20990099999E+03  0.24430863617E+03  0.12501311896E+03 0.  0.
    9000005    1    3    3    0    0 -0.50178906206E+02 -0.37168424943E+02  0.99908825576E+02  0.11782269675E+03  0.10000000000E+01 0.  0.
    9000005    1    3    3    0    0  0.50178906206E+02  0.37168424943E+02  0.10999217441E+03  0.12648593942E+03  0.10000000000E+01 0.  0.
<mgrwt>
<rscale>  0 0.12501312E+03</rscale>
<asrwt>0</asrwt>
<pdfrwt beam="2">  1        4 0.26467414E-02 0.12501312E+03</pdfrwt>
<pdfrwt beam="1">  1       -4 0.34939201E-01 0.12501312E+03</pdfrwt>
<totfact> 0.83135520E+03</totfact>
</mgrwt>
</event>
<event>
 5    1  0.3184438E-002  0.1249986E+03  0.7818608E-02  0.1235072E+00
         -4   -1    0    0    0  501 -0.00000000000E+00  0.00000000000E+00  0.14370193622E+02  0.14426204100E+02  0.12700000000E+01 0. -1.
          4   -1    0    0  501    0  0.00000000000E+00 -0.00000000000E+00 -0.27123752874E+03  0.27124050195E+03  0.12700000000E+01 0. -1.
         25    2    1    2    0    0  0.00000000000E+00  0.00000000000E+00 -0.25686733512E+03  0.28566670605E+03  0.12499855637E+03 0.  0.
    9000005    1    3    3    0    0  0.22882418900E+01  0.55141850205E+02 -0.19542630185E+03  0.20307215257E+03  0.10000000000E+01 0.  0.
    9000005    1    3    3    0    0 -0.22882418900E+01 -0.55141850205E+02 -0.61441033267E+02  0.82594553476E+02  0.10000000000E+01 0.  0.
<mgrwt>
<rscale>  0 0.12499856E+03</rscale>
<asrwt>0</asrwt>
<pdfrwt beam="2">  1        4 0.41733384E-01 0.12499856E+03</pdfrwt>
<pdfrwt beam="1">  1       -4 0.22153364E-02 0.12499856E+03</pdfrwt>
<totfact> 0.77435177E+03</totfact>
</mgrwt>
</event>
<event>
 4    1  0.3184438E-002  0.1248852E+03  0.7818608E-02  0.1235249E+00
         -4   -1    0    0    0  501 -0.00000000000E+00  0.00000000000E+00  0.39695018850E+03  0.39695222011E+03  0.12700000000E+01 0. -1.
          4   -1    0    0  501    0  0.00000000000E+00 -0.00000000000E+00 -0.97794684548E+01  0.98615872586E+01  0.12700000000E+01 0. -1.
    9000005    1    1    2    0    0  0.20499971511E+02  0.41037556888E+02  0.55621486788E+02  0.72104644093E+02  0.10000000000E+01 0.  0.
    9000005    1    1    2    0    0 -0.20499971511E+02 -0.41037556888E+02  0.33154923326E+03  0.33470916327E+03  0.10000000000E+01 0.  0.
<mgrwt>
<rscale>  0 0.12488518E+03</rscale>
<asrwt>0</asrwt>
<pdfrwt beam="2">  1        4 0.15110067E-02 0.12488518E+03</pdfrwt>
<pdfrwt beam="1">  1       -4 0.61075733E-01 0.12488518E+03</pdfrwt>
<totfact> 0.64057629E+03</totfact>
</mgrwt>
</event>
<event>
 5    1  0.3184438E-002  0.1249997E+03  0.7818608E-02  0.1235070E+00
          4   -1    0    0  501    0  0.00000000000E+00  0.00000000000E+00  0.11915404736E+03  0.11916081530E+03  0.12700000000E+01 0.  1.
         -4   -1    0    0    0  501 -0.00000000000E+00 -0.00000000000E+00 -0.32763022349E+02  0.32787627749E+02  0.12700000000E+01 0.  1.
         25    2    1    2    0    0  0.00000000000E+00  0.00000000000E+00  0.86391025015E+02  0.15194844305E+03  0.12499968057E+03 0.  0.
    9000005    1    3    3    0    0 -0.19409554893E+02 -0.47491155921E+02 -0.17722054417E+00  0.51314443571E+02  0.10000000000E+01 0.  0.
    9000005    1    3    3    0    0  0.19409554893E+02  0.47491155921E+02  0.86568245560E+02  0.10063399948E+03  0.10000000000E+01 0.  0.
<mgrwt>
<rscale>  0 0.12499968E+03</rscale>
<asrwt>0</asrwt>
<pdfrwt beam="1">  1        4 0.18333805E-01 0.12499968E+03</pdfrwt>
<pdfrwt beam="2">  1       -4 0.50428784E-02 0.12499968E+03</pdfrwt>
<totfact> 0.98917425E+03</totfact>
</mgrwt>
</event>
<event>
 5    1  0.3184438E-002  0.1250025E+03  0.7818608E-02  0.1235065E+00
         -4   -1    0    0    0  501 -0.00000000000E+00  0.00000000000E+00  0.12432141256E+03  0.12432789920E+03  0.12700000000E+01 0. -1.
          4   -1    0    0  501    0  0.00000000000E+00 -0.00000000000E+00 -0.31401672554E+02  0.31427343814E+02  0.12700000000E+01 0. -1.
         25    2    1    2    0    0  0.00000000000E+00  0.00000000000E+00  0.92919740004E+02  0.15575524302E+03  0.12500247056E+03 0.  0.
    9000005    1    3    3    0    0 -0.18521388334E+02 -0.42890340696E+02 -0.52578234704E+01  0.47024119965E+02  0.10000000000E+01 0.  0.
    9000005    1    3    3    0    0  0.18521388334E+02  0.42890340696E+02  0.98177563474E+02  0.10873112305E+03  0.10000000000E+01 0.  0.
<mgrwt>
<rscale>  0 0.12500247E+03</rscale>
<asrwt>0</asrwt>
<pdfrwt beam="2">  1        4 0.48335003E-02 0.12500247E+03</pdfrwt>
<pdfrwt beam="1">  1       -4 0.19128845E-01 0.12500247E+03</pdfrwt>
<totfact> 0.98161985E+03</totfact>
</mgrwt>
</event>
<event>
 5    1  0.3184438E-002  0.1250040E+03  0.7818608E-02  0.1235063E+00
          4   -1    0    0  501    0  0.00000000000E+00  0.00000000000E+00  0.16700533762E+03  0.16701016644E+03  0.12700000000E+01 0. -1.
         -4   -1    0    0    0  501 -0.00000000000E+00 -0.00000000000E+00 -0.23369057490E+02  0.23403541355E+02  0.12700000000E+01 0. -1.
         25    2    1    2    0    0  0.00000000000E+00  0.00000000000E+00  0.14363628013E+03  0.19041370779E+03  0.12500399652E+03 0.  0.
    9000005    1    3    3    0    0  0.19261167635E+02  0.50155497419E+02  0.12044174865E+03  0.13188548562E+03  0.10000000000E+01 0.  0.
    9000005    1    3    3    0    0 -0.19261167635E+02 -0.50155497419E+02  0.23194531482E+02  0.58528222172E+02  0.10000000000E+01 0.  0.
<mgrwt>
<rscale>  0 0.12500400E+03</rscale>
<asrwt>0</asrwt>
<pdfrwt beam="1">  1        4 0.25696153E-01 0.12500400E+03</pdfrwt>
<pdfrwt beam="2">  1       -4 0.35982636E-02 0.12500400E+03</pdfrwt>
<totfact> 0.91767165E+03</totfact>
</mgrwt>
</event>
<event>
 5    1  0.3184438E-002  0.1249991E+03  0.7818608E-02  0.1235071E+00
          4   -1    0    0  501    0  0.00000000000E+00  0.00000000000E+00  0.45339209717E+02  0.45356993262E+02  0.12700000000E+01 0.  1.
         -4   -1    0    0    0  501 -0.00000000000E+00 -0.00000000000E+00 -0.86115555611E+02  0.86124919845E+02  0.12700000000E+01 0.  1.
         25    2    1    2    0    0  0.00000000000E+00  0.00000000000E+00 -0.40776345894E+02  0.13148191311E+03  0.12499913236E+03 0.  0.
    9000005    1    3    3    0    0 -0.56354286411E+02  0.22037711715E+02 -0.39666659552E+01  0.60648172052E+02  0.10000000000E+01 0.  0.
    9000005    1    3    3    0    0  0.56354286411E+02 -0.22037711715E+02 -0.36809679939E+02  0.70833741054E+02  0.10000000000E+01 0.  0.
<mgrwt>
<rscale>  0 0.12499913E+03</rscale>
<asrwt>0</asrwt>
<pdfrwt beam="1">  1        4 0.69773513E-02 0.12499913E+03</pdfrwt>
<pdfrwt beam="2">  1       -4 0.13250635E-01 0.12499913E+03</pdfrwt>
<totfact> 0.10312971E+04</totfact>
</mgrwt>
</event>
<event>
 5    1  0.3184438E-002  0.1249993E+03  0.7818608E-02  0.1235070E+00
         -4   -1    0    0    0  501 -0.00000000000E+00  0.00000000000E+00  0.11576986918E+03  0.11577683494E+03  0.12700000000E+01 0.  1.
          4   -1    0    0  501    0  0.00000000000E+00 -0.00000000000E+00 -0.33721173754E+02  0.33745080521E+02  0.12700000000E+01 0.  1.
         25    2    1    2    0    0  0.00000000000E+00  0.00000000000E+00  0.82048695425E+02  0.14952191547E+03  0.12499925913E+03 0.  0.
    9000005    1    3    3    0    0  0.25281971925E+02  0.51511812452E+02  0.11418923130E+02  0.58515269220E+02  0.10000000000E+01 0.  0.
    9000005    1    3    3    0    0 -0.25281971925E+02 -0.51511812452E+02  0.70629772295E+02  0.91006646246E+02  0.10000000000E+01 0.  0.
<mgrwt>
<rscale>  0 0.12499926E+03</rscale>
<asrwt>0</asrwt>
<pdfrwt beam="2">  1        4 0.51902478E-02 0.12499926E+03</pdfrwt>
<pdfrwt beam="1">  1       -4 0.17813124E-01 0.12499926E+03</pdfrwt>
<totfact> 0.99400740E+03</totfact>
</mgrwt>
</event>
<event>
 5    1  0.3184438E-002  0.1250171E+03  0.7818608E-02  0.1235043E+00
          4   -1    0    0  501    0  0.00000000000E+00  0.00000000000E+00  0.40272053179E+03  0.40272253429E+03  0.12700000000E+01 0. -1.
         -4   -1    0    0    0  501 -0.00000000000E+00 -0.00000000000E+00 -0.96587142469E+01  0.97418509998E+01  0.12700000000E+01 0. -1.
         25    2    1    2    0    0  0.00000000000E+00  0.00000000000E+00  0.39306181755E+03  0.41246438529E+03  0.12501710572E+03 0.  0.
    9000005    1    3    3    0    0 -0.58197099690E+02  0.50588991140E+00  0.12135685343E+03  0.13459436917E+03  0.10000000000E+01 0.  0.
    9000005    1    3    3    0    0  0.58197099690E+02 -0.50588991140E+00  0.27170496412E+03  0.27787001613E+03  0.10000000000E+01 0.  0.
<mgrwt>
<rscale>  0 0.12501711E+03</rscale>
<asrwt>0</asrwt>
<pdfrwt beam="1">  1        4 0.61963565E-01 0.12501711E+03</pdfrwt>
<pdfrwt beam="2">  1       -4 0.14925050E-02 0.12501711E+03</pdfrwt>
<totfact> 0.63334391E+03</totfact>
</mgrwt>
</event>
<event>
 5    1  0.3184438E-002  0.1249998E+03  0.7818608E-02  0.1235070E+00
         -4   -1    0    0    0  501 -0.00000000000E+00  0.00000000000E+00  0.94430366060E+01  0.95280554334E+01  0.12700000000E+01 0.  1.
          4   -1    0    0  501    0  0.00000000000E+00 -0.00000000000E+00 -0.41172346918E+03  0.41172542790E+03  0.12700000000E+01 0.  1.
         25    2    1    2    0    0  0.00000000000E+00  0.00000000000E+00 -0.40228043258E+03  0.42125348333E+03  0.12499980313E+03 0.  0.
    9000005    1    3    3    0    0 -0.10249726920E+02 -0.35900395293E+02 -0.32256747117E+02  0.49349701303E+02  0.10000000000E+01 0.  0.
    9000005    1    3    3    0    0  0.10249726920E+02  0.35900395293E+02 -0.37002368546E+03  0.37190378203E+03  0.10000000000E+01 0.  0.
<mgrwt>
<rscale>  0 0.12499980E+03</rscale>
<asrwt>0</asrwt>
<pdfrwt beam="2">  1        4 0.63348749E-01 0.12499980E+03</pdfrwt>
<pdfrwt beam="1">  1       -4 0.14594658E-02 0.12499980E+03</pdfrwt>
<totfact> 0.62537169E+03</totfact>
</mgrwt>
</event>
<event>
 5    1  0.3184438E-002  0.1249995E+03  0.7818608E-02  0.1235070E+00
         -4   -1    0    0    0  501 -0.00000000000E+00  0.00000000000E+00  0.21545716645E+02  0.21583113903E+02  0.12700000000E+01 0. -1.
          4   -1    0    0  501    0  0.00000000000E+00 -0.00000000000E+00 -0.18110227503E+03  0.18110672799E+03  0.12700000000E+01 0. -1.
         25    2    1    2    0    0  0.00000000000E+00  0.00000000000E+00 -0.15955655839E+03  0.20268984189E+03  0.12499950672E+03 0.  0.
    9000005    1    3    3    0    0  0.46441953610E+02 -0.99635278772E+01 -0.13929738147E+02  0.49509236994E+02  0.10000000000E+01 0.  0.
    9000005    1    3    3    0    0 -0.46441953610E+02  0.99635278772E+01 -0.14562682024E+03  0.15318060489E+03  0.10000000000E+01 0.  0.
<mgrwt>
<rscale>  0 0.12499951E+03</rscale>
<asrwt>0</asrwt>
<pdfrwt beam="2">  1        4 0.27865107E-01 0.12499951E+03</pdfrwt>
<pdfrwt beam="1">  1       -4 0.33179450E-02 0.12499951E+03</pdfrwt>
<totfact> 0.89684808E+03</totfact>
</mgrwt>
</event>
<event>
 5    1  0.3184438E-002  0.1250017E+03  0.7818608E-02  0.1235067E+00
          4   -1    0    0  501    0  0.00000000000E+00  0.00000000000E+00  0.30293455918E+01  0.32847883820E+01  0.12700000000E+01 0. -1.
         -4   -1    0    0    0  501 -0.00000000000E+00 -0.00000000000E+00 -0.12370812264E+04  0.12370818783E+04  0.12700000000E+01 0. -1.
         25    2    1    2    0    0  0.00000000000E+00  0.00000000000E+00 -0.12340518808E+04  0.12403666667E+04  0.12500169312E+03 0.  0.
    9000005    1    3    3    0    0  0.58870699178E+02 -0.17605176692E+02 -0.73001274895E+03  0.73259491883E+03  0.10000000000E+01 0.  0.
    9000005    1    3    3    0    0 -0.58870699178E+02  0.17605176692E+02 -0.50403913185E+03  0.50777174784E+03  0.10000000000E+01 0.  0.
<mgrwt>
<rscale>  0 0.12500169E+03</rscale>
<asrwt>0</asrwt>
<pdfrwt beam="1">  1        4 0.48575375E-03 0.12500169E+03</pdfrwt>
<pdfrwt beam="2">  1       -4 0.19033950E+00 0.12500169E+03</pdfrwt>
<totfact> 0.23679111E+03</totfact>
</mgrwt>
</event>
<event>
 5    1  0.3184438E-002  0.1250000E+03  0.7818608E-02  0.1235069E+00
         -4   -1    0    0    0  501 -0.00000000000E+00  0.00000000000E+00  0.38178266933E+02  0.38199384367E+02  0.12700000000E+01 0. -1.
          4   -1    0    0  501    0  0.00000000000E+00 -0.00000000000E+00 -0.10226266100E+03  0.10227054676E+03  0.12700000000E+01 0. -1.
         25    2    1    2    0    0  0.00000000000E+00  0.00000000000E+00 -0.64084394064E+02  0.14046993112E+03  0.12499996795E+03 0.  0.
    9000005    1    3    3    0    0  0.42387032797E+02  0.42103837538E+02 -0.52636587004E+02  0.79630421173E+02  0.10000000000E+01 0.  0.
    9000005    1    3    3    0    0 -0.42387032797E+02 -0.42103837538E+02 -0.11447807061E+02  0.60839509952E+02  0.10000000000E+01 0.  0.
<mgrwt>
<rscale>  0 0.12499997E+03</rscale>
<asrwt>0</asrwt>
<pdfrwt beam="2">  1        4 0.15734948E-01 0.12499997E+03</pdfrwt>
<pdfrwt beam="1">  1       -4 0.58758106E-02 0.12499997E+03</pdfrwt>
<totfact> 0.10123863E+04</totfact>
</mgrwt>
</event>
<event>
 5    1  0.3184438E-002  0.1250002E+03  0.7818608E-02  0.1235069E+00
          4   -1    0    0  501    0  0.00000000000E+00  0.00000000000E+00  0.14750271041E+02  0.14804843659E+02  0.12700000000E+01 0.  1.
         -4   -1    0    0    0  501 -0.00000000000E+00 -0.00000000000E+00 -0.26428129238E+03  0.26428434385E+03  0.12700000000E+01 0.  1.
         25    2    1    2    0    0  0.00000000000E+00  0.00000000000E+00 -0.24953102134E+03  0.27908918751E+03  0.12500017589E+03 0.  0.
    9000005    1    3    3    0    0 -0.53003139812E+02 -0.20021329475E+02 -0.65901740567E+02  0.86915049754E+02  0.10000000000E+01 0.  0.
    9000005    1    3    3    0    0  0.53003139812E+02  0.20021329475E+02 -0.18362928077E+03  0.19217413775E+03  0.10000000000E+01 0.  0.
<mgrwt>
<rscale>  0 0.12500018E+03</rscale>
<asrwt>0</asrwt>
<pdfrwt beam="1">  1        4 0.22737053E-02 0.12500018E+03</pdfrwt>
<pdfrwt beam="2">  1       -4 0.40663090E-01 0.12500018E+03</pdfrwt>
<totfact> 0.78298723E+03</totfact>
</mgrwt>
</event>
<event>
 5    1  0.3184438E-002  0.1250004E+03  0.7818608E-02  0.1235069E+00
         -4   -1    0    0    0  501 -0.00000000000E+00  0.00000000000E+00  0.68602615211E+02  0.68614369587E+02  0.12700000000E+01 0.  1.
          4   -1    0    0  501    0  0.00000000000E+00 -0.00000000000E+00 -0.56916919488E+02  0.56931086622E+02  0.12700000000E+01 0.  1.
         25    2    1    2    0    0  0.00000000000E+00  0.00000000000E+00  0.11685695723E+02  0.12554545621E+03  0.12500042436E+03 0.  0.
    9000005    1    3    3    0    0  0.80706298416E+01  0.54702674615E+02 -0.23400404828E+02  0.60050783693E+02  0.10000000000E+01 0.  0.
    9000005    1    3    3    0    0 -0.80706298416E+01 -0.54702674615E+02  0.35086100551E+02  0.65494672516E+02  0.10000000000E+01 0.  0.
<mgrwt>
<rscale>  0 0.12500042E+03</rscale>
<asrwt>0</asrwt>
<pdfrwt beam="2">  1        4 0.87584432E-02 0.12500042E+03</pdfrwt>
<pdfrwt beam="1">  1       -4 0.10556242E-01 0.12500042E+03</pdfrwt>
<totfact> 0.10440850E+04</totfact>
</mgrwt>
</event>
<event>
 5    1  0.3184438E-002  0.1250013E+03  0.7818608E-02  0.1235067E+00
         -4   -1    0    0    0  501 -0.00000000000E+00  0.00000000000E+00  0.29585675371E+02  0.29612920950E+02  0.12700000000E+01 0.  1.
          4   -1    0    0  501    0  0.00000000000E+00 -0.00000000000E+00 -0.13194355783E+03  0.13194966977E+03  0.12700000000E+01 0.  1.
         25    2    1    2    0    0  0.00000000000E+00  0.00000000000E+00 -0.10235788246E+03  0.16156259072E+03  0.12500133847E+03 0.  0.
    9000005    1    3    3    0    0 -0.19623568104E+02  0.13418657643E+02 -0.12587740266E+03  0.12810646080E+03  0.10000000000E+01 0.  0.
    9000005    1    3    3    0    0  0.19623568104E+02 -0.13418657643E+02  0.23519520208E+02  0.33456129915E+02  0.10000000000E+01 0.  0.
<mgrwt>
<rscale>  0 0.12500134E+03</rscale>
<asrwt>0</asrwt>
<pdfrwt beam="2">  1        4 0.20301575E-01 0.12500134E+03</pdfrwt>
<pdfrwt beam="1">  1       -4 0.45542084E-02 0.12500134E+03</pdfrwt>
<totfact> 0.97039454E+03</totfact>
</mgrwt>
</event>
<event>
 5    1  0.3184438E-002  0.1249979E+03  0.7818608E-02  0.1235073E+00
         -4   -1    0    0    0  501 -0.00000000000E+00  0.00000000000E+00  0.13575520819E+03  0.13576114854E+03  0.12700000000E+01 0. -1.
          4   -1    0    0  501    0  0.00000000000E+00 -0.00000000000E+00 -0.28752678943E+02  0.28780713097E+02  0.12700000000E+01 0. -1.
         25    2    1    2    0    0  0.00000000000E+00  0.00000000000E+00  0.10700252925E+03  0.16454186163E+03  0.12499793184E+03 0.  0.
    9000005    1    3    3    0    0 -0.28246519636E+02  0.55558926393E+02  0.59455587975E+02  0.86143061908E+02  0.10000000000E+01 0.  0.
    9000005    1    3    3    0    0  0.28246519636E+02 -0.55558926393E+02  0.47546941277E+02  0.78398799725E+02  0.10000000000E+01 0.  0.
<mgrwt>
<rscale>  0 0.12499793E+03</rscale>
<asrwt>0</asrwt>
<pdfrwt beam="2">  1        4 0.44261024E-02 0.12499793E+03</pdfrwt>
<pdfrwt beam="1">  1       -4 0.20888030E-01 0.12499793E+03</pdfrwt>
<totfact> 0.96478709E+03</totfact>
</mgrwt>
</event>
<event>
 5    1  0.3184438E-002  0.1250002E+03  0.7818608E-02  0.1235069E+00
         -4   -1    0    0    0  501 -0.00000000000E+00  0.00000000000E+00  0.70943923205E+02  0.70955289723E+02  0.12700000000E+01 0. -1.
          4   -1    0    0  501    0  0.00000000000E+00 -0.00000000000E+00 -0.55038160839E+02  0.55052811450E+02  0.12700000000E+01 0. -1.
         25    2    1    2    0    0  0.00000000000E+00  0.00000000000E+00  0.15905762366E+02  0.12600810117E+03  0.12500019314E+03 0.  0.
    9000005    1    3    3    0    0  0.26799971948E+02 -0.54694146139E+02 -0.61446573411E+01  0.61224545177E+02  0.10000000000E+01 0.  0.
    9000005    1    3    3    0    0 -0.26799971948E+02  0.54694146139E+02  0.22050419707E+02  0.64783555997E+02  0.10000000000E+01 0.  0.
<mgrwt>
<rscale>  0 0.12500019E+03</rscale>
<asrwt>0</asrwt>
<pdfrwt beam="2">  1        4 0.84694107E-02 0.12500019E+03</pdfrwt>
<pdfrwt beam="1">  1       -4 0.10916451E-01 0.12500019E+03</pdfrwt>
<totfact> 0.10430734E+04</totfact>
</mgrwt>
</event>
<event>
 5    1  0.3184438E-002  0.1250041E+03  0.7818608E-02  0.1235063E+00
          4   -1    0    0  501    0  0.00000000000E+00  0.00000000000E+00  0.61559592717E+03  0.61559723720E+03  0.12700000000E+01 0. -1.
         -4   -1    0    0    0  501 -0.00000000000E+00 -0.00000000000E+00 -0.62810270814E+01  0.64081355477E+01  0.12700000000E+01 0. -1.
         25    2    1    2    0    0  0.00000000000E+00  0.00000000000E+00  0.60931490009E+03  0.62200537275E+03  0.12500414496E+03 0.  0.
    9000005    1    3    3    0    0  0.38489679831E+02 -0.31499696518E+02  0.11637304583E+03  0.12655975715E+03  0.10000000000E+01 0.  0.
    9000005    1    3    3    0    0 -0.38489679831E+02  0.31499696518E+02  0.49294185427E+03  0.49544561560E+03  0.10000000000E+01 0.  0.
<mgrwt>
<rscale>  0 0.12500414E+03</rscale>
<asrwt>0</asrwt>
<pdfrwt beam="1">  1        4 0.94716903E-01 0.12500414E+03</pdfrwt>
<pdfrwt beam="2">  1       -4 0.97619063E-03 0.12500414E+03</pdfrwt>
<totfact> 0.47503091E+03</totfact>
</mgrwt>
</event>
<event>
 5    1  0.3184438E-002  0.1250000E+03  0.7818608E-02  0.1235069E+00
         -4   -1    0    0    0  501 -0.00000000000E+00  0.00000000000E+00  0.69245799995E+02  0.69257445209E+02  0.12700000000E+01 0.  1.
          4   -1    0    0  501    0  0.00000000000E+00 -0.00000000000E+00 -0.56387816710E+02  0.56402116745E+02  0.12700000000E+01 0.  1.
         25    2    1    2    0    0  0.00000000000E+00  0.00000000000E+00  0.12857983285E+02  0.12565956195E+03  0.12499999111E+03 0.  0.
    9000005    1    3    3    0    0  0.60561647528E+02  0.91856178144E+00  0.21894985797E+02  0.64412322657E+02  0.10000000000E+01 0.  0.
    9000005    1    3    3    0    0 -0.60561647528E+02 -0.91856178144E+00 -0.90370025114E+01  0.61247239297E+02  0.10000000000E+01 0.  0.
<mgrwt>
<rscale>  0 0.12499999E+03</rscale>
<asrwt>0</asrwt>
<pdfrwt beam="2">  1        4 0.86770445E-02 0.12499999E+03</pdfrwt>
<pdfrwt beam="1">  1       -4 0.10655196E-01 0.12499999E+03</pdfrwt>
<totfact> 0.10438437E+04</totfact>
</mgrwt>
</event>
<event>
 5    1  0.3184438E-002  0.1249995E+03  0.7818608E-02  0.1235070E+00
          4   -1    0    0  501    0  0.00000000000E+00  0.00000000000E+00  0.39481085705E+03  0.39481289967E+03  0.12700000000E+01 0.  1.
         -4   -1    0    0    0  501 -0.00000000000E+00 -0.00000000000E+00 -0.98510714629E+01  0.99325982989E+01  0.12700000000E+01 0.  1.
         25    2    1    2    0    0  0.00000000000E+00  0.00000000000E+00  0.38495978559E+03  0.40474549797E+03  0.12499952642E+03 0.  0.
    9000005    1    3    3    0    0  0.58414296267E+02 -0.57865344908E+01  0.26188947765E+03  0.26838929281E+03  0.10000000000E+01 0.  0.
    9000005    1    3    3    0    0 -0.58414296267E+02  0.57865344908E+01  0.12307030793E+03  0.13635620516E+03  0.10000000000E+01 0.  0.
<mgrwt>
<rscale>  0 0.12499953E+03</rscale>
<asrwt>0</asrwt>
<pdfrwt beam="1">  1        4 0.60746567E-01 0.12499953E+03</pdfrwt>
<pdfrwt beam="2">  1       -4 0.15219777E-02 0.12499953E+03</pdfrwt>
<totfact> 0.64094514E+03</totfact>
</mgrwt>
</event>
<event>
 5    1  0.3184438E-002  0.1249839E+03  0.7818608E-02  0.1235094E+00
         -4   -1    0    0    0  501 -0.00000000000E+00  0.00000000000E+00  0.19594091278E+02  0.19635205958E+02  0.12700000000E+01 0.  1.
          4   -1    0    0  501    0  0.00000000000E+00 -0.00000000000E+00 -0.19905525699E+03  0.19905930834E+03  0.12700000000E+01 0.  1.
         25    2    1    2    0    0  0.00000000000E+00  0.00000000000E+00 -0.17946116571E+03  0.21869451430E+03  0.12498392130E+03 0.  0.
    9000005    1    3    3    0    0  0.58023858214E+02  0.23182364320E+02 -0.89320191385E+02  0.10901048907E+03  0.10000000000E+01 0.  0.
    9000005    1    3    3    0    0 -0.58023858214E+02 -0.23182364320E+02 -0.90140974329E+02  0.10968402523E+03  0.10000000000E+01 0.  0.
<mgrwt>
<rscale>  0 0.12498392E+03</rscale>
<asrwt>0</asrwt>
<pdfrwt beam="2">  1        4 0.30627359E-01 0.12498392E+03</pdfrwt>
<pdfrwt beam="1">  1       -4 0.30179500E-02 0.12498392E+03</pdfrwt>
<totfact> 0.87106632E+03</totfact>
</mgrwt>
</event>
<event>
 5    1  0.3184438E-002  0.1249991E+03  0.7818608E-02  0.1235071E+00
          4   -1    0    0  501    0  0.00000000000E+00  0.00000000000E+00  0.59754138158E+02  0.59767632771E+02  0.12700000000E+01 0. -1.
         -4   -1    0    0    0  501 -0.00000000000E+00 -0.00000000000E+00 -0.65344071753E+02  0.65356412181E+02  0.12700000000E+01 0. -1.
         25    2    1    2    0    0  0.00000000000E+00  0.00000000000E+00 -0.55899335945E+01  0.12512404495E+03  0.12499911707E+03 0.  0.
    9000005    1    3    3    0    0  0.60894914369E+02  0.13698912180E+02  0.26488822487E+00  0.62425323040E+02  0.10000000000E+01 0.  0.
    9000005    1    3    3    0    0 -0.60894914369E+02 -0.13698912180E+02 -0.58548218193E+01  0.62698721912E+02  0.10000000000E+01 0.  0.
<mgrwt>
<rscale>  0 0.12499912E+03</rscale>
<asrwt>0</asrwt>
<pdfrwt beam="1">  1        4 0.91949317E-02 0.12499912E+03</pdfrwt>
<pdfrwt beam="2">  1       -4 0.10054921E-01 0.12499912E+03</pdfrwt>
<totfact> 0.10450378E+04</totfact>
</mgrwt>
</event>
<event>
 5    1  0.3184438E-002  0.1249725E+03  0.7818608E-02  0.1235112E+00
         -4   -1    0    0    0  501 -0.00000000000E+00  0.00000000000E+00  0.40531183170E+02  0.40551075314E+02  0.12700000000E+01 0.  1.
          4   -1    0    0  501    0  0.00000000000E+00 -0.00000000000E+00 -0.96286251130E+02  0.96294626313E+02  0.12700000000E+01 0.  1.
         25    2    1    2    0    0  0.00000000000E+00  0.00000000000E+00 -0.55755067961E+02  0.13684570163E+03  0.12497247077E+03 0.  0.
    9000005    1    3    3    0    0 -0.23791465723E+02  0.57770863948E+02 -0.27711287247E+02  0.68355116878E+02  0.10000000000E+01 0.  0.
    9000005    1    3    3    0    0  0.23791465723E+02 -0.57770863948E+02 -0.28043780714E+02  0.68490584749E+02  0.10000000000E+01 0.  0.
<mgrwt>
<rscale>  0 0.12497247E+03</rscale>
<asrwt>0</asrwt>
<pdfrwt beam="2">  1        4 0.14815444E-01 0.12497247E+03</pdfrwt>
<pdfrwt beam="1">  1       -4 0.62377411E-02 0.12497247E+03</pdfrwt>
<totfact> 0.10205646E+04</totfact>
</mgrwt>
</event>
<event>
 5    1  0.3184438E-002  0.1250130E+03  0.7818608E-02  0.1235049E+00
         -4   -1    0    0    0  501 -0.00000000000E+00  0.00000000000E+00  0.48407453384E+02  0.48424110143E+02  0.12700000000E+01 0.  1.
          4   -1    0    0  501    0  0.00000000000E+00 -0.00000000000E+00 -0.80676463926E+02  0.80686459406E+02  0.12700000000E+01 0.  1.
         25    2    1    2    0    0  0.00000000000E+00  0.00000000000E+00 -0.32269010542E+02  0.12911056955E+03  0.12501299984E+03 0.  0.
    9000005    1    3    3    0    0  0.24814638810E+02  0.55527250961E+02 -0.30994321439E+02  0.68269245345E+02  0.10000000000E+01 0.  0.
    9000005    1    3    3    0    0 -0.24814638810E+02 -0.55527250961E+02 -0.12746891021E+01  0.60841324204E+02  0.10000000000E+01 0.  0.
<mgrwt>
<rscale>  0 0.12501300E+03</rscale>
<asrwt>0</asrwt>
<pdfrwt beam="2">  1        4 0.12413814E-01 0.12501300E+03</pdfrwt>
<pdfrwt beam="1">  1       -4 0.74493507E-02 0.12501300E+03</pdfrwt>
<totfact> 0.10360531E+04</totfact>
</mgrwt>
</event>
<event>
 5    1  0.3184438E-002  0.1249959E+03  0.7818608E-02  0.1235076E+00
          4   -1    0    0  501    0  0.00000000000E+00  0.00000000000E+00  0.20058323564E+04  0.20058327585E+04  0.12700000000E+01 0. -1.
         -4   -1    0    0    0  501 -0.00000000000E+00 -0.00000000000E+00 -0.17398046284E+01  0.21540241747E+01  0.12700000000E+01 0. -1.
         25    2    1    2    0    0  0.00000000000E+00  0.00000000000E+00  0.20040925518E+04  0.20079867826E+04  0.12499585249E+03 0.  0.
    9000005    1    3    3    0    0  0.33445271888E+01 -0.31652068596E+02  0.18659408529E+04  0.18662125565E+04  0.10000000000E+01 0.  0.
    9000005    1    3    3    0    0 -0.33445271888E+01  0.31652068596E+02  0.13815169885E+03  0.14177422616E+03  0.10000000000E+01 0.  0.
<mgrwt>
<rscale>  0 0.12499585E+03</rscale>
<asrwt>0</asrwt>
<pdfrwt beam="1">  1        4 0.30862178E+00 0.12499585E+03</pdfrwt>
<pdfrwt beam="2">  1       -4 0.29955593E-03 0.12499585E+03</pdfrwt>
<totfact> 0.97581714E+02</totfact>
</mgrwt>
</event>
<event>
 4    1  0.3184438E-002  0.1251092E+03  0.7818608E-02  0.1234899E+00
         -4   -1    0    0    0  501 -0.00000000000E+00  0.00000000000E+00  0.12842047948E+03  0.12842675909E+03  0.12700000000E+01 0.  1.
          4   -1    0    0  501    0  0.00000000000E+00 -0.00000000000E+00 -0.30450574836E+02  0.30477047229E+02  0.12700000000E+01 0.  1.
    9000005    1    1    2    0    0  0.54310024509E+02  0.21099952151E+02  0.77872662437E+02  0.97262214132E+02  0.10000000000E+01 0.  0.
    9000005    1    1    2    0    0 -0.54310024509E+02 -0.21099952151E+02  0.20097242210E+02  0.61641592187E+02  0.10000000000E+01 0.  0.
<mgrwt>
<rscale>  0 0.12510922E+03</rscale>
<asrwt>0</asrwt>
<pdfrwt beam="2">  1        4 0.46872231E-02 0.12510922E+03</pdfrwt>
<pdfrwt beam="1">  1       -4 0.19759516E-01 0.12510922E+03</pdfrwt>
<totfact> 0.97315397E+03</totfact>
</mgrwt>
</event>
<event>
 5    1  0.3184438E-002  0.1249943E+03  0.7818608E-02  0.1235078E+00
          4   -1    0    0  501    0  0.00000000000E+00  0.00000000000E+00  0.19488969385E+02  0.19530305366E+02  0.12700000000E+01 0.  1.
         -4   -1    0    0    0  501 -0.00000000000E+00 -0.00000000000E+00 -0.20015984537E+03  0.20016387436E+03  0.12700000000E+01 0.  1.
         25    2    1    2    0    0  0.00000000000E+00  0.00000000000E+00 -0.18067087598E+03  0.21969417972E+03  0.12499426857E+03 0.  0.
    9000005    1    3    3    0    0 -0.39348282343E+02 -0.30078792905E+02 -0.15730730722E+03  0.16492304270E+03  0.10000000000E+01 0.  0.
    9000005    1    3    3    0    0  0.39348282343E+02  0.30078792905E+02 -0.23363568758E+02  0.54771137026E+02  0.10000000000E+01 0.  0.
<mgrwt>
<rscale>  0 0.12499427E+03</rscale>
<asrwt>0</asrwt>
<pdfrwt beam="1">  1        4 0.30017927E-02 0.12499427E+03</pdfrwt>
<pdfrwt beam="2">  1       -4 0.30797311E-01 0.12499427E+03</pdfrwt>
<totfact> 0.86927894E+03</totfact>
</mgrwt>
</event>
<event>
 5    1  0.3184438E-002  0.1250003E+03  0.7818608E-02  0.1235069E+00
         -4   -1    0    0    0  501 -0.00000000000E+00  0.00000000000E+00  0.76023605370E+02  0.76034212520E+02  0.12700000000E+01 0.  1.
          4   -1    0    0  501    0  0.00000000000E+00 -0.00000000000E+00 -0.51360253370E+02  0.51375952801E+02  0.12700000000E+01 0.  1.
         25    2    1    2    0    0  0.00000000000E+00  0.00000000000E+00  0.24663352001E+02  0.12741016532E+03  0.12500027718E+03 0.  0.
    9000005    1    3    3    0    0  0.53331765486E+02 -0.96323188429E+01 -0.19384261942E+02  0.57565687585E+02  0.10000000000E+01 0.  0.
    9000005    1    3    3    0    0 -0.53331765486E+02  0.96323188429E+01  0.44047613943E+02  0.69844477736E+02  0.10000000000E+01 0.  0.
<mgrwt>
<rscale>  0 0.12500028E+03</rscale>
<asrwt>0</asrwt>
<pdfrwt beam="2">  1        4 0.79036010E-02 0.12500028E+03</pdfrwt>
<pdfrwt beam="1">  1       -4 0.11697963E-01 0.12500028E+03</pdfrwt>
<totfact> 0.10400181E+04</totfact>
</mgrwt>
</event>
<event>
 5    1  0.3184438E-002  0.1250016E+03  0.7818608E-02  0.1235067E+00
          4   -1    0    0  501    0  0.00000000000E+00  0.00000000000E+00  0.11424665207E+02  0.11495036976E+02  0.12700000000E+01 0. -1.
         -4   -1    0    0    0  501 -0.00000000000E+00 -0.00000000000E+00 -0.34080124058E+03  0.34080360691E+03  0.12700000000E+01 0. -1.
         25    2    1    2    0    0  0.00000000000E+00  0.00000000000E+00 -0.32937657538E+03  0.35229864389E+03  0.12500162430E+03 0.  0.
    9000005    1    3    3    0    0  0.55428110090E+02 -0.27721169754E+02 -0.14203376792E+03  0.15496880290E+03  0.10000000000E+01 0.  0.
    9000005    1    3    3    0    0 -0.55428110090E+02  0.27721169754E+02 -0.18734280745E+03  0.19732984099E+03  0.10000000000E+01 0.  0.
<mgrwt>
<rscale>  0 0.12500162E+03</rscale>
<asrwt>0</asrwt>
<pdfrwt beam="1">  1        4 0.17632363E-02 0.12500162E+03</pdfrwt>
<pdfrwt beam="2">  1       -4 0.52436548E-01 0.12500162E+03</pdfrwt>
<totfact> 0.69469922E+03</totfact>
</mgrwt>
</event>
<event>
 5    1  0.3184438E-002  0.1249977E+03  0.7818608E-02  0.1235073E+00
         -4   -1    0    0    0  501 -0.00000000000E+00  0.00000000000E+00  0.10121192237E+03  0.10121988999E+03  0.12700000000E+01 0. -1.
          4   -1    0    0  501    0  0.00000000000E+00 -0.00000000000E+00 -0.38573396495E+02  0.38594297728E+02  0.12700000000E+01 0. -1.
         25    2    1    2    0    0  0.00000000000E+00  0.00000000000E+00  0.62638525875E+02  0.13981418772E+03  0.12499768863E+03 0.  0.
    9000005    1    3    3    0    0 -0.52216105779E+02 -0.23654109182E+02  0.34889510439E+01  0.57438761853E+02  0.10000000000E+01 0.  0.
    9000005    1    3    3    0    0  0.52216105779E+02  0.23654109182E+02  0.59149574831E+02  0.82375425866E+02  0.10000000000E+01 0.  0.
<mgrwt>
<rscale>  0 0.12499769E+03</rscale>
<asrwt>0</asrwt>
<pdfrwt beam="2">  1        4 0.59365895E-02 0.12499769E+03</pdfrwt>
<pdfrwt beam="1">  1       -4 0.15573285E-01 0.12499769E+03</pdfrwt>
<totfact> 0.10137966E+04</totfact>
</mgrwt>
</event>
<event>
 5    1  0.3184438E-002  0.1250022E+03  0.7818608E-02  0.1235066E+00
          4   -1    0    0  501    0  0.00000000000E+00  0.00000000000E+00  0.27506977675E+02  0.27536280083E+02  0.12700000000E+01 0. -1.
         -4   -1    0    0    0  501 -0.00000000000E+00 -0.00000000000E+00 -0.14190659386E+03  0.14191227671E+03  0.12700000000E+01 0. -1.
         25    2    1    2    0    0  0.00000000000E+00  0.00000000000E+00 -0.11439961619E+03  0.16944855679E+03  0.12500216484E+03 0.  0.
    9000005    1    3    3    0    0 -0.37204448951E+02  0.48756422864E+02 -0.40931587475E+02  0.73741132656E+02  0.10000000000E+01 0.  0.
    9000005    1    3    3    0    0  0.37204448951E+02 -0.48756422864E+02 -0.73468028713E+02  0.95707424138E+02  0.10000000000E+01 0.  0.
<mgrwt>
<rscale>  0 0.12500216E+03</rscale>
<asrwt>0</asrwt>
<pdfrwt beam="1">  1        4 0.42345340E-02 0.12500216E+03</pdfrwt>
<pdfrwt beam="2">  1       -4 0.21834474E-01 0.12500216E+03</pdfrwt>
<totfact> 0.95546832E+03</totfact>
</mgrwt>
</event>
<event>
 5    1  0.3184438E-002  0.1250076E+03  0.7818608E-02  0.1235057E+00
          4   -1    0    0  501    0  0.00000000000E+00  0.00000000000E+00  0.71310057954E+02  0.71321366121E+02  0.12700000000E+01 0.  1.
         -4   -1    0    0    0  501 -0.00000000000E+00 -0.00000000000E+00 -0.54762042835E+02  0.54776767297E+02  0.12700000000E+01 0.  1.
         25    2    1    2    0    0  0.00000000000E+00  0.00000000000E+00  0.16548015119E+02  0.12609813342E+03  0.12500760956E+03 0.  0.
    9000005    1    3    3    0    0  0.28010159346E+02 -0.51437773519E+02  0.30265850003E+02  0.65935083586E+02  0.10000000000E+01 0.  0.
    9000005    1    3    3    0    0 -0.28010159346E+02  0.51437773519E+02 -0.13717834884E+02  0.60163049832E+02  0.10000000000E+01 0.  0.
<mgrwt>
<rscale>  0 0.12500761E+03</rscale>
<asrwt>0</asrwt>
<pdfrwt beam="1">  1        4 0.10972781E-01 0.12500761E+03</pdfrwt>
<pdfrwt beam="2">  1       -4 0.84269321E-02 0.12500761E+03</pdfrwt>
<totfact> 0.10427017E+04</totfact>
</mgrwt>
</event>
<event>
 5    1  0.3184438E-002  0.1250011E+03  0.7818608E-02  0.1235067E+00
         -4   -1    0    0    0  501 -0.00000000000E+00  0.00000000000E+00  0.54185675063E+02  0.54200556105E+02  0.12700000000E+01 0.  1.
          4   -1    0    0  501    0  0.00000000000E+00 -0.00000000000E+00 -0.72061036401E+02  0.72072226740E+02  0.12700000000E+01 0.  1.
         25    2    1    2    0    0  0.00000000000E+00  0.00000000000E+00 -0.17875361338E+02  0.12627278284E+03  0.12500114857E+03 0.  0.
    9000005    1    3    3    0    0 -0.22979495120E+02  0.53014735851E+02  0.15110003734E+02  0.59732165758E+02  0.10000000000E+01 0.  0.
    9000005    1    3    3    0    0  0.22979495120E+02 -0.53014735851E+02 -0.32985365072E+02  0.66540617086E+02  0.10000000000E+01 0.  0.
<mgrwt>
<rscale>  0 0.12500115E+03</rscale>
<asrwt>0</asrwt>
<pdfrwt beam="2">  1        4 0.11088319E-01 0.12500115E+03</pdfrwt>
<pdfrwt beam="1">  1       -4 0.83382632E-02 0.12500115E+03</pdfrwt>
<totfact> 0.10424718E+04</totfact>
</mgrwt>
</event>
<event>
 5    1  0.3184438E-002  0.1250013E+03  0.7818608E-02  0.1235067E+00
          4   -1    0    0  501    0  0.00000000000E+00  0.00000000000E+00  0.12633809995E+03  0.12634448306E+03  0.12700000000E+01 0. -1.
         -4   -1    0    0    0  501 -0.00000000000E+00 -0.00000000000E+00 -0.30899477190E+02  0.30925565324E+02  0.12700000000E+01 0. -1.
         25    2    1    2    0    0  0.00000000000E+00  0.00000000000E+00  0.95438622761E+02  0.15727004838E+03  0.12500134961E+03 0.  0.
    9000005    1    3    3    0    0 -0.37741336281E+02  0.40376205185E+02  0.11023503217E+02  0.56366337761E+02  0.10000000000E+01 0.  0.
    9000005    1    3    3    0    0  0.37741336281E+02 -0.40376205185E+02  0.84415119544E+02  0.10090371062E+03  0.10000000000E+01 0.  0.
<mgrwt>
<rscale>  0 0.12500135E+03</rscale>
<asrwt>0</asrwt>
<pdfrwt beam="1">  1        4 0.19439129E-01 0.12500135E+03</pdfrwt>
<pdfrwt beam="2">  1       -4 0.47562633E-02 0.12500135E+03</pdfrwt>
<totfact> 0.97868724E+03</totfact>
</mgrwt>
</event>
<event>
 5    1  0.3184438E-002  0.1250001E+03  0.7818608E-02  0.1235069E+00
         -4   -1    0    0    0  501 -0.00000000000E+00  0.00000000000E+00  0.17843280249E+03  0.17843732206E+03  0.12700000000E+01 0. -1.
          4   -1    0    0  501    0  0.00000000000E+00 -0.00000000000E+00 -0.21868822812E+02  0.21905668472E+02  0.12700000000E+01 0. -1.
         25    2    1    2    0    0  0.00000000000E+00  0.00000000000E+00  0.15656397968E+03  0.20034299053E+03  0.12500013649E+03 0.  0.
    9000005    1    3    3    0    0 -0.21098498444E+02 -0.53509107199E+02  0.11743902933E+03  0.13077192665E+03  0.10000000000E+01 0.  0.
    9000005    1    3    3    0    0  0.21098498444E+02  0.53509107199E+02  0.39124950345E+02  0.69571063880E+02  0.10000000000E+01 0.  0.
<mgrwt>
<rscale>  0 0.12500014E+03</rscale>
<asrwt>0</asrwt>
<pdfrwt beam="2">  1        4 0.33676164E-02 0.12500014E+03</pdfrwt>
<pdfrwt beam="1">  1       -4 0.27454381E-01 0.12500014E+03</pdfrwt>
<totfact> 0.90077416E+03</totfact>
</mgrwt>
</event>
<event>
 5    1  0.3184438E-002  0.1250011E+03  0.7818608E-02  0.1235067E+00
          4   -1    0    0  501    0  0.00000000000E+00  0.00000000000E+00  0.40433769400E+02  0.40453709446E+02  0.12700000000E+01 0. -1.
         -4   -1    0    0    0  501 -0.00000000000E+00 -0.00000000000E+00 -0.96562441486E+02  0.96570792715E+02  0.12700000000E+01 0. -1.
         25    2    1    2    0    0  0.00000000000E+00  0.00000000000E+00 -0.56128672085E+02  0.13702450216E+03  0.12500114544E+03 0.  0.
    9000005    1    3    3    0    0 -0.25530457154E+02  0.50807028944E+02  0.35550159666E+00  0.56870772933E+02  0.10000000000E+01 0.  0.
    9000005    1    3    3    0    0  0.25530457154E+02 -0.50807028944E+02 -0.56484173682E+02  0.80153729228E+02  0.10000000000E+01 0.  0.
<mgrwt>
<rscale>  0 0.12500115E+03</rscale>
<asrwt>0</asrwt>
<pdfrwt beam="1">  1        4 0.62227562E-02 0.12500115E+03</pdfrwt>
<pdfrwt beam="2">  1       -4 0.14857936E-01 0.12500115E+03</pdfrwt>
<totfact> 0.10195310E+04</totfact>
</mgrwt>
</event>
<event>
 5    1  0.3184438E-002  0.1250018E+03  0.7818608E-02  0.1235066E+00
          4   -1    0    0  501    0  0.00000000000E+00  0.00000000000E+00  0.10875122733E+03  0.10875864262E+03  0.12700000000E+01 0. -1.
         -4   -1    0    0    0  501 -0.00000000000E+00 -0.00000000000E+00 -0.35900297959E+02  0.35922754537E+02  0.12700000000E+01 0. -1.
         25    2    1    2    0    0  0.00000000000E+00  0.00000000000E+00  0.72850929368E+02  0.14468139716E+03  0.12500179508E+03 0.  0.
    9000005    1    3    3    0    0 -0.37230448863E+02 -0.36609524910E+02 -0.33168429731E+01  0.52329390250E+02  0.10000000000E+01 0.  0.
    9000005    1    3    3    0    0  0.37230448863E+02  0.36609524910E+02  0.76167772341E+02  0.92352006908E+02  0.10000000000E+01 0.  0.
<mgrwt>
<rscale>  0 0.12500180E+03</rscale>
<asrwt>0</asrwt>
<pdfrwt beam="1">  1        4 0.16733255E-01 0.12500180E+03</pdfrwt>
<pdfrwt beam="2">  1       -4 0.55254208E-02 0.12500180E+03</pdfrwt>
<totfact> 0.10037060E+04</totfact>
</mgrwt>
</event>
<event>
 5    1  0.3184438E-002  0.1249992E+03  0.7818608E-02  0.1235071E+00
          4   -1    0    0  501    0  0.00000000000E+00  0.00000000000E+00  0.16673068402E+02  0.16721366868E+02  0.12700000000E+01 0. -1.
         -4   -1    0    0    0  501 -0.00000000000E+00 -0.00000000000E+00 -0.23389319083E+03  0.23389663875E+03  0.12700000000E+01 0. -1.
         25    2    1    2    0    0  0.00000000000E+00  0.00000000000E+00 -0.21722012243E+03  0.25061800561E+03  0.12499921260E+03 0.  0.
    9000005    1    3    3    0    0  0.23273838214E+02 -0.27663266835E+02 -0.64108897389E+01  0.36729108136E+02  0.10000000000E+01 0.  0.
    9000005    1    3    3    0    0 -0.23273838214E+02  0.27663266835E+02 -0.21080923269E+03  0.21388889748E+03  0.10000000000E+01 0.  0.
<mgrwt>
<rscale>  0 0.12499921E+03</rscale>
<asrwt>0</asrwt>
<pdfrwt beam="1">  1        4 0.25690681E-02 0.12499921E+03</pdfrwt>
<pdfrwt beam="2">  1       -4 0.35987546E-01 0.12499921E+03</pdfrwt>
<totfact> 0.82242432E+03</totfact>
</mgrwt>
</event>
<event>
 5    1  0.3184438E-002  0.1249997E+03  0.7818608E-02  0.1235070E+00
          4   -1    0    0  501    0  0.00000000000E+00  0.00000000000E+00  0.40604434418E+01  0.42544213407E+01  0.12700000000E+01 0. -1.
         -4   -1    0    0    0  501 -0.00000000000E+00 -0.00000000000E+00 -0.93938281441E+03  0.93938367290E+03  0.12700000000E+01 0. -1.
         25    2    1    2    0    0  0.00000000000E+00  0.00000000000E+00 -0.93532237097E+03  0.94363809424E+03  0.12499966107E+03 0.  0.
    9000005    1    3    3    0    0  0.57244322012E+02  0.23275893455E+02 -0.53789207244E+03  0.54143103089E+03  0.10000000000E+01 0.  0.
    9000005    1    3    3    0    0 -0.57244322012E+02 -0.23275893455E+02 -0.39743029853E+03  0.40220706335E+03  0.10000000000E+01 0.  0.
<mgrwt>
<rscale>  0 0.12499966E+03</rscale>
<asrwt>0</asrwt>
<pdfrwt beam="1">  1        4 0.63967177E-03 0.12499966E+03</pdfrwt>
<pdfrwt beam="2">  1       -4 0.14453525E+00 0.12499966E+03</pdfrwt>
<totfact> 0.32543206E+03</totfact>
</mgrwt>
</event>
<event>
 5    1  0.3184438E-002  0.1250068E+03  0.7818608E-02  0.1235059E+00
          4   -1    0    0  501    0  0.00000000000E+00  0.00000000000E+00  0.96600994380E+01  0.97432243714E+01  0.12700000000E+01 0.  1.
         -4   -1    0    0    0  501 -0.00000000000E+00 -0.00000000000E+00 -0.40259656821E+03  0.40259857132E+03  0.12700000000E+01 0.  1.
         25    2    1    2    0    0  0.00000000000E+00  0.00000000000E+00 -0.39293646877E+03  0.41234179569E+03  0.12500675177E+03 0.  0.
    9000005    1    3    3    0    0 -0.38931179949E+02 -0.48876758598E+02 -0.19992416097E+03  0.20946418415E+03  0.10000000000E+01 0.  0.
    9000005    1    3    3    0    0  0.38931179949E+02  0.48876758598E+02 -0.19301230780E+03  0.20287761155E+03  0.10000000000E+01 0.  0.
<mgrwt>
<rscale>  0 0.12500675E+03</rscale>
<asrwt>0</asrwt>
<pdfrwt beam="1">  1        4 0.14927178E-02 0.12500675E+03</pdfrwt>
<pdfrwt beam="2">  1       -4 0.61944469E-01 0.12500675E+03</pdfrwt>
<totfact> 0.63360450E+03</totfact>
</mgrwt>
</event>
<event>
 5    1  0.3184438E-002  0.1250024E+03  0.7818608E-02  0.1235066E+00
         -4   -1    0    0    0  501 -0.00000000000E+00  0.00000000000E+00  0.78781034746E+02  0.78791270682E+02  0.12700000000E+01 0.  1.
          4   -1    0    0  501    0  0.00000000000E+00 -0.00000000000E+00 -0.49563961750E+02  0.49580229975E+02  0.12700000000E+01 0.  1.
         25    2    1    2    0    0  0.00000000000E+00  0.00000000000E+00  0.29217072996E+02  0.12837150066E+03  0.12500241928E+03 0.  0.
    9000005    1    3    3    0    0 -0.32584197127E+00  0.20196274007E+02  0.75341321543E+02  0.78008399474E+02  0.10000000000E+01 0.  0.
    9000005    1    3    3    0    0  0.32584197127E+00 -0.20196274007E+02 -0.46124248547E+02  0.50363101183E+02  0.10000000000E+01 0.  0.
<mgrwt>
<rscale>  0 0.12500242E+03</rscale>
<asrwt>0</asrwt>
<pdfrwt beam="2">  1        4 0.76272637E-02 0.12500242E+03</pdfrwt>
<pdfrwt beam="1">  1       -4 0.12122198E-01 0.12500242E+03</pdfrwt>
<totfact> 0.10378906E+04</totfact>
</mgrwt>
</event>
<event>
 5    1  0.3184438E-002  0.1249994E+03  0.7818608E-02  0.1235070E+00
         -4   -1    0    0    0  501 -0.00000000000E+00  0.00000000000E+00  0.73681421998E+01  0.74767920579E+01  0.12700000000E+01 0.  1.
          4   -1    0    0  501    0  0.00000000000E+00 -0.00000000000E+00 -0.52615927864E+03  0.52616081134E+03  0.12700000000E+01 0.  1.
         25    2    1    2    0    0  0.00000000000E+00  0.00000000000E+00 -0.51879113644E+03  0.53363760340E+03  0.12499939408E+03 0.  0.
    9000005    1    3    3    0    0  0.62672776253E+01  0.59601807286E+02 -0.18379981280E+03  0.19332621495E+03  0.10000000000E+01 0.  0.
    9000005    1    3    3    0    0 -0.62672776253E+01 -0.59601807286E+02 -0.33499132364E+03  0.34031138846E+03  0.10000000000E+01 0.  0.
<mgrwt>
<rscale>  0 0.12499939E+03</rscale>
<asrwt>0</asrwt>
<pdfrwt beam="2">  1        4 0.80956028E-01 0.12499939E+03</pdfrwt>
<pdfrwt beam="1">  1       -4 0.11420363E-02 0.12499939E+03</pdfrwt>
<totfact> 0.53346521E+03</totfact>
</mgrwt>
</event>
<event>
 5    1  0.3184438E-002  0.1250039E+03  0.7818608E-02  0.1235063E+00
          4   -1    0    0  501    0  0.00000000000E+00  0.00000000000E+00  0.96855565868E+02  0.96863891826E+02  0.12700000000E+01 0.  1.
         -4   -1    0    0    0  501 -0.00000000000E+00 -0.00000000000E+00 -0.40313124254E+02  0.40333123945E+02  0.12700000000E+01 0.  1.
         25    2    1    2    0    0  0.00000000000E+00  0.00000000000E+00  0.56542441613E+02  0.13719701577E+03  0.12500389367E+03 0.  0.
    9000005    1    3    3    0    0  0.20541255630E+02  0.32059908888E+02 -0.26117629334E+02  0.46183454859E+02  0.10000000000E+01 0.  0.
    9000005    1    3    3    0    0 -0.20541255630E+02 -0.32059908888E+02  0.82660070947E+02  0.91013560911E+02  0.10000000000E+01 0.  0.
<mgrwt>
<rscale>  0 0.12500389E+03</rscale>
<asrwt>0</asrwt>
<pdfrwt beam="1">  1        4 0.14903035E-01 0.12500389E+03</pdfrwt>
<pdfrwt beam="2">  1       -4 0.62041981E-02 0.12500389E+03</pdfrwt>
<totfact> 0.10191073E+04</totfact>
</mgrwt>
</event>
<event>
 5    1  0.3184438E-002  0.1249990E+03  0.7818608E-02  0.1235071E+00
          4   -1    0    0  501    0  0.00000000000E+00  0.00000000000E+00  0.84137221109E+03  0.84137316958E+03  0.12700000000E+01 0. -1.
         -4   -1    0    0    0  501 -0.00000000000E+00 -0.00000000000E+00 -0.45548042570E+01  0.47285454232E+01  0.12700000000E+01 0. -1.
         25    2    1    2    0    0  0.00000000000E+00  0.00000000000E+00  0.83681740683E+03  0.84610171501E+03  0.12499895903E+03 0.  0.
    9000005    1    3    3    0    0  0.11456399589E+01 -0.34655132499E+02  0.66499434814E+02  0.75003103469E+02  0.10000000000E+01 0.  0.
    9000005    1    3    3    0    0 -0.11456399589E+01  0.34655132499E+02  0.77031797202E+03  0.77109861154E+03  0.10000000000E+01 0.  0.
<mgrwt>
<rscale>  0 0.12499896E+03</rscale>
<asrwt>0</asrwt>
<pdfrwt beam="1">  1        4 0.12945541E+00 0.12499896E+03</pdfrwt>
<pdfrwt beam="2">  1       -4 0.71417706E-03 0.12499896E+03</pdfrwt>
<totfact> 0.36288178E+03</totfact>
</mgrwt>
</event>
<event>
 5    1  0.3184438E-002  0.1249990E+03  0.7818608E-02  0.1235071E+00
         -4   -1    0    0    0  501 -0.00000000000E+00  0.00000000000E+00  0.59244782879E+01  0.60590711321E+01  0.12700000000E+01 0. -1.
          4   -1    0    0  501    0  0.00000000000E+00 -0.00000000000E+00 -0.65178994277E+03  0.65179118005E+03  0.12700000000E+01 0. -1.
         25    2    1    2    0    0  0.00000000000E+00  0.00000000000E+00 -0.64586546448E+03  0.65785025118E+03  0.12499901910E+03 0.  0.
    9000005    1    3    3    0    0 -0.68351051512E+01 -0.21664960833E+02 -0.16551188708E+02  0.28125274007E+02  0.10000000000E+01 0.  0.
    9000005    1    3    3    0    0  0.68351051512E+01  0.21664960833E+02 -0.62931427577E+03  0.62972497718E+03  0.10000000000E+01 0.  0.
<mgrwt>
<rscale>  0 0.12499902E+03</rscale>
<asrwt>0</asrwt>
<pdfrwt beam="2">  1        4 0.10028577E+00 0.12499902E+03</pdfrwt>
<pdfrwt beam="1">  1       -4 0.92190718E-03 0.12499902E+03</pdfrwt>
<totfact> 0.45407839E+03</totfact>
</mgrwt>
</event>
<event>
 5    1  0.3184438E-002  0.1250030E+03  0.7818608E-02  0.1235065E+00
         -4   -1    0    0    0  501 -0.00000000000E+00  0.00000000000E+00  0.35248096630E+02  0.35270968459E+02  0.12700000000E+01 0.  1.
          4   -1    0    0  501    0  0.00000000000E+00 -0.00000000000E+00 -0.11076447339E+03  0.11077175391E+03  0.12700000000E+01 0.  1.
         25    2    1    2    0    0  0.00000000000E+00  0.00000000000E+00 -0.75516376756E+02  0.14604272237E+03  0.12500301436E+03 0.  0.
    9000005    1    3    3    0    0 -0.18966472453E+02  0.12346125023E+02  0.30298305598E+02  0.37830426940E+02  0.10000000000E+01 0.  0.
    9000005    1    3    3    0    0  0.18966472453E+02 -0.12346125023E+02 -0.10581468235E+03  0.10821229543E+03  0.10000000000E+01 0.  0.
<mgrwt>
<rscale>  0 0.12500301E+03</rscale>
<asrwt>0</asrwt>
<pdfrwt beam="2">  1        4 0.17043008E-01 0.12500301E+03</pdfrwt>
<pdfrwt beam="1">  1       -4 0.54251035E-02 0.12500301E+03</pdfrwt>
<totfact> 0.10009166E+04</totfact>
</mgrwt>
</event>
<event>
 5    1  0.3184438E-002  0.1250013E+03  0.7818608E-02  0.1235067E+00
         -4   -1    0    0    0  501 -0.00000000000E+00  0.00000000000E+00  0.62531630091E+03  0.62531759058E+03  0.12700000000E+01 0.  1.
          4   -1    0    0  501    0  0.00000000000E+00 -0.00000000000E+00 -0.61811113946E+01  0.63102328066E+01  0.12700000000E+01 0.  1.
         25    2    1    2    0    0  0.00000000000E+00  0.00000000000E+00  0.61913518952E+03  0.63162782339E+03  0.12500129749E+03 0.  0.
    9000005    1    3    3    0    0  0.60320007584E+02 -0.67526204372E+01  0.38472445682E+03  0.38948428579E+03  0.10000000000E+01 0.  0.
    9000005    1    3    3    0    0 -0.60320007584E+02  0.67526204372E+01  0.23441073270E+03  0.24214353760E+03  0.10000000000E+01 0.  0.
<mgrwt>
<rscale>  0 0.12500130E+03</rscale>
<asrwt>0</asrwt>
<pdfrwt beam="2">  1        4 0.96097191E-03 0.12500130E+03</pdfrwt>
<pdfrwt beam="1">  1       -4 0.96212532E-01 0.12500130E+03</pdfrwt>
<totfact> 0.46928822E+03</totfact>
</mgrwt>
</event>
<event>
 5    1  0.3184438E-002  0.1249983E+03  0.7818608E-02  0.1235072E+00
          4   -1    0    0  501    0  0.00000000000E+00  0.00000000000E+00  0.13298044149E+02  0.13358550752E+02  0.12700000000E+01 0.  1.
         -4   -1    0    0    0  501 -0.00000000000E+00 -0.00000000000E+00 -0.29300957172E+03  0.29301232401E+03  0.12700000000E+01 0.  1.
         25    2    1    2    0    0  0.00000000000E+00  0.00000000000E+00 -0.27971152757E+03  0.30637087476E+03  0.12499829697E+03 0.  0.
    9000005    1    3    3    0    0  0.82414127319E+01  0.51557789071E+02 -0.22401531789E+03  0.23002171451E+03  0.10000000000E+01 0.  0.
    9000005    1    3    3    0    0 -0.82414127319E+01 -0.51557789071E+02 -0.55696209686E+02  0.76349160251E+02  0.10000000000E+01 0.  0.
<mgrwt>
<rscale>  0 0.12499830E+03</rscale>
<asrwt>0</asrwt>
<pdfrwt beam="1">  1        4 0.20507192E-02 0.12499830E+03</pdfrwt>
<pdfrwt beam="2">  1       -4 0.45083257E-01 0.12499830E+03</pdfrwt>
<totfact> 0.74809404E+03</totfact>
</mgrwt>
</event>
<event>
 5    1  0.3184438E-002  0.1249992E+03  0.7818608E-02  0.1235070E+00
          4   -1    0    0  501    0  0.00000000000E+00  0.00000000000E+00  0.33476266942E+02  0.33500348481E+02  0.12700000000E+01 0.  1.
         -4   -1    0    0    0  501 -0.00000000000E+00 -0.00000000000E+00 -0.11661622783E+03  0.11662314304E+03  0.12700000000E+01 0.  1.
         25    2    1    2    0    0  0.00000000000E+00  0.00000000000E+00 -0.83139960886E+02  0.15012349152E+03  0.12499923844E+03 0.  0.
    9000005    1    3    3    0    0 -0.58399298021E+02 -0.21453732914E+02 -0.34519643487E+02  0.71157195362E+02  0.10000000000E+01 0.  0.
    9000005    1    3    3    0    0  0.58399298021E+02  0.21453732914E+02 -0.48620317399E+02  0.78966296160E+02  0.10000000000E+01 0.  0.
<mgrwt>
<rscale>  0 0.12499924E+03</rscale>
<asrwt>0</asrwt>
<pdfrwt beam="1">  1        4 0.51525793E-02 0.12499924E+03</pdfrwt>
<pdfrwt beam="2">  1       -4 0.17943342E-01 0.12499924E+03</pdfrwt>
<totfact> 0.99280789E+03</totfact>
</mgrwt>
</event>
<event>
 5    1  0.3184438E-002  0.1250274E+03  0.7818608E-02  0.1235026E+00
         -4   -1    0    0    0  501 -0.00000000000E+00  0.00000000000E+00  0.48120393992E+03  0.48120561582E+03  0.12700000000E+01 0. -1.
          4   -1    0    0  501    0  0.00000000000E+00 -0.00000000000E+00 -0.80698686740E+01  0.81691909279E+01  0.12700000000E+01 0. -1.
         25    2    1    2    0    0  0.00000000000E+00  0.00000000000E+00  0.47313407125E+03  0.48937480675E+03  0.12502740541E+03 0.  0.
    9000005    1    3    3    0    0  0.25688958558E+02  0.34919415344E+02  0.41281964209E+03  0.41509076724E+03  0.10000000000E+01 0.  0.
    9000005    1    3    3    0    0 -0.25688958558E+02 -0.34919415344E+02  0.60314429161E+02  0.74284039502E+02  0.10000000000E+01 0.  0.
<mgrwt>
<rscale>  0 0.12502741E+03</rscale>
<asrwt>0</asrwt>
<pdfrwt beam="2">  1        4 0.12492872E-02 0.12502741E+03</pdfrwt>
<pdfrwt beam="1">  1       -4 0.74039151E-01 0.12502741E+03</pdfrwt>
<totfact> 0.56664109E+03</totfact>
</mgrwt>
</event>
<event>
 5    1  0.3184438E-002  0.1250026E+03  0.7818608E-02  0.1235065E+00
         -4   -1    0    0    0  501 -0.00000000000E+00  0.00000000000E+00  0.19048581544E+02  0.19090871087E+02  0.12700000000E+01 0.  1.
          4   -1    0    0  501    0  0.00000000000E+00 -0.00000000000E+00 -0.20480452102E+03  0.20480845864E+03  0.12700000000E+01 0.  1.
         25    2    1    2    0    0  0.00000000000E+00  0.00000000000E+00 -0.18575593947E+03  0.22389932972E+03  0.12500256318E+03 0.  0.
    9000005    1    3    3    0    0 -0.58025334115E+02  0.17501067633E+02 -0.65585081982E+02  0.89306381329E+02  0.10000000000E+01 0.  0.
    9000005    1    3    3    0    0  0.58025334115E+02 -0.17501067633E+02 -0.12017085749E+03  0.13459294840E+03  0.10000000000E+01 0.  0.
<mgrwt>
<rscale>  0 0.12500256E+03</rscale>
<asrwt>0</asrwt>
<pdfrwt beam="2">  1        4 0.31511942E-01 0.12500256E+03</pdfrwt>
<pdfrwt beam="1">  1       -4 0.29341071E-02 0.12500256E+03</pdfrwt>
<totfact> 0.86250132E+03</totfact>
</mgrwt>
</event>
<event>
 5    1  0.3184438E-002  0.1250047E+03  0.7818608E-02  0.1235062E+00
          4   -1    0    0  501    0  0.00000000000E+00  0.00000000000E+00  0.33340503964E+03  0.33340745847E+03  0.12700000000E+01 0. -1.
         -4   -1    0    0    0  501 -0.00000000000E+00 -0.00000000000E+00 -0.11680234803E+02  0.11749075923E+02  0.12700000000E+01 0. -1.
         25    2    1    2    0    0  0.00000000000E+00  0.00000000000E+00  0.32172480484E+03  0.34515653439E+03  0.12500473263E+03 0.  0.
    9000005    1    3    3    0    0  0.58580099130E+02 -0.34058509249E+01  0.22023144251E+03  0.22791690614E+03  0.10000000000E+01 0.  0.
    9000005    1    3    3    0    0 -0.58580099130E+02  0.34058509249E+01  0.10149336234E+03  0.11723962825E+03  0.10000000000E+01 0.  0.
<mgrwt>
<rscale>  0 0.12500473E+03</rscale>
<asrwt>0</asrwt>
<pdfrwt beam="1">  1        4 0.51298569E-01 0.12500473E+03</pdfrwt>
<pdfrwt beam="2">  1       -4 0.18024406E-02 0.12500473E+03</pdfrwt>
<totfact> 0.70253338E+03</totfact>
</mgrwt>
</event>
<event>
 5    1  0.3184438E-002  0.1249883E+03  0.7818608E-02  0.1235088E+00
          4   -1    0    0  501    0  0.00000000000E+00  0.00000000000E+00  0.27430699292E+03  0.27430993286E+03  0.12700000000E+01 0. -1.
         -4   -1    0    0    0  501 -0.00000000000E+00 -0.00000000000E+00 -0.14206415420E+02  0.14263069063E+02  0.12700000000E+01 0. -1.
         25    2    1    2    0    0  0.00000000000E+00  0.00000000000E+00  0.26010057750E+03  0.28857300192E+03  0.12498826754E+03 0.  0.
    9000005    1    3    3    0    0 -0.17813027929E+01  0.61806642331E+02  0.10923485547E+03  0.12552484903E+03  0.10000000000E+01 0.  0.
    9000005    1    3    3    0    0  0.17813027929E+01 -0.61806642331E+02  0.15086572203E+03  0.16304815289E+03  0.10000000000E+01 0.  0.
<mgrwt>
<rscale>  0 0.12498827E+03</rscale>
<asrwt>0</asrwt>
<pdfrwt beam="1">  1        4 0.42205658E-01 0.12498827E+03</pdfrwt>
<pdfrwt beam="2">  1       -4 0.21901866E-02 0.12498827E+03</pdfrwt>
<totfact> 0.77075035E+03</totfact>
</mgrwt>
</event>
<event>
 5    1  0.3184438E-002  0.1250024E+03  0.7818608E-02  0.1235066E+00
         -4   -1    0    0    0  501 -0.00000000000E+00  0.00000000000E+00  0.18754439608E+03  0.18754869608E+03  0.12700000000E+01 0.  1.
          4   -1    0    0  501    0  0.00000000000E+00 -0.00000000000E+00 -0.20805292717E+02  0.20844018448E+02  0.12700000000E+01 0.  1.
         25    2    1    2    0    0  0.00000000000E+00  0.00000000000E+00  0.16673910336E+03  0.20839271452E+03  0.12500237949E+03 0.  0.
    9000005    1    3    3    0    0  0.46466000942E+02  0.41719313654E+02  0.87387371146E+02  0.10741109352E+03  0.10000000000E+01 0.  0.
    9000005    1    3    3    0    0 -0.46466000942E+02 -0.41719313654E+02  0.79351732215E+02  0.10098162100E+03  0.10000000000E+01 0.  0.
<mgrwt>
<rscale>  0 0.12500238E+03</rscale>
<asrwt>0</asrwt>
<pdfrwt beam="2">  1        4 0.32041237E-02 0.12500238E+03</pdfrwt>
<pdfrwt beam="1">  1       -4 0.28856295E-01 0.12500238E+03</pdfrwt>
<totfact> 0.88734323E+03</totfact>
</mgrwt>
</event>
<event>
 5    1  0.3184438E-002  0.1250008E+03  0.7818608E-02  0.1235068E+00
         -4   -1    0    0    0  501 -0.00000000000E+00  0.00000000000E+00  0.52743326882E+01  0.54250792902E+01  0.12700000000E+01 0. -1.
          4   -1    0    0  501    0  0.00000000000E+00 -0.00000000000E+00 -0.73003849808E+03  0.73003960274E+03  0.12700000000E+01 0. -1.
         25    2    1    2    0    0  0.00000000000E+00  0.00000000000E+00 -0.72476416539E+03  0.73546468203E+03  0.12500081235E+03 0.  0.
    9000005    1    3    3    0    0  0.43923959221E+02  0.42137617481E+02 -0.44567465335E+03  0.44981306077E+03  0.10000000000E+01 0.  0.
    9000005    1    3    3    0    0 -0.43923959221E+02 -0.42137617481E+02 -0.27908951204E+03  0.28565162126E+03  0.10000000000E+01 0.  0.
<mgrwt>
<rscale>  0 0.12500081E+03</rscale>
<asrwt>0</asrwt>
<pdfrwt beam="2">  1        4 0.11232522E+00 0.12500081E+03</pdfrwt>
<pdfrwt beam="1">  1       -4 0.82311724E-03 0.12500081E+03</pdfrwt>
<totfact> 0.41278489E+03</totfact>
</mgrwt>
</event>
<event>
 4    1  0.3184438E-002  0.1249268E+03  0.7818608E-02  0.1235184E+00
         -4   -1    0    0    0  501 -0.00000000000E+00  0.00000000000E+00  0.19917587181E+03  0.19917992070E+03  0.12700000000E+01 0.  1.
          4   -1    0    0  501    0  0.00000000000E+00 -0.00000000000E+00 -0.19564253138E+02  0.19605430391E+02  0.12700000000E+01 0.  1.
    9000005    1    1    2    0    0 -0.25811699344E+02  0.56771405692E+02  0.83882928879E+02  0.10453029266E+03  0.10000000000E+01 0.  0.
    9000005    1    1    2    0    0  0.25811699344E+02 -0.56771405692E+02  0.95728689794E+02  0.11425505843E+03  0.10000000000E+01 0.  0.
<mgrwt>
<rscale>  0 0.12492676E+03</rscale>
<asrwt>0</asrwt>
<pdfrwt beam="2">  1        4 0.30133640E-02 0.12492676E+03</pdfrwt>
<pdfrwt beam="1">  1       -4 0.30645921E-01 0.12492676E+03</pdfrwt>
<totfact> 0.87203504E+03</totfact>
</mgrwt>
</event>
<event>
 5    1  0.3184438E-002  0.1249989E+03  0.7818608E-02  0.1235071E+00
          4   -1    0    0  501    0  0.00000000000E+00  0.00000000000E+00  0.15222645752E+03  0.15223175513E+03  0.12700000000E+01 0.  1.
         -4   -1    0    0    0  501 -0.00000000000E+00 -0.00000000000E+00 -0.25638884440E+02  0.25670319346E+02  0.12700000000E+01 0.  1.
         25    2    1    2    0    0  0.00000000000E+00  0.00000000000E+00  0.12658757308E+03  0.17790207448E+03  0.12499893777E+03 0.  0.
    9000005    1    3    3    0    0 -0.30080080474E+02 -0.51573225739E+02  0.89558998951E+02  0.10764024873E+03  0.10000000000E+01 0.  0.
    9000005    1    3    3    0    0  0.30080080474E+02  0.51573225739E+02  0.37028574132E+02  0.70261825743E+02  0.10000000000E+01 0.  0.
<mgrwt>
<rscale>  0 0.12499894E+03</rscale>
<asrwt>0</asrwt>
<pdfrwt beam="1">  1        4 0.23422280E-01 0.12499894E+03</pdfrwt>
<pdfrwt beam="2">  1       -4 0.39472694E-02 0.12499894E+03</pdfrwt>
<totfact> 0.93998245E+03</totfact>
</mgrwt>
</event>
<event>
 5    1  0.3184438E-002  0.1249953E+03  0.7818608E-02  0.1235077E+00
         -4   -1    0    0    0  501 -0.00000000000E+00  0.00000000000E+00  0.19961170810E+02  0.20001530944E+02  0.12700000000E+01 0.  1.
          4   -1    0    0  501    0  0.00000000000E+00 -0.00000000000E+00 -0.19543768043E+03  0.19544180676E+03  0.12700000000E+01 0.  1.
         25    2    1    2    0    0  0.00000000000E+00  0.00000000000E+00 -0.17547650962E+03  0.21544333771E+03  0.12499530525E+03 0.  0.
    9000005    1    3    3    0    0  0.48844041972E+02  0.30954193211E+02 -0.12856471493E+03  0.14097442477E+03  0.10000000000E+01 0.  0.
    9000005    1    3    3    0    0 -0.48844041972E+02 -0.30954193211E+02 -0.46911794684E+02  0.74468912937E+02  0.10000000000E+01 0.  0.
<mgrwt>
<rscale>  0 0.12499531E+03</rscale>
<asrwt>0</asrwt>
<pdfrwt beam="2">  1        4 0.30070756E-01 0.12499531E+03</pdfrwt>
<pdfrwt beam="1">  1       -4 0.30743715E-02 0.12499531E+03</pdfrwt>
<totfact> 0.87603748E+03</totfact>
</mgrwt>
</event>
<event>
 5    1  0.3184438E-002  0.1250015E+03  0.7818608E-02  0.1235067E+00
         -4   -1    0    0    0  501 -0.00000000000E+00  0.00000000000E+00  0.49409118589E+02  0.49425437780E+02  0.12700000000E+01 0.  1.
          4   -1    0    0  501    0  0.00000000000E+00 -0.00000000000E+00 -0.79026721128E+02  0.79036925246E+02  0.12700000000E+01 0.  1.
         25    2    1    2    0    0  0.00000000000E+00  0.00000000000E+00 -0.29617602539E+02  0.12846236303E+03  0.12500150533E+03 0.  0.
    9000005    1    3    3    0    0  0.68442756415E+01  0.13297926123E+02  0.47547853099E+02  0.49854561301E+02  0.10000000000E+01 0.  0.
    9000005    1    3    3    0    0 -0.68442756415E+01 -0.13297926123E+02 -0.77165455638E+02  0.78607801725E+02  0.10000000000E+01 0.  0.
<mgrwt>
<rscale>  0 0.12500151E+03</rscale>
<asrwt>0</asrwt>
<pdfrwt beam="2">  1        4 0.12159997E-01 0.12500151E+03</pdfrwt>
<pdfrwt beam="1">  1       -4 0.76034431E-02 0.12500151E+03</pdfrwt>
<totfact> 0.10377162E+04</totfact>
</mgrwt>
</event>
<event>
 5    1  0.3184438E-002  0.1249857E+03  0.7818608E-02  0.1235092E+00
         -4   -1    0    0    0  501 -0.00000000000E+00  0.00000000000E+00  0.40398994626E+02  0.40418951827E+02  0.12700000000E+01 0. -1.
          4   -1    0    0  501    0  0.00000000000E+00 -0.00000000000E+00 -0.96621585256E+02  0.96629931374E+02  0.12700000000E+01 0. -1.
         25    2    1    2    0    0  0.00000000000E+00  0.00000000000E+00 -0.56222590630E+02  0.13704888320E+03  0.12498566594E+03 0.  0.
    9000005    1    3    3    0    0  0.40887427062E+02  0.32386981052E+02 -0.65836189744E+02  0.84000607815E+02  0.10000000000E+01 0.  0.
    9000005    1    3    3    0    0 -0.40887427062E+02 -0.32386981052E+02  0.96135991133E+01  0.53048275385E+02  0.10000000000E+01 0.  0.
<mgrwt>
<rscale>  0 0.12498567E+03</rscale>
<asrwt>0</asrwt>
<pdfrwt beam="2">  1        4 0.14867036E-01 0.12498567E+03</pdfrwt>
<pdfrwt beam="1">  1       -4 0.62174071E-02 0.12498567E+03</pdfrwt>
<totfact> 0.10198359E+04</totfact>
</mgrwt>
</event>
<event>
 5    1  0.3184438E-002  0.1249979E+03  0.7818608E-02  0.1235073E+00
          4   -1    0    0  501    0  0.00000000000E+00  0.00000000000E+00  0.11103708836E+02  0.11176101732E+02  0.12700000000E+01 0.  1.
         -4   -1    0    0    0  501 -0.00000000000E+00 -0.00000000000E+00 -0.35056862509E+03  0.35057092548E+03  0.12700000000E+01 0.  1.
         25    2    1    2    0    0  0.00000000000E+00  0.00000000000E+00 -0.33946491625E+03  0.36174702722E+03  0.12499792932E+03 0.  0.
    9000005    1    3    3    0    0 -0.48503017446E+02  0.35385042911E+02 -0.11956668667E+03  0.13379774484E+03  0.10000000000E+01 0.  0.
    9000005    1    3    3    0    0  0.48503017446E+02 -0.35385042911E+02 -0.21989822958E+03  0.22794928238E+03  0.10000000000E+01 0.  0.
<mgrwt>
<rscale>  0 0.12499793E+03</rscale>
<asrwt>0</asrwt>
<pdfrwt beam="1">  1        4 0.17140088E-02 0.12499793E+03</pdfrwt>
<pdfrwt beam="2">  1       -4 0.53939372E-01 0.12499793E+03</pdfrwt>
<totfact> 0.68454422E+03</totfact>
</mgrwt>
</event>
<event>
 5    1  0.3184438E-002  0.1250026E+03  0.7818608E-02  0.1235065E+00
          4   -1    0    0  501    0  0.00000000000E+00  0.00000000000E+00  0.45604262974E+03  0.45604439810E+03  0.12700000000E+01 0. -1.
         -4   -1    0    0    0  501 -0.00000000000E+00 -0.00000000000E+00 -0.85170304276E+01  0.86111966245E+01  0.12700000000E+01 0. -1.
         25    2    1    2    0    0  0.00000000000E+00  0.00000000000E+00  0.44752559931E+03  0.46465559472E+03  0.12500263865E+03 0.  0.
    9000005    1    3    3    0    0 -0.34814545403E+02  0.47145670659E+02  0.30440458566E+03  0.30999664289E+03  0.10000000000E+01 0.  0.
    9000005    1    3    3    0    0  0.34814545403E+02 -0.47145670659E+02  0.14312101365E+03  0.15465895183E+03  0.10000000000E+01 0.  0.
<mgrwt>
<rscale>  0 0.12500264E+03</rscale>
<asrwt>0</asrwt>
<pdfrwt beam="1">  1        4 0.70167791E-01 0.12500264E+03</pdfrwt>
<pdfrwt beam="2">  1       -4 0.13176918E-02 0.12500264E+03</pdfrwt>
<totfact> 0.58711463E+03</totfact>
</mgrwt>
</event>
<event>
 5    1  0.3184438E-002  0.1249990E+03  0.7818608E-02  0.1235071E+00
         -4   -1    0    0    0  501 -0.00000000000E+00  0.00000000000E+00  0.93987497448E+02  0.93996077453E+02  0.12700000000E+01 0.  1.
          4   -1    0    0  501    0  0.00000000000E+00 -0.00000000000E+00 -0.41540508685E+02  0.41559917731E+02  0.12700000000E+01 0.  1.
         25    2    1    2    0    0  0.00000000000E+00  0.00000000000E+00  0.52446988763E+02  0.13555599518E+03  0.12499896480E+03 0.  0.
    9000005    1    3    3    0    0 -0.50790738912E+02  0.16834312267E+02  0.61231337910E+02  0.81322628898E+02  0.10000000000E+01 0.  0.
    9000005    1    3    3    0    0  0.50790738912E+02 -0.16834312267E+02 -0.87843491468E+01  0.54233366285E+02  0.10000000000E+01 0.  0.
<mgrwt>
<rscale>  0 0.12499896E+03</rscale>
<asrwt>0</asrwt>
<pdfrwt beam="2">  1        4 0.63930005E-02 0.12499896E+03</pdfrwt>
<pdfrwt beam="1">  1       -4 0.14461768E-01 0.12499896E+03</pdfrwt>
<totfact> 0.10226604E+04</totfact>
</mgrwt>
</event>
<event>
 5    1  0.3184438E-002  0.1249974E+03  0.7818608E-02  0.1235073E+00
          4   -1    0    0  501    0  0.00000000000E+00  0.00000000000E+00  0.30724192181E+03  0.30724454660E+03  0.12700000000E+01 0.  1.
         -4   -1    0    0    0  501 -0.00000000000E+00 -0.00000000000E+00 -0.12678999587E+02  0.12742446018E+02  0.12700000000E+01 0.  1.
         25    2    1    2    0    0  0.00000000000E+00  0.00000000000E+00  0.29456292222E+03  0.31998699262E+03  0.12499744117E+03 0.  0.
    9000005    1    3    3    0    0  0.60555211524E+02  0.14456369366E+02  0.16110750884E+03  0.17272101685E+03  0.10000000000E+01 0.  0.
    9000005    1    3    3    0    0 -0.60555211524E+02 -0.14456369366E+02  0.13345541338E+03  0.14726597577E+03  0.10000000000E+01 0.  0.
<mgrwt>
<rscale>  0 0.12499744E+03</rscale>
<asrwt>0</asrwt>
<pdfrwt beam="1">  1        4 0.47273065E-01 0.12499744E+03</pdfrwt>
<pdfrwt beam="2">  1       -4 0.19556979E-02 0.12499744E+03</pdfrwt>
<totfact> 0.73161824E+03</totfact>
</mgrwt>
</event>
<event>
 5    1  0.3184438E-002  0.1249951E+03  0.7818608E-02  0.1235077E+00
          4   -1    0    0  501    0  0.00000000000E+00  0.00000000000E+00  0.11908002902E+02  0.11975534774E+02  0.12700000000E+01 0.  1.
         -4   -1    0    0    0  501 -0.00000000000E+00 -0.00000000000E+00 -0.32701350132E+03  0.32701596741E+03  0.12700000000E+01 0.  1.
         25    2    1    2    0    0  0.00000000000E+00  0.00000000000E+00 -0.31510549842E+03  0.33899150219E+03  0.12499505360E+03 0.  0.
    9000005    1    3    3    0    0  0.58467929949E+02  0.12501695342E+02 -0.10827493947E+03  0.12369015214E+03  0.10000000000E+01 0.  0.
    9000005    1    3    3    0    0 -0.58467929949E+02 -0.12501695342E+02 -0.20683055895E+03  0.21530135005E+03  0.10000000000E+01 0.  0.
<mgrwt>
<rscale>  0 0.12499505E+03</rscale>
<asrwt>0</asrwt>
<pdfrwt beam="1">  1        4 0.18373852E-02 0.12499505E+03</pdfrwt>
<pdfrwt beam="2">  1       -4 0.50315147E-01 0.12499505E+03</pdfrwt>
<totfact> 0.70960624E+03</totfact>
</mgrwt>
</event>
<event>
 5    1  0.3184438E-002  0.1249997E+03  0.7818608E-02  0.1235070E+00
          4   -1    0    0  501    0  0.00000000000E+00  0.00000000000E+00  0.18744708347E+02  0.18787681896E+02  0.12700000000E+01 0.  1.
         -4   -1    0    0    0  501 -0.00000000000E+00 -0.00000000000E+00 -0.20810750487E+03  0.20811138000E+03  0.12700000000E+01 0.  1.
         25    2    1    2    0    0  0.00000000000E+00  0.00000000000E+00 -0.18936279653E+03  0.22689906189E+03  0.12499966232E+03 0.  0.
    9000005    1    3    3    0    0  0.15685297261E+02  0.49255602129E+02 -0.15842264367E+03  0.16664596280E+03  0.10000000000E+01 0.  0.
    9000005    1    3    3    0    0 -0.15685297261E+02 -0.49255602129E+02 -0.30940152854E+02  0.60253099089E+02  0.10000000000E+01 0.  0.
<mgrwt>
<rscale>  0 0.12499966E+03</rscale>
<asrwt>0</asrwt>
<pdfrwt beam="1">  1        4 0.28874052E-02 0.12499966E+03</pdfrwt>
<pdfrwt beam="2">  1       -4 0.32020141E-01 0.12499966E+03</pdfrwt>
<totfact> 0.85788682E+03</totfact>
</mgrwt>
</event>
<event>
 5    1  0.3184438E-002  0.1249942E+03  0.7818608E-02  0.1235078E+00
          4   -1    0    0  501    0  0.00000000000E+00  0.00000000000E+00  0.42842610301E+01  0.44685336044E+01  0.12700000000E+01 0. -1.
         -4   -1    0    0    0  501 -0.00000000000E+00 -0.00000000000E+00 -0.89230433842E+03  0.89230524220E+03  0.12700000000E+01 0. -1.
         25    2    1    2    0    0  0.00000000000E+00  0.00000000000E+00 -0.88802007739E+03  0.89677377581E+03  0.12499418838E+03 0.  0.
    9000005    1    3    3    0    0  0.47292385407E+02 -0.28651235116E+02 -0.65286433096E+03  0.65520248597E+03  0.10000000000E+01 0.  0.
    9000005    1    3    3    0    0 -0.47292385407E+02  0.28651235116E+02 -0.23515574643E+03  0.24157128983E+03  0.10000000000E+01 0.  0.
<mgrwt>
<rscale>  0 0.12499419E+03</rscale>
<asrwt>0</asrwt>
<pdfrwt beam="1">  1        4 0.67336213E-03 0.12499419E+03</pdfrwt>
<pdfrwt beam="2">  1       -4 0.13729169E+00 0.12499419E+03</pdfrwt>
<totfact> 0.34288138E+03</totfact>
</mgrwt>
</event>
<event>
 5    1  0.3184438E-002  0.1250062E+03  0.7818608E-02  0.1235060E+00
         -4   -1    0    0    0  501 -0.00000000000E+00  0.00000000000E+00  0.64907624701E+02  0.64920048092E+02  0.12700000000E+01 0. -1.
          4   -1    0    0  501    0  0.00000000000E+00 -0.00000000000E+00 -0.60162765819E+02  0.60176168796E+02  0.12700000000E+01 0. -1.
         25    2    1    2    0    0  0.00000000000E+00  0.00000000000E+00  0.47448588823E+01  0.12509621689E+03  0.12500619902E+03 0.  0.
    9000005    1    3    3    0    0 -0.27677551558E+02  0.55670606747E+02  0.87310693166E+01  0.62789289590E+02  0.10000000000E+01 0.  0.
    9000005    1    3    3    0    0  0.27677551558E+02 -0.55670606747E+02 -0.39862104343E+01  0.62306927298E+02  0.10000000000E+01 0.  0.
<mgrwt>
<rscale>  0 0.12500620E+03</rscale>
<asrwt>0</asrwt>
<pdfrwt beam="2">  1        4 0.92577968E-02 0.12500620E+03</pdfrwt>
<pdfrwt beam="1">  1       -4 0.99877751E-02 0.12500620E+03</pdfrwt>
<totfact> 0.10449309E+04</totfact>
</mgrwt>
</event>
<event>
 5    1  0.3184438E-002  0.1250038E+03  0.7818608E-02  0.1235063E+00
         -4   -1    0    0    0  501 -0.00000000000E+00  0.00000000000E+00  0.35211602614E+02  0.35234498132E+02  0.12700000000E+01 0. -1.
          4   -1    0    0  501    0  0.00000000000E+00 -0.00000000000E+00 -0.11088051339E+03  0.11088778630E+03  0.12700000000E+01 0. -1.
         25    2    1    2    0    0  0.00000000000E+00  0.00000000000E+00 -0.75668910778E+02  0.14612228443E+03  0.12500375174E+03 0.  0.
    9000005    1    3    3    0    0  0.62144446248E+02  0.13263190343E+01 -0.45391396523E+02  0.76974477588E+02  0.10000000000E+01 0.  0.
    9000005    1    3    3    0    0 -0.62144446248E+02 -0.13263190343E+01 -0.30277514256E+02  0.69147806843E+02  0.10000000000E+01 0.  0.
<mgrwt>
<rscale>  0 0.12500375E+03</rscale>
<asrwt>0</asrwt>
<pdfrwt beam="2">  1        4 0.17060861E-01 0.12500375E+03</pdfrwt>
<pdfrwt beam="1">  1       -4 0.54194903E-02 0.12500375E+03</pdfrwt>
<totfact> 0.10007390E+04</totfact>
</mgrwt>
</event>
<event>
 5    1  0.3184438E-002  0.1249998E+03  0.7818608E-02  0.1235070E+00
          4   -1    0    0  501    0  0.00000000000E+00  0.00000000000E+00  0.12092036181E+03  0.12092703089E+03  0.12700000000E+01 0. -1.
         -4   -1    0    0    0  501 -0.00000000000E+00 -0.00000000000E+00 -0.32284194700E+02  0.32309164760E+02  0.12700000000E+01 0. -1.
         25    2    1    2    0    0  0.00000000000E+00  0.00000000000E+00  0.88636167113E+02  0.15323619565E+03  0.12499984615E+03 0.  0.
    9000005    1    3    3    0    0 -0.35137330853E+02  0.46269736794E+02  0.72532754857E+02  0.92938264937E+02  0.10000000000E+01 0.  0.
    9000005    1    3    3    0    0  0.35137330853E+02 -0.46269736794E+02  0.16103412256E+02  0.60297930717E+02  0.10000000000E+01 0.  0.
<mgrwt>
<rscale>  0 0.12499985E+03</rscale>
<asrwt>0</asrwt>
<pdfrwt beam="1">  1        4 0.18605566E-01 0.12499985E+03</pdfrwt>
<pdfrwt beam="2">  1       -4 0.49692330E-02 0.12499985E+03</pdfrwt>
<totfact> 0.98662820E+03</totfact>
</mgrwt>
</event>
<event>
 5    1  0.3184438E-002  0.1249987E+03  0.7818608E-02  0.1235071E+00
         -4   -1    0    0    0  501 -0.00000000000E+00  0.00000000000E+00  0.48459590838E+02  0.48476229682E+02  0.12700000000E+01 0. -1.
          4   -1    0    0  501    0  0.00000000000E+00 -0.00000000000E+00 -0.80571205919E+02  0.80581214456E+02  0.12700000000E+01 0. -1.
         25    2    1    2    0    0  0.00000000000E+00  0.00000000000E+00 -0.32111615081E+02  0.12905744414E+03  0.12499867225E+03 0.  0.
    9000005    1    3    3    0    0 -0.16380984226E+02 -0.18860280555E+02  0.43085201459E+02  0.49813466167E+02  0.10000000000E+01 0.  0.
    9000005    1    3    3    0    0  0.16380984226E+02  0.18860280555E+02 -0.75196816540E+02  0.79243977970E+02  0.10000000000E+01 0.  0.
<mgrwt>
<rscale>  0 0.12499867E+03</rscale>
<asrwt>0</asrwt>
<pdfrwt beam="2">  1        4 0.12397620E-01 0.12499867E+03</pdfrwt>
<pdfrwt beam="1">  1       -4 0.74573715E-02 0.12499867E+03</pdfrwt>
<totfact> 0.10365023E+04</totfact>
</mgrwt>
</event>
<event>
 5    1  0.3184438E-002  0.1250019E+03  0.7818608E-02  0.1235066E+00
          4   -1    0    0  501    0  0.00000000000E+00  0.00000000000E+00  0.39213111723E+02  0.39233672158E+02  0.12700000000E+01 0. -1.
         -4   -1    0    0    0  501 -0.00000000000E+00 -0.00000000000E+00 -0.99568164669E+02  0.99576263816E+02  0.12700000000E+01 0. -1.
         25    2    1    2    0    0  0.00000000000E+00  0.00000000000E+00 -0.60355052945E+02  0.13880993597E+03  0.12500186362E+03 0.  0.
    9000005    1    3    3    0    0  0.25155728766E+02  0.56105231813E+02 -0.42580892919E+02  0.74797995751E+02  0.10000000000E+01 0.  0.
    9000005    1    3    3    0    0 -0.25155728766E+02 -0.56105231813E+02 -0.17774160026E+02  0.64011940223E+02  0.10000000000E+01 0.  0.
<mgrwt>
<rscale>  0 0.12500186E+03</rscale>
<asrwt>0</asrwt>
<pdfrwt beam="1">  1        4 0.60349910E-02 0.12500186E+03</pdfrwt>
<pdfrwt beam="2">  1       -4 0.15320384E-01 0.12500186E+03</pdfrwt>
<totfact> 0.10157884E+04</totfact>
</mgrwt>
</event>
<event>
 5    1  0.3184438E-002  0.1249967E+03  0.7818608E-02  0.1235075E+00
          4   -1    0    0  501    0  0.00000000000E+00  0.00000000000E+00  0.36370652809E+02  0.36392819151E+02  0.12700000000E+01 0. -1.
         -4   -1    0    0    0  501 -0.00000000000E+00 -0.00000000000E+00 -0.10733676825E+03  0.10734428126E+03  0.12700000000E+01 0. -1.
         25    2    1    2    0    0  0.00000000000E+00  0.00000000000E+00 -0.70966115441E+02  0.14373710041E+03  0.12499665793E+03 0.  0.
    9000005    1    3    3    0    0  0.32876992606E+01  0.45293800696E+02 -0.84845682112E+02  0.96239945558E+02  0.10000000000E+01 0.  0.
    9000005    1    3    3    0    0 -0.32876992606E+01 -0.45293800696E+02  0.13879566671E+02  0.47497154850E+02  0.10000000000E+01 0.  0.
<mgrwt>
<rscale>  0 0.12499666E+03</rscale>
<asrwt>0</asrwt>
<pdfrwt beam="1">  1        4 0.55977681E-02 0.12499666E+03</pdfrwt>
<pdfrwt beam="2">  1       -4 0.16515632E-01 0.12499666E+03</pdfrwt>
<totfact> 0.10057468E+04</totfact>
</mgrwt>
</event>
<event>
 5    1  0.3184438E-002  0.1249986E+03  0.7818608E-02  0.1235071E+00
         -4   -1    0    0    0  501 -0.00000000000E+00  0.00000000000E+00  0.42669392964E+03  0.42669581963E+03  0.12700000000E+01 0. -1.
          4   -1    0    0  501    0  0.00000000000E+00 -0.00000000000E+00 -0.91085222403E+01  0.91966340257E+01  0.12700000000E+01 0. -1.
         25    2    1    2    0    0  0.00000000000E+00  0.00000000000E+00  0.41758540740E+03  0.43589245366E+03  0.12499863472E+03 0.  0.
    9000005    1    3    3    0    0  0.58082231139E+02  0.22987405787E+02  0.20255633525E+03  0.21197177961E+03  0.10000000000E+01 0.  0.
    9000005    1    3    3    0    0 -0.58082231139E+02 -0.22987405787E+02  0.21502907215E+03  0.22392067405E+03  0.10000000000E+01 0.  0.
<mgrwt>
<rscale>  0 0.12499863E+03</rscale>
<asrwt>0</asrwt>
<pdfrwt beam="2">  1        4 0.14082349E-02 0.12499863E+03</pdfrwt>
<pdfrwt beam="1">  1       -4 0.65652117E-01 0.12499863E+03</pdfrwt>
<totfact> 0.61207339E+03</totfact>
</mgrwt>
</event>
<event>
 5    1  0.3184438E-002  0.1250014E+03  0.7818608E-02  0.1235067E+00
         -4   -1    0    0    0  501 -0.00000000000E+00  0.00000000000E+00  0.58213585913E+02  0.58227437561E+02  0.12700000000E+01 0.  1.
          4   -1    0    0  501    0  0.00000000000E+00 -0.00000000000E+00 -0.67075669318E+02  0.67087691229E+02  0.12700000000E+01 0.  1.
         25    2    1    2    0    0  0.00000000000E+00  0.00000000000E+00 -0.88620834051E+01  0.12531512879E+03  0.12500137992E+03 0.  0.
    9000005    1    3    3    0    0 -0.50827378802E+02 -0.32214145707E+02  0.12468392948E+02  0.61462463685E+02  0.10000000000E+01 0.  0.
    9000005    1    3    3    0    0  0.50827378802E+02  0.32214145707E+02 -0.21330476353E+02  0.63852665105E+02  0.10000000000E+01 0.  0.
<mgrwt>
<rscale>  0 0.12500138E+03</rscale>
<asrwt>0</asrwt>
<pdfrwt beam="2">  1        4 0.10321324E-01 0.12500138E+03</pdfrwt>
<pdfrwt beam="1">  1       -4 0.89579265E-02 0.12500138E+03</pdfrwt>
<totfact> 0.10445696E+04</totfact>
</mgrwt>
</event>
<event>
 5    1  0.3184438E-002  0.1250003E+03  0.7818608E-02  0.1235069E+00
         -4   -1    0    0    0  501 -0.00000000000E+00  0.00000000000E+00  0.21423047229E+04  0.21423050994E+04  0.12700000000E+01 0.  1.
          4   -1    0    0  501    0  0.00000000000E+00 -0.00000000000E+00 -0.16018347803E+01  0.20442051422E+01  0.12700000000E+01 0.  1.
         25    2    1    2    0    0  0.00000000000E+00  0.00000000000E+00  0.21407028881E+04  0.21443493045E+04  0.12500033772E+03 0.  0.
    9000005    1    3    3    0    0  0.24649551271E+02 -0.18646600671E+02  0.13861407575E+03  0.14202168176E+03  0.10000000000E+01 0.  0.
    9000005    1    3    3    0    0 -0.24649551271E+02  0.18646600671E+02  0.20020888124E+04  0.20023276227E+04  0.10000000000E+01 0.  0.
<mgrwt>
<rscale>  0 0.12500034E+03</rscale>
<asrwt>0</asrwt>
<pdfrwt beam="2">  1        4 0.28049524E-03 0.12500034E+03</pdfrwt>
<pdfrwt beam="1">  1       -4 0.32961743E+00 0.12500034E+03</pdfrwt>
<totfact> 0.80929257E+02</totfact>
</mgrwt>
</event>
<event>
 5    1  0.3184438E-002  0.1250215E+03  0.7818608E-02  0.1235036E+00
          4   -1    0    0  501    0  0.00000000000E+00  0.00000000000E+00  0.60927358309E+02  0.60940593126E+02  0.12700000000E+01 0.  1.
         -4   -1    0    0    0  501 -0.00000000000E+00 -0.00000000000E+00 -0.64108803661E+02  0.64121381823E+02  0.12700000000E+01 0.  1.
         25    2    1    2    0    0  0.00000000000E+00  0.00000000000E+00 -0.31814453518E+01  0.12506197495E+03  0.12502150208E+03 0.  0.
    9000005    1    3    3    0    0  0.32157306444E+02 -0.12729963548E+01  0.52007226763E+02  0.61167511908E+02  0.10000000000E+01 0.  0.
    9000005    1    3    3    0    0 -0.32157306444E+02  0.12729963548E+01 -0.55188672115E+02  0.63894463041E+02  0.10000000000E+01 0.  0.
<mgrwt>
<rscale>  0 0.12502150E+03</rscale>
<asrwt>0</asrwt>
<pdfrwt beam="1">  1        4 0.93754253E-02 0.12502150E+03</pdfrwt>
<pdfrwt beam="2">  1       -4 0.98648785E-02 0.12502150E+03</pdfrwt>
<totfact> 0.10446439E+04</totfact>
</mgrwt>
</event>
<event>
 5    1  0.3184438E-002  0.1250008E+03  0.7818608E-02  0.1235068E+00
          4   -1    0    0  501    0  0.00000000000E+00  0.00000000000E+00  0.42917381399E+03  0.42917569307E+03  0.12700000000E+01 0. -1.
         -4   -1    0    0    0  501 -0.00000000000E+00 -0.00000000000E+00 -0.90556999580E+01  0.91443207364E+01  0.12700000000E+01 0. -1.
         25    2    1    2    0    0  0.00000000000E+00  0.00000000000E+00  0.42011811404E+03  0.43832001380E+03  0.12500081903E+03 0.  0.
    9000005    1    3    3    0    0 -0.64343097483E+01  0.37348587728E+02  0.38429492628E+03  0.38616046887E+03  0.10000000000E+01 0.  0.
    9000005    1    3    3    0    0  0.64343097483E+01 -0.37348587728E+02  0.35823187754E+02  0.52159544937E+02  0.10000000000E+01 0.  0.
<mgrwt>
<rscale>  0 0.12500082E+03</rscale>
<asrwt>0</asrwt>
<pdfrwt beam="1">  1        4 0.66033691E-01 0.12500082E+03</pdfrwt>
<pdfrwt beam="2">  1       -4 0.14001464E-02 0.12500082E+03</pdfrwt>
<totfact> 0.60987910E+03</totfact>
</mgrwt>
</event>
<event>
 5    1  0.3184438E-002  0.1249972E+03  0.7818608E-02  0.1235074E+00
         -4   -1    0    0    0  501 -0.00000000000E+00  0.00000000000E+00  0.99468869702E+03  0.99468950778E+03  0.12700000000E+01 0. -1.
          4   -1    0    0  501    0  0.00000000000E+00 -0.00000000000E+00 -0.38234193993E+01  0.40288256233E+01  0.12700000000E+01 0. -1.
         25    2    1    2    0    0  0.00000000000E+00  0.00000000000E+00  0.99086527762E+03  0.99871833340E+03  0.12499724426E+03 0.  0.
    9000005    1    3    3    0    0 -0.34874123816E+02 -0.50091445539E+02  0.60254539628E+03  0.60562968223E+03  0.10000000000E+01 0.  0.
    9000005    1    3    3    0    0  0.34874123816E+02  0.50091445539E+02  0.38831988134E+03  0.39308865117E+03  0.10000000000E+01 0.  0.
<mgrwt>
<rscale>  0 0.12499724E+03</rscale>
<asrwt>0</asrwt>
<pdfrwt beam="2">  1        4 0.60408187E-03 0.12499724E+03</pdfrwt>
<pdfrwt beam="1">  1       -4 0.15304473E+00 0.12499724E+03</pdfrwt>
<totfact> 0.30648716E+03</totfact>
</mgrwt>
</event>
<event>
 5    1  0.3184438E-002  0.1250039E+03  0.7818608E-02  0.1235063E+00
         -4   -1    0    0    0  501 -0.00000000000E+00  0.00000000000E+00  0.46050015190E+03  0.46050190315E+03  0.12700000000E+01 0.  1.
          4   -1    0    0  501    0  0.00000000000E+00 -0.00000000000E+00 -0.84338463654E+01  0.85289310300E+01  0.12700000000E+01 0.  1.
         25    2    1    2    0    0  0.00000000000E+00  0.00000000000E+00  0.45206630554E+03  0.46903083418E+03  0.12500391517E+03 0.  0.
    9000005    1    3    3    0    0  0.38362650648E+02 -0.30291631904E+02  0.37213601149E+03  0.37533383404E+03  0.10000000000E+01 0.  0.
    9000005    1    3    3    0    0 -0.38362650648E+02  0.30291631904E+02  0.79930294047E+02  0.93697000137E+02  0.10000000000E+01 0.  0.
<mgrwt>
<rscale>  0 0.12500392E+03</rscale>
<asrwt>0</asrwt>
<pdfrwt beam="2">  1        4 0.13049635E-02 0.12500392E+03</pdfrwt>
<pdfrwt beam="1">  1       -4 0.70853637E-01 0.12500392E+03</pdfrwt>
<totfact> 0.58344855E+03</totfact>
</mgrwt>
</event>
<event>
 5    1  0.3184438E-002  0.1250013E+03  0.7818608E-02  0.1235067E+00
         -4   -1    0    0    0  501 -0.00000000000E+00  0.00000000000E+00  0.56589814283E+02  0.56604063287E+02  0.12700000000E+01 0.  1.
          4   -1    0    0  501    0  0.00000000000E+00 -0.00000000000E+00 -0.69000085509E+02  0.69011772186E+02  0.12700000000E+01 0.  1.
         25    2    1    2    0    0  0.00000000000E+00  0.00000000000E+00 -0.12410271226E+02  0.12561583547E+03  0.12500129315E+03 0.  0.
    9000005    1    3    3    0    0  0.19377071836E+00  0.61077695651E+02 -0.19491647978E+02  0.64120564518E+02  0.10000000000E+01 0.  0.
    9000005    1    3    3    0    0 -0.19377071836E+00 -0.61077695651E+02  0.70813767520E+01  0.61495270955E+02  0.10000000000E+01 0.  0.
<mgrwt>
<rscale>  0 0.12500129E+03</rscale>
<asrwt>0</asrwt>
<pdfrwt beam="2">  1        4 0.10617393E-01 0.12500129E+03</pdfrwt>
<pdfrwt beam="1">  1       -4 0.87081203E-02 0.12500129E+03</pdfrwt>
<totfact> 0.10439093E+04</totfact>
</mgrwt>
</event>
<event>
 5    1  0.3184438E-002  0.1249952E+03  0.7818608E-02  0.1235077E+00
          4   -1    0    0  501    0  0.00000000000E+00  0.00000000000E+00  0.36352263753E+02  0.36374441302E+02  0.12700000000E+01 0.  1.
         -4   -1    0    0    0  501 -0.00000000000E+00 -0.00000000000E+00 -0.10738851344E+03  0.10739602282E+03  0.12700000000E+01 0.  1.
         25    2    1    2    0    0  0.00000000000E+00  0.00000000000E+00 -0.71036249682E+02  0.14377046412E+03  0.12499519025E+03 0.  0.
    9000005    1    3    3    0    0  0.16456250779E+02  0.33941694762E+02  0.21786046193E+02  0.43571534765E+02  0.10000000000E+01 0.  0.
    9000005    1    3    3    0    0 -0.16456250779E+02 -0.33941694762E+02 -0.92822295875E+02  0.10019892936E+03  0.10000000000E+01 0.  0.
<mgrwt>
<rscale>  0 0.12499519E+03</rscale>
<asrwt>0</asrwt>
<pdfrwt beam="1">  1        4 0.55949396E-02 0.12499519E+03</pdfrwt>
<pdfrwt beam="2">  1       -4 0.16523593E-01 0.12499519E+03</pdfrwt>
<totfact> 0.10057119E+04</totfact>
</mgrwt>
</event>
<event>
 5    1  0.3184438E-002  0.1250143E+03  0.7818608E-02  0.1235047E+00
         -4   -1    0    0    0  501 -0.00000000000E+00  0.00000000000E+00  0.82371507863E+02  0.82381297681E+02  0.12700000000E+01 0. -1.
          4   -1    0    0  501    0  0.00000000000E+00 -0.00000000000E+00 -0.47412099026E+02  0.47429105348E+02  0.12700000000E+01 0. -1.
         25    2    1    2    0    0  0.00000000000E+00  0.00000000000E+00  0.34959408837E+02  0.12981040303E+03  0.12501432105E+03 0.  0.
    9000005    1    3    3    0    0  0.34107780824E+02 -0.27809148022E+02 -0.28601395723E+02  0.52495040373E+02  0.10000000000E+01 0.  0.
    9000005    1    3    3    0    0 -0.34107780824E+02  0.27809148022E+02  0.63560804559E+02  0.77315362656E+02  0.10000000000E+01 0.  0.
<mgrwt>
<rscale>  0 0.12501432E+03</rscale>
<asrwt>0</asrwt>
<pdfrwt beam="2">  1        4 0.72962303E-02 0.12501432E+03</pdfrwt>
<pdfrwt beam="1">  1       -4 0.12674601E-01 0.12501432E+03</pdfrwt>
<totfact> 0.10345220E+04</totfact>
</mgrwt>
</event>
<event>
 5    1  0.3184438E-002  0.1249986E+03  0.7818608E-02  0.1235072E+00
          4   -1    0    0  501    0  0.00000000000E+00  0.00000000000E+00  0.79955333871E+02  0.79965419491E+02  0.12700000000E+01 0. -1.
         -4   -1    0    0    0  501 -0.00000000000E+00 -0.00000000000E+00 -0.48832857615E+02  0.48849369318E+02  0.12700000000E+01 0. -1.
         25    2    1    2    0    0  0.00000000000E+00  0.00000000000E+00  0.31122476256E+02  0.12881478881E+03  0.12499856514E+03 0.  0.
    9000005    1    3    3    0    0  0.38208457050E+02 -0.29434291462E+02 -0.25387219227E+02  0.54513985398E+02  0.10000000000E+01 0.  0.
    9000005    1    3    3    0    0 -0.38208457050E+02  0.29434291462E+02  0.56509695483E+02  0.74300803411E+02  0.10000000000E+01 0.  0.
<mgrwt>
<rscale>  0 0.12499857E+03</rscale>
<asrwt>0</asrwt>
<pdfrwt beam="1">  1        4 0.12302866E-01 0.12499857E+03</pdfrwt>
<pdfrwt beam="2">  1       -4 0.75147934E-02 0.12499857E+03</pdfrwt>
<totfact> 0.10370264E+04</totfact>
</mgrwt>
</event>
<event>
 5    1  0.3184438E-002  0.1249820E+03  0.7818608E-02  0.1235097E+00
         -4   -1    0    0    0  501 -0.00000000000E+00  0.00000000000E+00  0.13988529345E+02  0.14046061841E+02  0.12700000000E+01 0. -1.
          4   -1    0    0  501    0  0.00000000000E+00 -0.00000000000E+00 -0.27853425161E+03  0.27853714693E+03  0.12700000000E+01 0. -1.
         25    2    1    2    0    0  0.00000000000E+00  0.00000000000E+00 -0.26454572226E+03  0.29258320877E+03  0.12498197825E+03 0.  0.
    9000005    1    3    3    0    0 -0.54660447274E+01 -0.58397614256E+02 -0.81848026143E+02  0.10069884994E+03  0.10000000000E+01 0.  0.
    9000005    1    3    3    0    0  0.54660447274E+01  0.58397614256E+02 -0.18269769612E+03  0.19188435883E+03  0.10000000000E+01 0.  0.
<mgrwt>
<rscale>  0 0.12498198E+03</rscale>
<asrwt>0</asrwt>
<pdfrwt beam="2">  1        4 0.42856067E-01 0.12498198E+03</pdfrwt>
<pdfrwt beam="1">  1       -4 0.21567299E-02 0.12498198E+03</pdfrwt>
<totfact> 0.76569352E+03</totfact>
</mgrwt>
</event>
<event>
 5    1  0.3184438E-002  0.1250000E+03  0.7818608E-02  0.1235069E+00
          4   -1    0    0  501    0  0.00000000000E+00  0.00000000000E+00  0.91393416457E+02  0.91402239971E+02  0.12700000000E+01 0. -1.
         -4   -1    0    0    0  501 -0.00000000000E+00 -0.00000000000E+00 -0.42720731195E+02  0.42739604278E+02  0.12700000000E+01 0. -1.
         25    2    1    2    0    0  0.00000000000E+00  0.00000000000E+00  0.48672685263E+02  0.13414184425E+03  0.12500001635E+03 0.  0.
    9000005    1    3    3    0    0  0.29071080466E+02 -0.48422807335E+02 -0.43658464702E+01  0.56656478933E+02  0.10000000000E+01 0.  0.
    9000005    1    3    3    0    0 -0.29071080466E+02  0.48422807335E+02  0.53038531733E+02  0.77485365316E+02  0.10000000000E+01 0.  0.
<mgrwt>
<rscale>  0 0.12500002E+03</rscale>
<asrwt>0</asrwt>
<pdfrwt beam="1">  1        4 0.14062656E-01 0.12500002E+03</pdfrwt>
<pdfrwt beam="2">  1       -4 0.65745508E-02 0.12500002E+03</pdfrwt>
<totfact> 0.10256187E+04</totfact>
</mgrwt>
</event>
<event>
 5    1  0.3184438E-002  0.1250029E+03  0.7818608E-02  0.1235065E+00
         -4   -1    0    0    0  501 -0.00000000000E+00  0.00000000000E+00  0.81257890319E+03  0.81257989564E+03  0.12700000000E+01 0.  1.
          4   -1    0    0  501    0  0.00000000000E+00 -0.00000000000E+00 -0.47225606940E+01  0.48903455408E+01  0.12700000000E+01 0.  1.
         25    2    1    2    0    0  0.00000000000E+00  0.00000000000E+00  0.80785634249E+03  0.81747024118E+03  0.12500290043E+03 0.  0.
    9000005    1    3    3    0    0  0.24510408722E+02  0.53180403050E+02  0.54668291489E+03  0.54981099010E+03  0.10000000000E+01 0.  0.
    9000005    1    3    3    0    0 -0.24510408722E+02 -0.53180403050E+02  0.26117342760E+03  0.26765925108E+03  0.10000000000E+01 0.  0.
<mgrwt>
<rscale>  0 0.12500290E+03</rscale>
<asrwt>0</asrwt>
<pdfrwt beam="2">  1        4 0.73953024E-03 0.12500290E+03</pdfrwt>
<pdfrwt beam="1">  1       -4 0.12502519E+00 0.12500290E+03</pdfrwt>
<totfact> 0.37494214E+03</totfact>
</mgrwt>
</event>
<event>
 5    1  0.3184438E-002  0.1250008E+03  0.7818608E-02  0.1235068E+00
         -4   -1    0    0    0  501 -0.00000000000E+00  0.00000000000E+00  0.45450894692E+02  0.45468634555E+02  0.12700000000E+01 0.  1.
          4   -1    0    0  501    0  0.00000000000E+00 -0.00000000000E+00 -0.85906258234E+02  0.85915645279E+02  0.12700000000E+01 0.  1.
         25    2    1    2    0    0  0.00000000000E+00  0.00000000000E+00 -0.40455363541E+02  0.13138427983E+03  0.12500077019E+03 0.  0.
    9000005    1    3    3    0    0 -0.15203955727E+02 -0.59941478840E+02 -0.10758909765E+02  0.62776550516E+02  0.10000000000E+01 0.  0.
    9000005    1    3    3    0    0  0.15203955727E+02  0.59941478840E+02 -0.29696453776E+02  0.68607729318E+02  0.10000000000E+01 0.  0.
<mgrwt>
<rscale>  0 0.12500077E+03</rscale>
<asrwt>0</asrwt>
<pdfrwt beam="2">  1        4 0.13218434E-01 0.12500077E+03</pdfrwt>
<pdfrwt beam="1">  1       -4 0.69945320E-02 0.12500077E+03</pdfrwt>
<totfact> 0.10314679E+04</totfact>
</mgrwt>
</event>
<event>
 5    1  0.3184438E-002  0.1250016E+03  0.7818608E-02  0.1235067E+00
          4   -1    0    0  501    0  0.00000000000E+00  0.00000000000E+00  0.55845816316E+03  0.55845960722E+03  0.12700000000E+01 0. -1.
         -4   -1    0    0    0  501 -0.00000000000E+00 -0.00000000000E+00 -0.69357678660E+01  0.70510833133E+01  0.12700000000E+01 0. -1.
         25    2    1    2    0    0  0.00000000000E+00  0.00000000000E+00  0.55152239529E+03  0.56551069053E+03  0.12500155439E+03 0.  0.
    9000005    1    3    3    0    0  0.37301040554E+02 -0.49981656393E+02  0.25777082889E+03  0.26520998064E+03  0.10000000000E+01 0.  0.
    9000005    1    3    3    0    0 -0.37301040554E+02  0.49981656393E+02  0.29375156640E+03  0.30030070990E+03  0.10000000000E+01 0.  0.
<mgrwt>
<rscale>  0 0.12500155E+03</rscale>
<asrwt>0</asrwt>
<pdfrwt beam="1">  1        4 0.85925595E-01 0.12500155E+03</pdfrwt>
<pdfrwt beam="2">  1       -4 0.10760230E-02 0.12500155E+03</pdfrwt>
<totfact> 0.51117917E+03</totfact>
</mgrwt>
</event>
<event>
 5    1  0.3184438E-002  0.1250043E+03  0.7818608E-02  0.1235063E+00
          4   -1    0    0  501    0  0.00000000000E+00  0.00000000000E+00  0.54045205930E+02  0.54060125638E+02  0.12700000000E+01 0. -1.
         -4   -1    0    0    0  501 -0.00000000000E+00 -0.00000000000E+00 -0.72251914431E+02  0.72263075211E+02  0.12700000000E+01 0. -1.
         25    2    1    2    0    0  0.00000000000E+00  0.00000000000E+00 -0.18206708502E+02  0.12632320085E+03  0.12500426728E+03 0.  0.
    9000005    1    3    3    0    0  0.35431794019E+02  0.12428132638E+02 -0.59586893136E+02  0.70437691201E+02  0.10000000000E+01 0.  0.
    9000005    1    3    3    0    0 -0.35431794019E+02 -0.12428132638E+02  0.41380184634E+02  0.55885509648E+02  0.10000000000E+01 0.  0.
<mgrwt>
<rscale>  0 0.12500427E+03</rscale>
<asrwt>0</asrwt>
<pdfrwt beam="1">  1        4 0.83166532E-02 0.12500427E+03</pdfrwt>
<pdfrwt beam="2">  1       -4 0.11117685E-01 0.12500427E+03</pdfrwt>
<totfact> 0.10422883E+04</totfact>
</mgrwt>
</event>
<event>
 5    1  0.3184438E-002  0.1250006E+03  0.7818608E-02  0.1235068E+00
          4   -1    0    0  501    0  0.00000000000E+00  0.00000000000E+00  0.18949927810E+03  0.18950353374E+03  0.12700000000E+01 0.  1.
         -4   -1    0    0    0  501 -0.00000000000E+00 -0.00000000000E+00 -0.20589694886E+02  0.20628825354E+02  0.12700000000E+01 0.  1.
         25    2    1    2    0    0  0.00000000000E+00  0.00000000000E+00  0.16890958321E+03  0.21013235909E+03  0.12500064415E+03 0.  0.
    9000005    1    3    3    0    0  0.46119191712E+01  0.62309154344E+02  0.82335237416E+02  0.10336242951E+03  0.10000000000E+01 0.  0.
    9000005    1    3    3    0    0 -0.46119191712E+01 -0.62309154344E+02  0.86574345797E+02  0.10676992959E+03  0.10000000000E+01 0.  0.
<mgrwt>
<rscale>  0 0.12500064E+03</rscale>
<asrwt>0</asrwt>
<pdfrwt beam="1">  1        4 0.29157073E-01 0.12500064E+03</pdfrwt>
<pdfrwt beam="2">  1       -4 0.31709827E-02 0.12500064E+03</pdfrwt>
<totfact> 0.88452994E+03</totfact>
</mgrwt>
</event>
<event>
 5    1  0.3184438E-002  0.1250009E+03  0.7818608E-02  0.1235068E+00
          4   -1    0    0  501    0  0.00000000000E+00  0.00000000000E+00  0.11341137308E+02  0.11412024161E+02  0.12700000000E+01 0.  1.
         -4   -1    0    0    0  501 -0.00000000000E+00 -0.00000000000E+00 -0.34329190662E+03  0.34329425578E+03  0.12700000000E+01 0.  1.
         25    2    1    2    0    0  0.00000000000E+00  0.00000000000E+00 -0.33195076931E+03  0.35470627994E+03  0.12500092713E+03 0.  0.
    9000005    1    3    3    0    0  0.88594403747E+01 -0.60724517663E+02 -0.13247799036E+03  0.14600470766E+03  0.10000000000E+01 0.  0.
    9000005    1    3    3    0    0 -0.88594403747E+01  0.60724517663E+02 -0.19947277896E+03  0.20870157228E+03  0.10000000000E+01 0.  0.
<mgrwt>
<rscale>  0 0.12500093E+03</rscale>
<asrwt>0</asrwt>
<pdfrwt beam="1">  1        4 0.17504242E-02 0.12500093E+03</pdfrwt>
<pdfrwt beam="2">  1       -4 0.52819765E-01 0.12500093E+03</pdfrwt>
<totfact> 0.69208476E+03</totfact>
</mgrwt>
</event>
<event>
 5    1  0.3184438E-002  0.1249990E+03  0.7818608E-02  0.1235071E+00
          4   -1    0    0  501    0  0.00000000000E+00  0.00000000000E+00  0.29016600335E+03  0.29016878261E+03  0.12700000000E+01 0. -1.
         -4   -1    0    0    0  501 -0.00000000000E+00 -0.00000000000E+00 -0.13429104451E+02  0.13489023180E+02  0.12700000000E+01 0. -1.
         25    2    1    2    0    0  0.00000000000E+00  0.00000000000E+00  0.27673689890E+03  0.30365780579E+03  0.12499900721E+03 0.  0.
    9000005    1    3    3    0    0 -0.61886921417E+02  0.54101979703E+01  0.15483150134E+03  0.16683241619E+03  0.10000000000E+01 0.  0.
    9000005    1    3    3    0    0  0.61886921417E+02 -0.54101979703E+01  0.12190539756E+03  0.13682538960E+03  0.10000000000E+01 0.  0.
<mgrwt>
<rscale>  0 0.12499901E+03</rscale>
<asrwt>0</asrwt>
<pdfrwt beam="1">  1        4 0.44645746E-01 0.12499901E+03</pdfrwt>
<pdfrwt beam="2">  1       -4 0.20708390E-02 0.12499901E+03</pdfrwt>
<totfact> 0.75143944E+03</totfact>
</mgrwt>
</event>
<event>
 5    1  0.3184438E-002  0.1250282E+03  0.7818608E-02  0.1235025E+00
          4   -1    0    0  501    0  0.00000000000E+00  0.00000000000E+00  0.21956850996E+01  0.25365198711E+01  0.12700000000E+01 0. -1.
         -4   -1    0    0    0  501 -0.00000000000E+00 -0.00000000000E+00 -0.16513243210E+04  0.16513248094E+04  0.12700000000E+01 0. -1.
         25    2    1    2    0    0  0.00000000000E+00  0.00000000000E+00 -0.16491286359E+04  0.16538613292E+04  0.12502815122E+03 0.  0.
    9000005    1    3    3    0    0  0.39739658834E+02  0.28442231476E+02 -0.13400811048E+04  0.13409722475E+04  0.10000000000E+01 0.  0.
    9000005    1    3    3    0    0 -0.39739658834E+02 -0.28442231476E+02 -0.30904753106E+03  0.31288908174E+03  0.10000000000E+01 0.  0.
<mgrwt>
<rscale>  0 0.12502815E+03</rscale>
<asrwt>0</asrwt>
<pdfrwt beam="1">  1        4 0.36405465E-03 0.12502815E+03</pdfrwt>
<pdfrwt beam="2">  1       -4 0.25407523E+00 0.12502815E+03</pdfrwt>
<totfact> 0.15083203E+03</totfact>
</mgrwt>
</event>
<event>
 5    1  0.3184438E-002  0.1249988E+03  0.7818608E-02  0.1235071E+00
         -4   -1    0    0    0  501 -0.00000000000E+00  0.00000000000E+00  0.10344008539E+03  0.10344788139E+03  0.12700000000E+01 0.  1.
          4   -1    0    0  501    0  0.00000000000E+00 -0.00000000000E+00 -0.37742806387E+02  0.37764167328E+02  0.12700000000E+01 0.  1.
         25    2    1    2    0    0  0.00000000000E+00  0.00000000000E+00  0.65697279000E+02  0.14121204872E+03  0.12499884094E+03 0.  0.
    9000005    1    3    3    0    0  0.27097248080E+02  0.49953944460E+01  0.96212635107E+02  0.10008539341E+03  0.10000000000E+01 0.  0.
    9000005    1    3    3    0    0 -0.27097248080E+02 -0.49953944460E+01 -0.30515356107E+02  0.41126655316E+02  0.10000000000E+01 0.  0.
<mgrwt>
<rscale>  0 0.12499884E+03</rscale>
<asrwt>0</asrwt>
<pdfrwt beam="2">  1        4 0.58088283E-02 0.12499884E+03</pdfrwt>
<pdfrwt beam="1">  1       -4 0.15916102E-01 0.12499884E+03</pdfrwt>
<totfact> 0.10108791E+04</totfact>
</mgrwt>
</event>
<event>
 5    1  0.3184438E-002  0.1249993E+03  0.7818608E-02  0.1235070E+00
         -4   -1    0    0    0  501 -0.00000000000E+00  0.00000000000E+00  0.21283221690E+02  0.21321079370E+02  0.12700000000E+01 0. -1.
          4   -1    0    0  501    0  0.00000000000E+00 -0.00000000000E+00 -0.18333131121E+03  0.18333571002E+03  0.12700000000E+01 0. -1.
         25    2    1    2    0    0  0.00000000000E+00  0.00000000000E+00 -0.16204808952E+03  0.20465678939E+03  0.12499927251E+03 0.  0.
    9000005    1    3    3    0    0  0.23577032583E+02  0.45742416629E+02 -0.22977109603E+02  0.56366592147E+02  0.10000000000E+01 0.  0.
    9000005    1    3    3    0    0 -0.23577032583E+02 -0.45742416629E+02 -0.13907097992E+03  0.14829019725E+03  0.10000000000E+01 0.  0.
<mgrwt>
<rscale>  0 0.12499927E+03</rscale>
<asrwt>0</asrwt>
<pdfrwt beam="2">  1        4 0.28208067E-01 0.12499927E+03</pdfrwt>
<pdfrwt beam="1">  1       -4 0.32775924E-02 0.12499927E+03</pdfrwt>
<totfact> 0.89357455E+03</totfact>
</mgrwt>
</event>
<event>
 5    1  0.3184438E-002  0.1249985E+03  0.7818608E-02  0.1235072E+00
          4   -1    0    0  501    0  0.00000000000E+00  0.00000000000E+00  0.55784637904E+02  0.55799092520E+02  0.12700000000E+01 0. -1.
         -4   -1    0    0    0  501 -0.00000000000E+00 -0.00000000000E+00 -0.69992776987E+02  0.70004297942E+02  0.12700000000E+01 0. -1.
         25    2    1    2    0    0  0.00000000000E+00  0.00000000000E+00 -0.14208139083E+02  0.12580339046E+03  0.12499848733E+03 0.  0.
    9000005    1    3    3    0    0 -0.57056970292E+02 -0.22112684351E+02 -0.19861924982E+02  0.64342557706E+02  0.10000000000E+01 0.  0.
    9000005    1    3    3    0    0  0.57056970292E+02  0.22112684351E+02  0.56537858992E+01  0.61460832756E+02  0.10000000000E+01 0.  0.
<mgrwt>
<rscale>  0 0.12499849E+03</rscale>
<asrwt>0</asrwt>
<pdfrwt beam="1">  1        4 0.85842501E-02 0.12499849E+03</pdfrwt>
<pdfrwt beam="2">  1       -4 0.10770118E-01 0.12499849E+03</pdfrwt>
<totfact> 0.10435627E+04</totfact>
</mgrwt>
</event>
<event>
 5    1  0.3184438E-002  0.1250014E+03  0.7818608E-02  0.1235067E+00
         -4   -1    0    0    0  501 -0.00000000000E+00  0.00000000000E+00  0.87766825077E+01  0.88680920068E+01  0.12700000000E+01 0. -1.
          4   -1    0    0  501    0  0.00000000000E+00 -0.00000000000E+00 -0.44268320692E+03  0.44268502865E+03  0.12700000000E+01 0. -1.
         25    2    1    2    0    0  0.00000000000E+00  0.00000000000E+00 -0.43390652441E+03  0.45155312066E+03  0.12500139537E+03 0.  0.
    9000005    1    3    3    0    0 -0.33122620513E+02  0.30019360238E+02 -0.37470603048E+03  0.37736438525E+03  0.10000000000E+01 0.  0.
    9000005    1    3    3    0    0  0.33122620513E+02 -0.30019360238E+02 -0.59200493933E+02  0.74188735403E+02  0.10000000000E+01 0.  0.
<mgrwt>
<rscale>  0 0.12500140E+03</rscale>
<asrwt>0</asrwt>
<pdfrwt beam="2">  1        4 0.68112263E-01 0.12500140E+03</pdfrwt>
<pdfrwt beam="1">  1       -4 0.13574308E-02 0.12500140E+03</pdfrwt>
<totfact> 0.59827653E+03</totfact>
</mgrwt>
</event>
<event>
 5    1  0.3184438E-002  0.1249952E+03  0.7818608E-02  0.1235077E+00
          4   -1    0    0  501    0  0.00000000000E+00  0.00000000000E+00  0.52714454806E+02  0.52729751047E+02  0.12700000000E+01 0. -1.
         -4   -1    0    0    0  501 -0.00000000000E+00 -0.00000000000E+00 -0.74064916789E+02  0.74075804409E+02  0.12700000000E+01 0. -1.
         25    2    1    2    0    0  0.00000000000E+00  0.00000000000E+00 -0.21350461983E+02  0.12680555546E+03  0.12499522658E+03 0.  0.
    9000005    1    3    3    0    0  0.56946700469E+02 -0.24381493529E+02 -0.23362195820E+01  0.61998724527E+02  0.10000000000E+01 0.  0.
    9000005    1    3    3    0    0 -0.56946700469E+02  0.24381493529E+02 -0.19014242401E+02  0.64806830929E+02  0.10000000000E+01 0.  0.
<mgrwt>
<rscale>  0 0.12499523E+03</rscale>
<asrwt>0</asrwt>
<pdfrwt beam="1">  1        4 0.81119303E-02 0.12499523E+03</pdfrwt>
<pdfrwt beam="2">  1       -4 0.11396617E-01 0.12499523E+03</pdfrwt>
<totfact> 0.10414495E+04</totfact>
</mgrwt>
</event>
<event>
 5    1  0.3184438E-002  0.1249985E+03  0.7818608E-02  0.1235072E+00
          4   -1    0    0  501    0  0.00000000000E+00  0.00000000000E+00  0.12581180004E+01  0.17876691257E+01  0.12700000000E+01 0.  1.
         -4   -1    0    0    0  501 -0.00000000000E+00 -0.00000000000E+00 -0.25644283985E+04  0.25644287130E+04  0.12700000000E+01 0.  1.
         25    2    1    2    0    0  0.00000000000E+00  0.00000000000E+00 -0.25631702805E+04  0.25662163821E+04  0.12499853170E+03 0.  0.
    9000005    1    3    3    0    0  0.14403182140E+02  0.19836313972E+02 -0.10147290240E+03  0.10439674770E+03  0.10000000000E+01 0.  0.
    9000005    1    3    3    0    0 -0.14403182140E+02 -0.19836313972E+02 -0.24616973781E+04  0.24618196344E+04  0.10000000000E+01 0.  0.
<mgrwt>
<rscale>  0 0.12499853E+03</rscale>
<asrwt>0</asrwt>
<pdfrwt beam="1">  1        4 0.23431756E-03 0.12499853E+03</pdfrwt>
<pdfrwt beam="2">  1       -4 0.39456475E+00 0.12499853E+03</pdfrwt>
<totfact> 0.41700585E+02</totfact>
</mgrwt>
</event>
<event>
 5    1  0.3184438E-002  0.1250005E+03  0.7818608E-02  0.1235068E+00
         -4   -1    0    0    0  501 -0.00000000000E+00  0.00000000000E+00  0.12092729305E+03  0.12093396175E+03  0.12700000000E+01 0. -1.
          4   -1    0    0  501    0  0.00000000000E+00 -0.00000000000E+00 -0.32282698401E+02  0.32307669617E+02  0.12700000000E+01 0. -1.
         25    2    1    2    0    0  0.00000000000E+00  0.00000000000E+00  0.88644594646E+02  0.15324163136E+03  0.12500053369E+03 0.  0.
    9000005    1    3    3    0    0  0.48908989598E+02 -0.37815819407E+02  0.33142945022E+02  0.70153975409E+02  0.10000000000E+01 0.  0.
    9000005    1    3    3    0    0 -0.48908989598E+02  0.37815819407E+02  0.55501649624E+02  0.83087655954E+02  0.10000000000E+01 0.  0.
<mgrwt>
<rscale>  0 0.12500053E+03</rscale>
<asrwt>0</asrwt>
<pdfrwt beam="2">  1        4 0.49690028E-02 0.12500053E+03</pdfrwt>
<pdfrwt beam="1">  1       -4 0.18606633E-01 0.12500053E+03</pdfrwt>
<totfact> 0.98660223E+03</totfact>
</mgrwt>
</event>
<event>
 5    1  0.3184438E-002  0.1249991E+03  0.7818608E-02  0.1235071E+00
          4   -1    0    0  501    0  0.00000000000E+00  0.00000000000E+00  0.73329629659E+02  0.73340626435E+02  0.12700000000E+01 0.  1.
         -4   -1    0    0    0  501 -0.00000000000E+00 -0.00000000000E+00 -0.53246431129E+02  0.53261574592E+02  0.12700000000E+01 0.  1.
         25    2    1    2    0    0  0.00000000000E+00  0.00000000000E+00  0.20083198529E+02  0.12660220103E+03  0.12499912976E+03 0.  0.
    9000005    1    3    3    0    0 -0.23479977692E+00 -0.13078094339E+02 -0.51849396083E+02  0.53483189477E+02  0.10000000000E+01 0.  0.
    9000005    1    3    3    0    0  0.23479977692E+00  0.13078094339E+02  0.71932594612E+02  0.73119011550E+02  0.10000000000E+01 0.  0.
<mgrwt>
<rscale>  0 0.12499913E+03</rscale>
<asrwt>0</asrwt>
<pdfrwt beam="1">  1        4 0.11283492E-01 0.12499913E+03</pdfrwt>
<pdfrwt beam="2">  1       -4 0.81937694E-02 0.12499913E+03</pdfrwt>
<totfact> 0.10418005E+04</totfact>
</mgrwt>
</event>
<event>
 5    1  0.3184438E-002  0.1249859E+03  0.7818608E-02  0.1235091E+00
          4   -1    0    0  501    0  0.00000000000E+00  0.00000000000E+00  0.38251037806E+02  0.38272115087E+02  0.12700000000E+01 0.  1.
         -4   -1    0    0    0  501 -0.00000000000E+00 -0.00000000000E+00 -0.10204519124E+03  0.10205309380E+03  0.12700000000E+01 0.  1.
         25    2    1    2    0    0  0.00000000000E+00  0.00000000000E+00 -0.63794153431E+02  0.14032520889E+03  0.12498588015E+03 0.  0.
    9000005    1    3    3    0    0  0.57612805452E+02  0.47766127969E+01 -0.58520569673E+02  0.82266083271E+02  0.10000000000E+01 0.  0.
    9000005    1    3    3    0    0 -0.57612805452E+02 -0.47766127969E+01 -0.52735837577E+01  0.58059125618E+02  0.10000000000E+01 0.  0.
<mgrwt>
<rscale>  0 0.12498588E+03</rscale>
<asrwt>0</asrwt>
<pdfrwt beam="1">  1        4 0.58870043E-02 0.12498588E+03</pdfrwt>
<pdfrwt beam="2">  1       -4 0.15701489E-01 0.12498588E+03</pdfrwt>
<totfact> 0.10130072E+04</totfact>
</mgrwt>
</event>
<event>
 5    1  0.3184438E-002  0.1250017E+03  0.7818608E-02  0.1235067E+00
         -4   -1    0    0    0  501 -0.00000000000E+00  0.00000000000E+00  0.63214941967E+01  0.64478049660E+01  0.12700000000E+01 0. -1.
          4   -1    0    0  501    0  0.00000000000E+00 -0.00000000000E+00 -0.61170861365E+03  0.61170993200E+03  0.12700000000E+01 0. -1.
         25    2    1    2    0    0  0.00000000000E+00  0.00000000000E+00 -0.60538711945E+03  0.61815773697E+03  0.12500169350E+03 0.  0.
    9000005    1    3    3    0    0 -0.17101647759E+02 -0.39481306590E+01 -0.60930813318E+01  0.18605905834E+02  0.10000000000E+01 0.  0.
    9000005    1    3    3    0    0  0.17101647759E+02  0.39481306590E+01 -0.59929403812E+03  0.59955183113E+03  0.10000000000E+01 0.  0.
<mgrwt>
<rscale>  0 0.12500169E+03</rscale>
<asrwt>0</asrwt>
<pdfrwt beam="2">  1        4 0.94118788E-01 0.12500169E+03</pdfrwt>
<pdfrwt beam="1">  1       -4 0.98235568E-03 0.12500169E+03</pdfrwt>
<totfact> 0.47739387E+03</totfact>
</mgrwt>
</event>
<event>
 5    1  0.3184438E-002  0.1249968E+03  0.7818608E-02  0.1235074E+00
          4   -1    0    0  501    0  0.00000000000E+00  0.00000000000E+00  0.46941625858E+03  0.46941797656E+03  0.12700000000E+01 0.  1.
         -4   -1    0    0    0  501 -0.00000000000E+00 -0.00000000000E+00 -0.82708807853E+01  0.83678174553E+01  0.12700000000E+01 0.  1.
         25    2    1    2    0    0  0.00000000000E+00  0.00000000000E+00  0.46114537780E+03  0.47778579402E+03  0.12499682197E+03 0.  0.
    9000005    1    3    3    0    0  0.43206844275E+02 -0.30176337177E+02  0.10221749048E+03  0.11500807831E+03  0.10000000000E+01 0.  0.
    9000005    1    3    3    0    0 -0.43206844275E+02  0.30176337177E+02  0.35892788732E+03  0.36277771571E+03  0.10000000000E+01 0.  0.
<mgrwt>
<rscale>  0 0.12499682E+03</rscale>
<asrwt>0</asrwt>
<pdfrwt beam="1">  1        4 0.72225483E-01 0.12499682E+03</pdfrwt>
<pdfrwt beam="2">  1       -4 0.12800319E-02 0.12499682E+03</pdfrwt>
<totfact> 0.57634096E+03</totfact>
</mgrwt>
</event>
<event>
 5    1  0.3184438E-002  0.1250092E+03  0.7818608E-02  0.1235055E+00
          4   -1    0    0  501    0  0.00000000000E+00  0.00000000000E+00  0.12337744053E+02  0.12402936278E+02  0.12700000000E+01 0. -1.
         -4   -1    0    0    0  501 -0.00000000000E+00 -0.00000000000E+00 -0.31575550822E+03  0.31575806224E+03  0.12700000000E+01 0. -1.
         25    2    1    2    0    0  0.00000000000E+00  0.00000000000E+00 -0.30341776416E+03  0.32816099852E+03  0.12500920501E+03 0.  0.
    9000005    1    3    3    0    0 -0.12340007599E+02 -0.60029435795E+02 -0.11955641376E+03  0.13435231676E+03  0.10000000000E+01 0.  0.
    9000005    1    3    3    0    0  0.12340007599E+02  0.60029435795E+02 -0.18386135041E+03  0.19380868175E+03  0.10000000000E+01 0.  0.
<mgrwt>
<rscale>  0 0.12500921E+03</rscale>
<asrwt>0</asrwt>
<pdfrwt beam="1">  1        4 0.19033260E-02 0.12500921E+03</pdfrwt>
<pdfrwt beam="2">  1       -4 0.48582976E-01 0.12500921E+03</pdfrwt>
<totfact> 0.72181162E+03</totfact>
</mgrwt>
</event>
<event>
 5    1  0.3184438E-002  0.1250038E+03  0.7818608E-02  0.1235063E+00
         -4   -1    0    0    0  501 -0.00000000000E+00  0.00000000000E+00  0.20489805633E+03  0.20490199215E+03  0.12700000000E+01 0. -1.
          4   -1    0    0  501    0  0.00000000000E+00 -0.00000000000E+00 -0.19040229751E+02  0.19082537802E+02  0.12700000000E+01 0. -1.
         25    2    1    2    0    0  0.00000000000E+00  0.00000000000E+00  0.18585782658E+03  0.22398452996E+03  0.12500375178E+03 0.  0.
    9000005    1    3    3    0    0  0.27365899788E+01  0.75300969753E+01 -0.18124958624E+02  0.19842011246E+02  0.10000000000E+01 0.  0.
    9000005    1    3    3    0    0 -0.27365899788E+01 -0.75300969753E+01  0.20398278521E+03  0.20414251871E+03  0.10000000000E+01 0.  0.
<mgrwt>
<rscale>  0 0.12500375E+03</rscale>
<asrwt>0</asrwt>
<pdfrwt beam="2">  1        4 0.29328234E-02 0.12500375E+03</pdfrwt>
<pdfrwt beam="1">  1       -4 0.31526335E-01 0.12500375E+03</pdfrwt>
<totfact> 0.86234526E+03</totfact>
</mgrwt>
</event>
<event>
 5    1  0.3184438E-002  0.1249977E+03  0.7818608E-02  0.1235073E+00
          4   -1    0    0  501    0  0.00000000000E+00  0.00000000000E+00  0.83320505659E+01  0.84282837299E+01  0.12700000000E+01 0.  1.
         -4   -1    0    0    0  501 -0.00000000000E+00 -0.00000000000E+00 -0.46601629285E+03  0.46601802337E+03  0.12700000000E+01 0.  1.
         25    2    1    2    0    0  0.00000000000E+00  0.00000000000E+00 -0.45768424229E+03  0.47444630710E+03  0.12499773071E+03 0.  0.
    9000005    1    3    3    0    0  0.26045095346E+02 -0.51690916563E+02 -0.13943806783E+03  0.15097772222E+03  0.10000000000E+01 0.  0.
    9000005    1    3    3    0    0 -0.26045095346E+02  0.51690916563E+02 -0.31824617445E+03  0.32346858487E+03  0.10000000000E+01 0.  0.
<mgrwt>
<rscale>  0 0.12499773E+03</rscale>
<asrwt>0</asrwt>
<pdfrwt beam="1">  1        4 0.12893900E-02 0.12499773E+03</pdfrwt>
<pdfrwt beam="2">  1       -4 0.71702330E-01 0.12499773E+03</pdfrwt>
<totfact> 0.57905900E+03</totfact>
</mgrwt>
</event>
<event>
 5    1  0.3184438E-002  0.1250031E+03  0.7818608E-02  0.1235064E+00
         -4   -1    0    0    0  501 -0.00000000000E+00  0.00000000000E+00  0.12435094563E+03  0.12435743074E+03  0.12700000000E+01 0.  1.
          4   -1    0    0  501    0  0.00000000000E+00 -0.00000000000E+00 -0.31394523248E+02  0.31420200348E+02  0.12700000000E+01 0.  1.
         25    2    1    2    0    0  0.00000000000E+00  0.00000000000E+00  0.92956422387E+02  0.15577763109E+03  0.12500309550E+03 0.  0.
    9000005    1    3    3    0    0  0.26101647941E+02  0.56551261966E+02  0.52845037713E+02  0.81688060732E+02  0.10000000000E+01 0.  0.
    9000005    1    3    3    0    0 -0.26101647941E+02 -0.56551261966E+02  0.40111384674E+02  0.74089570357E+02  0.10000000000E+01 0.  0.
<mgrwt>
<rscale>  0 0.12500310E+03</rscale>
<asrwt>0</asrwt>
<pdfrwt beam="2">  1        4 0.48324007E-02 0.12500310E+03</pdfrwt>
<pdfrwt beam="1">  1       -4 0.19133389E-01 0.12500310E+03</pdfrwt>
<totfact> 0.98156223E+03</totfact>
</mgrwt>
</event>
<event>
 5    1  0.3184438E-002  0.1249914E+03  0.7818608E-02  0.1235083E+00
          4   -1    0    0  501    0  0.00000000000E+00  0.00000000000E+00  0.27896386553E+03  0.27896675639E+03  0.12700000000E+01 0. -1.
         -4   -1    0    0    0  501 -0.00000000000E+00 -0.00000000000E+00 -0.13969020959E+02  0.14026633472E+02  0.12700000000E+01 0. -1.
         25    2    1    2    0    0  0.00000000000E+00  0.00000000000E+00  0.26499484457E+03  0.29299338986E+03  0.12499143512E+03 0.  0.
    9000005    1    3    3    0    0  0.33672911066E+02  0.11879687729E+02  0.25270519580E+03  0.25521737383E+03  0.10000000000E+01 0.  0.
    9000005    1    3    3    0    0 -0.33672911066E+02 -0.11879687729E+02  0.12289648767E+02  0.37776016029E+02  0.10000000000E+01 0.  0.
<mgrwt>
<rscale>  0 0.12499144E+03</rscale>
<asrwt>0</asrwt>
<pdfrwt beam="1">  1        4 0.42922167E-01 0.12499144E+03</pdfrwt>
<pdfrwt beam="2">  1       -4 0.21537345E-02 0.12499144E+03</pdfrwt>
<totfact> 0.76500778E+03</totfact>
</mgrwt>
</event>
<event>
 5    1  0.3184438E-002  0.1249949E+03  0.7818608E-02  0.1235077E+00
         -4   -1    0    0    0  501 -0.00000000000E+00  0.00000000000E+00  0.10859392494E+03  0.10860135097E+03  0.12700000000E+01 0. -1.
          4   -1    0    0  501    0  0.00000000000E+00 -0.00000000000E+00 -0.35948334662E+02  0.35970761251E+02  0.12700000000E+01 0. -1.
         25    2    1    2    0    0  0.00000000000E+00  0.00000000000E+00  0.72645590273E+02  0.14457211222E+03  0.12499485528E+03 0.  0.
    9000005    1    3    3    0    0 -0.36938379759E+02 -0.45452521763E+02  0.61518973319E+02  0.84946805190E+02  0.10000000000E+01 0.  0.
    9000005    1    3    3    0    0  0.36938379759E+02  0.45452521763E+02  0.11126616955E+02  0.59625307033E+02  0.10000000000E+01 0.  0.
<mgrwt>
<rscale>  0 0.12499486E+03</rscale>
<asrwt>0</asrwt>
<pdfrwt beam="2">  1        4 0.55328094E-02 0.12499486E+03</pdfrwt>
<pdfrwt beam="1">  1       -4 0.16709054E-01 0.12499486E+03</pdfrwt>
<totfact> 0.10040853E+04</totfact>
</mgrwt>
</event>
<event>
 5    1  0.3184438E-002  0.1250049E+03  0.7818608E-02  0.1235062E+00
         -4   -1    0    0    0  501 -0.00000000000E+00  0.00000000000E+00  0.15669044908E+02  0.15720428376E+02  0.12700000000E+01 0. -1.
          4   -1    0    0  501    0  0.00000000000E+00 -0.00000000000E+00 -0.24885585973E+03  0.24885910034E+03  0.12700000000E+01 0. -1.
         25    2    1    2    0    0  0.00000000000E+00  0.00000000000E+00 -0.23318681483E+03  0.26457952872E+03  0.12500494554E+03 0.  0.
    9000005    1    3    3    0    0  0.77528345659E+01 -0.13708617058E+02  0.11410369027E+02  0.19473806684E+02  0.10000000000E+01 0.  0.
    9000005    1    3    3    0    0 -0.77528345659E+01  0.13708617058E+02 -0.24459718385E+03  0.24510572204E+03  0.10000000000E+01 0.  0.
<mgrwt>
<rscale>  0 0.12500495E+03</rscale>
<asrwt>0</asrwt>
<pdfrwt beam="2">  1        4 0.38289716E-01 0.12500495E+03</pdfrwt>
<pdfrwt beam="1">  1       -4 0.24148243E-02 0.12500495E+03</pdfrwt>
<totfact> 0.80258822E+03</totfact>
</mgrwt>
</event>
<event>
 5    1  0.3184438E-002  0.1250043E+03  0.7818608E-02  0.1235063E+00
          4   -1    0    0  501    0  0.00000000000E+00  0.00000000000E+00  0.15940807646E+03  0.15941313541E+03  0.12700000000E+01 0.  1.
         -4   -1    0    0    0  501 -0.00000000000E+00 -0.00000000000E+00 -0.24484481053E+02  0.24517396118E+02  0.12700000000E+01 0.  1.
         25    2    1    2    0    0  0.00000000000E+00  0.00000000000E+00  0.13492359540E+03  0.18393053152E+03  0.12500425525E+03 0.  0.
    9000005    1    3    3    0    0  0.28167483834E+02  0.55786101080E+02  0.67255077966E+02  0.91813624977E+02  0.10000000000E+01 0.  0.
    9000005    1    3    3    0    0 -0.28167483834E+02 -0.55786101080E+02  0.67668517439E+02  0.92116906547E+02  0.10000000000E+01 0.  0.
<mgrwt>
<rscale>  0 0.12500426E+03</rscale>
<asrwt>0</asrwt>
<pdfrwt beam="1">  1        4 0.24527240E-01 0.12500426E+03</pdfrwt>
<pdfrwt beam="2">  1       -4 0.37697644E-02 0.12500426E+03</pdfrwt>
<totfact> 0.92905381E+03</totfact>
</mgrwt>
</event>
<event>
 5    1  0.3184438E-002  0.1250006E+03  0.7818608E-02  0.1235068E+00
          4   -1    0    0  501    0  0.00000000000E+00  0.00000000000E+00  0.48686839111E+01  0.50315984564E+01  0.12700000000E+01 0. -1.
         -4   -1    0    0    0  501 -0.00000000000E+00 -0.00000000000E+00 -0.78896334440E+03  0.78896436657E+03  0.12700000000E+01 0. -1.
         25    2    1    2    0    0  0.00000000000E+00  0.00000000000E+00 -0.78409466049E+03  0.79399596502E+03  0.12500062344E+03 0.  0.
    9000005    1    3    3    0    0  0.62489339159E+02  0.44181094665E+00 -0.38938057816E+03  0.39436448541E+03  0.10000000000E+01 0.  0.
    9000005    1    3    3    0    0 -0.62489339159E+02 -0.44181094665E+00 -0.39471408233E+03  0.39963147961E+03  0.10000000000E+01 0.  0.
<mgrwt>
<rscale>  0 0.12500062E+03</rscale>
<asrwt>0</asrwt>
<pdfrwt beam="1">  1        4 0.76163944E-03 0.12500062E+03</pdfrwt>
<pdfrwt beam="2">  1       -4 0.12139149E+00 0.12500062E+03</pdfrwt>
<totfact> 0.38533675E+03</totfact>
</mgrwt>
</event>
<event>
 5    1  0.3184438E-002  0.1249403E+03  0.7818608E-02  0.1235163E+00
         -4   -1    0    0    0  501 -0.00000000000E+00  0.00000000000E+00  0.33040722866E+03  0.33040966942E+03  0.12700000000E+01 0. -1.
          4   -1    0    0  501    0  0.00000000000E+00 -0.00000000000E+00 -0.11774615476E+02  0.11842907988E+02  0.12700000000E+01 0. -1.
         25    2    1    2    0    0  0.00000000000E+00  0.00000000000E+00  0.31863261318E+03  0.34225257741E+03  0.12494032400E+03 0.  0.
    9000005    1    3    3    0    0  0.19715775325E+02 -0.58273669926E+02  0.12968736579E+03  0.14354213753E+03  0.10000000000E+01 0.  0.
    9000005    1    3    3    0    0 -0.19715775325E+02  0.58273669926E+02  0.18894524739E+03  0.19871043988E+03  0.10000000000E+01 0.  0.
<mgrwt>
<rscale>  0 0.12494032E+03</rscale>
<asrwt>0</asrwt>
<pdfrwt beam="2">  1        4 0.18169207E-02 0.12494032E+03</pdfrwt>
<pdfrwt beam="1">  1       -4 0.50837313E-01 0.12494032E+03</pdfrwt>
<totfact> 0.70678704E+03</totfact>
</mgrwt>
</event>
<event>
 5    1  0.3184438E-002  0.1250001E+03  0.7818608E-02  0.1235069E+00
          4   -1    0    0  501    0  0.00000000000E+00  0.00000000000E+00  0.38070311221E+01  0.40132762133E+01  0.12700000000E+01 0.  1.
         -4   -1    0    0    0  501 -0.00000000000E+00 -0.00000000000E+00 -0.99879643618E+03  0.99879724360E+03  0.12700000000E+01 0.  1.
         25    2    1    2    0    0  0.00000000000E+00  0.00000000000E+00 -0.99498940506E+03  0.10028105198E+04  0.12500008989E+03 0.  0.
    9000005    1    3    3    0    0 -0.12551965476E+02 -0.12072132153E+02 -0.16014488188E+02  0.23680203630E+02  0.10000000000E+01 0.  0.
    9000005    1    3    3    0    0  0.12551965476E+02  0.12072132153E+02 -0.97897491687E+03  0.97913031618E+03  0.10000000000E+01 0.  0.
<mgrwt>
<rscale>  0 0.12500009E+03</rscale>
<asrwt>0</asrwt>
<pdfrwt beam="1">  1        4 0.60162501E-03 0.12500009E+03</pdfrwt>
<pdfrwt beam="2">  1       -4 0.15367671E+00 0.12500009E+03</pdfrwt>
<totfact> 0.30511847E+03</totfact>
</mgrwt>
</event>
<event>
 5    1  0.3184438E-002  0.1249996E+03  0.7818608E-02  0.1235070E+00
          4   -1    0    0  501    0  0.00000000000E+00  0.00000000000E+00  0.56461374449E+02  0.56475655859E+02  0.12700000000E+01 0. -1.
         -4   -1    0    0    0  501 -0.00000000000E+00 -0.00000000000E+00 -0.69155145000E+02  0.69166805477E+02  0.12700000000E+01 0. -1.
         25    2    1    2    0    0  0.00000000000E+00  0.00000000000E+00 -0.12693770551E+02  0.12564246134E+03  0.12499958512E+03 0.  0.
    9000005    1    3    3    0    0  0.23748254994E+02 -0.49172702926E+02  0.24195072277E+02  0.59735549305E+02  0.10000000000E+01 0.  0.
    9000005    1    3    3    0    0 -0.23748254994E+02  0.49172702926E+02 -0.36888842827E+02  0.65906912031E+02  0.10000000000E+01 0.  0.
<mgrwt>
<rscale>  0 0.12499959E+03</rscale>
<asrwt>0</asrwt>
<pdfrwt beam="1">  1        4 0.86883608E-02 0.12499959E+03</pdfrwt>
<pdfrwt beam="2">  1       -4 0.10641249E-01 0.12499959E+03</pdfrwt>
<totfact> 0.10438909E+04</totfact>
</mgrwt>
</event>
<event>
 5    1  0.3184438E-002  0.1250011E+03  0.7818608E-02  0.1235068E+00
          4   -1    0    0  501    0  0.00000000000E+00  0.00000000000E+00  0.15098867459E+03  0.15099401563E+03  0.12700000000E+01 0.  1.
         -4   -1    0    0    0  501 -0.00000000000E+00 -0.00000000000E+00 -0.25850197034E+02  0.25881375286E+02  0.12700000000E+01 0.  1.
         25    2    1    2    0    0  0.00000000000E+00  0.00000000000E+00  0.12513847756E+03  0.17687539091E+03  0.12500106137E+03 0.  0.
    9000005    1    3    3    0    0 -0.55609183182E+02 -0.28303972188E+02  0.67434059796E+02  0.91879532631E+02  0.10000000000E+01 0.  0.
    9000005    1    3    3    0    0  0.55609183182E+02  0.28303972188E+02  0.57704417763E+02  0.84995858282E+02  0.10000000000E+01 0.  0.
<mgrwt>
<rscale>  0 0.12500106E+03</rscale>
<asrwt>0</asrwt>
<pdfrwt beam="1">  1        4 0.23231836E-01 0.12500106E+03</pdfrwt>
<pdfrwt beam="2">  1       -4 0.39797626E-02 0.12500106E+03</pdfrwt>
<totfact> 0.94180244E+03</totfact>
</mgrwt>
</event>
<event>
 5    1  0.3184438E-002  0.1249984E+03  0.7818608E-02  0.1235072E+00
          4   -1    0    0  501    0  0.00000000000E+00  0.00000000000E+00  0.31142914860E+03  0.31143173810E+03  0.12700000000E+01 0. -1.
         -4   -1    0    0    0  501 -0.00000000000E+00 -0.00000000000E+00 -0.12507859250E+02  0.12572169384E+02  0.12700000000E+01 0. -1.
         25    2    1    2    0    0  0.00000000000E+00  0.00000000000E+00  0.29892128935E+03  0.32400390749E+03  0.12499837935E+03 0.  0.
    9000005    1    3    3    0    0  0.61332264865E+01  0.73068105229E+01  0.30954332155E+03  0.30969190151E+03  0.10000000000E+01 0.  0.
    9000005    1    3    3    0    0 -0.61332264865E+01 -0.73068105229E+01 -0.10622032195E+02  0.14312005978E+02  0.10000000000E+01 0.  0.
<mgrwt>
<rscale>  0 0.12499838E+03</rscale>
<asrwt>0</asrwt>
<pdfrwt beam="1">  1        4 0.47917324E-01 0.12499838E+03</pdfrwt>
<pdfrwt beam="2">  1       -4 0.19294321E-02 0.12499838E+03</pdfrwt>
<totfact> 0.72685039E+03</totfact>
</mgrwt>
</event>
<event>
 5    1  0.3184438E-002  0.1249986E+03  0.7818608E-02  0.1235072E+00
         -4   -1    0    0    0  501 -0.00000000000E+00  0.00000000000E+00  0.73396941578E+01  0.74487589792E+01  0.12700000000E+01 0.  1.
          4   -1    0    0  501    0  0.00000000000E+00 -0.00000000000E+00 -0.52816184307E+03  0.52816336997E+03  0.12700000000E+01 0.  1.
         25    2    1    2    0    0  0.00000000000E+00  0.00000000000E+00 -0.52082214892E+03  0.53561212895E+03  0.12499856750E+03 0.  0.
    9000005    1    3    3    0    0 -0.32080712101E+02  0.53626127471E+02 -0.25837028414E+03  0.26582162696E+03  0.10000000000E+01 0.  0.
    9000005    1    3    3    0    0  0.32080712101E+02 -0.53626127471E+02 -0.26245186478E+03  0.26979050199E+03  0.10000000000E+01 0.  0.
<mgrwt>
<rscale>  0 0.12499857E+03</rscale>
<asrwt>0</asrwt>
<pdfrwt beam="2">  1        4 0.81264146E-01 0.12499857E+03</pdfrwt>
<pdfrwt beam="1">  1       -4 0.11376912E-02 0.12499857E+03</pdfrwt>
<totfact> 0.53205119E+03</totfact>
</mgrwt>
</event>
<event>
 5    1  0.3184438E-002  0.1249991E+03  0.7818608E-02  0.1235071E+00
          4   -1    0    0  501    0  0.00000000000E+00  0.00000000000E+00  0.10027242221E+04  0.10027250264E+04  0.12700000000E+01 0.  1.
         -4   -1    0    0    0  501 -0.00000000000E+00 -0.00000000000E+00 -0.37912479246E+01  0.39983072451E+01  0.12700000000E+01 0.  1.
         25    2    1    2    0    0  0.00000000000E+00  0.00000000000E+00  0.99893297420E+03  0.10067233336E+04  0.12499913411E+03 0.  0.
    9000005    1    3    3    0    0 -0.54531250484E+01  0.31256242818E+02  0.93306748846E+03  0.93360731965E+03  0.10000000000E+01 0.  0.
    9000005    1    3    3    0    0  0.54531250484E+01 -0.31256242818E+02  0.65865485736E+02  0.73116013972E+02  0.10000000000E+01 0.  0.
<mgrwt>
<rscale>  0 0.12499913E+03</rscale>
<asrwt>0</asrwt>
<pdfrwt beam="1">  1        4 0.15428141E+00 0.12499913E+03</pdfrwt>
<pdfrwt beam="2">  1       -4 0.59925782E-03 0.12499913E+03</pdfrwt>
<totfact> 0.30384056E+03</totfact>
</mgrwt>
</event>
<event>
 5    1  0.3184438E-002  0.1250030E+03  0.7818608E-02  0.1235065E+00
         -4   -1    0    0    0  501 -0.00000000000E+00  0.00000000000E+00  0.20809073307E+03  0.20809460850E+03  0.12700000000E+01 0. -1.
          4   -1    0    0  501    0  0.00000000000E+00 -0.00000000000E+00 -0.18747230165E+02  0.18790197947E+02  0.12700000000E+01 0. -1.
         25    2    1    2    0    0  0.00000000000E+00  0.00000000000E+00  0.18934350290E+03  0.22688480645E+03  0.12500301319E+03 0.  0.
    9000005    1    3    3    0    0  0.40447865311E+02  0.71365721531E+01  0.18016119322E+03  0.18478640646E+03  0.10000000000E+01 0.  0.
    9000005    1    3    3    0    0 -0.40447865311E+02 -0.71365721531E+01  0.91823096773E+01  0.42098399985E+02  0.10000000000E+01 0.  0.
<mgrwt>
<rscale>  0 0.12500301E+03</rscale>
<asrwt>0</asrwt>
<pdfrwt beam="2">  1        4 0.28877926E-02 0.12500301E+03</pdfrwt>
<pdfrwt beam="1">  1       -4 0.32017562E-01 0.12500301E+03</pdfrwt>
<totfact> 0.85784475E+03</totfact>
</mgrwt>
</event>
<event>
 5    1  0.3184438E-002  0.1249930E+03  0.7818608E-02  0.1235080E+00
         -4   -1    0    0    0  501 -0.00000000000E+00  0.00000000000E+00  0.22071091883E+03  0.22071457268E+03  0.12700000000E+01 0.  1.
          4   -1    0    0  501    0  0.00000000000E+00 -0.00000000000E+00 -0.17669916593E+02  0.17715497521E+02  0.12700000000E+01 0.  1.
         25    2    1    2    0    0  0.00000000000E+00  0.00000000000E+00  0.20304100224E+03  0.23843007020E+03  0.12499299894E+03 0.  0.
    9000005    1    3    3    0    0 -0.26391223477E+02  0.36814326863E+02  0.19406820035E+02  0.49289106330E+02  0.10000000000E+01 0.  0.
    9000005    1    3    3    0    0  0.26391223477E+02 -0.36814326863E+02  0.18363418220E+03  0.18914096387E+03  0.10000000000E+01 0.  0.
<mgrwt>
<rscale>  0 0.12499300E+03</rscale>
<asrwt>0</asrwt>
<pdfrwt beam="2">  1        4 0.27222357E-02 0.12499300E+03</pdfrwt>
<pdfrwt beam="1">  1       -4 0.33959316E-01 0.12499300E+03</pdfrwt>
<totfact> 0.84044852E+03</totfact>
</mgrwt>
</event>
<event>
 5    1  0.3184438E-002  0.1249993E+03  0.7818608E-02  0.1235070E+00
         -4   -1    0    0    0  501 -0.00000000000E+00  0.00000000000E+00  0.10250153994E+03  0.10250940733E+03  0.12700000000E+01 0. -1.
          4   -1    0    0  501    0  0.00000000000E+00 -0.00000000000E+00 -0.38088847192E+02  0.38110014175E+02  0.12700000000E+01 0. -1.
         25    2    1    2    0    0  0.00000000000E+00  0.00000000000E+00  0.64412692751E+02  0.14061942150E+03  0.12499930686E+03 0.  0.
    9000005    1    3    3    0    0  0.17554853728E+02  0.50215361374E+02 -0.46857276068E+01  0.53410780284E+02  0.10000000000E+01 0.  0.
    9000005    1    3    3    0    0 -0.17554853728E+02 -0.50215361374E+02  0.69098420357E+02  0.87208641219E+02  0.10000000000E+01 0.  0.
<mgrwt>
<rscale>  0 0.12499931E+03</rscale>
<asrwt>0</asrwt>
<pdfrwt beam="2">  1        4 0.58620561E-02 0.12499931E+03</pdfrwt>
<pdfrwt beam="1">  1       -4 0.15771701E-01 0.12499931E+03</pdfrwt>
<totfact> 0.10120922E+04</totfact>
</mgrwt>
</event>
<event>
 5    1  0.3184438E-002  0.1249995E+03  0.7818608E-02  0.1235070E+00
         -4   -1    0    0    0  501 -0.00000000000E+00  0.00000000000E+00  0.94309280558E+03  0.94309366070E+03  0.12700000000E+01 0.  1.
          4   -1    0    0  501    0  0.00000000000E+00 -0.00000000000E+00 -0.40436962110E+01  0.42384406386E+01  0.12700000000E+01 0.  1.
         25    2    1    2    0    0  0.00000000000E+00  0.00000000000E+00  0.93904910937E+03  0.94733210134E+03  0.12499952162E+03 0.  0.
    9000005    1    3    3    0    0  0.36067733715E+02  0.39625717534E+02  0.71324043176E+03  0.71525099958E+03  0.10000000000E+01 0.  0.
    9000005    1    3    3    0    0 -0.36067733715E+02 -0.39625717534E+02  0.22580867761E+03  0.23208110175E+03  0.10000000000E+01 0.  0.
<mgrwt>
<rscale>  0 0.12499952E+03</rscale>
<asrwt>0</asrwt>
<pdfrwt beam="2">  1        4 0.63715306E-03 0.12499952E+03</pdfrwt>
<pdfrwt beam="1">  1       -4 0.14510628E+00 0.12499952E+03</pdfrwt>
<totfact> 0.32411210E+03</totfact>
</mgrwt>
</event>
<event>
 5    1  0.3184438E-002  0.1250021E+03  0.7818608E-02  0.1235066E+00
          4   -1    0    0  501    0  0.00000000000E+00  0.00000000000E+00  0.11376843334E+04  0.11376850422E+04  0.12700000000E+01 0.  1.
         -4   -1    0    0    0  501 -0.00000000000E+00 -0.00000000000E+00 -0.33154553292E+01  0.35503723805E+01  0.12700000000E+01 0.  1.
         25    2    1    2    0    0  0.00000000000E+00  0.00000000000E+00  0.11343688780E+04  0.11412354146E+04  0.12500208028E+03 0.  0.
    9000005    1    3    3    0    0 -0.41128062781E+02  0.23582980948E+02  0.93890080795E+03  0.94009754904E+03  0.10000000000E+01 0.  0.
    9000005    1    3    3    0    0  0.41128062781E+02 -0.23582980948E+02  0.19546807008E+03  0.20113786555E+03  0.10000000000E+01 0.  0.
<mgrwt>
<rscale>  0 0.12500208E+03</rscale>
<asrwt>0</asrwt>
<pdfrwt beam="1">  1        4 0.17504640E+00 0.12500208E+03</pdfrwt>
<pdfrwt beam="2">  1       -4 0.52819536E-03 0.12500208E+03</pdfrwt>
<totfact> 0.26303494E+03</totfact>
</mgrwt>
</event>
<event>
 5    1  0.3184438E-002  0.1249985E+03  0.7818608E-02  0.1235072E+00
         -4   -1    0    0    0  501 -0.00000000000E+00  0.00000000000E+00  0.59882611684E+02  0.59896077351E+02  0.12700000000E+01 0.  1.
          4   -1    0    0  501    0  0.00000000000E+00 -0.00000000000E+00 -0.65203217287E+02  0.65215584369E+02  0.12700000000E+01 0.  1.
         25    2    1    2    0    0  0.00000000000E+00  0.00000000000E+00 -0.53206056039E+01  0.12511166172E+03  0.12499847621E+03 0.  0.
    9000005    1    3    3    0    0 -0.24269966948E+02 -0.57538521941E+02 -0.32538940880E+00  0.62456534335E+02  0.10000000000E+01 0.  0.
    9000005    1    3    3    0    0  0.24269966948E+02  0.57538521941E+02 -0.49952161951E+01  0.62655127386E+02  0.10000000000E+01 0.  0.
<mgrwt>
<rscale>  0 0.12499848E+03</rscale>
<asrwt>0</asrwt>
<pdfrwt beam="2">  1        4 0.10033251E-01 0.12499848E+03</pdfrwt>
<pdfrwt beam="1">  1       -4 0.92146966E-02 0.12499848E+03</pdfrwt>
<totfact> 0.10450798E+04</totfact>
</mgrwt>
</event>
<event>
 5    1  0.3184438E-002  0.1249920E+03  0.7818608E-02  0.1235082E+00
         -4   -1    0    0    0  501 -0.00000000000E+00  0.00000000000E+00  0.73312726428E+01  0.74404609106E+01  0.12700000000E+01 0.  1.
          4   -1    0    0  501    0  0.00000000000E+00 -0.00000000000E+00 -0.52870411118E+03  0.52870563651E+03  0.12700000000E+01 0.  1.
         25    2    1    2    0    0  0.00000000000E+00  0.00000000000E+00 -0.52137283853E+03  0.53614609742E+03  0.12499200381E+03 0.  0.
    9000005    1    3    3    0    0  0.32395509133E+02 -0.35392652260E+02 -0.88967123627E+02  0.10108539920E+03  0.10000000000E+01 0.  0.
    9000005    1    3    3    0    0 -0.32395509133E+02  0.35392652260E+02 -0.43240571491E+03  0.43506069821E+03  0.10000000000E+01 0.  0.
<mgrwt>
<rscale>  0 0.12499200E+03</rscale>
<asrwt>0</asrwt>
<pdfrwt beam="2">  1        4 0.81347581E-01 0.12499200E+03</pdfrwt>
<pdfrwt beam="1">  1       -4 0.11364049E-02 0.12499200E+03</pdfrwt>
<totfact> 0.53174384E+03</totfact>
</mgrwt>
</event>
<event>
 5    1  0.3184438E-002  0.1250051E+03  0.7818608E-02  0.1235061E+00
         -4   -1    0    0    0  501 -0.00000000000E+00  0.00000000000E+00  0.31015339528E+03  0.31015599544E+03  0.12700000000E+01 0. -1.
          4   -1    0    0  501    0  0.00000000000E+00 -0.00000000000E+00 -0.12560931749E+02  0.12624971541E+02  0.12700000000E+01 0. -1.
         25    2    1    2    0    0  0.00000000000E+00  0.00000000000E+00  0.29759246354E+03  0.32278096698E+03  0.12500511306E+03 0.  0.
    9000005    1    3    3    0    0 -0.60803283057E+02  0.12154375701E+02  0.16893056559E+03  0.17995361644E+03  0.10000000000E+01 0.  0.
    9000005    1    3    3    0    0  0.60803283057E+02 -0.12154375701E+02  0.12866189794E+03  0.14282735054E+03  0.10000000000E+01 0.  0.
<mgrwt>
<rscale>  0 0.12500511E+03</rscale>
<asrwt>0</asrwt>
<pdfrwt beam="2">  1        4 0.19375771E-02 0.12500511E+03</pdfrwt>
<pdfrwt beam="1">  1       -4 0.47721034E-01 0.12500511E+03</pdfrwt>
<totfact> 0.72818327E+03</totfact>
</mgrwt>
</event>
<event>
 5    1  0.3184438E-002  0.1250009E+03  0.7818608E-02  0.1235068E+00
          4   -1    0    0  501    0  0.00000000000E+00  0.00000000000E+00  0.26332090784E+02  0.26362699123E+02  0.12700000000E+01 0. -1.
         -4   -1    0    0    0  501 -0.00000000000E+00 -0.00000000000E+00 -0.14822814899E+03  0.14823358949E+03  0.12700000000E+01 0. -1.
         25    2    1    2    0    0  0.00000000000E+00  0.00000000000E+00 -0.12189605821E+03  0.17459628862E+03  0.12500085996E+03 0.  0.
    9000005    1    3    3    0    0  0.51198885295E+02  0.35246076387E+02 -0.51929237978E+02  0.81001589571E+02  0.10000000000E+01 0.  0.
    9000005    1    3    3    0    0 -0.51198885295E+02 -0.35246076387E+02 -0.69966820233E+02  0.93594699047E+02  0.10000000000E+01 0.  0.
<mgrwt>
<rscale>  0 0.12500086E+03</rscale>
<asrwt>0</asrwt>
<pdfrwt beam="1">  1        4 0.40538640E-02 0.12500086E+03</pdfrwt>
<pdfrwt beam="2">  1       -4 0.22807103E-01 0.12500086E+03</pdfrwt>
<totfact> 0.94597007E+03</totfact>
</mgrwt>
</event>
<event>
 5    1  0.3184438E-002  0.1249978E+03  0.7818608E-02  0.1235073E+00
         -4   -1    0    0    0  501 -0.00000000000E+00  0.00000000000E+00  0.64267376090E+02  0.64279923223E+02  0.12700000000E+01 0.  1.
          4   -1    0    0  501    0  0.00000000000E+00 -0.00000000000E+00 -0.60754013301E+02  0.60767285871E+02  0.12700000000E+01 0.  1.
         25    2    1    2    0    0  0.00000000000E+00  0.00000000000E+00  0.35133627894E+01  0.12504720909E+03  0.12499784312E+03 0.  0.
    9000005    1    3    3    0    0 -0.80200189631E+01 -0.78708647085E+01 -0.59739898695E+02  0.60795778731E+02  0.10000000000E+01 0.  0.
    9000005    1    3    3    0    0  0.80200189631E+01  0.78708647085E+01  0.63253261484E+02  0.64251430364E+02  0.10000000000E+01 0.  0.
<mgrwt>
<rscale>  0 0.12499784E+03</rscale>
<asrwt>0</asrwt>
<pdfrwt beam="2">  1        4 0.93487574E-02 0.12499784E+03</pdfrwt>
<pdfrwt beam="1">  1       -4 0.98892747E-02 0.12499784E+03</pdfrwt>
<totfact> 0.10452347E+04</totfact>
</mgrwt>
</event>
<event>
 5    1  0.3184438E-002  0.1249994E+03  0.7818608E-02  0.1235070E+00
         -4   -1    0    0    0  501 -0.00000000000E+00  0.00000000000E+00  0.27924521705E+03  0.27924810499E+03  0.12700000000E+01 0.  1.
          4   -1    0    0  501    0  0.00000000000E+00 -0.00000000000E+00 -0.13956679420E+02  0.14014342669E+02  0.12700000000E+01 0.  1.
         25    2    1    2    0    0  0.00000000000E+00  0.00000000000E+00  0.26528853762E+03  0.29326244766E+03  0.12499942005E+03 0.  0.
    9000005    1    3    3    0    0  0.30908529502E+02  0.16705302409E+02  0.25389096328E+03  0.25631235936E+03  0.10000000000E+01 0.  0.
    9000005    1    3    3    0    0 -0.30908529502E+02 -0.16705302409E+02  0.11397574342E+02  0.36950088301E+02  0.10000000000E+01 0.  0.
<mgrwt>
<rscale>  0 0.12499942E+03</rscale>
<asrwt>0</asrwt>
<pdfrwt beam="2">  1        4 0.21518392E-02 0.12499942E+03</pdfrwt>
<pdfrwt beam="1">  1       -4 0.42965462E-01 0.12499942E+03</pdfrwt>
<totfact> 0.76452815E+03</totfact>
</mgrwt>
</event>
