<event>
 5    1  0.3330238E-002  0.1250012E+03  0.7818608E-02  0.1235067E+00
          4   -1    0    0  501    0  0.00000000000E+00  0.00000000000E+00  0.18612039239E+03  0.18612472529E+03  0.12700000000E+01 0.  1.
         -4   -1    0    0    0  501 -0.00000000000E+00 -0.00000000000E+00 -0.20964371406E+02  0.21002803823E+02  0.12700000000E+01 0.  1.
         25    2    1    2    0    0  0.00000000000E+00  0.00000000000E+00  0.16515602099E+03  0.20712752911E+03  0.12500120819E+03 0.  0.
    9000005    1    3    3    0    0 -0.20857842469E+02  0.55992355226E+02  0.11291214527E+03  0.12775110953E+03  0.10000000000E+01 0.  0.
    9000005    1    3    3    0    0  0.20857842469E+02 -0.55992355226E+02  0.52243875717E+02  0.79376419585E+02  0.10000000000E+01 0.  0.
<mgrwt>
<rscale>  0 0.12500121E+03</rscale>
<asrwt>0</asrwt>
<pdfrwt beam="1">  1        4 0.28637196E-01 0.12500121E+03</pdfrwt>
<pdfrwt beam="2">  1       -4 0.32285776E-02 0.12500121E+03</pdfrwt>
<totfact> 0.88944749E+03</totfact>
</mgrwt>
</event>
<event>
 5    1  0.3330238E-002  0.1250167E+03  0.7818608E-02  0.1235043E+00
         -4   -1    0    0    0  501 -0.00000000000E+00  0.00000000000E+00  0.15846802292E+02  0.15897611231E+02  0.12700000000E+01 0.  1.
          4   -1    0    0  501    0  0.00000000000E+00 -0.00000000000E+00 -0.24611948536E+03  0.24612276200E+03  0.12700000000E+01 0.  1.
         25    2    1    2    0    0  0.00000000000E+00  0.00000000000E+00 -0.23027268307E+03  0.26202037323E+03  0.12501666857E+03 0.  0.
    9000005    1    3    3    0    0 -0.62158258078E+01 -0.56269887582E+02 -0.59630828150E+02  0.82229996989E+02  0.10000000000E+01 0.  0.
    9000005    1    3    3    0    0  0.62158258078E+01  0.56269887582E+02 -0.17064185492E+03  0.17979037624E+03  0.10000000000E+01 0.  0.
<mgrwt>
<rscale>  0 0.12501667E+03</rscale>
<asrwt>0</asrwt>
<pdfrwt beam="2">  1        4 0.37868694E-01 0.12501667E+03</pdfrwt>
<pdfrwt beam="1">  1       -4 0.24421302E-02 0.12501667E+03</pdfrwt>
<totfact> 0.80593462E+03</totfact>
</mgrwt>
</event>
<event>
 5    1  0.3330238E-002  0.1249980E+03  0.7818608E-02  0.1235072E+00
         -4   -1    0    0    0  501 -0.00000000000E+00  0.00000000000E+00  0.10201697166E+02  0.10280443817E+02  0.12700000000E+01 0.  1.
          4   -1    0    0  501    0  0.00000000000E+00 -0.00000000000E+00 -0.38133770723E+03  0.38133982202E+03  0.12700000000E+01 0.  1.
         25    2    1    2    0    0  0.00000000000E+00  0.00000000000E+00 -0.37113601006E+03  0.39162026583E+03  0.12499797856E+03 0.  0.
    9000005    1    3    3    0    0 -0.14500506159E+02  0.71927689985E-01 -0.37600915618E+03  0.37628998842E+03  0.10000000000E+01 0.  0.
    9000005    1    3    3    0    0  0.14500506159E+02 -0.71927689985E-01  0.48731461184E+01  0.15330277412E+02  0.10000000000E+01 0.  0.
<mgrwt>
<rscale>  0 0.12499798E+03</rscale>
<asrwt>0</asrwt>
<pdfrwt beam="2">  1        4 0.58673549E-01 0.12499798E+03</pdfrwt>
<pdfrwt beam="1">  1       -4 0.15757123E-02 0.12499798E+03</pdfrwt>
<totfact> 0.65378957E+03</totfact>
</mgrwt>
</event>
<event>
 5    1  0.3330238E-002  0.1249993E+03  0.7818608E-02  0.1235070E+00
          4   -1    0    0  501    0  0.00000000000E+00  0.00000000000E+00  0.14044574523E+04  0.14044580266E+04  0.12700000000E+01 0.  1.
         -4   -1    0    0    0  501 -0.00000000000E+00 -0.00000000000E+00 -0.26357076618E+01  0.29257229668E+01  0.12700000000E+01 0.  1.
         25    2    1    2    0    0  0.00000000000E+00  0.00000000000E+00  0.14018217447E+04  0.14073837495E+04  0.12499925817E+03 0.  0.
    9000005    1    3    3    0    0 -0.34642608860E+02 -0.23027746481E+02  0.12259798672E+04  0.12266857879E+04  0.10000000000E+01 0.  0.
    9000005    1    3    3    0    0  0.34642608860E+02  0.23027746481E+02  0.17584187751E+03  0.18069796164E+03  0.10000000000E+01 0.  0.
<mgrwt>
<rscale>  0 0.12499926E+03</rscale>
<asrwt>0</asrwt>
<pdfrwt beam="1">  1        4 0.21609249E+00 0.12499926E+03</pdfrwt>
<pdfrwt beam="2">  1       -4 0.42784701E-03 0.12499926E+03</pdfrwt>
<totfact> 0.19823381E+03</totfact>
</mgrwt>
</event>
<event>
 5    1  0.3330238E-002  0.1249993E+03  0.7818608E-02  0.1235070E+00
         -4   -1    0    0    0  501 -0.00000000000E+00  0.00000000000E+00  0.24454311145E+03  0.24454640921E+03  0.12700000000E+01 0.  1.
          4   -1    0    0  501    0  0.00000000000E+00 -0.00000000000E+00 -0.15944831820E+02  0.15995329373E+02  0.12700000000E+01 0.  1.
         25    2    1    2    0    0  0.00000000000E+00  0.00000000000E+00  0.22859827963E+03  0.26054173858E+03  0.12499929637E+03 0.  0.
    9000005    1    3    3    0    0 -0.42334192687E+02  0.44208034368E+02  0.88043676787E+02  0.10723443102E+03  0.10000000000E+01 0.  0.
    9000005    1    3    3    0    0  0.42334192687E+02 -0.44208034368E+02  0.14055460284E+03  0.15330730756E+03  0.10000000000E+01 0.  0.
<mgrwt>
<rscale>  0 0.12499930E+03</rscale>
<asrwt>0</asrwt>
<pdfrwt beam="2">  1        4 0.24571892E-02 0.12499930E+03</pdfrwt>
<pdfrwt beam="1">  1       -4 0.37626155E-01 0.12499930E+03</pdfrwt>
<totfact> 0.80831360E+03</totfact>
</mgrwt>
</event>
<event>
 5    1  0.3330238E-002  0.1249838E+03  0.7818608E-02  0.1235095E+00
          4   -1    0    0  501    0  0.00000000000E+00  0.00000000000E+00  0.87632841922E+01  0.88548320048E+01  0.12700000000E+01 0.  1.
         -4   -1    0    0    0  501 -0.00000000000E+00 -0.00000000000E+00 -0.44322832035E+03  0.44323013984E+03  0.12700000000E+01 0.  1.
         25    2    1    2    0    0  0.00000000000E+00  0.00000000000E+00 -0.43446503616E+03  0.45208497184E+03  0.12498381544E+03 0.  0.
    9000005    1    3    3    0    0 -0.30502619527E+02  0.16623008050E+02 -0.29366873138E+02  0.45498872871E+02  0.10000000000E+01 0.  0.
    9000005    1    3    3    0    0  0.30502619527E+02 -0.16623008050E+02 -0.40509816302E+03  0.40658609897E+03  0.10000000000E+01 0.  0.
<mgrwt>
<rscale>  0 0.12498382E+03</rscale>
<asrwt>0</asrwt>
<pdfrwt beam="1">  1        4 0.13553800E-02 0.12498382E+03</pdfrwt>
<pdfrwt beam="2">  1       -4 0.68196137E-01 0.12498382E+03</pdfrwt>
<totfact> 0.59804922E+03</totfact>
</mgrwt>
</event>
<event>
 5    1  0.3330238E-002  0.1250072E+03  0.7818608E-02  0.1235058E+00
          4   -1    0    0  501    0  0.00000000000E+00  0.00000000000E+00  0.11040349732E+02  0.11113155367E+02  0.12700000000E+01 0. -1.
         -4   -1    0    0    0  501 -0.00000000000E+00 -0.00000000000E+00 -0.35261972925E+03  0.35262201626E+03  0.12700000000E+01 0. -1.
         25    2    1    2    0    0  0.00000000000E+00  0.00000000000E+00 -0.34157937952E+03  0.36373517163E+03  0.12500721008E+03 0.  0.
    9000005    1    3    3    0    0  0.24241093545E+02 -0.24508487376E+02 -0.32246934953E+03  0.32430815278E+03  0.10000000000E+01 0.  0.
    9000005    1    3    3    0    0 -0.24241093545E+02  0.24508487376E+02 -0.19110029982E+02  0.39427018853E+02  0.10000000000E+01 0.  0.
<mgrwt>
<rscale>  0 0.12500721E+03</rscale>
<asrwt>0</asrwt>
<pdfrwt beam="1">  1        4 0.17042920E-02 0.12500721E+03</pdfrwt>
<pdfrwt beam="2">  1       -4 0.54254957E-01 0.12500721E+03</pdfrwt>
<totfact> 0.68228612E+03</totfact>
</mgrwt>
</event>
<event>
 5    1  0.3330238E-002  0.1250043E+03  0.7818608E-02  0.1235063E+00
          4   -1    0    0  501    0  0.00000000000E+00  0.00000000000E+00  0.65725484282E+02  0.65737753112E+02  0.12700000000E+01 0. -1.
         -4   -1    0    0    0  501 -0.00000000000E+00 -0.00000000000E+00 -0.59412312546E+02  0.59425884781E+02  0.12700000000E+01 0. -1.
         25    2    1    2    0    0  0.00000000000E+00  0.00000000000E+00  0.63131717365E+01  0.12516363789E+03  0.12500432038E+03 0.  0.
    9000005    1    3    3    0    0 -0.38023994312E+02  0.37583946684E+02  0.35557414504E+02  0.64216095475E+02  0.10000000000E+01 0.  0.
    9000005    1    3    3    0    0  0.38023994312E+02 -0.37583946684E+02 -0.29244242767E+02  0.60947542418E+02  0.10000000000E+01 0.  0.
<mgrwt>
<rscale>  0 0.12500432E+03</rscale>
<asrwt>0</asrwt>
<pdfrwt beam="1">  1        4 0.10113601E-01 0.12500432E+03</pdfrwt>
<pdfrwt beam="2">  1       -4 0.91423435E-02 0.12500432E+03</pdfrwt>
<totfact> 0.10448289E+04</totfact>
</mgrwt>
</event>
<event>
 5    1  0.3330238E-002  0.1250019E+03  0.7818608E-02  0.1235066E+00
          4   -1    0    0  501    0  0.00000000000E+00  0.00000000000E+00  0.33895400524E+02  0.33919184494E+02  0.12700000000E+01 0.  1.
         -4   -1    0    0    0  501 -0.00000000000E+00 -0.00000000000E+00 -0.11518001478E+03  0.11518701622E+03  0.12700000000E+01 0.  1.
         25    2    1    2    0    0  0.00000000000E+00  0.00000000000E+00 -0.81284614258E+02  0.14910620071E+03  0.12500188229E+03 0.  0.
    9000005    1    3    3    0    0  0.38227190744E+02  0.39294713705E+02 -0.76426759554E+02  0.94060843146E+02  0.10000000000E+01 0.  0.
    9000005    1    3    3    0    0 -0.38227190744E+02 -0.39294713705E+02 -0.48578547042E+01  0.55045357567E+02  0.10000000000E+01 0.  0.
<mgrwt>
<rscale>  0 0.12500188E+03</rscale>
<asrwt>0</asrwt>
<pdfrwt beam="1">  1        4 0.52170452E-02 0.12500188E+03</pdfrwt>
<pdfrwt beam="2">  1       -4 0.17722370E-01 0.12500188E+03</pdfrwt>
<totfact> 0.99477948E+03</totfact>
</mgrwt>
</event>
<event>
 5    1  0.3330238E-002  0.1249949E+03  0.7818608E-02  0.1235077E+00
         -4   -1    0    0    0  501 -0.00000000000E+00  0.00000000000E+00  0.16278712338E+03  0.16279207732E+03  0.12700000000E+01 0. -1.
          4   -1    0    0  501    0  0.00000000000E+00 -0.00000000000E+00 -0.23971981128E+02  0.24005598914E+02  0.12700000000E+01 0. -1.
         25    2    1    2    0    0  0.00000000000E+00  0.00000000000E+00  0.13881514226E+03  0.18679767624E+03  0.12499491241E+03 0.  0.
    9000005    1    3    3    0    0  0.37613866489E+02 -0.48791648061E+02  0.85046047578E+02  0.10502027462E+03  0.10000000000E+01 0.  0.
    9000005    1    3    3    0    0 -0.37613866489E+02  0.48791648061E+02  0.53769094677E+02  0.81777401617E+02  0.10000000000E+01 0.  0.
<mgrwt>
<rscale>  0 0.12499491E+03</rscale>
<asrwt>0</asrwt>
<pdfrwt beam="2">  1        4 0.36909641E-02 0.12499491E+03</pdfrwt>
<pdfrwt beam="1">  1       -4 0.25047140E-01 0.12499491E+03</pdfrwt>
<totfact> 0.92418047E+03</totfact>
</mgrwt>
</event>
<event>
 5    1  0.3330238E-002  0.1250021E+03  0.7818608E-02  0.1235066E+00
          4   -1    0    0  501    0  0.00000000000E+00  0.00000000000E+00  0.29785269455E+01  0.32379812793E+01  0.12700000000E+01 0.  1.
         -4   -1    0    0    0  501 -0.00000000000E+00 -0.00000000000E+00 -0.12565172046E+04  0.12565178464E+04  0.12700000000E+01 0.  1.
         25    2    1    2    0    0  0.00000000000E+00  0.00000000000E+00 -0.12535386777E+04  0.12597558277E+04  0.12500211610E+03 0.  0.
    9000005    1    3    3    0    0 -0.12936868804E+02 -0.29609353657E+02 -0.87691903983E+02  0.93460935275E+02  0.10000000000E+01 0.  0.
    9000005    1    3    3    0    0  0.12936868804E+02  0.29609353657E+02 -0.11658467737E+04  0.11662948924E+04  0.10000000000E+01 0.  0.
<mgrwt>
<rscale>  0 0.12500212E+03</rscale>
<asrwt>0</asrwt>
<pdfrwt beam="1">  1        4 0.47824332E-03 0.12500212E+03</pdfrwt>
<pdfrwt beam="2">  1       -4 0.19332994E+00 0.12500212E+03</pdfrwt>
<totfact> 0.23197713E+03</totfact>
</mgrwt>
</event>
<event>
 5    1  0.3330238E-002  0.1250013E+03  0.7818608E-02  0.1235067E+00
          4   -1    0    0  501    0  0.00000000000E+00  0.00000000000E+00  0.74653609240E+02  0.74664411017E+02  0.12700000000E+01 0.  1.
         -4   -1    0    0    0  501 -0.00000000000E+00 -0.00000000000E+00 -0.52303759954E+02  0.52319176268E+02  0.12700000000E+01 0.  1.
         25    2    1    2    0    0  0.00000000000E+00  0.00000000000E+00  0.22349849286E+02  0.12698358728E+03  0.12500126270E+03 0.  0.
    9000005    1    3    3    0    0 -0.49419752910E+02 -0.36687818417E+02  0.18575321768E+00  0.61557635612E+02  0.10000000000E+01 0.  0.
    9000005    1    3    3    0    0  0.49419752910E+02  0.36687818417E+02  0.22164096068E+02  0.65425951673E+02  0.10000000000E+01 0.  0.
<mgrwt>
<rscale>  0 0.12500126E+03</rscale>
<asrwt>0</asrwt>
<pdfrwt beam="1">  1        4 0.11487187E-01 0.12500126E+03</pdfrwt>
<pdfrwt beam="2">  1       -4 0.80487491E-02 0.12500126E+03</pdfrwt>
<totfact> 0.10409206E+04</totfact>
</mgrwt>
</event>
<event>
 5    1  0.3330238E-002  0.1249994E+03  0.7818608E-02  0.1235070E+00
         -4   -1    0    0    0  501 -0.00000000000E+00  0.00000000000E+00  0.36151655780E+02  0.36173956317E+02  0.12700000000E+01 0. -1.
          4   -1    0    0  501    0  0.00000000000E+00 -0.00000000000E+00 -0.10799139953E+03  0.10799886700E+03  0.12700000000E+01 0. -1.
         25    2    1    2    0    0  0.00000000000E+00  0.00000000000E+00 -0.71839743751E+02  0.14417282331E+03  0.12499941680E+03 0.  0.
    9000005    1    3    3    0    0  0.11129868676E+02  0.14263311999E+02 -0.10491038326E+03  0.10646363023E+03  0.10000000000E+01 0.  0.
    9000005    1    3    3    0    0 -0.11129868676E+02 -0.14263311999E+02  0.33070639506E+02  0.37709193087E+02  0.10000000000E+01 0.  0.
<mgrwt>
<rscale>  0 0.12499942E+03</rscale>
<asrwt>0</asrwt>
<pdfrwt beam="2">  1        4 0.16616351E-01 0.12499942E+03</pdfrwt>
<pdfrwt beam="1">  1       -4 0.55640831E-02 0.12499942E+03</pdfrwt>
<totfact> 0.10047954E+04</totfact>
</mgrwt>
</event>
<event>
 5    1  0.3330238E-002  0.1250020E+03  0.7818608E-02  0.1235066E+00
         -4   -1    0    0    0  501 -0.00000000000E+00  0.00000000000E+00  0.22537267224E+01  0.25869256154E+01  0.12700000000E+01 0.  1.
          4   -1    0    0  501    0  0.00000000000E+00 -0.00000000000E+00 -0.16136548142E+04  0.16136553140E+04  0.12700000000E+01 0.  1.
         25    2    1    2    0    0  0.00000000000E+00  0.00000000000E+00 -0.16114010875E+04  0.16162422396E+04  0.12500204912E+03 0.  0.
    9000005    1    3    3    0    0 -0.36810808457E+02 -0.47367107809E+02 -0.57926432744E+03  0.58236315093E+03  0.10000000000E+01 0.  0.
    9000005    1    3    3    0    0  0.36810808457E+02  0.47367107809E+02 -0.10321367601E+04  0.10338790887E+04  0.10000000000E+01 0.  0.
<mgrwt>
<rscale>  0 0.12500205E+03</rscale>
<asrwt>0</asrwt>
<pdfrwt beam="2">  1        4 0.24827940E+00 0.12500205E+03</pdfrwt>
<pdfrwt beam="1">  1       -4 0.37239761E-03 0.12500205E+03</pdfrwt>
<totfact> 0.15753726E+03</totfact>
</mgrwt>
</event>
<event>
 5    1  0.3330238E-002  0.1249954E+03  0.7818608E-02  0.1235076E+00
         -4   -1    0    0    0  501 -0.00000000000E+00  0.00000000000E+00  0.11077410766E+03  0.11078138755E+03  0.12700000000E+01 0. -1.
          4   -1    0    0  501    0  0.00000000000E+00 -0.00000000000E+00 -0.35240749832E+02  0.35263626426E+02  0.12700000000E+01 0. -1.
         25    2    1    2    0    0  0.00000000000E+00  0.00000000000E+00  0.75533357824E+02  0.14604501397E+03  0.12499543177E+03 0.  0.
    9000005    1    3    3    0    0  0.13361225404E+02 -0.61021000897E+02  0.35783972710E+02  0.71997066591E+02  0.10000000000E+01 0.  0.
    9000005    1    3    3    0    0 -0.13361225404E+02  0.61021000897E+02  0.39749385114E+02  0.74047947384E+02  0.10000000000E+01 0.  0.
<mgrwt>
<rscale>  0 0.12499543E+03</rscale>
<asrwt>0</asrwt>
<pdfrwt beam="2">  1        4 0.54239736E-02 0.12499543E+03</pdfrwt>
<pdfrwt beam="1">  1       -4 0.17044490E-01 0.12499543E+03</pdfrwt>
<totfact> 0.10010829E+04</totfact>
</mgrwt>
</event>
<event>
 5    1  0.3330238E-002  0.1250011E+03  0.7818608E-02  0.1235068E+00
         -4   -1    0    0    0  501 -0.00000000000E+00  0.00000000000E+00  0.13056183040E+04  0.13056189217E+04  0.12700000000E+01 0. -1.
          4   -1    0    0  501    0  0.00000000000E+00 -0.00000000000E+00 -0.28565117091E+01  0.31261092662E+01  0.12700000000E+01 0. -1.
         25    2    1    2    0    0  0.00000000000E+00  0.00000000000E+00  0.13027617923E+04  0.13087450309E+04  0.12500107425E+03 0.  0.
    9000005    1    3    3    0    0  0.21106799713E+02 -0.54941025776E+02  0.87132389922E+03  0.87330999688E+03  0.10000000000E+01 0.  0.
    9000005    1    3    3    0    0 -0.21106799713E+02  0.54941025776E+02  0.43143789307E+03  0.43543503406E+03  0.10000000000E+01 0.  0.
<mgrwt>
<rscale>  0 0.12500107E+03</rscale>
<asrwt>0</asrwt>
<pdfrwt beam="2">  1        4 0.46024818E-03 0.12500107E+03</pdfrwt>
<pdfrwt beam="1">  1       -4 0.20088555E+00 0.12500107E+03</pdfrwt>
<totfact> 0.22022475E+03</totfact>
</mgrwt>
</event>
<event>
 5    1  0.3330238E-002  0.1250001E+03  0.7818608E-02  0.1235069E+00
         -4   -1    0    0    0  501 -0.00000000000E+00  0.00000000000E+00  0.11461611592E+03  0.11462315180E+03  0.12700000000E+01 0. -1.
          4   -1    0    0  501    0  0.00000000000E+00 -0.00000000000E+00 -0.34061306023E+02  0.34084974226E+02  0.12700000000E+01 0. -1.
         25    2    1    2    0    0  0.00000000000E+00  0.00000000000E+00  0.80554809900E+02  0.14870812603E+03  0.12500011740E+03 0.  0.
    9000005    1    3    3    0    0 -0.25388826560E+02 -0.57087336313E+02  0.41828927286E+02  0.75194518679E+02  0.10000000000E+01 0.  0.
    9000005    1    3    3    0    0  0.25388826560E+02  0.57087336313E+02  0.38725882614E+02  0.73513607350E+02  0.10000000000E+01 0.  0.
<mgrwt>
<rscale>  0 0.12500012E+03</rscale>
<asrwt>0</asrwt>
<pdfrwt beam="2">  1        4 0.52425628E-02 0.12500012E+03</pdfrwt>
<pdfrwt beam="1">  1       -4 0.17635610E-01 0.12500012E+03</pdfrwt>
<totfact> 0.99561576E+03</totfact>
</mgrwt>
</event>
<event>
 5    1  0.3330238E-002  0.1249982E+03  0.7818608E-02  0.1235072E+00
         -4   -1    0    0    0  501 -0.00000000000E+00  0.00000000000E+00  0.61607750662E+02  0.61620839345E+02  0.12700000000E+01 0. -1.
          4   -1    0    0  501    0  0.00000000000E+00 -0.00000000000E+00 -0.63377170897E+02  0.63389894233E+02  0.12700000000E+01 0. -1.
         25    2    1    2    0    0  0.00000000000E+00  0.00000000000E+00 -0.17694202349E+01  0.12501073358E+03  0.12499821063E+03 0.  0.
    9000005    1    3    3    0    0 -0.31244523812E+02 -0.45808895797E+02 -0.29705351527E+02  0.62913298369E+02  0.10000000000E+01 0.  0.
    9000005    1    3    3    0    0  0.31244523812E+02  0.45808895797E+02  0.27935931292E+02  0.62097435209E+02  0.10000000000E+01 0.  0.
<mgrwt>
<rscale>  0 0.12499821E+03</rscale>
<asrwt>0</asrwt>
<pdfrwt beam="2">  1        4 0.97523196E-02 0.12499821E+03</pdfrwt>
<pdfrwt beam="1">  1       -4 0.94801010E-02 0.12499821E+03</pdfrwt>
<totfact> 0.10453052E+04</totfact>
</mgrwt>
</event>
<event>
 5    1  0.3330238E-002  0.1250007E+03  0.7818608E-02  0.1235068E+00
          4   -1    0    0  501    0  0.00000000000E+00  0.00000000000E+00  0.83214036414E+02  0.83223727123E+02  0.12700000000E+01 0. -1.
         -4   -1    0    0    0  501 -0.00000000000E+00 -0.00000000000E+00 -0.46921712294E+02  0.46938896286E+02  0.12700000000E+01 0. -1.
         25    2    1    2    0    0  0.00000000000E+00  0.00000000000E+00  0.36292324120E+02  0.13016262341E+03  0.12500070297E+03 0.  0.
    9000005    1    3    3    0    0 -0.40506068593E+02 -0.32131381233E+02  0.54697351915E+02  0.75272621579E+02  0.10000000000E+01 0.  0.
    9000005    1    3    3    0    0  0.40506068593E+02  0.32131381233E+02 -0.18405027795E+02  0.54890001831E+02  0.10000000000E+01 0.  0.
<mgrwt>
<rscale>  0 0.12500070E+03</rscale>
<asrwt>0</asrwt>
<pdfrwt beam="1">  1        4 0.12804227E-01 0.12500070E+03</pdfrwt>
<pdfrwt beam="2">  1       -4 0.72207923E-02 0.12500070E+03</pdfrwt>
<totfact> 0.10340866E+04</totfact>
</mgrwt>
</event>
<event>
 5    1  0.3330238E-002  0.1250136E+03  0.7818608E-02  0.1235048E+00
         -4   -1    0    0    0  501 -0.00000000000E+00  0.00000000000E+00  0.72755880304E+03  0.72755991147E+03  0.12700000000E+01 0.  1.
          4   -1    0    0  501    0  0.00000000000E+00 -0.00000000000E+00 -0.52939381982E+01  0.54441419569E+01  0.12700000000E+01 0.  1.
         25    2    1    2    0    0  0.00000000000E+00  0.00000000000E+00  0.72226486484E+03  0.73300405343E+03  0.12501362869E+03 0.  0.
    9000005    1    3    3    0    0  0.17410374798E+02  0.20131561607E+02  0.69269686396E+03  0.69320873210E+03  0.10000000000E+01 0.  0.
    9000005    1    3    3    0    0 -0.17410374798E+02 -0.20131561607E+02  0.29568000884E+02  0.39795321329E+02  0.10000000000E+01 0.  0.
<mgrwt>
<rscale>  0 0.12501363E+03</rscale>
<asrwt>0</asrwt>
<pdfrwt beam="2">  1        4 0.82609186E-03 0.12501363E+03</pdfrwt>
<pdfrwt beam="1">  1       -4 0.11194370E+00 0.12501363E+03</pdfrwt>
<totfact> 0.41388226E+03</totfact>
</mgrwt>
</event>
<event>
 5    1  0.3330238E-002  0.1249986E+03  0.7818608E-02  0.1235071E+00
          4   -1    0    0  501    0  0.00000000000E+00  0.00000000000E+00  0.20007640546E+02  0.20047907128E+02  0.12700000000E+01 0. -1.
         -4   -1    0    0    0  501 -0.00000000000E+00 -0.00000000000E+00 -0.19499490944E+03  0.19499904514E+03  0.12700000000E+01 0. -1.
         25    2    1    2    0    0  0.00000000000E+00  0.00000000000E+00 -0.17498726889E+03  0.21504695227E+03  0.12499858962E+03 0.  0.
    9000005    1    3    3    0    0  0.33474260727E+02 -0.52651285949E+02 -0.93570747745E+02  0.11246852394E+03  0.10000000000E+01 0.  0.
    9000005    1    3    3    0    0 -0.33474260727E+02  0.52651285949E+02 -0.81416521144E+02  0.10257842833E+03  0.10000000000E+01 0.  0.
<mgrwt>
<rscale>  0 0.12499859E+03</rscale>
<asrwt>0</asrwt>
<pdfrwt beam="1">  1        4 0.30815142E-02 0.12499859E+03</pdfrwt>
<pdfrwt beam="2">  1       -4 0.30002631E-01 0.12499859E+03</pdfrwt>
<totfact> 0.87660987E+03</totfact>
</mgrwt>
</event>
<event>
 5    1  0.3330238E-002  0.1249986E+03  0.7818608E-02  0.1235071E+00
          4   -1    0    0  501    0  0.00000000000E+00  0.00000000000E+00  0.11546159349E+02  0.11615795096E+02  0.12700000000E+01 0.  1.
         -4   -1    0    0    0  501 -0.00000000000E+00 -0.00000000000E+00 -0.33722051692E+03  0.33722290837E+03  0.12700000000E+01 0.  1.
         25    2    1    2    0    0  0.00000000000E+00  0.00000000000E+00 -0.32567435757E+03  0.34883870347E+03  0.12499861543E+03 0.  0.
    9000005    1    3    3    0    0  0.37982413475E+02 -0.30644468767E+01 -0.24614955279E+02  0.45375660783E+02  0.10000000000E+01 0.  0.
    9000005    1    3    3    0    0 -0.37982413475E+02  0.30644468767E+01 -0.30105940229E+03  0.30346304269E+03  0.10000000000E+01 0.  0.
<mgrwt>
<rscale>  0 0.12499862E+03</rscale>
<asrwt>0</asrwt>
<pdfrwt beam="1">  1        4 0.17818730E-02 0.12499862E+03</pdfrwt>
<pdfrwt beam="2">  1       -4 0.51885613E-01 0.12499862E+03</pdfrwt>
<totfact> 0.69854646E+03</totfact>
</mgrwt>
</event>
<event>
 5    1  0.3330238E-002  0.1249976E+03  0.7818608E-02  0.1235073E+00
          4   -1    0    0  501    0  0.00000000000E+00  0.00000000000E+00  0.11654642550E+03  0.11655334486E+03  0.12700000000E+01 0. -1.
         -4   -1    0    0    0  501 -0.00000000000E+00 -0.00000000000E+00 -0.33495436361E+02  0.33519504128E+02  0.12700000000E+01 0. -1.
         25    2    1    2    0    0  0.00000000000E+00  0.00000000000E+00  0.83050989142E+02  0.15007284899E+03  0.12499757280E+03 0.  0.
    9000005    1    3    3    0    0 -0.46224133333E+02  0.10620504110E+02 -0.73265274177E+01  0.48001495955E+02  0.10000000000E+01 0.  0.
    9000005    1    3    3    0    0  0.46224133333E+02 -0.10620504110E+02  0.90377516559E+02  0.10207135303E+03  0.10000000000E+01 0.  0.
<mgrwt>
<rscale>  0 0.12499757E+03</rscale>
<asrwt>0</asrwt>
<pdfrwt beam="1">  1        4 0.17932603E-01 0.12499757E+03</pdfrwt>
<pdfrwt beam="2">  1       -4 0.51555277E-02 0.12499757E+03</pdfrwt>
<totfact> 0.99294603E+03</totfact>
</mgrwt>
</event>
<event>
 5    1  0.3330238E-002  0.1249997E+03  0.7818608E-02  0.1235070E+00
          4   -1    0    0  501    0  0.00000000000E+00  0.00000000000E+00  0.76883152358E+02  0.76893640936E+02  0.12700000000E+01 0.  1.
         -4   -1    0    0    0  501 -0.00000000000E+00 -0.00000000000E+00 -0.50785474536E+02  0.50801351595E+02  0.12700000000E+01 0.  1.
         25    2    1    2    0    0  0.00000000000E+00  0.00000000000E+00  0.26097677821E+02  0.12769499253E+03  0.12499968932E+03 0.  0.
    9000005    1    3    3    0    0 -0.53233066959E+02  0.21459444816E+02 -0.12201809108E+02  0.58686892363E+02  0.10000000000E+01 0.  0.
    9000005    1    3    3    0    0  0.53233066959E+02 -0.21459444816E+02  0.38299486929E+02  0.69008100168E+02  0.10000000000E+01 0.  0.
<mgrwt>
<rscale>  0 0.12499969E+03</rscale>
<asrwt>0</asrwt>
<pdfrwt beam="1">  1        4 0.11830205E-01 0.12499969E+03</pdfrwt>
<pdfrwt beam="2">  1       -4 0.78151781E-02 0.12499969E+03</pdfrwt>
<totfact> 0.10394153E+04</totfact>
</mgrwt>
</event>
<event>
 5    1  0.3330238E-002  0.1249880E+03  0.7818608E-02  0.1235088E+00
         -4   -1    0    0    0  501 -0.00000000000E+00  0.00000000000E+00  0.65737441147E+02  0.65749707745E+02  0.12700000000E+01 0. -1.
          4   -1    0    0  501    0  0.00000000000E+00 -0.00000000000E+00 -0.59386004756E+02  0.59399583002E+02  0.12700000000E+01 0. -1.
         25    2    1    2    0    0  0.00000000000E+00  0.00000000000E+00  0.63514363908E+01  0.12514929075E+03  0.12498801635E+03 0.  0.
    9000005    1    3    3    0    0  0.20666326358E+02  0.10398723949E+02  0.61296033312E+02  0.65524302397E+02  0.10000000000E+01 0.  0.
    9000005    1    3    3    0    0 -0.20666326358E+02 -0.10398723949E+02 -0.54944596921E+02  0.59624988350E+02  0.10000000000E+01 0.  0.
<mgrwt>
<rscale>  0 0.12498802E+03</rscale>
<asrwt>0</asrwt>
<pdfrwt beam="2">  1        4 0.91382965E-02 0.12498802E+03</pdfrwt>
<pdfrwt beam="1">  1       -4 0.10115441E-01 0.12498802E+03</pdfrwt>
<totfact> 0.10452451E+04</totfact>
</mgrwt>
</event>
<event>
 5    1  0.3330238E-002  0.1249990E+03  0.7818608E-02  0.1235071E+00
         -4   -1    0    0    0  501 -0.00000000000E+00  0.00000000000E+00  0.37739107915E+03  0.37739321605E+03  0.12700000000E+01 0. -1.
          4   -1    0    0  501    0  0.00000000000E+00 -0.00000000000E+00 -0.10309366391E+02  0.10387296828E+02  0.12700000000E+01 0. -1.
         25    2    1    2    0    0  0.00000000000E+00  0.00000000000E+00  0.36708171276E+03  0.38778051288E+03  0.12499896930E+03 0.  0.
    9000005    1    3    3    0    0 -0.57497249206E+02  0.22924715308E+02  0.15690658501E+03  0.16867765904E+03  0.10000000000E+01 0.  0.
    9000005    1    3    3    0    0  0.57497249206E+02 -0.22924715308E+02  0.21017512775E+03  0.21910285384E+03  0.10000000000E+01 0.  0.
<mgrwt>
<rscale>  0 0.12499897E+03</rscale>
<asrwt>0</asrwt>
<pdfrwt beam="2">  1        4 0.15922155E-02 0.12499897E+03</pdfrwt>
<pdfrwt beam="1">  1       -4 0.58066320E-01 0.12499897E+03</pdfrwt>
<totfact> 0.65760347E+03</totfact>
</mgrwt>
</event>
<event>
 5    1  0.3330238E-002  0.1249984E+03  0.7818608E-02  0.1235072E+00
         -4   -1    0    0    0  501 -0.00000000000E+00  0.00000000000E+00  0.15548858520E+03  0.15549377167E+03  0.12700000000E+01 0.  1.
          4   -1    0    0  501    0  0.00000000000E+00 -0.00000000000E+00 -0.25100131019E+02  0.25132239796E+02  0.12700000000E+01 0.  1.
         25    2    1    2    0    0  0.00000000000E+00  0.00000000000E+00  0.13038845419E+03  0.18062601147E+03  0.12499842813E+03 0.  0.
    9000005    1    3    3    0    0  0.59472496260E+02  0.22219842659E+01  0.92734651009E+02  0.11019360473E+03  0.10000000000E+01 0.  0.
    9000005    1    3    3    0    0 -0.59472496260E+02 -0.22219842659E+01  0.37653803177E+02  0.70432406739E+02  0.10000000000E+01 0.  0.
<mgrwt>
<rscale>  0 0.12499843E+03</rscale>
<asrwt>0</asrwt>
<pdfrwt beam="2">  1        4 0.38644276E-02 0.12499843E+03</pdfrwt>
<pdfrwt beam="1">  1       -4 0.23924189E-01 0.12499843E+03</pdfrwt>
<totfact> 0.93507736E+03</totfact>
</mgrwt>
</event>
<event>
 5    1  0.3330238E-002  0.1250004E+03  0.7818608E-02  0.1235069E+00
          4   -1    0    0  501    0  0.00000000000E+00  0.00000000000E+00  0.19254490112E+02  0.19296328394E+02  0.12700000000E+01 0.  1.
         -4   -1    0    0    0  501 -0.00000000000E+00 -0.00000000000E+00 -0.20261214671E+03  0.20261612694E+03  0.12700000000E+01 0.  1.
         25    2    1    2    0    0  0.00000000000E+00  0.00000000000E+00 -0.18335765660E+03  0.22191245533E+03  0.12500043039E+03 0.  0.
    9000005    1    3    3    0    0 -0.60563669605E+02  0.15234098055E+02 -0.95743079610E+02  0.11431436092E+03  0.10000000000E+01 0.  0.
    9000005    1    3    3    0    0  0.60563669605E+02 -0.15234098055E+02 -0.87614576989E+02  0.10759809441E+03  0.10000000000E+01 0.  0.
<mgrwt>
<rscale>  0 0.12500043E+03</rscale>
<asrwt>0</asrwt>
<pdfrwt beam="1">  1        4 0.29657539E-02 0.12500043E+03</pdfrwt>
<pdfrwt beam="2">  1       -4 0.31174622E-01 0.12500043E+03</pdfrwt>
<totfact> 0.86565799E+03</totfact>
</mgrwt>
</event>
<event>
 5    1  0.3330238E-002  0.1249988E+03  0.7818608E-02  0.1235071E+00
          4   -1    0    0  501    0  0.00000000000E+00  0.00000000000E+00  0.52669784703E+01  0.54179296975E+01  0.12700000000E+01 0.  1.
         -4   -1    0    0    0  501 -0.00000000000E+00 -0.00000000000E+00 -0.73100577082E+03  0.73100687403E+03  0.12700000000E+01 0.  1.
         25    2    1    2    0    0  0.00000000000E+00  0.00000000000E+00 -0.72573879235E+03  0.73642480372E+03  0.12499878726E+03 0.  0.
    9000005    1    3    3    0    0 -0.28550357383E+02 -0.55385180240E+02 -0.39083557633E+03  0.39577277423E+03  0.10000000000E+01 0.  0.
    9000005    1    3    3    0    0  0.28550357383E+02  0.55385180240E+02 -0.33490321602E+03  0.34065202950E+03  0.10000000000E+01 0.  0.
<mgrwt>
<rscale>  0 0.12499879E+03</rscale>
<asrwt>0</asrwt>
<pdfrwt beam="1">  1        4 0.82200145E-03 0.12499879E+03</pdfrwt>
<pdfrwt beam="2">  1       -4 0.11247404E+00 0.12499879E+03</pdfrwt>
<totfact> 0.41233126E+03</totfact>
</mgrwt>
</event>
<event>
 5    1  0.3330238E-002  0.1249857E+03  0.7818608E-02  0.1235092E+00
         -4   -1    0    0    0  501 -0.00000000000E+00  0.00000000000E+00  0.57461558531E+03  0.57461698877E+03  0.12700000000E+01 0.  1.
          4   -1    0    0  501    0  0.00000000000E+00 -0.00000000000E+00 -0.67357170071E+01  0.68543988504E+01  0.12700000000E+01 0.  1.
         25    2    1    2    0    0  0.00000000000E+00  0.00000000000E+00  0.56787986830E+03  0.58147138762E+03  0.12498571837E+03 0.  0.
    9000005    1    3    3    0    0 -0.42586858809E+02  0.20227791339E+02  0.47471573512E+03  0.47705223326E+03  0.10000000000E+01 0.  0.
    9000005    1    3    3    0    0  0.42586858809E+02 -0.20227791339E+02  0.93164133180E+02  0.10441915436E+03  0.10000000000E+01 0.  0.
<mgrwt>
<rscale>  0 0.12498572E+03</rscale>
<asrwt>0</asrwt>
<pdfrwt beam="2">  1        4 0.10455014E-02 0.12498572E+03</pdfrwt>
<pdfrwt beam="1">  1       -4 0.88411638E-01 0.12498572E+03</pdfrwt>
<totfact> 0.50074158E+03</totfact>
</mgrwt>
</event>
<event>
 5    1  0.3330238E-002  0.1250013E+03  0.7818608E-02  0.1235067E+00
          4   -1    0    0  501    0  0.00000000000E+00  0.00000000000E+00  0.50570594437E+02  0.50586538938E+02  0.12700000000E+01 0.  1.
         -4   -1    0    0    0  501 -0.00000000000E+00 -0.00000000000E+00 -0.77211817393E+02  0.77222261331E+02  0.12700000000E+01 0.  1.
         25    2    1    2    0    0  0.00000000000E+00  0.00000000000E+00 -0.26641222956E+02  0.12780880027E+03  0.12500133866E+03 0.  0.
    9000005    1    3    3    0    0  0.12885707678E+02 -0.47065183405E+02 -0.53237940709E+02  0.72225004550E+02  0.10000000000E+01 0.  0.
    9000005    1    3    3    0    0 -0.12885707678E+02  0.47065183405E+02  0.26596717753E+02  0.55583795720E+02  0.10000000000E+01 0.  0.
<mgrwt>
<rscale>  0 0.12500134E+03</rscale>
<asrwt>0</asrwt>
<pdfrwt beam="1">  1        4 0.77821213E-02 0.12500134E+03</pdfrwt>
<pdfrwt beam="2">  1       -4 0.11880771E-01 0.12500134E+03</pdfrwt>
<totfact> 0.10391305E+04</totfact>
</mgrwt>
</event>
<event>
 5    1  0.3330238E-002  0.1250299E+03  0.7818608E-02  0.1235022E+00
          4   -1    0    0  501    0  0.00000000000E+00  0.00000000000E+00  0.46963481312E+03  0.46963653030E+03  0.12700000000E+01 0. -1.
         -4   -1    0    0    0  501 -0.00000000000E+00 -0.00000000000E+00 -0.82714205127E+01  0.83683509306E+01  0.12700000000E+01 0. -1.
         25    2    1    2    0    0  0.00000000000E+00  0.00000000000E+00  0.46136339261E+03  0.47800488123E+03  0.12502994219E+03 0.  0.
    9000005    1    3    3    0    0  0.16102635856E+02  0.23935932698E+02  0.44268061603E+03  0.44362072942E+03  0.10000000000E+01 0.  0.
    9000005    1    3    3    0    0 -0.16102635856E+02 -0.23935932698E+02  0.18682776573E+02  0.34384151816E+02  0.10000000000E+01 0.  0.
<mgrwt>
<rscale>  0 0.12502994E+03</rscale>
<asrwt>0</asrwt>
<pdfrwt beam="1">  1        4 0.72259104E-01 0.12502994E+03</pdfrwt>
<pdfrwt beam="2">  1       -4 0.12801144E-02 0.12502994E+03</pdfrwt>
<totfact> 0.57574289E+03</totfact>
</mgrwt>
</event>
<event>
 5    1  0.3330238E-002  0.1250013E+03  0.7818608E-02  0.1235067E+00
         -4   -1    0    0    0  501 -0.00000000000E+00  0.00000000000E+00  0.72326312091E+03  0.72326423593E+03  0.12700000000E+01 0. -1.
          4   -1    0    0  501    0  0.00000000000E+00 -0.00000000000E+00 -0.53251935881E+01  0.54745398665E+01  0.12700000000E+01 0. -1.
         25    2    1    2    0    0  0.00000000000E+00  0.00000000000E+00  0.71793792733E+03  0.72873877580E+03  0.12500134341E+03 0.  0.
    9000005    1    3    3    0    0 -0.19974469416E+02  0.23662619468E+02  0.67541934896E+03  0.67612957038E+03  0.10000000000E+01 0.  0.
    9000005    1    3    3    0    0  0.19974469416E+02 -0.23662619468E+02  0.42518578365E+02  0.52609205418E+02  0.10000000000E+01 0.  0.
<mgrwt>
<rscale>  0 0.12500134E+03</rscale>
<asrwt>0</asrwt>
<pdfrwt beam="2">  1        4 0.83083427E-03 0.12500134E+03</pdfrwt>
<pdfrwt beam="1">  1       -4 0.11128285E+00 0.12500134E+03</pdfrwt>
<totfact> 0.41611052E+03</totfact>
</mgrwt>
</event>
<event>
 5    1  0.3330238E-002  0.1250015E+03  0.7818608E-02  0.1235067E+00
          4   -1    0    0  501    0  0.00000000000E+00  0.00000000000E+00  0.96688321402E+02  0.96696661760E+02  0.12700000000E+01 0. -1.
         -4   -1    0    0    0  501 -0.00000000000E+00 -0.00000000000E+00 -0.40381325152E+02  0.40401291081E+02  0.12700000000E+01 0. -1.
         25    2    1    2    0    0  0.00000000000E+00  0.00000000000E+00  0.56306996250E+02  0.13709795284E+03  0.12500148338E+03 0.  0.
    9000005    1    3    3    0    0  0.82323346149E+01  0.47315257358E+02  0.72008386183E+02  0.86560456288E+02  0.10000000000E+01 0.  0.
    9000005    1    3    3    0    0 -0.82323346149E+01 -0.47315257358E+02 -0.15701389934E+02  0.50537496554E+02  0.10000000000E+01 0.  0.
<mgrwt>
<rscale>  0 0.12500148E+03</rscale>
<asrwt>0</asrwt>
<pdfrwt beam="1">  1        4 0.14877303E-01 0.12500148E+03</pdfrwt>
<pdfrwt beam="2">  1       -4 0.62146891E-02 0.12500148E+03</pdfrwt>
<totfact> 0.10193697E+04</totfact>
</mgrwt>
</event>
<event>
 5    1  0.3330238E-002  0.1249981E+03  0.7818608E-02  0.1235072E+00
          4   -1    0    0  501    0  0.00000000000E+00  0.00000000000E+00  0.91870188990E+02  0.91878966718E+02  0.12700000000E+01 0. -1.
         -4   -1    0    0    0  501 -0.00000000000E+00 -0.00000000000E+00 -0.42497654000E+02  0.42516626107E+02  0.12700000000E+01 0. -1.
         25    2    1    2    0    0  0.00000000000E+00  0.00000000000E+00  0.49372534990E+02  0.13439559282E+03  0.12499811262E+03 0.  0.
    9000005    1    3    3    0    0 -0.23015507517E+02  0.46477267943E+02 -0.12795503918E+02  0.53428222338E+02  0.10000000000E+01 0.  0.
    9000005    1    3    3    0    0  0.23015507517E+02 -0.46477267943E+02  0.62168038909E+02  0.80967370486E+02  0.10000000000E+01 0.  0.
<mgrwt>
<rscale>  0 0.12499811E+03</rscale>
<asrwt>0</asrwt>
<pdfrwt beam="1">  1        4 0.14136010E-01 0.12499811E+03</pdfrwt>
<pdfrwt beam="2">  1       -4 0.65402352E-02 0.12499811E+03</pdfrwt>
<totfact> 0.10251262E+04</totfact>
</mgrwt>
</event>
<event>
 5    1  0.3330238E-002  0.1250054E+03  0.7818608E-02  0.1235061E+00
         -4   -1    0    0    0  501 -0.00000000000E+00  0.00000000000E+00  0.46775459152E+01  0.48468892899E+01  0.12700000000E+01 0.  1.
          4   -1    0    0  501    0  0.00000000000E+00 -0.00000000000E+00 -0.82015921678E+03  0.82016020006E+03  0.12700000000E+01 0.  1.
         25    2    1    2    0    0  0.00000000000E+00  0.00000000000E+00 -0.81548167086E+03  0.82500708935E+03  0.12500536776E+03 0.  0.
    9000005    1    3    3    0    0  0.46242799111E+02 -0.40361058124E+02 -0.48531948193E+03  0.48918647878E+03  0.10000000000E+01 0.  0.
    9000005    1    3    3    0    0 -0.46242799111E+02  0.40361058124E+02 -0.33016218893E+03  0.33582061057E+03  0.10000000000E+01 0.  0.
<mgrwt>
<rscale>  0 0.12500537E+03</rscale>
<asrwt>0</asrwt>
<pdfrwt beam="2">  1        4 0.12619133E+00 0.12500537E+03</pdfrwt>
<pdfrwt beam="1">  1       -4 0.73272515E-03 0.12500537E+03</pdfrwt>
<totfact> 0.37168098E+03</totfact>
</mgrwt>
</event>
<event>
 5    1  0.3330238E-002  0.1250006E+03  0.7818608E-02  0.1235068E+00
          4   -1    0    0  501    0  0.00000000000E+00  0.00000000000E+00  0.53274208797E+02  0.53289344366E+02  0.12700000000E+01 0.  1.
         -4   -1    0    0    0  501 -0.00000000000E+00 -0.00000000000E+00 -0.73293117740E+02  0.73304119994E+02  0.12700000000E+01 0.  1.
         25    2    1    2    0    0  0.00000000000E+00  0.00000000000E+00 -0.20018908943E+02  0.12659346436E+03  0.12500059401E+03 0.  0.
    9000005    1    3    3    0    0  0.18820757409E+02 -0.51979433840E+02 -0.39521913426E+02  0.67963696873E+02  0.10000000000E+01 0.  0.
    9000005    1    3    3    0    0 -0.18820757409E+02  0.51979433840E+02  0.19503004483E+02  0.58629767487E+02  0.10000000000E+01 0.  0.
<mgrwt>
<rscale>  0 0.12500059E+03</rscale>
<asrwt>0</asrwt>
<pdfrwt beam="1">  1        4 0.81980427E-02 0.12500059E+03</pdfrwt>
<pdfrwt beam="2">  1       -4 0.11277875E-01 0.12500059E+03</pdfrwt>
<totfact> 0.10417851E+04</totfact>
</mgrwt>
</event>
<event>
 5    1  0.3330238E-002  0.1249712E+03  0.7818608E-02  0.1235114E+00
         -4   -1    0    0    0  501 -0.00000000000E+00  0.00000000000E+00  0.38124673810E+02  0.38145820912E+02  0.12700000000E+01 0. -1.
          4   -1    0    0  501    0  0.00000000000E+00 -0.00000000000E+00 -0.10235928208E+03  0.10236716040E+03  0.12700000000E+01 0. -1.
         25    2    1    2    0    0  0.00000000000E+00  0.00000000000E+00 -0.64234608274E+02  0.14051298131E+03  0.12497124876E+03 0.  0.
    9000005    1    3    3    0    0 -0.48512358021E+02 -0.16471130664E+02 -0.72323383838E+02  0.88636442144E+02  0.10000000000E+01 0.  0.
    9000005    1    3    3    0    0  0.48512358021E+02  0.16471130664E+02  0.80887755640E+01  0.51876539170E+02  0.10000000000E+01 0.  0.
<mgrwt>
<rscale>  0 0.12497125E+03</rscale>
<asrwt>0</asrwt>
<pdfrwt beam="2">  1        4 0.15749815E-01 0.12497125E+03</pdfrwt>
<pdfrwt beam="1">  1       -4 0.58675672E-02 0.12497125E+03</pdfrwt>
<totfact> 0.10129525E+04</totfact>
</mgrwt>
</event>
<event>
 5    1  0.3330238E-002  0.1250008E+03  0.7818608E-02  0.1235068E+00
          4   -1    0    0  501    0  0.00000000000E+00  0.00000000000E+00  0.14334824383E+02  0.14390972521E+02  0.12700000000E+01 0. -1.
         -4   -1    0    0    0  501 -0.00000000000E+00 -0.00000000000E+00 -0.27191372930E+03  0.27191669512E+03  0.12700000000E+01 0. -1.
         25    2    1    2    0    0  0.00000000000E+00  0.00000000000E+00 -0.25757890492E+03  0.28630766764E+03  0.12500075315E+03 0.  0.
    9000005    1    3    3    0    0  0.55353744462E+02  0.25394752763E+02 -0.16088569075E+03  0.17202946254E+03  0.10000000000E+01 0.  0.
    9000005    1    3    3    0    0 -0.55353744462E+02 -0.25394752763E+02 -0.96693214172E+02  0.11427820510E+03  0.10000000000E+01 0.  0.
<mgrwt>
<rscale>  0 0.12500075E+03</rscale>
<asrwt>0</asrwt>
<pdfrwt beam="1">  1        4 0.22099050E-02 0.12500075E+03</pdfrwt>
<pdfrwt beam="2">  1       -4 0.41837425E-01 0.12500075E+03</pdfrwt>
<totfact> 0.77347827E+03</totfact>
</mgrwt>
</event>
<event>
 5    1  0.3330238E-002  0.1249957E+03  0.7818608E-02  0.1235076E+00
         -4   -1    0    0    0  501 -0.00000000000E+00  0.00000000000E+00  0.36424580514E+03  0.36424801916E+03  0.12700000000E+01 0.  1.
          4   -1    0    0  501    0  0.00000000000E+00 -0.00000000000E+00 -0.10683612538E+02  0.10758832505E+02  0.12700000000E+01 0.  1.
         25    2    1    2    0    0  0.00000000000E+00  0.00000000000E+00  0.35356219261E+03  0.37500685167E+03  0.12499565896E+03 0.  0.
    9000005    1    3    3    0    0 -0.88444224283E+01 -0.58400068066E+02  0.23798632031E+03  0.24520864669E+03  0.10000000000E+01 0.  0.
    9000005    1    3    3    0    0  0.88444224283E+01  0.58400068066E+02  0.11557587230E+03  0.12979820498E+03  0.10000000000E+01 0.  0.
<mgrwt>
<rscale>  0 0.12499566E+03</rscale>
<asrwt>0</asrwt>
<pdfrwt beam="2">  1        4 0.16495891E-02 0.12499566E+03</pdfrwt>
<pdfrwt beam="1">  1       -4 0.56043773E-01 0.12499566E+03</pdfrwt>
<totfact> 0.67064792E+03</totfact>
</mgrwt>
</event>
<event>
 5    1  0.3330238E-002  0.1249997E+03  0.7818608E-02  0.1235070E+00
          4   -1    0    0  501    0  0.00000000000E+00  0.00000000000E+00  0.48984573389E+01  0.50604134515E+01  0.12700000000E+01 0. -1.
         -4   -1    0    0    0  501 -0.00000000000E+00 -0.00000000000E+00 -0.78430998802E+03  0.78431101625E+03  0.12700000000E+01 0. -1.
         25    2    1    2    0    0  0.00000000000E+00  0.00000000000E+00 -0.77941153068E+03  0.78937142970E+03  0.12499967947E+03 0.  0.
    9000005    1    3    3    0    0 -0.33673304535E+02 -0.45053276033E+02 -0.56167075727E+03  0.56448093740E+03  0.10000000000E+01 0.  0.
    9000005    1    3    3    0    0  0.33673304535E+02  0.45053276033E+02 -0.21774077342E+03  0.22489049230E+03  0.10000000000E+01 0.  0.
<mgrwt>
<rscale>  0 0.12499968E+03</rscale>
<asrwt>0</asrwt>
<pdfrwt beam="1">  1        4 0.76614670E-03 0.12499968E+03</pdfrwt>
<pdfrwt beam="2">  1       -4 0.12067551E+00 0.12499968E+03</pdfrwt>
<totfact> 0.38743941E+03</totfact>
</mgrwt>
</event>
<event>
 5    1  0.3330238E-002  0.1249997E+03  0.7818608E-02  0.1235070E+00
         -4   -1    0    0    0  501 -0.00000000000E+00  0.00000000000E+00  0.96382353918E+02  0.96390720750E+02  0.12700000000E+01 0. -1.
          4   -1    0    0  501    0  0.00000000000E+00 -0.00000000000E+00 -0.40508428383E+02  0.40528331696E+02  0.12700000000E+01 0. -1.
         25    2    1    2    0    0  0.00000000000E+00  0.00000000000E+00  0.55873925535E+02  0.13691905245E+03  0.12499972547E+03 0.  0.
    9000005    1    3    3    0    0 -0.55484312868E+02  0.27792786461E+02  0.19866576898E+02  0.65166163239E+02  0.10000000000E+01 0.  0.
    9000005    1    3    3    0    0  0.55484312868E+02 -0.27792786461E+02  0.36007348637E+02  0.71752889207E+02  0.10000000000E+01 0.  0.
<mgrwt>
<rscale>  0 0.12499973E+03</rscale>
<asrwt>0</asrwt>
<pdfrwt beam="2">  1        4 0.62342406E-02 0.12499973E+03</pdfrwt>
<pdfrwt beam="1">  1       -4 0.14830229E-01 0.12499973E+03</pdfrwt>
<totfact> 0.10197842E+04</totfact>
</mgrwt>
</event>
<event>
 5    1  0.3330238E-002  0.1249994E+03  0.7818608E-02  0.1235070E+00
         -4   -1    0    0    0  501 -0.00000000000E+00  0.00000000000E+00  0.63899980754E+03  0.63900106959E+03  0.12700000000E+01 0.  1.
          4   -1    0    0  501    0  0.00000000000E+00 -0.00000000000E+00 -0.60457675256E+01  0.61777184278E+01  0.12700000000E+01 0.  1.
         25    2    1    2    0    0  0.00000000000E+00  0.00000000000E+00  0.63295404001E+03  0.64517878801E+03  0.12499940694E+03 0.  0.
    9000005    1    3    3    0    0  0.56822661305E+02 -0.25884002575E+02  0.30340262913E+03  0.30976273467E+03  0.10000000000E+01 0.  0.
    9000005    1    3    3    0    0 -0.56822661305E+02  0.25884002575E+02  0.32955141088E+03  0.33541605335E+03  0.10000000000E+01 0.  0.
<mgrwt>
<rscale>  0 0.12499941E+03</rscale>
<asrwt>0</asrwt>
<pdfrwt beam="2">  1        4 0.94036617E-03 0.12499941E+03</pdfrwt>
<pdfrwt beam="1">  1       -4 0.98317811E-01 0.12499941E+03</pdfrwt>
<totfact> 0.46135091E+03</totfact>
</mgrwt>
</event>
<event>
 5    1  0.3330238E-002  0.1250017E+03  0.7818608E-02  0.1235067E+00
          4   -1    0    0  501    0  0.00000000000E+00  0.00000000000E+00  0.16218400088E+02  0.16268048482E+02  0.12700000000E+01 0. -1.
         -4   -1    0    0    0  501 -0.00000000000E+00 -0.00000000000E+00 -0.24044028972E+03  0.24044364375E+03  0.12700000000E+01 0. -1.
         25    2    1    2    0    0  0.00000000000E+00  0.00000000000E+00 -0.22422188963E+03  0.25671169223E+03  0.12500174854E+03 0.  0.
    9000005    1    3    3    0    0 -0.38953008208E+00 -0.27373751418E+02  0.32583307812E+01  0.27587872695E+02  0.10000000000E+01 0.  0.
    9000005    1    3    3    0    0  0.38953008208E+00  0.27373751418E+02 -0.22748022041E+03  0.22912381954E+03  0.10000000000E+01 0.  0.
<mgrwt>
<rscale>  0 0.12500175E+03</rscale>
<asrwt>0</asrwt>
<pdfrwt beam="1">  1        4 0.24992158E-02 0.12500175E+03</pdfrwt>
<pdfrwt beam="2">  1       -4 0.36994888E-01 0.12500175E+03</pdfrwt>
<totfact> 0.81366587E+03</totfact>
</mgrwt>
</event>
<event>
 5    1  0.3330238E-002  0.1250026E+03  0.7818608E-02  0.1235065E+00
         -4   -1    0    0    0  501 -0.00000000000E+00  0.00000000000E+00  0.67056998498E+01  0.68249036971E+01  0.12700000000E+01 0. -1.
          4   -1    0    0  501    0  0.00000000000E+00 -0.00000000000E+00 -0.57729913199E+03  0.57730052892E+03  0.12700000000E+01 0. -1.
         25    2    1    2    0    0  0.00000000000E+00  0.00000000000E+00 -0.57059343214E+03  0.58412543262E+03  0.12500262491E+03 0.  0.
    9000005    1    3    3    0    0 -0.48985883752E+02 -0.29438751193E+02 -0.40343504372E+03  0.40746422098E+03  0.10000000000E+01 0.  0.
    9000005    1    3    3    0    0  0.48985883752E+02  0.29438751193E+02 -0.16715838842E+03  0.17666121164E+03  0.10000000000E+01 0.  0.
<mgrwt>
<rscale>  0 0.12500262E+03</rscale>
<asrwt>0</asrwt>
<pdfrwt beam="2">  1        4 0.88824490E-01 0.12500262E+03</pdfrwt>
<pdfrwt beam="1">  1       -4 0.10409236E-02 0.12500262E+03</pdfrwt>
<totfact> 0.49882383E+03</totfact>
</mgrwt>
</event>
<event>
 5    1  0.3330238E-002  0.1250007E+03  0.7818608E-02  0.1235068E+00
         -4   -1    0    0    0  501 -0.00000000000E+00  0.00000000000E+00  0.32620521347E+02  0.32645234154E+02  0.12700000000E+01 0. -1.
          4   -1    0    0  501    0  0.00000000000E+00 -0.00000000000E+00 -0.11967620850E+03  0.11968294691E+03  0.12700000000E+01 0. -1.
         25    2    1    2    0    0  0.00000000000E+00  0.00000000000E+00 -0.87055687153E+02  0.15232818106E+03  0.12500072832E+03 0.  0.
    9000005    1    3    3    0    0 -0.25880899862E+02  0.33577323107E+02  0.12423036450E+02  0.44188114231E+02  0.10000000000E+01 0.  0.
    9000005    1    3    3    0    0  0.25880899862E+02 -0.33577323107E+02 -0.99478723603E+02  0.10814006683E+03  0.10000000000E+01 0.  0.
<mgrwt>
<rscale>  0 0.12500073E+03</rscale>
<asrwt>0</asrwt>
<pdfrwt beam="2">  1        4 0.18414144E-01 0.12500073E+03</pdfrwt>
<pdfrwt beam="1">  1       -4 0.50209611E-02 0.12500073E+03</pdfrwt>
<totfact> 0.98839999E+03</totfact>
</mgrwt>
</event>
<event>
 5    1  0.3330238E-002  0.1250031E+03  0.7818608E-02  0.1235064E+00
          4   -1    0    0  501    0  0.00000000000E+00  0.00000000000E+00  0.13659772288E+02  0.13718683573E+02  0.12700000000E+01 0.  1.
         -4   -1    0    0    0  501 -0.00000000000E+00 -0.00000000000E+00 -0.28530583700E+03  0.28530866360E+03  0.12700000000E+01 0.  1.
         25    2    1    2    0    0  0.00000000000E+00  0.00000000000E+00 -0.27164606471E+03  0.29902734717E+03  0.12500307950E+03 0.  0.
    9000005    1    3    3    0    0  0.53521042357E+02  0.31885731195E+02 -0.12404528436E+03  0.13881438831E+03  0.10000000000E+01 0.  0.
    9000005    1    3    3    0    0 -0.53521042357E+02 -0.31885731195E+02 -0.14760078035E+03  0.16021295887E+03  0.10000000000E+01 0.  0.
<mgrwt>
<rscale>  0 0.12500308E+03</rscale>
<asrwt>0</asrwt>
<pdfrwt beam="1">  1        4 0.21062527E-02 0.12500308E+03</pdfrwt>
<pdfrwt beam="2">  1       -4 0.43897951E-01 0.12500308E+03</pdfrwt>
<totfact> 0.75715834E+03</totfact>
</mgrwt>
</event>
<event>
 5    1  0.3330238E-002  0.1250010E+03  0.7818608E-02  0.1235068E+00
          4   -1    0    0  501    0  0.00000000000E+00  0.00000000000E+00  0.35735655242E+03  0.35735880912E+03  0.12700000000E+01 0.  1.
         -4   -1    0    0    0  501 -0.00000000000E+00 -0.00000000000E+00 -0.10891945577E+02  0.10965736567E+02  0.12700000000E+01 0.  1.
         25    2    1    2    0    0  0.00000000000E+00  0.00000000000E+00  0.34646460684E+03  0.36832454569E+03  0.12500098864E+03 0.  0.
    9000005    1    3    3    0    0 -0.17245105458E+02 -0.40260012153E+02  0.41884878622E+02  0.60610273865E+02  0.10000000000E+01 0.  0.
    9000005    1    3    3    0    0  0.17245105458E+02  0.40260012153E+02  0.30457972822E+03  0.30771427182E+03  0.10000000000E+01 0.  0.
<mgrwt>
<rscale>  0 0.12500099E+03</rscale>
<asrwt>0</asrwt>
<pdfrwt beam="1">  1        4 0.54983775E-01 0.12500099E+03</pdfrwt>
<pdfrwt beam="2">  1       -4 0.16815339E-02 0.12500099E+03</pdfrwt>
<totfact> 0.67753107E+03</totfact>
</mgrwt>
</event>
<event>
 5    1  0.3330238E-002  0.1249943E+03  0.7818608E-02  0.1235078E+00
          4   -1    0    0  501    0  0.00000000000E+00  0.00000000000E+00  0.51672882992E+02  0.51688487467E+02  0.12700000000E+01 0. -1.
         -4   -1    0    0    0  501 -0.00000000000E+00 -0.00000000000E+00 -0.75556517782E+02  0.75567190495E+02  0.12700000000E+01 0. -1.
         25    2    1    2    0    0  0.00000000000E+00  0.00000000000E+00 -0.23883634790E+02  0.12725567796E+03  0.12499431812E+03 0.  0.
    9000005    1    3    3    0    0 -0.20450874678E+02  0.57549646277E+02 -0.25398156482E+02  0.66153355276E+02  0.10000000000E+01 0.  0.
    9000005    1    3    3    0    0  0.20450874678E+02 -0.57549646277E+02  0.15145216913E+01  0.61102322686E+02  0.10000000000E+01 0.  0.
<mgrwt>
<rscale>  0 0.12499432E+03</rscale>
<asrwt>0</asrwt>
<pdfrwt beam="1">  1        4 0.79516956E-02 0.12499432E+03</pdfrwt>
<pdfrwt beam="2">  1       -4 0.11626101E-01 0.12499432E+03</pdfrwt>
<totfact> 0.10404930E+04</totfact>
</mgrwt>
</event>
<event>
 5    1  0.3330238E-002  0.1250015E+03  0.7818608E-02  0.1235067E+00
         -4   -1    0    0    0  501 -0.00000000000E+00  0.00000000000E+00  0.40315917288E+02  0.40335915593E+02  0.12700000000E+01 0. -1.
          4   -1    0    0  501    0  0.00000000000E+00 -0.00000000000E+00 -0.96845224594E+02  0.96853551441E+02  0.12700000000E+01 0. -1.
         25    2    1    2    0    0  0.00000000000E+00  0.00000000000E+00 -0.56529307307E+02  0.13718946703E+03  0.12500154911E+03 0.  0.
    9000005    1    3    3    0    0  0.48596988606E+02 -0.89407763817E+01 -0.70253858108E+02  0.85896503788E+02  0.10000000000E+01 0.  0.
    9000005    1    3    3    0    0 -0.48596988606E+02  0.89407763817E+01  0.13724550802E+02  0.51292963246E+02  0.10000000000E+01 0.  0.
<mgrwt>
<rscale>  0 0.12500155E+03</rscale>
<asrwt>0</asrwt>
<pdfrwt beam="2">  1        4 0.14901444E-01 0.12500155E+03</pdfrwt>
<pdfrwt beam="1">  1       -4 0.62046277E-02 0.12500155E+03</pdfrwt>
<totfact> 0.10191770E+04</totfact>
</mgrwt>
</event>
<event>
 5    1  0.3330238E-002  0.1249989E+03  0.7818608E-02  0.1235071E+00
          4   -1    0    0  501    0  0.00000000000E+00  0.00000000000E+00  0.30422172543E+02  0.30448669630E+02  0.12700000000E+01 0.  1.
         -4   -1    0    0    0  501 -0.00000000000E+00 -0.00000000000E+00 -0.12831362360E+03  0.12831990844E+03  0.12700000000E+01 0.  1.
         25    2    1    2    0    0  0.00000000000E+00  0.00000000000E+00 -0.97891451059E+02  0.15876857807E+03  0.12499890076E+03 0.  0.
    9000005    1    3    3    0    0 -0.41351342204E+02  0.43178974807E+02 -0.25843340375E+02  0.65140122883E+02  0.10000000000E+01 0.  0.
    9000005    1    3    3    0    0  0.41351342204E+02 -0.43178974807E+02 -0.72048110684E+02  0.93628455186E+02  0.10000000000E+01 0.  0.
<mgrwt>
<rscale>  0 0.12499890E+03</rscale>
<asrwt>0</asrwt>
<pdfrwt beam="1">  1        4 0.46828560E-02 0.12499890E+03</pdfrwt>
<pdfrwt beam="2">  1       -4 0.19743079E-01 0.12499890E+03</pdfrwt>
<totfact> 0.97583131E+03</totfact>
</mgrwt>
</event>
<event>
 5    1  0.3330238E-002  0.1250047E+03  0.7818608E-02  0.1235062E+00
         -4   -1    0    0    0  501 -0.00000000000E+00  0.00000000000E+00  0.13340297056E+02  0.13400612879E+02  0.12700000000E+01 0. -1.
          4   -1    0    0  501    0  0.00000000000E+00 -0.00000000000E+00 -0.29211569072E+03  0.29211845143E+03  0.12700000000E+01 0. -1.
         25    2    1    2    0    0  0.00000000000E+00  0.00000000000E+00 -0.27877539367E+03  0.30551906431E+03  0.12500471408E+03 0.  0.
    9000005    1    3    3    0    0  0.23875870139E+02  0.52767229082E+02 -0.19676364640E+03  0.20511306683E+03  0.10000000000E+01 0.  0.
    9000005    1    3    3    0    0 -0.23875870139E+02 -0.52767229082E+02 -0.82011747262E+02  0.10040599747E+03  0.10000000000E+01 0.  0.
<mgrwt>
<rscale>  0 0.12500471E+03</rscale>
<asrwt>0</asrwt>
<pdfrwt beam="2">  1        4 0.44945723E-01 0.12500471E+03</pdfrwt>
<pdfrwt beam="1">  1       -4 0.20572057E-02 0.12500471E+03</pdfrwt>
<totfact> 0.74903878E+03</totfact>
</mgrwt>
</event>
<event>
 5    1  0.3330238E-002  0.1249970E+03  0.7818608E-02  0.1235074E+00
          4   -1    0    0  501    0  0.00000000000E+00  0.00000000000E+00  0.28215330063E+03  0.28215615881E+03  0.12700000000E+01 0.  1.
         -4   -1    0    0    0  501 -0.00000000000E+00 -0.00000000000E+00 -0.13811691119E+02  0.13869957158E+02  0.12700000000E+01 0.  1.
         25    2    1    2    0    0  0.00000000000E+00  0.00000000000E+00  0.26834160951E+03  0.29602611597E+03  0.12499696773E+03 0.  0.
    9000005    1    3    3    0    0  0.13587333677E+02  0.60056922106E+02  0.15941378672E+03  0.17089530399E+03  0.10000000000E+01 0.  0.
    9000005    1    3    3    0    0 -0.13587333677E+02 -0.60056922106E+02  0.10892782279E+03  0.12513081198E+03  0.10000000000E+01 0.  0.
<mgrwt>
<rscale>  0 0.12499697E+03</rscale>
<asrwt>0</asrwt>
<pdfrwt beam="1">  1        4 0.43412901E-01 0.12499697E+03</pdfrwt>
<pdfrwt beam="2">  1       -4 0.21295775E-02 0.12499697E+03</pdfrwt>
<totfact> 0.76105158E+03</totfact>
</mgrwt>
</event>
<event>
 5    1  0.3330238E-002  0.1250001E+03  0.7818608E-02  0.1235069E+00
          4   -1    0    0  501    0  0.00000000000E+00  0.00000000000E+00  0.34263148469E+03  0.34263383838E+03  0.12700000000E+01 0.  1.
         -4   -1    0    0    0  501 -0.00000000000E+00 -0.00000000000E+00 -0.11362985778E+02  0.11433737175E+02  0.12700000000E+01 0.  1.
         25    2    1    2    0    0  0.00000000000E+00  0.00000000000E+00  0.33126849891E+03  0.35406757555E+03  0.12500011874E+03 0.  0.
    9000005    1    3    3    0    0  0.37360367420E+02 -0.50081625656E+02  0.16241568436E+03  0.17402247214E+03  0.10000000000E+01 0.  0.
    9000005    1    3    3    0    0 -0.37360367420E+02  0.50081625656E+02  0.16885281455E+03  0.18004510341E+03  0.10000000000E+01 0.  0.
<mgrwt>
<rscale>  0 0.12500012E+03</rscale>
<asrwt>0</asrwt>
<pdfrwt beam="1">  1        4 0.52718169E-01 0.12500012E+03</pdfrwt>
<pdfrwt beam="2">  1       -4 0.17537748E-02 0.12500012E+03</pdfrwt>
<totfact> 0.69279189E+03</totfact>
</mgrwt>
</event>
<event>
 5    1  0.3330238E-002  0.1249984E+03  0.7818608E-02  0.1235072E+00
          4   -1    0    0  501    0  0.00000000000E+00  0.00000000000E+00  0.11214721460E+02  0.11286402325E+02  0.12700000000E+01 0.  1.
         -4   -1    0    0    0  501 -0.00000000000E+00 -0.00000000000E+00 -0.34712287264E+03  0.34712519587E+03  0.12700000000E+01 0.  1.
         25    2    1    2    0    0  0.00000000000E+00  0.00000000000E+00 -0.33590815118E+03  0.35841159819E+03  0.12499835076E+03 0.  0.
    9000005    1    3    3    0    0  0.71142347886E+01  0.60276308322E+02 -0.12529910002E+03  0.13922898458E+03  0.10000000000E+01 0.  0.
    9000005    1    3    3    0    0 -0.71142347886E+01 -0.60276308322E+02 -0.21060905116E+03  0.21918261361E+03  0.10000000000E+01 0.  0.
<mgrwt>
<rscale>  0 0.12499835E+03</rscale>
<asrwt>0</asrwt>
<pdfrwt beam="1">  1        4 0.17310347E-02 0.12499835E+03</pdfrwt>
<pdfrwt beam="2">  1       -4 0.53409203E-01 0.12499835E+03</pdfrwt>
<totfact> 0.68811498E+03</totfact>
</mgrwt>
</event>
<event>
 5    1  0.3330238E-002  0.1250021E+03  0.7818608E-02  0.1235066E+00
         -4   -1    0    0    0  501 -0.00000000000E+00  0.00000000000E+00  0.12285523294E+03  0.12286179700E+03  0.12700000000E+01 0. -1.
          4   -1    0    0  501    0  0.00000000000E+00 -0.00000000000E+00 -0.31776538003E+02  0.31801906664E+02  0.12700000000E+01 0. -1.
         25    2    1    2    0    0  0.00000000000E+00  0.00000000000E+00  0.91078694939E+02  0.15466370366E+03  0.12500213021E+03 0.  0.
    9000005    1    3    3    0    0 -0.31727736212E+01 -0.59181157677E+02  0.70064741762E+02  0.91774418846E+02  0.10000000000E+01 0.  0.
    9000005    1    3    3    0    0  0.31727736212E+01  0.59181157677E+02  0.21013953178E+02  0.62889284815E+02  0.10000000000E+01 0.  0.
<mgrwt>
<rscale>  0 0.12500213E+03</rscale>
<asrwt>0</asrwt>
<pdfrwt beam="2">  1        4 0.48911546E-02 0.12500213E+03</pdfrwt>
<pdfrwt beam="1">  1       -4 0.18903261E-01 0.12500213E+03</pdfrwt>
<totfact> 0.98376845E+03</totfact>
</mgrwt>
</event>
<event>
 5    1  0.3330238E-002  0.1249968E+03  0.7818608E-02  0.1235074E+00
          4   -1    0    0  501    0  0.00000000000E+00  0.00000000000E+00  0.54035345807E+03  0.54035495052E+03  0.12700000000E+01 0.  1.
         -4   -1    0    0    0  501 -0.00000000000E+00 -0.00000000000E+00 -0.71714013437E+01  0.72829868346E+01  0.12700000000E+01 0.  1.
         25    2    1    2    0    0  0.00000000000E+00  0.00000000000E+00  0.53318205673E+03  0.54763793735E+03  0.12499681921E+03 0.  0.
    9000005    1    3    3    0    0 -0.62392333991E+02  0.23457237717E+01  0.27796991513E+03  0.28489748942E+03  0.10000000000E+01 0.  0.
    9000005    1    3    3    0    0  0.62392333991E+02 -0.23457237717E+01  0.25521214160E+03  0.26274044793E+03  0.10000000000E+01 0.  0.
<mgrwt>
<rscale>  0 0.12499682E+03</rscale>
<asrwt>0</asrwt>
<pdfrwt beam="1">  1        4 0.83140000E-01 0.12499682E+03</pdfrwt>
<pdfrwt beam="2">  1       -4 0.11119908E-02 0.12499682E+03</pdfrwt>
<totfact> 0.52352619E+03</totfact>
</mgrwt>
</event>
<event>
 5    1  0.3330238E-002  0.1250014E+03  0.7818608E-02  0.1235067E+00
         -4   -1    0    0    0  501 -0.00000000000E+00  0.00000000000E+00  0.15835880262E+03  0.15836389509E+03  0.12700000000E+01 0. -1.
          4   -1    0    0  501    0  0.00000000000E+00 -0.00000000000E+00 -0.24645779651E+02  0.24678479585E+02  0.12700000000E+01 0. -1.
         25    2    1    2    0    0  0.00000000000E+00  0.00000000000E+00  0.13371302297E+03  0.18304237468E+03  0.12500135365E+03 0.  0.
    9000005    1    3    3    0    0 -0.60331035330E+02 -0.14775335331E+02  0.76915702238E+02  0.98869457412E+02  0.10000000000E+01 0.  0.
    9000005    1    3    3    0    0  0.60331035330E+02  0.14775335331E+02  0.56797320735E+02  0.84172917265E+02  0.10000000000E+01 0.  0.
<mgrwt>
<rscale>  0 0.12500135E+03</rscale>
<asrwt>0</asrwt>
<pdfrwt beam="2">  1        4 0.37945655E-02 0.12500135E+03</pdfrwt>
<pdfrwt beam="1">  1       -4 0.24365800E-01 0.12500135E+03</pdfrwt>
<totfact> 0.93069391E+03</totfact>
</mgrwt>
</event>
<event>
 5    1  0.3330238E-002  0.1250013E+03  0.7818608E-02  0.1235067E+00
          4   -1    0    0  501    0  0.00000000000E+00  0.00000000000E+00  0.11775274440E+02  0.11843563152E+02  0.12700000000E+01 0. -1.
         -4   -1    0    0    0  501 -0.00000000000E+00 -0.00000000000E+00 -0.33071150799E+03  0.33071394651E+03  0.12700000000E+01 0. -1.
         25    2    1    2    0    0  0.00000000000E+00  0.00000000000E+00 -0.31893623355E+03  0.34255750966E+03  0.12500130541E+03 0.  0.
    9000005    1    3    3    0    0  0.11172171424E+02  0.65638310691E+00 -0.32795637140E+03  0.32814879216E+03  0.10000000000E+01 0.  0.
    9000005    1    3    3    0    0 -0.11172171424E+02 -0.65638310691E+00  0.90201378538E+01  0.14408717501E+02  0.10000000000E+01 0.  0.
<mgrwt>
<rscale>  0 0.12500131E+03</rscale>
<asrwt>0</asrwt>
<pdfrwt beam="1">  1        4 0.18170215E-02 0.12500131E+03</pdfrwt>
<pdfrwt beam="2">  1       -4 0.50884127E-01 0.12500131E+03</pdfrwt>
<totfact> 0.70549120E+03</totfact>
</mgrwt>
</event>
<event>
 5    1  0.3330238E-002  0.1249981E+03  0.7818608E-02  0.1235072E+00
         -4   -1    0    0    0  501 -0.00000000000E+00  0.00000000000E+00  0.16612012998E+03  0.16612498453E+03  0.12700000000E+01 0. -1.
          4   -1    0    0  501    0  0.00000000000E+00 -0.00000000000E+00 -0.23491534547E+02  0.23525838888E+02  0.12700000000E+01 0. -1.
         25    2    1    2    0    0  0.00000000000E+00  0.00000000000E+00  0.14262859543E+03  0.18965082341E+03  0.12499807433E+03 0.  0.
    9000005    1    3    3    0    0 -0.47985666532E+02 -0.39316795759E+02  0.59890147959E+02  0.86233777859E+02  0.10000000000E+01 0.  0.
    9000005    1    3    3    0    0  0.47985666532E+02  0.39316795759E+02  0.82738447472E+02  0.10341704555E+03  0.10000000000E+01 0.  0.
<mgrwt>
<rscale>  0 0.12499807E+03</rscale>
<asrwt>0</asrwt>
<pdfrwt beam="2">  1        4 0.36170946E-02 0.12499807E+03</pdfrwt>
<pdfrwt beam="1">  1       -4 0.25559955E-01 0.12499807E+03</pdfrwt>
<totfact> 0.91912070E+03</totfact>
</mgrwt>
</event>
<event>
 5    1  0.3330238E-002  0.1249823E+03  0.7818608E-02  0.1235097E+00
          4   -1    0    0  501    0  0.00000000000E+00  0.00000000000E+00  0.58136755477E+02  0.58150625425E+02  0.12700000000E+01 0.  1.
         -4   -1    0    0    0  501 -0.00000000000E+00 -0.00000000000E+00 -0.67143744599E+02  0.67155754323E+02  0.12700000000E+01 0.  1.
         25    2    1    2    0    0  0.00000000000E+00  0.00000000000E+00 -0.90069891220E+01  0.12530637975E+03  0.12498225055E+03 0.  0.
    9000005    1    3    3    0    0  0.16610233262E+02 -0.12090371129E+02  0.54658554220E+02  0.58400637603E+02  0.10000000000E+01 0.  0.
    9000005    1    3    3    0    0 -0.16610233262E+02  0.12090371129E+02 -0.63665543342E+02  0.66905742145E+02  0.10000000000E+01 0.  0.
<mgrwt>
<rscale>  0 0.12498225E+03</rscale>
<asrwt>0</asrwt>
<pdfrwt beam="1">  1        4 0.89461070E-02 0.12498225E+03</pdfrwt>
<pdfrwt beam="2">  1       -4 0.10331798E-01 0.12498225E+03</pdfrwt>
<totfact> 0.10450403E+04</totfact>
</mgrwt>
</event>
<event>
 4    1  0.3330238E-002  0.1282818E+03  0.7818608E-02  0.1230028E+00
         -4   -1    0    0    0  501 -0.00000000000E+00  0.00000000000E+00  0.18869948855E+03  0.18870376223E+03  0.12700000000E+01 0.  1.
          4   -1    0    0  501    0  0.00000000000E+00 -0.00000000000E+00 -0.21779131415E+02  0.21816128556E+02  0.12700000000E+01 0.  1.
    9000005    1    1    2    0    0 -0.35871102773E+02  0.48862514119E+02  0.49084739507E+02  0.78003800886E+02  0.10000000000E+01 0.  0.
    9000005    1    1    2    0    0  0.35871102773E+02 -0.48862514119E+02  0.11783561763E+03  0.13251608990E+03  0.10000000000E+01 0.  0.
<mgrwt>
<rscale>  0 0.12828179E+03</rscale>
<asrwt>0</asrwt>
<pdfrwt beam="2">  1        4 0.33538103E-02 0.12828179E+03</pdfrwt>
<pdfrwt beam="1">  1       -4 0.29033865E-01 0.12828179E+03</pdfrwt>
<totfact> 0.82206961E+03</totfact>
</mgrwt>
</event>
<event>
 5    1  0.3330238E-002  0.1249963E+03  0.7818608E-02  0.1235075E+00
         -4   -1    0    0    0  501 -0.00000000000E+00  0.00000000000E+00  0.82319090218E+03  0.82319188184E+03  0.12700000000E+01 0. -1.
          4   -1    0    0  501    0  0.00000000000E+00 -0.00000000000E+00 -0.46589945764E+01  0.48289885548E+01  0.12700000000E+01 0. -1.
         25    2    1    2    0    0  0.00000000000E+00  0.00000000000E+00  0.81853190761E+03  0.82802087040E+03  0.12499631214E+03 0.  0.
    9000005    1    3    3    0    0 -0.20080143417E+02  0.58089445095E+02  0.33448874931E+03  0.34009016335E+03  0.10000000000E+01 0.  0.
    9000005    1    3    3    0    0  0.20080143417E+02 -0.58089445095E+02  0.48404315829E+03  0.48793070705E+03  0.10000000000E+01 0.  0.
<mgrwt>
<rscale>  0 0.12499631E+03</rscale>
<asrwt>0</asrwt>
<pdfrwt beam="2">  1        4 0.72992085E-03 0.12499631E+03</pdfrwt>
<pdfrwt beam="1">  1       -4 0.12665780E+00 0.12499631E+03</pdfrwt>
<totfact> 0.37046996E+03</totfact>
</mgrwt>
</event>
<event>
 5    1  0.3330238E-002  0.1250040E+03  0.7818608E-02  0.1235063E+00
         -4   -1    0    0    0  501 -0.00000000000E+00  0.00000000000E+00  0.44715672249E+01  0.46484205325E+01  0.12700000000E+01 0.  1.
          4   -1    0    0  501    0  0.00000000000E+00 -0.00000000000E+00 -0.85651192825E+03  0.85651286980E+03  0.12700000000E+01 0.  1.
         25    2    1    2    0    0  0.00000000000E+00  0.00000000000E+00 -0.85204036103E+03  0.86116129033E+03  0.12500396455E+03 0.  0.
    9000005    1    3    3    0    0  0.12147653537E+02  0.59761316972E+02 -0.52010515416E+03  0.52366912443E+03  0.10000000000E+01 0.  0.
    9000005    1    3    3    0    0 -0.12147653537E+02 -0.59761316972E+02 -0.33193520686E+03  0.33749216591E+03  0.10000000000E+01 0.  0.
<mgrwt>
<rscale>  0 0.12500396E+03</rscale>
<asrwt>0</asrwt>
<pdfrwt beam="2">  1        4 0.13178461E+00 0.12500396E+03</pdfrwt>
<pdfrwt beam="1">  1       -4 0.70161063E-03 0.12500396E+03</pdfrwt>
<totfact> 0.35671841E+03</totfact>
</mgrwt>
</event>
<event>
 5    1  0.3330238E-002  0.1250003E+03  0.7818608E-02  0.1235069E+00
          4   -1    0    0  501    0  0.00000000000E+00  0.00000000000E+00  0.45319259405E+02  0.45337050776E+02  0.12700000000E+01 0. -1.
         -4   -1    0    0    0  501 -0.00000000000E+00 -0.00000000000E+00 -0.86155025351E+02  0.86164385294E+02  0.12700000000E+01 0. -1.
         25    2    1    2    0    0  0.00000000000E+00  0.00000000000E+00 -0.40835765945E+02  0.13150143607E+03  0.12500027163E+03 0.  0.
    9000005    1    3    3    0    0 -0.40538539014E+02  0.47542029236E+02 -0.21768921593E+02  0.66170262479E+02  0.10000000000E+01 0.  0.
    9000005    1    3    3    0    0  0.40538539014E+02 -0.47542029236E+02 -0.19066844352E+02  0.65331173591E+02  0.10000000000E+01 0.  0.
<mgrwt>
<rscale>  0 0.12500027E+03</rscale>
<asrwt>0</asrwt>
<pdfrwt beam="1">  1        4 0.69742824E-02 0.12500027E+03</pdfrwt>
<pdfrwt beam="2">  1       -4 0.13256708E-01 0.12500027E+03</pdfrwt>
<totfact> 0.10312288E+04</totfact>
</mgrwt>
</event>
<event>
 5    1  0.3330238E-002  0.1250016E+03  0.7818608E-02  0.1235067E+00
          4   -1    0    0  501    0  0.00000000000E+00  0.00000000000E+00  0.27834810489E+02  0.27863768140E+02  0.12700000000E+01 0. -1.
         -4   -1    0    0    0  501 -0.00000000000E+00 -0.00000000000E+00 -0.14023571622E+03  0.14024146678E+03  0.12700000000E+01 0. -1.
         25    2    1    2    0    0  0.00000000000E+00  0.00000000000E+00 -0.11240090573E+03  0.16810523492E+03  0.12500162558E+03 0.  0.
    9000005    1    3    3    0    0  0.41279804621E+02 -0.46917271926E+02 -0.55777474354E+02  0.83769799569E+02  0.10000000000E+01 0.  0.
    9000005    1    3    3    0    0 -0.41279804621E+02  0.46917271926E+02 -0.56623431379E+02  0.84335435350E+02  0.10000000000E+01 0.  0.
<mgrwt>
<rscale>  0 0.12500163E+03</rscale>
<asrwt>0</asrwt>
<pdfrwt beam="1">  1        4 0.42849485E-02 0.12500163E+03</pdfrwt>
<pdfrwt beam="2">  1       -4 0.21577395E-01 0.12500163E+03</pdfrwt>
<totfact> 0.95799024E+03</totfact>
</mgrwt>
</event>
<event>
 5    1  0.3330238E-002  0.1249968E+03  0.7818608E-02  0.1235074E+00
          4   -1    0    0  501    0  0.00000000000E+00  0.00000000000E+00  0.43720964297E+02  0.43739405792E+02  0.12700000000E+01 0.  1.
         -4   -1    0    0    0  501 -0.00000000000E+00 -0.00000000000E+00 -0.89298671455E+02  0.89307701928E+02  0.12700000000E+01 0.  1.
         25    2    1    2    0    0  0.00000000000E+00  0.00000000000E+00 -0.45577707158E+02  0.13304710772E+03  0.12499682189E+03 0.  0.
    9000005    1    3    3    0    0 -0.30083182396E+01  0.40604136260E+02  0.27670016985E+02  0.49237949795E+02  0.10000000000E+01 0.  0.
    9000005    1    3    3    0    0  0.30083182396E+01 -0.40604136260E+02 -0.73247724143E+02  0.83809157926E+02  0.10000000000E+01 0.  0.
<mgrwt>
<rscale>  0 0.12499682E+03</rscale>
<asrwt>0</asrwt>
<pdfrwt beam="1">  1        4 0.67284154E-02 0.12499682E+03</pdfrwt>
<pdfrwt beam="2">  1       -4 0.13740370E-01 0.12499682E+03</pdfrwt>
<totfact> 0.10280136E+04</totfact>
</mgrwt>
</event>
<event>
 5    1  0.3330238E-002  0.1250004E+03  0.7818608E-02  0.1235069E+00
          4   -1    0    0  501    0  0.00000000000E+00  0.00000000000E+00  0.73825675348E+03  0.73825784585E+03  0.12700000000E+01 0.  1.
         -4   -1    0    0    0  501 -0.00000000000E+00 -0.00000000000E+00 -0.52138955851E+01  0.53663402028E+01  0.12700000000E+01 0.  1.
         25    2    1    2    0    0  0.00000000000E+00  0.00000000000E+00  0.73304285790E+03  0.74362418605E+03  0.12500039429E+03 0.  0.
    9000005    1    3    3    0    0  0.55344711502E+02  0.10648059951E+02  0.20591493526E+03  0.21349093385E+03  0.10000000000E+01 0.  0.
    9000005    1    3    3    0    0 -0.55344711502E+02 -0.10648059951E+02  0.52712792264E+03  0.53013325221E+03  0.10000000000E+01 0.  0.
<mgrwt>
<rscale>  0 0.12500039E+03</rscale>
<asrwt>0</asrwt>
<pdfrwt beam="1">  1        4 0.11358976E+00 0.12500039E+03</pdfrwt>
<pdfrwt beam="2">  1       -4 0.81394839E-03 0.12500039E+03</pdfrwt>
<totfact> 0.40880613E+03</totfact>
</mgrwt>
</event>
<event>
 5    1  0.3330238E-002  0.1250029E+03  0.7818608E-02  0.1235065E+00
          4   -1    0    0  501    0  0.00000000000E+00  0.00000000000E+00  0.13843103536E+02  0.13901237913E+02  0.12700000000E+01 0. -1.
         -4   -1    0    0    0  501 -0.00000000000E+00 -0.00000000000E+00 -0.28154230846E+03  0.28154517284E+03  0.12700000000E+01 0. -1.
         25    2    1    2    0    0  0.00000000000E+00  0.00000000000E+00 -0.26769920492E+03  0.29544641076E+03  0.12500286922E+03 0.  0.
    9000005    1    3    3    0    0 -0.51030094778E+02 -0.25618857484E+02 -0.73822183684E+02  0.93333334001E+02  0.10000000000E+01 0.  0.
    9000005    1    3    3    0    0  0.51030094778E+02  0.25618857484E+02 -0.19387702124E+03  0.20211307676E+03  0.10000000000E+01 0.  0.
<mgrwt>
<rscale>  0 0.12500287E+03</rscale>
<asrwt>0</asrwt>
<pdfrwt beam="1">  1        4 0.21344007E-02 0.12500287E+03</pdfrwt>
<pdfrwt beam="2">  1       -4 0.43318889E-01 0.12500287E+03</pdfrwt>
<totfact> 0.76168755E+03</totfact>
</mgrwt>
</event>
<event>
 5    1  0.3330238E-002  0.1249936E+03  0.7818608E-02  0.1235079E+00
          4   -1    0    0  501    0  0.00000000000E+00  0.00000000000E+00  0.53372455100E+03  0.53372606198E+03  0.12700000000E+01 0.  1.
         -4   -1    0    0    0  501 -0.00000000000E+00 -0.00000000000E+00 -0.72614624520E+01  0.73716848102E+01  0.12700000000E+01 0.  1.
         25    2    1    2    0    0  0.00000000000E+00  0.00000000000E+00  0.52646308855E+03  0.54109774679E+03  0.12499355176E+03 0.  0.
    9000005    1    3    3    0    0  0.28105809306E+02  0.21158843656E+02  0.48680334892E+03  0.48807390188E+03  0.10000000000E+01 0.  0.
    9000005    1    3    3    0    0 -0.28105809306E+02 -0.21158843656E+02  0.39659739631E+02  0.53023844912E+02  0.10000000000E+01 0.  0.
<mgrwt>
<rscale>  0 0.12499355E+03</rscale>
<asrwt>0</asrwt>
<pdfrwt beam="1">  1        4 0.82120080E-01 0.12499355E+03</pdfrwt>
<pdfrwt beam="2">  1       -4 0.11257427E-02 0.12499355E+03</pdfrwt>
<totfact> 0.52818441E+03</totfact>
</mgrwt>
</event>
<event>
 5    1  0.3330238E-002  0.1250031E+03  0.7818608E-02  0.1235064E+00
          4   -1    0    0  501    0  0.00000000000E+00  0.00000000000E+00  0.34090168257E+02  0.34113816435E+02  0.12700000000E+01 0. -1.
         -4   -1    0    0    0  501 -0.00000000000E+00 -0.00000000000E+00 -0.11452463309E+03  0.11453167459E+03  0.12700000000E+01 0. -1.
         25    2    1    2    0    0  0.00000000000E+00  0.00000000000E+00 -0.80434464835E+02  0.14864549103E+03  0.12500311544E+03 0.  0.
    9000005    1    3    3    0    0  0.20453354786E+02 -0.56687279983E+02 -0.59888593430E+02  0.84967235196E+02  0.10000000000E+01 0.  0.
    9000005    1    3    3    0    0 -0.20453354786E+02  0.56687279983E+02 -0.20545871405E+02  0.63678255831E+02  0.10000000000E+01 0.  0.
<mgrwt>
<rscale>  0 0.12500312E+03</rscale>
<asrwt>0</asrwt>
<pdfrwt beam="1">  1        4 0.52470021E-02 0.12500312E+03</pdfrwt>
<pdfrwt beam="2">  1       -4 0.17621535E-01 0.12500312E+03</pdfrwt>
<totfact> 0.99567404E+03</totfact>
</mgrwt>
</event>
<event>
 4    1  0.3330238E-002  0.1249234E+03  0.7818608E-02  0.1235189E+00
          4   -1    0    0  501    0  0.00000000000E+00  0.00000000000E+00  0.42458601418E+02  0.42477590967E+02  0.12700000000E+01 0.  1.
         -4   -1    0    0    0  501 -0.00000000000E+00 -0.00000000000E+00 -0.91844715492E+02  0.91853495654E+02  0.12700000000E+01 0.  1.
    9000005    1    1    2    0    0 -0.27603213259E+02 -0.44934952621E+02 -0.60669708051E+02  0.80392168924E+02  0.10000000000E+01 0.  0.
    9000005    1    1    2    0    0  0.27603213259E+02  0.44934952621E+02  0.11283593976E+02  0.53938917697E+02  0.10000000000E+01 0.  0.
<mgrwt>
<rscale>  0 0.12492339E+03</rscale>
<asrwt>0</asrwt>
<pdfrwt beam="1">  1        4 0.65342287E-02 0.12492339E+03</pdfrwt>
<pdfrwt beam="2">  1       -4 0.14132092E-01 0.12492339E+03</pdfrwt>
<totfact> 0.10269924E+04</totfact>
</mgrwt>
</event>
<event>
 5    1  0.3330238E-002  0.1250027E+03  0.7818608E-02  0.1235065E+00
          4   -1    0    0  501    0  0.00000000000E+00  0.00000000000E+00  0.14469223218E+03  0.14469780562E+03  0.12700000000E+01 0.  1.
         -4   -1    0    0    0  501 -0.00000000000E+00 -0.00000000000E+00 -0.26977074159E+02  0.27006951516E+02  0.12700000000E+01 0.  1.
         25    2    1    2    0    0  0.00000000000E+00  0.00000000000E+00  0.11771515802E+03  0.17170475714E+03  0.12500266076E+03 0.  0.
    9000005    1    3    3    0    0 -0.47556015659E+02  0.75081418215E+01  0.41287995791E+01  0.48332119806E+02  0.10000000000E+01 0.  0.
    9000005    1    3    3    0    0  0.47556015659E+02 -0.75081418215E+01  0.11358635844E+03  0.12337263733E+03  0.10000000000E+01 0.  0.
<mgrwt>
<rscale>  0 0.12500266E+03</rscale>
<asrwt>0</asrwt>
<pdfrwt beam="1">  1        4 0.22263071E-01 0.12500266E+03</pdfrwt>
<pdfrwt beam="2">  1       -4 0.41530460E-02 0.12500266E+03</pdfrwt>
<totfact> 0.95126164E+03</totfact>
</mgrwt>
</event>
<event>
 5    1  0.3330238E-002  0.1250487E+03  0.7818608E-02  0.1234993E+00
          4   -1    0    0  501    0  0.00000000000E+00  0.00000000000E+00  0.11619640087E+02  0.11688838084E+02  0.12700000000E+01 0. -1.
         -4   -1    0    0    0  501 -0.00000000000E+00 -0.00000000000E+00 -0.33536948082E+03  0.33537188548E+03  0.12700000000E+01 0. -1.
         25    2    1    2    0    0  0.00000000000E+00  0.00000000000E+00 -0.32374984074E+03  0.34706072356E+03  0.12504873634E+03 0.  0.
    9000005    1    3    3    0    0  0.23395776499E+02 -0.56288253119E+02 -0.20038876620E+03  0.20945736420E+03  0.10000000000E+01 0.  0.
    9000005    1    3    3    0    0 -0.23395776499E+02  0.56288253119E+02 -0.12336107454E+03  0.13760335936E+03  0.10000000000E+01 0.  0.
<mgrwt>
<rscale>  0 0.12504874E+03</rscale>
<asrwt>0</asrwt>
<pdfrwt beam="1">  1        4 0.17931451E-02 0.12504874E+03</pdfrwt>
<pdfrwt beam="2">  1       -4 0.51600805E-01 0.12504874E+03</pdfrwt>
<totfact> 0.69973621E+03</totfact>
</mgrwt>
</event>
<event>
 5    1  0.3330238E-002  0.1249793E+03  0.7818608E-02  0.1235102E+00
         -4   -1    0    0    0  501 -0.00000000000E+00  0.00000000000E+00  0.88242450160E+02  0.88251588713E+02  0.12700000000E+01 0.  1.
          4   -1    0    0  501    0  0.00000000000E+00 -0.00000000000E+00 -0.44232030827E+02  0.44250259334E+02  0.12700000000E+01 0.  1.
         25    2    1    2    0    0  0.00000000000E+00  0.00000000000E+00  0.44010419333E+02  0.13250184805E+03  0.12497928919E+03 0.  0.
    9000005    1    3    3    0    0  0.13112855336E+02  0.41703570423E+02  0.69333195476E+02  0.81970889687E+02  0.10000000000E+01 0.  0.
    9000005    1    3    3    0    0 -0.13112855336E+02 -0.41703570423E+02 -0.25322776143E+02  0.50530958359E+02  0.10000000000E+01 0.  0.
<mgrwt>
<rscale>  0 0.12497929E+03</rscale>
<asrwt>0</asrwt>
<pdfrwt beam="2">  1        4 0.68070330E-02 0.12497929E+03</pdfrwt>
<pdfrwt beam="1">  1       -4 0.13577867E-01 0.12497929E+03</pdfrwt>
<totfact> 0.10295808E+04</totfact>
</mgrwt>
</event>
<event>
 5    1  0.3330238E-002  0.1250010E+03  0.7818608E-02  0.1235068E+00
          4   -1    0    0  501    0  0.00000000000E+00  0.00000000000E+00  0.14711122276E+03  0.14711670456E+03  0.12700000000E+01 0. -1.
         -4   -1    0    0    0  501 -0.00000000000E+00 -0.00000000000E+00 -0.26532317132E+02  0.26562694750E+02  0.12700000000E+01 0. -1.
         25    2    1    2    0    0  0.00000000000E+00  0.00000000000E+00  0.12057890563E+03  0.17367939931E+03  0.12500104505E+03 0.  0.
    9000005    1    3    3    0    0 -0.53317835063E+02 -0.24700685431E+01  0.10544940717E+03  0.11819251349E+03  0.10000000000E+01 0.  0.
    9000005    1    3    3    0    0  0.53317835063E+02  0.24700685431E+01  0.15129498462E+02  0.55486885821E+02  0.10000000000E+01 0.  0.
<mgrwt>
<rscale>  0 0.12500105E+03</rscale>
<asrwt>0</asrwt>
<pdfrwt beam="1">  1        4 0.22635255E-01 0.12500105E+03</pdfrwt>
<pdfrwt beam="2">  1       -4 0.40846533E-02 0.12500105E+03</pdfrwt>
<totfact> 0.94765041E+03</totfact>
</mgrwt>
</event>
<event>
 5    1  0.3330238E-002  0.1250076E+03  0.7818608E-02  0.1235057E+00
          4   -1    0    0  501    0  0.00000000000E+00  0.00000000000E+00  0.65330839267E+02  0.65343182194E+02  0.12700000000E+01 0.  1.
         -4   -1    0    0    0  501 -0.00000000000E+00 -0.00000000000E+00 -0.59774365386E+02  0.59787855433E+02  0.12700000000E+01 0.  1.
         25    2    1    2    0    0  0.00000000000E+00  0.00000000000E+00  0.55564738809E+01  0.12513103763E+03  0.12500760847E+03 0.  0.
    9000005    1    3    3    0    0 -0.85384904608E+01  0.60374973233E+02 -0.10935009927E+02  0.61956578782E+02  0.10000000000E+01 0.  0.
    9000005    1    3    3    0    0  0.85384904608E+01 -0.60374973233E+02  0.16491483808E+02  0.63174458845E+02  0.10000000000E+01 0.  0.
<mgrwt>
<rscale>  0 0.12500761E+03</rscale>
<asrwt>0</asrwt>
<pdfrwt beam="1">  1        4 0.10052885E-01 0.12500761E+03</pdfrwt>
<pdfrwt beam="2">  1       -4 0.91980434E-02 0.12500761E+03</pdfrwt>
<totfact> 0.10448220E+04</totfact>
</mgrwt>
</event>
<event>
 5    1  0.3330238E-002  0.1249990E+03  0.7818608E-02  0.1235071E+00
         -4   -1    0    0    0  501 -0.00000000000E+00  0.00000000000E+00  0.12504304241E+03  0.12504949162E+03  0.12700000000E+01 0.  1.
          4   -1    0    0  501    0  0.00000000000E+00 -0.00000000000E+00 -0.31218562940E+02  0.31244384648E+02  0.12700000000E+01 0.  1.
         25    2    1    2    0    0  0.00000000000E+00  0.00000000000E+00  0.93824479469E+02  0.15629387627E+03  0.12499897124E+03 0.  0.
    9000005    1    3    3    0    0  0.52910978231E+02 -0.27083556629E+02  0.71031415784E+02  0.92625874816E+02  0.10000000000E+01 0.  0.
    9000005    1    3    3    0    0 -0.52910978231E+02  0.27083556629E+02  0.22793063684E+02  0.63668001454E+02  0.10000000000E+01 0.  0.
<mgrwt>
<rscale>  0 0.12499897E+03</rscale>
<asrwt>0</asrwt>
<pdfrwt beam="2">  1        4 0.48053382E-02 0.12499897E+03</pdfrwt>
<pdfrwt beam="1">  1       -4 0.19239873E-01 0.12499897E+03</pdfrwt>
<totfact> 0.98064361E+03</totfact>
</mgrwt>
</event>
<event>
 5    1  0.3330238E-002  0.1250009E+03  0.7818608E-02  0.1235068E+00
          4   -1    0    0  501    0  0.00000000000E+00  0.00000000000E+00  0.81801990013E+02  0.81811847981E+02  0.12700000000E+01 0. -1.
         -4   -1    0    0    0  501 -0.00000000000E+00 -0.00000000000E+00 -0.47731981595E+02  0.47748873986E+02  0.12700000000E+01 0. -1.
         25    2    1    2    0    0  0.00000000000E+00  0.00000000000E+00  0.34070008419E+02  0.12956072197E+03  0.12500086081E+03 0.  0.
    9000005    1    3    3    0    0 -0.26617905885E+02 -0.52050908438E+02 -0.58496793699E+01  0.58762477243E+02  0.10000000000E+01 0.  0.
    9000005    1    3    3    0    0  0.26617905885E+02  0.52050908438E+02  0.39919687788E+02  0.70798244725E+02  0.10000000000E+01 0.  0.
<mgrwt>
<rscale>  0 0.12500086E+03</rscale>
<asrwt>0</asrwt>
<pdfrwt beam="1">  1        4 0.12586979E-01 0.12500086E+03</pdfrwt>
<pdfrwt beam="2">  1       -4 0.73454396E-02 0.12500086E+03</pdfrwt>
<totfact> 0.10353712E+04</totfact>
</mgrwt>
</event>
<event>
 5    1  0.3330238E-002  0.1250071E+03  0.7818608E-02  0.1235058E+00
         -4   -1    0    0    0  501 -0.00000000000E+00  0.00000000000E+00  0.10866316172E+03  0.10867058303E+03  0.12700000000E+01 0.  1.
          4   -1    0    0  501    0  0.00000000000E+00 -0.00000000000E+00 -0.35932472536E+02  0.35954909019E+02  0.12700000000E+01 0.  1.
         25    2    1    2    0    0  0.00000000000E+00  0.00000000000E+00  0.72730689188E+02  0.14462549205E+03  0.12500711900E+03 0.  0.
    9000005    1    3    3    0    0  0.24514410170E+02 -0.46291157964E+02  0.75800937519E+02  0.92144504667E+02  0.10000000000E+01 0.  0.
    9000005    1    3    3    0    0 -0.24514410170E+02  0.46291157964E+02 -0.30702483311E+01  0.52480987381E+02  0.10000000000E+01 0.  0.
<mgrwt>
<rscale>  0 0.12500712E+03</rscale>
<asrwt>0</asrwt>
<pdfrwt beam="2">  1        4 0.55303694E-02 0.12500712E+03</pdfrwt>
<pdfrwt beam="1">  1       -4 0.16719706E-01 0.12500712E+03</pdfrwt>
<totfact> 0.10036994E+04</totfact>
</mgrwt>
</event>
<event>
 5    1  0.3330238E-002  0.1249979E+03  0.7818608E-02  0.1235073E+00
          4   -1    0    0  501    0  0.00000000000E+00  0.00000000000E+00  0.14575963172E+04  0.14575968704E+04  0.12700000000E+01 0. -1.
         -4   -1    0    0    0  501 -0.00000000000E+00 -0.00000000000E+00 -0.25287863657E+01  0.28297809957E+01  0.12700000000E+01 0. -1.
         25    2    1    2    0    0  0.00000000000E+00  0.00000000000E+00  0.14550675308E+04  0.14604266514E+04  0.12499794012E+03 0.  0.
    9000005    1    3    3    0    0  0.49839906359E+02 -0.19404489684E+02  0.34992172931E+03  0.35398695898E+03  0.10000000000E+01 0.  0.
    9000005    1    3    3    0    0 -0.49839906359E+02  0.19404489684E+02  0.11051458015E+04  0.11064396925E+04  0.10000000000E+01 0.  0.
<mgrwt>
<rscale>  0 0.12499794E+03</rscale>
<asrwt>0</asrwt>
<pdfrwt beam="1">  1        4 0.22426930E+00 0.12499794E+03</pdfrwt>
<pdfrwt beam="2">  1       -4 0.41223910E-03 0.12499794E+03</pdfrwt>
<totfact> 0.18720959E+03</totfact>
</mgrwt>
</event>
<event>
 5    1  0.3330238E-002  0.1250004E+03  0.7818608E-02  0.1235069E+00
         -4   -1    0    0    0  501 -0.00000000000E+00  0.00000000000E+00  0.18081265928E+01  0.22095750215E+01  0.12700000000E+01 0.  1.
          4   -1    0    0  501    0  0.00000000000E+00 -0.00000000000E+00 -0.19441292476E+04  0.19441296624E+04  0.12700000000E+01 0.  1.
         25    2    1    2    0    0  0.00000000000E+00  0.00000000000E+00 -0.19423211210E+04  0.19463392374E+04  0.12500036026E+03 0.  0.
    9000005    1    3    3    0    0  0.52469504341E+02 -0.24848800850E+02 -0.61109048830E+03  0.61384289250E+03  0.10000000000E+01 0.  0.
    9000005    1    3    3    0    0 -0.52469504341E+02  0.24848800850E+02 -0.13312306327E+04  0.13324963449E+04  0.10000000000E+01 0.  0.
<mgrwt>
<rscale>  0 0.12500036E+03</rscale>
<asrwt>0</asrwt>
<pdfrwt beam="2">  1        4 0.29912621E+00 0.12500036E+03</pdfrwt>
<pdfrwt beam="1">  1       -4 0.30908743E-03 0.12500036E+03</pdfrwt>
<totfact> 0.10578009E+03</totfact>
</mgrwt>
</event>
<event>
 5    1  0.3330238E-002  0.1249904E+03  0.7818608E-02  0.1235084E+00
          4   -1    0    0  501    0  0.00000000000E+00  0.00000000000E+00  0.94344913245E+01  0.95195864696E+01  0.12700000000E+01 0. -1.
         -4   -1    0    0    0  501 -0.00000000000E+00 -0.00000000000E+00 -0.41203107343E+03  0.41203303068E+03  0.12700000000E+01 0. -1.
         25    2    1    2    0    0  0.00000000000E+00  0.00000000000E+00 -0.40259658211E+03  0.42155261715E+03  0.12499040405E+03 0.  0.
    9000005    1    3    3    0    0 -0.74863106400E+01  0.44967445633E+02 -0.34543978850E+03  0.34843616846E+03  0.10000000000E+01 0.  0.
    9000005    1    3    3    0    0  0.74863106400E+01 -0.44967445633E+02 -0.57156793613E+02  0.73116448695E+02  0.10000000000E+01 0.  0.
<mgrwt>
<rscale>  0 0.12499040E+03</rscale>
<asrwt>0</asrwt>
<pdfrwt beam="1">  1        4 0.14581569E-02 0.12499040E+03</pdfrwt>
<pdfrwt beam="2">  1       -4 0.63396078E-01 0.12499040E+03</pdfrwt>
<totfact> 0.62522469E+03</totfact>
</mgrwt>
</event>
<event>
 5    1  0.3330238E-002  0.1249993E+03  0.7818608E-02  0.1235070E+00
         -4   -1    0    0    0  501 -0.00000000000E+00  0.00000000000E+00  0.12847142923E+03  0.12847770635E+03  0.12700000000E+01 0.  1.
          4   -1    0    0  501    0  0.00000000000E+00 -0.00000000000E+00 -0.30384946619E+02  0.30411476140E+02  0.12700000000E+01 0.  1.
         25    2    1    2    0    0  0.00000000000E+00  0.00000000000E+00  0.98086482612E+02  0.15888918249E+03  0.12499925696E+03 0.  0.
    9000005    1    3    3    0    0 -0.27948850828E+02 -0.54835352784E+02  0.62801291872E+02  0.87937798689E+02  0.10000000000E+01 0.  0.
    9000005    1    3    3    0    0  0.27948850828E+02  0.54835352784E+02  0.35285190740E+02  0.70951383800E+02  0.10000000000E+01 0.  0.
<mgrwt>
<rscale>  0 0.12499926E+03</rscale>
<asrwt>0</asrwt>
<pdfrwt beam="2">  1        4 0.46771308E-02 0.12499926E+03</pdfrwt>
<pdfrwt beam="1">  1       -4 0.19767359E-01 0.12499926E+03</pdfrwt>
<totfact> 0.97559000E+03</totfact>
</mgrwt>
</event>
<event>
 5    1  0.3330238E-002  0.1250008E+03  0.7818608E-02  0.1235068E+00
         -4   -1    0    0    0  501 -0.00000000000E+00  0.00000000000E+00  0.19322088040E+03  0.19322505407E+03  0.12700000000E+01 0.  1.
          4   -1    0    0  501    0  0.00000000000E+00 -0.00000000000E+00 -0.20192409243E+02  0.20232308100E+02  0.12700000000E+01 0.  1.
         25    2    1    2    0    0  0.00000000000E+00  0.00000000000E+00  0.17302847115E+03  0.21345736217E+03  0.12500077454E+03 0.  0.
    9000005    1    3    3    0    0 -0.44586947112E+02 -0.34621621607E+02  0.13229213940E+03  0.14383623563E+03  0.10000000000E+01 0.  0.
    9000005    1    3    3    0    0  0.44586947112E+02  0.34621621607E+02  0.40736331759E+02  0.69621126540E+02  0.10000000000E+01 0.  0.
<mgrwt>
<rscale>  0 0.12500077E+03</rscale>
<asrwt>0</asrwt>
<pdfrwt beam="2">  1        4 0.31099145E-02 0.12500077E+03</pdfrwt>
<pdfrwt beam="1">  1       -4 0.29729681E-01 0.12500077E+03</pdfrwt>
<totfact> 0.87912819E+03</totfact>
</mgrwt>
</event>
<event>
 5    1  0.3330238E-002  0.1249994E+03  0.7818608E-02  0.1235070E+00
          4   -1    0    0  501    0  0.00000000000E+00  0.00000000000E+00  0.48070643696E+02  0.48087417120E+02  0.12700000000E+01 0. -1.
         -4   -1    0    0    0  501 -0.00000000000E+00 -0.00000000000E+00 -0.81223956601E+02  0.81233884715E+02  0.12700000000E+01 0. -1.
         25    2    1    2    0    0  0.00000000000E+00  0.00000000000E+00 -0.33153312905E+02  0.12932130184E+03  0.12499942781E+03 0.  0.
    9000005    1    3    3    0    0 -0.19960033621E+01 -0.73155270372E+01  0.47597976527E+02  0.48208591918E+02  0.10000000000E+01 0.  0.
    9000005    1    3    3    0    0  0.19960033621E+01  0.73155270372E+01 -0.80751289432E+02  0.81112709918E+02  0.10000000000E+01 0.  0.
<mgrwt>
<rscale>  0 0.12499943E+03</rscale>
<asrwt>0</asrwt>
<pdfrwt beam="1">  1        4 0.73975376E-02 0.12499943E+03</pdfrwt>
<pdfrwt beam="2">  1       -4 0.12498047E-01 0.12499943E+03</pdfrwt>
<totfact> 0.10359182E+04</totfact>
</mgrwt>
</event>
<event>
 5    1  0.3330238E-002  0.1249964E+03  0.7818608E-02  0.1235075E+00
          4   -1    0    0  501    0  0.00000000000E+00  0.00000000000E+00  0.13967469668E+02  0.14025088553E+02  0.12700000000E+01 0. -1.
         -4   -1    0    0    0  501 -0.00000000000E+00 -0.00000000000E+00 -0.27901701567E+03  0.27901990598E+03  0.12700000000E+01 0. -1.
         25    2    1    2    0    0  0.00000000000E+00  0.00000000000E+00 -0.26504954601E+03  0.29304499454E+03  0.12499642789E+03 0.  0.
    9000005    1    3    3    0    0 -0.27565801527E+02  0.54641758712E+02 -0.10292258431E+03  0.11974829255E+03  0.10000000000E+01 0.  0.
    9000005    1    3    3    0    0  0.27565801527E+02 -0.54641758712E+02 -0.16212696170E+03  0.17329670198E+03  0.10000000000E+01 0.  0.
<mgrwt>
<rscale>  0 0.12499643E+03</rscale>
<asrwt>0</asrwt>
<pdfrwt beam="1">  1        4 0.21534962E-02 0.12499643E+03</pdfrwt>
<pdfrwt beam="2">  1       -4 0.42930345E-01 0.12499643E+03</pdfrwt>
<totfact> 0.76485696E+03</totfact>
</mgrwt>
</event>
<event>
 5    1  0.3330238E-002  0.1250008E+03  0.7818608E-02  0.1235068E+00
          4   -1    0    0  501    0  0.00000000000E+00  0.00000000000E+00  0.13716855426E+03  0.13717443339E+03  0.12700000000E+01 0. -1.
         -4   -1    0    0    0  501 -0.00000000000E+00 -0.00000000000E+00 -0.28457459823E+02  0.28485784518E+02  0.12700000000E+01 0. -1.
         25    2    1    2    0    0  0.00000000000E+00  0.00000000000E+00  0.10871109443E+03  0.16566021791E+03  0.12500082298E+03 0.  0.
    9000005    1    3    3    0    0 -0.30234492348E+02  0.24349467348E+01 -0.18053954661E+02  0.35312869779E+02  0.10000000000E+01 0.  0.
    9000005    1    3    3    0    0  0.30234492348E+02 -0.24349467348E+01  0.12676504910E+03  0.13034734813E+03  0.10000000000E+01 0.  0.
<mgrwt>
<rscale>  0 0.12500082E+03</rscale>
<asrwt>0</asrwt>
<pdfrwt beam="1">  1        4 0.21105485E-01 0.12500082E+03</pdfrwt>
<pdfrwt beam="2">  1       -4 0.43807018E-02 0.12500082E+03</pdfrwt>
<totfact> 0.96260724E+03</totfact>
</mgrwt>
</event>
<event>
 5    1  0.3330238E-002  0.1250012E+03  0.7818608E-02  0.1235067E+00
         -4   -1    0    0    0  501 -0.00000000000E+00  0.00000000000E+00  0.22751265896E+03  0.22751620357E+03  0.12700000000E+01 0.  1.
          4   -1    0    0  501    0  0.00000000000E+00 -0.00000000000E+00 -0.17142523409E+02  0.17189502867E+02  0.12700000000E+01 0.  1.
         25    2    1    2    0    0  0.00000000000E+00  0.00000000000E+00  0.21037013555E+03  0.24470570644E+03  0.12500115532E+03 0.  0.
    9000005    1    3    3    0    0  0.17312699303E+02  0.47752348074E+01 -0.11991489393E+02  0.21617776077E+02  0.10000000000E+01 0.  0.
    9000005    1    3    3    0    0 -0.17312699303E+02 -0.47752348074E+01  0.22236162495E+03  0.22308793036E+03  0.10000000000E+01 0.  0.
<mgrwt>
<rscale>  0 0.12500116E+03</rscale>
<asrwt>0</asrwt>
<pdfrwt beam="2">  1        4 0.26411980E-02 0.12500116E+03</pdfrwt>
<pdfrwt beam="1">  1       -4 0.35005831E-01 0.12500116E+03</pdfrwt>
<totfact> 0.83099352E+03</totfact>
</mgrwt>
</event>
<event>
 5    1  0.3330238E-002  0.1250171E+03  0.7818608E-02  0.1235042E+00
         -4   -1    0    0    0  501 -0.00000000000E+00  0.00000000000E+00  0.34988574902E+01  0.37222175832E+01  0.12700000000E+01 0. -1.
          4   -1    0    0  501    0  0.00000000000E+00 -0.00000000000E+00 -0.10819757580E+04  0.10819765034E+04  0.12700000000E+01 0. -1.
         25    2    1    2    0    0  0.00000000000E+00  0.00000000000E+00 -0.10784769006E+04  0.10856987210E+04  0.12501714963E+03 0.  0.
    9000005    1    3    3    0    0  0.10504394874E+02  0.60902827442E+02 -0.62015971985E+03  0.62323236022E+03  0.10000000000E+01 0.  0.
    9000005    1    3    3    0    0 -0.10504394874E+02 -0.60902827442E+02 -0.45831718071E+03  0.46246636076E+03  0.10000000000E+01 0.  0.
<mgrwt>
<rscale>  0 0.12501715E+03</rscale>
<asrwt>0</asrwt>
<pdfrwt beam="2">  1        4 0.16647479E+00 0.12501715E+03</pdfrwt>
<pdfrwt beam="1">  1       -4 0.55552551E-03 0.12501715E+03</pdfrwt>
<totfact> 0.27895372E+03</totfact>
</mgrwt>
</event>
<event>
 4    1  0.3330238E-002  0.1248950E+03  0.7818608E-02  0.1235233E+00
         -4   -1    0    0    0  501 -0.00000000000E+00  0.00000000000E+00  0.27048445019E+02  0.27078243627E+02  0.12700000000E+01 0. -1.
          4   -1    0    0  501    0  0.00000000000E+00 -0.00000000000E+00 -0.14406229442E+03  0.14406789224E+03  0.12700000000E+01 0. -1.
    9000005    1    1    2    0    0 -0.49615095929E+01 -0.60991048235E+02 -0.75521268964E+02  0.97205898012E+02  0.10000000000E+01 0.  0.
    9000005    1    1    2    0    0  0.49615095929E+01  0.60991048235E+02 -0.41492580436E+02  0.73940237851E+02  0.10000000000E+01 0.  0.
<mgrwt>
<rscale>  0 0.12489499E+03</rscale>
<asrwt>0</asrwt>
<pdfrwt beam="2">  1        4 0.22166152E-01 0.12489499E+03</pdfrwt>
<pdfrwt beam="1">  1       -4 0.41640221E-02 0.12489499E+03</pdfrwt>
<totfact> 0.95460227E+03</totfact>
</mgrwt>
</event>
<event>
 5    1  0.3330238E-002  0.1250004E+03  0.7818608E-02  0.1235069E+00
          4   -1    0    0  501    0  0.00000000000E+00  0.00000000000E+00  0.54652347526E+02  0.54667101533E+02  0.12700000000E+01 0. -1.
         -4   -1    0    0    0  501 -0.00000000000E+00 -0.00000000000E+00 -0.71444959365E+02  0.71456246183E+02  0.12700000000E+01 0. -1.
         25    2    1    2    0    0  0.00000000000E+00  0.00000000000E+00 -0.16792611839E+02  0.12612334772E+03  0.12500042811E+03 0.  0.
    9000005    1    3    3    0    0 -0.32236230392E+02  0.50902851785E+02 -0.25128458886E+02  0.65289465580E+02  0.10000000000E+01 0.  0.
    9000005    1    3    3    0    0  0.32236230392E+02 -0.50902851785E+02  0.83358470473E+01  0.60833882136E+02  0.10000000000E+01 0.  0.
<mgrwt>
<rscale>  0 0.12500043E+03</rscale>
<asrwt>0</asrwt>
<pdfrwt beam="1">  1        4 0.84100565E-02 0.12500043E+03</pdfrwt>
<pdfrwt beam="2">  1       -4 0.10993535E-01 0.12500043E+03</pdfrwt>
<totfact> 0.10428155E+04</totfact>
</mgrwt>
</event>
<event>
 5    1  0.3330238E-002  0.1250189E+03  0.7818608E-02  0.1235040E+00
         -4   -1    0    0    0  501 -0.00000000000E+00  0.00000000000E+00  0.11935038388E+03  0.11935714069E+03  0.12700000000E+01 0. -1.
          4   -1    0    0  501    0  0.00000000000E+00 -0.00000000000E+00 -0.32719132329E+02  0.32743770710E+02  0.12700000000E+01 0. -1.
         25    2    1    2    0    0  0.00000000000E+00  0.00000000000E+00  0.86631251554E+02  0.15210091140E+03  0.12501885259E+03 0.  0.
    9000005    1    3    3    0    0 -0.19702932480E+02  0.27709468184E+02  0.10712065102E+03  0.11239152125E+03  0.10000000000E+01 0.  0.
    9000005    1    3    3    0    0  0.19702932480E+02 -0.27709468184E+02 -0.20489399462E+02  0.39709390145E+02  0.10000000000E+01 0.  0.
<mgrwt>
<rscale>  0 0.12501885E+03</rscale>
<asrwt>0</asrwt>
<pdfrwt beam="2">  1        4 0.50361278E-02 0.12501885E+03</pdfrwt>
<pdfrwt beam="1">  1       -4 0.18364012E-01 0.12501885E+03</pdfrwt>
<totfact> 0.98844615E+03</totfact>
</mgrwt>
</event>
<event>
 5    1  0.3330238E-002  0.1249956E+03  0.7818608E-02  0.1235076E+00
         -4   -1    0    0    0  501 -0.00000000000E+00  0.00000000000E+00  0.19657386781E+02  0.19698369350E+02  0.12700000000E+01 0. -1.
          4   -1    0    0  501    0  0.00000000000E+00 -0.00000000000E+00 -0.19845273541E+03  0.19845679906E+03  0.12700000000E+01 0. -1.
         25    2    1    2    0    0  0.00000000000E+00  0.00000000000E+00 -0.17879534863E+03  0.21815516841E+03  0.12499560317E+03 0.  0.
    9000005    1    3    3    0    0  0.49598640799E+02 -0.21863500248E+02 -0.14366893963E+03  0.15355716208E+03  0.10000000000E+01 0.  0.
    9000005    1    3    3    0    0 -0.49598640799E+02  0.21863500248E+02 -0.35126409005E+02  0.64598006330E+02  0.10000000000E+01 0.  0.
<mgrwt>
<rscale>  0 0.12499560E+03</rscale>
<asrwt>0</asrwt>
<pdfrwt beam="2">  1        4 0.30534654E-01 0.12499560E+03</pdfrwt>
<pdfrwt beam="1">  1       -4 0.30276786E-02 0.12499560E+03</pdfrwt>
<totfact> 0.87169677E+03</totfact>
</mgrwt>
</event>
<event>
 5    1  0.3330238E-002  0.1249603E+03  0.7818608E-02  0.1235131E+00
          4   -1    0    0  501    0  0.00000000000E+00  0.00000000000E+00  0.80650419820E+02  0.80660418529E+02  0.12700000000E+01 0. -1.
         -4   -1    0    0    0  501 -0.00000000000E+00 -0.00000000000E+00 -0.48382268554E+02  0.48398933980E+02  0.12700000000E+01 0. -1.
         25    2    1    2    0    0  0.00000000000E+00  0.00000000000E+00  0.32268151266E+02  0.12905935251E+03  0.12496032524E+03 0.  0.
    9000005    1    3    3    0    0 -0.45341842474E+02  0.65104103275E+01  0.60006950257E+02  0.75499021190E+02  0.10000000000E+01 0.  0.
    9000005    1    3    3    0    0  0.45341842474E+02 -0.65104103275E+01 -0.27738798991E+02  0.53560331319E+02  0.10000000000E+01 0.  0.
<mgrwt>
<rscale>  0 0.12496033E+03</rscale>
<asrwt>0</asrwt>
<pdfrwt beam="1">  1        4 0.12409808E-01 0.12496033E+03</pdfrwt>
<pdfrwt beam="2">  1       -4 0.74454770E-02 0.12496033E+03</pdfrwt>
<totfact> 0.10373960E+04</totfact>
</mgrwt>
</event>
<event>
 5    1  0.3330238E-002  0.1250046E+03  0.7818608E-02  0.1235062E+00
          4   -1    0    0  501    0  0.00000000000E+00  0.00000000000E+00  0.97436419502E+02  0.97444695830E+02  0.12700000000E+01 0. -1.
         -4   -1    0    0    0  501 -0.00000000000E+00 -0.00000000000E+00 -0.40073158861E+02  0.40093278253E+02  0.12700000000E+01 0. -1.
         25    2    1    2    0    0  0.00000000000E+00  0.00000000000E+00  0.57363260641E+02  0.13753797408E+03  0.12500460249E+03 0.  0.
    9000005    1    3    3    0    0  0.46745720815E+02 -0.16444686832E+02  0.70577649674E+02  0.86242650545E+02  0.10000000000E+01 0.  0.
    9000005    1    3    3    0    0 -0.46745720815E+02  0.16444686832E+02 -0.13214389032E+02  0.51295323539E+02  0.10000000000E+01 0.  0.
<mgrwt>
<rscale>  0 0.12500460E+03</rscale>
<asrwt>0</asrwt>
<pdfrwt beam="1">  1        4 0.14992402E-01 0.12500460E+03</pdfrwt>
<pdfrwt beam="2">  1       -4 0.61672858E-02 0.12500460E+03</pdfrwt>
<totfact> 0.10183793E+04</totfact>
</mgrwt>
</event>
<event>
 5    1  0.3330238E-002  0.1249920E+03  0.7818608E-02  0.1235082E+00
         -4   -1    0    0    0  501 -0.00000000000E+00  0.00000000000E+00  0.43008792291E+02  0.43027539023E+02  0.12700000000E+01 0. -1.
          4   -1    0    0  501    0  0.00000000000E+00 -0.00000000000E+00 -0.90769918069E+02  0.90778802186E+02  0.12700000000E+01 0. -1.
         25    2    1    2    0    0  0.00000000000E+00  0.00000000000E+00 -0.47761125778E+02  0.13380634121E+03  0.12499204700E+03 0.  0.
    9000005    1    3    3    0    0  0.34817119865E+02  0.24354716533E+02  0.25169401298E+02  0.49395169954E+02  0.10000000000E+01 0.  0.
    9000005    1    3    3    0    0 -0.34817119865E+02 -0.24354716533E+02 -0.72930527075E+02  0.84411171255E+02  0.10000000000E+01 0.  0.
<mgrwt>
<rscale>  0 0.12499205E+03</rscale>
<asrwt>0</asrwt>
<pdfrwt beam="2">  1        4 0.13966728E-01 0.12499205E+03</pdfrwt>
<pdfrwt beam="1">  1       -4 0.66188627E-02 0.12499205E+03</pdfrwt>
<totfact> 0.10265133E+04</totfact>
</mgrwt>
</event>
<event>
 5    1  0.3330238E-002  0.1250042E+03  0.7818608E-02  0.1235063E+00
          4   -1    0    0  501    0  0.00000000000E+00  0.00000000000E+00  0.41344749214E+02  0.41364250115E+02  0.12700000000E+01 0.  1.
         -4   -1    0    0    0  501 -0.00000000000E+00 -0.00000000000E+00 -0.94440303740E+02  0.94448842611E+02  0.12700000000E+01 0.  1.
         25    2    1    2    0    0  0.00000000000E+00  0.00000000000E+00 -0.53095554526E+02  0.13581309273E+03  0.12500423291E+03 0.  0.
    9000005    1    3    3    0    0  0.53022191783E+02  0.72848925377E+01  0.85081525821E+01  0.54201578770E+02  0.10000000000E+01 0.  0.
    9000005    1    3    3    0    0 -0.53022191783E+02 -0.72848925377E+01 -0.61603707108E+02  0.81611513957E+02  0.10000000000E+01 0.  0.
<mgrwt>
<rscale>  0 0.12500423E+03</rscale>
<asrwt>0</asrwt>
<pdfrwt beam="1">  1        4 0.63628876E-02 0.12500423E+03</pdfrwt>
<pdfrwt beam="2">  1       -4 0.14531434E-01 0.12500423E+03</pdfrwt>
<totfact> 0.10219986E+04</totfact>
</mgrwt>
</event>
<event>
 5    1  0.3330238E-002  0.1249980E+03  0.7818608E-02  0.1235072E+00
         -4   -1    0    0    0  501 -0.00000000000E+00  0.00000000000E+00  0.60126220604E+03  0.60126354730E+03  0.12700000000E+01 0. -1.
          4   -1    0    0  501    0  0.00000000000E+00 -0.00000000000E+00 -0.64331100052E+01  0.65572711045E+01  0.12700000000E+01 0. -1.
         25    2    1    2    0    0  0.00000000000E+00  0.00000000000E+00  0.59482909603E+03  0.60782081840E+03  0.12499797517E+03 0.  0.
    9000005    1    3    3    0    0  0.21040740817E+02  0.59485146608E+00  0.58352893016E+03  0.58390930713E+03  0.10000000000E+01 0.  0.
    9000005    1    3    3    0    0 -0.21040740817E+02 -0.59485146608E+00  0.11300165870E+02  0.23911511268E+02  0.10000000000E+01 0.  0.
<mgrwt>
<rscale>  0 0.12499798E+03</rscale>
<asrwt>0</asrwt>
<pdfrwt beam="2">  1        4 0.99936324E-03 0.12499798E+03</pdfrwt>
<pdfrwt beam="1">  1       -4 0.92511533E-01 0.12499798E+03</pdfrwt>
<totfact> 0.48379776E+03</totfact>
</mgrwt>
</event>
<event>
 5    1  0.3330238E-002  0.1249989E+03  0.7818608E-02  0.1235071E+00
         -4   -1    0    0    0  501 -0.00000000000E+00  0.00000000000E+00  0.10440950018E+04  0.10440957742E+04  0.12700000000E+01 0.  1.
          4   -1    0    0  501    0  0.00000000000E+00 -0.00000000000E+00 -0.36326364920E+01  0.38482395823E+01  0.12700000000E+01 0.  1.
         25    2    1    2    0    0  0.00000000000E+00  0.00000000000E+00  0.10404623653E+04  0.10479440138E+04  0.12499888952E+03 0.  0.
    9000005    1    3    3    0    0 -0.52857081896E+02  0.32173595721E+02  0.44706309560E+03  0.45132629307E+03  0.10000000000E+01 0.  0.
    9000005    1    3    3    0    0  0.52857081896E+02 -0.32173595721E+02  0.59339926971E+03  0.59661772071E+03  0.10000000000E+01 0.  0.
<mgrwt>
<rscale>  0 0.12499889E+03</rscale>
<asrwt>0</asrwt>
<pdfrwt beam="2">  1        4 0.57551186E-03 0.12499889E+03</pdfrwt>
<pdfrwt beam="1">  1       -4 0.16064652E+00 0.12499889E+03</pdfrwt>
<totfact> 0.29059778E+03</totfact>
</mgrwt>
</event>
<event>
 5    1  0.3330238E-002  0.1249989E+03  0.7818608E-02  0.1235071E+00
         -4   -1    0    0    0  501 -0.00000000000E+00  0.00000000000E+00  0.12036136669E+02  0.12102953603E+02  0.12700000000E+01 0.  1.
          4   -1    0    0  501    0  0.00000000000E+00 -0.00000000000E+00 -0.32357121663E+03  0.32357370896E+03  0.12700000000E+01 0.  1.
         25    2    1    2    0    0  0.00000000000E+00  0.00000000000E+00 -0.31153507996E+03  0.33567666256E+03  0.12499886297E+03 0.  0.
    9000005    1    3    3    0    0  0.31509359909E+02  0.62096722244E+01 -0.11807559050E+02  0.34231830826E+02  0.10000000000E+01 0.  0.
    9000005    1    3    3    0    0 -0.31509359909E+02 -0.62096722244E+01 -0.29972752091E+03  0.30144483174E+03  0.10000000000E+01 0.  0.
<mgrwt>
<rscale>  0 0.12499886E+03</rscale>
<asrwt>0</asrwt>
<pdfrwt beam="2">  1        4 0.49785512E-01 0.12499886E+03</pdfrwt>
<pdfrwt beam="1">  1       -4 0.18570451E-02 0.12499886E+03</pdfrwt>
<totfact> 0.71331384E+03</totfact>
</mgrwt>
</event>
<event>
 5    1  0.3330238E-002  0.1249954E+03  0.7818608E-02  0.1235076E+00
          4   -1    0    0  501    0  0.00000000000E+00  0.00000000000E+00  0.86358915538E+02  0.86368253385E+02  0.12700000000E+01 0. -1.
         -4   -1    0    0    0  501 -0.00000000000E+00 -0.00000000000E+00 -0.45208702340E+02  0.45226537202E+02  0.12700000000E+01 0. -1.
         25    2    1    2    0    0  0.00000000000E+00  0.00000000000E+00  0.41150213198E+02  0.13159479059E+03  0.12499539537E+03 0.  0.
    9000005    1    3    3    0    0  0.61349750292E+02 -0.11566841842E+02  0.23434865714E+02  0.66691653317E+02  0.10000000000E+01 0.  0.
    9000005    1    3    3    0    0 -0.61349750292E+02  0.11566841842E+02  0.17715347483E+02  0.64903137271E+02  0.10000000000E+01 0.  0.
<mgrwt>
<rscale>  0 0.12499540E+03</rscale>
<asrwt>0</asrwt>
<pdfrwt beam="1">  1        4 0.13288077E-01 0.12499540E+03</pdfrwt>
<pdfrwt beam="2">  1       -4 0.69572752E-02 0.12499540E+03</pdfrwt>
<totfact> 0.10311426E+04</totfact>
</mgrwt>
</event>
<event>
 5    1  0.3330238E-002  0.1249767E+03  0.7818608E-02  0.1235106E+00
          4   -1    0    0  501    0  0.00000000000E+00  0.00000000000E+00  0.86486581679E+02  0.86495905744E+02  0.12700000000E+01 0.  1.
         -4   -1    0    0    0  501 -0.00000000000E+00 -0.00000000000E+00 -0.45128431905E+02  0.45146298477E+02  0.12700000000E+01 0.  1.
         25    2    1    2    0    0  0.00000000000E+00  0.00000000000E+00  0.41358149774E+02  0.13164220422E+03  0.12497669135E+03 0.  0.
    9000005    1    3    3    0    0  0.41512009703E+02 -0.19909261341E+02 -0.23813133230E+02  0.51842945045E+02  0.10000000000E+01 0.  0.
    9000005    1    3    3    0    0 -0.41512009703E+02  0.19909261341E+02  0.65171283004E+02  0.79799259176E+02  0.10000000000E+01 0.  0.
<mgrwt>
<rscale>  0 0.12497669E+03</rscale>
<asrwt>0</asrwt>
<pdfrwt beam="1">  1        4 0.13307719E-01 0.12497669E+03</pdfrwt>
<pdfrwt beam="2">  1       -4 0.69449273E-02 0.12497669E+03</pdfrwt>
<totfact> 0.10314764E+04</totfact>
</mgrwt>
</event>
<event>
 5    1  0.3330238E-002  0.1250009E+03  0.7818608E-02  0.1235068E+00
          4   -1    0    0  501    0  0.00000000000E+00  0.00000000000E+00  0.21661936046E+02  0.21699133007E+02  0.12700000000E+01 0. -1.
         -4   -1    0    0    0  501 -0.00000000000E+00 -0.00000000000E+00 -0.18013638572E+03  0.18014086255E+03  0.12700000000E+01 0. -1.
         25    2    1    2    0    0  0.00000000000E+00  0.00000000000E+00 -0.15847444968E+03  0.20183999556E+03  0.12500093042E+03 0.  0.
    9000005    1    3    3    0    0  0.62269134509E+02 -0.29762454389E+00 -0.70727475156E+02  0.94238577212E+02  0.10000000000E+01 0.  0.
    9000005    1    3    3    0    0 -0.62269134509E+02  0.29762454389E+00 -0.87746974522E+02  0.10760141835E+03  0.10000000000E+01 0.  0.
<mgrwt>
<rscale>  0 0.12500093E+03</rscale>
<asrwt>0</asrwt>
<pdfrwt beam="1">  1        4 0.33358113E-02 0.12500093E+03</pdfrwt>
<pdfrwt beam="2">  1       -4 0.27716495E-01 0.12500093E+03</pdfrwt>
<totfact> 0.89824232E+03</totfact>
</mgrwt>
</event>
<event>
 5    1  0.3330238E-002  0.1250007E+03  0.7818608E-02  0.1235068E+00
         -4   -1    0    0    0  501 -0.00000000000E+00  0.00000000000E+00  0.24273253403E+03  0.24273585639E+03  0.12700000000E+01 0. -1.
          4   -1    0    0  501    0  0.00000000000E+00 -0.00000000000E+00 -0.16064510816E+02  0.16114633343E+02  0.12700000000E+01 0. -1.
         25    2    1    2    0    0  0.00000000000E+00  0.00000000000E+00  0.22666802321E+03  0.25885048973E+03  0.12500073314E+03 0.  0.
    9000005    1    3    3    0    0  0.24719534823E+02  0.58161321134E+01 -0.49082534824E+01  0.25883851083E+02  0.10000000000E+01 0.  0.
    9000005    1    3    3    0    0 -0.24719534823E+02 -0.58161321134E+01  0.23157627669E+03  0.23296663865E+03  0.10000000000E+01 0.  0.
<mgrwt>
<rscale>  0 0.12500073E+03</rscale>
<asrwt>0</asrwt>
<pdfrwt beam="2">  1        4 0.24755747E-02 0.12500073E+03</pdfrwt>
<pdfrwt beam="1">  1       -4 0.37347573E-01 0.12500073E+03</pdfrwt>
<totfact> 0.81066330E+03</totfact>
</mgrwt>
</event>
<event>
 5    1  0.3330238E-002  0.1249972E+03  0.7818608E-02  0.1235074E+00
          4   -1    0    0  501    0  0.00000000000E+00  0.00000000000E+00  0.13141239691E+03  0.13141853355E+03  0.12700000000E+01 0. -1.
         -4   -1    0    0    0  501 -0.00000000000E+00 -0.00000000000E+00 -0.29703406010E+02  0.29730543698E+02  0.12700000000E+01 0. -1.
         25    2    1    2    0    0  0.00000000000E+00  0.00000000000E+00  0.10170899090E+03  0.16114907725E+03  0.12499722505E+03 0.  0.
    9000005    1    3    3    0    0 -0.37269584194E+02  0.40911319069E+02  0.88271210398E+02  0.10419004040E+03  0.10000000000E+01 0.  0.
    9000005    1    3    3    0    0  0.37269584194E+02 -0.40911319069E+02  0.13437780501E+02  0.56959036849E+02  0.10000000000E+01 0.  0.
<mgrwt>
<rscale>  0 0.12499723E+03</rscale>
<asrwt>0</asrwt>
<pdfrwt beam="1">  1        4 0.20219851E-01 0.12499723E+03</pdfrwt>
<pdfrwt beam="2">  1       -4 0.45723144E-02 0.12499723E+03</pdfrwt>
<totfact> 0.97127766E+03</totfact>
</mgrwt>
</event>
<event>
 5    1  0.3330238E-002  0.1249985E+03  0.7818608E-02  0.1235072E+00
         -4   -1    0    0    0  501 -0.00000000000E+00  0.00000000000E+00  0.36798444273E+02  0.36820353080E+02  0.12700000000E+01 0. -1.
          4   -1    0    0  501    0  0.00000000000E+00 -0.00000000000E+00 -0.10609276189E+03  0.10610036299E+03  0.12700000000E+01 0. -1.
         25    2    1    2    0    0  0.00000000000E+00  0.00000000000E+00 -0.69294317618E+02  0.14292071607E+03  0.12499851450E+03 0.  0.
    9000005    1    3    3    0    0  0.30426141559E+02 -0.24344055222E+02 -0.90506522544E+02  0.98543461162E+02  0.10000000000E+01 0.  0.
    9000005    1    3    3    0    0 -0.30426141559E+02  0.24344055222E+02  0.21212204926E+02  0.44377254903E+02  0.10000000000E+01 0.  0.
<mgrwt>
<rscale>  0 0.12499851E+03</rscale>
<asrwt>0</asrwt>
<pdfrwt beam="2">  1        4 0.16324233E-01 0.12499851E+03</pdfrwt>
<pdfrwt beam="1">  1       -4 0.56635692E-02 0.12499851E+03</pdfrwt>
<totfact> 0.10073744E+04</totfact>
</mgrwt>
</event>
<event>
 5    1  0.3330238E-002  0.1249979E+03  0.7818608E-02  0.1235073E+00
         -4   -1    0    0    0  501 -0.00000000000E+00  0.00000000000E+00  0.24383563824E+02  0.24416614932E+02  0.12700000000E+01 0. -1.
          4   -1    0    0  501    0  0.00000000000E+00 -0.00000000000E+00 -0.16005056904E+03  0.16005560768E+03  0.12700000000E+01 0. -1.
         25    2    1    2    0    0  0.00000000000E+00  0.00000000000E+00 -0.13566700521E+03  0.18447222261E+03  0.12499785843E+03 0.  0.
    9000005    1    3    3    0    0  0.14471895371E+02  0.29534822988E+02  0.10583937677E+02  0.34565318764E+02  0.10000000000E+01 0.  0.
    9000005    1    3    3    0    0 -0.14471895371E+02 -0.29534822988E+02 -0.14625094289E+03  0.14990690385E+03  0.10000000000E+01 0.  0.
<mgrwt>
<rscale>  0 0.12499786E+03</rscale>
<asrwt>0</asrwt>
<pdfrwt beam="2">  1        4 0.24626094E-01 0.12499786E+03</pdfrwt>
<pdfrwt beam="1">  1       -4 0.37542476E-02 0.12499786E+03</pdfrwt>
<totfact> 0.92822582E+03</totfact>
</mgrwt>
</event>
<event>
 5    1  0.3330238E-002  0.1250078E+03  0.7818608E-02  0.1235057E+00
          4   -1    0    0  501    0  0.00000000000E+00  0.00000000000E+00  0.16379155089E+03  0.16379647445E+03  0.12700000000E+01 0.  1.
         -4   -1    0    0    0  501 -0.00000000000E+00 -0.00000000000E+00 -0.23829693379E+02  0.23863511613E+02  0.12700000000E+01 0.  1.
         25    2    1    2    0    0  0.00000000000E+00  0.00000000000E+00  0.13996185751E+03  0.18765998606E+03  0.12500779500E+03 0.  0.
    9000005    1    3    3    0    0  0.34951516424E+02 -0.42339609378E+02  0.25158860504E+02  0.60400490763E+02  0.10000000000E+01 0.  0.
    9000005    1    3    3    0    0 -0.34951516424E+02  0.42339609378E+02  0.11480299701E+03  0.12725949530E+03  0.10000000000E+01 0.  0.
<mgrwt>
<rscale>  0 0.12500780E+03</rscale>
<asrwt>0</asrwt>
<pdfrwt beam="1">  1        4 0.25201680E-01 0.12500780E+03</pdfrwt>
<pdfrwt beam="2">  1       -4 0.36690869E-02 0.12500780E+03</pdfrwt>
<totfact> 0.92239960E+03</totfact>
</mgrwt>
</event>
<event>
 5    1  0.3330238E-002  0.1249967E+03  0.7818608E-02  0.1235074E+00
          4   -1    0    0  501    0  0.00000000000E+00  0.00000000000E+00  0.16990677004E+03  0.16991151640E+03  0.12700000000E+01 0. -1.
         -4   -1    0    0    0  501 -0.00000000000E+00 -0.00000000000E+00 -0.22966732893E+02  0.23001819924E+02  0.12700000000E+01 0. -1.
         25    2    1    2    0    0  0.00000000000E+00  0.00000000000E+00  0.14694003715E+03  0.19291333632E+03  0.12499672322E+03 0.  0.
    9000005    1    3    3    0    0 -0.71948852910E+01  0.58958173673E+02  0.10344484739E+03  0.11928817657E+03  0.10000000000E+01 0.  0.
    9000005    1    3    3    0    0  0.71948852910E+01 -0.58958173673E+02  0.43495189756E+02  0.73625159756E+02  0.10000000000E+01 0.  0.
<mgrwt>
<rscale>  0 0.12499672E+03</rscale>
<asrwt>0</asrwt>
<pdfrwt beam="1">  1        4 0.26142569E-01 0.12499672E+03</pdfrwt>
<pdfrwt beam="2">  1       -4 0.35364074E-02 0.12499672E+03</pdfrwt>
<totfact> 0.91349562E+03</totfact>
</mgrwt>
</event>
<event>
 5    1  0.3330238E-002  0.1249990E+03  0.7818608E-02  0.1235071E+00
          4   -1    0    0  501    0  0.00000000000E+00  0.00000000000E+00  0.16982173706E+02  0.17029595526E+02  0.12700000000E+01 0.  1.
         -4   -1    0    0    0  501 -0.00000000000E+00 -0.00000000000E+00 -0.22964697199E+03  0.22965048366E+03  0.12700000000E+01 0.  1.
         25    2    1    2    0    0  0.00000000000E+00  0.00000000000E+00 -0.21266479828E+03  0.24668007918E+03  0.12499898014E+03 0.  0.
    9000005    1    3    3    0    0 -0.53197951704E+02 -0.26548253528E+02 -0.14431077432E+03  0.15608148966E+03  0.10000000000E+01 0.  0.
    9000005    1    3    3    0    0  0.53197951704E+02  0.26548253528E+02 -0.68354023965E+02  0.90598589520E+02  0.10000000000E+01 0.  0.
<mgrwt>
<rscale>  0 0.12499898E+03</rscale>
<asrwt>0</asrwt>
<pdfrwt beam="1">  1        4 0.26165602E-02 0.12499898E+03</pdfrwt>
<pdfrwt beam="2">  1       -4 0.35334219E-01 0.12499898E+03</pdfrwt>
<totfact> 0.82814323E+03</totfact>
</mgrwt>
</event>
<event>
 5    1  0.3330238E-002  0.1249997E+03  0.7818608E-02  0.1235070E+00
         -4   -1    0    0    0  501 -0.00000000000E+00  0.00000000000E+00  0.10479289216E+03  0.10480058753E+03  0.12700000000E+01 0.  1.
          4   -1    0    0  501    0  0.00000000000E+00 -0.00000000000E+00 -0.37255870829E+02  0.37277510797E+02  0.12700000000E+01 0.  1.
         25    2    1    2    0    0  0.00000000000E+00  0.00000000000E+00  0.67537021329E+02  0.14207809833E+03  0.12499974710E+03 0.  0.
    9000005    1    3    3    0    0 -0.26914399821E+02  0.30733145199E+02  0.87519352747E+02  0.96589586586E+02  0.10000000000E+01 0.  0.
    9000005    1    3    3    0    0  0.26914399821E+02 -0.30733145199E+02 -0.19982331418E+02  0.45488511742E+02  0.10000000000E+01 0.  0.
<mgrwt>
<rscale>  0 0.12499975E+03</rscale>
<asrwt>0</asrwt>
<pdfrwt beam="2">  1        4 0.57339291E-02 0.12499975E+03</pdfrwt>
<pdfrwt beam="1">  1       -4 0.16124240E-01 0.12499975E+03</pdfrwt>
<totfact> 0.10090754E+04</totfact>
</mgrwt>
</event>
<event>
 5    1  0.3330238E-002  0.1250003E+03  0.7818608E-02  0.1235069E+00
         -4   -1    0    0    0  501 -0.00000000000E+00  0.00000000000E+00  0.36724321772E+02  0.36746274772E+02  0.12700000000E+01 0. -1.
          4   -1    0    0  501    0  0.00000000000E+00 -0.00000000000E+00 -0.10630979727E+03  0.10631738285E+03  0.12700000000E+01 0. -1.
         25    2    1    2    0    0  0.00000000000E+00  0.00000000000E+00 -0.69585475499E+02  0.14306365762E+03  0.12500028692E+03 0.  0.
    9000005    1    3    3    0    0 -0.83788993288E+01 -0.68515664176E+01  0.35649000566E+02  0.37269305838E+02  0.10000000000E+01 0.  0.
    9000005    1    3    3    0    0  0.83788993288E+01  0.68515664176E+01 -0.10523447606E+03  0.10579435178E+03  0.10000000000E+01 0.  0.
<mgrwt>
<rscale>  0 0.12500029E+03</rscale>
<asrwt>0</asrwt>
<pdfrwt beam="2">  1        4 0.16357625E-01 0.12500029E+03</pdfrwt>
<pdfrwt beam="1">  1       -4 0.56521679E-02 0.12500029E+03</pdfrwt>
<totfact> 0.10070415E+04</totfact>
</mgrwt>
</event>
<event>
 5    1  0.3330238E-002  0.1250016E+03  0.7818608E-02  0.1235067E+00
          4   -1    0    0  501    0  0.00000000000E+00  0.00000000000E+00  0.53767510816E+03  0.53767660804E+03  0.12700000000E+01 0.  1.
         -4   -1    0    0    0  501 -0.00000000000E+00 -0.00000000000E+00 -0.72082423406E+01  0.73192661955E+01  0.12700000000E+01 0.  1.
         25    2    1    2    0    0  0.00000000000E+00  0.00000000000E+00  0.53046686582E+03  0.54499587423E+03  0.12500162880E+03 0.  0.
    9000005    1    3    3    0    0  0.32528840036E+02 -0.45895999868E+02  0.14656827782E+03  0.15699626843E+03  0.10000000000E+01 0.  0.
    9000005    1    3    3    0    0 -0.32528840036E+02  0.45895999868E+02  0.38389858800E+03  0.38799960580E+03  0.10000000000E+01 0.  0.
<mgrwt>
<rscale>  0 0.12500163E+03</rscale>
<asrwt>0</asrwt>
<pdfrwt beam="1">  1        4 0.82727908E-01 0.12500163E+03</pdfrwt>
<pdfrwt beam="2">  1       -4 0.11176160E-02 0.12500163E+03</pdfrwt>
<totfact> 0.52532902E+03</totfact>
</mgrwt>
</event>
<event>
 5    1  0.3330238E-002  0.1249947E+03  0.7818608E-02  0.1235078E+00
          4   -1    0    0  501    0  0.00000000000E+00  0.00000000000E+00  0.17272261192E+03  0.17272728090E+03  0.12700000000E+01 0.  1.
         -4   -1    0    0    0  501 -0.00000000000E+00 -0.00000000000E+00 -0.22591013557E+02  0.22626683220E+02  0.12700000000E+01 0.  1.
         25    2    1    2    0    0  0.00000000000E+00  0.00000000000E+00  0.15013159836E+03  0.19535396412E+03  0.12499469777E+03 0.  0.
    9000005    1    3    3    0    0 -0.45389809851E+02 -0.29688154691E+02  0.12357351202E+03  0.13495567510E+03  0.10000000000E+01 0.  0.
    9000005    1    3    3    0    0  0.45389809851E+02  0.29688154691E+02  0.26558086341E+02  0.60398289027E+02  0.10000000000E+01 0.  0.
<mgrwt>
<rscale>  0 0.12499470E+03</rscale>
<asrwt>0</asrwt>
<pdfrwt beam="1">  1        4 0.26575812E-01 0.12499470E+03</pdfrwt>
<pdfrwt beam="2">  1       -4 0.34786435E-02 0.12499470E+03</pdfrwt>
<totfact> 0.90934791E+03</totfact>
</mgrwt>
</event>
<event>
 5    1  0.3330238E-002  0.1250014E+03  0.7818608E-02  0.1235067E+00
         -4   -1    0    0    0  501 -0.00000000000E+00  0.00000000000E+00  0.15113328810E+03  0.15113862403E+03  0.12700000000E+01 0.  1.
          4   -1    0    0  501    0  0.00000000000E+00 -0.00000000000E+00 -0.25825585564E+02  0.25856793493E+02  0.12700000000E+01 0.  1.
         25    2    1    2    0    0  0.00000000000E+00  0.00000000000E+00  0.12530770254E+03  0.17699541752E+03  0.12500143002E+03 0.  0.
    9000005    1    3    3    0    0  0.53858582744E+02 -0.20123904273E+02  0.27981329562E+02  0.63950553261E+02  0.10000000000E+01 0.  0.
    9000005    1    3    3    0    0 -0.53858582744E+02  0.20123904273E+02  0.97326372976E+02  0.11304486426E+03  0.10000000000E+01 0.  0.
<mgrwt>
<rscale>  0 0.12500143E+03</rscale>
<asrwt>0</asrwt>
<pdfrwt beam="2">  1        4 0.39759781E-02 0.12500143E+03</pdfrwt>
<pdfrwt beam="1">  1       -4 0.23254086E-01 0.12500143E+03</pdfrwt>
<totfact> 0.94157630E+03</totfact>
</mgrwt>
</event>
<event>
 5    1  0.3330238E-002  0.1250006E+03  0.7818608E-02  0.1235068E+00
          4   -1    0    0  501    0  0.00000000000E+00  0.00000000000E+00  0.14688285246E+03  0.14688834279E+03  0.12700000000E+01 0. -1.
         -4   -1    0    0    0  501 -0.00000000000E+00 -0.00000000000E+00 -0.26573417637E+02  0.26603748325E+02  0.12700000000E+01 0. -1.
         25    2    1    2    0    0  0.00000000000E+00  0.00000000000E+00  0.12030943482E+03  0.17349209111E+03  0.12500058228E+03 0.  0.
    9000005    1    3    3    0    0  0.13508558048E+02 -0.59139278972E+02  0.80989900807E+02  0.10119436492E+03  0.10000000000E+01 0.  0.
    9000005    1    3    3    0    0 -0.13508558048E+02  0.59139278972E+02  0.39319534015E+02  0.72297726195E+02  0.10000000000E+01 0.  0.
<mgrwt>
<rscale>  0 0.12500058E+03</rscale>
<asrwt>0</asrwt>
<pdfrwt beam="1">  1        4 0.22600118E-01 0.12500058E+03</pdfrwt>
<pdfrwt beam="2">  1       -4 0.40909735E-02 0.12500058E+03</pdfrwt>
<totfact> 0.94800499E+03</totfact>
</mgrwt>
</event>
<event>
 5    1  0.3330238E-002  0.1250003E+03  0.7818608E-02  0.1235069E+00
         -4   -1    0    0    0  501 -0.00000000000E+00  0.00000000000E+00  0.32447407858E+03  0.32447656398E+03  0.12700000000E+01 0. -1.
          4   -1    0    0  501    0  0.00000000000E+00 -0.00000000000E+00 -0.12002729703E+02  0.12069731576E+02  0.12700000000E+01 0. -1.
         25    2    1    2    0    0  0.00000000000E+00  0.00000000000E+00  0.31247134888E+03  0.33654629555E+03  0.12500026073E+03 0.  0.
    9000005    1    3    3    0    0  0.50861007352E+02  0.67561629707E+01  0.60182812594E+02  0.79091458064E+02  0.10000000000E+01 0.  0.
    9000005    1    3    3    0    0 -0.50861007352E+02 -0.67561629707E+01  0.25228853628E+03  0.25745483749E+03  0.10000000000E+01 0.  0.
<mgrwt>
<rscale>  0 0.12500026E+03</rscale>
<asrwt>0</asrwt>
<pdfrwt beam="2">  1        4 0.18519193E-02 0.12500026E+03</pdfrwt>
<pdfrwt beam="1">  1       -4 0.49924425E-01 0.12500026E+03</pdfrwt>
<totfact> 0.71230030E+03</totfact>
</mgrwt>
</event>
<event>
 5    1  0.3330238E-002  0.1249986E+03  0.7818608E-02  0.1235071E+00
          4   -1    0    0  501    0  0.00000000000E+00  0.00000000000E+00  0.43282359789E+02  0.43300988082E+02  0.12700000000E+01 0. -1.
         -4   -1    0    0    0  501 -0.00000000000E+00 -0.00000000000E+00 -0.90205915120E+02  0.90214854778E+02  0.12700000000E+01 0. -1.
         25    2    1    2    0    0  0.00000000000E+00  0.00000000000E+00 -0.46923555331E+02  0.13351584286E+03  0.12499864099E+03 0.  0.
    9000005    1    3    3    0    0  0.42797147957E+02  0.38612840118E+02 -0.49243942026E+02  0.75818949619E+02  0.10000000000E+01 0.  0.
    9000005    1    3    3    0    0 -0.42797147957E+02 -0.38612840118E+02  0.23203866947E+01  0.57696893240E+02  0.10000000000E+01 0.  0.
<mgrwt>
<rscale>  0 0.12499864E+03</rscale>
<asrwt>0</asrwt>
<pdfrwt beam="1">  1        4 0.66609452E-02 0.12499864E+03</pdfrwt>
<pdfrwt beam="2">  1       -4 0.13879954E-01 0.12499864E+03</pdfrwt>
<totfact> 0.10269763E+04</totfact>
</mgrwt>
</event>
<event>
 5    1  0.3330238E-002  0.1250036E+03  0.7818608E-02  0.1235064E+00
         -4   -1    0    0    0  501 -0.00000000000E+00  0.00000000000E+00  0.71380938956E+02  0.71392235896E+02  0.12700000000E+01 0.  1.
          4   -1    0    0  501    0  0.00000000000E+00 -0.00000000000E+00 -0.54704169670E+02  0.54718909705E+02  0.12700000000E+01 0.  1.
         25    2    1    2    0    0  0.00000000000E+00  0.00000000000E+00  0.16676769285E+02  0.12611114560E+03  0.12500362559E+03 0.  0.
    9000005    1    3    3    0    0 -0.23862959320E+02  0.33170540832E+02 -0.39364273273E+02  0.56747437095E+02  0.10000000000E+01 0.  0.
    9000005    1    3    3    0    0  0.23862959320E+02 -0.33170540832E+02  0.56041042559E+02  0.69363708505E+02  0.10000000000E+01 0.  0.
<mgrwt>
<rscale>  0 0.12500363E+03</rscale>
<asrwt>0</asrwt>
<pdfrwt beam="2">  1        4 0.84180290E-02 0.12500363E+03</pdfrwt>
<pdfrwt beam="1">  1       -4 0.10983686E-01 0.12500363E+03</pdfrwt>
<totfact> 0.10427669E+04</totfact>
</mgrwt>
</event>
<event>
 5    1  0.3330238E-002  0.1250035E+03  0.7818608E-02  0.1235064E+00
          4   -1    0    0  501    0  0.00000000000E+00  0.00000000000E+00  0.66421992022E+03  0.66422113435E+03  0.12700000000E+01 0.  1.
         -4   -1    0    0    0  501 -0.00000000000E+00 -0.00000000000E+00 -0.58114969704E+01  0.59486466559E+01  0.12700000000E+01 0.  1.
         25    2    1    2    0    0  0.00000000000E+00  0.00000000000E+00  0.65840842325E+03  0.67016978100E+03  0.12500353422E+03 0.  0.
    9000005    1    3    3    0    0 -0.76368762611E+01  0.51455896155E+02  0.14352992237E+03  0.15266915125E+03  0.10000000000E+01 0.  0.
    9000005    1    3    3    0    0  0.76368762611E+01 -0.51455896155E+02  0.51487850088E+03  0.51750062976E+03  0.10000000000E+01 0.  0.
<mgrwt>
<rscale>  0 0.12500353E+03</rscale>
<asrwt>0</asrwt>
<pdfrwt beam="1">  1        4 0.10219838E+00 0.12500353E+03</pdfrwt>
<pdfrwt beam="2">  1       -4 0.90471935E-03 0.12500353E+03</pdfrwt>
<totfact> 0.44705365E+03</totfact>
</mgrwt>
</event>
<event>
 5    1  0.3330238E-002  0.1249908E+03  0.7818608E-02  0.1235084E+00
         -4   -1    0    0    0  501 -0.00000000000E+00  0.00000000000E+00  0.14588465371E+02  0.14643641005E+02  0.12700000000E+01 0.  1.
          4   -1    0    0  501    0  0.00000000000E+00 -0.00000000000E+00 -0.26716165348E+03  0.26716467205E+03  0.12700000000E+01 0.  1.
         25    2    1    2    0    0  0.00000000000E+00  0.00000000000E+00 -0.25257318811E+03  0.28180831305E+03  0.12499083948E+03 0.  0.
    9000005    1    3    3    0    0 -0.76352568126E+01 -0.53115414518E+02 -0.19847471541E+03  0.20560339750E+03  0.10000000000E+01 0.  0.
    9000005    1    3    3    0    0  0.76352568126E+01  0.53115414518E+02 -0.54098472696E+02  0.76204915550E+02  0.10000000000E+01 0.  0.
<mgrwt>
<rscale>  0 0.12499084E+03</rscale>
<asrwt>0</asrwt>
<pdfrwt beam="2">  1        4 0.41106266E-01 0.12499084E+03</pdfrwt>
<pdfrwt beam="1">  1       -4 0.22488560E-02 0.12499084E+03</pdfrwt>
<totfact> 0.77954818E+03</totfact>
</mgrwt>
</event>
<event>
 5    1  0.3330238E-002  0.1249983E+03  0.7818608E-02  0.1235072E+00
         -4   -1    0    0    0  501 -0.00000000000E+00  0.00000000000E+00  0.20811572415E+03  0.20811959912E+03  0.12700000000E+01 0.  1.
          4   -1    0    0  501    0  0.00000000000E+00 -0.00000000000E+00 -0.18743562271E+02  0.18786538441E+02  0.12700000000E+01 0.  1.
         25    2    1    2    0    0  0.00000000000E+00  0.00000000000E+00  0.18937216187E+03  0.22690613756E+03  0.12499831826E+03 0.  0.
    9000005    1    3    3    0    0  0.41745706146E+02 -0.23127927598E+02  0.21452901070E+02  0.52333851195E+02  0.10000000000E+01 0.  0.
    9000005    1    3    3    0    0 -0.41745706146E+02  0.23127927598E+02  0.16791926080E+03  0.17457228636E+03  0.10000000000E+01 0.  0.
<mgrwt>
<rscale>  0 0.12499832E+03</rscale>
<asrwt>0</asrwt>
<pdfrwt beam="2">  1        4 0.28872287E-02 0.12499832E+03</pdfrwt>
<pdfrwt beam="1">  1       -4 0.32021409E-01 0.12499832E+03</pdfrwt>
<totfact> 0.85790155E+03</totfact>
</mgrwt>
</event>
<event>
 5    1  0.3330238E-002  0.1249981E+03  0.7818608E-02  0.1235072E+00
          4   -1    0    0  501    0  0.00000000000E+00  0.00000000000E+00  0.23508236401E+02  0.23542516405E+02  0.12700000000E+01 0. -1.
         -4   -1    0    0    0  501 -0.00000000000E+00 -0.00000000000E+00 -0.16600232777E+03  0.16600718576E+03  0.12700000000E+01 0. -1.
         25    2    1    2    0    0  0.00000000000E+00  0.00000000000E+00 -0.14249409137E+03  0.18954970217E+03  0.12499809405E+03 0.  0.
    9000005    1    3    3    0    0 -0.34371566528E+02 -0.31916770734E+02 -0.13386339888E+03  0.14184672854E+03  0.10000000000E+01 0.  0.
    9000005    1    3    3    0    0  0.34371566528E+02  0.31916770734E+02 -0.86306924900E+01  0.47702973623E+02  0.10000000000E+01 0.  0.
<mgrwt>
<rscale>  0 0.12499809E+03</rscale>
<asrwt>0</asrwt>
<pdfrwt beam="1">  1        4 0.36196625E-02 0.12499809E+03</pdfrwt>
<pdfrwt beam="2">  1       -4 0.25541830E-01 0.12499809E+03</pdfrwt>
<totfact> 0.91929649E+03</totfact>
</mgrwt>
</event>
<event>
 5    1  0.3330238E-002  0.1249933E+03  0.7818608E-02  0.1235080E+00
          4   -1    0    0  501    0  0.00000000000E+00  0.00000000000E+00  0.18172600302E+02  0.18216923498E+02  0.12700000000E+01 0. -1.
         -4   -1    0    0    0  501 -0.00000000000E+00 -0.00000000000E+00 -0.21462159829E+03  0.21462535580E+03  0.12700000000E+01 0. -1.
         25    2    1    2    0    0  0.00000000000E+00  0.00000000000E+00 -0.19644899799E+03  0.23284227930E+03  0.12499327269E+03 0.  0.
    9000005    1    3    3    0    0  0.28320169382E+02 -0.48865996528E+02 -0.14803277147E+03  0.15844437206E+03  0.10000000000E+01 0.  0.
    9000005    1    3    3    0    0 -0.28320169382E+02  0.48865996528E+02 -0.48416226525E+02  0.74397907239E+02  0.10000000000E+01 0.  0.
<mgrwt>
<rscale>  0 0.12499327E+03</rscale>
<asrwt>0</asrwt>
<pdfrwt beam="1">  1        4 0.27994833E-02 0.12499327E+03</pdfrwt>
<pdfrwt beam="2">  1       -4 0.33022404E-01 0.12499327E+03</pdfrwt>
<totfact> 0.84887803E+03</totfact>
</mgrwt>
</event>
<event>
 5    1  0.3330238E-002  0.1250084E+03  0.7818608E-02  0.1235056E+00
          4   -1    0    0  501    0  0.00000000000E+00  0.00000000000E+00  0.60862287344E+03  0.60862419848E+03  0.12700000000E+01 0.  1.
         -4   -1    0    0    0  501 -0.00000000000E+00 -0.00000000000E+00 -0.63548798321E+01  0.64805399220E+01  0.12700000000E+01 0.  1.
         25    2    1    2    0    0  0.00000000000E+00  0.00000000000E+00  0.60226799361E+03  0.61510473840E+03  0.12500841203E+03 0.  0.
    9000005    1    3    3    0    0  0.95205051164E+01  0.34679476823E+02  0.55263253214E+03  0.55380233090E+03  0.10000000000E+01 0.  0.
    9000005    1    3    3    0    0 -0.95205051164E+01 -0.34679476823E+02  0.49635461470E+02  0.61302407503E+02  0.10000000000E+01 0.  0.
<mgrwt>
<rscale>  0 0.12500841E+03</rscale>
<asrwt>0</asrwt>
<pdfrwt beam="1">  1        4 0.93644074E-01 0.12500841E+03</pdfrwt>
<pdfrwt beam="2">  1       -4 0.98744172E-03 0.12500841E+03</pdfrwt>
<totfact> 0.47918985E+03</totfact>
</mgrwt>
</event>
<event>
 5    1  0.3330238E-002  0.1249679E+03  0.7818608E-02  0.1235119E+00
          4   -1    0    0  501    0  0.00000000000E+00  0.00000000000E+00  0.11536198899E+02  0.11605894409E+02  0.12700000000E+01 0. -1.
         -4   -1    0    0    0  501 -0.00000000000E+00 -0.00000000000E+00 -0.33734419531E+03  0.33734658588E+03  0.12700000000E+01 0. -1.
         25    2    1    2    0    0  0.00000000000E+00  0.00000000000E+00 -0.32580799641E+03  0.34895248029E+03  0.12496792780E+03 0.  0.
    9000005    1    3    3    0    0  0.20929500562E+02  0.43417882042E+02 -0.27390030612E+03  0.27811065095E+03  0.10000000000E+01 0.  0.
    9000005    1    3    3    0    0 -0.20929500562E+02 -0.43417882042E+02 -0.51907690286E+02  0.70841829349E+02  0.10000000000E+01 0.  0.
<mgrwt>
<rscale>  0 0.12496793E+03</rscale>
<asrwt>0</asrwt>
<pdfrwt beam="1">  1        4 0.17803452E-02 0.12496793E+03</pdfrwt>
<pdfrwt beam="2">  1       -4 0.51904645E-01 0.12496793E+03</pdfrwt>
<totfact> 0.69889549E+03</totfact>
</mgrwt>
</event>
<event>
 5    1  0.3330238E-002  0.1249845E+03  0.7818608E-02  0.1235093E+00
          4   -1    0    0  501    0  0.00000000000E+00  0.00000000000E+00  0.27256088758E+02  0.27285660600E+02  0.12700000000E+01 0.  1.
         -4   -1    0    0    0  501 -0.00000000000E+00 -0.00000000000E+00 -0.14317100831E+03  0.14317664098E+03  0.12700000000E+01 0.  1.
         25    2    1    2    0    0  0.00000000000E+00  0.00000000000E+00 -0.11591491956E+03  0.17046230158E+03  0.12498450977E+03 0.  0.
    9000005    1    3    3    0    0  0.94332185290E+01 -0.61505265988E+02 -0.65720557314E+02  0.90510082365E+02  0.10000000000E+01 0.  0.
    9000005    1    3    3    0    0 -0.94332185290E+01  0.61505265988E+02 -0.50194362243E+02  0.79952219213E+02  0.10000000000E+01 0.  0.
<mgrwt>
<rscale>  0 0.12498451E+03</rscale>
<asrwt>0</asrwt>
<pdfrwt beam="1">  1        4 0.41959526E-02 0.12498451E+03</pdfrwt>
<pdfrwt beam="2">  1       -4 0.22029017E-01 0.12498451E+03</pdfrwt>
<totfact> 0.95395702E+03</totfact>
</mgrwt>
</event>
<event>
 5    1  0.3330238E-002  0.1249609E+03  0.7818608E-02  0.1235130E+00
         -4   -1    0    0    0  501 -0.00000000000E+00  0.00000000000E+00  0.75839539188E+01  0.76895550614E+01  0.12700000000E+01 0. -1.
          4   -1    0    0  501    0  0.00000000000E+00 -0.00000000000E+00 -0.51107992774E+03  0.51108150567E+03  0.12700000000E+01 0. -1.
         25    2    1    2    0    0  0.00000000000E+00  0.00000000000E+00 -0.50349597382E+03  0.51877106073E+03  0.12496086507E+03 0.  0.
    9000005    1    3    3    0    0 -0.39167596716E+02 -0.44095203360E+02 -0.33726388508E+03  0.34238343384E+03  0.10000000000E+01 0.  0.
    9000005    1    3    3    0    0  0.39167596716E+02  0.44095203360E+02 -0.16623208874E+03  0.17638762689E+03  0.10000000000E+01 0.  0.
<mgrwt>
<rscale>  0 0.12496087E+03</rscale>
<asrwt>0</asrwt>
<pdfrwt beam="2">  1        4 0.78635899E-01 0.12496087E+03</pdfrwt>
<pdfrwt beam="1">  1       -4 0.11750071E-02 0.12496087E+03</pdfrwt>
<totfact> 0.54483673E+03</totfact>
</mgrwt>
</event>
<event>
 5    1  0.3330238E-002  0.1249995E+03  0.7818608E-02  0.1235070E+00
          4   -1    0    0  501    0  0.00000000000E+00  0.00000000000E+00  0.71818718869E+02  0.71829946958E+02  0.12700000000E+01 0. -1.
         -4   -1    0    0    0  501 -0.00000000000E+00 -0.00000000000E+00 -0.54367120692E+02  0.54381952082E+02  0.12700000000E+01 0. -1.
         25    2    1    2    0    0  0.00000000000E+00  0.00000000000E+00  0.17451598178E+02  0.12621189904E+03  0.12499954072E+03 0.  0.
    9000005    1    3    3    0    0  0.11035777466E+02  0.23871770132E+02 -0.48512387723E+02  0.55191498947E+02  0.10000000000E+01 0.  0.
    9000005    1    3    3    0    0 -0.11035777466E+02 -0.23871770132E+02  0.65963985900E+02  0.71020400093E+02  0.10000000000E+01 0.  0.
<mgrwt>
<rscale>  0 0.12499954E+03</rscale>
<asrwt>0</asrwt>
<pdfrwt beam="1">  1        4 0.11051038E-01 0.12499954E+03</pdfrwt>
<pdfrwt beam="2">  1       -4 0.83661770E-02 0.12499954E+03</pdfrwt>
<totfact> 0.10426427E+04</totfact>
</mgrwt>
</event>
<event>
 5    1  0.3330238E-002  0.1249960E+03  0.7818608E-02  0.1235076E+00
          4   -1    0    0  501    0  0.00000000000E+00  0.00000000000E+00  0.32100283785E+02  0.32125396793E+02  0.12700000000E+01 0.  1.
         -4   -1    0    0    0  501 -0.00000000000E+00 -0.00000000000E+00 -0.12160510012E+03  0.12161173165E+03  0.12700000000E+01 0.  1.
         25    2    1    2    0    0  0.00000000000E+00  0.00000000000E+00 -0.89504816337E+02  0.15373712845E+03  0.12499597000E+03 0.  0.
    9000005    1    3    3    0    0 -0.45620959994E+02  0.31087654515E+02 -0.80764229041E+02  0.97834426183E+02  0.10000000000E+01 0.  0.
    9000005    1    3    3    0    0  0.45620959994E+02 -0.31087654515E+02 -0.87405872954E+01  0.55902702263E+02  0.10000000000E+01 0.  0.
<mgrwt>
<rscale>  0 0.12499597E+03</rscale>
<asrwt>0</asrwt>
<pdfrwt beam="1">  1        4 0.49409472E-02 0.12499597E+03</pdfrwt>
<pdfrwt beam="2">  1       -4 0.18710919E-01 0.12499597E+03</pdfrwt>
<totfact> 0.98572842E+03</totfact>
</mgrwt>
</event>
<event>
 5    1  0.3330238E-002  0.1249993E+03  0.7818608E-02  0.1235070E+00
         -4   -1    0    0    0  501 -0.00000000000E+00  0.00000000000E+00  0.93349524525E+01  0.94209467301E+01  0.12700000000E+01 0.  1.
          4   -1    0    0  501    0  0.00000000000E+00 -0.00000000000E+00 -0.41644374922E+03  0.41644568573E+03  0.12700000000E+01 0.  1.
         25    2    1    2    0    0  0.00000000000E+00  0.00000000000E+00 -0.40710879677E+03  0.42586663246E+03  0.12499926495E+03 0.  0.
    9000005    1    3    3    0    0  0.37984362741E+00  0.61421425120E+02 -0.16434211252E+03  0.17544818521E+03  0.10000000000E+01 0.  0.
    9000005    1    3    3    0    0 -0.37984362741E+00 -0.61421425120E+02 -0.24276668425E+03  0.25041844726E+03  0.10000000000E+01 0.  0.
<mgrwt>
<rscale>  0 0.12499926E+03</rscale>
<asrwt>0</asrwt>
<pdfrwt beam="2">  1        4 0.64075019E-01 0.12499926E+03</pdfrwt>
<pdfrwt beam="1">  1       -4 0.14429108E-02 0.12499926E+03</pdfrwt>
<totfact> 0.62113464E+03</totfact>
</mgrwt>
</event>
<event>
 5    1  0.3330238E-002  0.1250014E+03  0.7818608E-02  0.1235067E+00
          4   -1    0    0  501    0  0.00000000000E+00  0.00000000000E+00  0.14058381613E+03  0.14058955245E+03  0.12700000000E+01 0. -1.
         -4   -1    0    0    0  501 -0.00000000000E+00 -0.00000000000E+00 -0.27765730251E+02  0.27794759872E+02  0.12700000000E+01 0. -1.
         25    2    1    2    0    0  0.00000000000E+00  0.00000000000E+00  0.11281808588E+03  0.16838431232E+03  0.12500142453E+03 0.  0.
    9000005    1    3    3    0    0  0.16286681794E+02 -0.60306091023E+02  0.58840630317E+02  0.85821328319E+02  0.10000000000E+01 0.  0.
    9000005    1    3    3    0    0 -0.16286681794E+02  0.60306091023E+02  0.53977455563E+02  0.82562984002E+02  0.10000000000E+01 0.  0.
<mgrwt>
<rscale>  0 0.12500142E+03</rscale>
<asrwt>0</asrwt>
<pdfrwt beam="1">  1        4 0.21630954E-01 0.12500142E+03</pdfrwt>
<pdfrwt beam="2">  1       -4 0.42743251E-02 0.12500142E+03</pdfrwt>
<totfact> 0.95747205E+03</totfact>
</mgrwt>
</event>
<event>
 5    1  0.3330238E-002  0.1250013E+03  0.7818608E-02  0.1235067E+00
         -4   -1    0    0    0  501 -0.00000000000E+00  0.00000000000E+00  0.33986255460E+01  0.36281614630E+01  0.12700000000E+01 0.  1.
          4   -1    0    0  501    0  0.00000000000E+00 -0.00000000000E+00 -0.11116097237E+04  0.11116104492E+04  0.12700000000E+01 0.  1.
         25    2    1    2    0    0  0.00000000000E+00  0.00000000000E+00 -0.11082110982E+04  0.11152386106E+04  0.12500128237E+03 0.  0.
    9000005    1    3    3    0    0 -0.65520623279E+00  0.54496384223E+02 -0.82692138458E+03  0.82871603186E+03  0.10000000000E+01 0.  0.
    9000005    1    3    3    0    0  0.65520623279E+00 -0.54496384223E+02 -0.28128971357E+03  0.28652257877E+03  0.10000000000E+01 0.  0.
<mgrwt>
<rscale>  0 0.12500128E+03</rscale>
<asrwt>0</asrwt>
<pdfrwt beam="2">  1        4 0.17103431E+00 0.12500128E+03</pdfrwt>
<pdfrwt beam="1">  1       -4 0.54057877E-03 0.12500128E+03</pdfrwt>
<totfact> 0.27040929E+03</totfact>
</mgrwt>
</event>
<event>
 5    1  0.3330238E-002  0.1250133E+03  0.7818608E-02  0.1235049E+00
         -4   -1    0    0    0  501 -0.00000000000E+00  0.00000000000E+00  0.16947566037E+03  0.16948041880E+03  0.12700000000E+01 0.  1.
          4   -1    0    0  501    0  0.00000000000E+00 -0.00000000000E+00 -0.23031347381E+02  0.23066336124E+02  0.12700000000E+01 0.  1.
         25    2    1    2    0    0  0.00000000000E+00  0.00000000000E+00  0.14644431299E+03  0.19254675493E+03  0.12501326340E+03 0.  0.
    9000005    1    3    3    0    0 -0.10247759539E+02 -0.16151623441E+02  0.16486387886E+03  0.16597285943E+03  0.10000000000E+01 0.  0.
    9000005    1    3    3    0    0  0.10247759539E+02  0.16151623441E+02 -0.18419565866E+02  0.26573895500E+02  0.10000000000E+01 0.  0.
<mgrwt>
<rscale>  0 0.12501326E+03</rscale>
<asrwt>0</asrwt>
<pdfrwt beam="2">  1        4 0.35463418E-02 0.12501326E+03</pdfrwt>
<pdfrwt beam="1">  1       -4 0.26076236E-01 0.12501326E+03</pdfrwt>
<totfact> 0.91378922E+03</totfact>
</mgrwt>
</event>
<event>
 5    1  0.3330238E-002  0.1249909E+03  0.7818608E-02  0.1235083E+00
          4   -1    0    0  501    0  0.00000000000E+00  0.00000000000E+00  0.14146035021E+04  0.14146040722E+04  0.12700000000E+01 0.  1.
         -4   -1    0    0    0  501 -0.00000000000E+00 -0.00000000000E+00 -0.26143287504E+01  0.29064780775E+01  0.12700000000E+01 0.  1.
         25    2    1    2    0    0  0.00000000000E+00  0.00000000000E+00  0.14119891734E+04  0.14175105503E+04  0.12499093751E+03 0.  0.
    9000005    1    3    3    0    0  0.45939743323E+02  0.39720726729E+02  0.53913000904E+03  0.54254065543E+03  0.10000000000E+01 0.  0.
    9000005    1    3    3    0    0 -0.45939743323E+02 -0.39720726729E+02  0.87285916433E+03  0.87496989486E+03  0.10000000000E+01 0.  0.
<mgrwt>
<rscale>  0 0.12499094E+03</rscale>
<asrwt>0</asrwt>
<pdfrwt beam="1">  1        4 0.21765304E+00 0.12499094E+03</pdfrwt>
<pdfrwt beam="2">  1       -4 0.42472283E-03 0.12499094E+03</pdfrwt>
<totfact> 0.19612237E+03</totfact>
</mgrwt>
</event>
<event>
 5    1  0.3330238E-002  0.1249997E+03  0.7818608E-02  0.1235070E+00
          4   -1    0    0  501    0  0.00000000000E+00  0.00000000000E+00  0.15501356959E+03  0.15501877195E+03  0.12700000000E+01 0. -1.
         -4   -1    0    0    0  501 -0.00000000000E+00 -0.00000000000E+00 -0.25177641230E+02  0.25209651285E+02  0.12700000000E+01 0. -1.
         25    2    1    2    0    0  0.00000000000E+00  0.00000000000E+00  0.12983592836E+03  0.18022842323E+03  0.12499966499E+03 0.  0.
    9000005    1    3    3    0    0  0.12756988225E+02 -0.56066589226E+02  0.10020679171E+03  0.11553616006E+03  0.10000000000E+01 0.  0.
    9000005    1    3    3    0    0 -0.12756988225E+02  0.56066589226E+02  0.29629136644E+02  0.64692263172E+02  0.10000000000E+01 0.  0.
<mgrwt>
<rscale>  0 0.12499966E+03</rscale>
<asrwt>0</asrwt>
<pdfrwt beam="1">  1        4 0.23851104E-01 0.12499966E+03</pdfrwt>
<pdfrwt beam="2">  1       -4 0.38763458E-02 0.12499966E+03</pdfrwt>
<totfact> 0.93576605E+03</totfact>
</mgrwt>
</event>
<event>
 5    1  0.3330238E-002  0.1249987E+03  0.7818608E-02  0.1235071E+00
          4   -1    0    0  501    0  0.00000000000E+00  0.00000000000E+00  0.11529498226E+03  0.11530197672E+03  0.12700000000E+01 0. -1.
         -4   -1    0    0    0  501 -0.00000000000E+00 -0.00000000000E+00 -0.33859865416E+02  0.33883674329E+02  0.12700000000E+01 0. -1.
         25    2    1    2    0    0  0.00000000000E+00  0.00000000000E+00  0.81435116847E+02  0.14918565105E+03  0.12499872088E+03 0.  0.
    9000005    1    3    3    0    0 -0.56086132569E+02  0.32939924755E+01  0.80613794921E+01  0.56766984175E+02  0.10000000000E+01 0.  0.
    9000005    1    3    3    0    0  0.56086132569E+02 -0.32939924755E+01  0.73373737355E+02  0.92418666872E+02  0.10000000000E+01 0.  0.
<mgrwt>
<rscale>  0 0.12499872E+03</rscale>
<asrwt>0</asrwt>
<pdfrwt beam="1">  1        4 0.17740059E-01 0.12499872E+03</pdfrwt>
<pdfrwt beam="2">  1       -4 0.52115795E-02 0.12499872E+03</pdfrwt>
<totfact> 0.99469137E+03</totfact>
</mgrwt>
</event>
<event>
 5    1  0.3330238E-002  0.1249973E+03  0.7818608E-02  0.1235073E+00
         -4   -1    0    0    0  501 -0.00000000000E+00  0.00000000000E+00  0.61969586915E+03  0.61969717051E+03  0.12700000000E+01 0.  1.
          4   -1    0    0  501    0  0.00000000000E+00 -0.00000000000E+00 -0.62379326690E+01  0.63659016630E+01  0.12700000000E+01 0.  1.
         25    2    1    2    0    0  0.00000000000E+00  0.00000000000E+00  0.61345793648E+03  0.62606307217E+03  0.12499732201E+03 0.  0.
    9000005    1    3    3    0    0 -0.39196455166E+02  0.34530432203E+02  0.47851557820E+03  0.48135939944E+03  0.10000000000E+01 0.  0.
    9000005    1    3    3    0    0  0.39196455166E+02 -0.34530432203E+02  0.13494235827E+03  0.14470367273E+03  0.10000000000E+01 0.  0.
<mgrwt>
<rscale>  0 0.12499732E+03</rscale>
<asrwt>0</asrwt>
<pdfrwt beam="2">  1        4 0.96962565E-03 0.12499732E+03</pdfrwt>
<pdfrwt beam="1">  1       -4 0.95347787E-01 0.12499732E+03</pdfrwt>
<totfact> 0.47265472E+03</totfact>
</mgrwt>
</event>
<event>
 5    1  0.3330238E-002  0.1249993E+03  0.7818608E-02  0.1235070E+00
         -4   -1    0    0    0  501 -0.00000000000E+00  0.00000000000E+00  0.69483761215E+03  0.69483877278E+03  0.12700000000E+01 0. -1.
          4   -1    0    0  501    0  0.00000000000E+00 -0.00000000000E+00 -0.55488443687E+01  0.56923258715E+01  0.12700000000E+01 0. -1.
         25    2    1    2    0    0  0.00000000000E+00  0.00000000000E+00  0.68928876778E+03  0.70053109865E+03  0.12499925915E+03 0.  0.
    9000005    1    3    3    0    0  0.54548174783E+02  0.23164463960E+02  0.23352856649E+03  0.24093295153E+03  0.10000000000E+01 0.  0.
    9000005    1    3    3    0    0 -0.54548174783E+02 -0.23164463960E+02  0.45576020129E+03  0.45959814712E+03  0.10000000000E+01 0.  0.
<mgrwt>
<rscale>  0 0.12499926E+03</rscale>
<asrwt>0</asrwt>
<pdfrwt beam="2">  1        4 0.86479545E-03 0.12499926E+03</pdfrwt>
<pdfrwt beam="1">  1       -4 0.10690913E+00 0.12499926E+03</pdfrwt>
<totfact> 0.43059398E+03</totfact>
</mgrwt>
</event>
<event>
 5    1  0.3330238E-002  0.1250037E+03  0.7818608E-02  0.1235063E+00
         -4   -1    0    0    0  501 -0.00000000000E+00  0.00000000000E+00  0.32783039720E+03  0.32783285715E+03  0.12700000000E+01 0. -1.
          4   -1    0    0  501    0  0.00000000000E+00 -0.00000000000E+00 -0.11879817878E+02  0.11947509063E+02  0.12700000000E+01 0. -1.
         25    2    1    2    0    0  0.00000000000E+00  0.00000000000E+00  0.31595057932E+03  0.33978036621E+03  0.12500371471E+03 0.  0.
    9000005    1    3    3    0    0 -0.61674207100E+01 -0.26872487160E+02  0.55323196140E+01  0.28138482630E+02  0.10000000000E+01 0.  0.
    9000005    1    3    3    0    0  0.61674207100E+01  0.26872487160E+02  0.31041825970E+03  0.31164188358E+03  0.10000000000E+01 0.  0.
<mgrwt>
<rscale>  0 0.12500371E+03</rscale>
<asrwt>0</asrwt>
<pdfrwt beam="2">  1        4 0.18330604E-02 0.12500371E+03</pdfrwt>
<pdfrwt beam="1">  1       -4 0.50440847E-01 0.12500371E+03</pdfrwt>
<totfact> 0.70857835E+03</totfact>
</mgrwt>
</event>
<event>
 5    1  0.3330238E-002  0.1249974E+03  0.7818608E-02  0.1235073E+00
         -4   -1    0    0    0  501 -0.00000000000E+00  0.00000000000E+00  0.26444782285E+03  0.26445087239E+03  0.12700000000E+01 0. -1.
          4   -1    0    0  501    0  0.00000000000E+00 -0.00000000000E+00 -0.14740280467E+02  0.14794889937E+02  0.12700000000E+01 0. -1.
         25    2    1    2    0    0  0.00000000000E+00  0.00000000000E+00  0.24970754238E+03  0.27924576233E+03  0.12499735620E+03 0.  0.
    9000005    1    3    3    0    0  0.30039241787E+02 -0.78552315004E+01  0.37005258302E+01  0.31285053947E+02  0.10000000000E+01 0.  0.
    9000005    1    3    3    0    0 -0.30039241787E+02  0.78552315004E+01  0.24600701655E+03  0.24796070838E+03  0.10000000000E+01 0.  0.
<mgrwt>
<rscale>  0 0.12499736E+03</rscale>
<asrwt>0</asrwt>
<pdfrwt beam="2">  1        4 0.22721706E-02 0.12499736E+03</pdfrwt>
<pdfrwt beam="1">  1       -4 0.40688718E-01 0.12499736E+03</pdfrwt>
<totfact> 0.78282815E+03</totfact>
</mgrwt>
</event>
<event>
 5    1  0.3330238E-002  0.1250062E+03  0.7818608E-02  0.1235060E+00
          4   -1    0    0  501    0  0.00000000000E+00  0.00000000000E+00  0.73448626065E+01  0.74538518035E+01  0.12700000000E+01 0.  1.
         -4   -1    0    0    0  501 -0.00000000000E+00 -0.00000000000E+00 -0.52786031454E+03  0.52786184231E+03  0.12700000000E+01 0.  1.
         25    2    1    2    0    0  0.00000000000E+00  0.00000000000E+00 -0.52051545194E+03  0.53531569411E+03  0.12500622649E+03 0.  0.
    9000005    1    3    3    0    0  0.27401870661E+02 -0.13447541537E+02 -0.49378867907E+03  0.49473220884E+03  0.10000000000E+01 0.  0.
    9000005    1    3    3    0    0 -0.27401870661E+02  0.13447541537E+02 -0.26726772870E+02  0.40583485276E+02  0.10000000000E+01 0.  0.
<mgrwt>
<rscale>  0 0.12500623E+03</rscale>
<asrwt>0</asrwt>
<pdfrwt beam="1">  1        4 0.11384806E-02 0.12500623E+03</pdfrwt>
<pdfrwt beam="2">  1       -4 0.81217751E-01 0.12500623E+03</pdfrwt>
<totfact> 0.53217503E+03</totfact>
</mgrwt>
</event>
<event>
 5    1  0.3330238E-002  0.1249988E+03  0.7818608E-02  0.1235071E+00
         -4   -1    0    0    0  501 -0.00000000000E+00  0.00000000000E+00  0.52614699071E+02  0.52630024305E+02  0.12700000000E+01 0. -1.
          4   -1    0    0  501    0  0.00000000000E+00 -0.00000000000E+00 -0.74209573498E+02  0.74220439899E+02  0.12700000000E+01 0. -1.
         25    2    1    2    0    0  0.00000000000E+00  0.00000000000E+00 -0.21594874427E+02  0.12685046420E+03  0.12499880666E+03 0.  0.
    9000005    1    3    3    0    0  0.37341306604E+02  0.50062549789E+02 -0.86343495170E+01  0.63056990587E+02  0.10000000000E+01 0.  0.
    9000005    1    3    3    0    0 -0.37341306604E+02 -0.50062549789E+02 -0.12960524910E+02  0.63793473617E+02  0.10000000000E+01 0.  0.
<mgrwt>
<rscale>  0 0.12499881E+03</rscale>
<asrwt>0</asrwt>
<pdfrwt beam="2">  1        4 0.11418872E-01 0.12499881E+03</pdfrwt>
<pdfrwt beam="1">  1       -4 0.80965838E-02 0.12499881E+03</pdfrwt>
<totfact> 0.10412677E+04</totfact>
</mgrwt>
</event>
<event>
 5    1  0.3330238E-002  0.1249992E+03  0.7818608E-02  0.1235071E+00
          4   -1    0    0  501    0  0.00000000000E+00  0.00000000000E+00  0.24006745801E+02  0.24040314972E+02  0.12700000000E+01 0. -1.
         -4   -1    0    0    0  501 -0.00000000000E+00 -0.00000000000E+00 -0.16256275107E+03  0.16256771185E+03  0.12700000000E+01 0. -1.
         25    2    1    2    0    0  0.00000000000E+00  0.00000000000E+00 -0.13855600527E+03  0.18660802682E+03  0.12499915631E+03 0.  0.
    9000005    1    3    3    0    0 -0.45157639916E+02  0.65747965082E+01 -0.13301441468E+03  0.14062814407E+03  0.10000000000E+01 0.  0.
    9000005    1    3    3    0    0  0.45157639916E+02 -0.65747965082E+01 -0.55415905961E+01  0.45979882756E+02  0.10000000000E+01 0.  0.
<mgrwt>
<rscale>  0 0.12499916E+03</rscale>
<asrwt>0</asrwt>
<pdfrwt beam="1">  1        4 0.36963095E-02 0.12499916E+03</pdfrwt>
<pdfrwt beam="2">  1       -4 0.25012617E-01 0.12499916E+03</pdfrwt>
<totfact> 0.92442627E+03</totfact>
</mgrwt>
</event>
<event>
 5    1  0.3330238E-002  0.1250498E+03  0.7818608E-02  0.1234991E+00
         -4   -1    0    0    0  501 -0.00000000000E+00  0.00000000000E+00  0.37849491642E+01  0.39923351783E+01  0.12700000000E+01 0.  1.
          4   -1    0    0  501    0  0.00000000000E+00 -0.00000000000E+00 -0.10051214593E+04  0.10051222616E+04  0.12700000000E+01 0.  1.
         25    2    1    2    0    0  0.00000000000E+00  0.00000000000E+00 -0.10013365101E+04  0.10091145968E+04  0.12504984199E+03 0.  0.
    9000005    1    3    3    0    0 -0.42390289342E+02 -0.38079416653E+02 -0.70820032357E+03  0.71048974441E+03  0.10000000000E+01 0.  0.
    9000005    1    3    3    0    0  0.42390289342E+02  0.38079416653E+02 -0.29313618652E+03  0.29862485237E+03  0.10000000000E+01 0.  0.
<mgrwt>
<rscale>  0 0.12504984E+03</rscale>
<asrwt>0</asrwt>
<pdfrwt beam="2">  1        4 0.15464988E+00 0.12504984E+03</pdfrwt>
<pdfrwt beam="1">  1       -4 0.59831516E-03 0.12504984E+03</pdfrwt>
<totfact> 0.30272531E+03</totfact>
</mgrwt>
</event>
<event>
 5    1  0.3330238E-002  0.1250024E+03  0.7818608E-02  0.1235066E+00
         -4   -1    0    0    0  501 -0.00000000000E+00  0.00000000000E+00  0.38813609460E+03  0.38813817235E+03  0.12700000000E+01 0. -1.
          4   -1    0    0  501    0  0.00000000000E+00 -0.00000000000E+00 -0.10022326695E+02  0.10102471597E+02  0.12700000000E+01 0. -1.
         25    2    1    2    0    0  0.00000000000E+00  0.00000000000E+00  0.37811376791E+03  0.39824064394E+03  0.12500235601E+03 0.  0.
    9000005    1    3    3    0    0 -0.44402875655E+02  0.23777336212E+02  0.71204840795E+02  0.87224460080E+02  0.10000000000E+01 0.  0.
    9000005    1    3    3    0    0  0.44402875655E+02 -0.23777336212E+02  0.30690892711E+03  0.31101618386E+03  0.10000000000E+01 0.  0.
<mgrwt>
<rscale>  0 0.12500236E+03</rscale>
<asrwt>0</asrwt>
<pdfrwt beam="2">  1        4 0.15482211E-02 0.12500236E+03</pdfrwt>
<pdfrwt beam="1">  1       -4 0.59719574E-01 0.12500236E+03</pdfrwt>
<totfact> 0.64720892E+03</totfact>
</mgrwt>
</event>
<event>
 5    1  0.3330238E-002  0.1250035E+03  0.7818608E-02  0.1235064E+00
          4   -1    0    0  501    0  0.00000000000E+00  0.00000000000E+00  0.14239308393E+03  0.14239874737E+03  0.12700000000E+01 0.  1.
         -4   -1    0    0    0  501 -0.00000000000E+00 -0.00000000000E+00 -0.27413508124E+02  0.27442910335E+02  0.12700000000E+01 0.  1.
         25    2    1    2    0    0  0.00000000000E+00  0.00000000000E+00  0.11497957581E+03  0.16984165770E+03  0.12500354330E+03 0.  0.
    9000005    1    3    3    0    0  0.80712483355E+01  0.53163434621E+02  0.10075468299E+03  0.11421034093E+03  0.10000000000E+01 0.  0.
    9000005    1    3    3    0    0 -0.80712483355E+01 -0.53163434621E+02  0.14224892819E+02  0.55631316774E+02  0.10000000000E+01 0.  0.
<mgrwt>
<rscale>  0 0.12500354E+03</rscale>
<asrwt>0</asrwt>
<pdfrwt beam="1">  1        4 0.21909326E-01 0.12500354E+03</pdfrwt>
<pdfrwt beam="2">  1       -4 0.42201601E-02 0.12500354E+03</pdfrwt>
<totfact> 0.95470564E+03</totfact>
</mgrwt>
</event>
<event>
 5    1  0.3330238E-002  0.1250003E+03  0.7818608E-02  0.1235069E+00
         -4   -1    0    0    0  501 -0.00000000000E+00  0.00000000000E+00  0.97172714028E+01  0.97999114035E+01  0.12700000000E+01 0. -1.
          4   -1    0    0  501    0  0.00000000000E+00 -0.00000000000E+00 -0.40020640835E+03  0.40020842343E+03  0.12700000000E+01 0. -1.
         25    2    1    2    0    0  0.00000000000E+00  0.00000000000E+00 -0.39048913695E+03  0.41000833483E+03  0.12500027424E+03 0.  0.
    9000005    1    3    3    0    0 -0.33362018663E+02  0.24860598343E+01 -0.36837648468E+03  0.36989382158E+03  0.10000000000E+01 0.  0.
    9000005    1    3    3    0    0  0.33362018663E+02 -0.24860598343E+01 -0.22112652268E+02  0.40114513248E+02  0.10000000000E+01 0.  0.
<mgrwt>
<rscale>  0 0.12500027E+03</rscale>
<asrwt>0</asrwt>
<pdfrwt beam="2">  1        4 0.61576716E-01 0.12500027E+03</pdfrwt>
<pdfrwt beam="1">  1       -4 0.15014771E-02 0.12500027E+03</pdfrwt>
<totfact> 0.63590514E+03</totfact>
</mgrwt>
</event>
<event>
 5    1  0.3330238E-002  0.1250012E+03  0.7818608E-02  0.1235067E+00
          4   -1    0    0  501    0  0.00000000000E+00  0.00000000000E+00  0.68355580877E+01  0.69525358230E+01  0.12700000000E+01 0. -1.
         -4   -1    0    0    0  501 -0.00000000000E+00 -0.00000000000E+00 -0.56650517740E+03  0.56650660095E+03  0.12700000000E+01 0. -1.
         25    2    1    2    0    0  0.00000000000E+00  0.00000000000E+00 -0.55966961931E+03  0.57345913677E+03  0.12500119507E+03 0.  0.
    9000005    1    3    3    0    0 -0.37412043369E+02 -0.33588440577E+02 -0.10956759968E+03  0.12055663909E+03  0.10000000000E+01 0.  0.
    9000005    1    3    3    0    0  0.37412043369E+02  0.33588440577E+02 -0.45010201963E+03  0.45290249768E+03  0.10000000000E+01 0.  0.
<mgrwt>
<rscale>  0 0.12500120E+03</rscale>
<asrwt>0</asrwt>
<pdfrwt beam="1">  1        4 0.10607326E-02 0.12500120E+03</pdfrwt>
<pdfrwt beam="2">  1       -4 0.87163714E-01 0.12500120E+03</pdfrwt>
<totfact> 0.50585669E+03</totfact>
</mgrwt>
</event>
<event>
 5    1  0.3330238E-002  0.1250082E+03  0.7818608E-02  0.1235057E+00
          4   -1    0    0  501    0  0.00000000000E+00  0.00000000000E+00  0.44105703121E+03  0.44105885966E+03  0.12700000000E+01 0. -1.
         -4   -1    0    0    0  501 -0.00000000000E+00 -0.00000000000E+00 -0.88103442544E+01  0.89014080841E+01  0.12700000000E+01 0. -1.
         25    2    1    2    0    0  0.00000000000E+00  0.00000000000E+00  0.43224668696E+03  0.44996026774E+03  0.12500817637E+03 0.  0.
    9000005    1    3    3    0    0  0.44915681440E+02 -0.11013864827E+02  0.36743020236E+03  0.37033049734E+03  0.10000000000E+01 0.  0.
    9000005    1    3    3    0    0 -0.44915681440E+02  0.11013864827E+02  0.64816484597E+02  0.79629770395E+02  0.10000000000E+01 0.  0.
<mgrwt>
<rscale>  0 0.12500818E+03</rscale>
<asrwt>0</asrwt>
<pdfrwt beam="1">  1        4 0.67862083E-01 0.12500818E+03</pdfrwt>
<pdfrwt beam="2">  1       -4 0.13625829E-02 0.12500818E+03</pdfrwt>
<totfact> 0.59956430E+03</totfact>
</mgrwt>
</event>
<event>
 5    1  0.3330238E-002  0.1250014E+03  0.7818608E-02  0.1235067E+00
         -4   -1    0    0    0  501 -0.00000000000E+00  0.00000000000E+00  0.52204540434E+02  0.52219986039E+02  0.12700000000E+01 0.  1.
          4   -1    0    0  501    0  0.00000000000E+00 -0.00000000000E+00 -0.74795634877E+02  0.74806416147E+02  0.12700000000E+01 0.  1.
         25    2    1    2    0    0  0.00000000000E+00  0.00000000000E+00 -0.22591094444E+02  0.12702640219E+03  0.12500139721E+03 0.  0.
    9000005    1    3    3    0    0 -0.48008509528E+02 -0.39970807076E+02 -0.13012570364E+02  0.63818566208E+02  0.10000000000E+01 0.  0.
    9000005    1    3    3    0    0  0.48008509528E+02  0.39970807076E+02 -0.95785240792E+01  0.63207835977E+02  0.10000000000E+01 0.  0.
<mgrwt>
<rscale>  0 0.12500140E+03</rscale>
<asrwt>0</asrwt>
<pdfrwt beam="2">  1        4 0.11509038E-01 0.12500140E+03</pdfrwt>
<pdfrwt beam="1">  1       -4 0.80334852E-02 0.12500140E+03</pdfrwt>
<totfact> 0.10408244E+04</totfact>
</mgrwt>
</event>
<event>
 5    1  0.3330238E-002  0.1250004E+03  0.7818608E-02  0.1235069E+00
         -4   -1    0    0    0  501 -0.00000000000E+00  0.00000000000E+00  0.13585986863E+04  0.13585992799E+04  0.12700000000E+01 0. -1.
          4   -1    0    0  501    0  0.00000000000E+00 -0.00000000000E+00 -0.27343581713E+01  0.30148987726E+01  0.12700000000E+01 0. -1.
         25    2    1    2    0    0  0.00000000000E+00  0.00000000000E+00  0.13558643281E+04  0.13616141787E+04  0.12500038097E+03 0.  0.
    9000005    1    3    3    0    0  0.10329797511E+02  0.22206152164E+02  0.51666773030E+02  0.57186303831E+02  0.10000000000E+01 0.  0.
    9000005    1    3    3    0    0 -0.10329797511E+02 -0.22206152164E+02  0.13041975551E+04  0.13044278748E+04  0.10000000000E+01 0.  0.
<mgrwt>
<rscale>  0 0.12500038E+03</rscale>
<asrwt>0</asrwt>
<pdfrwt beam="2">  1        4 0.44229724E-03 0.12500038E+03</pdfrwt>
<pdfrwt beam="1">  1       -4 0.20903632E+00 0.12500038E+03</pdfrwt>
<totfact> 0.20819139E+03</totfact>
</mgrwt>
</event>
<event>
 5    1  0.3330238E-002  0.1249976E+03  0.7818608E-02  0.1235073E+00
          4   -1    0    0  501    0  0.00000000000E+00  0.00000000000E+00  0.72046557846E+02  0.72057750433E+02  0.12700000000E+01 0.  1.
         -4   -1    0    0    0  501 -0.00000000000E+00 -0.00000000000E+00 -0.54193485788E+02  0.54208364685E+02  0.12700000000E+01 0.  1.
         25    2    1    2    0    0  0.00000000000E+00  0.00000000000E+00  0.17853072058E+02  0.12626611512E+03  0.12499759856E+03 0.  0.
    9000005    1    3    3    0    0  0.18947637143E+02 -0.37439863399E+02  0.55703532846E+02  0.69746970516E+02  0.10000000000E+01 0.  0.
    9000005    1    3    3    0    0 -0.18947637143E+02  0.37439863399E+02 -0.37850460788E+02  0.56519144602E+02  0.10000000000E+01 0.  0.
<mgrwt>
<rscale>  0 0.12499760E+03</rscale>
<asrwt>0</asrwt>
<pdfrwt beam="1">  1        4 0.11086091E-01 0.12499760E+03</pdfrwt>
<pdfrwt beam="2">  1       -4 0.83394648E-02 0.12499760E+03</pdfrwt>
<totfact> 0.10425699E+04</totfact>
</mgrwt>
</event>
<event>
 5    1  0.3330238E-002  0.1249998E+03  0.7818608E-02  0.1235070E+00
         -4   -1    0    0    0  501 -0.00000000000E+00  0.00000000000E+00  0.32004978379E+02  0.32030166110E+02  0.12700000000E+01 0.  1.
          4   -1    0    0  501    0  0.00000000000E+00 -0.00000000000E+00 -0.12197438198E+03  0.12198099343E+03  0.12700000000E+01 0.  1.
         25    2    1    2    0    0  0.00000000000E+00  0.00000000000E+00 -0.89969403598E+02  0.15401115954E+03  0.12499977472E+03 0.  0.
    9000005    1    3    3    0    0 -0.53107371266E+02  0.31295626182E+02 -0.57635517007E+02  0.84395864363E+02  0.10000000000E+01 0.  0.
    9000005    1    3    3    0    0  0.53107371266E+02 -0.31295626182E+02 -0.32333886590E+02  0.69615295179E+02  0.10000000000E+01 0.  0.
<mgrwt>
<rscale>  0 0.12499977E+03</rscale>
<asrwt>0</asrwt>
<pdfrwt beam="2">  1        4 0.18767735E-01 0.12499977E+03</pdfrwt>
<pdfrwt beam="1">  1       -4 0.49262890E-02 0.12499977E+03</pdfrwt>
<totfact> 0.98510470E+03</totfact>
</mgrwt>
</event>
<event>
 5    1  0.3330238E-002  0.1250015E+03  0.7818608E-02  0.1235067E+00
          4   -1    0    0  501    0  0.00000000000E+00  0.00000000000E+00  0.13996068121E+02  0.14053569754E+02  0.12700000000E+01 0. -1.
         -4   -1    0    0    0  501 -0.00000000000E+00 -0.00000000000E+00 -0.27847188668E+03  0.27847478264E+03  0.12700000000E+01 0. -1.
         25    2    1    2    0    0  0.00000000000E+00  0.00000000000E+00 -0.26447581855E+03  0.29252835240E+03  0.12500151342E+03 0.  0.
    9000005    1    3    3    0    0 -0.34993099857E+02  0.45896863450E+02 -0.18831999708E+03  0.19696817106E+03  0.10000000000E+01 0.  0.
    9000005    1    3    3    0    0  0.34993099857E+02 -0.45896863450E+02 -0.76155821479E+02  0.95560181337E+02  0.10000000000E+01 0.  0.
<mgrwt>
<rscale>  0 0.12500151E+03</rscale>
<asrwt>0</asrwt>
<pdfrwt beam="1">  1        4 0.21578874E-02 0.12500151E+03</pdfrwt>
<pdfrwt beam="2">  1       -4 0.42846471E-01 0.12500151E+03</pdfrwt>
<totfact> 0.76543158E+03</totfact>
</mgrwt>
</event>
<event>
 5    1  0.3330238E-002  0.1249942E+03  0.7818608E-02  0.1235078E+00
          4   -1    0    0  501    0  0.00000000000E+00  0.00000000000E+00  0.30126668993E+02  0.30153425753E+02  0.12700000000E+01 0.  1.
         -4   -1    0    0    0  501 -0.00000000000E+00 -0.00000000000E+00 -0.12956151801E+03  0.12956774232E+03  0.12700000000E+01 0.  1.
         25    2    1    2    0    0  0.00000000000E+00  0.00000000000E+00 -0.99434849015E+02  0.15972116807E+03  0.12499424919E+03 0.  0.
    9000005    1    3    3    0    0 -0.61729307966E+02 -0.51078456305E+01 -0.39157504020E+02  0.73286476720E+02  0.10000000000E+01 0.  0.
    9000005    1    3    3    0    0  0.61729307966E+02  0.51078456305E+01 -0.60277344995E+02  0.86434691349E+02  0.10000000000E+01 0.  0.
<mgrwt>
<rscale>  0 0.12499425E+03</rscale>
<asrwt>0</asrwt>
<pdfrwt beam="1">  1        4 0.46374092E-02 0.12499425E+03</pdfrwt>
<pdfrwt beam="2">  1       -4 0.19935078E-01 0.12499425E+03</pdfrwt>
<totfact> 0.97409160E+03</totfact>
</mgrwt>
</event>
<event>
 5    1  0.3330238E-002  0.1250027E+03  0.7818608E-02  0.1235065E+00
         -4   -1    0    0    0  501 -0.00000000000E+00  0.00000000000E+00  0.18888268689E+02  0.18930916356E+02  0.12700000000E+01 0.  1.
          4   -1    0    0  501    0  0.00000000000E+00 -0.00000000000E+00 -0.20653929269E+03  0.20654319723E+03  0.12700000000E+01 0.  1.
         25    2    1    2    0    0  0.00000000000E+00  0.00000000000E+00 -0.18765102400E+03  0.22547411359E+03  0.12500267634E+03 0.  0.
    9000005    1    3    3    0    0 -0.26039439084E+01 -0.55504458650E+02 -0.14541073459E+03  0.15566890244E+03  0.10000000000E+01 0.  0.
    9000005    1    3    3    0    0  0.26039439084E+01  0.55504458650E+02 -0.42240289407E+02  0.69805211145E+02  0.10000000000E+01 0.  0.
<mgrwt>
<rscale>  0 0.12500268E+03</rscale>
<asrwt>0</asrwt>
<pdfrwt beam="2">  1        4 0.31778855E-01 0.12500268E+03</pdfrwt>
<pdfrwt beam="1">  1       -4 0.29094686E-02 0.12500268E+03</pdfrwt>
<totfact> 0.86004294E+03</totfact>
</mgrwt>
</event>
<event>
 5    1  0.3330238E-002  0.1250031E+03  0.7818608E-02  0.1235064E+00
          4   -1    0    0  501    0  0.00000000000E+00  0.00000000000E+00  0.77843201751E+02  0.77853560990E+02  0.12700000000E+01 0.  1.
         -4   -1    0    0    0  501 -0.00000000000E+00 -0.00000000000E+00 -0.50161793119E+02  0.50177867521E+02  0.12700000000E+01 0.  1.
         25    2    1    2    0    0  0.00000000000E+00  0.00000000000E+00  0.27681408632E+02  0.12803142851E+03  0.12500314517E+03 0.  0.
    9000005    1    3    3    0    0  0.37801239560E+01  0.67415654911E+01  0.77356805780E+02  0.77748398330E+02  0.10000000000E+01 0.  0.
    9000005    1    3    3    0    0 -0.37801239560E+01 -0.67415654911E+01 -0.49675397148E+02  0.50283030181E+02  0.10000000000E+01 0.  0.
<mgrwt>
<rscale>  0 0.12500315E+03</rscale>
<asrwt>0</asrwt>
<pdfrwt beam="1">  1        4 0.11977910E-01 0.12500315E+03</pdfrwt>
<pdfrwt beam="2">  1       -4 0.77192324E-02 0.12500315E+03</pdfrwt>
<totfact> 0.10386071E+04</totfact>
</mgrwt>
</event>
<event>
 5    1  0.3330238E-002  0.1249926E+03  0.7818608E-02  0.1235081E+00
          4   -1    0    0  501    0  0.00000000000E+00  0.00000000000E+00  0.12780512224E+03  0.12781143208E+03  0.12700000000E+01 0. -1.
         -4   -1    0    0    0  501 -0.00000000000E+00 -0.00000000000E+00 -0.30540240716E+02  0.30566635454E+02  0.12700000000E+01 0. -1.
         25    2    1    2    0    0  0.00000000000E+00  0.00000000000E+00  0.97264881524E+02  0.15837806754E+03  0.12499262018E+03 0.  0.
    9000005    1    3    3    0    0 -0.59764632909E+02  0.16727197431E+02  0.39392315312E+02  0.73514386254E+02  0.10000000000E+01 0.  0.
    9000005    1    3    3    0    0  0.59764632909E+02 -0.16727197431E+02  0.57872566213E+02  0.84863681282E+02  0.10000000000E+01 0.  0.
<mgrwt>
<rscale>  0 0.12499262E+03</rscale>
<asrwt>0</asrwt>
<pdfrwt beam="1">  1        4 0.19664842E-01 0.12499262E+03</pdfrwt>
<pdfrwt beam="2">  1       -4 0.47010143E-02 0.12499262E+03</pdfrwt>
<totfact> 0.97672599E+03</totfact>
</mgrwt>
</event>
<event>
 5    1  0.3330238E-002  0.1250041E+03  0.7818608E-02  0.1235063E+00
          4   -1    0    0  501    0  0.00000000000E+00  0.00000000000E+00  0.10636086339E+03  0.10636844533E+03  0.12700000000E+01 0.  1.
         -4   -1    0    0    0  501 -0.00000000000E+00 -0.00000000000E+00 -0.36708910909E+02  0.36730873120E+02  0.12700000000E+01 0.  1.
         25    2    1    2    0    0  0.00000000000E+00  0.00000000000E+00  0.69651952484E+02  0.14309931845E+03  0.12500408176E+03 0.  0.
    9000005    1    3    3    0    0  0.43009009115E+01  0.58861163713E+02  0.11299314977E+02  0.60098326609E+02  0.10000000000E+01 0.  0.
    9000005    1    3    3    0    0 -0.43009009115E+01 -0.58861163713E+02  0.58352637507E+02  0.83000991839E+02  0.10000000000E+01 0.  0.
<mgrwt>
<rscale>  0 0.12500408E+03</rscale>
<asrwt>0</asrwt>
<pdfrwt beam="1">  1        4 0.16365482E-01 0.12500408E+03</pdfrwt>
<pdfrwt beam="2">  1       -4 0.56497975E-02 0.12500408E+03</pdfrwt>
<totfact> 0.10068824E+04</totfact>
</mgrwt>
</event>
<event>
 5    1  0.3330238E-002  0.1250004E+03  0.7818608E-02  0.1235069E+00
         -4   -1    0    0    0  501 -0.00000000000E+00  0.00000000000E+00  0.72845456915E+03  0.72845567622E+03  0.12700000000E+01 0.  1.
          4   -1    0    0  501    0  0.00000000000E+00 -0.00000000000E+00 -0.52860923630E+01  0.54365128961E+01  0.12700000000E+01 0.  1.
         25    2    1    2    0    0  0.00000000000E+00  0.00000000000E+00  0.72316847679E+03  0.73389218911E+03  0.12500039770E+03 0.  0.
    9000005    1    3    3    0    0 -0.55702284011E+01 -0.46024084521E+01 -0.28540954695E+01  0.78329731870E+01  0.10000000000E+01 0.  0.
    9000005    1    3    3    0    0  0.55702284011E+01  0.46024084521E+01  0.72602257226E+03  0.72605921593E+03  0.10000000000E+01 0.  0.
<mgrwt>
<rscale>  0 0.12500040E+03</rscale>
<asrwt>0</asrwt>
<pdfrwt beam="2">  1        4 0.82490113E-03 0.12500040E+03</pdfrwt>
<pdfrwt beam="1">  1       -4 0.11208157E+00 0.12500040E+03</pdfrwt>
<totfact> 0.41356326E+03</totfact>
</mgrwt>
</event>
<event>
 5    1  0.3330238E-002  0.1249955E+03  0.7818608E-02  0.1235076E+00
         -4   -1    0    0    0  501 -0.00000000000E+00  0.00000000000E+00  0.11017990429E+02  0.11090942840E+02  0.12700000000E+01 0. -1.
          4   -1    0    0  501    0  0.00000000000E+00 -0.00000000000E+00 -0.35326436516E+03  0.35326664801E+03  0.12700000000E+01 0. -1.
         25    2    1    2    0    0  0.00000000000E+00  0.00000000000E+00 -0.34224637474E+03  0.36435759085E+03  0.12499549188E+03 0.  0.
    9000005    1    3    3    0    0 -0.18467331187E+02 -0.48430131970E+02 -0.27287379585E+03  0.27775461916E+03  0.10000000000E+01 0.  0.
    9000005    1    3    3    0    0  0.18467331187E+02  0.48430131970E+02 -0.69372578883E+02  0.86602971685E+02  0.10000000000E+01 0.  0.
<mgrwt>
<rscale>  0 0.12499549E+03</rscale>
<asrwt>0</asrwt>
<pdfrwt beam="2">  1        4 0.54354143E-01 0.12499549E+03</pdfrwt>
<pdfrwt beam="1">  1       -4 0.17008630E-02 0.12499549E+03</pdfrwt>
<totfact> 0.68180200E+03</totfact>
</mgrwt>
</event>
<event>
 5    1  0.3330238E-002  0.1250011E+03  0.7818608E-02  0.1235068E+00
          4   -1    0    0  501    0  0.00000000000E+00  0.00000000000E+00  0.15300455264E+01  0.19884514862E+01  0.12700000000E+01 0.  1.
         -4   -1    0    0    0  501 -0.00000000000E+00 -0.00000000000E+00 -0.22199880634E+04  0.22199884267E+04  0.12700000000E+01 0.  1.
         25    2    1    2    0    0  0.00000000000E+00  0.00000000000E+00 -0.22184580179E+04  0.22219768782E+04  0.12500107993E+03 0.  0.
    9000005    1    3    3    0    0 -0.14687981704E+02 -0.33426809675E+02 -0.20769815919E+03  0.21088530945E+03  0.10000000000E+01 0.  0.
    9000005    1    3    3    0    0  0.14687981704E+02  0.33426809675E+02 -0.20107598587E+04  0.20110915687E+04  0.10000000000E+01 0.  0.
<mgrwt>
<rscale>  0 0.12500108E+03</rscale>
<asrwt>0</asrwt>
<pdfrwt beam="1">  1        4 0.27068334E-03 0.12500108E+03</pdfrwt>
<pdfrwt beam="2">  1       -4 0.34156967E+00 0.12500108E+03</pdfrwt>
<totfact> 0.72350454E+02</totfact>
</mgrwt>
</event>
<event>
 5    1  0.3330238E-002  0.1250010E+03  0.7818608E-02  0.1235068E+00
          4   -1    0    0  501    0  0.00000000000E+00  0.00000000000E+00  0.15828376172E+03  0.15828885660E+03  0.12700000000E+01 0.  1.
         -4   -1    0    0    0  501 -0.00000000000E+00 -0.00000000000E+00 -0.24657335754E+02  0.24690020382E+02  0.12700000000E+01 0.  1.
         25    2    1    2    0    0  0.00000000000E+00  0.00000000000E+00  0.13362642596E+03  0.18297887698E+03  0.12500099082E+03 0.  0.
    9000005    1    3    3    0    0  0.74696428064E+01  0.60201723468E+02  0.44842807240E+02  0.75444817141E+02  0.10000000000E+01 0.  0.
    9000005    1    3    3    0    0 -0.74696428064E+01 -0.60201723468E+02  0.88783618723E+02  0.10753405984E+03  0.10000000000E+01 0.  0.
<mgrwt>
<rscale>  0 0.12500099E+03</rscale>
<asrwt>0</asrwt>
<pdfrwt beam="1">  1        4 0.24354254E-01 0.12500099E+03</pdfrwt>
<pdfrwt beam="2">  1       -4 0.37963424E-02 0.12500099E+03</pdfrwt>
<totfact> 0.93081460E+03</totfact>
</mgrwt>
</event>
<event>
 5    1  0.3330238E-002  0.1250026E+03  0.7818608E-02  0.1235065E+00
         -4   -1    0    0    0  501 -0.00000000000E+00  0.00000000000E+00  0.14013478911E+03  0.14014054381E+03  0.12700000000E+01 0.  1.
          4   -1    0    0  501    0  0.00000000000E+00 -0.00000000000E+00 -0.27855327250E+02  0.27884263595E+02  0.12700000000E+01 0.  1.
         25    2    1    2    0    0  0.00000000000E+00  0.00000000000E+00  0.11227946186E+03  0.16802480741E+03  0.12500263336E+03 0.  0.
    9000005    1    3    3    0    0 -0.25116690960E+02  0.12437127151E+02 -0.18940134884E+02  0.33841675579E+02  0.10000000000E+01 0.  0.
    9000005    1    3    3    0    0  0.25116690960E+02 -0.12437127151E+02  0.13121959675E+03  0.13418313183E+03  0.10000000000E+01 0.  0.
<mgrwt>
<rscale>  0 0.12500263E+03</rscale>
<asrwt>0</asrwt>
<pdfrwt beam="2">  1        4 0.42881036E-02 0.12500263E+03</pdfrwt>
<pdfrwt beam="1">  1       -4 0.21561866E-01 0.12500263E+03</pdfrwt>
<totfact> 0.95811923E+03</totfact>
</mgrwt>
</event>
<event>
 5    1  0.3330238E-002  0.1249985E+03  0.7818608E-02  0.1235072E+00
          4   -1    0    0  501    0  0.00000000000E+00  0.00000000000E+00  0.16431528457E+04  0.16431533365E+04  0.12700000000E+01 0.  1.
         -4   -1    0    0    0  501 -0.00000000000E+00 -0.00000000000E+00 -0.22070865151E+01  0.25463956655E+01  0.12700000000E+01 0.  1.
         25    2    1    2    0    0  0.00000000000E+00  0.00000000000E+00  0.16409457592E+04  0.16456997321E+04  0.12499849536E+03 0.  0.
    9000005    1    3    3    0    0 -0.16871818031E+02  0.58507752085E+02  0.10054227812E+04  0.10072654984E+04  0.10000000000E+01 0.  0.
    9000005    1    3    3    0    0  0.16871818031E+02 -0.58507752085E+02  0.63552297795E+03  0.63843423373E+03  0.10000000000E+01 0.  0.
<mgrwt>
<rscale>  0 0.12499850E+03</rscale>
<asrwt>0</asrwt>
<pdfrwt beam="1">  1        4 0.25281952E+00 0.12499850E+03</pdfrwt>
<pdfrwt beam="2">  1       -4 0.36568930E-03 0.12499850E+03</pdfrwt>
<totfact> 0.15234712E+03</totfact>
</mgrwt>
</event>
<event>
 5    1  0.3330238E-002  0.1249982E+03  0.7818608E-02  0.1235072E+00
         -4   -1    0    0    0  501 -0.00000000000E+00  0.00000000000E+00  0.88581755443E+01  0.89487526490E+01  0.12700000000E+01 0.  1.
          4   -1    0    0  501    0  0.00000000000E+00 -0.00000000000E+00 -0.43862980445E+03  0.43863164301E+03  0.12700000000E+01 0.  1.
         25    2    1    2    0    0  0.00000000000E+00  0.00000000000E+00 -0.42977162890E+03  0.44758039566E+03  0.12499823026E+03 0.  0.
    9000005    1    3    3    0    0  0.50598867073E+02  0.13353598749E+02 -0.33718501179E+03  0.34122323503E+03  0.10000000000E+01 0.  0.
    9000005    1    3    3    0    0 -0.50598867073E+02 -0.13353598749E+02 -0.92586617114E+02  0.10635716063E+03  0.10000000000E+01 0.  0.
<mgrwt>
<rscale>  0 0.12499823E+03</rscale>
<asrwt>0</asrwt>
<pdfrwt beam="2">  1        4 0.67488600E-01 0.12499823E+03</pdfrwt>
<pdfrwt beam="1">  1       -4 0.13699055E-02 0.12499823E+03</pdfrwt>
<totfact> 0.60176333E+03</totfact>
</mgrwt>
</event>
<event>
 5    1  0.3330238E-002  0.1249992E+03  0.7818608E-02  0.1235071E+00
          4   -1    0    0  501    0  0.00000000000E+00  0.00000000000E+00  0.35339831758E+03  0.35340059955E+03  0.12700000000E+01 0. -1.
         -4   -1    0    0    0  501 -0.00000000000E+00 -0.00000000000E+00 -0.11014445060E+02  0.11087420799E+02  0.12700000000E+01 0. -1.
         25    2    1    2    0    0  0.00000000000E+00  0.00000000000E+00  0.34238387252E+03  0.36448802035E+03  0.12499920328E+03 0.  0.
    9000005    1    3    3    0    0  0.14540010729E+02  0.18423601170E+02  0.23109337565E+01  0.23604690358E+02  0.10000000000E+01 0.  0.
    9000005    1    3    3    0    0 -0.14540010729E+02 -0.18423601170E+02  0.34007293876E+03  0.34088332999E+03  0.10000000000E+01 0.  0.
<mgrwt>
<rscale>  0 0.12499920E+03</rscale>
<asrwt>0</asrwt>
<pdfrwt beam="1">  1        4 0.54374758E-01 0.12499920E+03</pdfrwt>
<pdfrwt beam="2">  1       -4 0.17003192E-02 0.12499920E+03</pdfrwt>
<totfact> 0.68160764E+03</totfact>
</mgrwt>
</event>
<event>
 5    1  0.3330238E-002  0.1249999E+03  0.7818608E-02  0.1235069E+00
          4   -1    0    0  501    0  0.00000000000E+00  0.00000000000E+00  0.46707877607E+02  0.46725140241E+02  0.12700000000E+01 0. -1.
         -4   -1    0    0    0  501 -0.00000000000E+00 -0.00000000000E+00 -0.83593830683E+02  0.83603477370E+02  0.12700000000E+01 0. -1.
         25    2    1    2    0    0  0.00000000000E+00  0.00000000000E+00 -0.36885953076E+02  0.13032861761E+03  0.12499990014E+03 0.  0.
    9000005    1    3    3    0    0  0.25129883569E+02 -0.31467285514E+02 -0.68266528631E+02  0.79265503449E+02  0.10000000000E+01 0.  0.
    9000005    1    3    3    0    0 -0.25129883569E+02  0.31467285514E+02  0.31380575554E+02  0.51063114162E+02  0.10000000000E+01 0.  0.
<mgrwt>
<rscale>  0 0.12499990E+03</rscale>
<asrwt>0</asrwt>
<pdfrwt beam="1">  1        4 0.71878973E-02 0.12499990E+03</pdfrwt>
<pdfrwt beam="2">  1       -4 0.12862659E-01 0.12499990E+03</pdfrwt>
<totfact> 0.10337506E+04</totfact>
</mgrwt>
</event>
<event>
 5    1  0.3330238E-002  0.1250006E+03  0.7818608E-02  0.1235068E+00
         -4   -1    0    0    0  501 -0.00000000000E+00  0.00000000000E+00  0.28246191338E+03  0.28246476844E+03  0.12700000000E+01 0. -1.
          4   -1    0    0  501    0  0.00000000000E+00 -0.00000000000E+00 -0.13797338704E+02  0.13855665098E+02  0.12700000000E+01 0. -1.
         25    2    1    2    0    0  0.00000000000E+00  0.00000000000E+00  0.26866457467E+03  0.29632043353E+03  0.12500058258E+03 0.  0.
    9000005    1    3    3    0    0 -0.60165349913E+02  0.16511965956E+01  0.94475226361E+02  0.11202305199E+03  0.10000000000E+01 0.  0.
    9000005    1    3    3    0    0  0.60165349913E+02 -0.16511965956E+01  0.17418934831E+03  0.18429738155E+03  0.10000000000E+01 0.  0.
<mgrwt>
<rscale>  0 0.12500058E+03</rscale>
<asrwt>0</asrwt>
<pdfrwt beam="2">  1        4 0.21273738E-02 0.12500058E+03</pdfrwt>
<pdfrwt beam="1">  1       -4 0.43460385E-01 0.12500058E+03</pdfrwt>
<totfact> 0.76061742E+03</totfact>
</mgrwt>
</event>
<event>
 5    1  0.3330238E-002  0.1249882E+03  0.7818608E-02  0.1235088E+00
          4   -1    0    0  501    0  0.00000000000E+00  0.00000000000E+00  0.11301269757E+01  0.17000255825E+01  0.12700000000E+01 0.  1.
         -4   -1    0    0    0  501 -0.00000000000E+00 -0.00000000000E+00 -0.27593594857E+04  0.27593597780E+04  0.12700000000E+01 0.  1.
         25    2    1    2    0    0  0.00000000000E+00  0.00000000000E+00 -0.27582293587E+04  0.27610598035E+04  0.12498817307E+03 0.  0.
    9000005    1    3    3    0    0 -0.20134935821E+02 -0.58079157124E+02 -0.11312404670E+04  0.11329097926E+04  0.10000000000E+01 0.  0.
    9000005    1    3    3    0    0  0.20134935821E+02  0.58079157124E+02 -0.16269888917E+04  0.16281500109E+04  0.10000000000E+01 0.  0.
<mgrwt>
<rscale>  0 0.12498817E+03</rscale>
<asrwt>0</asrwt>
<pdfrwt beam="1">  1        4 0.21772873E-03 0.12498817E+03</pdfrwt>
<pdfrwt beam="2">  1       -4 0.42455640E+00 0.12498817E+03</pdfrwt>
<totfact> 0.29286473E+02</totfact>
</mgrwt>
</event>
<event>
 5    1  0.3330238E-002  0.1250023E+03  0.7818608E-02  0.1235066E+00
         -4   -1    0    0    0  501 -0.00000000000E+00  0.00000000000E+00  0.18549530131E+04  0.18549534479E+04  0.12700000000E+01 0.  1.
          4   -1    0    0  501    0  0.00000000000E+00 -0.00000000000E+00 -0.19139804112E+01  0.22970026152E+01  0.12700000000E+01 0.  1.
         25    2    1    2    0    0  0.00000000000E+00  0.00000000000E+00  0.18530390327E+04  0.18572504505E+04  0.12500231639E+03 0.  0.
    9000005    1    3    3    0    0  0.17341241448E+01 -0.48763160732E+01  0.18518362566E+04  0.18518437588E+04  0.10000000000E+01 0.  0.
    9000005    1    3    3    0    0 -0.17341241448E+01  0.48763160732E+01  0.12027761124E+01  0.54066917215E+01  0.10000000000E+01 0.  0.
<mgrwt>
<rscale>  0 0.12500232E+03</rscale>
<asrwt>0</asrwt>
<pdfrwt beam="2">  1        4 0.32395515E-03 0.12500232E+03</pdfrwt>
<pdfrwt beam="1">  1       -4 0.28540694E+00 0.12500232E+03</pdfrwt>
<totfact> 0.11841057E+03</totfact>
</mgrwt>
</event>
<event>
 5    1  0.3330238E-002  0.1250472E+03  0.7818608E-02  0.1234995E+00
         -4   -1    0    0    0  501 -0.00000000000E+00  0.00000000000E+00  0.22130628456E+02  0.22167038952E+02  0.12700000000E+01 0.  1.
          4   -1    0    0  501    0  0.00000000000E+00 -0.00000000000E+00 -0.17645832690E+03  0.17646289704E+03  0.12700000000E+01 0.  1.
         25    2    1    2    0    0  0.00000000000E+00  0.00000000000E+00 -0.15432769845E+03  0.19862993600E+03  0.12504724294E+03 0.  0.
    9000005    1    3    3    0    0  0.36883092446E+02  0.42985536923E+02 -0.35135167691E+02  0.66660324794E+02  0.10000000000E+01 0.  0.
    9000005    1    3    3    0    0 -0.36883092446E+02 -0.42985536923E+02 -0.11919253076E+03  0.13196961120E+03  0.10000000000E+01 0.  0.
<mgrwt>
<rscale>  0 0.12504724E+03</rscale>
<asrwt>0</asrwt>
<pdfrwt beam="2">  1        4 0.27150586E-01 0.12504724E+03</pdfrwt>
<pdfrwt beam="1">  1       -4 0.34078645E-02 0.12504724E+03</pdfrwt>
<totfact> 0.90271554E+03</totfact>
</mgrwt>
</event>
<event>
 5    1  0.3330238E-002  0.1250002E+03  0.7818608E-02  0.1235069E+00
          4   -1    0    0  501    0  0.00000000000E+00  0.00000000000E+00  0.36796111924E+03  0.36796331091E+03  0.12700000000E+01 0. -1.
         -4   -1    0    0    0  501 -0.00000000000E+00 -0.00000000000E+00 -0.10575751931E+02  0.10651733610E+02  0.12700000000E+01 0. -1.
         25    2    1    2    0    0  0.00000000000E+00  0.00000000000E+00  0.35738536731E+03  0.37861504452E+03  0.12500020467E+03 0.  0.
    9000005    1    3    3    0    0  0.41867760553E+02 -0.10770078773E+01  0.38208679092E+02  0.56700727311E+02  0.10000000000E+01 0.  0.
    9000005    1    3    3    0    0 -0.41867760553E+02  0.10770078773E+01  0.31917668822E+03  0.32191431721E+03  0.10000000000E+01 0.  0.
<mgrwt>
<rscale>  0 0.12500020E+03</rscale>
<asrwt>0</asrwt>
<pdfrwt beam="1">  1        4 0.56615415E-01 0.12500020E+03</pdfrwt>
<pdfrwt beam="2">  1       -4 0.16330521E-02 0.12500020E+03</pdfrwt>
<totfact> 0.66686868E+03</totfact>
</mgrwt>
</event>
<event>
 5    1  0.3330238E-002  0.1250033E+03  0.7818608E-02  0.1235064E+00
          4   -1    0    0  501    0  0.00000000000E+00  0.00000000000E+00  0.18122675234E+02  0.18167120236E+02  0.12700000000E+01 0.  1.
         -4   -1    0    0    0  501 -0.00000000000E+00 -0.00000000000E+00 -0.21524589224E+03  0.21524963885E+03  0.12700000000E+01 0.  1.
         25    2    1    2    0    0  0.00000000000E+00  0.00000000000E+00 -0.19712321700E+03  0.23341675908E+03  0.12500328292E+03 0.  0.
    9000005    1    3    3    0    0  0.26086371228E+02 -0.47065567163E+02 -0.15789865048E+03  0.16681921412E+03  0.10000000000E+01 0.  0.
    9000005    1    3    3    0    0 -0.26086371228E+02  0.47065567163E+02 -0.39224566517E+02  0.66597544960E+02  0.10000000000E+01 0.  0.
<mgrwt>
<rscale>  0 0.12500328E+03</rscale>
<asrwt>0</asrwt>
<pdfrwt beam="1">  1        4 0.27918111E-02 0.12500328E+03</pdfrwt>
<pdfrwt beam="2">  1       -4 0.33118458E-01 0.12500328E+03</pdfrwt>
<totfact> 0.84781489E+03</totfact>
</mgrwt>
</event>
<event>
 5    1  0.3330238E-002  0.1249995E+03  0.7818608E-02  0.1235070E+00
         -4   -1    0    0    0  501 -0.00000000000E+00  0.00000000000E+00  0.25355531846E+02  0.25387317606E+02  0.12700000000E+01 0. -1.
          4   -1    0    0  501    0  0.00000000000E+00 -0.00000000000E+00 -0.15392684909E+03  0.15393208818E+03  0.12700000000E+01 0. -1.
         25    2    1    2    0    0  0.00000000000E+00  0.00000000000E+00 -0.12857131725E+03  0.17931940579E+03  0.12499946269E+03 0.  0.
    9000005    1    3    3    0    0 -0.47412097024E+02 -0.16110632253E+02 -0.10652301354E+02  0.51204794111E+02  0.10000000000E+01 0.  0.
    9000005    1    3    3    0    0  0.47412097024E+02  0.16110632253E+02 -0.11791901589E+03  0.12811461168E+03  0.10000000000E+01 0.  0.
<mgrwt>
<rscale>  0 0.12499946E+03</rscale>
<asrwt>0</asrwt>
<pdfrwt beam="2">  1        4 0.23683901E-01 0.12499946E+03</pdfrwt>
<pdfrwt beam="1">  1       -4 0.39036992E-02 0.12499946E+03</pdfrwt>
<totfact> 0.93740786E+03</totfact>
</mgrwt>
</event>
<event>
 5    1  0.3330238E-002  0.1249978E+03  0.7818608E-02  0.1235073E+00
         -4   -1    0    0    0  501 -0.00000000000E+00  0.00000000000E+00  0.19610326940E+03  0.19610738173E+03  0.12700000000E+01 0.  1.
          4   -1    0    0  501    0  0.00000000000E+00 -0.00000000000E+00 -0.19894079344E+02  0.19934575314E+02  0.12700000000E+01 0.  1.
         25    2    1    2    0    0  0.00000000000E+00  0.00000000000E+00  0.17620919005E+03  0.21604195704E+03  0.12499779416E+03 0.  0.
    9000005    1    3    3    0    0 -0.21894548251E+02 -0.54166151009E+02  0.12643260916E+03  0.13928225952E+03  0.10000000000E+01 0.  0.
    9000005    1    3    3    0    0  0.21894548251E+02  0.54166151009E+02  0.49776580894E+02  0.76759697522E+02  0.10000000000E+01 0.  0.
<mgrwt>
<rscale>  0 0.12499779E+03</rscale>
<asrwt>0</asrwt>
<pdfrwt beam="2">  1        4 0.30640591E-02 0.12499779E+03</pdfrwt>
<pdfrwt beam="1">  1       -4 0.30173164E-01 0.12499779E+03</pdfrwt>
<totfact> 0.87502872E+03</totfact>
</mgrwt>
</event>
<event>
 5    1  0.3330238E-002  0.1250022E+03  0.7818608E-02  0.1235066E+00
         -4   -1    0    0    0  501 -0.00000000000E+00  0.00000000000E+00  0.48428825294E+02  0.48445474705E+02  0.12700000000E+01 0. -1.
          4   -1    0    0  501    0  0.00000000000E+00 -0.00000000000E+00 -0.80626960224E+02  0.80636961841E+02  0.12700000000E+01 0. -1.
         25    2    1    2    0    0  0.00000000000E+00  0.00000000000E+00 -0.32198134929E+02  0.12908243655E+03  0.12500222211E+03 0.  0.
    9000005    1    3    3    0    0 -0.14556298842E+02 -0.59032950431E+02 -0.11841467533E+01  0.60820862178E+02  0.10000000000E+01 0.  0.
    9000005    1    3    3    0    0  0.14556298842E+02  0.59032950431E+02 -0.31013988176E+02  0.68261574367E+02  0.10000000000E+01 0.  0.
<mgrwt>
<rscale>  0 0.12500222E+03</rscale>
<asrwt>0</asrwt>
<pdfrwt beam="2">  1        4 0.12406198E-01 0.12500222E+03</pdfrwt>
<pdfrwt beam="1">  1       -4 0.74526386E-02 0.12500222E+03</pdfrwt>
<totfact> 0.10363656E+04</totfact>
</mgrwt>
</event>
<event>
 5    1  0.3330238E-002  0.1249781E+03  0.7818608E-02  0.1235104E+00
         -4   -1    0    0    0  501 -0.00000000000E+00  0.00000000000E+00  0.30601543529E+03  0.30601807060E+03  0.12700000000E+01 0. -1.
          4   -1    0    0  501    0  0.00000000000E+00 -0.00000000000E+00 -0.12726110018E+02  0.12789322741E+02  0.12700000000E+01 0. -1.
         25    2    1    2    0    0  0.00000000000E+00  0.00000000000E+00  0.29328932527E+03  0.31880739334E+03  0.12497810101E+03 0.  0.
    9000005    1    3    3    0    0 -0.42361801395E+02  0.39785421197E+02  0.20517556042E+03  0.21324964842E+03  0.10000000000E+01 0.  0.
    9000005    1    3    3    0    0  0.42361801395E+02 -0.39785421197E+02  0.88113764852E+02  0.10555774492E+03  0.10000000000E+01 0.  0.
<mgrwt>
<rscale>  0 0.12497810E+03</rscale>
<asrwt>0</asrwt>
<pdfrwt beam="2">  1        4 0.19629284E-02 0.12497810E+03</pdfrwt>
<pdfrwt beam="1">  1       -4 0.47084361E-01 0.12497810E+03</pdfrwt>
<totfact> 0.73333790E+03</totfact>
</mgrwt>
</event>
<event>
 5    1  0.3330238E-002  0.1250026E+03  0.7818608E-02  0.1235065E+00
         -4   -1    0    0    0  501 -0.00000000000E+00  0.00000000000E+00  0.91777263833E+03  0.91777351703E+03  0.12700000000E+01 0. -1.
          4   -1    0    0  501    0  0.00000000000E+00 -0.00000000000E+00 -0.41607734118E+01  0.43502799202E+01  0.12700000000E+01 0. -1.
         25    2    1    2    0    0  0.00000000000E+00  0.00000000000E+00  0.91361186491E+03  0.92212379695E+03  0.12500262873E+03 0.  0.
    9000005    1    3    3    0    0 -0.13068875306E+02 -0.23389167321E+01  0.90728530460E+03  0.90738298969E+03  0.10000000000E+01 0.  0.
    9000005    1    3    3    0    0  0.13068875306E+02  0.23389167321E+01  0.63265603120E+01  0.14740807258E+02  0.10000000000E+01 0.  0.
<mgrwt>
<rscale>  0 0.12500263E+03</rscale>
<asrwt>0</asrwt>
<pdfrwt beam="2">  1        4 0.65476437E-03 0.12500263E+03</pdfrwt>
<pdfrwt beam="1">  1       -4 0.14121036E+00 0.12500263E+03</pdfrwt>
<totfact> 0.33324907E+03</totfact>
</mgrwt>
</event>
<event>
 5    1  0.3330238E-002  0.1249982E+03  0.7818608E-02  0.1235072E+00
          4   -1    0    0  501    0  0.00000000000E+00  0.00000000000E+00  0.13053479050E+02  0.13115114003E+02  0.12700000000E+01 0. -1.
         -4   -1    0    0    0  501 -0.00000000000E+00 -0.00000000000E+00 -0.29847345852E+03  0.29847616042E+03  0.12700000000E+01 0. -1.
         25    2    1    2    0    0  0.00000000000E+00  0.00000000000E+00 -0.28541997947E+03  0.31159127442E+03  0.12499823046E+03 0.  0.
    9000005    1    3    3    0    0  0.32473253070E+02 -0.50128167036E+02 -0.18852496520E+03  0.19776250352E+03  0.10000000000E+01 0.  0.
    9000005    1    3    3    0    0 -0.32473253070E+02  0.50128167036E+02 -0.96895014268E+02  0.11382877090E+03  0.10000000000E+01 0.  0.
<mgrwt>
<rscale>  0 0.12499823E+03</rscale>
<asrwt>0</asrwt>
<pdfrwt beam="1">  1        4 0.20131768E-02 0.12499823E+03</pdfrwt>
<pdfrwt beam="2">  1       -4 0.45923937E-01 0.12499823E+03</pdfrwt>
<totfact> 0.74170394E+03</totfact>
</mgrwt>
</event>
<event>
 5    1  0.3330238E-002  0.1250000E+03  0.7818608E-02  0.1235069E+00
          4   -1    0    0  501    0  0.00000000000E+00  0.00000000000E+00  0.87481039194E+01  0.88398089450E+01  0.12700000000E+01 0.  1.
         -4   -1    0    0    0  501 -0.00000000000E+00 -0.00000000000E+00 -0.44410456107E+03  0.44410637697E+03  0.12700000000E+01 0.  1.
         25    2    1    2    0    0  0.00000000000E+00  0.00000000000E+00 -0.43535645716E+03  0.45294618592E+03  0.12500001020E+03 0.  0.
    9000005    1    3    3    0    0 -0.52478801988E+02  0.31669814302E+02 -0.17355856292E+03  0.18406677201E+03  0.10000000000E+01 0.  0.
    9000005    1    3    3    0    0  0.52478801988E+02 -0.31669814302E+02 -0.26179789423E+03  0.26887941390E+03  0.10000000000E+01 0.  0.
<mgrwt>
<rscale>  0 0.12500001E+03</rscale>
<asrwt>0</asrwt>
<pdfrwt beam="1">  1        4 0.13530564E-02 0.12500001E+03</pdfrwt>
<pdfrwt beam="2">  1       -4 0.68330955E-01 0.12500001E+03</pdfrwt>
<totfact> 0.59709408E+03</totfact>
</mgrwt>
</event>
<event>
 4    1  0.3330238E-002  0.1249375E+03  0.7818608E-02  0.1235167E+00
         -4   -1    0    0    0  501 -0.00000000000E+00  0.00000000000E+00  0.23066373706E+02  0.23101309399E+02  0.12700000000E+01 0.  1.
          4   -1    0    0  501    0  0.00000000000E+00 -0.00000000000E+00 -0.16901353554E+03  0.16901830699E+03  0.12700000000E+01 0.  1.
    9000005    1    1    2    0    0 -0.12720058017E+02  0.57903584331E+02 -0.42733960531E+02  0.73087730414E+02  0.10000000000E+01 0.  0.
    9000005    1    1    2    0    0  0.12720058017E+02 -0.57903584331E+02 -0.10321320130E+03  0.11903188597E+03  0.10000000000E+01 0.  0.
<mgrwt>
<rscale>  0 0.12493748E+03</rscale>
<asrwt>0</asrwt>
<pdfrwt beam="2">  1        4 0.26005136E-01 0.12493748E+03</pdfrwt>
<pdfrwt beam="1">  1       -4 0.35517274E-02 0.12493748E+03</pdfrwt>
<totfact> 0.91608023E+03</totfact>
</mgrwt>
</event>
<event>
 5    1  0.3330238E-002  0.1249719E+03  0.7818608E-02  0.1235113E+00
         -4   -1    0    0    0  501 -0.00000000000E+00  0.00000000000E+00  0.75694373086E+00  0.14784667097E+01  0.12700000000E+01 0.  1.
          4   -1    0    0  501    0  0.00000000000E+00 -0.00000000000E+00 -0.34925912710E+04  0.34925915019E+04  0.12700000000E+01 0.  1.
         25    2    1    2    0    0  0.00000000000E+00  0.00000000000E+00 -0.34918343272E+04  0.34940699686E+04  0.12497190271E+03 0.  0.
    9000005    1    3    3    0    0  0.61641575506E+02  0.56098002482E+01 -0.15081183141E+04  0.15093882877E+04  0.10000000000E+01 0.  0.
    9000005    1    3    3    0    0 -0.61641575506E+02 -0.56098002482E+01 -0.19837160131E+04  0.19846816809E+04  0.10000000000E+01 0.  0.
<mgrwt>
<rscale>  0 0.12497190E+03</rscale>
<asrwt>0</asrwt>
<pdfrwt beam="2">  1        4 0.53736851E+00 0.12497190E+03</pdfrwt>
<pdfrwt beam="1">  1       -4 0.17197521E-03 0.12497190E+03</pdfrwt>
<totfact> 0.58667293E+01</totfact>
</mgrwt>
</event>
<event>
 5    1  0.3330238E-002  0.1249983E+03  0.7818608E-02  0.1235072E+00
          4   -1    0    0  501    0  0.00000000000E+00  0.00000000000E+00  0.31571265321E+03  0.31571520758E+03  0.12700000000E+01 0.  1.
         -4   -1    0    0    0  501 -0.00000000000E+00 -0.00000000000E+00 -0.12337271502E+02  0.12402466211E+02  0.12700000000E+01 0.  1.
         25    2    1    2    0    0  0.00000000000E+00  0.00000000000E+00  0.30337538171E+03  0.32811767379E+03  0.12499834250E+03 0.  0.
    9000005    1    3    3    0    0  0.19888355260E+02  0.59163669571E+02  0.14369985134E+03  0.15667333451E+03  0.10000000000E+01 0.  0.
    9000005    1    3    3    0    0 -0.19888355260E+02 -0.59163669571E+02  0.15967553038E+03  0.17144433928E+03  0.10000000000E+01 0.  0.
<mgrwt>
<rscale>  0 0.12499834E+03</rscale>
<asrwt>0</asrwt>
<pdfrwt beam="1">  1        4 0.48576390E-01 0.12499834E+03</pdfrwt>
<pdfrwt beam="2">  1       -4 0.19032532E-02 0.12499834E+03</pdfrwt>
<totfact> 0.72203574E+03</totfact>
</mgrwt>
</event>
<event>
 5    1  0.3330238E-002  0.1249962E+03  0.7818608E-02  0.1235075E+00
         -4   -1    0    0    0  501 -0.00000000000E+00  0.00000000000E+00  0.34529685305E+02  0.34553032679E+02  0.12700000000E+01 0.  1.
          4   -1    0    0  501    0  0.00000000000E+00 -0.00000000000E+00 -0.11305526112E+03  0.11306239413E+03  0.12700000000E+01 0.  1.
         25    2    1    2    0    0  0.00000000000E+00  0.00000000000E+00 -0.78525575810E+02  0.14761542681E+03  0.12499619264E+03 0.  0.
    9000005    1    3    3    0    0  0.13060454676E+02  0.18947747548E+02  0.29349015553E+02  0.37308944335E+02  0.10000000000E+01 0.  0.
    9000005    1    3    3    0    0 -0.13060454676E+02 -0.18947747548E+02 -0.10787459136E+03  0.11030648247E+03  0.10000000000E+01 0.  0.
<mgrwt>
<rscale>  0 0.12499619E+03</rscale>
<asrwt>0</asrwt>
<pdfrwt beam="2">  1        4 0.17395462E-01 0.12499619E+03</pdfrwt>
<pdfrwt beam="1">  1       -4 0.53146040E-02 0.12499619E+03</pdfrwt>
<totfact> 0.99789721E+03</totfact>
</mgrwt>
</event>
<event>
 5    1  0.3330238E-002  0.1250016E+03  0.7818608E-02  0.1235067E+00
         -4   -1    0    0    0  501 -0.00000000000E+00  0.00000000000E+00  0.59067966780E+01  0.60417834283E+01  0.12700000000E+01 0.  1.
          4   -1    0    0  501    0  0.00000000000E+00 -0.00000000000E+00 -0.65372480168E+03  0.65372603531E+03  0.12700000000E+01 0.  1.
         25    2    1    2    0    0  0.00000000000E+00  0.00000000000E+00 -0.64781800501E+03  0.65976781873E+03  0.12500162810E+03 0.  0.
    9000005    1    3    3    0    0 -0.51200018498E+02  0.26189033418E+02 -0.19483399184E+03  0.20314672467E+03  0.10000000000E+01 0.  0.
    9000005    1    3    3    0    0  0.51200018498E+02 -0.26189033418E+02 -0.45298401316E+03  0.45662109407E+03  0.10000000000E+01 0.  0.
<mgrwt>
<rscale>  0 0.12500163E+03</rscale>
<asrwt>0</asrwt>
<pdfrwt beam="2">  1        4 0.10058347E+00 0.12500163E+03</pdfrwt>
<pdfrwt beam="1">  1       -4 0.91921696E-03 0.12500163E+03</pdfrwt>
<totfact> 0.45295518E+03</totfact>
</mgrwt>
</event>
<event>
 5    1  0.3330238E-002  0.1250034E+03  0.7818608E-02  0.1235064E+00
         -4   -1    0    0    0  501 -0.00000000000E+00  0.00000000000E+00  0.76267822755E+02  0.76278395944E+02  0.12700000000E+01 0.  1.
          4   -1    0    0  501    0  0.00000000000E+00 -0.00000000000E+00 -0.51198353519E+02  0.51214102580E+02  0.12700000000E+01 0.  1.
         25    2    1    2    0    0  0.00000000000E+00  0.00000000000E+00  0.25069469236E+02  0.12749249852E+03  0.12500343552E+03 0.  0.
    9000005    1    3    3    0    0 -0.20830807108E+01 -0.49727534776E+02 -0.26010621657E+02  0.56166888637E+02  0.10000000000E+01 0.  0.
    9000005    1    3    3    0    0  0.20830807108E+01  0.49727534776E+02  0.51080090893E+02  0.71325609887E+02  0.10000000000E+01 0.  0.
<mgrwt>
<rscale>  0 0.12500344E+03</rscale>
<asrwt>0</asrwt>
<pdfrwt beam="2">  1        4 0.78786946E-02 0.12500344E+03</pdfrwt>
<pdfrwt beam="1">  1       -4 0.11735536E-01 0.12500344E+03</pdfrwt>
<totfact> 0.10397657E+04</totfact>
</mgrwt>
</event>
<event>
 4    1  0.3330238E-002  0.1259121E+03  0.7818608E-02  0.1233651E+00
          4   -1    0    0  501    0  0.00000000000E+00  0.00000000000E+00  0.17114377215E+03  0.17114848421E+03  0.12700000000E+01 0.  1.
         -4   -1    0    0    0  501 -0.00000000000E+00 -0.00000000000E+00 -0.23136253113E+02  0.23171083447E+02  0.12700000000E+01 0.  1.
    9000005    1    1    2    0    0 -0.15926563933E+02  0.26809016578E+02  0.15839374624E+03  0.16143716318E+03  0.10000000000E+01 0.  0.
    9000005    1    1    2    0    0  0.15926563933E+02 -0.26809016578E+02 -0.10386227197E+02  0.32882404474E+02  0.10000000000E+01 0.  0.
<mgrwt>
<rscale>  0 0.12591215E+03</rscale>
<asrwt>0</asrwt>
<pdfrwt beam="1">  1        4 0.26332851E-01 0.12591215E+03</pdfrwt>
<pdfrwt beam="2">  1       -4 0.35624655E-02 0.12591215E+03</pdfrwt>
<totfact> 0.89265225E+03</totfact>
</mgrwt>
</event>
<event>
 5    1  0.3330238E-002  0.1249996E+03  0.7818608E-02  0.1235070E+00
         -4   -1    0    0    0  501 -0.00000000000E+00  0.00000000000E+00  0.29175996654E+03  0.29176273062E+03  0.12700000000E+01 0. -1.
          4   -1    0    0  501    0  0.00000000000E+00 -0.00000000000E+00 -0.13355540081E+02  0.13415787374E+02  0.12700000000E+01 0. -1.
         25    2    1    2    0    0  0.00000000000E+00  0.00000000000E+00  0.27840442646E+03  0.30517851799E+03  0.12499961268E+03 0.  0.
    9000005    1    3    3    0    0  0.42736570119E+02 -0.32101373420E+02  0.60154225710E+02  0.80476353494E+02  0.10000000000E+01 0.  0.
    9000005    1    3    3    0    0 -0.42736570119E+02  0.32101373420E+02  0.21825020075E+03  0.22470216450E+03  0.10000000000E+01 0.  0.
<mgrwt>
<rscale>  0 0.12499961E+03</rscale>
<asrwt>0</asrwt>
<pdfrwt beam="2">  1        4 0.20595455E-02 0.12499961E+03</pdfrwt>
<pdfrwt beam="1">  1       -4 0.44890995E-01 0.12499961E+03</pdfrwt>
<totfact> 0.74954456E+03</totfact>
</mgrwt>
</event>
<event>
 5    1  0.3330238E-002  0.1250003E+03  0.7818608E-02  0.1235069E+00
         -4   -1    0    0    0  501 -0.00000000000E+00  0.00000000000E+00  0.13342697243E+02  0.13403002265E+02  0.12700000000E+01 0.  1.
          4   -1    0    0  501    0  0.00000000000E+00 -0.00000000000E+00 -0.29204295372E+03  0.29204571511E+03  0.12700000000E+01 0.  1.
         25    2    1    2    0    0  0.00000000000E+00  0.00000000000E+00 -0.27870025647E+03  0.30544871738E+03  0.12500034395E+03 0.  0.
    9000005    1    3    3    0    0  0.70800230636E+01 -0.16234168417E+02  0.70936315575E+01  0.19104830788E+02  0.10000000000E+01 0.  0.
    9000005    1    3    3    0    0 -0.70800230636E+01  0.16234168417E+02 -0.28579388803E+03  0.28634388659E+03  0.10000000000E+01 0.  0.
<mgrwt>
<rscale>  0 0.12500034E+03</rscale>
<asrwt>0</asrwt>
<pdfrwt beam="2">  1        4 0.44934532E-01 0.12500034E+03</pdfrwt>
<pdfrwt beam="1">  1       -4 0.20575741E-02 0.12500034E+03</pdfrwt>
<totfact> 0.74919836E+03</totfact>
</mgrwt>
</event>
<event>
 5    1  0.3330238E-002  0.1250041E+03  0.7818608E-02  0.1235063E+00
          4   -1    0    0  501    0  0.00000000000E+00  0.00000000000E+00  0.73678127099E+03  0.73678236554E+03  0.12700000000E+01 0. -1.
         -4   -1    0    0    0  501 -0.00000000000E+00 -0.00000000000E+00 -0.52249599240E+01  0.53770908684E+01  0.12700000000E+01 0. -1.
         25    2    1    2    0    0  0.00000000000E+00  0.00000000000E+00  0.73155631106E+03  0.74215945641E+03  0.12500408988E+03 0.  0.
    9000005    1    3    3    0    0  0.78393290490E+01 -0.56452943809E+02  0.21358542208E+03  0.22106135454E+03  0.10000000000E+01 0.  0.
    9000005    1    3    3    0    0 -0.78393290490E+01  0.56452943809E+02  0.51797088898E+03  0.52109810187E+03  0.10000000000E+01 0.  0.
<mgrwt>
<rscale>  0 0.12500409E+03</rscale>
<asrwt>0</asrwt>
<pdfrwt beam="1">  1        4 0.11336271E+00 0.12500409E+03</pdfrwt>
<pdfrwt beam="2">  1       -4 0.81562689E-03 0.12500409E+03</pdfrwt>
<totfact> 0.40948338E+03</totfact>
</mgrwt>
</event>
<event>
 5    1  0.3330238E-002  0.1250009E+03  0.7818608E-02  0.1235068E+00
         -4   -1    0    0    0  501 -0.00000000000E+00  0.00000000000E+00  0.28176128493E+02  0.28204735717E+02  0.12700000000E+01 0. -1.
          4   -1    0    0  501    0  0.00000000000E+00 -0.00000000000E+00 -0.13853689920E+03  0.13854272027E+03  0.12700000000E+01 0. -1.
         25    2    1    2    0    0  0.00000000000E+00  0.00000000000E+00 -0.11036077070E+03  0.16674745598E+03  0.12500085746E+03 0.  0.
    9000005    1    3    3    0    0 -0.42294999287E+02 -0.12112545666E+02  0.40233062552E+01  0.44190131482E+02  0.10000000000E+01 0.  0.
    9000005    1    3    3    0    0  0.42294999287E+02  0.12112545666E+02 -0.11438407696E+03  0.12255732450E+03  0.10000000000E+01 0.  0.
<mgrwt>
<rscale>  0 0.12500086E+03</rscale>
<asrwt>0</asrwt>
<pdfrwt beam="2">  1        4 0.21316017E-01 0.12500086E+03</pdfrwt>
<pdfrwt beam="1">  1       -4 0.43374374E-02 0.12500086E+03</pdfrwt>
<totfact> 0.96055622E+03</totfact>
</mgrwt>
</event>
<event>
 5    1  0.3330238E-002  0.1250066E+03  0.7818608E-02  0.1235059E+00
          4   -1    0    0  501    0  0.00000000000E+00  0.00000000000E+00  0.18575931094E+03  0.18576365226E+03  0.12700000000E+01 0. -1.
         -4   -1    0    0    0  501 -0.00000000000E+00 -0.00000000000E+00 -0.21007010716E+02  0.21045365267E+02  0.12700000000E+01 0. -1.
         25    2    1    2    0    0  0.00000000000E+00  0.00000000000E+00  0.16475230022E+03  0.20680901752E+03  0.12500659703E+03 0.  0.
    9000005    1    3    3    0    0  0.43624185820E+02  0.20914395973E+02  0.14782752764E+03  0.15554568292E+03  0.10000000000E+01 0.  0.
    9000005    1    3    3    0    0 -0.43624185820E+02 -0.20914395973E+02  0.16924772577E+02  0.51263334599E+02  0.10000000000E+01 0.  0.
<mgrwt>
<rscale>  0 0.12500660E+03</rscale>
<asrwt>0</asrwt>
<pdfrwt beam="1">  1        4 0.28581640E-01 0.12500660E+03</pdfrwt>
<pdfrwt beam="2">  1       -4 0.32351321E-02 0.12500660E+03</pdfrwt>
<totfact> 0.88986547E+03</totfact>
</mgrwt>
</event>
<event>
 5    1  0.3330238E-002  0.1250172E+03  0.7818608E-02  0.1235042E+00
          4   -1    0    0  501    0  0.00000000000E+00  0.00000000000E+00  0.20992397162E+03  0.20992781321E+03  0.12700000000E+01 0.  1.
         -4   -1    0    0    0  501 -0.00000000000E+00 -0.00000000000E+00 -0.18587378203E+02  0.18630714652E+02  0.12700000000E+01 0.  1.
         25    2    1    2    0    0  0.00000000000E+00  0.00000000000E+00  0.19133659341E+03  0.22855852786E+03  0.12501723353E+03 0.  0.
    9000005    1    3    3    0    0  0.53802215857E+02 -0.31769898944E+02  0.92882284940E+02  0.11194696854E+03  0.10000000000E+01 0.  0.
    9000005    1    3    3    0    0 -0.53802215857E+02  0.31769898944E+02  0.98454308473E+02  0.11661155932E+03  0.10000000000E+01 0.  0.
<mgrwt>
<rscale>  0 0.12501723E+03</rscale>
<asrwt>0</asrwt>
<pdfrwt beam="1">  1        4 0.32299625E-01 0.12501723E+03</pdfrwt>
<pdfrwt beam="2">  1       -4 0.28632257E-02 0.12501723E+03</pdfrwt>
<totfact> 0.85498545E+03</totfact>
</mgrwt>
</event>
<event>
 5    1  0.3330238E-002  0.1250026E+03  0.7818608E-02  0.1235065E+00
         -4   -1    0    0    0  501 -0.00000000000E+00  0.00000000000E+00  0.58845367336E+02  0.58859070303E+02  0.12700000000E+01 0.  1.
          4   -1    0    0  501    0  0.00000000000E+00 -0.00000000000E+00 -0.66356879504E+02  0.66369031615E+02  0.12700000000E+01 0.  1.
         25    2    1    2    0    0  0.00000000000E+00  0.00000000000E+00 -0.75115121678E+01  0.12522810192E+03  0.12500261875E+03 0.  0.
    9000005    1    3    3    0    0 -0.41369096295E+02  0.45662935481E+02  0.66989617590E+01  0.61986949382E+02  0.10000000000E+01 0.  0.
    9000005    1    3    3    0    0  0.41369096295E+02 -0.45662935481E+02 -0.14210473927E+02  0.63241152537E+02  0.10000000000E+01 0.  0.
<mgrwt>
<rscale>  0 0.12500262E+03</rscale>
<asrwt>0</asrwt>
<pdfrwt beam="2">  1        4 0.10210740E-01 0.12500262E+03</pdfrwt>
<pdfrwt beam="1">  1       -4 0.90551223E-02 0.12500262E+03</pdfrwt>
<totfact> 0.10447292E+04</totfact>
</mgrwt>
</event>
<event>
 5    1  0.3330238E-002  0.1250301E+03  0.7818608E-02  0.1235022E+00
          4   -1    0    0  501    0  0.00000000000E+00  0.00000000000E+00  0.65733937919E+02  0.65746205170E+02  0.12700000000E+01 0.  1.
         -4   -1    0    0    0  501 -0.00000000000E+00 -0.00000000000E+00 -0.59429224028E+02  0.59442792402E+02  0.12700000000E+01 0.  1.
         25    2    1    2    0    0  0.00000000000E+00  0.00000000000E+00  0.63047138909E+01  0.12518899757E+03  0.12503013915E+03 0.  0.
    9000005    1    3    3    0    0  0.60737250137E+02  0.14031042118E+02 -0.14632969094E+01  0.62362047232E+02  0.10000000000E+01 0.  0.
    9000005    1    3    3    0    0 -0.60737250137E+02 -0.14031042118E+02  0.77680108004E+01  0.62826950340E+02  0.10000000000E+01 0.  0.
<mgrwt>
<rscale>  0 0.12503014E+03</rscale>
<asrwt>0</asrwt>
<pdfrwt beam="1">  1        4 0.10114901E-01 0.12503014E+03</pdfrwt>
<pdfrwt beam="2">  1       -4 0.91449449E-02 0.12503014E+03</pdfrwt>
<totfact> 0.10441645E+04</totfact>
</mgrwt>
</event>
<event>
 5    1  0.3330238E-002  0.1249789E+03  0.7818608E-02  0.1235102E+00
         -4   -1    0    0    0  501 -0.00000000000E+00  0.00000000000E+00  0.28580767083E+02  0.28608969696E+02  0.12700000000E+01 0.  1.
          4   -1    0    0  501    0  0.00000000000E+00 -0.00000000000E+00 -0.13652951109E+03  0.13653541774E+03  0.12700000000E+01 0.  1.
         25    2    1    2    0    0  0.00000000000E+00  0.00000000000E+00 -0.10794874401E+03  0.16514438744E+03  0.12497894771E+03 0.  0.
    9000005    1    3    3    0    0  0.50276519134E+02  0.34290570781E+02 -0.72678411725E+02  0.94798328844E+02  0.10000000000E+01 0.  0.
    9000005    1    3    3    0    0 -0.50276519134E+02 -0.34290570781E+02 -0.35270332282E+02  0.70346058596E+02  0.10000000000E+01 0.  0.
<mgrwt>
<rscale>  0 0.12497895E+03</rscale>
<asrwt>0</asrwt>
<pdfrwt beam="2">  1        4 0.21007164E-01 0.12497895E+03</pdfrwt>
<pdfrwt beam="1">  1       -4 0.43996650E-02 0.12497895E+03</pdfrwt>
<totfact> 0.96405640E+03</totfact>
</mgrwt>
</event>
<event>
 5    1  0.3330238E-002  0.1250007E+03  0.7818608E-02  0.1235068E+00
         -4   -1    0    0    0  501 -0.00000000000E+00  0.00000000000E+00  0.10406824696E+03  0.10407599591E+03  0.12700000000E+01 0.  1.
          4   -1    0    0  501    0  0.00000000000E+00 -0.00000000000E+00 -0.37515997011E+02  0.37537487019E+02  0.12700000000E+01 0.  1.
         25    2    1    2    0    0  0.00000000000E+00  0.00000000000E+00  0.66552249944E+02  0.14161348293E+03  0.12500070629E+03 0.  0.
    9000005    1    3    3    0    0  0.46633023998E+02 -0.37124352302E+02  0.54544450834E+02  0.80801940433E+02  0.10000000000E+01 0.  0.
    9000005    1    3    3    0    0 -0.46633023998E+02  0.37124352302E+02  0.12007799111E+02  0.60811542494E+02  0.10000000000E+01 0.  0.
<mgrwt>
<rscale>  0 0.12500071E+03</rscale>
<asrwt>0</asrwt>
<pdfrwt beam="2">  1        4 0.57739411E-02 0.12500071E+03</pdfrwt>
<pdfrwt beam="1">  1       -4 0.16012748E-01 0.12500071E+03</pdfrwt>
<totfact> 0.10100094E+04</totfact>
</mgrwt>
</event>
<event>
 5    1  0.3330238E-002  0.1250025E+03  0.7818608E-02  0.1235065E+00
          4   -1    0    0  501    0  0.00000000000E+00  0.00000000000E+00  0.25018208113E+03  0.25018530456E+03  0.12700000000E+01 0. -1.
         -4   -1    0    0    0  501 -0.00000000000E+00 -0.00000000000E+00 -0.15585100869E+02  0.15636760185E+02  0.12700000000E+01 0. -1.
         25    2    1    2    0    0  0.00000000000E+00  0.00000000000E+00  0.23459698026E+03  0.26582206474E+03  0.12500250781E+03 0.  0.
    9000005    1    3    3    0    0  0.54932371593E+02 -0.15931432785E+02  0.63752437765E+02  0.85654826603E+02  0.10000000000E+01 0.  0.
    9000005    1    3    3    0    0 -0.54932371593E+02  0.15931432785E+02  0.17084454249E+03  0.18016723814E+03  0.10000000000E+01 0.  0.
<mgrwt>
<rscale>  0 0.12500251E+03</rscale>
<asrwt>0</asrwt>
<pdfrwt beam="1">  1        4 0.38493772E-01 0.12500251E+03</pdfrwt>
<pdfrwt beam="2">  1       -4 0.24019296E-02 0.12500251E+03</pdfrwt>
<totfact> 0.80091426E+03</totfact>
</mgrwt>
</event>
<event>
 4    1  0.3330238E-002  0.1250913E+03  0.7818608E-02  0.1234927E+00
          4   -1    0    0  501    0  0.00000000000E+00  0.00000000000E+00  0.12723087688E+04  0.12723094027E+04  0.12700000000E+01 0.  1.
         -4   -1    0    0    0  501 -0.00000000000E+00 -0.00000000000E+00 -0.29428897797E+01  0.32052301408E+01  0.12700000000E+01 0.  1.
    9000005    1    1    2    0    0  0.39425401277E+02  0.46975533093E+02  0.75952358915E+03  0.76199615842E+03  0.10000000000E+01 0.  0.
    9000005    1    1    2    0    0 -0.39425401277E+02 -0.46975533093E+02  0.50984228992E+03  0.51351847441E+03  0.10000000000E+01 0.  0.
<mgrwt>
<rscale>  0 0.12509134E+03</rscale>
<asrwt>0</asrwt>
<pdfrwt beam="1">  1        4 0.19576052E+00 0.12509134E+03</pdfrwt>
<pdfrwt beam="2">  1       -4 0.47297989E-03 0.12509134E+03</pdfrwt>
<totfact> 0.22768404E+03</totfact>
</mgrwt>
</event>
<event>
 5    1  0.3330238E-002  0.1250015E+03  0.7818608E-02  0.1235067E+00
          4   -1    0    0  501    0  0.00000000000E+00  0.00000000000E+00  0.17332752747E+03  0.17333218016E+03  0.12700000000E+01 0. -1.
         -4   -1    0    0    0  501 -0.00000000000E+00 -0.00000000000E+00 -0.22514512233E+02  0.22550302904E+02  0.12700000000E+01 0. -1.
         25    2    1    2    0    0  0.00000000000E+00  0.00000000000E+00  0.15081301524E+03  0.19588248307E+03  0.12500152642E+03 0.  0.
    9000005    1    3    3    0    0 -0.16450511311E+02 -0.65613463484E+01  0.16932017254E+03  0.17024685435E+03  0.10000000000E+01 0.  0.
    9000005    1    3    3    0    0  0.16450511311E+02  0.65613463484E+01 -0.18507157299E+02  0.25635628714E+02  0.10000000000E+01 0.  0.
<mgrwt>
<rscale>  0 0.12500153E+03</rscale>
<asrwt>0</asrwt>
<pdfrwt beam="1">  1        4 0.26668885E-01 0.12500153E+03</pdfrwt>
<pdfrwt beam="2">  1       -4 0.34668821E-02 0.12500153E+03</pdfrwt>
<totfact> 0.90830631E+03</totfact>
</mgrwt>
</event>
<event>
 5    1  0.3330238E-002  0.1250166E+03  0.7818608E-02  0.1235043E+00
         -4   -1    0    0    0  501 -0.00000000000E+00  0.00000000000E+00  0.80880391076E+02  0.80890361358E+02  0.12700000000E+01 0.  1.
          4   -1    0    0  501    0  0.00000000000E+00 -0.00000000000E+00 -0.48288150622E+02  0.48304848519E+02  0.12700000000E+01 0.  1.
         25    2    1    2    0    0  0.00000000000E+00  0.00000000000E+00  0.32592240455E+02  0.12919520988E+03  0.12501659137E+03 0.  0.
    9000005    1    3    3    0    0  0.28686254213E+02  0.43873952400E+01 -0.40908725706E+02  0.50166465459E+02  0.10000000000E+01 0.  0.
    9000005    1    3    3    0    0 -0.28686254213E+02 -0.43873952400E+01  0.73500966161E+02  0.79028744418E+02  0.10000000000E+01 0.  0.
<mgrwt>
<rscale>  0 0.12501659E+03</rscale>
<asrwt>0</asrwt>
<pdfrwt beam="2">  1        4 0.74309977E-02 0.12501659E+03</pdfrwt>
<pdfrwt beam="1">  1       -4 0.12445188E-01 0.12501659E+03</pdfrwt>
<totfact> 0.10357874E+04</totfact>
</mgrwt>
</event>
<event>
 5    1  0.3330238E-002  0.1250048E+03  0.7818608E-02  0.1235062E+00
          4   -1    0    0  501    0  0.00000000000E+00  0.00000000000E+00  0.19133652446E+02  0.19175754377E+02  0.12700000000E+01 0.  1.
         -4   -1    0    0    0  501 -0.00000000000E+00 -0.00000000000E+00 -0.20390317326E+03  0.20390712828E+03  0.12700000000E+01 0.  1.
         25    2    1    2    0    0  0.00000000000E+00  0.00000000000E+00 -0.18476952081E+03  0.22308288266E+03  0.12500478677E+03 0.  0.
    9000005    1    3    3    0    0  0.15316239487E+02  0.42115938135E+02 -0.17011630134E+03  0.17592298149E+03  0.10000000000E+01 0.  0.
    9000005    1    3    3    0    0 -0.15316239487E+02 -0.42115938135E+02 -0.14653219473E+02  0.47159901165E+02  0.10000000000E+01 0.  0.
<mgrwt>
<rscale>  0 0.12500479E+03</rscale>
<asrwt>0</asrwt>
<pdfrwt beam="1">  1        4 0.29471818E-02 0.12500479E+03</pdfrwt>
<pdfrwt beam="2">  1       -4 0.31373260E-01 0.12500479E+03</pdfrwt>
<totfact> 0.86373630E+03</totfact>
</mgrwt>
</event>
<event>
 5    1  0.3330238E-002  0.1250013E+03  0.7818608E-02  0.1235067E+00
         -4   -1    0    0    0  501 -0.00000000000E+00  0.00000000000E+00  0.18416294152E+03  0.18416732047E+03  0.12700000000E+01 0.  1.
          4   -1    0    0  501    0  0.00000000000E+00 -0.00000000000E+00 -0.21187625942E+02  0.21225654125E+02  0.12700000000E+01 0.  1.
         25    2    1    2    0    0  0.00000000000E+00  0.00000000000E+00  0.16297531558E+03  0.20539297460E+03  0.12500128210E+03 0.  0.
    9000005    1    3    3    0    0 -0.16613325466E+02 -0.60089539220E+02  0.88569291829E+02  0.10831562566E+03  0.10000000000E+01 0.  0.
    9000005    1    3    3    0    0  0.16613325466E+02  0.60089539220E+02  0.74406023752E+02  0.97077348940E+02  0.10000000000E+01 0.  0.
<mgrwt>
<rscale>  0 0.12500128E+03</rscale>
<asrwt>0</asrwt>
<pdfrwt beam="2">  1        4 0.32628968E-02 0.12500128E+03</pdfrwt>
<pdfrwt beam="1">  1       -4 0.28336023E-01 0.12500128E+03</pdfrwt>
<totfact> 0.89231279E+03</totfact>
</mgrwt>
</event>
<event>
 5    1  0.3330238E-002  0.1250025E+03  0.7818608E-02  0.1235065E+00
          4   -1    0    0  501    0  0.00000000000E+00  0.00000000000E+00  0.68655092476E+02  0.68666837868E+02  0.12700000000E+01 0. -1.
         -4   -1    0    0    0  501 -0.00000000000E+00 -0.00000000000E+00 -0.56875271781E+02  0.56889449287E+02  0.12700000000E+01 0. -1.
         25    2    1    2    0    0  0.00000000000E+00  0.00000000000E+00  0.11779820695E+02  0.12555628716E+03  0.12500246825E+03 0.  0.
    9000005    1    3    3    0    0  0.13310394845E+02 -0.60800597427E+02  0.11529499724E+02  0.63307255685E+02  0.10000000000E+01 0.  0.
    9000005    1    3    3    0    0 -0.13310394845E+02  0.60800597427E+02  0.25032097038E+00  0.62249031471E+02  0.10000000000E+01 0.  0.
<mgrwt>
<rscale>  0 0.12500247E+03</rscale>
<asrwt>0</asrwt>
<pdfrwt beam="1">  1        4 0.10564316E-01 0.12500247E+03</pdfrwt>
<pdfrwt beam="2">  1       -4 0.87520359E-02 0.12500247E+03</pdfrwt>
<totfact> 0.10440130E+04</totfact>
</mgrwt>
</event>
<event>
 5    1  0.3330238E-002  0.1249987E+03  0.7818608E-02  0.1235071E+00
          4   -1    0    0  501    0  0.00000000000E+00  0.00000000000E+00  0.21299691930E+03  0.21300070547E+03  0.12700000000E+01 0.  1.
         -4   -1    0    0    0  501 -0.00000000000E+00 -0.00000000000E+00 -0.18313147574E+02  0.18357131423E+02  0.12700000000E+01 0.  1.
         25    2    1    2    0    0  0.00000000000E+00  0.00000000000E+00  0.19468377172E+03  0.23135783689E+03  0.12499871087E+03 0.  0.
    9000005    1    3    3    0    0 -0.23836012773E+02  0.37374046133E+02  0.17886886056E+03  0.18428251167E+03  0.10000000000E+01 0.  0.
    9000005    1    3    3    0    0  0.23836012773E+02 -0.37374046133E+02  0.15814911158E+02  0.47075325216E+02  0.10000000000E+01 0.  0.
<mgrwt>
<rscale>  0 0.12499871E+03</rscale>
<asrwt>0</asrwt>
<pdfrwt beam="1">  1        4 0.32772429E-01 0.12499871E+03</pdfrwt>
<pdfrwt beam="2">  1       -4 0.28210822E-02 0.12499871E+03</pdfrwt>
<totfact> 0.85103984E+03</totfact>
</mgrwt>
</event>
<event>
 5    1  0.3330238E-002  0.1249991E+03  0.7818608E-02  0.1235071E+00
         -4   -1    0    0    0  501 -0.00000000000E+00  0.00000000000E+00  0.19123489820E+02  0.19165614075E+02  0.12700000000E+01 0.  1.
          4   -1    0    0  501    0  0.00000000000E+00 -0.00000000000E+00 -0.20399258279E+03  0.20399653608E+03  0.12700000000E+01 0.  1.
         25    2    1    2    0    0  0.00000000000E+00  0.00000000000E+00 -0.18486909297E+03  0.22316215016E+03  0.12499905490E+03 0.  0.
    9000005    1    3    3    0    0 -0.55938093132E+02  0.24296240991E+02 -0.11677071788E+03  0.13174133043E+03  0.10000000000E+01 0.  0.
    9000005    1    3    3    0    0  0.55938093132E+02 -0.24296240991E+02 -0.68098375090E+02  0.91420819726E+02  0.10000000000E+01 0.  0.
<mgrwt>
<rscale>  0 0.12499905E+03</rscale>
<asrwt>0</asrwt>
<pdfrwt beam="2">  1        4 0.31387017E-01 0.12499905E+03</pdfrwt>
<pdfrwt beam="1">  1       -4 0.29456199E-02 0.12499905E+03</pdfrwt>
<totfact> 0.86372264E+03</totfact>
</mgrwt>
</event>
<event>
 5    1  0.3330238E-002  0.1250001E+03  0.7818608E-02  0.1235069E+00
         -4   -1    0    0    0  501 -0.00000000000E+00  0.00000000000E+00  0.16801682895E+02  0.16849612699E+02  0.12700000000E+01 0. -1.
          4   -1    0    0  501    0  0.00000000000E+00 -0.00000000000E+00 -0.23211106857E+03  0.23211454296E+03  0.12700000000E+01 0. -1.
         25    2    1    2    0    0  0.00000000000E+00  0.00000000000E+00 -0.21530938567E+03  0.24896415566E+03  0.12500007697E+03 0.  0.
    9000005    1    3    3    0    0 -0.26083289916E+02 -0.53573140171E+02 -0.14517272444E+03  0.15692845275E+03  0.10000000000E+01 0.  0.
    9000005    1    3    3    0    0  0.26083289916E+02  0.53573140171E+02 -0.70136661235E+02  0.92035702908E+02  0.10000000000E+01 0.  0.
<mgrwt>
<rscale>  0 0.12500008E+03</rscale>
<asrwt>0</asrwt>
<pdfrwt beam="2">  1        4 0.35713347E-01 0.12500008E+03</pdfrwt>
<pdfrwt beam="1">  1       -4 0.25888286E-02 0.12500008E+03</pdfrwt>
<totfact> 0.82480030E+03</totfact>
</mgrwt>
</event>
<event>
 5    1  0.3330238E-002  0.1250014E+03  0.7818608E-02  0.1235067E+00
          4   -1    0    0  501    0  0.00000000000E+00  0.00000000000E+00  0.47026441750E+01  0.48711150917E+01  0.12700000000E+01 0. -1.
         -4   -1    0    0    0  501 -0.00000000000E+00 -0.00000000000E+00 -0.81588216046E+03  0.81588314890E+03  0.12700000000E+01 0. -1.
         25    2    1    2    0    0  0.00000000000E+00  0.00000000000E+00 -0.81117951629E+03  0.82075426399E+03  0.12500141686E+03 0.  0.
    9000005    1    3    3    0    0 -0.60789119752E+02  0.13171916840E+02 -0.36590936466E+03  0.37115964169E+03  0.10000000000E+01 0.  0.
    9000005    1    3    3    0    0  0.60789119752E+02 -0.13171916840E+02 -0.44527015163E+03  0.44959462230E+03  0.10000000000E+01 0.  0.
<mgrwt>
<rscale>  0 0.12500142E+03</rscale>
<asrwt>0</asrwt>
<pdfrwt beam="1">  1        4 0.73651970E-03 0.12500142E+03</pdfrwt>
<pdfrwt beam="2">  1       -4 0.12553326E+00 0.12500142E+03</pdfrwt>
<totfact> 0.37353702E+03</totfact>
</mgrwt>
</event>
<event>
 5    1  0.3330238E-002  0.1250008E+03  0.7818608E-02  0.1235068E+00
          4   -1    0    0  501    0  0.00000000000E+00  0.00000000000E+00  0.16014046163E+02  0.16064326146E+02  0.12700000000E+01 0. -1.
         -4   -1    0    0    0  501 -0.00000000000E+00 -0.00000000000E+00 -0.24349539571E+03  0.24349870766E+03  0.12700000000E+01 0. -1.
         25    2    1    2    0    0  0.00000000000E+00  0.00000000000E+00 -0.22748134954E+03  0.25956303380E+03  0.12500081650E+03 0.  0.
    9000005    1    3    3    0    0 -0.45826886864E+02  0.18259747060E+02 -0.19340269371E+03  0.19959740443E+03  0.10000000000E+01 0.  0.
    9000005    1    3    3    0    0  0.45826886864E+02 -0.18259747060E+02 -0.34078655835E+02  0.59965629371E+02  0.10000000000E+01 0.  0.
<mgrwt>
<rscale>  0 0.12500082E+03</rscale>
<asrwt>0</asrwt>
<pdfrwt beam="1">  1        4 0.24678220E-02 0.12500082E+03</pdfrwt>
<pdfrwt beam="2">  1       -4 0.37464950E-01 0.12500082E+03</pdfrwt>
<totfact> 0.80965951E+03</totfact>
</mgrwt>
</event>
<event>
 5    1  0.3330238E-002  0.1249985E+03  0.7818608E-02  0.1235072E+00
          4   -1    0    0  501    0  0.00000000000E+00  0.00000000000E+00  0.75559161359E+02  0.75569833699E+02  0.12700000000E+01 0.  1.
         -4   -1    0    0    0  501 -0.00000000000E+00 -0.00000000000E+00 -0.51674501105E+02  0.51690105092E+02  0.12700000000E+01 0.  1.
         25    2    1    2    0    0  0.00000000000E+00  0.00000000000E+00  0.23884660255E+02  0.12725993879E+03  0.12499846009E+03 0.  0.
    9000005    1    3    3    0    0  0.53461929727E+02  0.29301424951E+02 -0.20319734241E+01  0.61007215559E+02  0.10000000000E+01 0.  0.
    9000005    1    3    3    0    0 -0.53461929727E+02 -0.29301424951E+02  0.25916633679E+02  0.66252723231E+02  0.10000000000E+01 0.  0.
<mgrwt>
<rscale>  0 0.12499846E+03</rscale>
<asrwt>0</asrwt>
<pdfrwt beam="1">  1        4 0.11626508E-01 0.12499846E+03</pdfrwt>
<pdfrwt beam="2">  1       -4 0.79519445E-02 0.12499846E+03</pdfrwt>
<totfact> 0.10403865E+04</totfact>
</mgrwt>
</event>
<event>
 5    1  0.3330238E-002  0.1250005E+03  0.7818608E-02  0.1235068E+00
         -4   -1    0    0    0  501 -0.00000000000E+00  0.00000000000E+00  0.34569473195E+02  0.34592793715E+02  0.12700000000E+01 0. -1.
          4   -1    0    0  501    0  0.00000000000E+00 -0.00000000000E+00 -0.11293305464E+03  0.11294019537E+03  0.12700000000E+01 0. -1.
         25    2    1    2    0    0  0.00000000000E+00  0.00000000000E+00 -0.78363581444E+02  0.14753298908E+03  0.12500052788E+03 0.  0.
    9000005    1    3    3    0    0  0.56249001471E+02 -0.21520106301E+02 -0.19495232733E+02  0.63309787877E+02  0.10000000000E+01 0.  0.
    9000005    1    3    3    0    0 -0.56249001471E+02  0.21520106301E+02 -0.58868348711E+02  0.84223201208E+02  0.10000000000E+01 0.  0.
<mgrwt>
<rscale>  0 0.12500053E+03</rscale>
<asrwt>0</asrwt>
<pdfrwt beam="2">  1        4 0.17376659E-01 0.12500053E+03</pdfrwt>
<pdfrwt beam="1">  1       -4 0.53207237E-02 0.12500053E+03</pdfrwt>
<totfact> 0.99796566E+03</totfact>
</mgrwt>
</event>
<event>
 5    1  0.3330238E-002  0.1249978E+03  0.7818608E-02  0.1235073E+00
         -4   -1    0    0    0  501 -0.00000000000E+00  0.00000000000E+00  0.36020180058E+02  0.36042561943E+02  0.12700000000E+01 0. -1.
          4   -1    0    0  501    0  0.00000000000E+00 -0.00000000000E+00 -0.10838256355E+03  0.10839000407E+03  0.12700000000E+01 0. -1.
         25    2    1    2    0    0  0.00000000000E+00  0.00000000000E+00 -0.72362383493E+02  0.14443256601E+03  0.12499780630E+03 0.  0.
    9000005    1    3    3    0    0 -0.44648954743E+02 -0.43717452297E+02 -0.35480147183E+02  0.71865051583E+02  0.10000000000E+01 0.  0.
    9000005    1    3    3    0    0  0.44648954743E+02  0.43717452297E+02 -0.36882236311E+02  0.72567514428E+02  0.10000000000E+01 0.  0.
<mgrwt>
<rscale>  0 0.12499781E+03</rscale>
<asrwt>0</asrwt>
<pdfrwt beam="2">  1        4 0.16676534E-01 0.12499781E+03</pdfrwt>
<pdfrwt beam="1">  1       -4 0.55438602E-02 0.12499781E+03</pdfrwt>
<totfact> 0.10043026E+04</totfact>
</mgrwt>
</event>
<event>
 5    1  0.3330238E-002  0.1249893E+03  0.7818608E-02  0.1235086E+00
          4   -1    0    0  501    0  0.00000000000E+00  0.00000000000E+00  0.42454738736E+02  0.42473730012E+02  0.12700000000E+01 0.  1.
         -4   -1    0    0    0  501 -0.00000000000E+00 -0.00000000000E+00 -0.91950015940E+02  0.91958786048E+02  0.12700000000E+01 0.  1.
         25    2    1    2    0    0  0.00000000000E+00  0.00000000000E+00 -0.49495277204E+02  0.13443251606E+03  0.12498927518E+03 0.  0.
    9000005    1    3    3    0    0 -0.42928315506E+02 -0.13215201557E+02  0.21975154107E+02  0.50013890295E+02  0.10000000000E+01 0.  0.
    9000005    1    3    3    0    0  0.42928315506E+02  0.13215201557E+02 -0.71470431311E+02  0.84418625766E+02  0.10000000000E+01 0.  0.
<mgrwt>
<rscale>  0 0.12498928E+03</rscale>
<asrwt>0</asrwt>
<pdfrwt beam="1">  1        4 0.65336338E-02 0.12498928E+03</pdfrwt>
<pdfrwt beam="2">  1       -4 0.14148292E-01 0.12498928E+03</pdfrwt>
<totfact> 0.10252526E+04</totfact>
</mgrwt>
</event>
<event>
 5    1  0.3330238E-002  0.1249843E+03  0.7818608E-02  0.1235094E+00
          4   -1    0    0  501    0  0.00000000000E+00  0.00000000000E+00  0.31221140094E+02  0.31246959672E+02  0.12700000000E+01 0. -1.
         -4   -1    0    0    0  501 -0.00000000000E+00 -0.00000000000E+00 -0.12500341160E+03  0.12500986286E+03  0.12700000000E+01 0. -1.
         25    2    1    2    0    0  0.00000000000E+00  0.00000000000E+00 -0.93782271510E+02  0.15625682253E+03  0.12498431957E+03 0.  0.
    9000005    1    3    3    0    0  0.28991393382E+02  0.54106165510E+02 -0.61486624355E+02  0.86888336450E+02  0.10000000000E+01 0.  0.
    9000005    1    3    3    0    0 -0.28991393382E+02 -0.54106165510E+02 -0.32295647154E+02  0.69368486083E+02  0.10000000000E+01 0.  0.
<mgrwt>
<rscale>  0 0.12498432E+03</rscale>
<asrwt>0</asrwt>
<pdfrwt beam="1">  1        4 0.48057348E-02 0.12498432E+03</pdfrwt>
<pdfrwt beam="2">  1       -4 0.19233776E-01 0.12498432E+03</pdfrwt>
<totfact> 0.98103920E+03</totfact>
</mgrwt>
</event>
<event>
 5    1  0.3330238E-002  0.1249999E+03  0.7818608E-02  0.1235069E+00
          4   -1    0    0  501    0  0.00000000000E+00  0.00000000000E+00  0.11452636573E+03  0.11453340712E+03  0.12700000000E+01 0. -1.
         -4   -1    0    0    0  501 -0.00000000000E+00 -0.00000000000E+00 -0.34087879597E+02  0.34111529362E+02  0.12700000000E+01 0. -1.
         25    2    1    2    0    0  0.00000000000E+00  0.00000000000E+00  0.80438486134E+02  0.14864493649E+03  0.12499986837E+03 0.  0.
    9000005    1    3    3    0    0 -0.29105258137E+02 -0.46539976619E+02  0.75738268155E+02  0.93543416326E+02  0.10000000000E+01 0.  0.
    9000005    1    3    3    0    0  0.29105258137E+02  0.46539976619E+02  0.47002179797E+01  0.55101520160E+02  0.10000000000E+01 0.  0.
<mgrwt>
<rscale>  0 0.12499987E+03</rscale>
<asrwt>0</asrwt>
<pdfrwt beam="1">  1        4 0.17621802E-01 0.12499987E+03</pdfrwt>
<pdfrwt beam="2">  1       -4 0.52466500E-02 0.12499987E+03</pdfrwt>
<totfact> 0.99574793E+03</totfact>
</mgrwt>
</event>
<event>
 5    1  0.3330238E-002  0.1250011E+03  0.7818608E-02  0.1235068E+00
         -4   -1    0    0    0  501 -0.00000000000E+00  0.00000000000E+00  0.39192689477E+02  0.39213260620E+02  0.12700000000E+01 0. -1.
          4   -1    0    0  501    0  0.00000000000E+00 -0.00000000000E+00 -0.99618755405E+02  0.99626850439E+02  0.12700000000E+01 0. -1.
         25    2    1    2    0    0  0.00000000000E+00  0.00000000000E+00 -0.60426065927E+02  0.13884011106E+03  0.12500106798E+03 0.  0.
    9000005    1    3    3    0    0  0.60489837051E+02 -0.15042629085E+02 -0.25243834722E+02  0.67257358466E+02  0.10000000000E+01 0.  0.
    9000005    1    3    3    0    0 -0.60489837051E+02  0.15042629085E+02 -0.35182231205E+02  0.71582752593E+02  0.10000000000E+01 0.  0.
<mgrwt>
<rscale>  0 0.12500107E+03</rscale>
<asrwt>0</asrwt>
<pdfrwt beam="2">  1        4 0.15328167E-01 0.12500107E+03</pdfrwt>
<pdfrwt beam="1">  1       -4 0.60318497E-02 0.12500107E+03</pdfrwt>
<totfact> 0.10157437E+04</totfact>
</mgrwt>
</event>
<event>
 5    1  0.3330238E-002  0.1249990E+03  0.7818608E-02  0.1235071E+00
         -4   -1    0    0    0  501 -0.00000000000E+00  0.00000000000E+00  0.94753278140E+02  0.94761788809E+02  0.12700000000E+01 0. -1.
          4   -1    0    0  501    0  0.00000000000E+00 -0.00000000000E+00 -0.41204658203E+02  0.41224225373E+02  0.12700000000E+01 0. -1.
         25    2    1    2    0    0  0.00000000000E+00  0.00000000000E+00  0.53548619938E+02  0.13598601418E+03  0.12499896542E+03 0.  0.
    9000005    1    3    3    0    0 -0.65260418323E+01 -0.90922518073E+01 -0.40110814043E+02  0.41654959706E+02  0.10000000000E+01 0.  0.
    9000005    1    3    3    0    0  0.65260418323E+01  0.90922518073E+01  0.93659433981E+02  0.94331054476E+02  0.10000000000E+01 0.  0.
<mgrwt>
<rscale>  0 0.12499897E+03</rscale>
<asrwt>0</asrwt>
<pdfrwt beam="2">  1        4 0.63413380E-02 0.12499897E+03</pdfrwt>
<pdfrwt beam="1">  1       -4 0.14579587E-01 0.12499897E+03</pdfrwt>
<totfact> 0.10217568E+04</totfact>
</mgrwt>
</event>
<event>
 5    1  0.3330238E-002  0.1250002E+03  0.7818608E-02  0.1235069E+00
         -4   -1    0    0    0  501 -0.00000000000E+00  0.00000000000E+00  0.72442207371E+02  0.72453338838E+02  0.12700000000E+01 0.  1.
          4   -1    0    0  501    0  0.00000000000E+00 -0.00000000000E+00 -0.53899700720E+02  0.53914660694E+02  0.12700000000E+01 0.  1.
         25    2    1    2    0    0  0.00000000000E+00  0.00000000000E+00  0.18542506650E+02  0.12636799953E+03  0.12500018701E+03 0.  0.
    9000005    1    3    3    0    0 -0.13930413637E+02 -0.79999876245E+01 -0.51781683904E+02  0.54225446186E+02  0.10000000000E+01 0.  0.
    9000005    1    3    3    0    0  0.13930413637E+02  0.79999876245E+01  0.70324190555E+02  0.72142553346E+02  0.10000000000E+01 0.  0.
<mgrwt>
<rscale>  0 0.12500019E+03</rscale>
<asrwt>0</asrwt>
<pdfrwt beam="2">  1        4 0.82942687E-02 0.12500019E+03</pdfrwt>
<pdfrwt beam="1">  1       -4 0.11146962E-01 0.12500019E+03</pdfrwt>
<totfact> 0.10422864E+04</totfact>
</mgrwt>
</event>
<event>
 5    1  0.3330238E-002  0.1249994E+03  0.7818608E-02  0.1235070E+00
          4   -1    0    0  501    0  0.00000000000E+00  0.00000000000E+00  0.10818959306E+02  0.10893244717E+02  0.12700000000E+01 0.  1.
         -4   -1    0    0    0  501 -0.00000000000E+00 -0.00000000000E+00 -0.35974174836E+03  0.35974399010E+03  0.12700000000E+01 0.  1.
         25    2    1    2    0    0  0.00000000000E+00  0.00000000000E+00 -0.34892278905E+03  0.37063723482E+03  0.12499938844E+03 0.  0.
    9000005    1    3    3    0    0  0.38279283315E+02 -0.42575641074E+02 -0.10020187102E+03  0.11540972099E+03  0.10000000000E+01 0.  0.
    9000005    1    3    3    0    0 -0.38279283315E+02  0.42575641074E+02 -0.24872091804E+03  0.25522751383E+03  0.10000000000E+01 0.  0.
<mgrwt>
<rscale>  0 0.12499939E+03</rscale>
<asrwt>0</asrwt>
<pdfrwt beam="1">  1        4 0.16703423E-02 0.12499939E+03</pdfrwt>
<pdfrwt beam="2">  1       -4 0.55350762E-01 0.12499939E+03</pdfrwt>
<totfact> 0.67513240E+03</totfact>
</mgrwt>
</event>
<event>
 4    1  0.3330238E-002  0.1250626E+03  0.7818608E-02  0.1234971E+00
          4   -1    0    0  501    0  0.00000000000E+00  0.00000000000E+00  0.14989791822E+03  0.14990329811E+03  0.12700000000E+01 0. -1.
         -4   -1    0    0    0  501 -0.00000000000E+00 -0.00000000000E+00 -0.26064208446E+02  0.26095131000E+02  0.12700000000E+01 0. -1.
    9000005    1    1    2    0    0  0.51291085773E+02  0.18815834553E+02  0.10470272441E+03  0.11810364774E+03  0.10000000000E+01 0.  0.
    9000005    1    1    2    0    0 -0.51291085773E+02 -0.18815834553E+02  0.19130985358E+02  0.57894781375E+02  0.10000000000E+01 0.  0.
<mgrwt>
<rscale>  0 0.12506262E+03</rscale>
<asrwt>0</asrwt>
<pdfrwt beam="1">  1        4 0.23064011E-01 0.12506262E+03</pdfrwt>
<pdfrwt beam="2">  1       -4 0.40126707E-02 0.12506262E+03</pdfrwt>
<totfact> 0.94209900E+03</totfact>
</mgrwt>
</event>
<event>
 5    1  0.3330238E-002  0.1249995E+03  0.7818608E-02  0.1235070E+00
         -4   -1    0    0    0  501 -0.00000000000E+00  0.00000000000E+00  0.17162678466E+03  0.17163148346E+03  0.12700000000E+01 0.  1.
          4   -1    0    0  501    0  0.00000000000E+00 -0.00000000000E+00 -0.22737228399E+02  0.22772669042E+02  0.12700000000E+01 0.  1.
         25    2    1    2    0    0  0.00000000000E+00  0.00000000000E+00  0.14888955626E+03  0.19440415250E+03  0.12499949818E+03 0.  0.
    9000005    1    3    3    0    0  0.41361344475E+02 -0.81110973639E+01  0.14619962225E+03  0.15215741935E+03  0.10000000000E+01 0.  0.
    9000005    1    3    3    0    0 -0.41361344475E+02  0.81110973639E+01  0.26899340196E+01  0.42246733155E+02  0.10000000000E+01 0.  0.
<mgrwt>
<rscale>  0 0.12499950E+03</rscale>
<asrwt>0</asrwt>
<pdfrwt beam="2">  1        4 0.35011228E-02 0.12499950E+03</pdfrwt>
<pdfrwt beam="1">  1       -4 0.26407209E-01 0.12499950E+03</pdfrwt>
<totfact> 0.91087626E+03</totfact>
</mgrwt>
</event>
<event>
 5    1  0.3330238E-002  0.1250007E+03  0.7818608E-02  0.1235068E+00
         -4   -1    0    0    0  501 -0.00000000000E+00  0.00000000000E+00  0.82040524898E+01  0.83017695256E+01  0.12700000000E+01 0. -1.
          4   -1    0    0  501    0  0.00000000000E+00 -0.00000000000E+00 -0.47322479709E+03  0.47322650124E+03  0.12700000000E+01 0. -1.
         25    2    1    2    0    0  0.00000000000E+00  0.00000000000E+00 -0.46502074460E+03  0.48152827077E+03  0.12500073057E+03 0.  0.
    9000005    1    3    3    0    0  0.23370947708E+02 -0.33304299120E+02 -0.49787633710E+02  0.64305411958E+02  0.10000000000E+01 0.  0.
    9000005    1    3    3    0    0 -0.23370947708E+02  0.33304299120E+02 -0.41523311089E+03  0.41722285881E+03  0.10000000000E+01 0.  0.
<mgrwt>
<rscale>  0 0.12500073E+03</rscale>
<asrwt>0</asrwt>
<pdfrwt beam="2">  1        4 0.72811441E-01 0.12500073E+03</pdfrwt>
<pdfrwt beam="1">  1       -4 0.12698101E-02 0.12500073E+03</pdfrwt>
<totfact> 0.57325667E+03</totfact>
</mgrwt>
</event>
<event>
 5    1  0.3330238E-002  0.1249986E+03  0.7818608E-02  0.1235071E+00
          4   -1    0    0  501    0  0.00000000000E+00  0.00000000000E+00  0.70342710264E+03  0.70342824909E+03  0.12700000000E+01 0.  1.
         -4   -1    0    0    0  501 -0.00000000000E+00 -0.00000000000E+00 -0.54792691626E+01  0.56245258072E+01  0.12700000000E+01 0.  1.
         25    2    1    2    0    0  0.00000000000E+00  0.00000000000E+00  0.69794783347E+03  0.70905277490E+03  0.12499863737E+03 0.  0.
    9000005    1    3    3    0    0 -0.24154271451E+02 -0.53226126737E+02  0.22357282659E+03  0.23108928618E+03  0.10000000000E+01 0.  0.
    9000005    1    3    3    0    0  0.24154271451E+02  0.53226126737E+02  0.47437500688E+03  0.47796348872E+03  0.10000000000E+01 0.  0.
<mgrwt>
<rscale>  0 0.12499864E+03</rscale>
<asrwt>0</asrwt>
<pdfrwt beam="1">  1        4 0.10823072E+00 0.12499864E+03</pdfrwt>
<pdfrwt beam="2">  1       -4 0.85422705E-03 0.12499864E+03</pdfrwt>
<totfact> 0.42614406E+03</totfact>
</mgrwt>
</event>
<event>
 5    1  0.3330238E-002  0.1249993E+03  0.7818608E-02  0.1235070E+00
          4   -1    0    0  501    0  0.00000000000E+00  0.00000000000E+00  0.45610692019E+03  0.45610868830E+03  0.12700000000E+01 0. -1.
         -4   -1    0    0    0  501 -0.00000000000E+00 -0.00000000000E+00 -0.85153512581E+01  0.86095358207E+01  0.12700000000E+01 0. -1.
         25    2    1    2    0    0  0.00000000000E+00  0.00000000000E+00  0.44759156893E+03  0.46471822412E+03  0.12499926101E+03 0.  0.
    9000005    1    3    3    0    0  0.35986009722E+02 -0.46429663290E+02  0.14453690927E+03  0.15602123147E+03  0.10000000000E+01 0.  0.
    9000005    1    3    3    0    0 -0.35986009722E+02  0.46429663290E+02  0.30305465966E+03  0.30869699265E+03  0.10000000000E+01 0.  0.
<mgrwt>
<rscale>  0 0.12499926E+03</rscale>
<asrwt>0</asrwt>
<pdfrwt beam="1">  1        4 0.70177675E-01 0.12499926E+03</pdfrwt>
<pdfrwt beam="2">  1       -4 0.13174350E-02 0.12499926E+03</pdfrwt>
<totfact> 0.58710584E+03</totfact>
</mgrwt>
</event>
<event>
 5    1  0.3330238E-002  0.1249988E+03  0.7818608E-02  0.1235071E+00
         -4   -1    0    0    0  501 -0.00000000000E+00  0.00000000000E+00  0.10818962016E+03  0.10819707395E+03  0.12700000000E+01 0. -1.
          4   -1    0    0  501    0  0.00000000000E+00 -0.00000000000E+00 -0.36085046801E+02  0.36107388477E+02  0.12700000000E+01 0. -1.
         25    2    1    2    0    0  0.00000000000E+00  0.00000000000E+00  0.72104573359E+02  0.14430446242E+03  0.12499883350E+03 0.  0.
    9000005    1    3    3    0    0 -0.19320838780E+02  0.34793551552E+01 -0.32438371047E+02  0.37929522006E+02  0.10000000000E+01 0.  0.
    9000005    1    3    3    0    0  0.19320838780E+02 -0.34793551552E+01  0.10454294441E+03  0.10637494042E+03  0.10000000000E+01 0.  0.
<mgrwt>
<rscale>  0 0.12499883E+03</rscale>
<asrwt>0</asrwt>
<pdfrwt beam="2">  1        4 0.55538376E-02 0.12499883E+03</pdfrwt>
<pdfrwt beam="1">  1       -4 0.16646849E-01 0.12499883E+03</pdfrwt>
<totfact> 0.10045403E+04</totfact>
</mgrwt>
</event>
<event>
 5    1  0.3330238E-002  0.1250025E+03  0.7818608E-02  0.1235065E+00
         -4   -1    0    0    0  501 -0.00000000000E+00  0.00000000000E+00  0.64617487671E+01  0.65853699311E+01  0.12700000000E+01 0. -1.
          4   -1    0    0  501    0  0.00000000000E+00 -0.00000000000E+00 -0.59869095399E+03  0.59869230101E+03  0.12700000000E+01 0. -1.
         25    2    1    2    0    0  0.00000000000E+00  0.00000000000E+00 -0.59222920522E+03  0.60527767094E+03  0.12500250966E+03 0.  0.
    9000005    1    3    3    0    0  0.38183055287E+02 -0.14840981240E+02 -0.67598843649E+02  0.79049377593E+02  0.10000000000E+01 0.  0.
    9000005    1    3    3    0    0 -0.38183055287E+02  0.14840981240E+02 -0.52463036157E+03  0.52622829334E+03  0.10000000000E+01 0.  0.
<mgrwt>
<rscale>  0 0.12500251E+03</rscale>
<asrwt>0</asrwt>
<pdfrwt beam="2">  1        4 0.92115870E-01 0.12500251E+03</pdfrwt>
<pdfrwt beam="1">  1       -4 0.10037286E-02 0.12500251E+03</pdfrwt>
<totfact> 0.48533501E+03</totfact>
</mgrwt>
</event>
<event>
 4    1  0.3330238E-002  0.1251537E+03  0.7818608E-02  0.1234829E+00
         -4   -1    0    0    0  501 -0.00000000000E+00  0.00000000000E+00  0.21913000901E+03  0.21913368921E+03  0.12700000000E+01 0. -1.
          4   -1    0    0  501    0  0.00000000000E+00 -0.00000000000E+00 -0.17843637065E+02  0.17888775355E+02  0.12700000000E+01 0. -1.
    9000005    1    1    2    0    0 -0.51836144127E+02 -0.21032831551E+02  0.15372157116E+03  0.16358694105E+03  0.10000000000E+01 0.  0.
    9000005    1    1    2    0    0  0.51836144127E+02  0.21032831551E+02  0.47564800776E+02  0.73435523515E+02  0.10000000000E+01 0.  0.
<mgrwt>
<rscale>  0 0.12515369E+03</rscale>
<asrwt>0</asrwt>
<pdfrwt beam="2">  1        4 0.27489303E-02 0.12515369E+03</pdfrwt>
<pdfrwt beam="1">  1       -4 0.33716063E-01 0.12515369E+03</pdfrwt>
<totfact> 0.83954774E+03</totfact>
</mgrwt>
</event>
<event>
 5    1  0.3330238E-002  0.1250050E+03  0.7818608E-02  0.1235061E+00
         -4   -1    0    0    0  501 -0.00000000000E+00  0.00000000000E+00  0.38138564121E+03  0.38138775573E+03  0.12700000000E+01 0.  1.
          4   -1    0    0  501    0  0.00000000000E+00 -0.00000000000E+00 -0.10201557084E+02  0.10280304808E+02  0.12700000000E+01 0.  1.
         25    2    1    2    0    0  0.00000000000E+00  0.00000000000E+00  0.37118408412E+03  0.39166806054E+03  0.12500498125E+03 0.  0.
    9000005    1    3    3    0    0 -0.58132016600E+02  0.17694015483E+02  0.13984791578E+03  0.15248229106E+03  0.10000000000E+01 0.  0.
    9000005    1    3    3    0    0  0.58132016600E+02 -0.17694015483E+02  0.23133616834E+03  0.23918576948E+03  0.10000000000E+01 0.  0.
<mgrwt>
<rscale>  0 0.12500498E+03</rscale>
<asrwt>0</asrwt>
<pdfrwt beam="2">  1        4 0.15756908E-02 0.12500498E+03</pdfrwt>
<pdfrwt beam="1">  1       -4 0.58680923E-01 0.12500498E+03</pdfrwt>
<totfact> 0.65364105E+03</totfact>
</mgrwt>
</event>
<event>
 5    1  0.3330238E-002  0.1249948E+03  0.7818608E-02  0.1235077E+00
         -4   -1    0    0    0  501 -0.00000000000E+00  0.00000000000E+00  0.18570573572E+03  0.18571007829E+03  0.12700000000E+01 0.  1.
          4   -1    0    0  501    0  0.00000000000E+00 -0.00000000000E+00 -0.21009109540E+02  0.21047460267E+02  0.12700000000E+01 0.  1.
         25    2    1    2    0    0  0.00000000000E+00  0.00000000000E+00  0.16469662618E+03  0.20675753856E+03  0.12499480419E+03 0.  0.
    9000005    1    3    3    0    0 -0.51643795531E+02  0.35136038716E+02  0.79342329814E+02  0.10098429647E+03  0.10000000000E+01 0.  0.
    9000005    1    3    3    0    0  0.51643795531E+02 -0.35136038716E+02  0.85354296362E+02  0.10577324208E+03  0.10000000000E+01 0.  0.
<mgrwt>
<rscale>  0 0.12499480E+03</rscale>
<asrwt>0</asrwt>
<pdfrwt beam="2">  1        4 0.32354548E-02 0.12499480E+03</pdfrwt>
<pdfrwt beam="1">  1       -4 0.28573397E-01 0.12499480E+03</pdfrwt>
<totfact> 0.89018513E+03</totfact>
</mgrwt>
</event>
<event>
 5    1  0.3330238E-002  0.1249935E+03  0.7818608E-02  0.1235079E+00
          4   -1    0    0  501    0  0.00000000000E+00  0.00000000000E+00  0.68147291582E+03  0.68147409921E+03  0.12700000000E+01 0.  1.
         -4   -1    0    0    0  501 -0.00000000000E+00 -0.00000000000E+00 -0.56599190876E+01  0.58006537630E+01  0.12700000000E+01 0.  1.
         25    2    1    2    0    0  0.00000000000E+00  0.00000000000E+00  0.67581299673E+03  0.68727475297E+03  0.12499351793E+03 0.  0.
    9000005    1    3    3    0    0 -0.22500124355E+02  0.45454071084E+02  0.53862122138E+03  0.54100475810E+03  0.10000000000E+01 0.  0.
    9000005    1    3    3    0    0  0.22500124355E+02 -0.45454071084E+02  0.13719177535E+03  0.14626999487E+03  0.10000000000E+01 0.  0.
<mgrwt>
<rscale>  0 0.12499352E+03</rscale>
<asrwt>0</asrwt>
<pdfrwt beam="1">  1        4 0.10485286E+00 0.12499352E+03</pdfrwt>
<pdfrwt beam="2">  1       -4 0.88167394E-03 0.12499352E+03</pdfrwt>
<totfact> 0.43773232E+03</totfact>
</mgrwt>
</event>
<event>
 5    1  0.3330238E-002  0.1250078E+03  0.7818608E-02  0.1235057E+00
         -4   -1    0    0    0  501 -0.00000000000E+00  0.00000000000E+00  0.80632537461E+01  0.81626564900E+01  0.12700000000E+01 0. -1.
          4   -1    0    0  501    0  0.00000000000E+00 -0.00000000000E+00 -0.48144277202E+03  0.48144444709E+03  0.12700000000E+01 0. -1.
         25    2    1    2    0    0  0.00000000000E+00  0.00000000000E+00 -0.47337951828E+03  0.48960710358E+03  0.12500778996E+03 0.  0.
    9000005    1    3    3    0    0 -0.12578633627E+01  0.71321153196E+01  0.64334084153E+01  0.97384820691E+01  0.10000000000E+01 0.  0.
    9000005    1    3    3    0    0  0.12578633627E+01 -0.71321153196E+01 -0.47981292669E+03  0.47986862151E+03  0.10000000000E+01 0.  0.
<mgrwt>
<rscale>  0 0.12500779E+03</rscale>
<asrwt>0</asrwt>
<pdfrwt beam="2">  1        4 0.74075871E-01 0.12500779E+03</pdfrwt>
<pdfrwt beam="1">  1       -4 0.12482762E-02 0.12500779E+03</pdfrwt>
<totfact> 0.56670140E+03</totfact>
</mgrwt>
</event>
<event>
 5    1  0.3330238E-002  0.1249965E+03  0.7818608E-02  0.1235075E+00
         -4   -1    0    0    0  501 -0.00000000000E+00  0.00000000000E+00  0.66501803033E+01  0.67703617382E+01  0.12700000000E+01 0. -1.
          4   -1    0    0  501    0  0.00000000000E+00 -0.00000000000E+00 -0.58197689023E+03  0.58197827593E+03  0.12700000000E+01 0. -1.
         25    2    1    2    0    0  0.00000000000E+00  0.00000000000E+00 -0.57532670992E+03  0.58874863767E+03  0.12499654079E+03 0.  0.
    9000005    1    3    3    0    0  0.53313353093E+02 -0.32197336294E+02 -0.31170422156E+03  0.31786711661E+03  0.10000000000E+01 0.  0.
    9000005    1    3    3    0    0 -0.53313353093E+02  0.32197336294E+02 -0.26362248836E+03  0.27088152106E+03  0.10000000000E+01 0.  0.
<mgrwt>
<rscale>  0 0.12499654E+03</rscale>
<asrwt>0</asrwt>
<pdfrwt beam="2">  1        4 0.89544218E-01 0.12499654E+03</pdfrwt>
<pdfrwt beam="1">  1       -4 0.10324564E-02 0.12499654E+03</pdfrwt>
<totfact> 0.49589397E+03</totfact>
</mgrwt>
</event>
<event>
 5    1  0.3330238E-002  0.1250053E+03  0.7818608E-02  0.1235061E+00
          4   -1    0    0  501    0  0.00000000000E+00  0.00000000000E+00  0.14025084204E+03  0.14025659198E+03  0.12700000000E+01 0. -1.
         -4   -1    0    0    0  501 -0.00000000000E+00 -0.00000000000E+00 -0.27833446447E+02  0.27862405516E+02  0.12700000000E+01 0. -1.
         25    2    1    2    0    0  0.00000000000E+00  0.00000000000E+00  0.11241739560E+03  0.16811899749E+03  0.12500530583E+03 0.  0.
    9000005    1    3    3    0    0  0.28889705676E+02 -0.54898185696E+02  0.66376293076E+02  0.90858341221E+02  0.10000000000E+01 0.  0.
    9000005    1    3    3    0    0 -0.28889705676E+02  0.54898185696E+02  0.46041102519E+02  0.77260656274E+02  0.10000000000E+01 0.  0.
<mgrwt>
<rscale>  0 0.12500531E+03</rscale>
<asrwt>0</asrwt>
<pdfrwt beam="1">  1        4 0.21579723E-01 0.12500531E+03</pdfrwt>
<pdfrwt beam="2">  1       -4 0.42847386E-02 0.12500531E+03</pdfrwt>
<totfact> 0.95788528E+03</totfact>
</mgrwt>
</event>
<event>
 5    1  0.3330238E-002  0.1249999E+03  0.7818608E-02  0.1235069E+00
          4   -1    0    0  501    0  0.00000000000E+00  0.00000000000E+00  0.35001104508E+02  0.35024137631E+02  0.12700000000E+01 0. -1.
         -4   -1    0    0    0  501 -0.00000000000E+00 -0.00000000000E+00 -0.11154011763E+03  0.11154734753E+03  0.12700000000E+01 0. -1.
         25    2    1    2    0    0  0.00000000000E+00  0.00000000000E+00 -0.76539013119E+02  0.14657148516E+03  0.12499991893E+03 0.  0.
    9000005    1    3    3    0    0 -0.17491359557E+02 -0.58983337625E+02 -0.51128472808E+02  0.80000640674E+02  0.10000000000E+01 0.  0.
    9000005    1    3    3    0    0  0.17491359557E+02  0.58983337625E+02 -0.25410540310E+02  0.66570844484E+02  0.10000000000E+01 0.  0.
<mgrwt>
<rscale>  0 0.12499992E+03</rscale>
<asrwt>0</asrwt>
<pdfrwt beam="1">  1        4 0.53871133E-02 0.12499992E+03</pdfrwt>
<pdfrwt beam="2">  1       -4 0.17162346E-01 0.12499992E+03</pdfrwt>
<totfact> 0.99991748E+03</totfact>
</mgrwt>
</event>
<event>
 5    1  0.3330238E-002  0.1249990E+03  0.7818608E-02  0.1235071E+00
          4   -1    0    0  501    0  0.00000000000E+00  0.00000000000E+00  0.15514699414E+03  0.15515219203E+03  0.12700000000E+01 0. -1.
         -4   -1    0    0    0  501 -0.00000000000E+00 -0.00000000000E+00 -0.25155710777E+02  0.25187748702E+02  0.12700000000E+01 0. -1.
         25    2    1    2    0    0  0.00000000000E+00  0.00000000000E+00  0.12999128337E+03  0.18033994073E+03  0.12499904188E+03 0.  0.
    9000005    1    3    3    0    0  0.13131035163E+02 -0.57634731312E+02  0.94244447997E+02  0.11125287554E+03  0.10000000000E+01 0.  0.
    9000005    1    3    3    0    0 -0.13131035163E+02  0.57634731312E+02  0.35746835369E+02  0.69087065191E+02  0.10000000000E+01 0.  0.
<mgrwt>
<rscale>  0 0.12499904E+03</rscale>
<asrwt>0</asrwt>
<pdfrwt beam="1">  1        4 0.23871633E-01 0.12499904E+03</pdfrwt>
<pdfrwt beam="2">  1       -4 0.38729736E-02 0.12499904E+03</pdfrwt>
<totfact> 0.93557858E+03</totfact>
</mgrwt>
</event>
<event>
 5    1  0.3330238E-002  0.1249762E+03  0.7818608E-02  0.1235106E+00
          4   -1    0    0  501    0  0.00000000000E+00  0.00000000000E+00  0.13148747385E+03  0.13149360699E+03  0.12700000000E+01 0. -1.
         -4   -1    0    0    0  501 -0.00000000000E+00 -0.00000000000E+00 -0.29676451374E+02  0.29703613688E+02  0.12700000000E+01 0. -1.
         25    2    1    2    0    0  0.00000000000E+00  0.00000000000E+00  0.10181102248E+03  0.16119722068E+03  0.12497623637E+03 0.  0.
    9000005    1    3    3    0    0  0.26741390319E+02 -0.13425040066E+02  0.12165122846E+03  0.12528110410E+03  0.10000000000E+01 0.  0.
    9000005    1    3    3    0    0 -0.26741390319E+02  0.13425040066E+02 -0.19840205986E+02  0.35916116585E+02  0.10000000000E+01 0.  0.
<mgrwt>
<rscale>  0 0.12497624E+03</rscale>
<asrwt>0</asrwt>
<pdfrwt beam="1">  1        4 0.20231403E-01 0.12497624E+03</pdfrwt>
<pdfrwt beam="2">  1       -4 0.45681692E-02 0.12497624E+03</pdfrwt>
<totfact> 0.97164349E+03</totfact>
</mgrwt>
</event>
<event>
 5    1  0.3330238E-002  0.1249951E+03  0.7818608E-02  0.1235077E+00
          4   -1    0    0  501    0  0.00000000000E+00  0.00000000000E+00  0.91463374500E+03  0.91463462672E+03  0.12700000000E+01 0.  1.
         -4   -1    0    0    0  501 -0.00000000000E+00 -0.00000000000E+00 -0.41751763692E+01  0.43640574829E+01  0.12700000000E+01 0.  1.
         25    2    1    2    0    0  0.00000000000E+00  0.00000000000E+00  0.91045856863E+03  0.91899868420E+03  0.12499510539E+03 0.  0.
    9000005    1    3    3    0    0  0.27128428872E+02 -0.34726963975E+02  0.12947855512E+03  0.13677576509E+03  0.10000000000E+01 0.  0.
    9000005    1    3    3    0    0 -0.27128428872E+02  0.34726963975E+02  0.78098001352E+03  0.78222291912E+03  0.10000000000E+01 0.  0.
<mgrwt>
<rscale>  0 0.12499511E+03</rscale>
<asrwt>0</asrwt>
<pdfrwt beam="1">  1        4 0.14072756E+00 0.12499511E+03</pdfrwt>
<pdfrwt beam="2">  1       -4 0.65693158E-03 0.12499511E+03</pdfrwt>
<totfact> 0.33446358E+03</totfact>
</mgrwt>
</event>
<event>
 5    1  0.3330238E-002  0.1249970E+03  0.7818608E-02  0.1235074E+00
          4   -1    0    0  501    0  0.00000000000E+00  0.00000000000E+00  0.58357578825E+02  0.58371396302E+02  0.12700000000E+01 0.  1.
         -4   -1    0    0    0  501 -0.00000000000E+00 -0.00000000000E+00 -0.66905472563E+02  0.66917525051E+02  0.12700000000E+01 0.  1.
         25    2    1    2    0    0  0.00000000000E+00  0.00000000000E+00 -0.85478937384E+01  0.12528892135E+03  0.12499698927E+03 0.  0.
    9000005    1    3    3    0    0 -0.45026127292E+02  0.26616429412E+02  0.30000584076E+02  0.60306065188E+02  0.10000000000E+01 0.  0.
    9000005    1    3    3    0    0  0.45026127292E+02 -0.26616429412E+02 -0.38548477814E+02  0.64982856165E+02  0.10000000000E+01 0.  0.
<mgrwt>
<rscale>  0 0.12499699E+03</rscale>
<asrwt>0</asrwt>
<pdfrwt beam="1">  1        4 0.89800790E-02 0.12499699E+03</pdfrwt>
<pdfrwt beam="2">  1       -4 0.10295140E-01 0.12499699E+03</pdfrwt>
<totfact> 0.10447301E+04</totfact>
</mgrwt>
</event>
<event>
 5    1  0.3330238E-002  0.1250034E+03  0.7818608E-02  0.1235064E+00
          4   -1    0    0  501    0  0.00000000000E+00  0.00000000000E+00  0.12397511995E+04  0.12397518500E+04  0.12700000000E+01 0.  1.
         -4   -1    0    0    0  501 -0.00000000000E+00 -0.00000000000E+00 -0.30223579697E+01  0.32783452681E+01  0.12700000000E+01 0.  1.
         25    2    1    2    0    0  0.00000000000E+00  0.00000000000E+00  0.12367288415E+04  0.12430301952E+04  0.12500335539E+03 0.  0.
    9000005    1    3    3    0    0  0.32182740908E+02  0.47421462343E+02  0.37057465693E+03  0.37498146656E+03  0.10000000000E+01 0.  0.
    9000005    1    3    3    0    0 -0.32182740908E+02 -0.47421462343E+02  0.86615418458E+03  0.86804872869E+03  0.10000000000E+01 0.  0.
<mgrwt>
<rscale>  0 0.12500336E+03</rscale>
<asrwt>0</asrwt>
<pdfrwt beam="1">  1        4 0.19075093E+00 0.12500336E+03</pdfrwt>
<pdfrwt beam="2">  1       -4 0.48471891E-03 0.12500336E+03</pdfrwt>
<totfact> 0.23611621E+03</totfact>
</mgrwt>
</event>
<event>
 5    1  0.3330238E-002  0.1249978E+03  0.7818608E-02  0.1235073E+00
         -4   -1    0    0    0  501 -0.00000000000E+00  0.00000000000E+00  0.23338387385E+03  0.23338732929E+03  0.12700000000E+01 0. -1.
          4   -1    0    0  501    0  0.00000000000E+00 -0.00000000000E+00 -0.16709191799E+02  0.16757386150E+02  0.12700000000E+01 0. -1.
         25    2    1    2    0    0  0.00000000000E+00  0.00000000000E+00  0.21667468205E+03  0.25014471544E+03  0.12499784326E+03 0.  0.
    9000005    1    3    3    0    0  0.33883207560E+02 -0.49767972959E+02  0.14183519036E+03  0.15408810503E+03  0.10000000000E+01 0.  0.
    9000005    1    3    3    0    0 -0.33883207560E+02  0.49767972959E+02  0.74839491689E+02  0.96056610409E+02  0.10000000000E+01 0.  0.
<mgrwt>
<rscale>  0 0.12499784E+03</rscale>
<asrwt>0</asrwt>
<pdfrwt beam="2">  1        4 0.25746180E-02 0.12499784E+03</pdfrwt>
<pdfrwt beam="1">  1       -4 0.35909183E-01 0.12499784E+03</pdfrwt>
<totfact> 0.82313271E+03</totfact>
</mgrwt>
</event>
<event>
 5    1  0.3330238E-002  0.1249862E+03  0.7818608E-02  0.1235091E+00
          4   -1    0    0  501    0  0.00000000000E+00  0.00000000000E+00  0.14851008688E+03  0.14851551705E+03  0.12700000000E+01 0.  1.
         -4   -1    0    0    0  501 -0.00000000000E+00 -0.00000000000E+00 -0.26275854144E+02  0.26306527916E+02  0.12700000000E+01 0.  1.
         25    2    1    2    0    0  0.00000000000E+00  0.00000000000E+00  0.12223423274E+03  0.17482204497E+03  0.12498615825E+03 0.  0.
    9000005    1    3    3    0    0 -0.57178183503E+02 -0.85024567762E+01  0.94298267556E+02  0.11061102885E+03  0.10000000000E+01 0.  0.
    9000005    1    3    3    0    0  0.57178183503E+02  0.85024567762E+01  0.27935965180E+02  0.64211016114E+02  0.10000000000E+01 0.  0.
<mgrwt>
<rscale>  0 0.12498616E+03</rscale>
<asrwt>0</asrwt>
<pdfrwt beam="1">  1        4 0.22850483E-01 0.12498616E+03</pdfrwt>
<pdfrwt beam="2">  1       -4 0.40452162E-02 0.12498616E+03</pdfrwt>
<totfact> 0.94586810E+03</totfact>
</mgrwt>
</event>
<event>
 5    1  0.3330238E-002  0.1250030E+03  0.7818608E-02  0.1235065E+00
         -4   -1    0    0    0  501 -0.00000000000E+00  0.00000000000E+00  0.10434840177E+03  0.10435612992E+03  0.12700000000E+01 0.  1.
          4   -1    0    0  501    0  0.00000000000E+00 -0.00000000000E+00 -0.37416591314E+02  0.37438138382E+02  0.12700000000E+01 0.  1.
         25    2    1    2    0    0  0.00000000000E+00  0.00000000000E+00  0.66931810452E+02  0.14179426830E+03  0.12500298905E+03 0.  0.
    9000005    1    3    3    0    0 -0.40817045459E+01  0.61107191609E+02  0.19357884655E+02  0.64237659334E+02  0.10000000000E+01 0.  0.
    9000005    1    3    3    0    0  0.40817045459E+01 -0.61107191609E+02  0.47573925797E+02  0.77556608965E+02  0.10000000000E+01 0.  0.
<mgrwt>
<rscale>  0 0.12500299E+03</rscale>
<asrwt>0</asrwt>
<pdfrwt beam="2">  1        4 0.57586507E-02 0.12500299E+03</pdfrwt>
<pdfrwt beam="1">  1       -4 0.16055852E-01 0.12500299E+03</pdfrwt>
<totfact> 0.10095853E+04</totfact>
</mgrwt>
</event>
<event>
 5    1  0.3330238E-002  0.1249984E+03  0.7818608E-02  0.1235072E+00
         -4   -1    0    0    0  501 -0.00000000000E+00  0.00000000000E+00  0.78759088788E+02  0.78769327576E+02  0.12700000000E+01 0.  1.
          4   -1    0    0  501    0  0.00000000000E+00 -0.00000000000E+00 -0.49574601431E+02  0.49590866165E+02  0.12700000000E+01 0.  1.
         25    2    1    2    0    0  0.00000000000E+00  0.00000000000E+00  0.29184487357E+02  0.12836019374E+03  0.12499842013E+03 0.  0.
    9000005    1    3    3    0    0  0.35061558441E+01  0.54119798251E+02 -0.17289574766E+02  0.56931319035E+02  0.10000000000E+01 0.  0.
    9000005    1    3    3    0    0 -0.35061558441E+01 -0.54119798251E+02  0.46474062123E+02  0.71428874706E+02  0.10000000000E+01 0.  0.
<mgrwt>
<rscale>  0 0.12499842E+03</rscale>
<asrwt>0</asrwt>
<pdfrwt beam="2">  1        4 0.76289005E-02 0.12499842E+03</pdfrwt>
<pdfrwt beam="1">  1       -4 0.12118822E-01 0.12499842E+03</pdfrwt>
<totfact> 0.10380086E+04</totfact>
</mgrwt>
</event>
<event>
 5    1  0.3330238E-002  0.1249991E+03  0.7818608E-02  0.1235071E+00
         -4   -1    0    0    0  501 -0.00000000000E+00  0.00000000000E+00  0.38132258227E+03  0.38132469714E+03  0.12700000000E+01 0. -1.
          4   -1    0    0  501    0  0.00000000000E+00 -0.00000000000E+00 -0.10202296610E+02  0.10281038669E+02  0.12700000000E+01 0. -1.
         25    2    1    2    0    0  0.00000000000E+00  0.00000000000E+00  0.37112028566E+03  0.39160573581E+03  0.12499914356E+03 0.  0.
    9000005    1    3    3    0    0 -0.80784655462E+01 -0.46603246550E+02  0.57607447363E+02  0.74543558986E+02  0.10000000000E+01 0.  0.
    9000005    1    3    3    0    0  0.80784655462E+01  0.46603246550E+02  0.31351283830E+03  0.31706217683E+03  0.10000000000E+01 0.  0.
<mgrwt>
<rscale>  0 0.12499914E+03</rscale>
<asrwt>0</asrwt>
<pdfrwt beam="2">  1        4 0.15758039E-02 0.12499914E+03</pdfrwt>
<pdfrwt beam="1">  1       -4 0.58671233E-01 0.12499914E+03</pdfrwt>
<totfact> 0.65378710E+03</totfact>
</mgrwt>
</event>
<event>
 5    1  0.3330238E-002  0.1249982E+03  0.7818608E-02  0.1235072E+00
         -4   -1    0    0    0  501 -0.00000000000E+00  0.00000000000E+00  0.11247953759E+02  0.11319424180E+02  0.12700000000E+01 0.  1.
          4   -1    0    0  501    0  0.00000000000E+00 -0.00000000000E+00 -0.34610291096E+03  0.34610524104E+03  0.12700000000E+01 0.  1.
         25    2    1    2    0    0  0.00000000000E+00  0.00000000000E+00 -0.33485495720E+03  0.35742466522E+03  0.12499819577E+03 0.  0.
    9000005    1    3    3    0    0 -0.59763934015E+02 -0.44473047414E+01 -0.21806707112E+03  0.22615426999E+03  0.10000000000E+01 0.  0.
    9000005    1    3    3    0    0  0.59763934015E+02  0.44473047414E+01 -0.11678788608E+03  0.13127039523E+03  0.10000000000E+01 0.  0.
<mgrwt>
<rscale>  0 0.12499820E+03</rscale>
<asrwt>0</asrwt>
<pdfrwt beam="2">  1        4 0.53252270E-01 0.12499820E+03</pdfrwt>
<pdfrwt beam="1">  1       -4 0.17361317E-02 0.12499820E+03</pdfrwt>
<totfact> 0.68918156E+03</totfact>
</mgrwt>
</event>
<event>
 5    1  0.3330238E-002  0.1249954E+03  0.7818608E-02  0.1235076E+00
         -4   -1    0    0    0  501 -0.00000000000E+00  0.00000000000E+00  0.27509366367E+02  0.27538666233E+02  0.12700000000E+01 0.  1.
          4   -1    0    0  501    0  0.00000000000E+00 -0.00000000000E+00 -0.14187891051E+03  0.14188459447E+03  0.12700000000E+01 0.  1.
         25    2    1    2    0    0  0.00000000000E+00  0.00000000000E+00 -0.11436954415E+03  0.16942326071E+03  0.12499539447E+03 0.  0.
    9000005    1    3    3    0    0  0.53653667829E+02 -0.30000659696E+02 -0.72411966625E+02  0.94990781470E+02  0.10000000000E+01 0.  0.
    9000005    1    3    3    0    0 -0.53653667829E+02  0.30000659696E+02 -0.41957577523E+02  0.74432479237E+02  0.10000000000E+01 0.  0.
<mgrwt>
<rscale>  0 0.12499539E+03</rscale>
<asrwt>0</asrwt>
<pdfrwt beam="2">  1        4 0.21830215E-01 0.12499539E+03</pdfrwt>
<pdfrwt beam="1">  1       -4 0.42349013E-02 0.12499539E+03</pdfrwt>
<totfact> 0.95566075E+03</totfact>
</mgrwt>
</event>
<event>
 5    1  0.3330238E-002  0.1249980E+03  0.7818608E-02  0.1235072E+00
          4   -1    0    0  501    0  0.00000000000E+00  0.00000000000E+00  0.27445512991E+01  0.30241464636E+01  0.12700000000E+01 0. -1.
         -4   -1    0    0    0  501 -0.00000000000E+00 -0.00000000000E+00 -0.13539677100E+04  0.13539683057E+04  0.12700000000E+01 0. -1.
         25    2    1    2    0    0  0.00000000000E+00  0.00000000000E+00 -0.13512231587E+04  0.13569924521E+04  0.12499796159E+03 0.  0.
    9000005    1    3    3    0    0 -0.30121449557E+02 -0.26469331672E+01 -0.81908571976E+02  0.87317364491E+02  0.10000000000E+01 0.  0.
    9000005    1    3    3    0    0  0.30121449557E+02  0.26469331672E+01 -0.12693145868E+04  0.12696750876E+04  0.10000000000E+01 0.  0.
<mgrwt>
<rscale>  0 0.12499796E+03</rscale>
<asrwt>0</asrwt>
<pdfrwt beam="1">  1        4 0.44379288E-03 0.12499796E+03</pdfrwt>
<pdfrwt beam="2">  1       -4 0.20832377E+00 0.12499796E+03</pdfrwt>
<totfact> 0.20922962E+03</totfact>
</mgrwt>
</event>
<event>
 5    1  0.3330238E-002  0.1249852E+03  0.7818608E-02  0.1235092E+00
         -4   -1    0    0    0  501 -0.00000000000E+00  0.00000000000E+00  0.50433084890E+02  0.50449072851E+02  0.12700000000E+01 0.  1.
          4   -1    0    0  501    0  0.00000000000E+00 -0.00000000000E+00 -0.77402314229E+02  0.77412732467E+02  0.12700000000E+01 0.  1.
         25    2    1    2    0    0  0.00000000000E+00  0.00000000000E+00 -0.26969229340E+02  0.12786180532E+03  0.12498520684E+03 0.  0.
    9000005    1    3    3    0    0 -0.40182700683E+02  0.28758212819E+02  0.25640094884E+02  0.55678530012E+02  0.10000000000E+01 0.  0.
    9000005    1    3    3    0    0  0.40182700683E+02 -0.28758212819E+02 -0.52609324224E+02  0.72183275306E+02  0.10000000000E+01 0.  0.
<mgrwt>
<rscale>  0 0.12498521E+03</rscale>
<asrwt>0</asrwt>
<pdfrwt beam="2">  1        4 0.11910080E-01 0.12498521E+03</pdfrwt>
<pdfrwt beam="1">  1       -4 0.77609674E-02 0.12498521E+03</pdfrwt>
<totfact> 0.10393944E+04</totfact>
</mgrwt>
</event>
<event>
 5    1  0.3330238E-002  0.1249982E+03  0.7818608E-02  0.1235072E+00
         -4   -1    0    0    0  501 -0.00000000000E+00  0.00000000000E+00  0.56324461257E+03  0.56324604436E+03  0.12700000000E+01 0.  1.
          4   -1    0    0  501    0  0.00000000000E+00 -0.00000000000E+00 -0.68754736228E+01  0.69917835735E+01  0.12700000000E+01 0.  1.
         25    2    1    2    0    0  0.00000000000E+00  0.00000000000E+00  0.55636913895E+03  0.57023782794E+03  0.12499824653E+03 0.  0.
    9000005    1    3    3    0    0  0.39744767107E+02 -0.38786345210E+02  0.14746107402E+03  0.15757472969E+03  0.10000000000E+01 0.  0.
    9000005    1    3    3    0    0 -0.39744767107E+02  0.38786345210E+02  0.40890806493E+03  0.41266309824E+03  0.10000000000E+01 0.  0.
<mgrwt>
<rscale>  0 0.12499825E+03</rscale>
<asrwt>0</asrwt>
<pdfrwt beam="2">  1        4 0.10668227E-02 0.12499825E+03</pdfrwt>
<pdfrwt beam="1">  1       -4 0.86662039E-01 0.12499825E+03</pdfrwt>
<totfact> 0.50803811E+03</totfact>
</mgrwt>
</event>
<event>
 5    1  0.3330238E-002  0.1249995E+03  0.7818608E-02  0.1235070E+00
         -4   -1    0    0    0  501 -0.00000000000E+00  0.00000000000E+00  0.11275932453E+02  0.11347226652E+02  0.12700000000E+01 0. -1.
          4   -1    0    0  501    0  0.00000000000E+00 -0.00000000000E+00 -0.34525691588E+03  0.34525925167E+03  0.12700000000E+01 0. -1.
         25    2    1    2    0    0  0.00000000000E+00  0.00000000000E+00 -0.33398098342E+03  0.35660647832E+03  0.12499953236E+03 0.  0.
    9000005    1    3    3    0    0 -0.14162766015E+02 -0.52916489891E+02 -0.81191775936E+02  0.97948166513E+02  0.10000000000E+01 0.  0.
    9000005    1    3    3    0    0  0.14162766015E+02  0.52916489891E+02 -0.25278920749E+03  0.25865831180E+03  0.10000000000E+01 0.  0.
<mgrwt>
<rscale>  0 0.12499953E+03</rscale>
<asrwt>0</asrwt>
<pdfrwt beam="2">  1        4 0.53122104E-01 0.12499953E+03</pdfrwt>
<pdfrwt beam="1">  1       -4 0.17404229E-02 0.12499953E+03</pdfrwt>
<totfact> 0.69004543E+03</totfact>
</mgrwt>
</event>
<event>
 5    1  0.3330238E-002  0.1249939E+03  0.7818608E-02  0.1235079E+00
         -4   -1    0    0    0  501 -0.00000000000E+00  0.00000000000E+00  0.62410990450E+02  0.62423910715E+02  0.12700000000E+01 0.  1.
          4   -1    0    0  501    0  0.00000000000E+00 -0.00000000000E+00 -0.62557176066E+02  0.62570066145E+02  0.12700000000E+01 0.  1.
         25    2    1    2    0    0  0.00000000000E+00  0.00000000000E+00 -0.14618561580E+00  0.12499397686E+03  0.12499389137E+03 0.  0.
    9000005    1    3    3    0    0  0.89911258187E+01 -0.25467483831E+02 -0.56424130842E+02  0.62562893295E+02  0.10000000000E+01 0.  0.
    9000005    1    3    3    0    0 -0.89911258187E+01  0.25467483831E+02  0.56277945226E+02  0.62431083565E+02  0.10000000000E+01 0.  0.
<mgrwt>
<rscale>  0 0.12499389E+03</rscale>
<asrwt>0</asrwt>
<pdfrwt beam="2">  1        4 0.96261664E-02 0.12499389E+03</pdfrwt>
<pdfrwt beam="1">  1       -4 0.96036762E-02 0.12499389E+03</pdfrwt>
<totfact> 0.10454437E+04</totfact>
</mgrwt>
</event>
<event>
 5    1  0.3330238E-002  0.1249962E+03  0.7818608E-02  0.1235075E+00
         -4   -1    0    0    0  501 -0.00000000000E+00  0.00000000000E+00  0.39072119800E+03  0.39072326200E+03  0.12700000000E+01 0. -1.
          4   -1    0    0  501    0  0.00000000000E+00 -0.00000000000E+00 -0.99544926019E+01  0.10035179269E+02  0.12700000000E+01 0. -1.
         25    2    1    2    0    0  0.00000000000E+00  0.00000000000E+00  0.38076670540E+03  0.40075844127E+03  0.12499617717E+03 0.  0.
    9000005    1    3    3    0    0  0.24329475368E+00 -0.41930460796E+02  0.33893605689E+03  0.34152140987E+03  0.10000000000E+01 0.  0.
    9000005    1    3    3    0    0 -0.24329475368E+00  0.41930460796E+02  0.41830648506E+02  0.59237031402E+02  0.10000000000E+01 0.  0.
<mgrwt>
<rscale>  0 0.12499618E+03</rscale>
<asrwt>0</asrwt>
<pdfrwt beam="2">  1        4 0.15378259E-02 0.12499618E+03</pdfrwt>
<pdfrwt beam="1">  1       -4 0.60117318E-01 0.12499618E+03</pdfrwt>
<totfact> 0.64484532E+03</totfact>
</mgrwt>
</event>
<event>
 5    1  0.3330238E-002  0.1249973E+03  0.7818608E-02  0.1235073E+00
         -4   -1    0    0    0  501 -0.00000000000E+00  0.00000000000E+00  0.41140111793E+02  0.41159709648E+02  0.12700000000E+01 0.  1.
          4   -1    0    0  501    0  0.00000000000E+00 -0.00000000000E+00 -0.94899355126E+02  0.94907852696E+02  0.12700000000E+01 0.  1.
         25    2    1    2    0    0  0.00000000000E+00  0.00000000000E+00 -0.53759243333E+02  0.13606756234E+03  0.12499730109E+03 0.  0.
    9000005    1    3    3    0    0  0.26281807420E+02  0.38126928176E+00 -0.88594601204E+02  0.92416893099E+02  0.10000000000E+01 0.  0.
    9000005    1    3    3    0    0 -0.26281807420E+02 -0.38126928176E+00  0.34835357871E+02  0.43650669245E+02  0.10000000000E+01 0.  0.
<mgrwt>
<rscale>  0 0.12499730E+03</rscale>
<asrwt>0</asrwt>
<pdfrwt beam="2">  1        4 0.14602062E-01 0.12499730E+03</pdfrwt>
<pdfrwt beam="1">  1       -4 0.63314092E-02 0.12499730E+03</pdfrwt>
<totfact> 0.10216240E+04</totfact>
</mgrwt>
</event>
<event>
 5    1  0.3330238E-002  0.1250021E+03  0.7818608E-02  0.1235066E+00
          4   -1    0    0  501    0  0.00000000000E+00  0.00000000000E+00  0.25196435025E+03  0.25196755088E+03  0.12700000000E+01 0.  1.
         -4   -1    0    0    0  501 -0.00000000000E+00 -0.00000000000E+00 -0.15474382828E+02  0.15526410529E+02  0.12700000000E+01 0.  1.
         25    2    1    2    0    0  0.00000000000E+00  0.00000000000E+00  0.23648996743E+03  0.26749396141E+03  0.12500205878E+03 0.  0.
    9000005    1    3    3    0    0  0.59102433331E+02 -0.20302837330E+02  0.11883431833E+03  0.13426800826E+03  0.10000000000E+01 0.  0.
    9000005    1    3    3    0    0 -0.59102433331E+02  0.20302837330E+02  0.11765564909E+03  0.13322595315E+03  0.10000000000E+01 0.  0.
<mgrwt>
<rscale>  0 0.12500206E+03</rscale>
<asrwt>0</asrwt>
<pdfrwt beam="1">  1        4 0.38767990E-01 0.12500206E+03</pdfrwt>
<pdfrwt beam="2">  1       -4 0.23849229E-02 0.12500206E+03</pdfrwt>
<totfact> 0.79862103E+03</totfact>
</mgrwt>
</event>
<event>
 4    1  0.3330238E-002  0.1251159E+03  0.7818608E-02  0.1234888E+00
          4   -1    0    0  501    0  0.00000000000E+00  0.00000000000E+00  0.19141305023E+04  0.19141309236E+04  0.12700000000E+01 0.  1.
         -4   -1    0    0    0  501 -0.00000000000E+00 -0.00000000000E+00 -0.18468464188E+01  0.22413704948E+01  0.12700000000E+01 0.  1.
    9000005    1    1    2    0    0  0.22648664024E+02  0.79097075009E+01  0.18409388238E+04  0.18410954018E+04  0.10000000000E+01 0.  0.
    9000005    1    1    2    0    0 -0.22648664024E+02 -0.79097075009E+01  0.71344832052E+02  0.75276892307E+02  0.10000000000E+01 0.  0.
<mgrwt>
<rscale>  0 0.12511590E+03</rscale>
<asrwt>0</asrwt>
<pdfrwt beam="1">  1        4 0.29451277E+00 0.12511590E+03</pdfrwt>
<pdfrwt beam="2">  1       -4 0.31450980E-03 0.12511590E+03</pdfrwt>
<totfact> 0.10964486E+03</totfact>
</mgrwt>
</event>
<event>
 5    1  0.3330238E-002  0.1250004E+03  0.7818608E-02  0.1235069E+00
         -4   -1    0    0    0  501 -0.00000000000E+00  0.00000000000E+00  0.12248725526E+03  0.12249383903E+03  0.12700000000E+01 0. -1.
          4   -1    0    0  501    0  0.00000000000E+00 -0.00000000000E+00 -0.31871184428E+02  0.31896477813E+02  0.12700000000E+01 0. -1.
         25    2    1    2    0    0  0.00000000000E+00  0.00000000000E+00  0.90616070828E+02  0.15439031684E+03  0.12500039057E+03 0.  0.
    9000005    1    3    3    0    0  0.55758299160E+01 -0.61429456414E+02  0.57696615348E+02  0.84466368557E+02  0.10000000000E+01 0.  0.
    9000005    1    3    3    0    0 -0.55758299160E+01  0.61429456414E+02  0.32919455480E+02  0.69923948285E+02  0.10000000000E+01 0.  0.
<mgrwt>
<rscale>  0 0.12500039E+03</rscale>
<asrwt>0</asrwt>
<pdfrwt beam="2">  1        4 0.49057113E-02 0.12500039E+03</pdfrwt>
<pdfrwt beam="1">  1       -4 0.18846645E-01 0.12500039E+03</pdfrwt>
<totfact> 0.98434456E+03</totfact>
</mgrwt>
</event>
<event>
 5    1  0.3330238E-002  0.1250040E+03  0.7818608E-02  0.1235063E+00
          4   -1    0    0  501    0  0.00000000000E+00  0.00000000000E+00  0.15245858492E+03  0.15246387447E+03  0.12700000000E+01 0.  1.
         -4   -1    0    0    0  501 -0.00000000000E+00 -0.00000000000E+00 -0.25601887093E+02  0.25633367370E+02  0.12700000000E+01 0.  1.
         25    2    1    2    0    0  0.00000000000E+00  0.00000000000E+00  0.12685669783E+03  0.17809724184E+03  0.12500402299E+03 0.  0.
    9000005    1    3    3    0    0 -0.27865887142E+02 -0.21261360092E+02  0.13714289555E+03  0.14155467812E+03  0.10000000000E+01 0.  0.
    9000005    1    3    3    0    0  0.27865887142E+02  0.21261360092E+02 -0.10286197718E+02  0.36542563712E+02  0.10000000000E+01 0.  0.
<mgrwt>
<rscale>  0 0.12500402E+03</rscale>
<asrwt>0</asrwt>
<pdfrwt beam="1">  1        4 0.23457995E-01 0.12500402E+03</pdfrwt>
<pdfrwt beam="2">  1       -4 0.39415804E-02 0.12500402E+03</pdfrwt>
<totfact> 0.93952155E+03</totfact>
</mgrwt>
</event>
<event>
 5    1  0.3330238E-002  0.1250019E+03  0.7818608E-02  0.1235066E+00
          4   -1    0    0  501    0  0.00000000000E+00  0.00000000000E+00  0.32400962667E+02  0.32425842807E+02  0.12700000000E+01 0.  1.
         -4   -1    0    0    0  501 -0.00000000000E+00 -0.00000000000E+00 -0.12048886380E+03  0.12049555676E+03  0.12700000000E+01 0.  1.
         25    2    1    2    0    0  0.00000000000E+00  0.00000000000E+00 -0.88087901133E+02  0.15292139957E+03  0.12500190447E+03 0.  0.
    9000005    1    3    3    0    0 -0.25554408816E+02  0.37081706135E+02 -0.97048984880E+02  0.10699339328E+03  0.10000000000E+01 0.  0.
    9000005    1    3    3    0    0  0.25554408816E+02 -0.37081706135E+02  0.89610837465E+01  0.45928006290E+02  0.10000000000E+01 0.  0.
<mgrwt>
<rscale>  0 0.12500190E+03</rscale>
<asrwt>0</asrwt>
<pdfrwt beam="1">  1        4 0.49871922E-02 0.12500190E+03</pdfrwt>
<pdfrwt beam="2">  1       -4 0.18539177E-01 0.12500190E+03</pdfrwt>
<totfact> 0.98720286E+03</totfact>
</mgrwt>
</event>
<event>
 5    1  0.3330238E-002  0.1249997E+03  0.7818608E-02  0.1235070E+00
         -4   -1    0    0    0  501 -0.00000000000E+00  0.00000000000E+00  0.31768729724E+02  0.31794104616E+02  0.12700000000E+01 0. -1.
          4   -1    0    0  501    0  0.00000000000E+00 -0.00000000000E+00 -0.12288056580E+03  0.12288712850E+03  0.12700000000E+01 0. -1.
         25    2    1    2    0    0  0.00000000000E+00  0.00000000000E+00 -0.91111836073E+02  0.15468123311E+03  0.12499966882E+03 0.  0.
    9000005    1    3    3    0    0 -0.45055515267E+02 -0.41898629799E+02 -0.59096543245E+02  0.85316446588E+02  0.10000000000E+01 0.  0.
    9000005    1    3    3    0    0  0.45055515267E+02  0.41898629799E+02 -0.32015292828E+02  0.69364786526E+02  0.10000000000E+01 0.  0.
<mgrwt>
<rscale>  0 0.12499967E+03</rscale>
<asrwt>0</asrwt>
<pdfrwt beam="2">  1        4 0.18907159E-01 0.12499967E+03</pdfrwt>
<pdfrwt beam="1">  1       -4 0.48899537E-02 0.12499967E+03</pdfrwt>
<totfact> 0.98378846E+03</totfact>
</mgrwt>
</event>
<event>
 5    1  0.3330238E-002  0.1250005E+03  0.7818608E-02  0.1235069E+00
          4   -1    0    0  501    0  0.00000000000E+00  0.00000000000E+00  0.74075809217E+02  0.74086695237E+02  0.12700000000E+01 0.  1.
         -4   -1    0    0    0  501 -0.00000000000E+00 -0.00000000000E+00 -0.52711151559E+02  0.52726448758E+02  0.12700000000E+01 0.  1.
         25    2    1    2    0    0  0.00000000000E+00  0.00000000000E+00  0.21364657658E+02  0.12681314400E+03  0.12500049957E+03 0.  0.
    9000005    1    3    3    0    0 -0.36585589582E+02  0.12377343430E+02 -0.39158255000E+02  0.55009753045E+02  0.10000000000E+01 0.  0.
    9000005    1    3    3    0    0  0.36585589582E+02 -0.12377343430E+02  0.60522912658E+02  0.71803390950E+02  0.10000000000E+01 0.  0.
<mgrwt>
<rscale>  0 0.12500050E+03</rscale>
<asrwt>0</asrwt>
<pdfrwt beam="1">  1        4 0.11398292E-01 0.12500050E+03</pdfrwt>
<pdfrwt beam="2">  1       -4 0.81114221E-02 0.12500050E+03</pdfrwt>
<totfact> 0.10413090E+04</totfact>
</mgrwt>
</event>
<event>
 5    1  0.3330238E-002  0.1249971E+03  0.7818608E-02  0.1235074E+00
          4   -1    0    0  501    0  0.00000000000E+00  0.00000000000E+00  0.48186879932E+03  0.48187047291E+03  0.12700000000E+01 0.  1.
         -4   -1    0    0    0  501 -0.00000000000E+00 -0.00000000000E+00 -0.80546474564E+01  0.81541551155E+01  0.12700000000E+01 0.  1.
         25    2    1    2    0    0  0.00000000000E+00  0.00000000000E+00  0.47381415187E+03  0.49002462802E+03  0.12499714221E+03 0.  0.
    9000005    1    3    3    0    0  0.12540099257E+02  0.52707298622E+02  0.35898847654E+03  0.36305514692E+03  0.10000000000E+01 0.  0.
    9000005    1    3    3    0    0 -0.12540099257E+02 -0.52707298622E+02  0.11482567533E+03  0.12696948111E+03  0.10000000000E+01 0.  0.
<mgrwt>
<rscale>  0 0.12499714E+03</rscale>
<asrwt>0</asrwt>
<pdfrwt beam="1">  1        4 0.74141459E-01 0.12499714E+03</pdfrwt>
<pdfrwt beam="2">  1       -4 0.12469595E-02 0.12499714E+03</pdfrwt>
<totfact> 0.56650277E+03</totfact>
</mgrwt>
</event>
<event>
 5    1  0.3330238E-002  0.1250012E+03  0.7818608E-02  0.1235067E+00
         -4   -1    0    0    0  501 -0.00000000000E+00  0.00000000000E+00  0.40407554230E+03  0.40407753809E+03  0.12700000000E+01 0.  1.
          4   -1    0    0  501    0  0.00000000000E+00 -0.00000000000E+00 -0.96235711695E+01  0.97070089139E+01  0.12700000000E+01 0.  1.
         25    2    1    2    0    0  0.00000000000E+00  0.00000000000E+00  0.39445197113E+03  0.41378454700E+03  0.12500117522E+03 0.  0.
    9000005    1    3    3    0    0 -0.57911449275E+02  0.22900211186E+02  0.17997207335E+03  0.19044448749E+03  0.10000000000E+01 0.  0.
    9000005    1    3    3    0    0  0.57911449275E+02 -0.22900211186E+02  0.21447989779E+03  0.22334005952E+03  0.10000000000E+01 0.  0.
<mgrwt>
<rscale>  0 0.12500118E+03</rscale>
<asrwt>0</asrwt>
<pdfrwt beam="2">  1        4 0.14871214E-02 0.12500118E+03</pdfrwt>
<pdfrwt beam="1">  1       -4 0.62172033E-01 0.12500118E+03</pdfrwt>
<totfact> 0.63232206E+03</totfact>
</mgrwt>
</event>
<event>
 5    1  0.3330238E-002  0.1250003E+03  0.7818608E-02  0.1235069E+00
         -4   -1    0    0    0  501 -0.00000000000E+00  0.00000000000E+00  0.20735691107E+02  0.20774546582E+02  0.12700000000E+01 0.  1.
          4   -1    0    0  501    0  0.00000000000E+00 -0.00000000000E+00 -0.18816642438E+03  0.18817071016E+03  0.12700000000E+01 0.  1.
         25    2    1    2    0    0  0.00000000000E+00  0.00000000000E+00 -0.16743073327E+03  0.20894525674E+03  0.12500027949E+03 0.  0.
    9000005    1    3    3    0    0 -0.53283264952E+02 -0.71277061349E+00 -0.13828228895E+03  0.14819786032E+03  0.10000000000E+01 0.  0.
    9000005    1    3    3    0    0  0.53283264952E+02  0.71277061349E+00 -0.29148444317E+02  0.60747396422E+02  0.10000000000E+01 0.  0.
<mgrwt>
<rscale>  0 0.12500028E+03</rscale>
<asrwt>0</asrwt>
<pdfrwt beam="2">  1        4 0.28951998E-01 0.12500028E+03</pdfrwt>
<pdfrwt beam="1">  1       -4 0.31934250E-02 0.12500028E+03</pdfrwt>
<totfact> 0.88647871E+03</totfact>
</mgrwt>
</event>
<event>
 5    1  0.3330238E-002  0.1250038E+03  0.7818608E-02  0.1235063E+00
         -4   -1    0    0    0  501 -0.00000000000E+00  0.00000000000E+00  0.13517912049E+01  0.18547882525E+01  0.12700000000E+01 0. -1.
          4   -1    0    0  501    0  0.00000000000E+00 -0.00000000000E+00 -0.24360414526E+04  0.24360417837E+04  0.12700000000E+01 0. -1.
         25    2    1    2    0    0  0.00000000000E+00  0.00000000000E+00 -0.24346896614E+04  0.24378965720E+04  0.12500379189E+03 0.  0.
    9000005    1    3    3    0    0  0.56012499490E+02 -0.26513512326E+02 -0.13747254171E+04  0.13761218474E+04  0.10000000000E+01 0.  0.
    9000005    1    3    3    0    0 -0.56012499490E+02  0.26513512326E+02 -0.10599642444E+04  0.10617747246E+04  0.10000000000E+01 0.  0.
<mgrwt>
<rscale>  0 0.12500379E+03</rscale>
<asrwt>0</asrwt>
<pdfrwt beam="2">  1        4 0.37481136E+00 0.12500379E+03</pdfrwt>
<pdfrwt beam="1">  1       -4 0.24668737E-03 0.12500379E+03</pdfrwt>
<totfact> 0.51755442E+02</totfact>
</mgrwt>
</event>
<event>
 5    1  0.3330238E-002  0.1249995E+03  0.7818608E-02  0.1235070E+00
          4   -1    0    0  501    0  0.00000000000E+00  0.00000000000E+00  0.37206765662E+02  0.37228434174E+02  0.12700000000E+01 0.  1.
         -4   -1    0    0    0  501 -0.00000000000E+00 -0.00000000000E+00 -0.10493072979E+03  0.10493841506E+03  0.12700000000E+01 0.  1.
         25    2    1    2    0    0  0.00000000000E+00  0.00000000000E+00 -0.67723964129E+02  0.14216684923E+03  0.12499951081E+03 0.  0.
    9000005    1    3    3    0    0 -0.38969928318E+02 -0.17590246007E+02  0.17973086685E+02  0.46390774004E+02  0.10000000000E+01 0.  0.
    9000005    1    3    3    0    0  0.38969928318E+02  0.17590246007E+02 -0.85697050814E+02  0.95776075227E+02  0.10000000000E+01 0.  0.
<mgrwt>
<rscale>  0 0.12499951E+03</rscale>
<asrwt>0</asrwt>
<pdfrwt beam="1">  1        4 0.57263758E-02 0.12499951E+03</pdfrwt>
<pdfrwt beam="2">  1       -4 0.16145447E-01 0.12499951E+03</pdfrwt>
<totfact> 0.10088984E+04</totfact>
</mgrwt>
</event>
<event>
 5    1  0.3330238E-002  0.1249990E+03  0.7818608E-02  0.1235071E+00
         -4   -1    0    0    0  501 -0.00000000000E+00  0.00000000000E+00  0.38728695939E+03  0.38728904169E+03  0.12700000000E+01 0. -1.
          4   -1    0    0  501    0  0.00000000000E+00 -0.00000000000E+00 -0.10043929485E+02  0.10123903373E+02  0.12700000000E+01 0. -1.
         25    2    1    2    0    0  0.00000000000E+00  0.00000000000E+00  0.37724302990E+03  0.39741294506E+03  0.12499898116E+03 0.  0.
    9000005    1    3    3    0    0  0.52241769529E+02 -0.12671226221E+02  0.28993312551E+03  0.29487621085E+03  0.10000000000E+01 0.  0.
    9000005    1    3    3    0    0 -0.52241769529E+02  0.12671226221E+02  0.87309904390E+02  0.10253673421E+03  0.10000000000E+01 0.  0.
<mgrwt>
<rscale>  0 0.12499898E+03</rscale>
<asrwt>0</asrwt>
<pdfrwt beam="2">  1        4 0.15515323E-02 0.12499898E+03</pdfrwt>
<pdfrwt beam="1">  1       -4 0.59588906E-01 0.12499898E+03</pdfrwt>
<totfact> 0.64806648E+03</totfact>
</mgrwt>
</event>
<event>
 5    1  0.3330238E-002  0.1249999E+03  0.7818608E-02  0.1235069E+00
         -4   -1    0    0    0  501 -0.00000000000E+00  0.00000000000E+00  0.22799374454E+03  0.22799728168E+03  0.12700000000E+01 0. -1.
          4   -1    0    0  501    0  0.00000000000E+00 -0.00000000000E+00 -0.17105911509E+02  0.17152991242E+02  0.12700000000E+01 0. -1.
         25    2    1    2    0    0  0.00000000000E+00  0.00000000000E+00  0.21088783304E+03  0.24515027292E+03  0.12499991276E+03 0.  0.
    9000005    1    3    3    0    0 -0.60757783628E+02  0.62399697306E+01  0.13137330112E+03  0.14488060513E+03  0.10000000000E+01 0.  0.
    9000005    1    3    3    0    0  0.60757783628E+02 -0.62399697306E+01  0.79514531912E+02  0.10026966779E+03  0.10000000000E+01 0.  0.
<mgrwt>
<rscale>  0 0.12499991E+03</rscale>
<asrwt>0</asrwt>
<pdfrwt beam="2">  1        4 0.26355724E-02 0.12499991E+03</pdfrwt>
<pdfrwt beam="1">  1       -4 0.35079853E-01 0.12499991E+03</pdfrwt>
<totfact> 0.83036417E+03</totfact>
</mgrwt>
</event>
<event>
 5    1  0.3330238E-002  0.1250017E+03  0.7818608E-02  0.1235067E+00
          4   -1    0    0  501    0  0.00000000000E+00  0.00000000000E+00  0.38093694462E+03  0.38093906164E+03  0.12700000000E+01 0. -1.
         -4   -1    0    0    0  501 -0.00000000000E+00 -0.00000000000E+00 -0.10213128390E+02  0.10291787576E+02  0.12700000000E+01 0. -1.
         25    2    1    2    0    0  0.00000000000E+00  0.00000000000E+00  0.37072381623E+03  0.39123084921E+03  0.12500171780E+03 0.  0.
    9000005    1    3    3    0    0 -0.36110829114E+02  0.87203968684E+01  0.34264256908E+03  0.34465195117E+03  0.10000000000E+01 0.  0.
    9000005    1    3    3    0    0  0.36110829114E+02 -0.87203968684E+01  0.28081247154E+02  0.46578898039E+02  0.10000000000E+01 0.  0.
<mgrwt>
<rscale>  0 0.12500172E+03</rscale>
<asrwt>0</asrwt>
<pdfrwt beam="1">  1        4 0.58611901E-01 0.12500172E+03</pdfrwt>
<pdfrwt beam="2">  1       -4 0.15774640E-02 0.12500172E+03</pdfrwt>
<totfact> 0.65412210E+03</totfact>
</mgrwt>
</event>
<event>
 5    1  0.3330238E-002  0.1250008E+03  0.7818608E-02  0.1235068E+00
          4   -1    0    0  501    0  0.00000000000E+00  0.00000000000E+00  0.56236480689E+02  0.56250819196E+02  0.12700000000E+01 0.  1.
         -4   -1    0    0    0  501 -0.00000000000E+00 -0.00000000000E+00 -0.69433050909E+02  0.69444664723E+02  0.12700000000E+01 0.  1.
         25    2    1    2    0    0  0.00000000000E+00  0.00000000000E+00 -0.13196570220E+02  0.12569548392E+03  0.12500082085E+03 0.  0.
    9000005    1    3    3    0    0  0.48723837385E+02 -0.38966991472E+02 -0.29919146872E+01  0.62469114828E+02  0.10000000000E+01 0.  0.
    9000005    1    3    3    0    0 -0.48723837385E+02  0.38966991472E+02 -0.10204655533E+02  0.63226369091E+02  0.10000000000E+01 0.  0.
<mgrwt>
<rscale>  0 0.12500082E+03</rscale>
<asrwt>0</asrwt>
<pdfrwt beam="1">  1        4 0.86537626E-02 0.12500082E+03</pdfrwt>
<pdfrwt beam="2">  1       -4 0.10684004E-01 0.12500082E+03</pdfrwt>
<totfact> 0.10437450E+04</totfact>
</mgrwt>
</event>
<event>
 5    1  0.3330238E-002  0.1249958E+03  0.7818608E-02  0.1235076E+00
          4   -1    0    0  501    0  0.00000000000E+00  0.00000000000E+00  0.70199504748E+02  0.70210991781E+02  0.12700000000E+01 0.  1.
         -4   -1    0    0    0  501 -0.00000000000E+00 -0.00000000000E+00 -0.55617947056E+02  0.55632444982E+02  0.12700000000E+01 0.  1.
         25    2    1    2    0    0  0.00000000000E+00  0.00000000000E+00  0.14581557692E+02  0.12584343676E+03  0.12499579494E+03 0.  0.
    9000005    1    3    3    0    0 -0.58391219189E+02 -0.22042287129E+02  0.41729592326E+01  0.62560454674E+02  0.10000000000E+01 0.  0.
    9000005    1    3    3    0    0  0.58391219189E+02  0.22042287129E+02  0.10408598460E+02  0.63282982090E+02  0.10000000000E+01 0.  0.
<mgrwt>
<rscale>  0 0.12499579E+03</rscale>
<asrwt>0</asrwt>
<pdfrwt beam="1">  1        4 0.10801923E-01 0.12499579E+03</pdfrwt>
<pdfrwt beam="2">  1       -4 0.85586061E-02 0.12499579E+03</pdfrwt>
<totfact> 0.10435381E+04</totfact>
</mgrwt>
</event>
<event>
 5    1  0.3330238E-002  0.1250010E+03  0.7818608E-02  0.1235068E+00
         -4   -1    0    0    0  501 -0.00000000000E+00  0.00000000000E+00  0.14800060327E+01  0.19502096956E+01  0.12700000000E+01 0. -1.
          4   -1    0    0  501    0  0.00000000000E+00 -0.00000000000E+00 -0.22771184202E+04  0.22771187744E+04  0.12700000000E+01 0. -1.
         25    2    1    2    0    0  0.00000000000E+00  0.00000000000E+00 -0.22756384142E+04  0.22790689841E+04  0.12500096809E+03 0.  0.
    9000005    1    3    3    0    0 -0.54053457096E+02 -0.24117662881E+02 -0.77231843156E+03  0.77458388675E+03  0.10000000000E+01 0.  0.
    9000005    1    3    3    0    0  0.54053457096E+02  0.24117662881E+02 -0.15033199827E+04  0.15044850973E+04  0.10000000000E+01 0.  0.
<mgrwt>
<rscale>  0 0.12500097E+03</rscale>
<asrwt>0</asrwt>
<pdfrwt beam="2">  1        4 0.35035969E+00 0.12500097E+03</pdfrwt>
<pdfrwt beam="1">  1       -4 0.26389181E-03 0.12500097E+03</pdfrwt>
<totfact> 0.66443702E+02</totfact>
</mgrwt>
</event>
<event>
 5    1  0.3330238E-002  0.1249998E+03  0.7818608E-02  0.1235070E+00
         -4   -1    0    0    0  501 -0.00000000000E+00  0.00000000000E+00  0.62044403214E+03  0.62044533193E+03  0.12700000000E+01 0.  1.
          4   -1    0    0  501    0  0.00000000000E+00 -0.00000000000E+00 -0.62305132173E+01  0.63586315313E+01  0.12700000000E+01 0.  1.
         25    2    1    2    0    0  0.00000000000E+00  0.00000000000E+00  0.61421351892E+03  0.62680396347E+03  0.12499984715E+03 0.  0.
    9000005    1    3    3    0    0 -0.37572528089E+02  0.32145083466E+02  0.11548966445E+03  0.12563384836E+03  0.10000000000E+01 0.  0.
    9000005    1    3    3    0    0  0.37572528089E+02 -0.32145083466E+02  0.49872385447E+03  0.50117011511E+03  0.10000000000E+01 0.  0.
<mgrwt>
<rscale>  0 0.12499985E+03</rscale>
<asrwt>0</asrwt>
<pdfrwt beam="2">  1        4 0.96849558E-03 0.12499985E+03</pdfrwt>
<pdfrwt beam="1">  1       -4 0.95462898E-01 0.12499985E+03</pdfrwt>
<totfact> 0.47218382E+03</totfact>
</mgrwt>
</event>
<event>
 5    1  0.3330238E-002  0.1250039E+03  0.7818608E-02  0.1235063E+00
         -4   -1    0    0    0  501 -0.00000000000E+00  0.00000000000E+00  0.73602558237E+02  0.73613514242E+02  0.12700000000E+01 0.  1.
          4   -1    0    0  501    0  0.00000000000E+00 -0.00000000000E+00 -0.53052975940E+02  0.53068174606E+02  0.12700000000E+01 0.  1.
         25    2    1    2    0    0  0.00000000000E+00  0.00000000000E+00  0.20549582298E+02  0.12668168885E+03  0.12500385977E+03 0.  0.
    9000005    1    3    3    0    0 -0.24724898256E+02  0.43679297887E+02 -0.27457867018E+02  0.57220067449E+02  0.10000000000E+01 0.  0.
    9000005    1    3    3    0    0  0.24724898256E+02 -0.43679297887E+02  0.48007449316E+02  0.69461621400E+02  0.10000000000E+01 0.  0.
<mgrwt>
<rscale>  0 0.12500386E+03</rscale>
<asrwt>0</asrwt>
<pdfrwt beam="2">  1        4 0.81640082E-02 0.12500386E+03</pdfrwt>
<pdfrwt beam="1">  1       -4 0.11325482E-01 0.12500386E+03</pdfrwt>
<totfact> 0.10415161E+04</totfact>
</mgrwt>
</event>
<event>
 5    1  0.3330238E-002  0.1250017E+03  0.7818608E-02  0.1235067E+00
         -4   -1    0    0    0  501 -0.00000000000E+00  0.00000000000E+00  0.22755650632E+02  0.22791062627E+02  0.12700000000E+01 0.  1.
          4   -1    0    0  501    0  0.00000000000E+00 -0.00000000000E+00 -0.17149400172E+03  0.17149870415E+03  0.12700000000E+01 0.  1.
         25    2    1    2    0    0  0.00000000000E+00  0.00000000000E+00 -0.14873835109E+03  0.19428976678E+03  0.12500166555E+03 0.  0.
    9000005    1    3    3    0    0  0.28586451788E+02 -0.32708905636E+02 -0.14419669205E+03  0.15060127401E+03  0.10000000000E+01 0.  0.
    9000005    1    3    3    0    0 -0.28586451788E+02  0.32708905636E+02 -0.45416590335E+01  0.43688492770E+02  0.10000000000E+01 0.  0.
<mgrwt>
<rscale>  0 0.12500167E+03</rscale>
<asrwt>0</asrwt>
<pdfrwt beam="2">  1        4 0.26386778E-01 0.12500167E+03</pdfrwt>
<pdfrwt beam="1">  1       -4 0.35039552E-02 0.12500167E+03</pdfrwt>
<totfact> 0.91102823E+03</totfact>
</mgrwt>
</event>
<event>
 5    1  0.3330238E-002  0.1250003E+03  0.7818608E-02  0.1235069E+00
         -4   -1    0    0    0  501 -0.00000000000E+00  0.00000000000E+00  0.14024025092E+03  0.14024600129E+03  0.12700000000E+01 0.  1.
          4   -1    0    0  501    0  0.00000000000E+00 -0.00000000000E+00 -0.27833303725E+02  0.27862262942E+02  0.12700000000E+01 0.  1.
         25    2    1    2    0    0  0.00000000000E+00  0.00000000000E+00  0.11240694719E+03  0.16810826423E+03  0.12500026690E+03 0.  0.
    9000005    1    3    3    0    0  0.81980069509E+01  0.51364509254E+02  0.10278598286E+03  0.11520190276E+03  0.10000000000E+01 0.  0.
    9000005    1    3    3    0    0 -0.81980069509E+01 -0.51364509254E+02  0.96209643370E+01  0.52906361467E+02  0.10000000000E+01 0.  0.
<mgrwt>
<rscale>  0 0.12500027E+03</rscale>
<asrwt>0</asrwt>
<pdfrwt beam="2">  1        4 0.42847167E-02 0.12500027E+03</pdfrwt>
<pdfrwt beam="1">  1       -4 0.21578093E-01 0.12500027E+03</pdfrwt>
<totfact> 0.95801379E+03</totfact>
</mgrwt>
</event>
<event>
 5    1  0.3330238E-002  0.1249982E+03  0.7818608E-02  0.1235072E+00
         -4   -1    0    0    0  501 -0.00000000000E+00  0.00000000000E+00  0.26766125812E+02  0.26796238374E+02  0.12700000000E+01 0.  1.
          4   -1    0    0  501    0  0.00000000000E+00 -0.00000000000E+00 -0.14582095213E+03  0.14582648244E+03  0.12700000000E+01 0.  1.
         25    2    1    2    0    0  0.00000000000E+00  0.00000000000E+00 -0.11905482632E+03  0.17262272081E+03  0.12499820827E+03 0.  0.
    9000005    1    3    3    0    0 -0.15162569421E+02  0.15096013576E+02  0.21556842882E+02  0.30388988340E+02  0.10000000000E+01 0.  0.
    9000005    1    3    3    0    0  0.15162569421E+02 -0.15096013576E+02 -0.14061166920E+03  0.14223373247E+03  0.10000000000E+01 0.  0.
<mgrwt>
<rscale>  0 0.12499821E+03</rscale>
<asrwt>0</asrwt>
<pdfrwt beam="2">  1        4 0.22436734E-01 0.12499821E+03</pdfrwt>
<pdfrwt beam="1">  1       -4 0.41206074E-02 0.12499821E+03</pdfrwt>
<totfact> 0.94965864E+03</totfact>
</mgrwt>
</event>
<event>
 5    1  0.3330238E-002  0.1249946E+03  0.7818608E-02  0.1235078E+00
          4   -1    0    0  501    0  0.00000000000E+00  0.00000000000E+00  0.76928442018E+02  0.76938924423E+02  0.12700000000E+01 0. -1.
         -4   -1    0    0    0  501 -0.00000000000E+00 -0.00000000000E+00 -0.50751410290E+02  0.50767298002E+02  0.12700000000E+01 0. -1.
         25    2    1    2    0    0  0.00000000000E+00  0.00000000000E+00  0.26177031728E+02  0.12770622242E+03  0.12499456891E+03 0.  0.
    9000005    1    3    3    0    0 -0.93831093429E+00 -0.23182446415E+02 -0.46192679646E+02  0.51701739836E+02  0.10000000000E+01 0.  0.
    9000005    1    3    3    0    0  0.93831093429E+00  0.23182446415E+02  0.72369711374E+02  0.76004482589E+02  0.10000000000E+01 0.  0.
<mgrwt>
<rscale>  0 0.12499457E+03</rscale>
<asrwt>0</asrwt>
<pdfrwt beam="1">  1        4 0.11837173E-01 0.12499457E+03</pdfrwt>
<pdfrwt beam="2">  1       -4 0.78099377E-02 0.12499457E+03</pdfrwt>
<totfact> 0.10395111E+04</totfact>
</mgrwt>
</event>
<event>
 5    1  0.3330238E-002  0.1250000E+03  0.7818608E-02  0.1235069E+00
         -4   -1    0    0    0  501 -0.00000000000E+00  0.00000000000E+00  0.12934341165E+02  0.12996541131E+02  0.12700000000E+01 0. -1.
          4   -1    0    0  501    0  0.00000000000E+00 -0.00000000000E+00 -0.30121812993E+03  0.30122080721E+03  0.12700000000E+01 0. -1.
         25    2    1    2    0    0  0.00000000000E+00  0.00000000000E+00 -0.28828378876E+03  0.31421734834E+03  0.12499999654E+03 0.  0.
    9000005    1    3    3    0    0  0.27499734028E+02  0.49556755947E+01 -0.36318588968E+01  0.28195469339E+02  0.10000000000E+01 0.  0.
    9000005    1    3    3    0    0 -0.27499734028E+02 -0.49556755947E+01 -0.28465192986E+03  0.28602187900E+03  0.10000000000E+01 0.  0.
<mgrwt>
<rscale>  0 0.12500000E+03</rscale>
<asrwt>0</asrwt>
<pdfrwt beam="2">  1        4 0.46346236E-01 0.12500000E+03</pdfrwt>
<pdfrwt beam="1">  1       -4 0.19948894E-02 0.12500000E+03</pdfrwt>
<totfact> 0.73849223E+03</totfact>
</mgrwt>
</event>
<event>
 5    1  0.3330238E-002  0.1249958E+03  0.7818608E-02  0.1235076E+00
         -4   -1    0    0    0  501 -0.00000000000E+00  0.00000000000E+00  0.56964268258E+02  0.56978423620E+02  0.12700000000E+01 0. -1.
          4   -1    0    0  501    0  0.00000000000E+00 -0.00000000000E+00 -0.68540550423E+02  0.68552315440E+02  0.12700000000E+01 0. -1.
         25    2    1    2    0    0  0.00000000000E+00  0.00000000000E+00 -0.11576282164E+02  0.12553073906E+03  0.12499582449E+03 0.  0.
    9000005    1    3    3    0    0  0.11226203999E+02 -0.59711304962E+02 -0.20463046929E+02  0.64118670340E+02  0.10000000000E+01 0.  0.
    9000005    1    3    3    0    0 -0.11226203999E+02  0.59711304962E+02  0.88867647649E+01  0.61412068720E+02  0.10000000000E+01 0.  0.
<mgrwt>
<rscale>  0 0.12499582E+03</rscale>
<asrwt>0</asrwt>
<pdfrwt beam="2">  1        4 0.10546694E-01 0.12499582E+03</pdfrwt>
<pdfrwt beam="1">  1       -4 0.87657275E-02 0.12499582E+03</pdfrwt>
<totfact> 0.10442259E+04</totfact>
</mgrwt>
</event>
<event>
 5    1  0.3330238E-002  0.1250031E+03  0.7818608E-02  0.1235064E+00
         -4   -1    0    0    0  501 -0.00000000000E+00  0.00000000000E+00  0.34819062131E+03  0.34819293741E+03  0.12700000000E+01 0. -1.
          4   -1    0    0  501    0  0.00000000000E+00 -0.00000000000E+00 -0.11180961744E+02  0.11252857660E+02  0.12700000000E+01 0. -1.
         25    2    1    2    0    0  0.00000000000E+00  0.00000000000E+00  0.33700965956E+03  0.35944579507E+03  0.12500307580E+03 0.  0.
    9000005    1    3    3    0    0 -0.29563236913E+02  0.37136530872E+02  0.28539064325E+03  0.28931285169E+03  0.10000000000E+01 0.  0.
    9000005    1    3    3    0    0  0.29563236913E+02 -0.37136530872E+02  0.51619016315E+02  0.70132943381E+02  0.10000000000E+01 0.  0.
<mgrwt>
<rscale>  0 0.12500308E+03</rscale>
<asrwt>0</asrwt>
<pdfrwt beam="2">  1        4 0.17258569E-02 0.12500308E+03</pdfrwt>
<pdfrwt beam="1">  1       -4 0.53573488E-01 0.12500308E+03</pdfrwt>
<totfact> 0.68693083E+03</totfact>
</mgrwt>
</event>
<event>
 5    1  0.3330238E-002  0.1249980E+03  0.7818608E-02  0.1235072E+00
         -4   -1    0    0    0  501 -0.00000000000E+00  0.00000000000E+00  0.49746695687E+02  0.49762904173E+02  0.12700000000E+01 0. -1.
          4   -1    0    0  501    0  0.00000000000E+00 -0.00000000000E+00 -0.78486175992E+02  0.78496450377E+02  0.12700000000E+01 0. -1.
         25    2    1    2    0    0  0.00000000000E+00  0.00000000000E+00 -0.28739480305E+02  0.12825935455E+03  0.12499801719E+03 0.  0.
    9000005    1    3    3    0    0 -0.32361686369E+02  0.51097409363E+02  0.17533509028E+01  0.60516925133E+02  0.10000000000E+01 0.  0.
    9000005    1    3    3    0    0  0.32361686369E+02 -0.51097409363E+02 -0.30492831208E+02  0.67742429417E+02  0.10000000000E+01 0.  0.
<mgrwt>
<rscale>  0 0.12499802E+03</rscale>
<asrwt>0</asrwt>
<pdfrwt beam="2">  1        4 0.12076834E-01 0.12499802E+03</pdfrwt>
<pdfrwt beam="1">  1       -4 0.76553749E-02 0.12499802E+03</pdfrwt>
<totfact> 0.10382355E+04</totfact>
</mgrwt>
</event>
<event>
 5    1  0.3330238E-002  0.1249976E+03  0.7818608E-02  0.1235073E+00
         -4   -1    0    0    0  501 -0.00000000000E+00  0.00000000000E+00  0.50515875740E+02  0.50531837506E+02  0.12700000000E+01 0. -1.
          4   -1    0    0  501    0  0.00000000000E+00 -0.00000000000E+00 -0.77290755195E+02  0.77301188468E+02  0.12700000000E+01 0. -1.
         25    2    1    2    0    0  0.00000000000E+00  0.00000000000E+00 -0.26774879455E+02  0.12783302597E+03  0.12499755342E+03 0.  0.
    9000005    1    3    3    0    0 -0.11317133062E+02  0.58042269002E+02 -0.34047549353E+02  0.68243813703E+02  0.10000000000E+01 0.  0.
    9000005    1    3    3    0    0  0.11317133062E+02 -0.58042269002E+02  0.72726698979E+01  0.59589212272E+02  0.10000000000E+01 0.  0.
<mgrwt>
<rscale>  0 0.12499755E+03</rscale>
<asrwt>0</asrwt>
<pdfrwt beam="2">  1        4 0.11892916E-01 0.12499755E+03</pdfrwt>
<pdfrwt beam="1">  1       -4 0.77737036E-02 0.12499755E+03</pdfrwt>
<totfact> 0.10391669E+04</totfact>
</mgrwt>
</event>
<event>
 5    1  0.3330238E-002  0.1249992E+03  0.7818608E-02  0.1235070E+00
         -4   -1    0    0    0  501 -0.00000000000E+00  0.00000000000E+00  0.14861929972E+03  0.14862472590E+03  0.12700000000E+01 0. -1.
          4   -1    0    0  501    0  0.00000000000E+00 -0.00000000000E+00 -0.26262020606E+02  0.26292710517E+02  0.12700000000E+01 0. -1.
         25    2    1    2    0    0  0.00000000000E+00  0.00000000000E+00  0.12235727911E+03  0.17491743641E+03  0.12499922324E+03 0.  0.
    9000005    1    3    3    0    0  0.48234441642E+02  0.38470970326E+02  0.75075550423E+02  0.97179808549E+02  0.10000000000E+01 0.  0.
    9000005    1    3    3    0    0 -0.48234441642E+02 -0.38470970326E+02  0.47281728687E+02  0.77737627864E+02  0.10000000000E+01 0.  0.
<mgrwt>
<rscale>  0 0.12499922E+03</rscale>
<asrwt>0</asrwt>
<pdfrwt beam="2">  1        4 0.40430890E-02 0.12499922E+03</pdfrwt>
<pdfrwt beam="1">  1       -4 0.22867286E-01 0.12499922E+03</pdfrwt>
<totfact> 0.94541611E+03</totfact>
</mgrwt>
</event>
<event>
 5    1  0.3330238E-002  0.1250009E+03  0.7818608E-02  0.1235068E+00
          4   -1    0    0  501    0  0.00000000000E+00  0.00000000000E+00  0.13570205552E+01  0.18586029127E+01  0.12700000000E+01 0.  1.
         -4   -1    0    0    0  501 -0.00000000000E+00 -0.00000000000E+00 -0.24290757003E+04  0.24290760323E+04  0.12700000000E+01 0.  1.
         25    2    1    2    0    0  0.00000000000E+00  0.00000000000E+00 -0.24277186798E+04  0.24309346352E+04  0.12500085075E+03 0.  0.
    9000005    1    3    3    0    0  0.31265502101E+02  0.40367793540E+02 -0.19145611755E+04  0.19152421740E+04  0.10000000000E+01 0.  0.
    9000005    1    3    3    0    0 -0.31265502101E+02 -0.40367793540E+02 -0.51315750430E+03  0.51569246126E+03  0.10000000000E+01 0.  0.
<mgrwt>
<rscale>  0 0.12500085E+03</rscale>
<asrwt>0</asrwt>
<pdfrwt beam="1">  1        4 0.24738313E-03 0.12500085E+03</pdfrwt>
<pdfrwt beam="2">  1       -4 0.37373963E+00 0.12500085E+03</pdfrwt>
<totfact> 0.52349794E+02</totfact>
</mgrwt>
</event>
<event>
 5    1  0.3330238E-002  0.1250084E+03  0.7818608E-02  0.1235056E+00
          4   -1    0    0  501    0  0.00000000000E+00  0.00000000000E+00  0.31842677453E+02  0.31867993463E+02  0.12700000000E+01 0.  1.
         -4   -1    0    0    0  501 -0.00000000000E+00 -0.00000000000E+00 -0.12261262767E+03  0.12261920472E+03  0.12700000000E+01 0.  1.
         25    2    1    2    0    0  0.00000000000E+00  0.00000000000E+00 -0.90769950222E+02  0.15448719818E+03  0.12500844187E+03 0.  0.
    9000005    1    3    3    0    0 -0.30947262387E+02  0.14881735158E+02 -0.10991504881E+03  0.11515866032E+03  0.10000000000E+01 0.  0.
    9000005    1    3    3    0    0  0.30947262387E+02 -0.14881735158E+02  0.19145098588E+02  0.39328537864E+02  0.10000000000E+01 0.  0.
<mgrwt>
<rscale>  0 0.12500844E+03</rscale>
<asrwt>0</asrwt>
<pdfrwt beam="1">  1        4 0.49013268E-02 0.12500844E+03</pdfrwt>
<pdfrwt beam="2">  1       -4 0.18865934E-01 0.12500844E+03</pdfrwt>
<totfact> 0.98397579E+03</totfact>
</mgrwt>
</event>
<event>
 5    1  0.3330238E-002  0.1249978E+03  0.7818608E-02  0.1235073E+00
          4   -1    0    0  501    0  0.00000000000E+00  0.00000000000E+00  0.52168810697E+02  0.52184266878E+02  0.12700000000E+01 0.  1.
         -4   -1    0    0    0  501 -0.00000000000E+00 -0.00000000000E+00 -0.74842570841E+02  0.74853345351E+02  0.12700000000E+01 0.  1.
         25    2    1    2    0    0  0.00000000000E+00  0.00000000000E+00 -0.22673760144E+02  0.12703761223E+03  0.12499782207E+03 0.  0.
    9000005    1    3    3    0    0 -0.47414235890E+02  0.38641821193E+02  0.16709567180E+01  0.61197158484E+02  0.10000000000E+01 0.  0.
    9000005    1    3    3    0    0  0.47414235890E+02 -0.38641821193E+02 -0.24344716862E+02  0.65840453744E+02  0.10000000000E+01 0.  0.
<mgrwt>
<rscale>  0 0.12499782E+03</rscale>
<asrwt>0</asrwt>
<pdfrwt beam="1">  1        4 0.80279886E-02 0.12499782E+03</pdfrwt>
<pdfrwt beam="2">  1       -4 0.11516259E-01 0.12499782E+03</pdfrwt>
<totfact> 0.10408840E+04</totfact>
</mgrwt>
</event>
<event>
 5    1  0.3330238E-002  0.1250008E+03  0.7818608E-02  0.1235068E+00
          4   -1    0    0  501    0  0.00000000000E+00  0.00000000000E+00  0.25069573196E+02  0.25101721061E+02  0.12700000000E+01 0. -1.
         -4   -1    0    0    0  501 -0.00000000000E+00 -0.00000000000E+00 -0.15568366442E+03  0.15568884439E+03  0.12700000000E+01 0. -1.
         25    2    1    2    0    0  0.00000000000E+00  0.00000000000E+00 -0.13061409122E+03  0.18079056545E+03  0.12500075092E+03 0.  0.
    9000005    1    3    3    0    0  0.21872694791E+02 -0.22605711213E+02 -0.14340627907E+03  0.14681891511E+03  0.10000000000E+01 0.  0.
    9000005    1    3    3    0    0 -0.21872694791E+02  0.22605711213E+02  0.12792187848E+02  0.33971650340E+02  0.10000000000E+01 0.  0.
<mgrwt>
<rscale>  0 0.12500075E+03</rscale>
<asrwt>0</asrwt>
<pdfrwt beam="1">  1        4 0.38597289E-02 0.12500075E+03</pdfrwt>
<pdfrwt beam="2">  1       -4 0.23954204E-01 0.12500075E+03</pdfrwt>
<totfact> 0.93473319E+03</totfact>
</mgrwt>
</event>
<event>
 5    1  0.3330238E-002  0.1250013E+03  0.7818608E-02  0.1235067E+00
          4   -1    0    0  501    0  0.00000000000E+00  0.00000000000E+00  0.82757174933E+02  0.82766919134E+02  0.12700000000E+01 0. -1.
         -4   -1    0    0    0  501 -0.00000000000E+00 -0.00000000000E+00 -0.47181244716E+02  0.47198334218E+02  0.12700000000E+01 0. -1.
         25    2    1    2    0    0  0.00000000000E+00  0.00000000000E+00  0.35575930217E+02  0.12996525335E+03  0.12500128107E+03 0.  0.
    9000005    1    3    3    0    0 -0.45784705350E+02 -0.27805626037E+02 -0.15676175199E+02  0.55822348142E+02  0.10000000000E+01 0.  0.
    9000005    1    3    3    0    0  0.45784705350E+02  0.27805626037E+02  0.51252105416E+02  0.74142905209E+02  0.10000000000E+01 0.  0.
<mgrwt>
<rscale>  0 0.12500128E+03</rscale>
<asrwt>0</asrwt>
<pdfrwt beam="1">  1        4 0.12733937E-01 0.12500128E+03</pdfrwt>
<pdfrwt beam="2">  1       -4 0.72607172E-02 0.12500128E+03</pdfrwt>
<totfact> 0.10344952E+04</totfact>
</mgrwt>
</event>
<event>
 5    1  0.3330238E-002  0.1249892E+03  0.7818608E-02  0.1235086E+00
         -4   -1    0    0    0  501 -0.00000000000E+00  0.00000000000E+00  0.55010422412E+02  0.55025080408E+02  0.12700000000E+01 0.  1.
          4   -1    0    0  501    0  0.00000000000E+00 -0.00000000000E+00 -0.70967173176E+02  0.70978535971E+02  0.12700000000E+01 0.  1.
         25    2    1    2    0    0  0.00000000000E+00  0.00000000000E+00 -0.15956750764E+02  0.12600361638E+03  0.12498917331E+03 0.  0.
    9000005    1    3    3    0    0 -0.39588814304E+02  0.81967474662E+01 -0.56010776988E+02  0.69084499172E+02  0.10000000000E+01 0.  0.
    9000005    1    3    3    0    0  0.39588814304E+02 -0.81967474662E+01  0.40054026223E+02  0.56919117208E+02  0.10000000000E+01 0.  0.
<mgrwt>
<rscale>  0 0.12498917E+03</rscale>
<asrwt>0</asrwt>
<pdfrwt beam="2">  1        4 0.10920028E-01 0.12498917E+03</pdfrwt>
<pdfrwt beam="1">  1       -4 0.84651435E-02 0.12498917E+03</pdfrwt>
<totfact> 0.10433427E+04</totfact>
</mgrwt>
</event>
<event>
 5    1  0.3330238E-002  0.1249993E+03  0.7818608E-02  0.1235070E+00
          4   -1    0    0  501    0  0.00000000000E+00  0.00000000000E+00  0.14933889366E+02  0.14987793420E+02  0.12700000000E+01 0.  1.
         -4   -1    0    0    0  501 -0.00000000000E+00 -0.00000000000E+00 -0.26103975514E+03  0.26104284450E+03  0.12700000000E+01 0.  1.
         25    2    1    2    0    0  0.00000000000E+00  0.00000000000E+00 -0.24610586577E+03  0.27603063792E+03  0.12499926360E+03 0.  0.
    9000005    1    3    3    0    0  0.32043571477E+02  0.47057341240E+02 -0.17995662682E+03  0.18875002351E+03  0.10000000000E+01 0.  0.
    9000005    1    3    3    0    0 -0.32043571477E+02 -0.47057341240E+02 -0.66149238951E+02  0.87280614408E+02  0.10000000000E+01 0.  0.
<mgrwt>
<rscale>  0 0.12499926E+03</rscale>
<asrwt>0</asrwt>
<pdfrwt beam="1">  1        4 0.23019057E-02 0.12499926E+03</pdfrwt>
<pdfrwt beam="2">  1       -4 0.40164343E-01 0.12499926E+03</pdfrwt>
<totfact> 0.78708665E+03</totfact>
</mgrwt>
</event>
<event>
 5    1  0.3330238E-002  0.1249989E+03  0.7818608E-02  0.1235071E+00
         -4   -1    0    0    0  501 -0.00000000000E+00  0.00000000000E+00  0.38143973843E+02  0.38165110252E+02  0.12700000000E+01 0. -1.
          4   -1    0    0  501    0  0.00000000000E+00 -0.00000000000E+00 -0.10235286661E+03  0.10236074542E+03  0.12700000000E+01 0. -1.
         25    2    1    2    0    0  0.00000000000E+00  0.00000000000E+00 -0.64208892769E+02  0.14052585568E+03  0.12499893681E+03 0.  0.
    9000005    1    3    3    0    0  0.36728993406E+02  0.50394265816E+02 -0.27526446278E+02  0.68171153932E+02  0.10000000000E+01 0.  0.
    9000005    1    3    3    0    0 -0.36728993406E+02 -0.50394265816E+02 -0.36682446491E+02  0.72354701743E+02  0.10000000000E+01 0.  0.
<mgrwt>
<rscale>  0 0.12499894E+03</rscale>
<asrwt>0</asrwt>
<pdfrwt beam="2">  1        4 0.15748827E-01 0.12499894E+03</pdfrwt>
<pdfrwt beam="1">  1       -4 0.58705357E-02 0.12499894E+03</pdfrwt>
<totfact> 0.10122941E+04</totfact>
</mgrwt>
</event>
<event>
 5    1  0.3330238E-002  0.1249984E+03  0.7818608E-02  0.1235072E+00
          4   -1    0    0  501    0  0.00000000000E+00  0.00000000000E+00  0.14327160093E+02  0.14383338150E+02  0.12700000000E+01 0.  1.
         -4   -1    0    0    0  501 -0.00000000000E+00 -0.00000000000E+00 -0.27204848010E+03  0.27205144444E+03  0.12700000000E+01 0.  1.
         25    2    1    2    0    0  0.00000000000E+00  0.00000000000E+00 -0.25772132000E+03  0.28643478259E+03  0.12499842357E+03 0.  0.
    9000005    1    3    3    0    0  0.20226737878E+02 -0.13417923280E+02 -0.26081625734E+03  0.26194518832E+03  0.10000000000E+01 0.  0.
    9000005    1    3    3    0    0 -0.20226737878E+02  0.13417923280E+02  0.30949373398E+01  0.24489594270E+02  0.10000000000E+01 0.  0.
<mgrwt>
<rscale>  0 0.12499842E+03</rscale>
<asrwt>0</asrwt>
<pdfrwt beam="1">  1        4 0.22087281E-02 0.12499842E+03</pdfrwt>
<pdfrwt beam="2">  1       -4 0.41858158E-01 0.12499842E+03</pdfrwt>
<totfact> 0.77335274E+03</totfact>
</mgrwt>
</event>
<event>
 5    1  0.3330238E-002  0.1250014E+03  0.7818608E-02  0.1235067E+00
          4   -1    0    0  501    0  0.00000000000E+00  0.00000000000E+00  0.27119334684E+02  0.27149055485E+02  0.12700000000E+01 0.  1.
         -4   -1    0    0    0  501 -0.00000000000E+00 -0.00000000000E+00 -0.14393101471E+03  0.14393661763E+03  0.12700000000E+01 0.  1.
         25    2    1    2    0    0  0.00000000000E+00  0.00000000000E+00 -0.11681168002E+03  0.17108567311E+03  0.12500135581E+03 0.  0.
    9000005    1    3    3    0    0  0.54610088865E+02  0.23106852644E+02 -0.85405318059E+02  0.10397719364E+03  0.10000000000E+01 0.  0.
    9000005    1    3    3    0    0 -0.54610088865E+02 -0.23106852644E+02 -0.31406361962E+02  0.67108479469E+02  0.10000000000E+01 0.  0.
<mgrwt>
<rscale>  0 0.12500136E+03</rscale>
<asrwt>0</asrwt>
<pdfrwt beam="1">  1        4 0.41749226E-02 0.12500136E+03</pdfrwt>
<pdfrwt beam="2">  1       -4 0.22145950E-01 0.12500136E+03</pdfrwt>
<totfact> 0.95243770E+03</totfact>
</mgrwt>
</event>
<event>
 5    1  0.3330238E-002  0.1250008E+03  0.7818608E-02  0.1235068E+00
         -4   -1    0    0    0  501 -0.00000000000E+00  0.00000000000E+00  0.45249647206E+02  0.45267465936E+02  0.12700000000E+01 0. -1.
          4   -1    0    0  501    0  0.00000000000E+00 -0.00000000000E+00 -0.86288214326E+02  0.86297559824E+02  0.12700000000E+01 0. -1.
         25    2    1    2    0    0  0.00000000000E+00  0.00000000000E+00 -0.41038567120E+02  0.13156502576E+03  0.12500076805E+03 0.  0.
    9000005    1    3    3    0    0  0.56810634022E+02  0.24068819112E+02 -0.10071166144E+02  0.62523472224E+02  0.10000000000E+01 0.  0.
    9000005    1    3    3    0    0 -0.56810634022E+02 -0.24068819112E+02 -0.30967400976E+02  0.69041553536E+02  0.10000000000E+01 0.  0.
<mgrwt>
<rscale>  0 0.12500077E+03</rscale>
<asrwt>0</asrwt>
<pdfrwt beam="2">  1        4 0.13277199E-01 0.12500077E+03</pdfrwt>
<pdfrwt beam="1">  1       -4 0.69635737E-02 0.12500077E+03</pdfrwt>
<totfact> 0.10310813E+04</totfact>
</mgrwt>
</event>
<event>
 5    1  0.3330238E-002  0.1250051E+03  0.7818608E-02  0.1235061E+00
         -4   -1    0    0    0  501 -0.00000000000E+00  0.00000000000E+00  0.31503849003E+02  0.31529437070E+02  0.12700000000E+01 0. -1.
          4   -1    0    0  501    0  0.00000000000E+00 -0.00000000000E+00 -0.12392380709E+03  0.12393031454E+03  0.12700000000E+01 0. -1.
         25    2    1    2    0    0  0.00000000000E+00  0.00000000000E+00 -0.92419958085E+02  0.15545975161E+03  0.12500514277E+03 0.  0.
    9000005    1    3    3    0    0 -0.29730851861E+02 -0.66083887695E+01  0.21655788331E+02  0.37384054391E+02  0.10000000000E+01 0.  0.
    9000005    1    3    3    0    0  0.29730851861E+02  0.66083887695E+01 -0.11407574642E+03  0.11807569722E+03  0.10000000000E+01 0.  0.
<mgrwt>
<rscale>  0 0.12500514E+03</rscale>
<asrwt>0</asrwt>
<pdfrwt beam="2">  1        4 0.19067670E-01 0.12500514E+03</pdfrwt>
<pdfrwt beam="1">  1       -4 0.48492149E-02 0.12500514E+03</pdfrwt>
<totfact> 0.98213960E+03</totfact>
</mgrwt>
</event>
<event>
 5    1  0.3330238E-002  0.1250010E+03  0.7818608E-02  0.1235068E+00
         -4   -1    0    0    0  501 -0.00000000000E+00  0.00000000000E+00  0.30388499781E+02  0.30415026203E+02  0.12700000000E+01 0.  1.
          4   -1    0    0  501    0  0.00000000000E+00 -0.00000000000E+00 -0.12845994043E+03  0.12846621811E+03  0.12700000000E+01 0.  1.
         25    2    1    2    0    0  0.00000000000E+00  0.00000000000E+00 -0.98071440652E+02  0.15888124432E+03  0.12500096929E+03 0.  0.
    9000005    1    3    3    0    0 -0.51548140767E+01 -0.61884195108E+02 -0.57940702783E+02  0.84937334260E+02  0.10000000000E+01 0.  0.
    9000005    1    3    3    0    0  0.51548140767E+01  0.61884195108E+02 -0.40130737869E+02  0.73943910055E+02  0.10000000000E+01 0.  0.
<mgrwt>
<rscale>  0 0.12500097E+03</rscale>
<asrwt>0</asrwt>
<pdfrwt beam="2">  1        4 0.19765591E-01 0.12500097E+03</pdfrwt>
<pdfrwt beam="1">  1       -4 0.46776773E-02 0.12500097E+03</pdfrwt>
<totfact> 0.97556781E+03</totfact>
</mgrwt>
</event>
<event>
 5    1  0.3330238E-002  0.1249957E+03  0.7818608E-02  0.1235076E+00
         -4   -1    0    0    0  501 -0.00000000000E+00  0.00000000000E+00  0.24892839782E+03  0.24893163748E+03  0.12700000000E+01 0.  1.
          4   -1    0    0  501    0  0.00000000000E+00 -0.00000000000E+00 -0.15662140697E+02  0.15713546742E+02  0.12700000000E+01 0.  1.
         25    2    1    2    0    0  0.00000000000E+00  0.00000000000E+00  0.23326625712E+03  0.26464518423E+03  0.12499570722E+03 0.  0.
    9000005    1    3    3    0    0 -0.35972979580E+02 -0.61896194088E+01  0.22402126379E+03  0.22697773740E+03  0.10000000000E+01 0.  0.
    9000005    1    3    3    0    0  0.35972979580E+02  0.61896194088E+01  0.92449933337E+01  0.37667446821E+02  0.10000000000E+01 0.  0.
<mgrwt>
<rscale>  0 0.12499571E+03</rscale>
<asrwt>0</asrwt>
<pdfrwt beam="2">  1        4 0.24137637E-02 0.12499571E+03</pdfrwt>
<pdfrwt beam="1">  1       -4 0.38300879E-01 0.12499571E+03</pdfrwt>
<totfact> 0.80266230E+03</totfact>
</mgrwt>
</event>
<event>
 5    1  0.3330238E-002  0.1250011E+03  0.7818608E-02  0.1235068E+00
         -4   -1    0    0    0  501 -0.00000000000E+00  0.00000000000E+00  0.73754548879E+03  0.73754658222E+03  0.12700000000E+01 0. -1.
          4   -1    0    0  501    0  0.00000000000E+00 -0.00000000000E+00 -0.52191334554E+01  0.53714294211E+01  0.12700000000E+01 0. -1.
         25    2    1    2    0    0  0.00000000000E+00  0.00000000000E+00  0.73232635534E+03  0.74291801164E+03  0.12500112517E+03 0.  0.
    9000005    1    3    3    0    0  0.61768116568E+02  0.84972845301E+01  0.34107696092E+03  0.34673043902E+03  0.10000000000E+01 0.  0.
    9000005    1    3    3    0    0 -0.61768116568E+02 -0.84972845301E+01  0.39124939442E+03  0.39618757262E+03  0.10000000000E+01 0.  0.
<mgrwt>
<rscale>  0 0.12500113E+03</rscale>
<asrwt>0</asrwt>
<pdfrwt beam="2">  1        4 0.81474244E-03 0.12500113E+03</pdfrwt>
<pdfrwt beam="1">  1       -4 0.11348038E+00 0.12500113E+03</pdfrwt>
<totfact> 0.40914157E+03</totfact>
</mgrwt>
</event>
<event>
 5    1  0.3330238E-002  0.1250034E+03  0.7818608E-02  0.1235064E+00
         -4   -1    0    0    0  501 -0.00000000000E+00  0.00000000000E+00  0.22577104442E+03  0.22577461637E+03  0.12700000000E+01 0.  1.
          4   -1    0    0  501    0  0.00000000000E+00 -0.00000000000E+00 -0.17275756214E+02  0.17322374339E+02  0.12700000000E+01 0.  1.
         25    2    1    2    0    0  0.00000000000E+00  0.00000000000E+00  0.20849528821E+03  0.24309699071E+03  0.12500344671E+03 0.  0.
    9000005    1    3    3    0    0 -0.48659044038E+02 -0.30228565548E+02  0.15282666244E+03  0.16321292074E+03  0.10000000000E+01 0.  0.
    9000005    1    3    3    0    0  0.48659044038E+02  0.30228565548E+02  0.55668625765E+02  0.79884069979E+02  0.10000000000E+01 0.  0.
<mgrwt>
<rscale>  0 0.12500345E+03</rscale>
<asrwt>0</asrwt>
<pdfrwt beam="2">  1        4 0.26616693E-02 0.12500345E+03</pdfrwt>
<pdfrwt beam="1">  1       -4 0.34737869E-01 0.12500345E+03</pdfrwt>
<totfact> 0.83331873E+03</totfact>
</mgrwt>
</event>
<event>
 5    1  0.3330238E-002  0.1250002E+03  0.7818608E-02  0.1235069E+00
         -4   -1    0    0    0  501 -0.00000000000E+00  0.00000000000E+00  0.13576240026E+03  0.13576834029E+03  0.12700000000E+01 0. -1.
          4   -1    0    0  501    0  0.00000000000E+00 -0.00000000000E+00 -0.28752201601E+02  0.28780236220E+02  0.12700000000E+01 0. -1.
         25    2    1    2    0    0  0.00000000000E+00  0.00000000000E+00  0.10701019866E+03  0.16454857651E+03  0.12500020566E+03 0.  0.
    9000005    1    3    3    0    0  0.22815271871E+02  0.43508994019E+02  0.26630293147E+01  0.49210374071E+02  0.10000000000E+01 0.  0.
    9000005    1    3    3    0    0 -0.22815271871E+02 -0.43508994019E+02  0.10434716935E+03  0.11533820244E+03  0.10000000000E+01 0.  0.
<mgrwt>
<rscale>  0 0.12500021E+03</rscale>
<asrwt>0</asrwt>
<pdfrwt beam="2">  1        4 0.44260291E-02 0.12500021E+03</pdfrwt>
<pdfrwt beam="1">  1       -4 0.20889136E-01 0.12500021E+03</pdfrwt>
<totfact> 0.96472507E+03</totfact>
</mgrwt>
</event>
<event>
 5    1  0.3330238E-002  0.1249984E+03  0.7818608E-02  0.1235072E+00
         -4   -1    0    0    0  501 -0.00000000000E+00  0.00000000000E+00  0.57367359796E+03  0.57367500372E+03  0.12700000000E+01 0. -1.
          4   -1    0    0  501    0  0.00000000000E+00 -0.00000000000E+00 -0.67483650440E+01  0.68668282902E+01  0.12700000000E+01 0. -1.
         25    2    1    2    0    0  0.00000000000E+00  0.00000000000E+00  0.56692523292E+03  0.58054183201E+03  0.12499839599E+03 0.  0.
    9000005    1    3    3    0    0  0.46822141367E+01 -0.44909154688E+02  0.48410875021E+03  0.48621089800E+03  0.10000000000E+01 0.  0.
    9000005    1    3    3    0    0 -0.46822141367E+01  0.44909154688E+02  0.82816482705E+02  0.94330934013E+02  0.10000000000E+01 0.  0.
<mgrwt>
<rscale>  0 0.12499840E+03</rscale>
<asrwt>0</asrwt>
<pdfrwt beam="2">  1        4 0.10474306E-02 0.12499840E+03</pdfrwt>
<pdfrwt beam="1">  1       -4 0.88266705E-01 0.12499840E+03</pdfrwt>
<totfact> 0.50121122E+03</totfact>
</mgrwt>
</event>
<event>
 5    1  0.3330238E-002  0.1250001E+03  0.7818608E-02  0.1235069E+00
         -4   -1    0    0    0  501 -0.00000000000E+00  0.00000000000E+00  0.34850165853E+01  0.37092102393E+01  0.12700000000E+01 0. -1.
          4   -1    0    0  501    0  0.00000000000E+00 -0.00000000000E+00 -0.10857167371E+04  0.10857174799E+04  0.12700000000E+01 0. -1.
         25    2    1    2    0    0  0.00000000000E+00  0.00000000000E+00 -0.10822317205E+04  0.10894266901E+04  0.12500006503E+03 0.  0.
    9000005    1    3    3    0    0  0.46702666812E+02 -0.40885612302E+02 -0.60425398114E+03  0.60743447886E+03  0.10000000000E+01 0.  0.
    9000005    1    3    3    0    0 -0.46702666812E+02  0.40885612302E+02 -0.47797773936E+03  0.48199221124E+03  0.10000000000E+01 0.  0.
<mgrwt>
<rscale>  0 0.12500007E+03</rscale>
<asrwt>0</asrwt>
<pdfrwt beam="2">  1        4 0.16705039E+00 0.12500007E+03</pdfrwt>
<pdfrwt beam="1">  1       -4 0.55346007E-03 0.12500007E+03</pdfrwt>
<totfact> 0.27794925E+03</totfact>
</mgrwt>
</event>
<event>
 5    1  0.3330238E-002  0.1249992E+03  0.7818608E-02  0.1235071E+00
         -4   -1    0    0    0  501 -0.00000000000E+00  0.00000000000E+00  0.36129399298E+01  0.38296520647E+01  0.12700000000E+01 0. -1.
          4   -1    0    0  501    0  0.00000000000E+00 -0.00000000000E+00 -0.10494707730E+04  0.10494715414E+04  0.12700000000E+01 0. -1.
         25    2    1    2    0    0  0.00000000000E+00  0.00000000000E+00 -0.10458578331E+04  0.10533011935E+04  0.12499918893E+03 0.  0.
    9000005    1    3    3    0    0  0.25409020423E+02  0.26848455419E+02 -0.94750411033E+03  0.94822544628E+03  0.10000000000E+01 0.  0.
    9000005    1    3    3    0    0 -0.25409020423E+02 -0.26848455419E+02 -0.98353722741E+02  0.10507574722E+03  0.10000000000E+01 0.  0.
<mgrwt>
<rscale>  0 0.12499919E+03</rscale>
<asrwt>0</asrwt>
<pdfrwt beam="2">  1        4 0.16147354E+00 0.12499919E+03</pdfrwt>
<pdfrwt beam="1">  1       -4 0.57256702E-03 0.12499919E+03</pdfrwt>
<totfact> 0.28892473E+03</totfact>
</mgrwt>
</event>
<event>
 4    1  0.3330238E-002  0.1250779E+03  0.7818608E-02  0.1234948E+00
         -4   -1    0    0    0  501 -0.00000000000E+00  0.00000000000E+00  0.51844735265E+02  0.51860288031E+02  0.12700000000E+01 0.  1.
          4   -1    0    0  501    0  0.00000000000E+00 -0.00000000000E+00 -0.75406921747E+02  0.75417615630E+02  0.12700000000E+01 0.  1.
    9000005    1    1    2    0    0  0.48698249438E+02  0.38304408653E+02 -0.20378051581E+02  0.65230454596E+02  0.10000000000E+01 0.  0.
    9000005    1    1    2    0    0 -0.48698249438E+02 -0.38304408653E+02 -0.31841349014E+01  0.62047449066E+02  0.10000000000E+01 0.  0.
<mgrwt>
<rscale>  0 0.12507793E+03</rscale>
<asrwt>0</asrwt>
<pdfrwt beam="2">  1        4 0.11603084E-01 0.12507793E+03</pdfrwt>
<pdfrwt beam="1">  1       -4 0.79781321E-02 0.12507793E+03</pdfrwt>
<totfact> 0.10384834E+04</totfact>
</mgrwt>
</event>
<event>
 5    1  0.3330238E-002  0.1250047E+03  0.7818608E-02  0.1235062E+00
         -4   -1    0    0    0  501 -0.00000000000E+00  0.00000000000E+00  0.45191192639E+03  0.45191371092E+03  0.12700000000E+01 0. -1.
          4   -1    0    0  501    0  0.00000000000E+00 -0.00000000000E+00 -0.85960280978E+01  0.86893382405E+01  0.12700000000E+01 0. -1.
         25    2    1    2    0    0  0.00000000000E+00  0.00000000000E+00  0.44331589829E+03  0.46060304916E+03  0.12500473276E+03 0.  0.
    9000005    1    3    3    0    0 -0.66588742151E+01  0.29555957024E+00  0.45061650700E+03  0.45066691063E+03  0.10000000000E+01 0.  0.
    9000005    1    3    3    0    0  0.66588742151E+01 -0.29555957024E+00 -0.73006087053E+01  0.99361385226E+01  0.10000000000E+01 0.  0.
<mgrwt>
<rscale>  0 0.12500473E+03</rscale>
<asrwt>0</asrwt>
<pdfrwt beam="2">  1        4 0.13297807E-02 0.12500473E+03</pdfrwt>
<pdfrwt beam="1">  1       -4 0.69532232E-01 0.12500473E+03</pdfrwt>
<totfact> 0.59049976E+03</totfact>
</mgrwt>
</event>
<event>
 5    1  0.3330238E-002  0.1250008E+03  0.7818608E-02  0.1235068E+00
          4   -1    0    0  501    0  0.00000000000E+00  0.00000000000E+00  0.12122213792E+02  0.12188558866E+02  0.12700000000E+01 0. -1.
         -4   -1    0    0    0  501 -0.00000000000E+00 -0.00000000000E+00 -0.32129624503E+03  0.32129875501E+03  0.12700000000E+01 0. -1.
         25    2    1    2    0    0  0.00000000000E+00  0.00000000000E+00 -0.30917403124E+03  0.33348731387E+03  0.12500082769E+03 0.  0.
    9000005    1    3    3    0    0 -0.22371481781E+01  0.22788728921E+02  0.53989183042E+00  0.22926458099E+02  0.10000000000E+01 0.  0.
    9000005    1    3    3    0    0  0.22371481781E+01 -0.22788728921E+02 -0.30971392307E+03  0.31056085577E+03  0.10000000000E+01 0.  0.
<mgrwt>
<rscale>  0 0.12500083E+03</rscale>
<asrwt>0</asrwt>
<pdfrwt beam="1">  1        4 0.18702528E-02 0.12500083E+03</pdfrwt>
<pdfrwt beam="2">  1       -4 0.49435482E-01 0.12500083E+03</pdfrwt>
<totfact> 0.71578881E+03</totfact>
</mgrwt>
</event>
<event>
 5    1  0.3330238E-002  0.1249991E+03  0.7818608E-02  0.1235071E+00
         -4   -1    0    0    0  501 -0.00000000000E+00  0.00000000000E+00  0.66337486528E+02  0.66349642190E+02  0.12700000000E+01 0. -1.
          4   -1    0    0  501    0  0.00000000000E+00 -0.00000000000E+00 -0.58859283346E+02  0.58872983073E+02  0.12700000000E+01 0. -1.
         25    2    1    2    0    0  0.00000000000E+00  0.00000000000E+00  0.74782031821E+01  0.12522262526E+03  0.12499912942E+03 0.  0.
    9000005    1    3    3    0    0 -0.41356570186E+02  0.44675122797E+02 -0.10391546451E+02  0.61767440712E+02  0.10000000000E+01 0.  0.
    9000005    1    3    3    0    0  0.41356570186E+02 -0.44675122797E+02  0.17869749633E+02  0.63455184551E+02  0.10000000000E+01 0.  0.
<mgrwt>
<rscale>  0 0.12499913E+03</rscale>
<asrwt>0</asrwt>
<pdfrwt beam="2">  1        4 0.90572633E-02 0.12499913E+03</pdfrwt>
<pdfrwt beam="1">  1       -4 0.10207756E-01 0.12499913E+03</pdfrwt>
<totfact> 0.10448235E+04</totfact>
</mgrwt>
</event>
<event>
 5    1  0.3330238E-002  0.1249978E+03  0.7818608E-02  0.1235073E+00
         -4   -1    0    0    0  501 -0.00000000000E+00  0.00000000000E+00  0.76970665909E+02  0.76981142564E+02  0.12700000000E+01 0. -1.
          4   -1    0    0  501    0  0.00000000000E+00 -0.00000000000E+00 -0.50726198765E+02  0.50742094371E+02  0.12700000000E+01 0. -1.
         25    2    1    2    0    0  0.00000000000E+00  0.00000000000E+00  0.26244467144E+02  0.12772323693E+03  0.12499781277E+03 0.  0.
    9000005    1    3    3    0    0 -0.19482462312E+02 -0.86854709722E+01 -0.46896101771E+02  0.51529099595E+02  0.10000000000E+01 0.  0.
    9000005    1    3    3    0    0  0.19482462312E+02  0.86854709722E+01  0.73140568915E+02  0.76194137340E+02  0.10000000000E+01 0.  0.
<mgrwt>
<rscale>  0 0.12499781E+03</rscale>
<asrwt>0</asrwt>
<pdfrwt beam="2">  1        4 0.78060592E-02 0.12499781E+03</pdfrwt>
<pdfrwt beam="1">  1       -4 0.11843670E-01 0.12499781E+03</pdfrwt>
<totfact> 0.10393982E+04</totfact>
</mgrwt>
</event>
<event>
 5    1  0.3330238E-002  0.1250016E+03  0.7818608E-02  0.1235067E+00
          4   -1    0    0  501    0  0.00000000000E+00  0.00000000000E+00  0.32279960889E+02  0.32304934220E+02  0.12700000000E+01 0. -1.
         -4   -1    0    0    0  501 -0.00000000000E+00 -0.00000000000E+00 -0.12093955680E+03  0.12094622483E+03  0.12700000000E+01 0. -1.
         25    2    1    2    0    0  0.00000000000E+00  0.00000000000E+00 -0.88659595914E+02  0.15325115905E+03  0.12500157520E+03 0.  0.
    9000005    1    3    3    0    0 -0.20732197627E+01  0.75186280795E+01 -0.12034656044E+03  0.12060316172E+03  0.10000000000E+01 0.  0.
    9000005    1    3    3    0    0  0.20732197627E+01 -0.75186280795E+01  0.31686964524E+02  0.32647997322E+02  0.10000000000E+01 0.  0.
<mgrwt>
<rscale>  0 0.12500158E+03</rscale>
<asrwt>0</asrwt>
<pdfrwt beam="1">  1        4 0.49685819E-02 0.12500158E+03</pdfrwt>
<pdfrwt beam="2">  1       -4 0.18608519E-01 0.12500158E+03</pdfrwt>
<totfact> 0.98656035E+03</totfact>
</mgrwt>
</event>
<event>
 5    1  0.3330238E-002  0.1250004E+03  0.7818608E-02  0.1235069E+00
         -4   -1    0    0    0  501 -0.00000000000E+00  0.00000000000E+00  0.18786080306E+03  0.18786509581E+03  0.12700000000E+01 0.  1.
          4   -1    0    0  501    0  0.00000000000E+00 -0.00000000000E+00 -0.20769543496E+02  0.20808335758E+02  0.12700000000E+01 0.  1.
         25    2    1    2    0    0  0.00000000000E+00  0.00000000000E+00  0.16709125956E+03  0.20867343157E+03  0.12500044809E+03 0.  0.
    9000005    1    3    3    0    0 -0.47299798802E+01  0.51562451004E+02  0.25135908259E+02  0.57566248334E+02  0.10000000000E+01 0.  0.
    9000005    1    3    3    0    0  0.47299798802E+01 -0.51562451004E+02  0.14195535130E+03  0.15110718324E+03  0.10000000000E+01 0.  0.
<mgrwt>
<rscale>  0 0.12500045E+03</rscale>
<asrwt>0</asrwt>
<pdfrwt beam="2">  1        4 0.31986287E-02 0.12500045E+03</pdfrwt>
<pdfrwt beam="1">  1       -4 0.28904975E-01 0.12500045E+03</pdfrwt>
<totfact> 0.88692098E+03</totfact>
</mgrwt>
</event>
<event>
 5    1  0.3330238E-002  0.1250029E+03  0.7818608E-02  0.1235065E+00
          4   -1    0    0  501    0  0.00000000000E+00  0.00000000000E+00  0.54897950010E+03  0.54898096909E+03  0.12700000000E+01 0.  1.
         -4   -1    0    0    0  501 -0.00000000000E+00 -0.00000000000E+00 -0.70576535876E+01  0.71710092848E+01  0.12700000000E+01 0.  1.
         25    2    1    2    0    0  0.00000000000E+00  0.00000000000E+00  0.54192184651E+03  0.55615197838E+03  0.12500294128E+03 0.  0.
    9000005    1    3    3    0    0 -0.14084618651E+02 -0.54822036850E+02  0.15311391877E+03  0.16324430872E+03  0.10000000000E+01 0.  0.
    9000005    1    3    3    0    0  0.14084618651E+02  0.54822036850E+02  0.38880792774E+03  0.39290766966E+03  0.10000000000E+01 0.  0.
<mgrwt>
<rscale>  0 0.12500294E+03</rscale>
<asrwt>0</asrwt>
<pdfrwt beam="1">  1        4 0.84467208E-01 0.12500294E+03</pdfrwt>
<pdfrwt beam="2">  1       -4 0.10946256E-02 0.12500294E+03</pdfrwt>
<totfact> 0.51754469E+03</totfact>
</mgrwt>
</event>
<event>
 5    1  0.3330238E-002  0.1249992E+03  0.7818608E-02  0.1235071E+00
          4   -1    0    0  501    0  0.00000000000E+00  0.00000000000E+00  0.57246443571E+02  0.57260529176E+02  0.12700000000E+01 0.  1.
         -4   -1    0    0    0  501 -0.00000000000E+00 -0.00000000000E+00 -0.68206408478E+02  0.68218231122E+02  0.12700000000E+01 0.  1.
         25    2    1    2    0    0  0.00000000000E+00  0.00000000000E+00 -0.10959964907E+02  0.12547876030E+03  0.12499919382E+03 0.  0.
    9000005    1    3    3    0    0 -0.13456257135E+02 -0.16894123851E+02  0.53385573005E+02  0.57597757611E+02  0.10000000000E+01 0.  0.
    9000005    1    3    3    0    0  0.13456257135E+02  0.16894123851E+02 -0.64345537911E+02  0.67881002687E+02  0.10000000000E+01 0.  0.
<mgrwt>
<rscale>  0 0.12499919E+03</rscale>
<asrwt>0</asrwt>
<pdfrwt beam="1">  1        4 0.88091381E-02 0.12499919E+03</pdfrwt>
<pdfrwt beam="2">  1       -4 0.10495287E-01 0.12499919E+03</pdfrwt>
<totfact> 0.10442613E+04</totfact>
</mgrwt>
</event>
<event>
 5    1  0.3330238E-002  0.1249998E+03  0.7818608E-02  0.1235070E+00
         -4   -1    0    0    0  501 -0.00000000000E+00  0.00000000000E+00  0.12183276577E+03  0.12183938491E+03  0.12700000000E+01 0.  1.
          4   -1    0    0  501    0  0.00000000000E+00 -0.00000000000E+00 -0.32042238788E+02  0.32067397253E+02  0.12700000000E+01 0.  1.
         25    2    1    2    0    0  0.00000000000E+00  0.00000000000E+00  0.89790526982E+02  0.15390678216E+03  0.12499983544E+03 0.  0.
    9000005    1    3    3    0    0 -0.26399921194E+02 -0.20983915662E+02  0.10967335607E+03  0.11474548177E+03  0.10000000000E+01 0.  0.
    9000005    1    3    3    0    0  0.26399921194E+02  0.20983915662E+02 -0.19882829090E+02  0.39161300389E+02  0.10000000000E+01 0.  0.
<mgrwt>
<rscale>  0 0.12499984E+03</rscale>
<asrwt>0</asrwt>
<pdfrwt beam="2">  1        4 0.49320197E-02 0.12499984E+03</pdfrwt>
<pdfrwt beam="1">  1       -4 0.18745947E-01 0.12499984E+03</pdfrwt>
<totfact> 0.98530904E+03</totfact>
</mgrwt>
</event>
<event>
 5    1  0.3330238E-002  0.1249995E+03  0.7818608E-02  0.1235070E+00
          4   -1    0    0  501    0  0.00000000000E+00  0.00000000000E+00  0.15363434233E+03  0.15363959139E+03  0.12700000000E+01 0. -1.
         -4   -1    0    0    0  501 -0.00000000000E+00 -0.00000000000E+00 -0.25403876626E+02  0.25435601971E+02  0.12700000000E+01 0. -1.
         25    2    1    2    0    0  0.00000000000E+00  0.00000000000E+00  0.12823046570E+03  0.17907519336E+03  0.12499949017E+03 0.  0.
    9000005    1    3    3    0    0  0.32060079640E+02  0.41185088206E+02  0.11335105267E+03  0.12479391547E+03  0.10000000000E+01 0.  0.
    9000005    1    3    3    0    0 -0.32060079640E+02 -0.41185088206E+02  0.14879413029E+02  0.54281277888E+02  0.10000000000E+01 0.  0.
<mgrwt>
<rscale>  0 0.12499949E+03</rscale>
<asrwt>0</asrwt>
<pdfrwt beam="1">  1        4 0.23638896E-01 0.12499949E+03</pdfrwt>
<pdfrwt beam="2">  1       -4 0.39111330E-02 0.12499949E+03</pdfrwt>
<totfact> 0.93784809E+03</totfact>
</mgrwt>
</event>
<event>
 5    1  0.3330238E-002  0.1250124E+03  0.7818608E-02  0.1235050E+00
         -4   -1    0    0    0  501 -0.00000000000E+00  0.00000000000E+00  0.90677089819E+02  0.90685983029E+02  0.12700000000E+01 0.  1.
          4   -1    0    0  501    0  0.00000000000E+00 -0.00000000000E+00 -0.43066865235E+02  0.43085586698E+02  0.12700000000E+01 0.  1.
         25    2    1    2    0    0  0.00000000000E+00  0.00000000000E+00  0.47610224584E+02  0.13377156973E+03  0.12501239692E+03 0.  0.
    9000005    1    3    3    0    0 -0.16048347479E+01  0.46900882226E+02  0.67973802058E+02  0.82605726281E+02  0.10000000000E+01 0.  0.
    9000005    1    3    3    0    0  0.16048347479E+01 -0.46900882226E+02 -0.20363577474E+02  0.51165843447E+02  0.10000000000E+01 0.  0.
<mgrwt>
<rscale>  0 0.12501240E+03</rscale>
<asrwt>0</asrwt>
<pdfrwt beam="2">  1        4 0.66277959E-02 0.12501240E+03</pdfrwt>
<pdfrwt beam="1">  1       -4 0.13952446E-01 0.12501240E+03</pdfrwt>
<totfact> 0.10261159E+04</totfact>
</mgrwt>
</event>
<event>
 5    1  0.3330238E-002  0.1250035E+03  0.7818608E-02  0.1235064E+00
          4   -1    0    0  501    0  0.00000000000E+00  0.00000000000E+00  0.37206918640E+02  0.37228587063E+02  0.12700000000E+01 0. -1.
         -4   -1    0    0    0  501 -0.00000000000E+00 -0.00000000000E+00 -0.10493699278E+03  0.10494467758E+03  0.12700000000E+01 0. -1.
         25    2    1    2    0    0  0.00000000000E+00  0.00000000000E+00 -0.67730074138E+02  0.14217326465E+03  0.12500349690E+03 0.  0.
    9000005    1    3    3    0    0 -0.29817349144E+02  0.52105899584E+02 -0.14120570427E+02  0.61680544669E+02  0.10000000000E+01 0.  0.
    9000005    1    3    3    0    0  0.29817349144E+02 -0.52105899584E+02 -0.53609503711E+02  0.80492719979E+02  0.10000000000E+01 0.  0.
<mgrwt>
<rscale>  0 0.12500350E+03</rscale>
<asrwt>0</asrwt>
<pdfrwt beam="1">  1        4 0.57263993E-02 0.12500350E+03</pdfrwt>
<pdfrwt beam="2">  1       -4 0.16146411E-01 0.12500350E+03</pdfrwt>
<totfact> 0.10087946E+04</totfact>
</mgrwt>
</event>
<event>
 5    1  0.3330238E-002  0.1249969E+03  0.7818608E-02  0.1235074E+00
          4   -1    0    0  501    0  0.00000000000E+00  0.00000000000E+00  0.94144520598E+02  0.94153086294E+02  0.12700000000E+01 0. -1.
         -4   -1    0    0    0  501 -0.00000000000E+00 -0.00000000000E+00 -0.41469825849E+02  0.41489267961E+02  0.12700000000E+01 0. -1.
         25    2    1    2    0    0  0.00000000000E+00  0.00000000000E+00  0.52674694749E+02  0.13564235425E+03  0.12499689916E+03 0.  0.
    9000005    1    3    3    0    0 -0.66832588150E+01 -0.32857096247E+02  0.83561724248E+02  0.90043414426E+02  0.10000000000E+01 0.  0.
    9000005    1    3    3    0    0  0.66832588150E+01  0.32857096247E+02 -0.30887029499E+02  0.45598939828E+02  0.10000000000E+01 0.  0.
<mgrwt>
<rscale>  0 0.12499690E+03</rscale>
<asrwt>0</asrwt>
<pdfrwt beam="1">  1        4 0.14485927E-01 0.12499690E+03</pdfrwt>
<pdfrwt beam="2">  1       -4 0.63821277E-02 0.12499690E+03</pdfrwt>
<totfact> 0.10225264E+04</totfact>
</mgrwt>
</event>
<event>
 5    1  0.3330238E-002  0.1249998E+03  0.7818608E-02  0.1235070E+00
          4   -1    0    0  501    0  0.00000000000E+00  0.00000000000E+00  0.87225659121E+02  0.87234904191E+02  0.12700000000E+01 0.  1.
         -4   -1    0    0    0  501 -0.00000000000E+00 -0.00000000000E+00 -0.44762476949E+02  0.44780489530E+02  0.12700000000E+01 0.  1.
         25    2    1    2    0    0  0.00000000000E+00  0.00000000000E+00  0.42463182173E+02  0.13201539372E+03  0.12499976936E+03 0.  0.
    9000005    1    3    3    0    0 -0.42090695745E+02 -0.26358592681E+02 -0.18829302775E+02  0.53121979626E+02  0.10000000000E+01 0.  0.
    9000005    1    3    3    0    0  0.42090695745E+02  0.26358592681E+02  0.61292484948E+02  0.78893414095E+02  0.10000000000E+01 0.  0.
<mgrwt>
<rscale>  0 0.12499977E+03</rscale>
<asrwt>0</asrwt>
<pdfrwt beam="1">  1        4 0.13421429E-01 0.12499977E+03</pdfrwt>
<pdfrwt beam="2">  1       -4 0.68886317E-02 0.12499977E+03</pdfrwt>
<totfact> 0.10301423E+04</totfact>
</mgrwt>
</event>
<event>
 5    1  0.3330238E-002  0.1249965E+03  0.7818608E-02  0.1235075E+00
          4   -1    0    0  501    0  0.00000000000E+00  0.00000000000E+00  0.20173230564E+03  0.20173630322E+03  0.12700000000E+01 0. -1.
         -4   -1    0    0    0  501 -0.00000000000E+00 -0.00000000000E+00 -0.19337421887E+02  0.19379081125E+02  0.12700000000E+01 0. -1.
         25    2    1    2    0    0  0.00000000000E+00  0.00000000000E+00  0.18239488375E+03  0.22111538435E+03  0.12499647826E+03 0.  0.
    9000005    1    3    3    0    0 -0.14066857313E+02  0.51032688630E+02  0.32452141618E+02  0.62099543308E+02  0.10000000000E+01 0.  0.
    9000005    1    3    3    0    0  0.14066857313E+02 -0.51032688630E+02  0.14994274213E+03  0.15901584104E+03  0.10000000000E+01 0.  0.
<mgrwt>
<rscale>  0 0.12499648E+03</rscale>
<asrwt>0</asrwt>
<pdfrwt beam="1">  1        4 0.31039252E-01 0.12499648E+03</pdfrwt>
<pdfrwt beam="2">  1       -4 0.29785000E-02 0.12499648E+03</pdfrwt>
<totfact> 0.86698980E+03</totfact>
</mgrwt>
</event>
<event>
 5    1  0.3330238E-002  0.1249985E+03  0.7818608E-02  0.1235072E+00
         -4   -1    0    0    0  501 -0.00000000000E+00  0.00000000000E+00  0.86293992516E+01  0.87223524031E+01  0.12700000000E+01 0.  1.
          4   -1    0    0  501    0  0.00000000000E+00 -0.00000000000E+00 -0.45013783599E+03  0.45013962754E+03  0.12700000000E+01 0.  1.
         25    2    1    2    0    0  0.00000000000E+00  0.00000000000E+00 -0.44150843673E+03  0.45886197995E+03  0.12499846773E+03 0.  0.
    9000005    1    3    3    0    0  0.55268819602E+02  0.90620259836E+01 -0.11899619531E+03  0.13152131855E+03  0.10000000000E+01 0.  0.
    9000005    1    3    3    0    0 -0.55268819602E+02 -0.90620259836E+01 -0.32251224142E+03  0.32734066140E+03  0.10000000000E+01 0.  0.
<mgrwt>
<rscale>  0 0.12499847E+03</rscale>
<asrwt>0</asrwt>
<pdfrwt beam="2">  1        4 0.69259245E-01 0.12499847E+03</pdfrwt>
<pdfrwt beam="1">  1       -4 0.13348883E-02 0.12499847E+03</pdfrwt>
<totfact> 0.59205703E+03</totfact>
</mgrwt>
</event>
<event>
 5    1  0.3330238E-002  0.1250057E+03  0.7818608E-02  0.1235060E+00
          4   -1    0    0  501    0  0.00000000000E+00  0.00000000000E+00  0.14208813030E+03  0.14209380589E+03  0.12700000000E+01 0.  1.
         -4   -1    0    0    0  501 -0.00000000000E+00 -0.00000000000E+00 -0.27473336344E+02  0.27502674595E+02  0.12700000000E+01 0.  1.
         25    2    1    2    0    0  0.00000000000E+00  0.00000000000E+00  0.11461479396E+03  0.16959648048E+03  0.12500566067E+03 0.  0.
    9000005    1    3    3    0    0  0.56889836763E+02 -0.13969292279E+02  0.86845358230E+02  0.10476025439E+03  0.10000000000E+01 0.  0.
    9000005    1    3    3    0    0 -0.56889836763E+02  0.13969292279E+02  0.27769435726E+02  0.64836226094E+02  0.10000000000E+01 0.  0.
<mgrwt>
<rscale>  0 0.12500566E+03</rscale>
<asrwt>0</asrwt>
<pdfrwt beam="1">  1        4 0.21862405E-01 0.12500566E+03</pdfrwt>
<pdfrwt beam="2">  1       -4 0.42293606E-02 0.12500566E+03</pdfrwt>
<totfact> 0.95511763E+03</totfact>
</mgrwt>
</event>
<event>
 5    1  0.3330238E-002  0.1249943E+03  0.7818608E-02  0.1235078E+00
         -4   -1    0    0    0  501 -0.00000000000E+00  0.00000000000E+00  0.21388532210E+03  0.21388909255E+03  0.12700000000E+01 0. -1.
          4   -1    0    0  501    0  0.00000000000E+00 -0.00000000000E+00 -0.18235615118E+02  0.18279785523E+02  0.12700000000E+01 0. -1.
         25    2    1    2    0    0  0.00000000000E+00  0.00000000000E+00  0.19564970698E+03  0.23216887807E+03  0.12499432028E+03 0.  0.
    9000005    1    3    3    0    0 -0.79926052003E+01 -0.39500385302E+02  0.18653043195E+03  0.19083700956E+03  0.10000000000E+01 0.  0.
    9000005    1    3    3    0    0  0.79926052003E+01  0.39500385302E+02  0.91192750345E+01  0.41331868504E+02  0.10000000000E+01 0.  0.
<mgrwt>
<rscale>  0 0.12499432E+03</rscale>
<asrwt>0</asrwt>
<pdfrwt beam="2">  1        4 0.28091671E-02 0.12499432E+03</pdfrwt>
<pdfrwt beam="1">  1       -4 0.32909121E-01 0.12499432E+03</pdfrwt>
<totfact> 0.84988440E+03</totfact>
</mgrwt>
</event>
<event>
 5    1  0.3330238E-002  0.1250020E+03  0.7818608E-02  0.1235066E+00
         -4   -1    0    0    0  501 -0.00000000000E+00  0.00000000000E+00  0.45928805952E+01  0.47652336943E+01  0.12700000000E+01 0.  1.
          4   -1    0    0  501    0  0.00000000000E+00 -0.00000000000E+00 -0.83469070432E+03  0.83469167049E+03  0.12700000000E+01 0.  1.
         25    2    1    2    0    0  0.00000000000E+00  0.00000000000E+00 -0.83009782373E+03  0.83945690418E+03  0.12500198808E+03 0.  0.
    9000005    1    3    3    0    0 -0.44425908731E+02 -0.42110156946E+02 -0.49958152186E+03  0.50331861049E+03  0.10000000000E+01 0.  0.
    9000005    1    3    3    0    0  0.44425908731E+02  0.42110156946E+02 -0.33051630187E+03  0.33613829369E+03  0.10000000000E+01 0.  0.
<mgrwt>
<rscale>  0 0.12500199E+03</rscale>
<asrwt>0</asrwt>
<pdfrwt beam="2">  1        4 0.12842717E+00 0.12500199E+03</pdfrwt>
<pdfrwt beam="1">  1       -4 0.71992993E-03 0.12500199E+03</pdfrwt>
<totfact> 0.36561128E+03</totfact>
</mgrwt>
</event>
<event>
 5    1  0.3330238E-002  0.1250052E+03  0.7818608E-02  0.1235061E+00
          4   -1    0    0  501    0  0.00000000000E+00  0.00000000000E+00  0.24346520753E+03  0.24346851989E+03  0.12700000000E+01 0.  1.
         -4   -1    0    0    0  501 -0.00000000000E+00 -0.00000000000E+00 -0.16017169299E+02  0.16067439509E+02  0.12700000000E+01 0.  1.
         25    2    1    2    0    0  0.00000000000E+00  0.00000000000E+00  0.22744803823E+03  0.25953595940E+03  0.12500521640E+03 0.  0.
    9000005    1    3    3    0    0 -0.62094480425E+02 -0.82911175969E+00  0.99166295311E+02  0.11701011089E+03  0.10000000000E+01 0.  0.
    9000005    1    3    3    0    0  0.62094480425E+02  0.82911175969E+00  0.12828174292E+03  0.14252584850E+03  0.10000000000E+01 0.  0.
<mgrwt>
<rscale>  0 0.12500522E+03</rscale>
<asrwt>0</asrwt>
<pdfrwt beam="1">  1        4 0.37460310E-01 0.12500522E+03</pdfrwt>
<pdfrwt beam="2">  1       -4 0.24683015E-02 0.12500522E+03</pdfrwt>
<totfact> 0.80961822E+03</totfact>
</mgrwt>
</event>
<event>
 5    1  0.3330238E-002  0.1249970E+03  0.7818608E-02  0.1235074E+00
         -4   -1    0    0    0  501 -0.00000000000E+00  0.00000000000E+00  0.27938290955E+04  0.27938293841E+04  0.12700000000E+01 0.  1.
          4   -1    0    0  501    0  0.00000000000E+00 -0.00000000000E+00 -0.11093461593E+01  0.16862825686E+01  0.12700000000E+01 0.  1.
         25    2    1    2    0    0  0.00000000000E+00  0.00000000000E+00  0.27927197493E+04  0.27955156667E+04  0.12499697810E+03 0.  0.
    9000005    1    3    3    0    0 -0.39648290445E+02  0.89613850803E+01  0.24578614166E+04  0.24581977212E+04  0.10000000000E+01 0.  0.
    9000005    1    3    3    0    0  0.39648290445E+02 -0.89613850803E+01  0.33485833270E+03  0.33731794547E+03  0.10000000000E+01 0.  0.
<mgrwt>
<rscale>  0 0.12499698E+03</rscale>
<asrwt>0</asrwt>
<pdfrwt beam="2">  1        4 0.21507039E-03 0.12499698E+03</pdfrwt>
<pdfrwt beam="1">  1       -4 0.42986463E+00 0.12499698E+03</pdfrwt>
<totfact> 0.27414885E+02</totfact>
</mgrwt>
</event>
<event>
 5    1  0.3330238E-002  0.1250016E+03  0.7818608E-02  0.1235067E+00
          4   -1    0    0  501    0  0.00000000000E+00  0.00000000000E+00  0.94124324747E+03  0.94124410427E+03  0.12700000000E+01 0.  1.
         -4   -1    0    0    0  501 -0.00000000000E+00 -0.00000000000E+00 -0.40521673925E+01  0.42465233518E+01  0.12700000000E+01 0.  1.
         25    2    1    2    0    0  0.00000000000E+00  0.00000000000E+00  0.93719108008E+03  0.94549062762E+03  0.12500162530E+03 0.  0.
    9000005    1    3    3    0    0  0.35991725032E+02  0.38287750809E+02  0.21276421703E+03  0.21915968649E+03  0.10000000000E+01 0.  0.
    9000005    1    3    3    0    0 -0.35991725032E+02 -0.38287750809E+02  0.72442686305E+03  0.72633094113E+03  0.10000000000E+01 0.  0.
<mgrwt>
<rscale>  0 0.12500163E+03</rscale>
<asrwt>0</asrwt>
<pdfrwt beam="1">  1        4 0.14482162E+00 0.12500163E+03</pdfrwt>
<pdfrwt beam="2">  1       -4 0.63842696E-03 0.12500163E+03</pdfrwt>
<totfact> 0.32475473E+03</totfact>
</mgrwt>
</event>
<event>
 5    1  0.3330238E-002  0.1249995E+03  0.7818608E-02  0.1235070E+00
         -4   -1    0    0    0  501 -0.00000000000E+00  0.00000000000E+00  0.38155101787E+03  0.38155313147E+03  0.12700000000E+01 0.  1.
          4   -1    0    0  501    0  0.00000000000E+00 -0.00000000000E+00 -0.10196202557E+02  0.10274991318E+02  0.12700000000E+01 0.  1.
         25    2    1    2    0    0  0.00000000000E+00  0.00000000000E+00  0.37135481531E+03  0.39182812279E+03  0.12499951581E+03 0.  0.
    9000005    1    3    3    0    0  0.37531438646E+01 -0.43455223394E+02  0.45394876591E+02  0.62961395711E+02  0.10000000000E+01 0.  0.
    9000005    1    3    3    0    0 -0.37531438646E+01  0.43455223394E+02  0.32595993872E+03  0.32886672708E+03  0.10000000000E+01 0.  0.
<mgrwt>
<rscale>  0 0.12499952E+03</rscale>
<asrwt>0</asrwt>
<pdfrwt beam="2">  1        4 0.15748697E-02 0.12499952E+03</pdfrwt>
<pdfrwt beam="1">  1       -4 0.58706384E-01 0.12499952E+03</pdfrwt>
<totfact> 0.65356107E+03</totfact>
</mgrwt>
</event>
<event>
 5    1  0.3330238E-002  0.1249981E+03  0.7818608E-02  0.1235072E+00
          4   -1    0    0  501    0  0.00000000000E+00  0.00000000000E+00  0.22841240913E+02  0.22876520419E+02  0.12700000000E+01 0.  1.
         -4   -1    0    0    0  501 -0.00000000000E+00 -0.00000000000E+00 -0.17084263710E+03  0.17084735746E+03  0.12700000000E+01 0.  1.
         25    2    1    2    0    0  0.00000000000E+00  0.00000000000E+00 -0.14800139618E+03  0.19372387788E+03  0.12499811033E+03 0.  0.
    9000005    1    3    3    0    0  0.52542773631E+02 -0.51966436016E+01 -0.12580679556E+03  0.13644082225E+03  0.10000000000E+01 0.  0.
    9000005    1    3    3    0    0 -0.52542773631E+02  0.51966436016E+01 -0.22194600621E+02  0.57283055630E+02  0.10000000000E+01 0.  0.
<mgrwt>
<rscale>  0 0.12499811E+03</rscale>
<asrwt>0</asrwt>
<pdfrwt beam="1">  1        4 0.35171141E-02 0.12499811E+03</pdfrwt>
<pdfrwt beam="2">  1       -4 0.26286559E-01 0.12499811E+03</pdfrwt>
<totfact> 0.91207239E+03</totfact>
</mgrwt>
</event>
<event>
 5    1  0.3330238E-002  0.1250004E+03  0.7818608E-02  0.1235069E+00
          4   -1    0    0  501    0  0.00000000000E+00  0.00000000000E+00  0.12517616310E+02  0.12581876572E+02  0.12700000000E+01 0. -1.
         -4   -1    0    0    0  501 -0.00000000000E+00 -0.00000000000E+00 -0.31119781882E+03  0.31120041025E+03  0.12700000000E+01 0. -1.
         25    2    1    2    0    0  0.00000000000E+00  0.00000000000E+00 -0.29868020251E+03  0.32378228682E+03  0.12500042355E+03 0.  0.
    9000005    1    3    3    0    0 -0.59442454292E+02 -0.18050965426E+02 -0.13176573133E+03  0.14567927333E+03  0.10000000000E+01 0.  0.
    9000005    1    3    3    0    0  0.59442454292E+02  0.18050965426E+02 -0.16691447117E+03  0.17810301348E+03  0.10000000000E+01 0.  0.
<mgrwt>
<rscale>  0 0.12500042E+03</rscale>
<asrwt>0</asrwt>
<pdfrwt beam="1">  1        4 0.19309298E-02 0.12500042E+03</pdfrwt>
<pdfrwt beam="2">  1       -4 0.47881724E-01 0.12500042E+03</pdfrwt>
<totfact> 0.72707839E+03</totfact>
</mgrwt>
</event>
<event>
 5    1  0.3330238E-002  0.1250024E+03  0.7818608E-02  0.1235065E+00
         -4   -1    0    0    0  501 -0.00000000000E+00  0.00000000000E+00  0.97522222205E+03  0.97522304899E+03  0.12700000000E+01 0. -1.
          4   -1    0    0  501    0  0.00000000000E+00 -0.00000000000E+00 -0.39041390984E+01  0.41055087504E+01  0.12700000000E+01 0. -1.
         25    2    1    2    0    0  0.00000000000E+00  0.00000000000E+00  0.97131808295E+03  0.97932855774E+03  0.12500242292E+03 0.  0.
    9000005    1    3    3    0    0  0.65683708203E+01  0.31558883075E+02  0.66218487123E+02  0.73654562880E+02  0.10000000000E+01 0.  0.
    9000005    1    3    3    0    0 -0.65683708203E+01 -0.31558883075E+02  0.90509959583E+03  0.90567399486E+03  0.10000000000E+01 0.  0.
<mgrwt>
<rscale>  0 0.12500242E+03</rscale>
<asrwt>0</asrwt>
<pdfrwt beam="2">  1        4 0.61619033E-03 0.12500242E+03</pdfrwt>
<pdfrwt beam="1">  1       -4 0.15004975E+00 0.12500242E+03</pdfrwt>
<totfact> 0.31295381E+03</totfact>
</mgrwt>
</event>
<event>
 5    1  0.3330238E-002  0.1250018E+03  0.7818608E-02  0.1235066E+00
         -4   -1    0    0    0  501 -0.00000000000E+00  0.00000000000E+00  0.88349567833E+02  0.88358695306E+02  0.12700000000E+01 0.  1.
          4   -1    0    0  501    0  0.00000000000E+00 -0.00000000000E+00 -0.44194344340E+02  0.44212588384E+02  0.12700000000E+01 0.  1.
         25    2    1    2    0    0  0.00000000000E+00  0.00000000000E+00  0.44155223493E+02  0.13257128369E+03  0.12500184598E+03 0.  0.
    9000005    1    3    3    0    0  0.58851265401E+02 -0.13921914494E+02  0.38781741803E+02  0.71849249403E+02  0.10000000000E+01 0.  0.
    9000005    1    3    3    0    0 -0.58851265401E+02  0.13921914494E+02  0.53734816899E+01  0.60722034287E+02  0.10000000000E+01 0.  0.
<mgrwt>
<rscale>  0 0.12500185E+03</rscale>
<asrwt>0</asrwt>
<pdfrwt beam="2">  1        4 0.68012354E-02 0.12500185E+03</pdfrwt>
<pdfrwt beam="1">  1       -4 0.13594347E-01 0.12500185E+03</pdfrwt>
<totfact> 0.10289091E+04</totfact>
</mgrwt>
</event>
<event>
 5    1  0.3330238E-002  0.1250027E+03  0.7818608E-02  0.1235065E+00
          4   -1    0    0  501    0  0.00000000000E+00  0.00000000000E+00  0.33616593021E+03  0.33616832916E+03  0.12700000000E+01 0.  1.
         -4   -1    0    0    0  501 -0.00000000000E+00 -0.00000000000E+00 -0.11583355041E+02  0.11652768512E+02  0.12700000000E+01 0.  1.
         25    2    1    2    0    0  0.00000000000E+00  0.00000000000E+00  0.32458257517E+03  0.34782109767E+03  0.12500267151E+03 0.  0.
    9000005    1    3    3    0    0 -0.32245965189E+02 -0.32931342467E+01  0.13621683028E+02  0.35173814873E+02  0.10000000000E+01 0.  0.
    9000005    1    3    3    0    0  0.32245965189E+02  0.32931342467E+01  0.31096089214E+03  0.31264728280E+03  0.10000000000E+01 0.  0.
<mgrwt>
<rscale>  0 0.12500267E+03</rscale>
<asrwt>0</asrwt>
<pdfrwt beam="1">  1        4 0.51723352E-01 0.12500267E+03</pdfrwt>
<pdfrwt beam="2">  1       -4 0.17875789E-02 0.12500267E+03</pdfrwt>
<totfact> 0.69960795E+03</totfact>
</mgrwt>
</event>
<event>
 5    1  0.3330238E-002  0.1249954E+03  0.7818608E-02  0.1235076E+00
         -4   -1    0    0    0  501 -0.00000000000E+00  0.00000000000E+00  0.40581171211E+02  0.40601038864E+02  0.12700000000E+01 0. -1.
          4   -1    0    0  501    0  0.00000000000E+00 -0.00000000000E+00 -0.96202971821E+02  0.96211354253E+02  0.12700000000E+01 0. -1.
         25    2    1    2    0    0  0.00000000000E+00  0.00000000000E+00 -0.55621800611E+02  0.13681239312E+03  0.12499538474E+03 0.  0.
    9000005    1    3    3    0    0 -0.46744331050E+00  0.60939248109E+02 -0.42943719724E+02  0.74558524175E+02  0.10000000000E+01 0.  0.
    9000005    1    3    3    0    0  0.46744331050E+00 -0.60939248109E+02 -0.12678080887E+02  0.62253868943E+02  0.10000000000E+01 0.  0.
<mgrwt>
<rscale>  0 0.12499538E+03</rscale>
<asrwt>0</asrwt>
<pdfrwt beam="2">  1        4 0.14802630E-01 0.12499538E+03</pdfrwt>
<pdfrwt beam="1">  1       -4 0.62454302E-02 0.12499538E+03</pdfrwt>
<totfact> 0.10201071E+04</totfact>
</mgrwt>
</event>
<event>
 5    1  0.3330238E-002  0.1249988E+03  0.7818608E-02  0.1235071E+00
         -4   -1    0    0    0  501 -0.00000000000E+00  0.00000000000E+00  0.12177906377E+02  0.12243949678E+02  0.12700000000E+01 0. -1.
          4   -1    0    0  501    0  0.00000000000E+00 -0.00000000000E+00 -0.31982452143E+03  0.31982704296E+03  0.12700000000E+01 0. -1.
         25    2    1    2    0    0  0.00000000000E+00  0.00000000000E+00 -0.30764661506E+03  0.33207099264E+03  0.12499881759E+03 0.  0.
    9000005    1    3    3    0    0 -0.45084106607E+02  0.29433571322E+02 -0.23809487467E+03  0.24410874858E+03  0.10000000000E+01 0.  0.
    9000005    1    3    3    0    0  0.45084106607E+02 -0.29433571322E+02 -0.69551740382E+02  0.87962244057E+02  0.10000000000E+01 0.  0.
<mgrwt>
<rscale>  0 0.12499882E+03</rscale>
<asrwt>0</asrwt>
<pdfrwt beam="2">  1        4 0.49209040E-01 0.12499882E+03</pdfrwt>
<pdfrwt beam="1">  1       -4 0.18787985E-02 0.12499882E+03</pdfrwt>
<totfact> 0.71744955E+03</totfact>
</mgrwt>
</event>
<event>
 5    1  0.3330238E-002  0.1249971E+03  0.7818608E-02  0.1235074E+00
          4   -1    0    0  501    0  0.00000000000E+00  0.00000000000E+00  0.43266234288E+03  0.43266420680E+03  0.12700000000E+01 0.  1.
         -4   -1    0    0    0  501 -0.00000000000E+00 -0.00000000000E+00 -0.89814295746E+01  0.90707759979E+01  0.12700000000E+01 0.  1.
         25    2    1    2    0    0  0.00000000000E+00  0.00000000000E+00  0.42368091330E+03  0.44173498279E+03  0.12499711488E+03 0.  0.
    9000005    1    3    3    0    0 -0.77869912035E+01  0.58169930009E+02  0.13598846373E+03  0.14811563138E+03  0.10000000000E+01 0.  0.
    9000005    1    3    3    0    0  0.77869912035E+01 -0.58169930009E+02  0.28769244957E+03  0.29361935142E+03  0.10000000000E+01 0.  0.
<mgrwt>
<rscale>  0 0.12499711E+03</rscale>
<asrwt>0</asrwt>
<pdfrwt beam="1">  1        4 0.66570445E-01 0.12499711E+03</pdfrwt>
<pdfrwt beam="2">  1       -4 0.13887747E-02 0.12499711E+03</pdfrwt>
<totfact> 0.60690363E+03</totfact>
</mgrwt>
</event>
<event>
 5    1  0.3330238E-002  0.1250005E+03  0.7818608E-02  0.1235068E+00
          4   -1    0    0  501    0  0.00000000000E+00  0.00000000000E+00  0.22072387971E+03  0.22072753334E+03  0.12700000000E+01 0. -1.
         -4   -1    0    0    0  501 -0.00000000000E+00 -0.00000000000E+00 -0.17671016466E+02  0.17716594564E+02  0.12700000000E+01 0. -1.
         25    2    1    2    0    0  0.00000000000E+00  0.00000000000E+00  0.20305286325E+03  0.23844412791E+03  0.12500054744E+03 0.  0.
    9000005    1    3    3    0    0  0.10291580357E+02  0.33104384943E+02  0.20070898302E+03  0.20368336406E+03  0.10000000000E+01 0.  0.
    9000005    1    3    3    0    0 -0.10291580357E+02 -0.33104384943E+02  0.23438802242E+01  0.34760763846E+02  0.10000000000E+01 0.  0.
<mgrwt>
<rscale>  0 0.12500055E+03</rscale>
<asrwt>0</asrwt>
<pdfrwt beam="1">  1        4 0.33961310E-01 0.12500055E+03</pdfrwt>
<pdfrwt beam="2">  1       -4 0.27224047E-02 0.12500055E+03</pdfrwt>
<totfact> 0.84028605E+03</totfact>
</mgrwt>
</event>
<event>
 5    1  0.3330238E-002  0.1249963E+03  0.7818608E-02  0.1235075E+00
          4   -1    0    0  501    0  0.00000000000E+00  0.00000000000E+00  0.47903253674E+01  0.49558164943E+01  0.12700000000E+01 0. -1.
         -4   -1    0    0    0  501 -0.00000000000E+00 -0.00000000000E+00 -0.80138525845E+03  0.80138626477E+03  0.12700000000E+01 0. -1.
         25    2    1    2    0    0  0.00000000000E+00  0.00000000000E+00 -0.79659493308E+03  0.80634208126E+03  0.12499625836E+03 0.  0.
    9000005    1    3    3    0    0 -0.87059134997E+00  0.34209750004E+02 -0.73559851684E+03  0.73639476023E+03  0.10000000000E+01 0.  0.
    9000005    1    3    3    0    0  0.87059134997E+00 -0.34209750004E+02 -0.60996416244E+02  0.69947321030E+02  0.10000000000E+01 0.  0.
<mgrwt>
<rscale>  0 0.12499626E+03</rscale>
<asrwt>0</asrwt>
<pdfrwt beam="1">  1        4 0.74978126E-03 0.12499626E+03</pdfrwt>
<pdfrwt beam="2">  1       -4 0.12330274E+00 0.12499626E+03</pdfrwt>
<totfact> 0.37986295E+03</totfact>
</mgrwt>
</event>
<event>
 5    1  0.3330238E-002  0.1250012E+03  0.7818608E-02  0.1235067E+00
          4   -1    0    0  501    0  0.00000000000E+00  0.00000000000E+00  0.69286229792E+02  0.69297868212E+02  0.12700000000E+01 0. -1.
         -4   -1    0    0    0  501 -0.00000000000E+00 -0.00000000000E+00 -0.56356021083E+02  0.56370329184E+02  0.12700000000E+01 0. -1.
         25    2    1    2    0    0  0.00000000000E+00  0.00000000000E+00  0.12930208709E+02  0.12566819740E+03  0.12500122215E+03 0.  0.
    9000005    1    3    3    0    0 -0.24584534645E+02 -0.56575754747E+02  0.16524040719E+02  0.63869079300E+02  0.10000000000E+01 0.  0.
    9000005    1    3    3    0    0  0.24584534645E+02  0.56575754747E+02 -0.35938320106E+01  0.61799118096E+02  0.10000000000E+01 0.  0.
<mgrwt>
<rscale>  0 0.12500122E+03</rscale>
<asrwt>0</asrwt>
<pdfrwt beam="1">  1        4 0.10661416E-01 0.12500122E+03</pdfrwt>
<pdfrwt beam="2">  1       -4 0.86721530E-02 0.12500122E+03</pdfrwt>
<totfact> 0.10437957E+04</totfact>
</mgrwt>
</event>
<event>
 5    1  0.3330238E-002  0.1250012E+03  0.7818608E-02  0.1235067E+00
          4   -1    0    0  501    0  0.00000000000E+00  0.00000000000E+00  0.23066980085E+03  0.23067329695E+03  0.12700000000E+01 0.  1.
         -4   -1    0    0    0  501 -0.00000000000E+00 -0.00000000000E+00 -0.16907266837E+02  0.16954898168E+02  0.12700000000E+01 0.  1.
         25    2    1    2    0    0  0.00000000000E+00  0.00000000000E+00  0.21376253401E+03  0.24762819511E+03  0.12500120827E+03 0.  0.
    9000005    1    3    3    0    0  0.50946433456E+02 -0.34828893734E+02  0.12636520744E+03  0.14063341201E+03  0.10000000000E+01 0.  0.
    9000005    1    3    3    0    0 -0.50946433456E+02  0.34828893734E+02  0.87397326570E+02  0.10699478311E+03  0.10000000000E+01 0.  0.
<mgrwt>
<rscale>  0 0.12500121E+03</rscale>
<asrwt>0</asrwt>
<pdfrwt beam="1">  1        4 0.35491592E-01 0.12500121E+03</pdfrwt>
<pdfrwt beam="2">  1       -4 0.26050510E-02 0.12500121E+03</pdfrwt>
<totfact> 0.82672016E+03</totfact>
</mgrwt>
</event>
<event>
 5    1  0.3330238E-002  0.1250003E+03  0.7818608E-02  0.1235069E+00
         -4   -1    0    0    0  501 -0.00000000000E+00  0.00000000000E+00  0.30728829529E+02  0.30755062416E+02  0.12700000000E+01 0. -1.
          4   -1    0    0  501    0  0.00000000000E+00 -0.00000000000E+00 -0.12703699892E+03  0.12704334692E+03  0.12700000000E+01 0. -1.
         25    2    1    2    0    0  0.00000000000E+00  0.00000000000E+00 -0.96308169394E+02  0.15779840933E+03  0.12500029798E+03 0.  0.
    9000005    1    3    3    0    0  0.42382963131E+02  0.41149832816E+02 -0.22417406199E+02  0.63191489975E+02  0.10000000000E+01 0.  0.
    9000005    1    3    3    0    0 -0.42382963131E+02 -0.41149832816E+02 -0.73890763196E+02  0.94606919357E+02  0.10000000000E+01 0.  0.
<mgrwt>
<rscale>  0 0.12500030E+03</rscale>
<asrwt>0</asrwt>
<pdfrwt beam="2">  1        4 0.19546660E-01 0.12500030E+03</pdfrwt>
<pdfrwt beam="1">  1       -4 0.47300185E-02 0.12500030E+03</pdfrwt>
<totfact> 0.97768266E+03</totfact>
</mgrwt>
</event>
<event>
 5    1  0.3330238E-002  0.1249939E+03  0.7818608E-02  0.1235079E+00
         -4   -1    0    0    0  501 -0.00000000000E+00  0.00000000000E+00  0.11703431727E+02  0.11772137197E+02  0.12700000000E+01 0. -1.
          4   -1    0    0  501    0  0.00000000000E+00 -0.00000000000E+00 -0.33269046777E+03  0.33269289179E+03  0.12700000000E+01 0. -1.
         25    2    1    2    0    0  0.00000000000E+00  0.00000000000E+00 -0.32098703604E+03  0.34446502898E+03  0.12499391539E+03 0.  0.
    9000005    1    3    3    0    0 -0.15198237189E+02 -0.58796965319E+02 -0.11991594376E+03  0.13442062012E+03  0.10000000000E+01 0.  0.
    9000005    1    3    3    0    0  0.15198237189E+02  0.58796965319E+02 -0.20107109228E+03  0.21004440886E+03  0.10000000000E+01 0.  0.
<mgrwt>
<rscale>  0 0.12499392E+03</rscale>
<asrwt>0</asrwt>
<pdfrwt beam="2">  1        4 0.51188613E-01 0.12499392E+03</pdfrwt>
<pdfrwt beam="1">  1       -4 0.18059997E-02 0.12499392E+03</pdfrwt>
<totfact> 0.70347271E+03</totfact>
</mgrwt>
</event>
<event>
 5    1  0.3330238E-002  0.1249679E+03  0.7818608E-02  0.1235119E+00
         -4   -1    0    0    0  501 -0.00000000000E+00  0.00000000000E+00  0.15371999148E+03  0.15372523762E+03  0.12700000000E+01 0.  1.
          4   -1    0    0  501    0  0.00000000000E+00 -0.00000000000E+00 -0.25376852449E+02  0.25408611537E+02  0.12700000000E+01 0.  1.
         25    2    1    2    0    0  0.00000000000E+00  0.00000000000E+00  0.12834313903E+03  0.17913384916E+03  0.12496789418E+03 0.  0.
    9000005    1    3    3    0    0 -0.51329634107E+02  0.34860393683E+02  0.74633244600E+02  0.97062348956E+02  0.10000000000E+01 0.  0.
    9000005    1    3    3    0    0  0.51329634107E+02 -0.34860393683E+02  0.53709894432E+02  0.82071500201E+02  0.10000000000E+01 0.  0.
<mgrwt>
<rscale>  0 0.12496789E+03</rscale>
<asrwt>0</asrwt>
<pdfrwt beam="2">  1        4 0.39069778E-02 0.12496789E+03</pdfrwt>
<pdfrwt beam="1">  1       -4 0.23652076E-01 0.12496789E+03</pdfrwt>
<totfact> 0.93840689E+03</totfact>
</mgrwt>
</event>
<event>
 5    1  0.3330238E-002  0.1250015E+03  0.7818608E-02  0.1235067E+00
          4   -1    0    0  501    0  0.00000000000E+00  0.00000000000E+00  0.19550788392E+03  0.19551200877E+03  0.12700000000E+01 0.  1.
         -4   -1    0    0    0  501 -0.00000000000E+00 -0.00000000000E+00 -0.19955970307E+02  0.19996340938E+02  0.12700000000E+01 0.  1.
         25    2    1    2    0    0  0.00000000000E+00  0.00000000000E+00  0.17555191361E+03  0.21550834971E+03  0.12500149768E+03 0.  0.
    9000005    1    3    3    0    0 -0.55366620633E+02  0.24893504942E+02  0.11335898547E+03  0.12859396897E+03  0.10000000000E+01 0.  0.
    9000005    1    3    3    0    0  0.55366620633E+02 -0.24893504942E+02  0.62192928139E+02  0.86914380738E+02  0.10000000000E+01 0.  0.
<mgrwt>
<rscale>  0 0.12500150E+03</rscale>
<asrwt>0</asrwt>
<pdfrwt beam="1">  1        4 0.30081559E-01 0.12500150E+03</pdfrwt>
<pdfrwt beam="2">  1       -4 0.30735720E-02 0.12500150E+03</pdfrwt>
<totfact> 0.87581191E+03</totfact>
</mgrwt>
</event>
<event>
 5    1  0.3330238E-002  0.1249980E+03  0.7818608E-02  0.1235072E+00
          4   -1    0    0  501    0  0.00000000000E+00  0.00000000000E+00  0.30600339900E+02  0.30626682844E+02  0.12700000000E+01 0.  1.
         -4   -1    0    0    0  501 -0.00000000000E+00 -0.00000000000E+00 -0.12756530753E+03  0.12757162924E+03  0.12700000000E+01 0.  1.
         25    2    1    2    0    0  0.00000000000E+00  0.00000000000E+00 -0.96964967634E+02  0.15819831208E+03  0.12499800397E+03 0.  0.
    9000005    1    3    3    0    0 -0.57669519163E+02 -0.23868449626E+02 -0.44551166052E+02  0.76689521609E+02  0.10000000000E+01 0.  0.
    9000005    1    3    3    0    0  0.57669519163E+02  0.23868449626E+02 -0.52413801582E+02  0.81508790473E+02  0.10000000000E+01 0.  0.
<mgrwt>
<rscale>  0 0.12499800E+03</rscale>
<asrwt>0</asrwt>
<pdfrwt beam="1">  1        4 0.47102573E-02 0.12499800E+03</pdfrwt>
<pdfrwt beam="2">  1       -4 0.19627944E-01 0.12499800E+03</pdfrwt>
<totfact> 0.97695649E+03</totfact>
</mgrwt>
</event>
<event>
 5    1  0.3330238E-002  0.1250298E+03  0.7818608E-02  0.1235023E+00
          4   -1    0    0  501    0  0.00000000000E+00  0.00000000000E+00  0.51037355910E+02  0.51053154636E+02  0.12700000000E+01 0. -1.
         -4   -1    0    0    0  501 -0.00000000000E+00 -0.00000000000E+00 -0.76540649190E+02  0.76551184697E+02  0.12700000000E+01 0. -1.
         25    2    1    2    0    0  0.00000000000E+00  0.00000000000E+00 -0.25503293280E+02  0.12760433933E+03  0.12502979424E+03 0.  0.
    9000005    1    3    3    0    0 -0.26010186260E+02  0.13562587539E+02 -0.69084585743E+02  0.75060998910E+02  0.10000000000E+01 0.  0.
    9000005    1    3    3    0    0  0.26010186260E+02 -0.13562587539E+02  0.43581292463E+02  0.52543340423E+02  0.10000000000E+01 0.  0.
<mgrwt>
<rscale>  0 0.12502979E+03</rscale>
<asrwt>0</asrwt>
<pdfrwt beam="1">  1        4 0.78539266E-02 0.12502979E+03</pdfrwt>
<pdfrwt beam="2">  1       -4 0.11777510E-01 0.12502979E+03</pdfrwt>
<totfact> 0.10389052E+04</totfact>
</mgrwt>
</event>
<event>
 5    1  0.3330238E-002  0.1250036E+03  0.7818608E-02  0.1235064E+00
         -4   -1    0    0    0  501 -0.00000000000E+00  0.00000000000E+00  0.18884530660E+03  0.18884957698E+03  0.12700000000E+01 0. -1.
          4   -1    0    0  501    0  0.00000000000E+00 -0.00000000000E+00 -0.20662109107E+02  0.20701102694E+02  0.12700000000E+01 0. -1.
         25    2    1    2    0    0  0.00000000000E+00  0.00000000000E+00  0.16818319749E+03  0.20955067967E+03  0.12500359768E+03 0.  0.
    9000005    1    3    3    0    0 -0.27739109710E+02  0.54949583702E+02  0.65993158552E+02  0.90249719846E+02  0.10000000000E+01 0.  0.
    9000005    1    3    3    0    0  0.27739109710E+02 -0.54949583702E+02  0.10219003894E+03  0.11930095982E+03  0.10000000000E+01 0.  0.
<mgrwt>
<rscale>  0 0.12500360E+03</rscale>
<asrwt>0</asrwt>
<pdfrwt beam="2">  1        4 0.31821139E-02 0.12500360E+03</pdfrwt>
<pdfrwt beam="1">  1       -4 0.29056453E-01 0.12500360E+03</pdfrwt>
<totfact> 0.88542190E+03</totfact>
</mgrwt>
</event>
<event>
 5    1  0.3330238E-002  0.1249985E+03  0.7818608E-02  0.1235072E+00
          4   -1    0    0  501    0  0.00000000000E+00  0.00000000000E+00  0.29458050953E+03  0.29458324714E+03  0.12700000000E+01 0. -1.
         -4   -1    0    0    0  501 -0.00000000000E+00 -0.00000000000E+00 -0.13226842176E+02  0.13287673007E+02  0.12700000000E+01 0. -1.
         25    2    1    2    0    0  0.00000000000E+00  0.00000000000E+00  0.28135366736E+03  0.30787092015E+03  0.12499846934E+03 0.  0.
    9000005    1    3    3    0    0 -0.28367200094E+02  0.25375064603E+02  0.26275215441E+03  0.26549630241E+03  0.10000000000E+01 0.  0.
    9000005    1    3    3    0    0  0.28367200094E+02 -0.25375064603E+02  0.18601512946E+02  0.42374617740E+02  0.10000000000E+01 0.  0.
<mgrwt>
<rscale>  0 0.12499847E+03</rscale>
<asrwt>0</asrwt>
<pdfrwt beam="1">  1        4 0.45324971E-01 0.12499847E+03</pdfrwt>
<pdfrwt beam="2">  1       -4 0.20397886E-02 0.12499847E+03</pdfrwt>
<totfact> 0.74624545E+03</totfact>
</mgrwt>
</event>
<event>
 5    1  0.3330238E-002  0.1249955E+03  0.7818608E-02  0.1235076E+00
         -4   -1    0    0    0  501 -0.00000000000E+00  0.00000000000E+00  0.36437523886E+03  0.36437745210E+03  0.12700000000E+01 0. -1.
          4   -1    0    0  501    0  0.00000000000E+00 -0.00000000000E+00 -0.10679764191E+02  0.10755011072E+02  0.12700000000E+01 0. -1.
         25    2    1    2    0    0  0.00000000000E+00  0.00000000000E+00  0.35369547467E+03  0.37513246317E+03  0.12499550440E+03 0.  0.
    9000005    1    3    3    0    0  0.12928657360E+02 -0.35447398719E+00  0.36032915217E+03  0.36056257950E+03  0.10000000000E+01 0.  0.
    9000005    1    3    3    0    0 -0.12928657360E+02  0.35447398719E+00 -0.66336774982E+01  0.14569883667E+02  0.10000000000E+01 0.  0.
<mgrwt>
<rscale>  0 0.12499550E+03</rscale>
<asrwt>0</asrwt>
<pdfrwt beam="2">  1        4 0.16489986E-02 0.12499550E+03</pdfrwt>
<pdfrwt beam="1">  1       -4 0.56063704E-01 0.12499550E+03</pdfrwt>
<totfact> 0.67052032E+03</totfact>
</mgrwt>
</event>
<event>
 5    1  0.3330238E-002  0.1250023E+03  0.7818608E-02  0.1235066E+00
         -4   -1    0    0    0  501 -0.00000000000E+00  0.00000000000E+00  0.72073036748E+02  0.72084225224E+02  0.12700000000E+01 0. -1.
          4   -1    0    0  501    0  0.00000000000E+00 -0.00000000000E+00 -0.54177643416E+02  0.54192526663E+02  0.12700000000E+01 0. -1.
         25    2    1    2    0    0  0.00000000000E+00  0.00000000000E+00  0.17895393332E+02  0.12627675189E+03  0.12500229184E+03 0.  0.
    9000005    1    3    3    0    0  0.31272541019E+02  0.18766367455E+02  0.60211956616E+02  0.70403324415E+02  0.10000000000E+01 0.  0.
    9000005    1    3    3    0    0 -0.31272541019E+02 -0.18766367455E+02 -0.42316563283E+02  0.55873427471E+02  0.10000000000E+01 0.  0.
<mgrwt>
<rscale>  0 0.12500229E+03</rscale>
<asrwt>0</asrwt>
<pdfrwt beam="2">  1        4 0.83370276E-02 0.12500229E+03</pdfrwt>
<pdfrwt beam="1">  1       -4 0.11090165E-01 0.12500229E+03</pdfrwt>
<totfact> 0.10424362E+04</totfact>
</mgrwt>
</event>
<event>
 5    1  0.3330238E-002  0.1249977E+03  0.7818608E-02  0.1235073E+00
         -4   -1    0    0    0  501 -0.00000000000E+00  0.00000000000E+00  0.10006975554E+03  0.10007781409E+03  0.12700000000E+01 0. -1.
          4   -1    0    0  501    0  0.00000000000E+00 -0.00000000000E+00 -0.39013898116E+02  0.39034563482E+02  0.12700000000E+01 0. -1.
         25    2    1    2    0    0  0.00000000000E+00  0.00000000000E+00  0.61055857419E+02  0.13911237757E+03  0.12499774345E+03 0.  0.
    9000005    1    3    3    0    0 -0.11734724866E+02  0.58458472065E+02  0.97067544785E+01  0.60417859994E+02  0.10000000000E+01 0.  0.
    9000005    1    3    3    0    0  0.11734724866E+02 -0.58458472065E+02  0.51349102941E+02  0.78694517577E+02  0.10000000000E+01 0.  0.
<mgrwt>
<rscale>  0 0.12499774E+03</rscale>
<asrwt>0</asrwt>
<pdfrwt beam="2">  1        4 0.60043478E-02 0.12499774E+03</pdfrwt>
<pdfrwt beam="1">  1       -4 0.15397556E-01 0.12499774E+03</pdfrwt>
<totfact> 0.10152532E+04</totfact>
</mgrwt>
</event>
<event>
 5    1  0.3330238E-002  0.1250074E+03  0.7818608E-02  0.1235058E+00
         -4   -1    0    0    0  501 -0.00000000000E+00  0.00000000000E+00  0.10880561999E+02  0.10954429671E+02  0.12700000000E+01 0. -1.
          4   -1    0    0  501    0  0.00000000000E+00 -0.00000000000E+00 -0.35776465671E+03  0.35776691084E+03  0.12700000000E+01 0. -1.
         25    2    1    2    0    0  0.00000000000E+00  0.00000000000E+00 -0.34688409471E+03  0.36872134051E+03  0.12500740692E+03 0.  0.
    9000005    1    3    3    0    0  0.50762264768E+02 -0.28744955321E+02 -0.10731364784E+03  0.12214867578E+03  0.10000000000E+01 0.  0.
    9000005    1    3    3    0    0 -0.50762264768E+02  0.28744955321E+02 -0.23957044687E+03  0.24657266473E+03  0.10000000000E+01 0.  0.
<mgrwt>
<rscale>  0 0.12500741E+03</rscale>
<asrwt>0</asrwt>
<pdfrwt beam="2">  1        4 0.55046563E-01 0.12500741E+03</pdfrwt>
<pdfrwt beam="1">  1       -4 0.16797884E-02 0.12500741E+03</pdfrwt>
<totfact> 0.67701838E+03</totfact>
</mgrwt>
</event>
<event>
 5    1  0.3330238E-002  0.1250002E+03  0.7818608E-02  0.1235069E+00
         -4   -1    0    0    0  501 -0.00000000000E+00  0.00000000000E+00  0.36667370781E+02  0.36689357858E+02  0.12700000000E+01 0.  1.
          4   -1    0    0  501    0  0.00000000000E+00 -0.00000000000E+00 -0.10647461043E+03  0.10648218426E+03  0.12700000000E+01 0.  1.
         25    2    1    2    0    0  0.00000000000E+00  0.00000000000E+00 -0.69807239644E+02  0.14317154212E+03  0.12500015906E+03 0.  0.
    9000005    1    3    3    0    0 -0.26736923258E+02 -0.39807519921E+02 -0.80800822378E+02  0.93964219810E+02  0.10000000000E+01 0.  0.
    9000005    1    3    3    0    0  0.26736923258E+02  0.39807519921E+02  0.10993582734E+02  0.49207322310E+02  0.10000000000E+01 0.  0.
<mgrwt>
<rscale>  0 0.12500016E+03</rscale>
<asrwt>0</asrwt>
<pdfrwt beam="2">  1        4 0.16382983E-01 0.12500016E+03</pdfrwt>
<pdfrwt beam="1">  1       -4 0.56434079E-02 0.12500016E+03</pdfrwt>
<totfact> 0.10068236E+04</totfact>
</mgrwt>
</event>
<event>
 5    1  0.3330238E-002  0.1250002E+03  0.7818608E-02  0.1235069E+00
         -4   -1    0    0    0  501 -0.00000000000E+00  0.00000000000E+00  0.34951936275E+03  0.34952167005E+03  0.12700000000E+01 0. -1.
          4   -1    0    0  501    0  0.00000000000E+00 -0.00000000000E+00 -0.11137668977E+02  0.11209842561E+02  0.12700000000E+01 0. -1.
         25    2    1    2    0    0  0.00000000000E+00  0.00000000000E+00  0.33838169377E+03  0.36073151261E+03  0.12500021405E+03 0.  0.
    9000005    1    3    3    0    0  0.57948528501E+02  0.60906967325E+01  0.23437106613E+03  0.24150760895E+03  0.10000000000E+01 0.  0.
    9000005    1    3    3    0    0 -0.57948528501E+02 -0.60906967325E+01  0.10401062764E+03  0.11922390366E+03  0.10000000000E+01 0.  0.
<mgrwt>
<rscale>  0 0.12500021E+03</rscale>
<asrwt>0</asrwt>
<pdfrwt beam="2">  1        4 0.17192171E-02 0.12500021E+03</pdfrwt>
<pdfrwt beam="1">  1       -4 0.53777931E-01 0.12500021E+03</pdfrwt>
<totfact> 0.68559551E+03</totfact>
</mgrwt>
</event>
<event>
 5    1  0.3330238E-002  0.1249997E+03  0.7818608E-02  0.1235070E+00
         -4   -1    0    0    0  501 -0.00000000000E+00  0.00000000000E+00  0.24245574077E+03  0.24245906692E+03  0.12700000000E+01 0.  1.
          4   -1    0    0  501    0  0.00000000000E+00 -0.00000000000E+00 -0.16082629071E+02  0.16132695306E+02  0.12700000000E+01 0.  1.
         25    2    1    2    0    0  0.00000000000E+00  0.00000000000E+00  0.22637311170E+03  0.25859176223E+03  0.12499965517E+03 0.  0.
    9000005    1    3    3    0    0 -0.38750196453E+02  0.29981255748E+02  0.32937180922E+02  0.59044993932E+02  0.10000000000E+01 0.  0.
    9000005    1    3    3    0    0  0.38750196453E+02 -0.29981255748E+02  0.19343593078E+03  0.19954676830E+03  0.10000000000E+01 0.  0.
<mgrwt>
<rscale>  0 0.12499966E+03</rscale>
<asrwt>0</asrwt>
<pdfrwt beam="2">  1        4 0.24783580E-02 0.12499966E+03</pdfrwt>
<pdfrwt beam="1">  1       -4 0.37304987E-01 0.12499966E+03</pdfrwt>
<totfact> 0.81104718E+03</totfact>
</mgrwt>
</event>
<event>
 5    1  0.3330238E-002  0.1249983E+03  0.7818608E-02  0.1235072E+00
          4   -1    0    0  501    0  0.00000000000E+00  0.00000000000E+00  0.53146089224E+01  0.54642445038E+01  0.12700000000E+01 0.  1.
         -4   -1    0    0    0  501 -0.00000000000E+00 -0.00000000000E+00 -0.72462882141E+03  0.72462993433E+03  0.12700000000E+01 0.  1.
         25    2    1    2    0    0  0.00000000000E+00  0.00000000000E+00 -0.71931421249E+03  0.73009417883E+03  0.12499829467E+03 0.  0.
    9000005    1    3    3    0    0  0.60711490768E+02 -0.11149898738E+02 -0.41656794481E+03  0.42111762964E+03  0.10000000000E+01 0.  0.
    9000005    1    3    3    0    0 -0.60711490768E+02  0.11149898738E+02 -0.30274626769E+03  0.30897654919E+03  0.10000000000E+01 0.  0.
<mgrwt>
<rscale>  0 0.12499829E+03</rscale>
<asrwt>0</asrwt>
<pdfrwt beam="1">  1        4 0.82922875E-03 0.12499829E+03</pdfrwt>
<pdfrwt beam="2">  1       -4 0.11149288E+00 0.12499829E+03</pdfrwt>
<totfact> 0.41546379E+03</totfact>
</mgrwt>
</event>
<event>
 5    1  0.3330238E-002  0.1250010E+03  0.7818608E-02  0.1235068E+00
         -4   -1    0    0    0  501 -0.00000000000E+00  0.00000000000E+00  0.38862807395E+02  0.38883553060E+02  0.12700000000E+01 0.  1.
          4   -1    0    0  501    0  0.00000000000E+00 -0.00000000000E+00 -0.10046384727E+03  0.10047187421E+03  0.12700000000E+01 0.  1.
         25    2    1    2    0    0  0.00000000000E+00  0.00000000000E+00 -0.61601039871E+02  0.13935542727E+03  0.12500098798E+03 0.  0.
    9000005    1    3    3    0    0 -0.50889560607E+02  0.89891783172E+01  0.83738075387E+01  0.52360990807E+02  0.10000000000E+01 0.  0.
    9000005    1    3    3    0    0  0.50889560607E+02 -0.89891783172E+01 -0.69974847410E+02  0.86994436464E+02  0.10000000000E+01 0.  0.
<mgrwt>
<rscale>  0 0.12500099E+03</rscale>
<asrwt>0</asrwt>
<pdfrwt beam="2">  1        4 0.15458190E-01 0.12500099E+03</pdfrwt>
<pdfrwt beam="1">  1       -4 0.59811068E-02 0.12500099E+03</pdfrwt>
<totfact> 0.10146736E+04</totfact>
</mgrwt>
</event>
<event>
 5    1  0.3330238E-002  0.1250022E+03  0.7818608E-02  0.1235066E+00
         -4   -1    0    0    0  501 -0.00000000000E+00  0.00000000000E+00  0.18663503821E+03  0.18663935916E+03  0.12700000000E+01 0. -1.
          4   -1    0    0  501    0  0.00000000000E+00 -0.00000000000E+00 -0.20906783570E+02  0.20945321655E+02  0.12700000000E+01 0. -1.
         25    2    1    2    0    0  0.00000000000E+00  0.00000000000E+00  0.16572825464E+03  0.20758468082E+03  0.12500218127E+03 0.  0.
    9000005    1    3    3    0    0  0.38503495131E+02  0.39459709935E+02  0.34000453089E+02  0.64781314094E+02  0.10000000000E+01 0.  0.
    9000005    1    3    3    0    0 -0.38503495131E+02 -0.39459709935E+02  0.13172780155E+03  0.14280336672E+03  0.10000000000E+01 0.  0.
<mgrwt>
<rscale>  0 0.12500218E+03</rscale>
<asrwt>0</asrwt>
<pdfrwt beam="2">  1        4 0.32197252E-02 0.12500218E+03</pdfrwt>
<pdfrwt beam="1">  1       -4 0.28716379E-01 0.12500218E+03</pdfrwt>
<totfact> 0.88867525E+03</totfact>
</mgrwt>
</event>
<event>
 5    1  0.3330238E-002  0.1250045E+03  0.7818608E-02  0.1235062E+00
         -4   -1    0    0    0  501 -0.00000000000E+00  0.00000000000E+00  0.32971143252E+02  0.32995593453E+02  0.12700000000E+01 0.  1.
          4   -1    0    0  501    0  0.00000000000E+00 -0.00000000000E+00 -0.11841151321E+03  0.11841832358E+03  0.12700000000E+01 0.  1.
         25    2    1    2    0    0  0.00000000000E+00  0.00000000000E+00 -0.85440369955E+02  0.15141391704E+03  0.12500446974E+03 0.  0.
    9000005    1    3    3    0    0 -0.34243637505E+02  0.37699532262E+02  0.11479216205E+01  0.50952911265E+02  0.10000000000E+01 0.  0.
    9000005    1    3    3    0    0  0.34243637505E+02 -0.37699532262E+02 -0.86588291576E+02  0.10046100577E+03  0.10000000000E+01 0.  0.
<mgrwt>
<rscale>  0 0.12500447E+03</rscale>
<asrwt>0</asrwt>
<pdfrwt beam="2">  1        4 0.18219560E-01 0.12500447E+03</pdfrwt>
<pdfrwt beam="1">  1       -4 0.50748883E-02 0.12500447E+03</pdfrwt>
<totfact> 0.99012640E+03</totfact>
</mgrwt>
</event>
<event>
 5    1  0.3330238E-002  0.1249975E+03  0.7818608E-02  0.1235073E+00
         -4   -1    0    0    0  501 -0.00000000000E+00  0.00000000000E+00  0.12475851633E+03  0.12476498025E+03  0.12700000000E+01 0.  1.
          4   -1    0    0  501    0  0.00000000000E+00 -0.00000000000E+00 -0.31289060167E+02  0.31314823745E+02  0.12700000000E+01 0.  1.
         25    2    1    2    0    0  0.00000000000E+00  0.00000000000E+00  0.93469456159E+02  0.15607980399E+03  0.12499746389E+03 0.  0.
    9000005    1    3    3    0    0 -0.86890366872E+01 -0.61167330249E+02  0.35011255023E+02  0.71019220121E+02  0.10000000000E+01 0.  0.
    9000005    1    3    3    0    0  0.86890366872E+01  0.61167330249E+02  0.58458201136E+02  0.85060583870E+02  0.10000000000E+01 0.  0.
<mgrwt>
<rscale>  0 0.12499746E+03</rscale>
<asrwt>0</asrwt>
<pdfrwt beam="2">  1        4 0.48161807E-02 0.12499746E+03</pdfrwt>
<pdfrwt beam="1">  1       -4 0.19196097E-01 0.12499746E+03</pdfrwt>
<totfact> 0.98109531E+03</totfact>
</mgrwt>
</event>
<event>
 5    1  0.3330238E-002  0.1250002E+03  0.7818608E-02  0.1235069E+00
         -4   -1    0    0    0  501 -0.00000000000E+00  0.00000000000E+00  0.71138082928E+01  0.72262831682E+01  0.12700000000E+01 0. -1.
          4   -1    0    0  501    0  0.00000000000E+00 -0.00000000000E+00 -0.54469000051E+03  0.54469148108E+03  0.12700000000E+01 0. -1.
         25    2    1    2    0    0  0.00000000000E+00  0.00000000000E+00 -0.53757619222E+03  0.55191776424E+03  0.12500022419E+03 0.  0.
    9000005    1    3    3    0    0 -0.10733618697E+02  0.43901580304E+02 -0.78226410988E+02  0.90348938563E+02  0.10000000000E+01 0.  0.
    9000005    1    3    3    0    0  0.10733618697E+02 -0.43901580304E+02 -0.45934978123E+03  0.46156882568E+03  0.10000000000E+01 0.  0.
<mgrwt>
<rscale>  0 0.12500022E+03</rscale>
<asrwt>0</asrwt>
<pdfrwt beam="2">  1        4 0.83807195E-01 0.12500022E+03</pdfrwt>
<pdfrwt beam="1">  1       -4 0.11031983E-02 0.12500022E+03</pdfrwt>
<totfact> 0.52050279E+03</totfact>
</mgrwt>
</event>
<event>
 5    1  0.3330238E-002  0.1250473E+03  0.7818608E-02  0.1234995E+00
          4   -1    0    0  501    0  0.00000000000E+00  0.00000000000E+00  0.13782781819E+02  0.13841169555E+02  0.12700000000E+01 0.  1.
         -4   -1    0    0    0  501 -0.00000000000E+00 -0.00000000000E+00 -0.28297030149E+03  0.28297315142E+03  0.12700000000E+01 0.  1.
         25    2    1    2    0    0  0.00000000000E+00  0.00000000000E+00 -0.26918751967E+03  0.29681432098E+03  0.12504727262E+03 0.  0.
    9000005    1    3    3    0    0  0.25062553215E+02 -0.16783805348E+02 -0.46205706352E+01  0.30531579858E+02  0.10000000000E+01 0.  0.
    9000005    1    3    3    0    0 -0.25062553215E+02  0.16783805348E+02 -0.26456694904E+03  0.26628274112E+03  0.10000000000E+01 0.  0.
<mgrwt>
<rscale>  0 0.12504727E+03</rscale>
<asrwt>0</asrwt>
<pdfrwt beam="1">  1        4 0.21251388E-02 0.12504727E+03</pdfrwt>
<pdfrwt beam="2">  1       -4 0.43538599E-01 0.12504727E+03</pdfrwt>
<totfact> 0.75920475E+03</totfact>
</mgrwt>
</event>
<event>
 5    1  0.3330238E-002  0.1249988E+03  0.7818608E-02  0.1235071E+00
         -4   -1    0    0    0  501 -0.00000000000E+00  0.00000000000E+00  0.96233065212E+02  0.96241445023E+02  0.12700000000E+01 0. -1.
          4   -1    0    0  501    0  0.00000000000E+00 -0.00000000000E+00 -0.40570669722E+02  0.40590542516E+02  0.12700000000E+01 0. -1.
         25    2    1    2    0    0  0.00000000000E+00  0.00000000000E+00  0.55662395490E+02  0.13683198754E+03  0.12499876216E+03 0.  0.
    9000005    1    3    3    0    0 -0.38013537893E+02  0.35870902194E+02  0.65329277341E+02  0.83669977682E+02  0.10000000000E+01 0.  0.
    9000005    1    3    3    0    0  0.38013537893E+02 -0.35870902194E+02 -0.96668818509E+01  0.53162009857E+02  0.10000000000E+01 0.  0.
<mgrwt>
<rscale>  0 0.12499876E+03</rscale>
<asrwt>0</asrwt>
<pdfrwt beam="2">  1        4 0.62438147E-02 0.12499876E+03</pdfrwt>
<pdfrwt beam="1">  1       -4 0.14807260E-01 0.12499876E+03</pdfrwt>
<totfact> 0.10199885E+04</totfact>
</mgrwt>
</event>
<event>
 5    1  0.3330238E-002  0.1249989E+03  0.7818608E-02  0.1235071E+00
          4   -1    0    0  501    0  0.00000000000E+00  0.00000000000E+00  0.36016581594E+03  0.36016805504E+03  0.12700000000E+01 0. -1.
         -4   -1    0    0    0  501 -0.00000000000E+00 -0.00000000000E+00 -0.10806041791E+02  0.10880415396E+02  0.12700000000E+01 0. -1.
         25    2    1    2    0    0  0.00000000000E+00  0.00000000000E+00  0.34935977415E+03  0.37104847043E+03  0.12499886247E+03 0.  0.
    9000005    1    3    3    0    0 -0.61192359865E+02 -0.11048672051E+02  0.15623725123E+03  0.16815961683E+03  0.10000000000E+01 0.  0.
    9000005    1    3    3    0    0  0.61192359865E+02  0.11048672051E+02  0.19312252291E+03  0.20288885360E+03  0.10000000000E+01 0.  0.
<mgrwt>
<rscale>  0 0.12499886E+03</rscale>
<asrwt>0</asrwt>
<pdfrwt beam="1">  1        4 0.55416022E-01 0.12499886E+03</pdfrwt>
<pdfrwt beam="2">  1       -4 0.16683612E-02 0.12499886E+03</pdfrwt>
<totfact> 0.67471083E+03</totfact>
</mgrwt>
</event>
<event>
 5    1  0.3330238E-002  0.1250226E+03  0.7818608E-02  0.1235034E+00
          4   -1    0    0  501    0  0.00000000000E+00  0.00000000000E+00  0.26392830538E+03  0.26393136093E+03  0.12700000000E+01 0. -1.
         -4   -1    0    0    0  501 -0.00000000000E+00 -0.00000000000E+00 -0.14775383988E+02  0.14829864193E+02  0.12700000000E+01 0. -1.
         25    2    1    2    0    0  0.00000000000E+00  0.00000000000E+00  0.24915292139E+03  0.27876122512E+03  0.12502256753E+03 0.  0.
    9000005    1    3    3    0    0  0.45353575873E+02 -0.42965638185E+02  0.12884658196E+03  0.14319718780E+03  0.10000000000E+01 0.  0.
    9000005    1    3    3    0    0 -0.45353575873E+02  0.42965638185E+02  0.12030633943E+03  0.13556403733E+03  0.10000000000E+01 0.  0.
<mgrwt>
<rscale>  0 0.12502257E+03</rscale>
<asrwt>0</asrwt>
<pdfrwt beam="1">  1        4 0.40608779E-01 0.12502257E+03</pdfrwt>
<pdfrwt beam="2">  1       -4 0.22775619E-02 0.12502257E+03</pdfrwt>
<totfact> 0.78303355E+03</totfact>
</mgrwt>
</event>
<event>
 5    1  0.3330238E-002  0.1250002E+03  0.7818608E-02  0.1235069E+00
          4   -1    0    0  501    0  0.00000000000E+00  0.00000000000E+00  0.26200291878E+01  0.29116065917E+01  0.12700000000E+01 0.  1.
         -4   -1    0    0    0  501 -0.00000000000E+00 -0.00000000000E+00 -0.14120435913E+04  0.14120441624E+04  0.12700000000E+01 0.  1.
         25    2    1    2    0    0  0.00000000000E+00  0.00000000000E+00 -0.14094235621E+04  0.14149557690E+04  0.12500020332E+03 0.  0.
    9000005    1    3    3    0    0  0.28967324712E+02  0.44482333685E+02 -0.10779985044E+04  0.10793051280E+04  0.10000000000E+01 0.  0.
    9000005    1    3    3    0    0 -0.28967324712E+02 -0.44482333685E+02 -0.33142505771E+03  0.33565064098E+03  0.10000000000E+01 0.  0.
<mgrwt>
<rscale>  0 0.12500020E+03</rscale>
<asrwt>0</asrwt>
<pdfrwt beam="1">  1        4 0.42555550E-03 0.12500020E+03</pdfrwt>
<pdfrwt beam="2">  1       -4 0.21725937E+00 0.12500020E+03</pdfrwt>
<totfact> 0.19662231E+03</totfact>
</mgrwt>
</event>
<event>
 5    1  0.3330238E-002  0.1250016E+03  0.7818608E-02  0.1235067E+00
          4   -1    0    0  501    0  0.00000000000E+00  0.00000000000E+00  0.62259876464E+02  0.62272828082E+02  0.12700000000E+01 0. -1.
         -4   -1    0    0    0  501 -0.00000000000E+00 -0.00000000000E+00 -0.62716752693E+02  0.62729609981E+02  0.12700000000E+01 0. -1.
         25    2    1    2    0    0  0.00000000000E+00  0.00000000000E+00 -0.45687622936E+00  0.12500243806E+03  0.12500160313E+03 0.  0.
    9000005    1    3    3    0    0  0.26760554532E+02  0.52795286286E+02  0.19818657239E+02  0.62427948130E+02  0.10000000000E+01 0.  0.
    9000005    1    3    3    0    0 -0.26760554532E+02 -0.52795286286E+02 -0.20275533468E+02  0.62574489933E+02  0.10000000000E+01 0.  0.
<mgrwt>
<rscale>  0 0.12500160E+03</rscale>
<asrwt>0</asrwt>
<pdfrwt beam="1">  1        4 0.95804278E-02 0.12500160E+03</pdfrwt>
<pdfrwt beam="2">  1       -4 0.96507165E-02 0.12500160E+03</pdfrwt>
<totfact> 0.10452431E+04</totfact>
</mgrwt>
</event>
<event>
 5    1  0.3330238E-002  0.1249837E+03  0.7818608E-02  0.1235095E+00
          4   -1    0    0  501    0  0.00000000000E+00  0.00000000000E+00  0.15493303042E+04  0.15493308247E+04  0.12700000000E+01 0.  1.
         -4   -1    0    0    0  501 -0.00000000000E+00 -0.00000000000E+00 -0.23600682138E+01  0.26800787253E+01  0.12700000000E+01 0.  1.
         25    2    1    2    0    0  0.00000000000E+00  0.00000000000E+00  0.15469702360E+04  0.15520109034E+04  0.12498373242E+03 0.  0.
    9000005    1    3    3    0    0 -0.12577868263E+02 -0.36080829878E+02  0.15956759603E+03  0.16408182946E+03  0.10000000000E+01 0.  0.
    9000005    1    3    3    0    0  0.12577868263E+02  0.36080829878E+02  0.13874026399E+04  0.13879290740E+04  0.10000000000E+01 0.  0.
<mgrwt>
<rscale>  0 0.12498373E+03</rscale>
<asrwt>0</asrwt>
<pdfrwt beam="1">  1        4 0.23838347E+00 0.12498373E+03</pdfrwt>
<pdfrwt beam="2">  1       -4 0.38774316E-03 0.12498373E+03</pdfrwt>
<totfact> 0.16936378E+03</totfact>
</mgrwt>
</event>
<event>
 5    1  0.3330238E-002  0.1250020E+03  0.7818608E-02  0.1235066E+00
          4   -1    0    0  501    0  0.00000000000E+00  0.00000000000E+00  0.14991988025E+02  0.15045683930E+02  0.12700000000E+01 0.  1.
         -4   -1    0    0    0  501 -0.00000000000E+00 -0.00000000000E+00 -0.26004323645E+03  0.26004633765E+03  0.12700000000E+01 0.  1.
         25    2    1    2    0    0  0.00000000000E+00  0.00000000000E+00 -0.24505124843E+03  0.27509202158E+03  0.12500202391E+03 0.  0.
    9000005    1    3    3    0    0  0.59243204137E+02 -0.82259276512E+01 -0.16237917315E+03  0.17304744723E+03  0.10000000000E+01 0.  0.
    9000005    1    3    3    0    0 -0.59243204137E+02  0.82259276512E+01 -0.82672075279E+02  0.10204457434E+03  0.10000000000E+01 0.  0.
<mgrwt>
<rscale>  0 0.12500202E+03</rscale>
<asrwt>0</asrwt>
<pdfrwt beam="1">  1        4 0.23108289E-02 0.12500202E+03</pdfrwt>
<pdfrwt beam="2">  1       -4 0.40011017E-01 0.12500202E+03</pdfrwt>
<totfact> 0.78829854E+03</totfact>
</mgrwt>
</event>
<event>
 5    1  0.3330238E-002  0.1249963E+03  0.7818608E-02  0.1235075E+00
          4   -1    0    0  501    0  0.00000000000E+00  0.00000000000E+00  0.49403857057E+01  0.51010107745E+01  0.12700000000E+01 0.  1.
         -4   -1    0    0    0  501 -0.00000000000E+00 -0.00000000000E+00 -0.77782213132E+03  0.77782316812E+03  0.12700000000E+01 0.  1.
         25    2    1    2    0    0  0.00000000000E+00  0.00000000000E+00 -0.77288174561E+03  0.78292417889E+03  0.12499630875E+03 0.  0.
    9000005    1    3    3    0    0 -0.64348905990E+01  0.36914319557E+02 -0.73202799484E+02  0.82241866818E+02  0.10000000000E+01 0.  0.
    9000005    1    3    3    0    0  0.64348905990E+01 -0.36914319557E+02 -0.69967894613E+03  0.70068231208E+03  0.10000000000E+01 0.  0.
<mgrwt>
<rscale>  0 0.12499631E+03</rscale>
<asrwt>0</asrwt>
<pdfrwt beam="1">  1        4 0.77249549E-03 0.12499631E+03</pdfrwt>
<pdfrwt beam="2">  1       -4 0.11967728E+00 0.12499631E+03</pdfrwt>
<totfact> 0.39041673E+03</totfact>
</mgrwt>
</event>
<event>
 5    1  0.3330238E-002  0.1250088E+03  0.7818608E-02  0.1235056E+00
         -4   -1    0    0    0  501 -0.00000000000E+00  0.00000000000E+00  0.55415337128E+01  0.56851997229E+01  0.12700000000E+01 0. -1.
          4   -1    0    0  501    0  0.00000000000E+00 -0.00000000000E+00 -0.69583682999E+03  0.69583798895E+03  0.12700000000E+01 0. -1.
         25    2    1    2    0    0  0.00000000000E+00  0.00000000000E+00 -0.69029529628E+03  0.70152318868E+03  0.12500875245E+03 0.  0.
    9000005    1    3    3    0    0  0.13571323451E+02 -0.51083820137E+02 -0.15800807632E+03  0.16661719503E+03  0.10000000000E+01 0.  0.
    9000005    1    3    3    0    0 -0.13571323451E+02  0.51083820137E+02 -0.53228721996E+03  0.53490599364E+03  0.10000000000E+01 0.  0.
<mgrwt>
<rscale>  0 0.12500875E+03</rscale>
<asrwt>0</asrwt>
<pdfrwt beam="2">  1        4 0.10706289E+00 0.12500875E+03</pdfrwt>
<pdfrwt beam="1">  1       -4 0.86368458E-03 0.12500875E+03</pdfrwt>
<totfact> 0.42998194E+03</totfact>
</mgrwt>
</event>
<event>
 5    1  0.3330238E-002  0.1249972E+03  0.7818608E-02  0.1235074E+00
         -4   -1    0    0    0  501 -0.00000000000E+00  0.00000000000E+00  0.22272685093E+03  0.22273047171E+03  0.12700000000E+01 0. -1.
          4   -1    0    0  501    0  0.00000000000E+00 -0.00000000000E+00 -0.17510749228E+02  0.17556743392E+02  0.12700000000E+01 0. -1.
         25    2    1    2    0    0  0.00000000000E+00  0.00000000000E+00  0.20521610170E+03  0.24028721510E+03  0.12499718933E+03 0.  0.
    9000005    1    3    3    0    0  0.30552663119E+01  0.27462907504E+02  0.21035399003E+03  0.21216349135E+03  0.10000000000E+01 0.  0.
    9000005    1    3    3    0    0 -0.30552663119E+01 -0.27462907504E+02 -0.51378883268E+01  0.28123723745E+02  0.10000000000E+01 0.  0.
<mgrwt>
<rscale>  0 0.12499719E+03</rscale>
<asrwt>0</asrwt>
<pdfrwt beam="2">  1        4 0.26977781E-02 0.12499719E+03</pdfrwt>
<pdfrwt beam="1">  1       -4 0.34269484E-01 0.12499719E+03</pdfrwt>
<totfact> 0.83759859E+03</totfact>
</mgrwt>
</event>
<event>
 5    1  0.3330238E-002  0.1249933E+03  0.7818608E-02  0.1235080E+00
         -4   -1    0    0    0  501 -0.00000000000E+00  0.00000000000E+00  0.12575463030E+02  0.12639429197E+02  0.12700000000E+01 0. -1.
          4   -1    0    0  501    0  0.00000000000E+00 -0.00000000000E+00 -0.30973848817E+03  0.30974109180E+03  0.12700000000E+01 0. -1.
         25    2    1    2    0    0  0.00000000000E+00  0.00000000000E+00 -0.29716302514E+03  0.32238052100E+03  0.12499334707E+03 0.  0.
    9000005    1    3    3    0    0  0.18232594907E+02 -0.99255701512E+01 -0.30059772591E+03  0.30131534525E+03  0.10000000000E+01 0.  0.
    9000005    1    3    3    0    0 -0.18232594907E+02  0.99255701512E+01  0.34347007780E+01  0.21065175748E+02  0.10000000000E+01 0.  0.
<mgrwt>
<rscale>  0 0.12499335E+03</rscale>
<asrwt>0</asrwt>
<pdfrwt beam="2">  1        4 0.47657190E-01 0.12499335E+03</pdfrwt>
<pdfrwt beam="1">  1       -4 0.19398076E-02 0.12499335E+03</pdfrwt>
<totfact> 0.72884635E+03</totfact>
</mgrwt>
</event>
<event>
 5    1  0.3330238E-002  0.1250007E+03  0.7818608E-02  0.1235068E+00
          4   -1    0    0  501    0  0.00000000000E+00  0.00000000000E+00  0.90247788380E+02  0.90256723891E+02  0.12700000000E+01 0. -1.
         -4   -1    0    0    0  501 -0.00000000000E+00 -0.00000000000E+00 -0.43263682065E+02  0.43282318397E+02  0.12700000000E+01 0. -1.
         25    2    1    2    0    0  0.00000000000E+00  0.00000000000E+00  0.46984106315E+02  0.13353904229E+03  0.12500067827E+03 0.  0.
    9000005    1    3    3    0    0 -0.30474477957E+02  0.36888950712E+02  0.66434838867E+02  0.81878423939E+02  0.10000000000E+01 0.  0.
    9000005    1    3    3    0    0  0.30474477957E+02 -0.36888950712E+02 -0.19450732552E+02  0.51660618349E+02  0.10000000000E+01 0.  0.
<mgrwt>
<rscale>  0 0.12500068E+03</rscale>
<asrwt>0</asrwt>
<pdfrwt beam="1">  1        4 0.13886396E-01 0.12500068E+03</pdfrwt>
<pdfrwt beam="2">  1       -4 0.66580721E-02 0.12500068E+03</pdfrwt>
<totfact> 0.10268800E+04</totfact>
</mgrwt>
</event>
<event>
 5    1  0.3330238E-002  0.1250042E+03  0.7818608E-02  0.1235063E+00
         -4   -1    0    0    0  501 -0.00000000000E+00  0.00000000000E+00  0.28569986652E+02  0.28598199896E+02  0.12700000000E+01 0. -1.
          4   -1    0    0  501    0  0.00000000000E+00 -0.00000000000E+00 -0.13663611792E+03  0.13664201996E+03  0.12700000000E+01 0. -1.
         25    2    1    2    0    0  0.00000000000E+00  0.00000000000E+00 -0.10806613126E+03  0.16524021986E+03  0.12500416606E+03 0.  0.
    9000005    1    3    3    0    0  0.10756970659E+02  0.76783209982E+01 -0.13477416675E+03  0.13542431486E+03  0.10000000000E+01 0.  0.
    9000005    1    3    3    0    0 -0.10756970659E+02 -0.76783209982E+01  0.26708035490E+02  0.29815904998E+02  0.10000000000E+01 0.  0.
<mgrwt>
<rscale>  0 0.12500417E+03</rscale>
<asrwt>0</asrwt>
<pdfrwt beam="2">  1        4 0.21023565E-01 0.12500417E+03</pdfrwt>
<pdfrwt beam="1">  1       -4 0.43980069E-02 0.12500417E+03</pdfrwt>
<totfact> 0.96332902E+03</totfact>
</mgrwt>
</event>
<event>
 5    1  0.3330238E-002  0.1250028E+03  0.7818608E-02  0.1235065E+00
          4   -1    0    0  501    0  0.00000000000E+00  0.00000000000E+00  0.10891799057E+02  0.10965591033E+02  0.12700000000E+01 0.  1.
         -4   -1    0    0    0  501 -0.00000000000E+00 -0.00000000000E+00 -0.35737172774E+03  0.35737398435E+03  0.12700000000E+01 0.  1.
         25    2    1    2    0    0  0.00000000000E+00  0.00000000000E+00 -0.34647992868E+03  0.36833957538E+03  0.12500280721E+03 0.  0.
    9000005    1    3    3    0    0  0.23981665518E+02 -0.45305777889E+02 -0.27856743308E+03  0.28324644493E+03  0.10000000000E+01 0.  0.
    9000005    1    3    3    0    0 -0.23981665518E+02  0.45305777889E+02 -0.67912495600E+02  0.85093130450E+02  0.10000000000E+01 0.  0.
<mgrwt>
<rscale>  0 0.12500281E+03</rscale>
<asrwt>0</asrwt>
<pdfrwt beam="1">  1        4 0.16815116E-02 0.12500281E+03</pdfrwt>
<pdfrwt beam="2">  1       -4 0.54986106E-01 0.12500281E+03</pdfrwt>
<totfact> 0.67748806E+03</totfact>
</mgrwt>
</event>
<event>
 5    1  0.3330238E-002  0.1250019E+03  0.7818608E-02  0.1235066E+00
          4   -1    0    0  501    0  0.00000000000E+00  0.00000000000E+00  0.92147573081E+02  0.92156324388E+02  0.12700000000E+01 0. -1.
         -4   -1    0    0    0  501 -0.00000000000E+00 -0.00000000000E+00 -0.42372255079E+02  0.42391283308E+02  0.12700000000E+01 0. -1.
         25    2    1    2    0    0  0.00000000000E+00  0.00000000000E+00  0.49775318002E+02  0.13454760770E+03  0.12500190580E+03 0.  0.
    9000005    1    3    3    0    0  0.57949812098E+02 -0.16497141112E+02  0.42738206171E+02  0.73877538222E+02  0.10000000000E+01 0.  0.
    9000005    1    3    3    0    0 -0.57949812098E+02  0.16497141112E+02  0.70371118307E+01  0.60670069474E+02  0.10000000000E+01 0.  0.
<mgrwt>
<rscale>  0 0.12500191E+03</rscale>
<asrwt>0</asrwt>
<pdfrwt beam="1">  1        4 0.14178687E-01 0.12500191E+03</pdfrwt>
<pdfrwt beam="2">  1       -4 0.65209453E-02 0.12500191E+03</pdfrwt>
<totfact> 0.10247174E+04</totfact>
</mgrwt>
</event>
<event>
 5    1  0.3330238E-002  0.1249948E+03  0.7818608E-02  0.1235077E+00
         -4   -1    0    0    0  501 -0.00000000000E+00  0.00000000000E+00  0.47052871573E+02  0.47070007683E+02  0.12700000000E+01 0. -1.
          4   -1    0    0  501    0  0.00000000000E+00 -0.00000000000E+00 -0.82974359518E+02  0.82984078216E+02  0.12700000000E+01 0. -1.
         25    2    1    2    0    0  0.00000000000E+00  0.00000000000E+00 -0.35921487945E+02  0.13005408590E+03  0.12499484775E+03 0.  0.
    9000005    1    3    3    0    0  0.30733298568E+02  0.49770008053E+02 -0.40835562146E+02  0.71345164365E+02  0.10000000000E+01 0.  0.
    9000005    1    3    3    0    0 -0.30733298568E+02 -0.49770008053E+02  0.49140742016E+01  0.58708921534E+02  0.10000000000E+01 0.  0.
<mgrwt>
<rscale>  0 0.12499485E+03</rscale>
<asrwt>0</asrwt>
<pdfrwt beam="2">  1        4 0.12767352E-01 0.12499485E+03</pdfrwt>
<pdfrwt beam="1">  1       -4 0.72409691E-02 0.12499485E+03</pdfrwt>
<totfact> 0.10344554E+04</totfact>
</mgrwt>
</event>
<event>
 5    1  0.3330238E-002  0.1250014E+03  0.7818608E-02  0.1235067E+00
          4   -1    0    0  501    0  0.00000000000E+00  0.00000000000E+00  0.12739192798E+02  0.12802340924E+02  0.12700000000E+01 0.  1.
         -4   -1    0    0    0  501 -0.00000000000E+00 -0.00000000000E+00 -0.30581668251E+03  0.30581931954E+03  0.12700000000E+01 0.  1.
         25    2    1    2    0    0  0.00000000000E+00  0.00000000000E+00 -0.29307748972E+03  0.31862166046E+03  0.12500139015E+03 0.  0.
    9000005    1    3    3    0    0  0.41222254182E+02  0.45410991083E+01 -0.26569861006E+03  0.26891754723E+03  0.10000000000E+01 0.  0.
    9000005    1    3    3    0    0 -0.41222254182E+02 -0.45410991083E+01 -0.27378879654E+02  0.49704113231E+02  0.10000000000E+01 0.  0.
<mgrwt>
<rscale>  0 0.12500139E+03</rscale>
<asrwt>0</asrwt>
<pdfrwt beam="1">  1        4 0.19649364E-02 0.12500139E+03</pdfrwt>
<pdfrwt beam="2">  1       -4 0.47053775E-01 0.12500139E+03</pdfrwt>
<totfact> 0.73318103E+03</totfact>
</mgrwt>
</event>
<event>
 5    1  0.3330238E-002  0.1250022E+03  0.7818608E-02  0.1235066E+00
         -4   -1    0    0    0  501 -0.00000000000E+00  0.00000000000E+00  0.57253716358E+02  0.57267800174E+02  0.12700000000E+01 0.  1.
          4   -1    0    0  501    0  0.00000000000E+00 -0.00000000000E+00 -0.68201038143E+02  0.68212861718E+02  0.12700000000E+01 0.  1.
         25    2    1    2    0    0  0.00000000000E+00  0.00000000000E+00 -0.10947321785E+02  0.12548066189E+03  0.12500221060E+03 0.  0.
    9000005    1    3    3    0    0  0.61196769667E+02 -0.12937646982E+01 -0.18118291124E+02  0.63843487671E+02  0.10000000000E+01 0.  0.
    9000005    1    3    3    0    0 -0.61196769667E+02  0.12937646982E+01  0.71709693393E+01  0.61637174221E+02  0.10000000000E+01 0.  0.
<mgrwt>
<rscale>  0 0.12500221E+03</rscale>
<asrwt>0</asrwt>
<pdfrwt beam="2">  1        4 0.10494460E-01 0.12500221E+03</pdfrwt>
<pdfrwt beam="1">  1       -4 0.88102569E-02 0.12500221E+03</pdfrwt>
<totfact> 0.10441861E+04</totfact>
</mgrwt>
</event>
<event>
 5    1  0.3330238E-002  0.1249998E+03  0.7818608E-02  0.1235070E+00
         -4   -1    0    0    0  501 -0.00000000000E+00  0.00000000000E+00  0.62484918666E+02  0.62497823647E+02  0.12700000000E+01 0. -1.
          4   -1    0    0  501    0  0.00000000000E+00 -0.00000000000E+00 -0.62489063779E+02  0.62501967905E+02  0.12700000000E+01 0. -1.
         25    2    1    2    0    0  0.00000000000E+00  0.00000000000E+00 -0.41451133501E-02  0.12499979155E+03  0.12499979148E+03 0.  0.
    9000005    1    3    3    0    0  0.12374678151E+02 -0.49964930464E+02  0.35432515539E+02  0.62498720731E+02  0.10000000000E+01 0.  0.
    9000005    1    3    3    0    0 -0.12374678151E+02  0.49964930464E+02 -0.35436660652E+02  0.62501070821E+02  0.10000000000E+01 0.  0.
<mgrwt>
<rscale>  0 0.12499979E+03</rscale>
<asrwt>0</asrwt>
<pdfrwt beam="2">  1        4 0.96156875E-02 0.12499979E+03</pdfrwt>
<pdfrwt beam="1">  1       -4 0.96150497E-02 0.12499979E+03</pdfrwt>
<totfact> 0.10452916E+04</totfact>
</mgrwt>
</event>
<event>
 5    1  0.3330238E-002  0.1250032E+03  0.7818608E-02  0.1235064E+00
          4   -1    0    0  501    0  0.00000000000E+00  0.00000000000E+00  0.69320768277E+01  0.70474526706E+01  0.12700000000E+01 0. -1.
         -4   -1    0    0    0  501 -0.00000000000E+00 -0.00000000000E+00 -0.55876532832E+03  0.55876677159E+03  0.12700000000E+01 0. -1.
         25    2    1    2    0    0  0.00000000000E+00  0.00000000000E+00 -0.55183325149E+03  0.56581422426E+03  0.12500319565E+03 0.  0.
    9000005    1    3    3    0    0 -0.23081353477E+02  0.56529031197E+02 -0.33616525990E+03  0.34166703413E+03  0.10000000000E+01 0.  0.
    9000005    1    3    3    0    0  0.23081353477E+02 -0.56529031197E+02 -0.21566799159E+03  0.22414719013E+03  0.10000000000E+01 0.  0.
<mgrwt>
<rscale>  0 0.12500320E+03</rscale>
<asrwt>0</asrwt>
<pdfrwt beam="1">  1        4 0.10754599E-02 0.12500320E+03</pdfrwt>
<pdfrwt beam="2">  1       -4 0.85972847E-01 0.12500320E+03</pdfrwt>
<totfact> 0.51095584E+03</totfact>
</mgrwt>
</event>
<event>
 5    1  0.3330238E-002  0.1249977E+03  0.7818608E-02  0.1235073E+00
          4   -1    0    0  501    0  0.00000000000E+00  0.00000000000E+00  0.39040428490E+03  0.39040635058E+03  0.12700000000E+01 0.  1.
         -4   -1    0    0    0  501 -0.00000000000E+00 -0.00000000000E+00 -0.99628836528E+01  0.10043502909E+02  0.12700000000E+01 0.  1.
         25    2    1    2    0    0  0.00000000000E+00  0.00000000000E+00  0.38044140125E+03  0.40044985348E+03  0.12499770146E+03 0.  0.
    9000005    1    3    3    0    0 -0.83523604788E+01 -0.56214765049E+02  0.10697215127E+03  0.12113588602E+03  0.10000000000E+01 0.  0.
    9000005    1    3    3    0    0  0.83523604788E+01  0.56214765049E+02  0.27346924998E+03  0.27931396747E+03  0.10000000000E+01 0.  0.
<mgrwt>
<rscale>  0 0.12499770E+03</rscale>
<asrwt>0</asrwt>
<pdfrwt beam="1">  1        4 0.60068549E-01 0.12499770E+03</pdfrwt>
<pdfrwt beam="2">  1       -4 0.15391119E-02 0.12499770E+03</pdfrwt>
<totfact> 0.64512338E+03</totfact>
</mgrwt>
</event>
<event>
 5    1  0.3330238E-002  0.1249998E+03  0.7818608E-02  0.1235070E+00
          4   -1    0    0  501    0  0.00000000000E+00  0.00000000000E+00  0.45430712123E+02  0.45448459864E+02  0.12700000000E+01 0. -1.
         -4   -1    0    0    0  501 -0.00000000000E+00 -0.00000000000E+00 -0.85943052925E+02  0.85952435952E+02  0.12700000000E+01 0. -1.
         25    2    1    2    0    0  0.00000000000E+00  0.00000000000E+00 -0.40512340803E+02  0.13140089582E+03  0.12499978266E+03 0.  0.
    9000005    1    3    3    0    0  0.26527974072E+02  0.48123887079E+02  0.11026694812E+02  0.56055596638E+02  0.10000000000E+01 0.  0.
    9000005    1    3    3    0    0 -0.26527974072E+02 -0.48123887079E+02 -0.51539035615E+02  0.75345299177E+02  0.10000000000E+01 0.  0.
<mgrwt>
<rscale>  0 0.12499978E+03</rscale>
<asrwt>0</asrwt>
<pdfrwt beam="1">  1        4 0.69914273E-02 0.12499978E+03</pdfrwt>
<pdfrwt beam="2">  1       -4 0.13224095E-01 0.12499978E+03</pdfrwt>
<totfact> 0.10314553E+04</totfact>
</mgrwt>
</event>
<event>
 5    1  0.3330238E-002  0.1249998E+03  0.7818608E-02  0.1235070E+00
          4   -1    0    0  501    0  0.00000000000E+00  0.00000000000E+00  0.65501231410E+02  0.65513542235E+02  0.12700000000E+01 0.  1.
         -4   -1    0    0    0  501 -0.00000000000E+00 -0.00000000000E+00 -0.59611422553E+02  0.59624949466E+02  0.12700000000E+01 0.  1.
         25    2    1    2    0    0  0.00000000000E+00  0.00000000000E+00  0.58898088569E+01  0.12513849170E+03  0.12499980903E+03 0.  0.
    9000005    1    3    3    0    0  0.34880330730E+02 -0.45972263193E+02 -0.21064021750E+02  0.61439233940E+02  0.10000000000E+01 0.  0.
    9000005    1    3    3    0    0 -0.34880330730E+02  0.45972263193E+02  0.26953830607E+02  0.63699257761E+02  0.10000000000E+01 0.  0.
<mgrwt>
<rscale>  0 0.12499981E+03</rscale>
<asrwt>0</asrwt>
<pdfrwt beam="1">  1        4 0.10079100E-01 0.12499981E+03</pdfrwt>
<pdfrwt beam="2">  1       -4 0.91729756E-02 0.12499981E+03</pdfrwt>
<totfact> 0.10449900E+04</totfact>
</mgrwt>
</event>
<event>
 5    1  0.3330238E-002  0.1249954E+03  0.7818608E-02  0.1235077E+00
         -4   -1    0    0    0  501 -0.00000000000E+00  0.00000000000E+00  0.20045739822E+03  0.20046142123E+03  0.12700000000E+01 0. -1.
          4   -1    0    0  501    0  0.00000000000E+00 -0.00000000000E+00 -0.19460319380E+02  0.19501716087E+02  0.12700000000E+01 0. -1.
         25    2    1    2    0    0  0.00000000000E+00  0.00000000000E+00  0.18099707885E+03  0.21996313732E+03  0.12499535683E+03 0.  0.
    9000005    1    3    3    0    0 -0.53630608160E+02  0.32010173089E+02  0.94047213576E+02  0.11290160182E+03  0.10000000000E+01 0.  0.
    9000005    1    3    3    0    0  0.53630608160E+02 -0.32010173089E+02  0.86949865269E+02  0.10706153550E+03  0.10000000000E+01 0.  0.
<mgrwt>
<rscale>  0 0.12499536E+03</rscale>
<asrwt>0</asrwt>
<pdfrwt beam="2">  1        4 0.29973892E-02 0.12499536E+03</pdfrwt>
<pdfrwt beam="1">  1       -4 0.30843093E-01 0.12499536E+03</pdfrwt>
<totfact> 0.86883194E+03</totfact>
</mgrwt>
</event>
<event>
 5    1  0.3330238E-002  0.1249927E+03  0.7818608E-02  0.1235081E+00
         -4   -1    0    0    0  501 -0.00000000000E+00  0.00000000000E+00  0.22628947817E+03  0.22629304194E+03  0.12700000000E+01 0.  1.
          4   -1    0    0  501    0  0.00000000000E+00 -0.00000000000E+00 -0.17233100469E+02  0.17279833673E+02  0.12700000000E+01 0.  1.
         25    2    1    2    0    0  0.00000000000E+00  0.00000000000E+00  0.20905637770E+03  0.24357287562E+03  0.12499270650E+03 0.  0.
    9000005    1    3    3    0    0  0.32864705523E+02  0.13212807016E+02  0.42104817243E+01  0.35684664699E+02  0.10000000000E+01 0.  0.
    9000005    1    3    3    0    0 -0.32864705523E+02 -0.13212807016E+02  0.20484589598E+03  0.20788821092E+03  0.10000000000E+01 0.  0.
<mgrwt>
<rscale>  0 0.12499271E+03</rscale>
<asrwt>0</asrwt>
<pdfrwt beam="2">  1        4 0.26551152E-02 0.12499271E+03</pdfrwt>
<pdfrwt beam="1">  1       -4 0.34817635E-01 0.12499271E+03</pdfrwt>
<totfact> 0.83281648E+03</totfact>
</mgrwt>
</event>
<event>
 5    1  0.3330238E-002  0.1250065E+03  0.7818608E-02  0.1235059E+00
          4   -1    0    0  501    0  0.00000000000E+00  0.00000000000E+00  0.31175606671E+02  0.31201463929E+02  0.12700000000E+01 0.  1.
         -4   -1    0    0    0  501 -0.00000000000E+00 -0.00000000000E+00 -0.12523021249E+03  0.12523665207E+03  0.12700000000E+01 0.  1.
         25    2    1    2    0    0  0.00000000000E+00  0.00000000000E+00 -0.94054605822E+02  0.15643811600E+03  0.12500646087E+03 0.  0.
    9000005    1    3    3    0    0  0.55160060993E+02  0.14411883253E+01 -0.10307724543E+02  0.56142306132E+02  0.10000000000E+01 0.  0.
    9000005    1    3    3    0    0 -0.55160060993E+02 -0.14411883253E+01 -0.83746881279E+02  0.10029580986E+03  0.10000000000E+01 0.  0.
<mgrwt>
<rscale>  0 0.12500646E+03</rscale>
<asrwt>0</asrwt>
<pdfrwt beam="1">  1        4 0.47987316E-02 0.12500646E+03</pdfrwt>
<pdfrwt beam="2">  1       -4 0.19268671E-01 0.12500646E+03</pdfrwt>
<totfact> 0.98019675E+03</totfact>
</mgrwt>
</event>
<event>
 5    1  0.3330238E-002  0.1249946E+03  0.7818608E-02  0.1235078E+00
          4   -1    0    0  501    0  0.00000000000E+00  0.00000000000E+00  0.35093171093E+03  0.35093400895E+03  0.12700000000E+01 0.  1.
         -4   -1    0    0    0  501 -0.00000000000E+00 -0.00000000000E+00 -0.11091544010E+02  0.11164015789E+02  0.12700000000E+01 0.  1.
         25    2    1    2    0    0  0.00000000000E+00  0.00000000000E+00  0.33984016692E+03  0.36209802474E+03  0.12499456175E+03 0.  0.
    9000005    1    3    3    0    0  0.18849225078E+02 -0.44920182783E+02  0.56540405028E+02  0.74638686404E+02  0.10000000000E+01 0.  0.
    9000005    1    3    3    0    0 -0.18849225078E+02  0.44920182783E+02  0.28329976189E+03  0.28745933834E+03  0.10000000000E+01 0.  0.
<mgrwt>
<rscale>  0 0.12499456E+03</rscale>
<asrwt>0</asrwt>
<pdfrwt beam="1">  1        4 0.53995244E-01 0.12499456E+03</pdfrwt>
<pdfrwt beam="2">  1       -4 0.17121430E-02 0.12499456E+03</pdfrwt>
<totfact> 0.68422043E+03</totfact>
</mgrwt>
</event>
<event>
 5    1  0.3330238E-002  0.1249977E+03  0.7818608E-02  0.1235073E+00
          4   -1    0    0  501    0  0.00000000000E+00  0.00000000000E+00  0.10959193318E+03  0.10959929159E+03  0.12700000000E+01 0.  1.
         -4   -1    0    0    0  501 -0.00000000000E+00 -0.00000000000E+00 -0.35622405256E+02  0.35645036909E+02  0.12700000000E+01 0.  1.
         25    2    1    2    0    0  0.00000000000E+00  0.00000000000E+00  0.73969527920E+02  0.14524432850E+03  0.12499769558E+03 0.  0.
    9000005    1    3    3    0    0  0.55625421698E+02 -0.28289679084E+02  0.40770112668E+02  0.74549953512E+02  0.10000000000E+01 0.  0.
    9000005    1    3    3    0    0 -0.55625421698E+02  0.28289679084E+02  0.33199415252E+02  0.70694374987E+02  0.10000000000E+01 0.  0.
<mgrwt>
<rscale>  0 0.12499770E+03</rscale>
<asrwt>0</asrwt>
<pdfrwt beam="1">  1        4 0.16862604E-01 0.12499770E+03</pdfrwt>
<pdfrwt beam="2">  1       -4 0.54826771E-02 0.12499770E+03</pdfrwt>
<totfact> 0.10026547E+04</totfact>
</mgrwt>
</event>
<event>
 5    1  0.3330238E-002  0.1250016E+03  0.7818608E-02  0.1235067E+00
         -4   -1    0    0    0  501 -0.00000000000E+00  0.00000000000E+00  0.69823494743E+03  0.69823610241E+03  0.12700000000E+01 0. -1.
          4   -1    0    0  501    0  0.00000000000E+00 -0.00000000000E+00 -0.55213626322E+01  0.56655401611E+01  0.12700000000E+01 0. -1.
         25    2    1    2    0    0  0.00000000000E+00  0.00000000000E+00  0.69271358479E+03  0.70390164257E+03  0.12500164741E+03 0.  0.
    9000005    1    3    3    0    0 -0.27048959076E+02  0.67058500150E+00  0.66356825448E+03  0.66412041395E+03  0.10000000000E+01 0.  0.
    9000005    1    3    3    0    0  0.27048959076E+02 -0.67058500150E+00  0.29145330310E+02  0.39781228616E+02  0.10000000000E+01 0.  0.
<mgrwt>
<rscale>  0 0.12500165E+03</rscale>
<asrwt>0</asrwt>
<pdfrwt beam="2">  1        4 0.86061967E-03 0.12500165E+03</pdfrwt>
<pdfrwt beam="1">  1       -4 0.10743196E+00 0.12500165E+03</pdfrwt>
<totfact> 0.42879977E+03</totfact>
</mgrwt>
</event>
<event>
 5    1  0.3330238E-002  0.1249990E+03  0.7818608E-02  0.1235071E+00
          4   -1    0    0  501    0  0.00000000000E+00  0.00000000000E+00  0.34871520797E+03  0.34871752059E+03  0.12700000000E+01 0.  1.
         -4   -1    0    0    0  501 -0.00000000000E+00 -0.00000000000E+00 -0.11163300106E+02  0.11235309042E+02  0.12700000000E+01 0.  1.
         25    2    1    2    0    0  0.00000000000E+00  0.00000000000E+00  0.33755190786E+03  0.35995282963E+03  0.12499899624E+03 0.  0.
    9000005    1    3    3    0    0 -0.56152634923E+01  0.41624395828E+02  0.30202191966E+03  0.30493009275E+03  0.10000000000E+01 0.  0.
    9000005    1    3    3    0    0  0.56152634923E+01 -0.41624395828E+02  0.35529988203E+02  0.55022736881E+02  0.10000000000E+01 0.  0.
<mgrwt>
<rscale>  0 0.12499900E+03</rscale>
<asrwt>0</asrwt>
<pdfrwt beam="1">  1        4 0.53654211E-01 0.12499900E+03</pdfrwt>
<pdfrwt beam="2">  1       -4 0.17231478E-02 0.12499900E+03</pdfrwt>
<totfact> 0.68644847E+03</totfact>
</mgrwt>
</event>
<event>
 5    1  0.3330238E-002  0.1250363E+03  0.7818608E-02  0.1235013E+00
          4   -1    0    0  501    0  0.00000000000E+00  0.00000000000E+00  0.60198425762E+02  0.60211820802E+02  0.12700000000E+01 0.  1.
         -4   -1    0    0    0  501 -0.00000000000E+00 -0.00000000000E+00 -0.64900388380E+02  0.64912813156E+02  0.12700000000E+01 0.  1.
         25    2    1    2    0    0  0.00000000000E+00  0.00000000000E+00 -0.47019626179E+01  0.12512463396E+03  0.12503625702E+03 0.  0.
    9000005    1    3    3    0    0  0.13318999655E+02 -0.39541626679E+01 -0.63340635908E+02  0.64854200415E+02  0.10000000000E+01 0.  0.
    9000005    1    3    3    0    0 -0.13318999655E+02  0.39541626679E+01  0.58638673290E+02  0.60270433543E+02  0.10000000000E+01 0.  0.
<mgrwt>
<rscale>  0 0.12503626E+03</rscale>
<asrwt>0</asrwt>
<pdfrwt beam="1">  1        4 0.92632824E-02 0.12503626E+03</pdfrwt>
<pdfrwt beam="2">  1       -4 0.99866613E-02 0.12503626E+03</pdfrwt>
<totfact> 0.10441598E+04</totfact>
</mgrwt>
</event>
<event>
 5    1  0.3330238E-002  0.1250015E+03  0.7818608E-02  0.1235067E+00
          4   -1    0    0  501    0  0.00000000000E+00  0.00000000000E+00  0.60573980537E+02  0.60587292546E+02  0.12700000000E+01 0. -1.
         -4   -1    0    0    0  501 -0.00000000000E+00 -0.00000000000E+00 -0.64462160743E+02  0.64474669970E+02  0.12700000000E+01 0. -1.
         25    2    1    2    0    0  0.00000000000E+00  0.00000000000E+00 -0.38881802062E+01  0.12506196252E+03  0.12500150608E+03 0.  0.
    9000005    1    3    3    0    0 -0.34037874990E+02  0.41642126350E+02 -0.33782436844E+02  0.63520836424E+02  0.10000000000E+01 0.  0.
    9000005    1    3    3    0    0  0.34037874990E+02 -0.41642126350E+02  0.29894256638E+02  0.61541126093E+02  0.10000000000E+01 0.  0.
<mgrwt>
<rscale>  0 0.12500151E+03</rscale>
<asrwt>0</asrwt>
<pdfrwt beam="1">  1        4 0.93210602E-02 0.12500151E+03</pdfrwt>
<pdfrwt beam="2">  1       -4 0.99192417E-02 0.12500151E+03</pdfrwt>
<totfact> 0.10451161E+04</totfact>
</mgrwt>
</event>
<event>
 5    1  0.3330238E-002  0.1249994E+03  0.7818608E-02  0.1235070E+00
         -4   -1    0    0    0  501 -0.00000000000E+00  0.00000000000E+00  0.45130300469E+01  0.46883195501E+01  0.12700000000E+01 0.  1.
          4   -1    0    0  501    0  0.00000000000E+00 -0.00000000000E+00 -0.84887604099E+03  0.84887699101E+03  0.12700000000E+01 0.  1.
         25    2    1    2    0    0  0.00000000000E+00  0.00000000000E+00 -0.84436301094E+03  0.85356531056E+03  0.12499938057E+03 0.  0.
    9000005    1    3    3    0    0 -0.47526531554E+02 -0.24503655654E+02 -0.64303130534E+03  0.64525147035E+03  0.10000000000E+01 0.  0.
    9000005    1    3    3    0    0  0.47526531554E+02  0.24503655654E+02 -0.20133170560E+03  0.20831384021E+03  0.10000000000E+01 0.  0.
<mgrwt>
<rscale>  0 0.12499938E+03</rscale>
<asrwt>0</asrwt>
<pdfrwt beam="2">  1        4 0.13060975E+00 0.12499938E+03</pdfrwt>
<pdfrwt beam="1">  1       -4 0.70786988E-03 0.12499938E+03</pdfrwt>
<totfact> 0.35982388E+03</totfact>
</mgrwt>
</event>
<event>
 5    1  0.3330238E-002  0.1250007E+03  0.7818608E-02  0.1235068E+00
         -4   -1    0    0    0  501 -0.00000000000E+00  0.00000000000E+00  0.30631121615E+02  0.30657438109E+02  0.12700000000E+01 0. -1.
          4   -1    0    0  501    0  0.00000000000E+00 -0.00000000000E+00 -0.12744267596E+03  0.12744900374E+03  0.12700000000E+01 0. -1.
         25    2    1    2    0    0  0.00000000000E+00  0.00000000000E+00 -0.96811554343E+02  0.15810644185E+03  0.12500067960E+03 0.  0.
    9000005    1    3    3    0    0 -0.53226696561E+02  0.32735998093E+02 -0.47454468182E+02  0.78470716502E+02  0.10000000000E+01 0.  0.
    9000005    1    3    3    0    0  0.53226696561E+02 -0.32735998093E+02 -0.49357086161E+02  0.79635725351E+02  0.10000000000E+01 0.  0.
<mgrwt>
<rscale>  0 0.12500068E+03</rscale>
<asrwt>0</asrwt>
<pdfrwt beam="2">  1        4 0.19609076E-01 0.12500068E+03</pdfrwt>
<pdfrwt beam="1">  1       -4 0.47149914E-02 0.12500068E+03</pdfrwt>
<totfact> 0.97707602E+03</totfact>
</mgrwt>
</event>
<event>
 5    1  0.3330238E-002  0.1249975E+03  0.7818608E-02  0.1235073E+00
         -4   -1    0    0    0  501 -0.00000000000E+00  0.00000000000E+00  0.72458209506E+01  0.73562776761E+01  0.12700000000E+01 0. -1.
          4   -1    0    0  501    0  0.00000000000E+00 -0.00000000000E+00 -0.53489302509E+03  0.53489453278E+03  0.12700000000E+01 0. -1.
         25    2    1    2    0    0  0.00000000000E+00  0.00000000000E+00 -0.52764720414E+03  0.54225081045E+03  0.12499747756E+03 0.  0.
    9000005    1    3    3    0    0 -0.44732728679E+02  0.14570566897E+02 -0.44225452540E+03  0.44475092318E+03  0.10000000000E+01 0.  0.
    9000005    1    3    3    0    0  0.44732728679E+02 -0.14570566897E+02 -0.85392678745E+02  0.97499887272E+02  0.10000000000E+01 0.  0.
<mgrwt>
<rscale>  0 0.12499748E+03</rscale>
<asrwt>0</asrwt>
<pdfrwt beam="2">  1        4 0.82299816E-01 0.12499748E+03</pdfrwt>
<pdfrwt beam="1">  1       -4 0.11233548E-02 0.12499748E+03</pdfrwt>
<totfact> 0.52731976E+03</totfact>
</mgrwt>
</event>
<event>
 5    1  0.3330238E-002  0.1250014E+03  0.7818608E-02  0.1235067E+00
         -4   -1    0    0    0  501 -0.00000000000E+00  0.00000000000E+00  0.13901871657E+03  0.13902451747E+03  0.12700000000E+01 0.  1.
          4   -1    0    0  501    0  0.00000000000E+00 -0.00000000000E+00 -0.28078605619E+02  0.28107312100E+02  0.12700000000E+01 0.  1.
         25    2    1    2    0    0  0.00000000000E+00  0.00000000000E+00  0.11094011095E+03  0.16713182957E+03  0.12500136094E+03 0.  0.
    9000005    1    3    3    0    0  0.54819236418E+02 -0.25623446629E+02  0.34600861614E+02  0.69713193321E+02  0.10000000000E+01 0.  0.
    9000005    1    3    3    0    0 -0.54819236418E+02  0.25623446629E+02  0.76339249338E+02  0.97418636246E+02  0.10000000000E+01 0.  0.
<mgrwt>
<rscale>  0 0.12500136E+03</rscale>
<asrwt>0</asrwt>
<pdfrwt beam="2">  1        4 0.43224400E-02 0.12500136E+03</pdfrwt>
<pdfrwt beam="1">  1       -4 0.21390149E-01 0.12500136E+03</pdfrwt>
<totfact> 0.95982241E+03</totfact>
</mgrwt>
</event>
<event>
 5    1  0.3330238E-002  0.1250000E+03  0.7818608E-02  0.1235069E+00
         -4   -1    0    0    0  501 -0.00000000000E+00  0.00000000000E+00  0.44665536879E+02  0.44683588539E+02  0.12700000000E+01 0. -1.
          4   -1    0    0  501    0  0.00000000000E+00 -0.00000000000E+00 -0.87415174383E+02  0.87424399411E+02  0.12700000000E+01 0. -1.
         25    2    1    2    0    0  0.00000000000E+00  0.00000000000E+00 -0.42749637504E+02  0.13210798795E+03  0.12499995589E+03 0.  0.
    9000005    1    3    3    0    0 -0.51319896643E+01 -0.14407626132E+02 -0.85411813723E+02  0.86776119596E+02  0.10000000000E+01 0.  0.
    9000005    1    3    3    0    0  0.51319896643E+01  0.14407626132E+02  0.42662176219E+02  0.45331868354E+02  0.10000000000E+01 0.  0.
<mgrwt>
<rscale>  0 0.12499996E+03</rscale>
<asrwt>0</asrwt>
<pdfrwt beam="2">  1        4 0.13450586E-01 0.12499996E+03</pdfrwt>
<pdfrwt beam="1">  1       -4 0.68737193E-02 0.12499996E+03</pdfrwt>
<totfact> 0.10299404E+04</totfact>
</mgrwt>
</event>
<event>
 5    1  0.3330238E-002  0.1249956E+03  0.7818608E-02  0.1235076E+00
         -4   -1    0    0    0  501 -0.00000000000E+00  0.00000000000E+00  0.44719457691E+01  0.46487846758E+01  0.12700000000E+01 0.  1.
          4   -1    0    0  501    0  0.00000000000E+00 -0.00000000000E+00 -0.85632761869E+03  0.85632856045E+03  0.12700000000E+01 0.  1.
         25    2    1    2    0    0  0.00000000000E+00  0.00000000000E+00 -0.85185567293E+03  0.86097734512E+03  0.12499560521E+03 0.  0.
    9000005    1    3    3    0    0  0.49963656906E+02  0.33921285848E+02 -0.53655676103E+03  0.53994553286E+03  0.10000000000E+01 0.  0.
    9000005    1    3    3    0    0 -0.49963656906E+02 -0.33921285848E+02 -0.31529891190E+03  0.32103181227E+03  0.10000000000E+01 0.  0.
<mgrwt>
<rscale>  0 0.12499561E+03</rscale>
<asrwt>0</asrwt>
<pdfrwt beam="2">  1        4 0.13175626E+00 0.12499561E+03</pdfrwt>
<pdfrwt beam="1">  1       -4 0.70166777E-03 0.12499561E+03</pdfrwt>
<totfact> 0.35685741E+03</totfact>
</mgrwt>
</event>
<event>
 5    1  0.3330238E-002  0.1249992E+03  0.7818608E-02  0.1235071E+00
          4   -1    0    0  501    0  0.00000000000E+00  0.00000000000E+00  0.10931712933E+03  0.10932450624E+03  0.12700000000E+01 0. -1.
         -4   -1    0    0    0  501 -0.00000000000E+00 -0.00000000000E+00 -0.35712855839E+02  0.35735430209E+02  0.12700000000E+01 0. -1.
         25    2    1    2    0    0  0.00000000000E+00  0.00000000000E+00  0.73604273490E+02  0.14505993645E+03  0.12499918434E+03 0.  0.
    9000005    1    3    3    0    0 -0.28211445878E+02  0.32571742279E+02 -0.15720576352E+02  0.45879631586E+02  0.10000000000E+01 0.  0.
    9000005    1    3    3    0    0  0.28211445878E+02 -0.32571742279E+02  0.89324849842E+02  0.99180304864E+02  0.10000000000E+01 0.  0.
<mgrwt>
<rscale>  0 0.12499918E+03</rscale>
<asrwt>0</asrwt>
<pdfrwt beam="1">  1        4 0.16820324E-01 0.12499918E+03</pdfrwt>
<pdfrwt beam="2">  1       -4 0.54965894E-02 0.12499918E+03</pdfrwt>
<totfact> 0.10029955E+04</totfact>
</mgrwt>
</event>
<event>
 4    1  0.3330238E-002  0.1248369E+03  0.7818608E-02  0.1235324E+00
          4   -1    0    0  501    0  0.00000000000E+00  0.00000000000E+00  0.68010512861E+03  0.68010631438E+03  0.12700000000E+01 0.  1.
         -4   -1    0    0    0  501 -0.00000000000E+00 -0.00000000000E+00 -0.56570219580E+01  0.57978269579E+01  0.12700000000E+01 0.  1.
    9000005    1    1    2    0    0 -0.46385006856E+02 -0.40799202894E+02  0.38603366546E+03  0.39094646012E+03  0.10000000000E+01 0.  0.
    9000005    1    1    2    0    0  0.46385006856E+02  0.40799202894E+02  0.28841444120E+03  0.29495768121E+03  0.10000000000E+01 0.  0.
<mgrwt>
<rscale>  0 0.12483686E+03</rscale>
<asrwt>0</asrwt>
<pdfrwt beam="1">  1        4 0.10464243E+00 0.12483686E+03</pdfrwt>
<pdfrwt beam="2">  1       -4 0.88123385E-03 0.12483686E+03</pdfrwt>
<totfact> 0.43998217E+03</totfact>
</mgrwt>
</event>
<event>
 5    1  0.3330238E-002  0.1250013E+03  0.7818608E-02  0.1235067E+00
          4   -1    0    0  501    0  0.00000000000E+00  0.00000000000E+00  0.77896313156E+02  0.77906665333E+02  0.12700000000E+01 0.  1.
         -4   -1    0    0    0  501 -0.00000000000E+00 -0.00000000000E+00 -0.50126109313E+02  0.50142195154E+02  0.12700000000E+01 0.  1.
         25    2    1    2    0    0  0.00000000000E+00  0.00000000000E+00  0.27770203842E+02  0.12804886049E+03  0.12500130580E+03 0.  0.
    9000005    1    3    3    0    0 -0.52479366076E+01  0.26166146834E+02  0.71770500567E+02  0.76578148518E+02  0.10000000000E+01 0.  0.
    9000005    1    3    3    0    0  0.52479366076E+01 -0.26166146834E+02 -0.44000296724E+02  0.51470711969E+02  0.10000000000E+01 0.  0.
<mgrwt>
<rscale>  0 0.12500131E+03</rscale>
<asrwt>0</asrwt>
<pdfrwt beam="1">  1        4 0.11986082E-01 0.12500131E+03</pdfrwt>
<pdfrwt beam="2">  1       -4 0.77137429E-02 0.12500131E+03</pdfrwt>
<totfact> 0.10386126E+04</totfact>
</mgrwt>
</event>
<event>
 5    1  0.3330238E-002  0.1250069E+03  0.7818608E-02  0.1235059E+00
         -4   -1    0    0    0  501 -0.00000000000E+00  0.00000000000E+00  0.65220967080E+03  0.65221090728E+03  0.12700000000E+01 0. -1.
          4   -1    0    0  501    0  0.00000000000E+00 -0.00000000000E+00 -0.59213422373E+01  0.60560047796E+01  0.12700000000E+01 0. -1.
         25    2    1    2    0    0  0.00000000000E+00  0.00000000000E+00  0.64628832856E+03  0.65826691206E+03  0.12500689535E+03 0.  0.
    9000005    1    3    3    0    0 -0.58997209098E+02 -0.73526243018E+01  0.22172377354E+03  0.22955862763E+03  0.10000000000E+01 0.  0.
    9000005    1    3    3    0    0  0.58997209098E+02  0.73526243018E+01  0.42456455502E+03  0.42870828444E+03  0.10000000000E+01 0.  0.
<mgrwt>
<rscale>  0 0.12500690E+03</rscale>
<asrwt>0</asrwt>
<pdfrwt beam="2">  1        4 0.92143005E-03 0.12500690E+03</pdfrwt>
<pdfrwt beam="1">  1       -4 0.10035034E+00 0.12500690E+03</pdfrwt>
<totfact> 0.45376137E+03</totfact>
</mgrwt>
</event>
<event>
 5    1  0.3330238E-002  0.1250014E+03  0.7818608E-02  0.1235067E+00
          4   -1    0    0  501    0  0.00000000000E+00  0.00000000000E+00  0.91715246927E+02  0.91724039482E+02  0.12700000000E+01 0. -1.
         -4   -1    0    0    0  501 -0.00000000000E+00 -0.00000000000E+00 -0.42571683352E+02  0.42590622483E+02  0.12700000000E+01 0. -1.
         25    2    1    2    0    0  0.00000000000E+00  0.00000000000E+00  0.49143563575E+02  0.13431466196E+03  0.12500135430E+03 0.  0.
    9000005    1    3    3    0    0 -0.57815548963E+02  0.54618586816E+01 -0.23196677001E+00  0.58082040346E+02  0.10000000000E+01 0.  0.
    9000005    1    3    3    0    0  0.57815548963E+02 -0.54618586816E+01  0.49375530345E+02  0.76232621619E+02  0.10000000000E+01 0.  0.
<mgrwt>
<rscale>  0 0.12500135E+03</rscale>
<asrwt>0</asrwt>
<pdfrwt beam="1">  1        4 0.14112171E-01 0.12500135E+03</pdfrwt>
<pdfrwt beam="2">  1       -4 0.65516230E-02 0.12500135E+03</pdfrwt>
<totfact> 0.10252223E+04</totfact>
</mgrwt>
</event>
<event>
 5    1  0.3330238E-002  0.1249994E+03  0.7818608E-02  0.1235070E+00
          4   -1    0    0  501    0  0.00000000000E+00  0.00000000000E+00  0.86986719451E+01  0.87908926514E+01  0.12700000000E+01 0.  1.
         -4   -1    0    0    0  501 -0.00000000000E+00 -0.00000000000E+00 -0.44659745256E+03  0.44659925832E+03  0.12700000000E+01 0.  1.
         25    2    1    2    0    0  0.00000000000E+00  0.00000000000E+00 -0.43789878061E+03  0.45539015097E+03  0.12499939015E+03 0.  0.
    9000005    1    3    3    0    0 -0.20464696566E+02 -0.38713809196E+02 -0.38137166667E+03  0.38387877119E+03  0.10000000000E+01 0.  0.
    9000005    1    3    3    0    0  0.20464696566E+02  0.38713809196E+02 -0.56527113939E+02  0.71511379781E+02  0.10000000000E+01 0.  0.
<mgrwt>
<rscale>  0 0.12499939E+03</rscale>
<asrwt>0</asrwt>
<pdfrwt beam="1">  1        4 0.13454904E-02 0.12499939E+03</pdfrwt>
<pdfrwt beam="2">  1       -4 0.68714515E-01 0.12499939E+03</pdfrwt>
<totfact> 0.59500481E+03</totfact>
</mgrwt>
</event>
<event>
 5    1  0.3330238E-002  0.1249972E+03  0.7818608E-02  0.1235074E+00
         -4   -1    0    0    0  501 -0.00000000000E+00  0.00000000000E+00  0.11317044712E+02  0.11388081533E+02  0.12700000000E+01 0.  1.
          4   -1    0    0  501    0  0.00000000000E+00 -0.00000000000E+00 -0.34399752857E+03  0.34399987291E+03  0.12700000000E+01 0.  1.
         25    2    1    2    0    0  0.00000000000E+00  0.00000000000E+00 -0.33268048386E+03  0.35538795445E+03  0.12499717526E+03 0.  0.
    9000005    1    3    3    0    0 -0.40601865811E+00  0.61474400759E+02 -0.13445025696E+03  0.14784159901E+03  0.10000000000E+01 0.  0.
    9000005    1    3    3    0    0  0.40601865811E+00 -0.61474400759E+02 -0.19823022690E+03  0.20754635544E+03  0.10000000000E+01 0.  0.
<mgrwt>
<rscale>  0 0.12499718E+03</rscale>
<asrwt>0</asrwt>
<pdfrwt beam="2">  1        4 0.52928334E-01 0.12499718E+03</pdfrwt>
<pdfrwt beam="1">  1       -4 0.17467288E-02 0.12499718E+03</pdfrwt>
<totfact> 0.69140178E+03</totfact>
</mgrwt>
</event>
<event>
 5    1  0.3330238E-002  0.1250010E+03  0.7818608E-02  0.1235068E+00
          4   -1    0    0  501    0  0.00000000000E+00  0.00000000000E+00  0.58765298974E+02  0.58779020607E+02  0.12700000000E+01 0. -1.
         -4   -1    0    0    0  501 -0.00000000000E+00 -0.00000000000E+00 -0.66445530570E+02  0.66457666471E+02  0.12700000000E+01 0. -1.
         25    2    1    2    0    0  0.00000000000E+00  0.00000000000E+00 -0.76802315964E+01  0.12523668708E+03  0.12500096733E+03 0.  0.
    9000005    1    3    3    0    0  0.36635001952E+02  0.30745963595E+01  0.46789662025E+02  0.59513435317E+02  0.10000000000E+01 0.  0.
    9000005    1    3    3    0    0 -0.36635001952E+02 -0.30745963595E+01 -0.54469893622E+02  0.65723251761E+02  0.10000000000E+01 0.  0.
<mgrwt>
<rscale>  0 0.12500097E+03</rscale>
<asrwt>0</asrwt>
<pdfrwt beam="1">  1        4 0.90428043E-02 0.12500097E+03</pdfrwt>
<pdfrwt beam="2">  1       -4 0.10224378E-01 0.12500097E+03</pdfrwt>
<totfact> 0.10447496E+04</totfact>
</mgrwt>
</event>
<event>
 5    1  0.3330238E-002  0.1250014E+03  0.7818608E-02  0.1235067E+00
         -4   -1    0    0    0  501 -0.00000000000E+00  0.00000000000E+00  0.37458313645E+03  0.37458528937E+03  0.12700000000E+01 0. -1.
          4   -1    0    0  501    0  0.00000000000E+00 -0.00000000000E+00 -0.10387629648E+02  0.10464977292E+02  0.12700000000E+01 0. -1.
         25    2    1    2    0    0  0.00000000000E+00  0.00000000000E+00  0.36419550680E+03  0.38505026666E+03  0.12500136272E+03 0.  0.
    9000005    1    3    3    0    0  0.61375473132E+02 -0.82929885036E+01  0.20779859017E+03  0.21683398358E+03  0.10000000000E+01 0.  0.
    9000005    1    3    3    0    0 -0.61375473132E+02  0.82929885036E+01  0.15639691663E+03  0.16821628308E+03  0.10000000000E+01 0.  0.
<mgrwt>
<rscale>  0 0.12500136E+03</rscale>
<asrwt>0</asrwt>
<pdfrwt beam="2">  1        4 0.16042120E-02 0.12500136E+03</pdfrwt>
<pdfrwt beam="1">  1       -4 0.57634300E-01 0.12500136E+03</pdfrwt>
<totfact> 0.66031229E+03</totfact>
</mgrwt>
</event>
<event>
 4    1  0.3330238E-002  0.1247719E+03  0.7818608E-02  0.1235426E+00
          4   -1    0    0  501    0  0.00000000000E+00  0.00000000000E+00  0.87481674986E+01  0.88398718647E+01  0.12700000000E+01 0. -1.
         -4   -1    0    0    0  501 -0.00000000000E+00 -0.00000000000E+00 -0.44248163956E+03  0.44248346212E+03  0.12700000000E+01 0. -1.
    9000005    1    1    2    0    0 -0.34609573311E+02 -0.77564656254E+01 -0.31258092738E+02  0.47286929329E+02  0.10000000000E+01 0.  0.
    9000005    1    1    2    0    0  0.34609573311E+02  0.77564656254E+01 -0.40247537932E+03  0.40403640465E+03  0.10000000000E+01 0.  0.
<mgrwt>
<rscale>  0 0.12477190E+03</rscale>
<asrwt>0</asrwt>
<pdfrwt beam="1">  1        4 0.13530666E-02 0.12477190E+03</pdfrwt>
<pdfrwt beam="2">  1       -4 0.68081275E-01 0.12477190E+03</pdfrwt>
<totfact> 0.60151025E+03</totfact>
</mgrwt>
</event>
<event>
 5    1  0.3330238E-002  0.1250002E+03  0.7818608E-02  0.1235069E+00
          4   -1    0    0  501    0  0.00000000000E+00  0.00000000000E+00  0.63734253280E+02  0.63746905346E+02  0.12700000000E+01 0.  1.
         -4   -1    0    0    0  501 -0.00000000000E+00 -0.00000000000E+00 -0.61264553157E+02  0.61277715146E+02  0.12700000000E+01 0.  1.
         25    2    1    2    0    0  0.00000000000E+00  0.00000000000E+00  0.24697001232E+01  0.12502462049E+03  0.12500022524E+03 0.  0.
    9000005    1    3    3    0    0  0.32354209482E+02 -0.36575557801E+02 -0.37768885652E+02  0.61741841754E+02  0.10000000000E+01 0.  0.
    9000005    1    3    3    0    0 -0.32354209482E+02  0.36575557801E+02  0.40238585775E+02  0.63282778739E+02  0.10000000000E+01 0.  0.
<mgrwt>
<rscale>  0 0.12500023E+03</rscale>
<asrwt>0</asrwt>
<pdfrwt beam="1">  1        4 0.98072554E-02 0.12500023E+03</pdfrwt>
<pdfrwt beam="2">  1       -4 0.94273016E-02 0.12500023E+03</pdfrwt>
<totfact> 0.10452275E+04</totfact>
</mgrwt>
</event>
<event>
 5    1  0.3330238E-002  0.1250004E+03  0.7818608E-02  0.1235069E+00
          4   -1    0    0  501    0  0.00000000000E+00  0.00000000000E+00  0.10476061642E+03  0.10476831416E+03  0.12700000000E+01 0. -1.
         -4   -1    0    0    0  501 -0.00000000000E+00 -0.00000000000E+00 -0.37267734049E+02  0.37289367133E+02  0.12700000000E+01 0. -1.
         25    2    1    2    0    0  0.00000000000E+00  0.00000000000E+00  0.67492882371E+02  0.14205768130E+03  0.12500038258E+03 0.  0.
    9000005    1    3    3    0    0  0.21917123840E+01  0.44246060338E+01 -0.37051270952E+02  0.37392210698E+02  0.10000000000E+01 0.  0.
    9000005    1    3    3    0    0 -0.21917123840E+01 -0.44246060338E+01  0.10454415332E+03  0.10466547060E+03  0.10000000000E+01 0.  0.
<mgrwt>
<rscale>  0 0.12500038E+03</rscale>
<asrwt>0</asrwt>
<pdfrwt beam="1">  1        4 0.16119274E-01 0.12500038E+03</pdfrwt>
<pdfrwt beam="2">  1       -4 0.57357538E-02 0.12500038E+03</pdfrwt>
<totfact> 0.10091029E+04</totfact>
</mgrwt>
</event>
<event>
 5    1  0.3330238E-002  0.1250063E+03  0.7818608E-02  0.1235059E+00
          4   -1    0    0  501    0  0.00000000000E+00  0.00000000000E+00  0.78804452685E+02  0.78814685579E+02  0.12700000000E+01 0. -1.
         -4   -1    0    0    0  501 -0.00000000000E+00 -0.00000000000E+00 -0.49552316670E+02  0.49568588717E+02  0.12700000000E+01 0. -1.
         25    2    1    2    0    0  0.00000000000E+00  0.00000000000E+00  0.29252136014E+02  0.12838327430E+03  0.12500631047E+03 0.  0.
    9000005    1    3    3    0    0  0.21283853463E+02 -0.11649924238E+02 -0.44522480496E+02  0.50714637162E+02  0.10000000000E+01 0.  0.
    9000005    1    3    3    0    0 -0.21283853463E+02  0.11649924238E+02  0.73774616510E+02  0.77668637134E+02  0.10000000000E+01 0.  0.
<mgrwt>
<rscale>  0 0.12500631E+03</rscale>
<asrwt>0</asrwt>
<pdfrwt beam="1">  1        4 0.12125801E-01 0.12500631E+03</pdfrwt>
<pdfrwt beam="2">  1       -4 0.76254722E-02 0.12500631E+03</pdfrwt>
<totfact> 0.10377740E+04</totfact>
</mgrwt>
</event>
<event>
 5    1  0.3330238E-002  0.1250025E+03  0.7818608E-02  0.1235065E+00
         -4   -1    0    0    0  501 -0.00000000000E+00  0.00000000000E+00  0.22177185595E+03  0.22177549231E+03  0.12700000000E+01 0. -1.
          4   -1    0    0  501    0  0.00000000000E+00 -0.00000000000E+00 -0.17587842578E+02  0.17633635659E+02  0.12700000000E+01 0. -1.
         25    2    1    2    0    0  0.00000000000E+00  0.00000000000E+00  0.20418401337E+03  0.23940912797E+03  0.12500247694E+03 0.  0.
    9000005    1    3    3    0    0 -0.55644419702E+02 -0.24532428034E+02  0.12966496303E+03  0.14322061341E+03  0.10000000000E+01 0.  0.
    9000005    1    3    3    0    0  0.55644419702E+02  0.24532428034E+02  0.74519050340E+02  0.96188514557E+02  0.10000000000E+01 0.  0.
<mgrwt>
<rscale>  0 0.12500248E+03</rscale>
<asrwt>0</asrwt>
<pdfrwt beam="2">  1        4 0.27096243E-02 0.12500248E+03</pdfrwt>
<pdfrwt beam="1">  1       -4 0.34122547E-01 0.12500248E+03</pdfrwt>
<totfact> 0.83880815E+03</totfact>
</mgrwt>
</event>
<event>
 5    1  0.3330238E-002  0.1250021E+03  0.7818608E-02  0.1235066E+00
          4   -1    0    0  501    0  0.00000000000E+00  0.00000000000E+00  0.59334071983E+02  0.59347662111E+02  0.12700000000E+01 0. -1.
         -4   -1    0    0    0  501 -0.00000000000E+00 -0.00000000000E+00 -0.65809770172E+02  0.65822023291E+02  0.12700000000E+01 0. -1.
         25    2    1    2    0    0  0.00000000000E+00  0.00000000000E+00 -0.64756981893E+01  0.12516968540E+03  0.12500206189E+03 0.  0.
    9000005    1    3    3    0    0 -0.37465294423E+02  0.13485107197E+02 -0.51467595159E+02  0.65080025766E+02  0.10000000000E+01 0.  0.
    9000005    1    3    3    0    0  0.37465294423E+02 -0.13485107197E+02  0.44991896969E+02  0.60089659636E+02  0.10000000000E+01 0.  0.
<mgrwt>
<rscale>  0 0.12500206E+03</rscale>
<asrwt>0</asrwt>
<pdfrwt beam="1">  1        4 0.91303067E-02 0.12500206E+03</pdfrwt>
<pdfrwt beam="2">  1       -4 0.10126568E-01 0.12500206E+03</pdfrwt>
<totfact> 0.10448691E+04</totfact>
</mgrwt>
</event>
<event>
 5    1  0.3330238E-002  0.1250095E+03  0.7818608E-02  0.1235054E+00
         -4   -1    0    0    0  501 -0.00000000000E+00  0.00000000000E+00  0.11289117325E+03  0.11289831663E+03  0.12700000000E+01 0. -1.
          4   -1    0    0  501    0  0.00000000000E+00 -0.00000000000E+00 -0.34587284550E+02  0.34610593069E+02  0.12700000000E+01 0. -1.
         25    2    1    2    0    0  0.00000000000E+00  0.00000000000E+00  0.78303888703E+02  0.14750890970E+03  0.12500951746E+03 0.  0.
    9000005    1    3    3    0    0  0.22470181019E+02 -0.65609481031E+01 -0.29224795965E+02  0.37457225928E+02  0.10000000000E+01 0.  0.
    9000005    1    3    3    0    0 -0.22470181019E+02  0.65609481031E+01  0.10752868467E+03  0.11005168377E+03  0.10000000000E+01 0.  0.
<mgrwt>
<rscale>  0 0.12500952E+03</rscale>
<asrwt>0</asrwt>
<pdfrwt beam="2">  1        4 0.53234633E-02 0.12500952E+03</pdfrwt>
<pdfrwt beam="1">  1       -4 0.17370215E-01 0.12500952E+03</pdfrwt>
<totfact> 0.99781217E+03</totfact>
</mgrwt>
</event>
<event>
 5    1  0.3330238E-002  0.1249974E+03  0.7818608E-02  0.1235073E+00
         -4   -1    0    0    0  501 -0.00000000000E+00  0.00000000000E+00  0.14687977541E+03  0.14688526586E+03  0.12700000000E+01 0.  1.
          4   -1    0    0  501    0  0.00000000000E+00 -0.00000000000E+00 -0.26572609910E+02  0.26602941518E+02  0.12700000000E+01 0.  1.
         25    2    1    2    0    0  0.00000000000E+00  0.00000000000E+00  0.12030716550E+03  0.17348820737E+03  0.12499737608E+03 0.  0.
    9000005    1    3    3    0    0  0.43214910018E+02  0.39322388794E+02  0.90917785923E+02  0.10807785391E+03  0.10000000000E+01 0.  0.
    9000005    1    3    3    0    0 -0.43214910018E+02 -0.39322388794E+02  0.29389379580E+02  0.65410353465E+02  0.10000000000E+01 0.  0.
<mgrwt>
<rscale>  0 0.12499738E+03</rscale>
<asrwt>0</asrwt>
<pdfrwt beam="2">  1        4 0.40908495E-02 0.12499738E+03</pdfrwt>
<pdfrwt beam="1">  1       -4 0.22599644E-01 0.12499738E+03</pdfrwt>
<totfact> 0.94808035E+03</totfact>
</mgrwt>
</event>
<event>
 5    1  0.3330238E-002  0.1249958E+03  0.7818608E-02  0.1235076E+00
          4   -1    0    0  501    0  0.00000000000E+00  0.00000000000E+00  0.10776575960E+02  0.10851151525E+02  0.12700000000E+01 0.  1.
         -4   -1    0    0    0  501 -0.00000000000E+00 -0.00000000000E+00 -0.36112597872E+03  0.36112821187E+03  0.12700000000E+01 0.  1.
         25    2    1    2    0    0  0.00000000000E+00  0.00000000000E+00 -0.35034940276E+03  0.37197936339E+03  0.12499577103E+03 0.  0.
    9000005    1    3    3    0    0 -0.33533739108E+02 -0.36153783280E+01 -0.33172710380E+03  0.33343883099E+03  0.10000000000E+01 0.  0.
    9000005    1    3    3    0    0  0.33533739108E+02  0.36153783280E+01 -0.18622298961E+02  0.38540532399E+02  0.10000000000E+01 0.  0.
<mgrwt>
<rscale>  0 0.12499577E+03</rscale>
<asrwt>0</asrwt>
<pdfrwt beam="1">  1        4 0.16638434E-02 0.12499577E+03</pdfrwt>
<pdfrwt beam="2">  1       -4 0.55563742E-01 0.12499577E+03</pdfrwt>
<totfact> 0.67378669E+03</totfact>
</mgrwt>
</event>
<event>
 5    1  0.3330238E-002  0.1249922E+03  0.7818608E-02  0.1235082E+00
          4   -1    0    0  501    0  0.00000000000E+00  0.00000000000E+00  0.12276722732E+03  0.12277379608E+03  0.12700000000E+01 0.  1.
         -4   -1    0    0    0  501 -0.00000000000E+00 -0.00000000000E+00 -0.31794267097E+02  0.31819621623E+02  0.12700000000E+01 0.  1.
         25    2    1    2    0    0  0.00000000000E+00  0.00000000000E+00  0.90972960221E+02  0.15459341770E+03  0.12499218097E+03 0.  0.
    9000005    1    3    3    0    0 -0.28552618569E+02  0.55251056047E+02  0.52992498587E+02  0.81713745037E+02  0.10000000000E+01 0.  0.
    9000005    1    3    3    0    0  0.28552618569E+02 -0.55251056047E+02  0.37980461634E+02  0.72879672663E+02  0.10000000000E+01 0.  0.
<mgrwt>
<rscale>  0 0.12499218E+03</rscale>
<asrwt>0</asrwt>
<pdfrwt beam="1">  1        4 0.18889721E-01 0.12499218E+03</pdfrwt>
<pdfrwt beam="2">  1       -4 0.48938814E-02 0.12499218E+03</pdfrwt>
<totfact> 0.98412681E+03</totfact>
</mgrwt>
</event>
<event>
 5    1  0.3330238E-002  0.1249972E+03  0.7818608E-02  0.1235074E+00
         -4   -1    0    0    0  501 -0.00000000000E+00  0.00000000000E+00  0.26495310045E+03  0.26495614417E+03  0.12700000000E+01 0. -1.
          4   -1    0    0  501    0  0.00000000000E+00 -0.00000000000E+00 -0.14712023809E+02  0.14766737776E+02  0.12700000000E+01 0. -1.
         25    2    1    2    0    0  0.00000000000E+00  0.00000000000E+00  0.25024107664E+03  0.27972288195E+03  0.12499717697E+03 0.  0.
    9000005    1    3    3    0    0 -0.15498204584E+02  0.15019986074E+02 -0.61180373166E+01  0.22454948399E+02  0.10000000000E+01 0.  0.
    9000005    1    3    3    0    0  0.15498204584E+02 -0.15019986074E+02  0.25635911395E+03  0.25726793355E+03  0.10000000000E+01 0.  0.
<mgrwt>
<rscale>  0 0.12499718E+03</rscale>
<asrwt>0</asrwt>
<pdfrwt beam="2">  1        4 0.22678312E-02 0.12499718E+03</pdfrwt>
<pdfrwt beam="1">  1       -4 0.40766457E-01 0.12499718E+03</pdfrwt>
<totfact> 0.78219771E+03</totfact>
</mgrwt>
</event>
<event>
 5    1  0.3330238E-002  0.1249982E+03  0.7818608E-02  0.1235072E+00
          4   -1    0    0  501    0  0.00000000000E+00  0.00000000000E+00  0.84065363645E+02  0.84074956228E+02  0.12700000000E+01 0. -1.
         -4   -1    0    0    0  501 -0.00000000000E+00 -0.00000000000E+00 -0.46444527025E+02  0.46461887505E+02  0.12700000000E+01 0. -1.
         25    2    1    2    0    0  0.00000000000E+00  0.00000000000E+00  0.37620836620E+02  0.13053684373E+03  0.12499816088E+03 0.  0.
    9000005    1    3    3    0    0 -0.35288289286E+02 -0.27601201631E+02  0.64307420142E+02  0.78380699011E+02  0.10000000000E+01 0.  0.
    9000005    1    3    3    0    0  0.35288289286E+02  0.27601201631E+02 -0.26686583522E+02  0.52156144722E+02  0.10000000000E+01 0.  0.
<mgrwt>
<rscale>  0 0.12499816E+03</rscale>
<asrwt>0</asrwt>
<pdfrwt beam="1">  1        4 0.12935206E-01 0.12499816E+03</pdfrwt>
<pdfrwt beam="2">  1       -4 0.71473852E-02 0.12499816E+03</pdfrwt>
<totfact> 0.10333458E+04</totfact>
</mgrwt>
</event>
<event>
 5    1  0.3330238E-002  0.1249966E+03  0.7818608E-02  0.1235075E+00
         -4   -1    0    0    0  501 -0.00000000000E+00  0.00000000000E+00  0.77359684900E+02  0.77370108878E+02  0.12700000000E+01 0. -1.
          4   -1    0    0  501    0  0.00000000000E+00 -0.00000000000E+00 -0.50470116680E+02  0.50486092913E+02  0.12700000000E+01 0. -1.
         25    2    1    2    0    0  0.00000000000E+00  0.00000000000E+00  0.26889568220E+02  0.12785620179E+03  0.12499663778E+03 0.  0.
    9000005    1    3    3    0    0  0.65630539440E+01  0.33364374527E+02  0.67073059370E+02  0.75206718170E+02  0.10000000000E+01 0.  0.
    9000005    1    3    3    0    0 -0.65630539440E+01 -0.33364374527E+02 -0.40183491149E+02  0.52649483622E+02  0.10000000000E+01 0.  0.
<mgrwt>
<rscale>  0 0.12499664E+03</rscale>
<asrwt>0</asrwt>
<pdfrwt beam="2">  1        4 0.77666641E-02 0.12499664E+03</pdfrwt>
<pdfrwt beam="1">  1       -4 0.11903521E-01 0.12499664E+03</pdfrwt>
<totfact> 0.10391383E+04</totfact>
</mgrwt>
</event>
<event>
 5    1  0.3330238E-002  0.1250103E+03  0.7818608E-02  0.1235053E+00
          4   -1    0    0  501    0  0.00000000000E+00  0.00000000000E+00  0.32265338252E+03  0.32265588194E+03  0.12700000000E+01 0. -1.
         -4   -1    0    0    0  501 -0.00000000000E+00 -0.00000000000E+00 -0.12072794033E+02  0.12139409202E+02  0.12700000000E+01 0. -1.
         25    2    1    2    0    0  0.00000000000E+00  0.00000000000E+00  0.31058058849E+03  0.33479529114E+03  0.12501033968E+03 0.  0.
    9000005    1    3    3    0    0  0.31110539817E+02 -0.36852116325E+02  0.26174267161E+03  0.26615065341E+03  0.10000000000E+01 0.  0.
    9000005    1    3    3    0    0 -0.31110539817E+02  0.36852116325E+02  0.48837916872E+02  0.68644637735E+02  0.10000000000E+01 0.  0.
<mgrwt>
<rscale>  0 0.12501034E+03</rscale>
<asrwt>0</asrwt>
<pdfrwt beam="1">  1        4 0.49644293E-01 0.12501034E+03</pdfrwt>
<pdfrwt beam="2">  1       -4 0.18626696E-02 0.12501034E+03</pdfrwt>
<totfact> 0.71413946E+03</totfact>
</mgrwt>
</event>
<event>
 5    1  0.3330238E-002  0.1250001E+03  0.7818608E-02  0.1235069E+00
          4   -1    0    0  501    0  0.00000000000E+00  0.00000000000E+00  0.32568802926E+02  0.32593554946E+02  0.12700000000E+01 0. -1.
         -4   -1    0    0    0  501 -0.00000000000E+00 -0.00000000000E+00 -0.11986490421E+03  0.11987163201E+03  0.12700000000E+01 0. -1.
         25    2    1    2    0    0  0.00000000000E+00  0.00000000000E+00 -0.87296101286E+02  0.15246518696E+03  0.12500009574E+03 0.  0.
    9000005    1    3    3    0    0  0.52303536576E+02  0.33398917978E+02 -0.34675986221E+02  0.71095510975E+02  0.10000000000E+01 0.  0.
    9000005    1    3    3    0    0 -0.52303536576E+02 -0.33398917978E+02 -0.52620115065E+02  0.81369675985E+02  0.10000000000E+01 0.  0.
<mgrwt>
<rscale>  0 0.12500010E+03</rscale>
<asrwt>0</asrwt>
<pdfrwt beam="1">  1        4 0.50130067E-02 0.12500010E+03</pdfrwt>
<pdfrwt beam="2">  1       -4 0.18443176E-01 0.12500010E+03</pdfrwt>
<totfact> 0.98814338E+03</totfact>
</mgrwt>
</event>
<event>
 5    1  0.3330238E-002  0.1249996E+03  0.7818608E-02  0.1235070E+00
          4   -1    0    0  501    0  0.00000000000E+00  0.00000000000E+00  0.31693097007E+02  0.31718532404E+02  0.12700000000E+01 0.  1.
         -4   -1    0    0    0  501 -0.00000000000E+00 -0.00000000000E+00 -0.12317348042E+03  0.12318002752E+03  0.12700000000E+01 0.  1.
         25    2    1    2    0    0  0.00000000000E+00  0.00000000000E+00 -0.91480383415E+02  0.15489855992E+03  0.12499961326E+03 0.  0.
    9000005    1    3    3    0    0  0.16077083118E+02 -0.48637331586E+02 -0.90095023767E+02  0.10364446890E+03  0.10000000000E+01 0.  0.
    9000005    1    3    3    0    0 -0.16077083118E+02  0.48637331586E+02 -0.13853596480E+01  0.51254091025E+02  0.10000000000E+01 0.  0.
<mgrwt>
<rscale>  0 0.12499961E+03</rscale>
<asrwt>0</asrwt>
<pdfrwt beam="1">  1        4 0.48783213E-02 0.12499961E+03</pdfrwt>
<pdfrwt beam="2">  1       -4 0.18952226E-01 0.12499961E+03</pdfrwt>
<totfact> 0.98336272E+03</totfact>
</mgrwt>
</event>
<event>
 5    1  0.3330238E-002  0.1249934E+03  0.7818608E-02  0.1235080E+00
          4   -1    0    0  501    0  0.00000000000E+00  0.00000000000E+00  0.39722847046E+02  0.39743143779E+02  0.12700000000E+01 0. -1.
         -4   -1    0    0    0  501 -0.00000000000E+00 -0.00000000000E+00 -0.98277729813E+02  0.98285935297E+02  0.12700000000E+01 0. -1.
         25    2    1    2    0    0  0.00000000000E+00  0.00000000000E+00 -0.58554882767E+02  0.13802907908E+03  0.12499340932E+03 0.  0.
    9000005    1    3    3    0    0  0.31104254272E+02 -0.24247865809E+02 -0.82803143290E+02  0.91721285255E+02  0.10000000000E+01 0.  0.
    9000005    1    3    3    0    0 -0.31104254272E+02  0.24247865809E+02  0.24248260523E+02  0.46307793821E+02  0.10000000000E+01 0.  0.
<mgrwt>
<rscale>  0 0.12499341E+03</rscale>
<asrwt>0</asrwt>
<pdfrwt beam="1">  1        4 0.61133997E-02 0.12499341E+03</pdfrwt>
<pdfrwt beam="2">  1       -4 0.15121843E-01 0.12499341E+03</pdfrwt>
<totfact> 0.10176110E+04</totfact>
</mgrwt>
</event>
<event>
 5    1  0.3330238E-002  0.1249981E+03  0.7818608E-02  0.1235072E+00
          4   -1    0    0  501    0  0.00000000000E+00  0.00000000000E+00  0.16403631266E+03  0.16404122887E+03  0.12700000000E+01 0.  1.
         -4   -1    0    0    0  501 -0.00000000000E+00 -0.00000000000E+00 -0.23790392660E+02  0.23824266682E+02  0.12700000000E+01 0.  1.
         25    2    1    2    0    0  0.00000000000E+00  0.00000000000E+00  0.14024592000E+03  0.18786549555E+03  0.12499810536E+03 0.  0.
    9000005    1    3    3    0    0  0.13911324253E+02 -0.35196805604E+02 -0.46143295278E+01  0.38139639539E+02  0.10000000000E+01 0.  0.
    9000005    1    3    3    0    0 -0.13911324253E+02  0.35196805604E+02  0.14486024953E+03  0.14972585602E+03  0.10000000000E+01 0.  0.
<mgrwt>
<rscale>  0 0.12499811E+03</rscale>
<asrwt>0</asrwt>
<pdfrwt beam="1">  1        4 0.25239340E-01 0.12499811E+03</pdfrwt>
<pdfrwt beam="2">  1       -4 0.36630443E-02 0.12499811E+03</pdfrwt>
<totfact> 0.92223957E+03</totfact>
</mgrwt>
</event>
<event>
 5    1  0.3330238E-002  0.1249941E+03  0.7818608E-02  0.1235078E+00
         -4   -1    0    0    0  501 -0.00000000000E+00  0.00000000000E+00  0.62220749636E+03  0.62220879247E+03  0.12700000000E+01 0.  1.
          4   -1    0    0  501    0  0.00000000000E+00 -0.00000000000E+00 -0.62119117060E+01  0.63404059053E+01  0.12700000000E+01 0.  1.
         25    2    1    2    0    0  0.00000000000E+00  0.00000000000E+00  0.61599558465E+03  0.62854919837E+03  0.12499413772E+03 0.  0.
    9000005    1    3    3    0    0  0.31818441773E+01 -0.69511179939E+01 -0.38762249935E+01  0.86294434313E+01  0.10000000000E+01 0.  0.
    9000005    1    3    3    0    0 -0.31818441773E+01  0.69511179939E+01  0.61987180965E+03  0.61991975494E+03  0.10000000000E+01 0.  0.
<mgrwt>
<rscale>  0 0.12499414E+03</rscale>
<asrwt>0</asrwt>
<pdfrwt beam="2">  1        4 0.96566267E-03 0.12499414E+03</pdfrwt>
<pdfrwt beam="1">  1       -4 0.95734207E-01 0.12499414E+03</pdfrwt>
<totfact> 0.47119761E+03</totfact>
</mgrwt>
</event>
<event>
 5    1  0.3330238E-002  0.1249994E+03  0.7818608E-02  0.1235070E+00
         -4   -1    0    0    0  501 -0.00000000000E+00  0.00000000000E+00  0.22130602566E+02  0.22167013104E+02  0.12700000000E+01 0.  1.
          4   -1    0    0  501    0  0.00000000000E+00 -0.00000000000E+00 -0.17632363296E+03  0.17632820659E+03  0.12700000000E+01 0.  1.
         25    2    1    2    0    0  0.00000000000E+00  0.00000000000E+00 -0.15419303039E+03  0.19849521970E+03  0.12499944648E+03 0.  0.
    9000005    1    3    3    0    0 -0.57235126669E+02  0.76185929593E+01 -0.39140648762E+02  0.69763121125E+02  0.10000000000E+01 0.  0.
    9000005    1    3    3    0    0  0.57235126669E+02 -0.76185929593E+01 -0.11505238163E+03  0.12873209857E+03  0.10000000000E+01 0.  0.
<mgrwt>
<rscale>  0 0.12499945E+03</rscale>
<asrwt>0</asrwt>
<pdfrwt beam="2">  1        4 0.27129864E-01 0.12499945E+03</pdfrwt>
<pdfrwt beam="1">  1       -4 0.34078608E-02 0.12499945E+03</pdfrwt>
<totfact> 0.90390944E+03</totfact>
</mgrwt>
</event>
<event>
 5    1  0.3330238E-002  0.1250086E+03  0.7818608E-02  0.1235056E+00
         -4   -1    0    0    0  501 -0.00000000000E+00  0.00000000000E+00  0.13596797608E+02  0.13655980565E+02  0.12700000000E+01 0. -1.
          4   -1    0    0  501    0  0.00000000000E+00 -0.00000000000E+00 -0.28664690031E+03  0.28664971368E+03  0.12700000000E+01 0. -1.
         25    2    1    2    0    0  0.00000000000E+00  0.00000000000E+00 -0.27305010270E+03  0.30030569425E+03  0.12500860536E+03 0.  0.
    9000005    1    3    3    0    0  0.35316921116E+01 -0.61501483386E+02 -0.11122885337E+03  0.12715251916E+03  0.10000000000E+01 0.  0.
    9000005    1    3    3    0    0 -0.35316921116E+01  0.61501483386E+02 -0.16182124933E+03  0.17315317509E+03  0.10000000000E+01 0.  0.
<mgrwt>
<rscale>  0 0.12500861E+03</rscale>
<asrwt>0</asrwt>
<pdfrwt beam="2">  1        4 0.44104288E-01 0.12500861E+03</pdfrwt>
<pdfrwt beam="1">  1       -4 0.20965842E-02 0.12500861E+03</pdfrwt>
<totfact> 0.75546079E+03</totfact>
</mgrwt>
</event>
<event>
 5    1  0.3330238E-002  0.1249987E+03  0.7818608E-02  0.1235071E+00
          4   -1    0    0  501    0  0.00000000000E+00  0.00000000000E+00  0.56678539119E+01  0.58083963335E+01  0.12700000000E+01 0. -1.
         -4   -1    0    0    0  501 -0.00000000000E+00 -0.00000000000E+00 -0.68059871434E+03  0.68059989925E+03  0.12700000000E+01 0. -1.
         25    2    1    2    0    0  0.00000000000E+00  0.00000000000E+00 -0.67493086043E+03  0.68640829558E+03  0.12499872755E+03 0.  0.
    9000005    1    3    3    0    0 -0.15669993865E+02  0.58456064250E+02 -0.42298037925E+03  0.42728920111E+03  0.10000000000E+01 0.  0.
    9000005    1    3    3    0    0  0.15669993865E+02 -0.58456064250E+02 -0.25195048117E+03  0.25911909447E+03  0.10000000000E+01 0.  0.
<mgrwt>
<rscale>  0 0.12499873E+03</rscale>
<asrwt>0</asrwt>
<pdfrwt beam="1">  1        4 0.88288016E-03 0.12499873E+03</pdfrwt>
<pdfrwt beam="2">  1       -4 0.10471833E+00 0.12499873E+03</pdfrwt>
<totfact> 0.43815200E+03</totfact>
</mgrwt>
</event>
<event>
 5    1  0.3330238E-002  0.1250001E+03  0.7818608E-02  0.1235069E+00
          4   -1    0    0  501    0  0.00000000000E+00  0.00000000000E+00  0.41318335483E+02  0.41337848844E+02  0.12700000000E+01 0. -1.
         -4   -1    0    0    0  501 -0.00000000000E+00 -0.00000000000E+00 -0.94494329036E+02  0.94502863025E+02  0.12700000000E+01 0. -1.
         25    2    1    2    0    0  0.00000000000E+00  0.00000000000E+00 -0.53175993554E+02  0.13584071187E+03  0.12500005084E+03 0.  0.
    9000005    1    3    3    0    0  0.44450676443E+02 -0.13656685097E+02 -0.71956472348E+02  0.85680228740E+02  0.10000000000E+01 0.  0.
    9000005    1    3    3    0    0 -0.44450676443E+02  0.13656685097E+02  0.18780478795E+02  0.50160483130E+02  0.10000000000E+01 0.  0.
<mgrwt>
<rscale>  0 0.12500005E+03</rscale>
<asrwt>0</asrwt>
<pdfrwt beam="1">  1        4 0.63588245E-02 0.12500005E+03</pdfrwt>
<pdfrwt beam="2">  1       -4 0.14539746E-01 0.12500005E+03</pdfrwt>
<totfact> 0.10220369E+04</totfact>
</mgrwt>
</event>
<event>
 4    1  0.3330238E-002  0.1247697E+03  0.7818608E-02  0.1235430E+00
          4   -1    0    0  501    0  0.00000000000E+00  0.00000000000E+00  0.12467093505E+03  0.12467740352E+03  0.12700000000E+01 0.  1.
         -4   -1    0    0    0  501 -0.00000000000E+00 -0.00000000000E+00 -0.31196939458E+02  0.31222779049E+02  0.12700000000E+01 0.  1.
    9000005    1    1    2    0    0 -0.14857967469E+02  0.38685415929E+02  0.10499052312E+03  0.11287750240E+03  0.10000000000E+01 0.  0.
    9000005    1    1    2    0    0  0.14857967469E+02 -0.38685415929E+02 -0.11516527518E+02  0.43022680170E+02  0.10000000000E+01 0.  0.
<mgrwt>
<rscale>  0 0.12476970E+03</rscale>
<asrwt>0</asrwt>
<pdfrwt beam="1">  1        4 0.19182629E-01 0.12476970E+03</pdfrwt>
<pdfrwt beam="2">  1       -4 0.48020144E-02 0.12476970E+03</pdfrwt>
<totfact> 0.98649047E+03</totfact>
</mgrwt>
</event>
<event>
 5    1  0.3330238E-002  0.1250003E+03  0.7818608E-02  0.1235069E+00
         -4   -1    0    0    0  501 -0.00000000000E+00  0.00000000000E+00  0.25253181319E+02  0.25285095743E+02  0.12700000000E+01 0.  1.
          4   -1    0    0  501    0  0.00000000000E+00 -0.00000000000E+00 -0.15455209198E+03  0.15455730987E+03  0.12700000000E+01 0.  1.
         25    2    1    2    0    0  0.00000000000E+00  0.00000000000E+00 -0.12929891066E+03  0.17984240561E+03  0.12500033024E+03 0.  0.
    9000005    1    3    3    0    0  0.42318508028E+02  0.45700572250E+02 -0.57331365413E+02  0.84659812697E+02  0.10000000000E+01 0.  0.
    9000005    1    3    3    0    0 -0.42318508028E+02 -0.45700572250E+02 -0.71967545245E+02  0.95182592916E+02  0.10000000000E+01 0.  0.
<mgrwt>
<rscale>  0 0.12500033E+03</rscale>
<asrwt>0</asrwt>
<pdfrwt beam="2">  1        4 0.23780101E-01 0.12500033E+03</pdfrwt>
<pdfrwt beam="1">  1       -4 0.38879612E-02 0.12500033E+03</pdfrwt>
<totfact> 0.93644685E+03</totfact>
</mgrwt>
</event>
<event>
 5    1  0.3330238E-002  0.1250163E+03  0.7818608E-02  0.1235044E+00
         -4   -1    0    0    0  501 -0.00000000000E+00  0.00000000000E+00  0.54030468225E+02  0.54045392002E+02  0.12700000000E+01 0.  1.
          4   -1    0    0  501    0  0.00000000000E+00 -0.00000000000E+00 -0.72285483674E+02  0.72296639271E+02  0.12700000000E+01 0.  1.
         25    2    1    2    0    0  0.00000000000E+00  0.00000000000E+00 -0.18255015449E+02  0.12634203127E+03  0.12501625205E+03 0.  0.
    9000005    1    3    3    0    0  0.35911618609E+02  0.51057474610E+02 -0.12284051487E+02  0.63627101031E+02  0.10000000000E+01 0.  0.
    9000005    1    3    3    0    0 -0.35911618609E+02 -0.51057474610E+02 -0.59709639614E+01  0.62714930242E+02  0.10000000000E+01 0.  0.
<mgrwt>
<rscale>  0 0.12501625E+03</rscale>
<asrwt>0</asrwt>
<pdfrwt beam="2">  1        4 0.11122850E-01 0.12501625E+03</pdfrwt>
<pdfrwt beam="1">  1       -4 0.83143858E-02 0.12501625E+03</pdfrwt>
<totfact> 0.10419653E+04</totfact>
</mgrwt>
</event>
<event>
 5    1  0.3330238E-002  0.1249972E+03  0.7818608E-02  0.1235074E+00
         -4   -1    0    0    0  501 -0.00000000000E+00  0.00000000000E+00  0.36625532745E+03  0.36625752932E+03  0.12700000000E+01 0. -1.
          4   -1    0    0  501    0  0.00000000000E+00 -0.00000000000E+00 -0.10624852102E+02  0.10700485138E+02  0.12700000000E+01 0. -1.
         25    2    1    2    0    0  0.00000000000E+00  0.00000000000E+00  0.35563047535E+03  0.37695801446E+03  0.12499723865E+03 0.  0.
    9000005    1    3    3    0    0  0.36643489388E+02  0.50265472268E+02  0.19583770490E+03  0.20548179889E+03  0.10000000000E+01 0.  0.
    9000005    1    3    3    0    0 -0.36643489388E+02 -0.50265472268E+02  0.15979277045E+03  0.17147621557E+03  0.10000000000E+01 0.  0.
<mgrwt>
<rscale>  0 0.12499724E+03</rscale>
<asrwt>0</asrwt>
<pdfrwt beam="2">  1        4 0.16405799E-02 0.12499724E+03</pdfrwt>
<pdfrwt beam="1">  1       -4 0.56352963E-01 0.12499724E+03</pdfrwt>
<totfact> 0.66861304E+03</totfact>
</mgrwt>
</event>
<event>
 5    1  0.3330238E-002  0.1250029E+03  0.7818608E-02  0.1235065E+00
         -4   -1    0    0    0  501 -0.00000000000E+00  0.00000000000E+00  0.70098930903E+01  0.71240087828E+01  0.12700000000E+01 0. -1.
          4   -1    0    0  501    0  0.00000000000E+00 -0.00000000000E+00 -0.55265960749E+03  0.55266106671E+03  0.12700000000E+01 0. -1.
         25    2    1    2    0    0  0.00000000000E+00  0.00000000000E+00 -0.54564971440E+03  0.55978507549E+03  0.12500287962E+03 0.  0.
    9000005    1    3    3    0    0 -0.13961318336E+02  0.45008426287E+02 -0.89014730687E+02  0.10072387565E+03  0.10000000000E+01 0.  0.
    9000005    1    3    3    0    0  0.13961318336E+02 -0.45008426287E+02 -0.45663498372E+03  0.45906119984E+03  0.10000000000E+01 0.  0.
<mgrwt>
<rscale>  0 0.12500288E+03</rscale>
<asrwt>0</asrwt>
<pdfrwt beam="2">  1        4 0.85033411E-01 0.12500288E+03</pdfrwt>
<pdfrwt beam="1">  1       -4 0.10873359E-02 0.12500288E+03</pdfrwt>
<totfact> 0.51505400E+03</totfact>
</mgrwt>
</event>
<event>
 5    1  0.3330238E-002  0.1250002E+03  0.7818608E-02  0.1235069E+00
          4   -1    0    0  501    0  0.00000000000E+00  0.00000000000E+00  0.39146806232E+02  0.39167401473E+02  0.12700000000E+01 0. -1.
         -4   -1    0    0    0  501 -0.00000000000E+00 -0.00000000000E+00 -0.99734073576E+02  0.99742159251E+02  0.12700000000E+01 0. -1.
         25    2    1    2    0    0  0.00000000000E+00  0.00000000000E+00 -0.60587267344E+02  0.13890956072E+03  0.12500019638E+03 0.  0.
    9000005    1    3    3    0    0  0.17479837361E+01  0.25275600427E+02 -0.93776032140E+02  0.97143479596E+02  0.10000000000E+01 0.  0.
    9000005    1    3    3    0    0 -0.17479837361E+01 -0.25275600427E+02  0.33188764796E+02  0.41766081128E+02  0.10000000000E+01 0.  0.
<mgrwt>
<rscale>  0 0.12500020E+03</rscale>
<asrwt>0</asrwt>
<pdfrwt beam="1">  1        4 0.60247918E-02 0.12500020E+03</pdfrwt>
<pdfrwt beam="2">  1       -4 0.15345910E-01 0.12500020E+03</pdfrwt>
<totfact> 0.10156191E+04</totfact>
</mgrwt>
</event>
<event>
 5    1  0.3330238E-002  0.1249988E+03  0.7818608E-02  0.1235071E+00
          4   -1    0    0  501    0  0.00000000000E+00  0.00000000000E+00  0.14817267428E+04  0.14817272871E+04  0.12700000000E+01 0. -1.
         -4   -1    0    0    0  501 -0.00000000000E+00 -0.00000000000E+00 -0.24827007325E+01  0.27886740446E+01  0.12700000000E+01 0. -1.
         25    2    1    2    0    0  0.00000000000E+00  0.00000000000E+00  0.14792440421E+04  0.14845159611E+04  0.12499881117E+03 0.  0.
    9000005    1    3    3    0    0 -0.54199317274E+02 -0.22344935594E+02  0.48261359934E+03  0.48616226551E+03  0.10000000000E+01 0.  0.
    9000005    1    3    3    0    0  0.54199317274E+02  0.22344935594E+02  0.99663044277E+03  0.99835369564E+03  0.10000000000E+01 0.  0.
<mgrwt>
<rscale>  0 0.12499881E+03</rscale>
<asrwt>0</asrwt>
<pdfrwt beam="1">  1        4 0.22798215E+00 0.12499881E+03</pdfrwt>
<pdfrwt beam="2">  1       -4 0.40553116E-03 0.12499881E+03</pdfrwt>
<totfact> 0.18237064E+03</totfact>
</mgrwt>
</event>
<event>
 5    1  0.3330238E-002  0.1249996E+03  0.7818608E-02  0.1235070E+00
          4   -1    0    0  501    0  0.00000000000E+00  0.00000000000E+00  0.30496134980E+02  0.30522567860E+02  0.12700000000E+01 0. -1.
         -4   -1    0    0    0  501 -0.00000000000E+00 -0.00000000000E+00 -0.12800414595E+03  0.12801044598E+03  0.12700000000E+01 0. -1.
         25    2    1    2    0    0  0.00000000000E+00  0.00000000000E+00 -0.97508010969E+02  0.15853301384E+03  0.12499961710E+03 0.  0.
    9000005    1    3    3    0    0 -0.31678598794E+02 -0.42425148127E+02 -0.66559273141E+01  0.53373478279E+02  0.10000000000E+01 0.  0.
    9000005    1    3    3    0    0  0.31678598794E+02  0.42425148127E+02 -0.90852083655E+02  0.10515953556E+03  0.10000000000E+01 0.  0.
<mgrwt>
<rscale>  0 0.12499962E+03</rscale>
<asrwt>0</asrwt>
<pdfrwt beam="1">  1        4 0.46942311E-02 0.12499962E+03</pdfrwt>
<pdfrwt beam="2">  1       -4 0.19695463E-01 0.12499962E+03</pdfrwt>
<totfact> 0.97627196E+03</totfact>
</mgrwt>
</event>
<event>
 5    1  0.3330238E-002  0.1249984E+03  0.7818608E-02  0.1235072E+00
         -4   -1    0    0    0  501 -0.00000000000E+00  0.00000000000E+00  0.54433967002E+02  0.54448780184E+02  0.12700000000E+01 0. -1.
          4   -1    0    0  501    0  0.00000000000E+00 -0.00000000000E+00 -0.71729219009E+02  0.71740461106E+02  0.12700000000E+01 0. -1.
         25    2    1    2    0    0  0.00000000000E+00  0.00000000000E+00 -0.17295252008E+02  0.12618924129E+03  0.12499839549E+03 0.  0.
    9000005    1    3    3    0    0  0.32408884907E+02 -0.53196793663E+02 -0.13686676400E+02  0.63785263093E+02  0.10000000000E+01 0.  0.
    9000005    1    3    3    0    0 -0.32408884907E+02  0.53196793663E+02 -0.36085756071E+01  0.62403978197E+02  0.10000000000E+01 0.  0.
<mgrwt>
<rscale>  0 0.12499840E+03</rscale>
<asrwt>0</asrwt>
<pdfrwt beam="2">  1        4 0.11037269E-01 0.12499840E+03</pdfrwt>
<pdfrwt beam="1">  1       -4 0.83764607E-02 0.12499840E+03</pdfrwt>
<totfact> 0.10427192E+04</totfact>
</mgrwt>
</event>
<event>
 5    1  0.3330238E-002  0.1249987E+03  0.7818608E-02  0.1235071E+00
          4   -1    0    0  501    0  0.00000000000E+00  0.00000000000E+00  0.32470244097E+01  0.34865552508E+01  0.12700000000E+01 0. -1.
         -4   -1    0    0    0  501 -0.00000000000E+00 -0.00000000000E+00 -0.11599649158E+04  0.11599656110E+04  0.12700000000E+01 0. -1.
         25    2    1    2    0    0  0.00000000000E+00  0.00000000000E+00 -0.11567178914E+04  0.11634521663E+04  0.12499865190E+03 0.  0.
    9000005    1    3    3    0    0  0.34206313942E+02 -0.34577145602E+02 -0.94356262322E+03  0.94481589468E+03  0.10000000000E+01 0.  0.
    9000005    1    3    3    0    0 -0.34206313942E+02  0.34577145602E+02 -0.21315526819E+03  0.21863627162E+03  0.10000000000E+01 0.  0.
<mgrwt>
<rscale>  0 0.12499865E+03</rscale>
<asrwt>0</asrwt>
<pdfrwt beam="1">  1        4 0.51802207E-03 0.12499865E+03</pdfrwt>
<pdfrwt beam="2">  1       -4 0.17847430E+00 0.12499865E+03</pdfrwt>
<totfact> 0.25690732E+03</totfact>
</mgrwt>
</event>
<event>
 5    1  0.3330238E-002  0.1249939E+03  0.7818608E-02  0.1235079E+00
          4   -1    0    0  501    0  0.00000000000E+00  0.00000000000E+00  0.52766406982E+01  0.54273231945E+01  0.12700000000E+01 0. -1.
         -4   -1    0    0    0  501 -0.00000000000E+00 -0.00000000000E+00 -0.72964693165E+03  0.72964803691E+03  0.12700000000E+01 0. -1.
         25    2    1    2    0    0  0.00000000000E+00  0.00000000000E+00 -0.72437029095E+03  0.73507536011E+03  0.12499386633E+03 0.  0.
    9000005    1    3    3    0    0 -0.46418458832E+02  0.40735639360E+02 -0.30614638407E+03  0.31231502384E+03  0.10000000000E+01 0.  0.
    9000005    1    3    3    0    0  0.46418458832E+02 -0.40735639360E+02 -0.41822390688E+03  0.42276033627E+03  0.10000000000E+01 0.  0.
<mgrwt>
<rscale>  0 0.12499387E+03</rscale>
<asrwt>0</asrwt>
<pdfrwt beam="1">  1        4 0.82346743E-03 0.12499387E+03</pdfrwt>
<pdfrwt beam="2">  1       -4 0.11226497E+00 0.12499387E+03</pdfrwt>
<totfact> 0.41303923E+03</totfact>
</mgrwt>
</event>
<event>
 5    1  0.3330238E-002  0.1249652E+03  0.7818608E-02  0.1235124E+00
          4   -1    0    0  501    0  0.00000000000E+00  0.00000000000E+00  0.62413670834E+02  0.62426590544E+02  0.12700000000E+01 0. -1.
         -4   -1    0    0    0  501 -0.00000000000E+00 -0.00000000000E+00 -0.62525779103E+02  0.62538675653E+02  0.12700000000E+01 0. -1.
         25    2    1    2    0    0  0.00000000000E+00  0.00000000000E+00 -0.11210826960E+00  0.12496526620E+03  0.12496521591E+03 0.  0.
    9000005    1    3    3    0    0 -0.81941590243E+01  0.75888786062E+00  0.61874223038E+02  0.62427074491E+02  0.10000000000E+01 0.  0.
    9000005    1    3    3    0    0  0.81941590243E+01 -0.75888786062E+00 -0.61986331308E+02  0.62538191706E+02  0.10000000000E+01 0.  0.
<mgrwt>
<rscale>  0 0.12496522E+03</rscale>
<asrwt>0</asrwt>
<pdfrwt beam="1">  1        4 0.96040892E-02 0.12496522E+03</pdfrwt>
<pdfrwt beam="2">  1       -4 0.96213364E-02 0.12496522E+03</pdfrwt>
<totfact> 0.10461839E+04</totfact>
</mgrwt>
</event>
<event>
 5    1  0.3330238E-002  0.1249996E+03  0.7818608E-02  0.1235070E+00
         -4   -1    0    0    0  501 -0.00000000000E+00  0.00000000000E+00  0.49661576531E+02  0.49677812789E+02  0.12700000000E+01 0. -1.
          4   -1    0    0  501    0  0.00000000000E+00 -0.00000000000E+00 -0.78622637057E+02  0.78632893612E+02  0.12700000000E+01 0. -1.
         25    2    1    2    0    0  0.00000000000E+00  0.00000000000E+00 -0.28961060526E+02  0.12831070640E+03  0.12499957740E+03 0.  0.
    9000005    1    3    3    0    0  0.19119129798E+02  0.22869160220E+02  0.41898715196E+02  0.51429971306E+02  0.10000000000E+01 0.  0.
    9000005    1    3    3    0    0 -0.19119129798E+02 -0.22869160220E+02 -0.70859775722E+02  0.76880735095E+02  0.10000000000E+01 0.  0.
<mgrwt>
<rscale>  0 0.12499958E+03</rscale>
<asrwt>0</asrwt>
<pdfrwt beam="2">  1        4 0.12097828E-01 0.12499958E+03</pdfrwt>
<pdfrwt beam="1">  1       -4 0.76422805E-02 0.12499958E+03</pdfrwt>
<totfact> 0.10380882E+04</totfact>
</mgrwt>
</event>
<event>
 5    1  0.3330238E-002  0.1250156E+03  0.7818608E-02  0.1235045E+00
          4   -1    0    0  501    0  0.00000000000E+00  0.00000000000E+00  0.31015081316E+02  0.31041072292E+02  0.12700000000E+01 0.  1.
         -4   -1    0    0    0  501 -0.00000000000E+00 -0.00000000000E+00 -0.12589627336E+03  0.12590267887E+03  0.12700000000E+01 0.  1.
         25    2    1    2    0    0  0.00000000000E+00  0.00000000000E+00 -0.94881192046E+02  0.15694375116E+03  0.12501560072E+03 0.  0.
    9000005    1    3    3    0    0 -0.52994203750E+02  0.33115173646E+02 -0.48829919665E+02  0.79311798689E+02  0.10000000000E+01 0.  0.
    9000005    1    3    3    0    0  0.52994203750E+02 -0.33115173646E+02 -0.46051272381E+02  0.77631952472E+02  0.10000000000E+01 0.  0.
<mgrwt>
<rscale>  0 0.12501560E+03</rscale>
<asrwt>0</asrwt>
<pdfrwt beam="1">  1        4 0.47740431E-02 0.12501560E+03</pdfrwt>
<pdfrwt beam="2">  1       -4 0.19371149E-01 0.12501560E+03</pdfrwt>
<totfact> 0.97900916E+03</totfact>
</mgrwt>
</event>
<event>
 5    1  0.3330238E-002  0.1250009E+03  0.7818608E-02  0.1235068E+00
          4   -1    0    0  501    0  0.00000000000E+00  0.00000000000E+00  0.56525031416E+02  0.56539296746E+02  0.12700000000E+01 0. -1.
         -4   -1    0    0    0  501 -0.00000000000E+00 -0.00000000000E+00 -0.69078692942E+02  0.69090366323E+02  0.12700000000E+01 0. -1.
         25    2    1    2    0    0  0.00000000000E+00  0.00000000000E+00 -0.12553661527E+02  0.12562966307E+03  0.12500087130E+03 0.  0.
    9000005    1    3    3    0    0  0.28718632332E+02 -0.23693524011E+02  0.44166895803E+02  0.57774195000E+02  0.10000000000E+01 0.  0.
    9000005    1    3    3    0    0 -0.28718632332E+02  0.23693524011E+02 -0.56720557329E+02  0.67855468069E+02  0.10000000000E+01 0.  0.
<mgrwt>
<rscale>  0 0.12500087E+03</rscale>
<asrwt>0</asrwt>
<pdfrwt beam="1">  1        4 0.86981540E-02 0.12500087E+03</pdfrwt>
<pdfrwt beam="2">  1       -4 0.10629487E-01 0.12500087E+03</pdfrwt>
<totfact> 0.10438888E+04</totfact>
</mgrwt>
</event>
<event>
 5    1  0.3330238E-002  0.1249963E+03  0.7818608E-02  0.1235075E+00
          4   -1    0    0  501    0  0.00000000000E+00  0.00000000000E+00  0.43932287572E+02  0.43950640397E+02  0.12700000000E+01 0. -1.
         -4   -1    0    0    0  501 -0.00000000000E+00 -0.00000000000E+00 -0.88868589386E+02  0.88877663558E+02  0.12700000000E+01 0. -1.
         25    2    1    2    0    0  0.00000000000E+00  0.00000000000E+00 -0.44936301814E+02  0.13282830396E+03  0.12499634839E+03 0.  0.
    9000005    1    3    3    0    0  0.43746059169E+02  0.31420759175E+02  0.11203840677E+02  0.55022793875E+02  0.10000000000E+01 0.  0.
    9000005    1    3    3    0    0 -0.43746059169E+02 -0.31420759175E+02 -0.56140142491E+02  0.77805510080E+02  0.10000000000E+01 0.  0.
<mgrwt>
<rscale>  0 0.12499635E+03</rscale>
<asrwt>0</asrwt>
<pdfrwt beam="1">  1        4 0.67609232E-02 0.12499635E+03</pdfrwt>
<pdfrwt beam="2">  1       -4 0.13674200E-01 0.12499635E+03</pdfrwt>
<totfact> 0.10284898E+04</totfact>
</mgrwt>
</event>
<event>
 5    1  0.3330238E-002  0.1249940E+03  0.7818608E-02  0.1235079E+00
         -4   -1    0    0    0  501 -0.00000000000E+00  0.00000000000E+00  0.15849451247E+03  0.15849960058E+03  0.12700000000E+01 0. -1.
          4   -1    0    0  501    0  0.00000000000E+00 -0.00000000000E+00 -0.24621753138E+02  0.24654484939E+02  0.12700000000E+01 0. -1.
         25    2    1    2    0    0  0.00000000000E+00  0.00000000000E+00  0.13387275933E+03  0.18315408552E+03  0.12499401326E+03 0.  0.
    9000005    1    3    3    0    0 -0.19932316909E+02 -0.27678307248E+02 -0.97857628706E+01  0.35498550737E+02  0.10000000000E+01 0.  0.
    9000005    1    3    3    0    0  0.19932316909E+02  0.27678307248E+02  0.14365852220E+03  0.14765553478E+03  0.10000000000E+01 0.  0.
<mgrwt>
<rscale>  0 0.12499401E+03</rscale>
<asrwt>0</asrwt>
<pdfrwt beam="2">  1        4 0.37908714E-02 0.12499401E+03</pdfrwt>
<pdfrwt beam="1">  1       -4 0.24386680E-01 0.12499401E+03</pdfrwt>
<totfact> 0.93064807E+03</totfact>
</mgrwt>
</event>
<event>
 5    1  0.3330238E-002  0.1249831E+03  0.7818608E-02  0.1235096E+00
         -4   -1    0    0    0  501 -0.00000000000E+00  0.00000000000E+00  0.16671389654E+03  0.16671873380E+03  0.12700000000E+01 0.  1.
          4   -1    0    0  501    0  0.00000000000E+00 -0.00000000000E+00 -0.23402144721E+02  0.23436579903E+02  0.12700000000E+01 0.  1.
         25    2    1    2    0    0  0.00000000000E+00  0.00000000000E+00  0.14331175182E+03  0.19015531370E+03  0.12498313934E+03 0.  0.
    9000005    1    3    3    0    0 -0.37975692182E+02  0.43937830921E+02  0.10673209680E+03  0.12151307201E+03  0.10000000000E+01 0.  0.
    9000005    1    3    3    0    0  0.37975692182E+02 -0.43937830921E+02  0.36579655018E+02  0.68642241688E+02  0.10000000000E+01 0.  0.
<mgrwt>
<rscale>  0 0.12498314E+03</rscale>
<asrwt>0</asrwt>
<pdfrwt beam="2">  1        4 0.36033509E-02 0.12498314E+03</pdfrwt>
<pdfrwt beam="1">  1       -4 0.25651312E-01 0.12498314E+03</pdfrwt>
<totfact> 0.91854984E+03</totfact>
</mgrwt>
</event>
<event>
 5    1  0.3330238E-002  0.1249756E+03  0.7818608E-02  0.1235107E+00
          4   -1    0    0  501    0  0.00000000000E+00  0.00000000000E+00  0.53971212437E+02  0.53986152594E+02  0.12700000000E+01 0. -1.
         -4   -1    0    0    0  501 -0.00000000000E+00 -0.00000000000E+00 -0.72317749927E+02  0.72328900548E+02  0.12700000000E+01 0. -1.
         25    2    1    2    0    0  0.00000000000E+00  0.00000000000E+00 -0.18346537490E+02  0.12631505314E+03  0.12497558647E+03 0.  0.
    9000005    1    3    3    0    0  0.61609323023E+02  0.39588052600E+01  0.53927629555E+00  0.61746835072E+02  0.10000000000E+01 0.  0.
    9000005    1    3    3    0    0 -0.61609323023E+02 -0.39588052600E+01 -0.18885813786E+02  0.64568218070E+02  0.10000000000E+01 0.  0.
<mgrwt>
<rscale>  0 0.12497559E+03</rscale>
<asrwt>0</asrwt>
<pdfrwt beam="1">  1        4 0.83052705E-02 0.12497559E+03</pdfrwt>
<pdfrwt beam="2">  1       -4 0.11127815E-01 0.12497559E+03</pdfrwt>
<totfact> 0.10429810E+04</totfact>
</mgrwt>
</event>
<event>
 5    1  0.3330238E-002  0.1250063E+03  0.7818608E-02  0.1235059E+00
         -4   -1    0    0    0  501 -0.00000000000E+00  0.00000000000E+00  0.37557460075E+03  0.37557674799E+03  0.12700000000E+01 0. -1.
          4   -1    0    0  501    0  0.00000000000E+00 -0.00000000000E+00 -0.10360825536E+02  0.10438371797E+02  0.12700000000E+01 0. -1.
         25    2    1    2    0    0  0.00000000000E+00  0.00000000000E+00  0.36521377521E+03  0.38601511978E+03  0.12500628423E+03 0.  0.
    9000005    1    3    3    0    0 -0.11915046548E+02  0.53121418774E+02  0.87841586388E+02  0.10334891275E+03  0.10000000000E+01 0.  0.
    9000005    1    3    3    0    0  0.11915046548E+02 -0.53121418774E+02  0.27737218883E+03  0.28266620704E+03  0.10000000000E+01 0.  0.
<mgrwt>
<rscale>  0 0.12500628E+03</rscale>
<asrwt>0</asrwt>
<pdfrwt beam="2">  1        4 0.16001038E-02 0.12500628E+03</pdfrwt>
<pdfrwt beam="1">  1       -4 0.57786824E-01 0.12500628E+03</pdfrwt>
<totfact> 0.65926908E+03</totfact>
</mgrwt>
</event>
<event>
 5    1  0.3330238E-002  0.1250000E+03  0.7818608E-02  0.1235069E+00
         -4   -1    0    0    0  501 -0.00000000000E+00  0.00000000000E+00  0.29221674395E+02  0.29249259041E+02  0.12700000000E+01 0. -1.
          4   -1    0    0  501    0  0.00000000000E+00 -0.00000000000E+00 -0.13358274470E+03  0.13358878165E+03  0.12700000000E+01 0. -1.
         25    2    1    2    0    0  0.00000000000E+00  0.00000000000E+00 -0.10436107031E+03  0.16283804069E+03  0.12499997800E+03 0.  0.
    9000005    1    3    3    0    0 -0.56502134225E+02 -0.26683155743E+02 -0.51039903943E+02  0.80688002620E+02  0.10000000000E+01 0.  0.
    9000005    1    3    3    0    0  0.56502134225E+02  0.26683155743E+02 -0.53321166363E+02  0.82150038068E+02  0.10000000000E+01 0.  0.
<mgrwt>
<rscale>  0 0.12499998E+03</rscale>
<asrwt>0</asrwt>
<pdfrwt beam="2">  1        4 0.20553777E-01 0.12499998E+03</pdfrwt>
<pdfrwt beam="1">  1       -4 0.44982286E-02 0.12499998E+03</pdfrwt>
<totfact> 0.96798455E+03</totfact>
</mgrwt>
</event>
<event>
 5    1  0.3330238E-002  0.1250006E+03  0.7818608E-02  0.1235068E+00
         -4   -1    0    0    0  501 -0.00000000000E+00  0.00000000000E+00  0.33215617093E+01  0.35560753913E+01  0.12700000000E+01 0. -1.
          4   -1    0    0  501    0  0.00000000000E+00 -0.00000000000E+00 -0.11357036407E+04  0.11357043508E+04  0.12700000000E+01 0. -1.
         25    2    1    2    0    0  0.00000000000E+00  0.00000000000E+00 -0.11323820790E+04  0.11392604262E+04  0.12500058336E+03 0.  0.
    9000005    1    3    3    0    0  0.93799358847E+01 -0.51947343694E+02 -0.87103857435E+03  0.87263721427E+03  0.10000000000E+01 0.  0.
    9000005    1    3    3    0    0 -0.93799358847E+01  0.51947343694E+02 -0.26134350466E+03  0.26662321194E+03  0.10000000000E+01 0.  0.
<mgrwt>
<rscale>  0 0.12500058E+03</rscale>
<asrwt>0</asrwt>
<pdfrwt beam="2">  1        4 0.17474143E+00 0.12500058E+03</pdfrwt>
<pdfrwt beam="1">  1       -4 0.52910454E-03 0.12500058E+03</pdfrwt>
<totfact> 0.26359823E+03</totfact>
</mgrwt>
</event>
<event>
 5    1  0.3330238E-002  0.1250011E+03  0.7818608E-02  0.1235068E+00
         -4   -1    0    0    0  501 -0.00000000000E+00  0.00000000000E+00  0.25411097468E+03  0.25411414828E+03  0.12700000000E+01 0. -1.
          4   -1    0    0  501    0  0.00000000000E+00 -0.00000000000E+00 -0.15342978551E+02  0.15395450329E+02  0.12700000000E+01 0. -1.
         25    2    1    2    0    0  0.00000000000E+00  0.00000000000E+00  0.23876799613E+03  0.26950959860E+03  0.12500107105E+03 0.  0.
    9000005    1    3    3    0    0  0.43746839102E+02 -0.41906828356E+02  0.86307734198E+02  0.10545137826E+03  0.10000000000E+01 0.  0.
    9000005    1    3    3    0    0 -0.43746839102E+02  0.41906828356E+02  0.15246026193E+03  0.16405822035E+03  0.10000000000E+01 0.  0.
<mgrwt>
<rscale>  0 0.12500107E+03</rscale>
<asrwt>0</asrwt>
<pdfrwt beam="2">  1        4 0.23647387E-02 0.12500107E+03</pdfrwt>
<pdfrwt beam="1">  1       -4 0.39098275E-01 0.12500107E+03</pdfrwt>
<totfact> 0.79587876E+03</totfact>
</mgrwt>
</event>
<event>
 5    1  0.3330238E-002  0.1250010E+03  0.7818608E-02  0.1235068E+00
         -4   -1    0    0    0  501 -0.00000000000E+00  0.00000000000E+00  0.68554449454E+02  0.68566212087E+02  0.12700000000E+01 0.  1.
          4   -1    0    0  501    0  0.00000000000E+00 -0.00000000000E+00 -0.56957428797E+02  0.56971585858E+02  0.12700000000E+01 0.  1.
         25    2    1    2    0    0  0.00000000000E+00  0.00000000000E+00  0.11597020658E+02  0.12553779794E+03  0.12500099129E+03 0.  0.
    9000005    1    3    3    0    0  0.31940115002E+02  0.48642979864E+02  0.28677948944E+02  0.64882472148E+02  0.10000000000E+01 0.  0.
    9000005    1    3    3    0    0 -0.31940115002E+02 -0.48642979864E+02 -0.17080928286E+02  0.60655325797E+02  0.10000000000E+01 0.  0.
<mgrwt>
<rscale>  0 0.12500099E+03</rscale>
<asrwt>0</asrwt>
<pdfrwt beam="2">  1        4 0.87646751E-02 0.12500099E+03</pdfrwt>
<pdfrwt beam="1">  1       -4 0.10548832E-01 0.12500099E+03</pdfrwt>
<totfact> 0.10440886E+04</totfact>
</mgrwt>
</event>
<event>
 5    1  0.3330238E-002  0.1249975E+03  0.7818608E-02  0.1235073E+00
         -4   -1    0    0    0  501 -0.00000000000E+00  0.00000000000E+00  0.61625710205E+03  0.61625841068E+03  0.12700000000E+01 0.  1.
          4   -1    0    0  501    0  0.00000000000E+00 -0.00000000000E+00 -0.62734745010E+01  0.64007329514E+01  0.12700000000E+01 0.  1.
         25    2    1    2    0    0  0.00000000000E+00  0.00000000000E+00  0.60998362755E+03  0.62265914363E+03  0.12499753303E+03 0.  0.
    9000005    1    3    3    0    0 -0.25951163291E+02 -0.51846230468E+02  0.18884984548E+03  0.19755191375E+03  0.10000000000E+01 0.  0.
    9000005    1    3    3    0    0  0.25951163291E+02  0.51846230468E+02  0.42113378207E+03  0.42510722988E+03  0.10000000000E+01 0.  0.
<mgrwt>
<rscale>  0 0.12499753E+03</rscale>
<asrwt>0</asrwt>
<pdfrwt beam="2">  1        4 0.97503948E-03 0.12499753E+03</pdfrwt>
<pdfrwt beam="1">  1       -4 0.94818696E-01 0.12499753E+03</pdfrwt>
<totfact> 0.47470399E+03</totfact>
</mgrwt>
</event>
<event>
 5    1  0.3330238E-002  0.1249994E+03  0.7818608E-02  0.1235070E+00
         -4   -1    0    0    0  501 -0.00000000000E+00  0.00000000000E+00  0.10259587607E+03  0.10260373622E+03  0.12700000000E+01 0.  1.
          4   -1    0    0  501    0  0.00000000000E+00 -0.00000000000E+00 -0.38053861762E+02  0.38075048194E+02  0.12700000000E+01 0.  1.
         25    2    1    2    0    0  0.00000000000E+00  0.00000000000E+00  0.64542014306E+02  0.14067878441E+03  0.12499939509E+03 0.  0.
    9000005    1    3    3    0    0  0.36914163370E+02 -0.24711045747E+02  0.81737984306E+02  0.93034344828E+02  0.10000000000E+01 0.  0.
    9000005    1    3    3    0    0 -0.36914163370E+02  0.24711045747E+02 -0.17195969999E+02  0.47644439586E+02  0.10000000000E+01 0.  0.
<mgrwt>
<rscale>  0 0.12499940E+03</rscale>
<asrwt>0</asrwt>
<pdfrwt beam="2">  1        4 0.58566747E-02 0.12499940E+03</pdfrwt>
<pdfrwt beam="1">  1       -4 0.15786215E-01 0.12499940E+03</pdfrwt>
<totfact> 0.10119675E+04</totfact>
</mgrwt>
</event>
<event>
 5    1  0.3330238E-002  0.1250014E+03  0.7818608E-02  0.1235067E+00
         -4   -1    0    0    0  501 -0.00000000000E+00  0.00000000000E+00  0.49995039588E+01  0.51582884598E+01  0.12700000000E+01 0.  1.
          4   -1    0    0  501    0  0.00000000000E+00 -0.00000000000E+00 -0.76897245156E+03  0.76897350029E+03  0.12700000000E+01 0.  1.
         25    2    1    2    0    0  0.00000000000E+00  0.00000000000E+00 -0.76397294760E+03  0.77413178875E+03  0.12500144678E+03 0.  0.
    9000005    1    3    3    0    0 -0.23222520692E+02 -0.56500480917E+02 -0.30035398551E+03  0.30650465971E+03  0.10000000000E+01 0.  0.
    9000005    1    3    3    0    0  0.23222520692E+02  0.56500480917E+02 -0.46361896209E+03  0.46762712904E+03  0.10000000000E+01 0.  0.
<mgrwt>
<rscale>  0 0.12500145E+03</rscale>
<asrwt>0</asrwt>
<pdfrwt beam="2">  1        4 0.11831566E+00 0.12500145E+03</pdfrwt>
<pdfrwt beam="1">  1       -4 0.78144993E-03 0.12500145E+03</pdfrwt>
<totfact> 0.39444399E+03</totfact>
</mgrwt>
</event>
<event>
 5    1  0.3330238E-002  0.1250033E+03  0.7818608E-02  0.1235064E+00
         -4   -1    0    0    0  501 -0.00000000000E+00  0.00000000000E+00  0.32233857679E+02  0.32258866701E+02  0.12700000000E+01 0. -1.
          4   -1    0    0  501    0  0.00000000000E+00 -0.00000000000E+00 -0.12111576771E+03  0.12112242603E+03  0.12700000000E+01 0. -1.
         25    2    1    2    0    0  0.00000000000E+00  0.00000000000E+00 -0.88881910031E+02  0.15338129273E+03  0.12500330808E+03 0.  0.
    9000005    1    3    3    0    0 -0.40976069995E+02  0.57369339728E+01 -0.10190819033E+03  0.10999195416E+03  0.10000000000E+01 0.  0.
    9000005    1    3    3    0    0  0.40976069995E+02 -0.57369339728E+01  0.13026280297E+02  0.43389338575E+02  0.10000000000E+01 0.  0.
<mgrwt>
<rscale>  0 0.12500331E+03</rscale>
<asrwt>0</asrwt>
<pdfrwt beam="2">  1        4 0.18635631E-01 0.12500331E+03</pdfrwt>
<pdfrwt beam="1">  1       -4 0.49614910E-02 0.12500331E+03</pdfrwt>
<totfact> 0.98626568E+03</totfact>
</mgrwt>
</event>
<event>
 5    1  0.3330238E-002  0.1250021E+03  0.7818608E-02  0.1235066E+00
          4   -1    0    0  501    0  0.00000000000E+00  0.00000000000E+00  0.95757926919E+02  0.95766348306E+02  0.12700000000E+01 0.  1.
         -4   -1    0    0    0  501 -0.00000000000E+00 -0.00000000000E+00 -0.40774263698E+02  0.40794037310E+02  0.12700000000E+01 0.  1.
         25    2    1    2    0    0  0.00000000000E+00  0.00000000000E+00  0.54983663221E+02  0.13656038562E+03  0.12500214278E+03 0.  0.
    9000005    1    3    3    0    0 -0.44521956997E+02  0.38143707607E+02  0.38522347112E+01  0.58762120428E+02  0.10000000000E+01 0.  0.
    9000005    1    3    3    0    0  0.44521956997E+02 -0.38143707607E+02  0.51131428510E+02  0.77798265189E+02  0.10000000000E+01 0.  0.
<mgrwt>
<rscale>  0 0.12500214E+03</rscale>
<asrwt>0</asrwt>
<pdfrwt beam="1">  1        4 0.14734157E-01 0.12500214E+03</pdfrwt>
<pdfrwt beam="2">  1       -4 0.62751326E-02 0.12500214E+03</pdfrwt>
<totfact> 0.10204793E+04</totfact>
</mgrwt>
</event>
<event>
 5    1  0.3330238E-002  0.1249987E+03  0.7818608E-02  0.1235071E+00
         -4   -1    0    0    0  501 -0.00000000000E+00  0.00000000000E+00  0.16520623861E+03  0.16521112002E+03  0.12700000000E+01 0.  1.
          4   -1    0    0  501    0  0.00000000000E+00 -0.00000000000E+00 -0.23621918967E+02  0.23656034234E+02  0.12700000000E+01 0.  1.
         25    2    1    2    0    0  0.00000000000E+00  0.00000000000E+00  0.14158431965E+03  0.18886715425E+03  0.12499872953E+03 0.  0.
    9000005    1    3    3    0    0  0.53383855309E+02 -0.30535683741E+02  0.87543071650E+02  0.10699090327E+03  0.10000000000E+01 0.  0.
    9000005    1    3    3    0    0 -0.53383855309E+02  0.30535683741E+02  0.54041247997E+02  0.81876250978E+02  0.10000000000E+01 0.  0.
<mgrwt>
<rscale>  0 0.12499873E+03</rscale>
<asrwt>0</asrwt>
<pdfrwt beam="2">  1        4 0.36371412E-02 0.12499873E+03</pdfrwt>
<pdfrwt beam="1">  1       -4 0.25419344E-01 0.12499873E+03</pdfrwt>
<totfact> 0.92047420E+03</totfact>
</mgrwt>
</event>
<event>
 5    1  0.3330238E-002  0.1250000E+03  0.7818608E-02  0.1235069E+00
          4   -1    0    0  501    0  0.00000000000E+00  0.00000000000E+00  0.86740469774E+02  0.86749766551E+02  0.12700000000E+01 0. -1.
         -4   -1    0    0    0  501 -0.00000000000E+00 -0.00000000000E+00 -0.45013064653E+02  0.45030976999E+02  0.12700000000E+01 0. -1.
         25    2    1    2    0    0  0.00000000000E+00  0.00000000000E+00  0.41727405121E+02  0.13178074355E+03  0.12499995213E+03 0.  0.
    9000005    1    3    3    0    0  0.18856326245E+02  0.29176867495E+02  0.75627679521E+02  0.83230983090E+02  0.10000000000E+01 0.  0.
    9000005    1    3    3    0    0 -0.18856326245E+02 -0.29176867495E+02 -0.33900274400E+02  0.48549760460E+02  0.10000000000E+01 0.  0.
<mgrwt>
<rscale>  0 0.12499995E+03</rscale>
<asrwt>0</asrwt>
<pdfrwt beam="1">  1        4 0.13346781E-01 0.12499995E+03</pdfrwt>
<pdfrwt beam="2">  1       -4 0.69271798E-02 0.12499995E+03</pdfrwt>
<totfact> 0.10306392E+04</totfact>
</mgrwt>
</event>
<event>
 5    1  0.3330238E-002  0.1249953E+03  0.7818608E-02  0.1235077E+00
          4   -1    0    0  501    0  0.00000000000E+00  0.00000000000E+00  0.69961445862E+03  0.69961561132E+03  0.12700000000E+01 0. -1.
         -4   -1    0    0    0  501 -0.00000000000E+00 -0.00000000000E+00 -0.55096174279E+01  0.56540944635E+01  0.12700000000E+01 0. -1.
         25    2    1    2    0    0  0.00000000000E+00  0.00000000000E+00  0.69410484119E+03  0.70526970579E+03  0.12499530926E+03 0.  0.
    9000005    1    3    3    0    0  0.17899831444E+02 -0.49503360202E+02  0.15704859972E+03  0.16563891243E+03  0.10000000000E+01 0.  0.
    9000005    1    3    3    0    0 -0.17899831444E+02  0.49503360202E+02  0.53705624147E+03  0.53963079335E+03  0.10000000000E+01 0.  0.
<mgrwt>
<rscale>  0 0.12499531E+03</rscale>
<asrwt>0</asrwt>
<pdfrwt beam="1">  1        4 0.10764422E+00 0.12499531E+03</pdfrwt>
<pdfrwt beam="2">  1       -4 0.85883557E-03 0.12499531E+03</pdfrwt>
<totfact> 0.42814356E+03</totfact>
</mgrwt>
</event>
<event>
 5    1  0.3330238E-002  0.1250050E+03  0.7818608E-02  0.1235061E+00
          4   -1    0    0  501    0  0.00000000000E+00  0.00000000000E+00  0.11536576581E+02  0.11606269823E+02  0.12700000000E+01 0. -1.
         -4   -1    0    0    0  501 -0.00000000000E+00 -0.00000000000E+00 -0.33753350536E+03  0.33753589460E+03  0.12700000000E+01 0. -1.
         25    2    1    2    0    0  0.00000000000E+00  0.00000000000E+00 -0.32599692878E+03  0.34914216442E+03  0.12500501351E+03 0.  0.
    9000005    1    3    3    0    0  0.46552239723E+02  0.36342070942E+02 -0.22008193014E+03  0.22787038667E+03  0.10000000000E+01 0.  0.
    9000005    1    3    3    0    0 -0.46552239723E+02 -0.36342070942E+02 -0.10591499864E+03  0.12127177776E+03  0.10000000000E+01 0.  0.
<mgrwt>
<rscale>  0 0.12500501E+03</rscale>
<asrwt>0</asrwt>
<pdfrwt beam="1">  1        4 0.17804030E-02 0.12500501E+03</pdfrwt>
<pdfrwt beam="2">  1       -4 0.51933769E-01 0.12500501E+03</pdfrwt>
<totfact> 0.69811289E+03</totfact>
</mgrwt>
</event>
<event>
 5    1  0.3330238E-002  0.1249992E+03  0.7818608E-02  0.1235071E+00
         -4   -1    0    0    0  501 -0.00000000000E+00  0.00000000000E+00  0.50524723539E+03  0.50524883153E+03  0.12700000000E+01 0.  1.
          4   -1    0    0  501    0  0.00000000000E+00 -0.00000000000E+00 -0.76774851462E+01  0.77818171509E+01  0.12700000000E+01 0.  1.
         25    2    1    2    0    0  0.00000000000E+00  0.00000000000E+00  0.49756975024E+03  0.51303064868E+03  0.12499916054E+03 0.  0.
    9000005    1    3    3    0    0 -0.57211151267E+01 -0.20653781615E+02  0.78571537887E+01  0.22848297945E+02  0.10000000000E+01 0.  0.
    9000005    1    3    3    0    0  0.57211151267E+01  0.20653781615E+02  0.48971259645E+03  0.49018235074E+03  0.10000000000E+01 0.  0.
<mgrwt>
<rscale>  0 0.12499916E+03</rscale>
<asrwt>0</asrwt>
<pdfrwt beam="2">  1        4 0.11892999E-02 0.12499916E+03</pdfrwt>
<pdfrwt beam="1">  1       -4 0.77738491E-01 0.12499916E+03</pdfrwt>
<totfact> 0.54868347E+03</totfact>
</mgrwt>
</event>
<event>
 5    1  0.3330238E-002  0.1249989E+03  0.7818608E-02  0.1235071E+00
          4   -1    0    0  501    0  0.00000000000E+00  0.00000000000E+00  0.26285737874E+02  0.26316400125E+02  0.12700000000E+01 0.  1.
         -4   -1    0    0    0  501 -0.00000000000E+00 -0.00000000000E+00 -0.14848454090E+03  0.14848997201E+03  0.12700000000E+01 0.  1.
         25    2    1    2    0    0  0.00000000000E+00  0.00000000000E+00 -0.12219880303E+03  0.17480637213E+03  0.12499888110E+03 0.  0.
    9000005    1    3    3    0    0  0.48497323731E+02 -0.72765775168E+01 -0.11526601207E+03  0.12526848179E+03  0.10000000000E+01 0.  0.
    9000005    1    3    3    0    0 -0.48497323731E+02  0.72765775168E+01 -0.69327909521E+01  0.49537890345E+02  0.10000000000E+01 0.  0.
<mgrwt>
<rscale>  0 0.12499888E+03</rscale>
<asrwt>0</asrwt>
<pdfrwt beam="1">  1        4 0.40467362E-02 0.12499888E+03</pdfrwt>
<pdfrwt beam="2">  1       -4 0.22846551E-01 0.12499888E+03</pdfrwt>
<totfact> 0.94562689E+03</totfact>
</mgrwt>
</event>
<event>
 5    1  0.3330238E-002  0.1249950E+03  0.7818608E-02  0.1235077E+00
          4   -1    0    0  501    0  0.00000000000E+00  0.00000000000E+00  0.28188711469E+03  0.28188997557E+03  0.12700000000E+01 0.  1.
         -4   -1    0    0    0  501 -0.00000000000E+00 -0.00000000000E+00 -0.13824350902E+02  0.13882563808E+02  0.12700000000E+01 0.  1.
         25    2    1    2    0    0  0.00000000000E+00  0.00000000000E+00  0.26806276378E+03  0.29577253938E+03  0.12499499879E+03 0.  0.
    9000005    1    3    3    0    0 -0.54497973201E+02  0.20454908870E+02  0.18780911601E+03  0.19662577765E+03  0.10000000000E+01 0.  0.
    9000005    1    3    3    0    0  0.54497973201E+02 -0.20454908870E+02  0.80253647778E+02  0.99146761730E+02  0.10000000000E+01 0.  0.
<mgrwt>
<rscale>  0 0.12499500E+03</rscale>
<asrwt>0</asrwt>
<pdfrwt beam="1">  1        4 0.43371950E-01 0.12499500E+03</pdfrwt>
<pdfrwt beam="2">  1       -4 0.21315210E-02 0.12499500E+03</pdfrwt>
<totfact> 0.76140653E+03</totfact>
</mgrwt>
</event>
<event>
 5    1  0.3330238E-002  0.1249916E+03  0.7818608E-02  0.1235082E+00
          4   -1    0    0  501    0  0.00000000000E+00  0.00000000000E+00  0.24519274739E+02  0.24552143160E+02  0.12700000000E+01 0.  1.
         -4   -1    0    0    0  501 -0.00000000000E+00 -0.00000000000E+00 -0.15915002613E+03  0.15915509328E+03  0.12700000000E+01 0.  1.
         25    2    1    2    0    0  0.00000000000E+00  0.00000000000E+00 -0.13463075139E+03  0.18370723644E+03  0.12499163772E+03 0.  0.
    9000005    1    3    3    0    0  0.40259093984E+02  0.11553458135E+02 -0.13547230466E+03  0.14180275870E+03  0.10000000000E+01 0.  0.
    9000005    1    3    3    0    0 -0.40259093984E+02 -0.11553458135E+02  0.84155326886E+00  0.41904477747E+02  0.10000000000E+01 0.  0.
<mgrwt>
<rscale>  0 0.12499164E+03</rscale>
<asrwt>0</asrwt>
<pdfrwt beam="1">  1        4 0.37751143E-02 0.12499164E+03</pdfrwt>
<pdfrwt beam="2">  1       -4 0.24487537E-01 0.12499164E+03</pdfrwt>
<totfact> 0.92971338E+03</totfact>
</mgrwt>
</event>
<event>
 5    1  0.3330238E-002  0.1249981E+03  0.7818608E-02  0.1235072E+00
         -4   -1    0    0    0  501 -0.00000000000E+00  0.00000000000E+00  0.31579154056E+02  0.31604681154E+02  0.12700000000E+01 0.  1.
          4   -1    0    0  501    0  0.00000000000E+00 -0.00000000000E+00 -0.12361463140E+03  0.12362115513E+03  0.12700000000E+01 0.  1.
         25    2    1    2    0    0  0.00000000000E+00  0.00000000000E+00 -0.92035477343E+02  0.15522583629E+03  0.12499812463E+03 0.  0.
    9000005    1    3    3    0    0  0.31733056835E+02 -0.53200622905E+02 -0.35789468211E+02  0.71548439595E+02  0.10000000000E+01 0.  0.
    9000005    1    3    3    0    0 -0.31733056835E+02  0.53200622905E+02 -0.56246009133E+02  0.83677396691E+02  0.10000000000E+01 0.  0.
<mgrwt>
<rscale>  0 0.12499812E+03</rscale>
<asrwt>0</asrwt>
<pdfrwt beam="2">  1        4 0.19020101E-01 0.12499812E+03</pdfrwt>
<pdfrwt beam="1">  1       -4 0.48607969E-02 0.12499812E+03</pdfrwt>
<totfact> 0.98275328E+03</totfact>
</mgrwt>
</event>
<event>
 5    1  0.3330238E-002  0.1250014E+03  0.7818608E-02  0.1235067E+00
         -4   -1    0    0    0  501 -0.00000000000E+00  0.00000000000E+00  0.17597695800E+03  0.17598154064E+03  0.12700000000E+01 0. -1.
          4   -1    0    0  501    0  0.00000000000E+00 -0.00000000000E+00 -0.22174968228E+02  0.22211306038E+02  0.12700000000E+01 0. -1.
         25    2    1    2    0    0  0.00000000000E+00  0.00000000000E+00  0.15380198977E+03  0.19819284668E+03  0.12500140966E+03 0.  0.
    9000005    1    3    3    0    0 -0.53829969231E+02 -0.25385420370E+02  0.10711982447E+03  0.12254689694E+03  0.10000000000E+01 0.  0.
    9000005    1    3    3    0    0  0.53829969231E+02  0.25385420370E+02  0.46682165297E+02  0.75645949737E+02  0.10000000000E+01 0.  0.
<mgrwt>
<rscale>  0 0.12500141E+03</rscale>
<asrwt>0</asrwt>
<pdfrwt beam="2">  1        4 0.34146814E-02 0.12500141E+03</pdfrwt>
<pdfrwt beam="1">  1       -4 0.27076525E-01 0.12500141E+03</pdfrwt>
<totfact> 0.90438150E+03</totfact>
</mgrwt>
</event>
<event>
 5    1  0.3330238E-002  0.1249991E+03  0.7818608E-02  0.1235071E+00
          4   -1    0    0  501    0  0.00000000000E+00  0.00000000000E+00  0.35286238689E+02  0.35309085811E+02  0.12700000000E+01 0.  1.
         -4   -1    0    0    0  501 -0.00000000000E+00 -0.00000000000E+00 -0.11063793437E+03  0.11064522322E+03  0.12700000000E+01 0.  1.
         25    2    1    2    0    0  0.00000000000E+00  0.00000000000E+00 -0.75351695679E+02  0.14595430903E+03  0.12499912913E+03 0.  0.
    9000005    1    3    3    0    0  0.61587558831E+02 -0.19902986316E+01 -0.25529733358E+02  0.66706491264E+02  0.10000000000E+01 0.  0.
    9000005    1    3    3    0    0 -0.61587558831E+02  0.19902986316E+01 -0.49821962321E+02  0.79247817767E+02  0.10000000000E+01 0.  0.
<mgrwt>
<rscale>  0 0.12499913E+03</rscale>
<asrwt>0</asrwt>
<pdfrwt beam="1">  1        4 0.54309703E-02 0.12499913E+03</pdfrwt>
<pdfrwt beam="2">  1       -4 0.17023539E-01 0.12499913E+03</pdfrwt>
<totfact> 0.10011831E+04</totfact>
</mgrwt>
</event>
<event>
 5    1  0.3330238E-002  0.1250007E+03  0.7818608E-02  0.1235068E+00
         -4   -1    0    0    0  501 -0.00000000000E+00  0.00000000000E+00  0.46913338970E+02  0.46930526029E+02  0.12700000000E+01 0. -1.
          4   -1    0    0  501    0  0.00000000000E+00 -0.00000000000E+00 -0.83228900182E+02  0.83238589161E+02  0.12700000000E+01 0. -1.
         25    2    1    2    0    0  0.00000000000E+00  0.00000000000E+00 -0.36315561212E+02  0.13016911519E+03  0.12500071425E+03 0.  0.
    9000005    1    3    3    0    0 -0.50565122759E+02 -0.33455097400E+01  0.19922935004E+02  0.54460512431E+02  0.10000000000E+01 0.  0.
    9000005    1    3    3    0    0  0.50565122759E+02  0.33455097400E+01 -0.56238496215E+02  0.75708602758E+02  0.10000000000E+01 0.  0.
<mgrwt>
<rscale>  0 0.12500071E+03</rscale>
<asrwt>0</asrwt>
<pdfrwt beam="2">  1        4 0.12806514E-01 0.12500071E+03</pdfrwt>
<pdfrwt beam="1">  1       -4 0.72195041E-02 0.12500071E+03</pdfrwt>
<totfact> 0.10340724E+04</totfact>
</mgrwt>
</event>
<event>
 5    1  0.3330238E-002  0.1249996E+03  0.7818608E-02  0.1235070E+00
         -4   -1    0    0    0  501 -0.00000000000E+00  0.00000000000E+00  0.52519840200E+02  0.52535193105E+02  0.12700000000E+01 0.  1.
          4   -1    0    0  501    0  0.00000000000E+00 -0.00000000000E+00 -0.74344523949E+02  0.74355370628E+02  0.12700000000E+01 0.  1.
         25    2    1    2    0    0  0.00000000000E+00  0.00000000000E+00 -0.21824683749E+02  0.12689056373E+03  0.12499959337E+03 0.  0.
    9000005    1    3    3    0    0 -0.49459076048E+02  0.26124895996E+02 -0.39199897777E+02  0.68310631530E+02  0.10000000000E+01 0.  0.
    9000005    1    3    3    0    0  0.49459076048E+02 -0.26124895996E+02  0.17375214027E+02  0.58579932203E+02  0.10000000000E+01 0.  0.
<mgrwt>
<rscale>  0 0.12499959E+03</rscale>
<asrwt>0</asrwt>
<pdfrwt beam="2">  1        4 0.11439634E-01 0.12499959E+03</pdfrwt>
<pdfrwt beam="1">  1       -4 0.80819908E-02 0.12499959E+03</pdfrwt>
<totfact> 0.10411620E+04</totfact>
</mgrwt>
</event>
<event>
 5    1  0.3330238E-002  0.1250056E+03  0.7818608E-02  0.1235061E+00
         -4   -1    0    0    0  501 -0.00000000000E+00  0.00000000000E+00  0.20635708060E+02  0.20674751441E+02  0.12700000000E+01 0. -1.
          4   -1    0    0  501    0  0.00000000000E+00 -0.00000000000E+00 -0.18909244884E+03  0.18909671364E+03  0.12700000000E+01 0. -1.
         25    2    1    2    0    0  0.00000000000E+00  0.00000000000E+00 -0.16845674078E+03  0.20977146508E+03  0.12500557606E+03 0.  0.
    9000005    1    3    3    0    0 -0.23441732501E+02 -0.15128763925E+02 -0.17806991452E+03  0.18024507976E+03  0.10000000000E+01 0.  0.
    9000005    1    3    3    0    0  0.23441732501E+02  0.15128763925E+02  0.96131737407E+01  0.29526385318E+02  0.10000000000E+01 0.  0.
<mgrwt>
<rscale>  0 0.12500558E+03</rscale>
<asrwt>0</asrwt>
<pdfrwt beam="2">  1        4 0.29094476E-01 0.12500558E+03</pdfrwt>
<pdfrwt beam="1">  1       -4 0.31780558E-02 0.12500558E+03</pdfrwt>
<totfact> 0.88502184E+03</totfact>
</mgrwt>
</event>
<event>
 5    1  0.3330238E-002  0.1250025E+03  0.7818608E-02  0.1235065E+00
          4   -1    0    0  501    0  0.00000000000E+00  0.00000000000E+00  0.52592882930E+02  0.52608214519E+02  0.12700000000E+01 0. -1.
         -4   -1    0    0    0  501 -0.00000000000E+00 -0.00000000000E+00 -0.74244682815E+02  0.74255544078E+02  0.12700000000E+01 0. -1.
         25    2    1    2    0    0  0.00000000000E+00  0.00000000000E+00 -0.21651799885E+02  0.12686375860E+03  0.12500245120E+03 0.  0.
    9000005    1    3    3    0    0 -0.54913593190E+02  0.11526038905E+01  0.19426884581E+02  0.58268645577E+02  0.10000000000E+01 0.  0.
    9000005    1    3    3    0    0  0.54913593190E+02 -0.11526038905E+01 -0.41078684466E+02  0.68595113020E+02  0.10000000000E+01 0.  0.
<mgrwt>
<rscale>  0 0.12500245E+03</rscale>
<asrwt>0</asrwt>
<pdfrwt beam="1">  1        4 0.80932276E-02 0.12500245E+03</pdfrwt>
<pdfrwt beam="2">  1       -4 0.11424274E-01 0.12500245E+03</pdfrwt>
<totfact> 0.10411531E+04</totfact>
</mgrwt>
</event>
<event>
 5    1  0.3330238E-002  0.1249989E+03  0.7818608E-02  0.1235071E+00
         -4   -1    0    0    0  501 -0.00000000000E+00  0.00000000000E+00  0.17173648740E+02  0.17220543285E+02  0.12700000000E+01 0. -1.
          4   -1    0    0  501    0  0.00000000000E+00 -0.00000000000E+00 -0.22709331284E+03  0.22709686399E+03  0.12700000000E+01 0. -1.
         25    2    1    2    0    0  0.00000000000E+00  0.00000000000E+00 -0.20991966410E+03  0.24431740728E+03  0.12499892049E+03 0.  0.
    9000005    1    3    3    0    0 -0.27738328059E+02  0.15417459088E+02 -0.21018086414E+03  0.21256553940E+03  0.10000000000E+01 0.  0.
    9000005    1    3    3    0    0  0.27738328059E+02 -0.15417459088E+02  0.26120004769E+00  0.31751867877E+02  0.10000000000E+01 0.  0.
<mgrwt>
<rscale>  0 0.12499892E+03</rscale>
<asrwt>0</asrwt>
<pdfrwt beam="2">  1        4 0.34941311E-01 0.12499892E+03</pdfrwt>
<pdfrwt beam="1">  1       -4 0.26459804E-02 0.12499892E+03</pdfrwt>
<totfact> 0.83160541E+03</totfact>
</mgrwt>
</event>
<event>
 5    1  0.3330238E-002  0.1249974E+03  0.7818608E-02  0.1235073E+00
         -4   -1    0    0    0  501 -0.00000000000E+00  0.00000000000E+00  0.11001172426E+03  0.11001905460E+03  0.12700000000E+01 0.  1.
          4   -1    0    0  501    0  0.00000000000E+00 -0.00000000000E+00 -0.35486214957E+02  0.35508933411E+02  0.12700000000E+01 0.  1.
         25    2    1    2    0    0  0.00000000000E+00  0.00000000000E+00  0.74525509303E+02  0.14552798801E+03  0.12499737500E+03 0.  0.
    9000005    1    3    3    0    0 -0.25681768441E+02 -0.37146893802E+02 -0.13024701843E+02  0.47011570996E+02  0.10000000000E+01 0.  0.
    9000005    1    3    3    0    0  0.25681768441E+02  0.37146893802E+02  0.87550211146E+02  0.98516417013E+02  0.10000000000E+01 0.  0.
<mgrwt>
<rscale>  0 0.12499738E+03</rscale>
<asrwt>0</asrwt>
<pdfrwt beam="2">  1        4 0.54617293E-02 0.12499738E+03</pdfrwt>
<pdfrwt beam="1">  1       -4 0.16927192E-01 0.12499738E+03</pdfrwt>
<totfact> 0.10020864E+04</totfact>
</mgrwt>
</event>
<event>
 5    1  0.3330238E-002  0.1249998E+03  0.7818608E-02  0.1235070E+00
         -4   -1    0    0    0  501 -0.00000000000E+00  0.00000000000E+00  0.19546551971E+03  0.19546964546E+03  0.12700000000E+01 0.  1.
          4   -1    0    0  501    0  0.00000000000E+00 -0.00000000000E+00 -0.19959753244E+02  0.20000116239E+02  0.12700000000E+01 0.  1.
         25    2    1    2    0    0  0.00000000000E+00  0.00000000000E+00  0.17550576647E+03  0.21546976170E+03  0.12499977657E+03 0.  0.
    9000005    1    3    3    0    0 -0.53701336067E+02 -0.30698952579E+02  0.10307176277E+03  0.12021250961E+03  0.10000000000E+01 0.  0.
    9000005    1    3    3    0    0  0.53701336067E+02  0.30698952579E+02  0.72434003697E+02  0.95257252093E+02  0.10000000000E+01 0.  0.
<mgrwt>
<rscale>  0 0.12499978E+03</rscale>
<asrwt>0</asrwt>
<pdfrwt beam="2">  1        4 0.30741533E-02 0.12499978E+03</pdfrwt>
<pdfrwt beam="1">  1       -4 0.30075043E-01 0.12499978E+03</pdfrwt>
<totfact> 0.87590750E+03</totfact>
</mgrwt>
</event>
<event>
 5    1  0.3330238E-002  0.1249970E+03  0.7818608E-02  0.1235074E+00
          4   -1    0    0  501    0  0.00000000000E+00  0.00000000000E+00  0.93100287679E+03  0.93100374300E+03  0.12700000000E+01 0.  1.
         -4   -1    0    0    0  501 -0.00000000000E+00 -0.00000000000E+00 -0.40985461017E+01  0.42908018071E+01  0.12700000000E+01 0.  1.
         25    2    1    2    0    0  0.00000000000E+00  0.00000000000E+00  0.92690433068E+03  0.93529454481E+03  0.12499698920E+03 0.  0.
    9000005    1    3    3    0    0  0.62222039618E+02 -0.50157052326E+01  0.44186622878E+03  0.44625497605E+03  0.10000000000E+01 0.  0.
    9000005    1    3    3    0    0 -0.62222039618E+02  0.50157052326E+01  0.48503810190E+03  0.48903956876E+03  0.10000000000E+01 0.  0.
<mgrwt>
<rscale>  0 0.12499699E+03</rscale>
<asrwt>0</asrwt>
<pdfrwt beam="1">  1        4 0.14324609E+00 0.12499699E+03</pdfrwt>
<pdfrwt beam="2">  1       -4 0.64540097E-03 0.12499699E+03</pdfrwt>
<totfact> 0.32846047E+03</totfact>
</mgrwt>
</event>
<event>
 5    1  0.3330238E-002  0.1249996E+03  0.7818608E-02  0.1235070E+00
         -4   -1    0    0    0  501 -0.00000000000E+00  0.00000000000E+00  0.81461581640E+01  0.82445614094E+01  0.12700000000E+01 0. -1.
          4   -1    0    0  501    0  0.00000000000E+00 -0.00000000000E+00 -0.47653941138E+03  0.47654110368E+03  0.12700000000E+01 0. -1.
         25    2    1    2    0    0  0.00000000000E+00  0.00000000000E+00 -0.46839325322E+03  0.48478566509E+03  0.12499960568E+03 0.  0.
    9000005    1    3    3    0    0  0.40080472706E+01 -0.49510338093E+02 -0.87133581090E+02  0.10030253723E+03  0.10000000000E+01 0.  0.
    9000005    1    3    3    0    0 -0.40080472706E+01  0.49510338093E+02 -0.38125967213E+03  0.38448312786E+03  0.10000000000E+01 0.  0.
<mgrwt>
<rscale>  0 0.12499961E+03</rscale>
<asrwt>0</asrwt>
<pdfrwt beam="2">  1        4 0.73321434E-01 0.12499961E+03</pdfrwt>
<pdfrwt beam="1">  1       -4 0.12609551E-02 0.12499961E+03</pdfrwt>
<totfact> 0.57064945E+03</totfact>
</mgrwt>
</event>
<event>
 5    1  0.3330238E-002  0.1249991E+03  0.7818608E-02  0.1235071E+00
         -4   -1    0    0    0  501 -0.00000000000E+00  0.00000000000E+00  0.47444190523E+03  0.47444360501E+03  0.12700000000E+01 0.  1.
          4   -1    0    0  501    0  0.00000000000E+00 -0.00000000000E+00 -0.81825392357E+01  0.82805101499E+01  0.12700000000E+01 0.  1.
         25    2    1    2    0    0  0.00000000000E+00  0.00000000000E+00  0.46625936599E+03  0.48272411516E+03  0.12499909993E+03 0.  0.
    9000005    1    3    3    0    0 -0.59664100205E+02 -0.15051670826E+01  0.16159490146E+03  0.17226718364E+03  0.10000000000E+01 0.  0.
    9000005    1    3    3    0    0  0.59664100205E+02  0.15051670826E+01  0.30466446453E+03  0.31045693152E+03  0.10000000000E+01 0.  0.
<mgrwt>
<rscale>  0 0.12499910E+03</rscale>
<asrwt>0</asrwt>
<pdfrwt beam="2">  1        4 0.12665193E-02 0.12499910E+03</pdfrwt>
<pdfrwt beam="1">  1       -4 0.72998723E-01 0.12499910E+03</pdfrwt>
<totfact> 0.57231261E+03</totfact>
</mgrwt>
</event>
<event>
 5    1  0.3330238E-002  0.1250011E+03  0.7818608E-02  0.1235067E+00
          4   -1    0    0  501    0  0.00000000000E+00  0.00000000000E+00  0.47703970735E+03  0.47704139788E+03  0.12700000000E+01 0.  1.
         -4   -1    0    0    0  501 -0.00000000000E+00 -0.00000000000E+00 -0.81377142298E+01  0.82362183608E+01  0.12700000000E+01 0.  1.
         25    2    1    2    0    0  0.00000000000E+00  0.00000000000E+00  0.46890199312E+03  0.48527761624E+03  0.12500114267E+03 0.  0.
    9000005    1    3    3    0    0 -0.49658660316E+02 -0.14164807452E+02  0.97816979284E+02  0.11061548604E+03  0.10000000000E+01 0.  0.
    9000005    1    3    3    0    0  0.49658660316E+02  0.14164807452E+02  0.37108501384E+03  0.37466213021E+03  0.10000000000E+01 0.  0.
<mgrwt>
<rscale>  0 0.12500114E+03</rscale>
<asrwt>0</asrwt>
<pdfrwt beam="1">  1        4 0.73398449E-01 0.12500114E+03</pdfrwt>
<pdfrwt beam="2">  1       -4 0.12596630E-02 0.12500114E+03</pdfrwt>
<totfact> 0.57023569E+03</totfact>
</mgrwt>
</event>
<event>
 5    1  0.3330238E-002  0.1250074E+03  0.7818608E-02  0.1235058E+00
         -4   -1    0    0    0  501 -0.00000000000E+00  0.00000000000E+00  0.18058345710E+02  0.18102948648E+02  0.12700000000E+01 0.  1.
          4   -1    0    0  501    0  0.00000000000E+00 -0.00000000000E+00 -0.21602492644E+03  0.21602865954E+03  0.12700000000E+01 0.  1.
         25    2    1    2    0    0  0.00000000000E+00  0.00000000000E+00 -0.19796658073E+03  0.23413160819E+03  0.12500737125E+03 0.  0.
    9000005    1    3    3    0    0  0.29747249974E+02  0.26894823951E+02 -0.18875723779E+03  0.19297286145E+03  0.10000000000E+01 0.  0.
    9000005    1    3    3    0    0 -0.29747249974E+02 -0.26894823951E+02 -0.92093429429E+01  0.41158746747E+02  0.10000000000E+01 0.  0.
<mgrwt>
<rscale>  0 0.12500737E+03</rscale>
<asrwt>0</asrwt>
<pdfrwt beam="2">  1        4 0.33238321E-01 0.12500737E+03</pdfrwt>
<pdfrwt beam="1">  1       -4 0.27819253E-02 0.12500737E+03</pdfrwt>
<totfact> 0.84665276E+03</totfact>
</mgrwt>
</event>
<event>
 5    1  0.3330238E-002  0.1249992E+03  0.7818608E-02  0.1235071E+00
         -4   -1    0    0    0  501 -0.00000000000E+00  0.00000000000E+00  0.29849451451E+02  0.29876456483E+02  0.12700000000E+01 0.  1.
          4   -1    0    0  501    0  0.00000000000E+00 -0.00000000000E+00 -0.13077413454E+03  0.13078030113E+03  0.12700000000E+01 0.  1.
         25    2    1    2    0    0  0.00000000000E+00  0.00000000000E+00 -0.10092468309E+03  0.16065675762E+03  0.12499920844E+03 0.  0.
    9000005    1    3    3    0    0 -0.50069874265E+02  0.31780806088E+02 -0.75785222549E+02  0.96236229671E+02  0.10000000000E+01 0.  0.
    9000005    1    3    3    0    0  0.50069874265E+02 -0.31780806088E+02 -0.25139460539E+02  0.64420527945E+02  0.10000000000E+01 0.  0.
<mgrwt>
<rscale>  0 0.12499921E+03</rscale>
<asrwt>0</asrwt>
<pdfrwt beam="2">  1        4 0.20121649E-01 0.12499921E+03</pdfrwt>
<pdfrwt beam="1">  1       -4 0.45947750E-02 0.12499921E+03</pdfrwt>
<totfact> 0.97218046E+03</totfact>
</mgrwt>
</event>
<event>
 5    1  0.3330238E-002  0.1250043E+03  0.7818608E-02  0.1235063E+00
          4   -1    0    0  501    0  0.00000000000E+00  0.00000000000E+00  0.27759763988E+03  0.27760054497E+03  0.12700000000E+01 0.  1.
         -4   -1    0    0    0  501 -0.00000000000E+00 -0.00000000000E+00 -0.14040950954E+02  0.14098269528E+02  0.12700000000E+01 0.  1.
         25    2    1    2    0    0  0.00000000000E+00  0.00000000000E+00  0.26355668892E+03  0.29169881450E+03  0.12500428033E+03 0.  0.
    9000005    1    3    3    0    0  0.61853142722E+02 -0.63307141442E+01  0.14646803363E+03  0.15912188435E+03  0.10000000000E+01 0.  0.
    9000005    1    3    3    0    0 -0.61853142722E+02  0.63307141442E+01  0.11708865530E+03  0.13257693014E+03  0.10000000000E+01 0.  0.
<mgrwt>
<rscale>  0 0.12500428E+03</rscale>
<asrwt>0</asrwt>
<pdfrwt beam="1">  1        4 0.42711956E-01 0.12500428E+03</pdfrwt>
<pdfrwt beam="2">  1       -4 0.21647792E-02 0.12500428E+03</pdfrwt>
<totfact> 0.76644780E+03</totfact>
</mgrwt>
</event>
<event>
 5    1  0.3330238E-002  0.1250012E+03  0.7818608E-02  0.1235067E+00
         -4   -1    0    0    0  501 -0.00000000000E+00  0.00000000000E+00  0.57713563037E+01  0.59094376708E+01  0.12700000000E+01 0. -1.
          4   -1    0    0  501    0  0.00000000000E+00 -0.00000000000E+00 -0.66870703323E+03  0.66870823921E+03  0.12700000000E+01 0. -1.
         25    2    1    2    0    0  0.00000000000E+00  0.00000000000E+00 -0.66293567692E+03  0.67461767688E+03  0.12500119288E+03 0.  0.
    9000005    1    3    3    0    0 -0.18729605921E+02  0.46848355345E+02 -0.13245807954E+03  0.14174522698E+03  0.10000000000E+01 0.  0.
    9000005    1    3    3    0    0  0.18729605921E+02 -0.46848355345E+02 -0.53047759738E+03  0.53287244990E+03  0.10000000000E+01 0.  0.
<mgrwt>
<rscale>  0 0.12500119E+03</rscale>
<asrwt>0</asrwt>
<pdfrwt beam="2">  1        4 0.10288866E+00 0.12500119E+03</pdfrwt>
<pdfrwt beam="1">  1       -4 0.89861591E-03 0.12500119E+03</pdfrwt>
<totfact> 0.44459749E+03</totfact>
</mgrwt>
</event>
<event>
 5    1  0.3330238E-002  0.1249912E+03  0.7818608E-02  0.1235083E+00
         -4   -1    0    0    0  501 -0.00000000000E+00  0.00000000000E+00  0.23105013410E+02  0.23139890766E+02  0.12700000000E+01 0.  1.
          4   -1    0    0  501    0  0.00000000000E+00 -0.00000000000E+00 -0.16887656146E+03  0.16888133678E+03  0.12700000000E+01 0.  1.
         25    2    1    2    0    0  0.00000000000E+00  0.00000000000E+00 -0.14577154805E+03  0.19202122754E+03  0.12499123011E+03 0.  0.
    9000005    1    3    3    0    0 -0.49805493209E+02 -0.37326008149E+02 -0.81423368255E+02  0.10249186766E+03  0.10000000000E+01 0.  0.
    9000005    1    3    3    0    0  0.49805493209E+02  0.37326008149E+02 -0.64348179799E+02  0.89529359886E+02  0.10000000000E+01 0.  0.
<mgrwt>
<rscale>  0 0.12499123E+03</rscale>
<asrwt>0</asrwt>
<pdfrwt beam="2">  1        4 0.25984059E-01 0.12499123E+03</pdfrwt>
<pdfrwt beam="1">  1       -4 0.35576678E-02 0.12499123E+03</pdfrwt>
<totfact> 0.91514786E+03</totfact>
</mgrwt>
</event>
<event>
 5    1  0.3330238E-002  0.1250001E+03  0.7818608E-02  0.1235069E+00
         -4   -1    0    0    0  501 -0.00000000000E+00  0.00000000000E+00  0.72697598437E+02  0.72708690804E+02  0.12700000000E+01 0. -1.
          4   -1    0    0  501    0  0.00000000000E+00 -0.00000000000E+00 -0.53710278051E+02  0.53725290770E+02  0.12700000000E+01 0. -1.
         25    2    1    2    0    0  0.00000000000E+00  0.00000000000E+00  0.18987320386E+02  0.12643398157E+03  0.12500013344E+03 0.  0.
    9000005    1    3    3    0    0 -0.26846644354E+01  0.57966166590E+02  0.32953992658E+02  0.66740164251E+02  0.10000000000E+01 0.  0.
    9000005    1    3    3    0    0  0.26846644354E+01 -0.57966166590E+02 -0.13966672271E+02  0.59693817323E+02  0.10000000000E+01 0.  0.
<mgrwt>
<rscale>  0 0.12500013E+03</rscale>
<asrwt>0</asrwt>
<pdfrwt beam="2">  1        4 0.82651278E-02 0.12500013E+03</pdfrwt>
<pdfrwt beam="1">  1       -4 0.11186254E-01 0.12500013E+03</pdfrwt>
<totfact> 0.10421437E+04</totfact>
</mgrwt>
</event>
<event>
 5    1  0.3330238E-002  0.1249947E+03  0.7818608E-02  0.1235077E+00
         -4   -1    0    0    0  501 -0.00000000000E+00  0.00000000000E+00  0.28631045735E+03  0.28631327403E+03  0.12700000000E+01 0. -1.
          4   -1    0    0  501    0  0.00000000000E+00 -0.00000000000E+00 -0.13609813110E+02  0.13668939713E+02  0.12700000000E+01 0. -1.
         25    2    1    2    0    0  0.00000000000E+00  0.00000000000E+00  0.27270064424E+03  0.29998221375E+03  0.12499474867E+03 0.  0.
    9000005    1    3    3    0    0  0.97203519739E+00  0.52761558964E+02  0.21667528294E+03  0.22301099793E+03  0.10000000000E+01 0.  0.
    9000005    1    3    3    0    0 -0.97203519739E+00 -0.52761558964E+02  0.56025361296E+02  0.76971215822E+02  0.10000000000E+01 0.  0.
<mgrwt>
<rscale>  0 0.12499475E+03</rscale>
<asrwt>0</asrwt>
<pdfrwt beam="2">  1        4 0.20985823E-02 0.12499475E+03</pdfrwt>
<pdfrwt beam="1">  1       -4 0.44052528E-01 0.12499475E+03</pdfrwt>
<totfact> 0.75609882E+03</totfact>
</mgrwt>
</event>
<event>
 5    1  0.3330238E-002  0.1250031E+03  0.7818608E-02  0.1235064E+00
         -4   -1    0    0    0  501 -0.00000000000E+00  0.00000000000E+00  0.71830173491E+02  0.71841399789E+02  0.12700000000E+01 0.  1.
          4   -1    0    0  501    0  0.00000000000E+00 -0.00000000000E+00 -0.54361525365E+02  0.54376358282E+02  0.12700000000E+01 0.  1.
         25    2    1    2    0    0  0.00000000000E+00  0.00000000000E+00  0.17468648126E+02  0.12621775807E+03  0.12500307510E+03 0.  0.
    9000005    1    3    3    0    0 -0.10966579923E+02  0.26896151804E+02 -0.47136655207E+02  0.55376286632E+02  0.10000000000E+01 0.  0.
    9000005    1    3    3    0    0  0.10966579923E+02 -0.26896151804E+02  0.64605303332E+02  0.70841471439E+02  0.10000000000E+01 0.  0.
<mgrwt>
<rscale>  0 0.12500308E+03</rscale>
<asrwt>0</asrwt>
<pdfrwt beam="2">  1        4 0.83653161E-02 0.12500308E+03</pdfrwt>
<pdfrwt beam="1">  1       -4 0.11052801E-01 0.12500308E+03</pdfrwt>
<totfact> 0.10425467E+04</totfact>
</mgrwt>
</event>
<event>
 5    1  0.3330238E-002  0.1250018E+03  0.7818608E-02  0.1235067E+00
          4   -1    0    0  501    0  0.00000000000E+00  0.00000000000E+00  0.11609957684E+03  0.11610652282E+03  0.12700000000E+01 0.  1.
         -4   -1    0    0    0  501 -0.00000000000E+00 -0.00000000000E+00 -0.33626696361E+02  0.33650670248E+02  0.12700000000E+01 0.  1.
         25    2    1    2    0    0  0.00000000000E+00  0.00000000000E+00  0.82472880478E+02  0.14975719307E+03  0.12500176344E+03 0.  0.
    9000005    1    3    3    0    0 -0.36511493863E+02  0.50701667077E+02  0.39715359251E+02  0.74040921043E+02  0.10000000000E+01 0.  0.
    9000005    1    3    3    0    0  0.36511493863E+02 -0.50701667077E+02  0.42757521227E+02  0.75716272029E+02  0.10000000000E+01 0.  0.
<mgrwt>
<rscale>  0 0.12500176E+03</rscale>
<asrwt>0</asrwt>
<pdfrwt beam="1">  1        4 0.17863852E-01 0.12500176E+03</pdfrwt>
<pdfrwt beam="2">  1       -4 0.51757164E-02 0.12500176E+03</pdfrwt>
<totfact> 0.99348177E+03</totfact>
</mgrwt>
</event>
<event>
 5    1  0.3330238E-002  0.1249997E+03  0.7818608E-02  0.1235070E+00
          4   -1    0    0  501    0  0.00000000000E+00  0.00000000000E+00  0.14848819901E+04  0.14848825332E+04  0.12700000000E+01 0. -1.
         -4   -1    0    0    0  501 -0.00000000000E+00 -0.00000000000E+00 -0.24768129189E+01  0.27834335335E+01  0.12700000000E+01 0. -1.
         25    2    1    2    0    0  0.00000000000E+00  0.00000000000E+00  0.14824051772E+04  0.14876659668E+04  0.12499967706E+03 0.  0.
    9000005    1    3    3    0    0 -0.41854911258E+02  0.46371310327E+02  0.72025552709E+03  0.72295999635E+03  0.10000000000E+01 0.  0.
    9000005    1    3    3    0    0  0.41854911258E+02 -0.46371310327E+02  0.76214965012E+03  0.76470597042E+03  0.10000000000E+01 0.  0.
<mgrwt>
<rscale>  0 0.12499968E+03</rscale>
<asrwt>0</asrwt>
<pdfrwt beam="1">  1        4 0.22846711E+00 0.12499968E+03</pdfrwt>
<pdfrwt beam="2">  1       -4 0.40467595E-03 0.12499968E+03</pdfrwt>
<totfact> 0.18174315E+03</totfact>
</mgrwt>
</event>
<event>
 5    1  0.3330238E-002  0.1249997E+03  0.7818608E-02  0.1235070E+00
          4   -1    0    0  501    0  0.00000000000E+00  0.00000000000E+00  0.11233217629E+03  0.11233935521E+03  0.12700000000E+01 0.  1.
         -4   -1    0    0    0  501 -0.00000000000E+00 -0.00000000000E+00 -0.34754023052E+02  0.34777219819E+02  0.12700000000E+01 0.  1.
         25    2    1    2    0    0  0.00000000000E+00  0.00000000000E+00  0.77578153236E+02  0.14711657503E+03  0.12499966716E+03 0.  0.
    9000005    1    3    3    0    0 -0.18984757866E+02 -0.56422186083E+02  0.16416612292E+02  0.61760742165E+02  0.10000000000E+01 0.  0.
    9000005    1    3    3    0    0  0.18984757866E+02  0.56422186083E+02  0.61161540944E+02  0.85355832866E+02  0.10000000000E+01 0.  0.
<mgrwt>
<rscale>  0 0.12499967E+03</rscale>
<asrwt>0</asrwt>
<pdfrwt beam="1">  1        4 0.17284210E-01 0.12499967E+03</pdfrwt>
<pdfrwt beam="2">  1       -4 0.53491094E-02 0.12499967E+03</pdfrwt>
<totfact> 0.99882351E+03</totfact>
</mgrwt>
</event>
<event>
 5    1  0.3330238E-002  0.1249991E+03  0.7818608E-02  0.1235071E+00
          4   -1    0    0  501    0  0.00000000000E+00  0.00000000000E+00  0.71701563882E+02  0.71712810314E+02  0.12700000000E+01 0.  1.
         -4   -1    0    0    0  501 -0.00000000000E+00 -0.00000000000E+00 -0.54455579437E+02  0.54470386742E+02  0.12700000000E+01 0.  1.
         25    2    1    2    0    0  0.00000000000E+00  0.00000000000E+00  0.17245984445E+02  0.12618319706E+03  0.12499910096E+03 0.  0.
    9000005    1    3    3    0    0 -0.18505671513E+02  0.48052291937E+02  0.44366188438E+02  0.67976770408E+02  0.10000000000E+01 0.  0.
    9000005    1    3    3    0    0  0.18505671513E+02 -0.48052291937E+02 -0.27120203993E+02  0.58206426649E+02  0.10000000000E+01 0.  0.
<mgrwt>
<rscale>  0 0.12499910E+03</rscale>
<asrwt>0</asrwt>
<pdfrwt beam="1">  1        4 0.11033014E-01 0.12499910E+03</pdfrwt>
<pdfrwt beam="2">  1       -4 0.83797856E-02 0.12499910E+03</pdfrwt>
<totfact> 0.10427158E+04</totfact>
</mgrwt>
</event>
<event>
 5    1  0.3330238E-002  0.1249998E+03  0.7818608E-02  0.1235070E+00
         -4   -1    0    0    0  501 -0.00000000000E+00  0.00000000000E+00  0.37994862972E+02  0.38016082284E+02  0.12700000000E+01 0.  1.
          4   -1    0    0  501    0  0.00000000000E+00 -0.00000000000E+00 -0.10275572913E+03  0.10276357706E+03  0.12700000000E+01 0.  1.
         25    2    1    2    0    0  0.00000000000E+00  0.00000000000E+00 -0.64760866162E+02  0.14077965934E+03  0.12499977079E+03 0.  0.
    9000005    1    3    3    0    0  0.27187609610E+01 -0.49865973199E+02  0.99282393340E+01  0.50927172321E+02  0.10000000000E+01 0.  0.
    9000005    1    3    3    0    0 -0.27187609610E+01  0.49865973199E+02 -0.74689105496E+02  0.89852487022E+02  0.10000000000E+01 0.  0.
<mgrwt>
<rscale>  0 0.12499977E+03</rscale>
<asrwt>0</asrwt>
<pdfrwt beam="2">  1        4 0.15810810E-01 0.12499977E+03</pdfrwt>
<pdfrwt beam="1">  1       -4 0.58475995E-02 0.12499977E+03</pdfrwt>
<totfact> 0.10117505E+04</totfact>
</mgrwt>
</event>
<event>
 5    1  0.3330238E-002  0.1249897E+03  0.7818608E-02  0.1235085E+00
          4   -1    0    0  501    0  0.00000000000E+00  0.00000000000E+00  0.13884235143E+03  0.13884815970E+03  0.12700000000E+01 0. -1.
         -4   -1    0    0    0  501 -0.00000000000E+00 -0.00000000000E+00 -0.28109063066E+02  0.28137738474E+02  0.12700000000E+01 0. -1.
         25    2    1    2    0    0  0.00000000000E+00  0.00000000000E+00  0.11073328837E+03  0.16698589817E+03  0.12498971572E+03 0.  0.
    9000005    1    3    3    0    0  0.95034179028E+01 -0.57429381895E+02  0.25013966001E+02  0.63365190378E+02  0.10000000000E+01 0.  0.
    9000005    1    3    3    0    0 -0.95034179028E+01  0.57429381895E+02  0.85719322367E+02  0.10362070779E+03  0.10000000000E+01 0.  0.
<mgrwt>
<rscale>  0 0.12498972E+03</rscale>
<asrwt>0</asrwt>
<pdfrwt beam="1">  1        4 0.21363014E-01 0.12498972E+03</pdfrwt>
<pdfrwt beam="2">  1       -4 0.43271239E-02 0.12498972E+03</pdfrwt>
<totfact> 0.96034792E+03</totfact>
</mgrwt>
</event>
<event>
 5    1  0.3330238E-002  0.1249964E+03  0.7818608E-02  0.1235075E+00
          4   -1    0    0  501    0  0.00000000000E+00  0.00000000000E+00  0.13383128719E+02  0.13443252371E+02  0.12700000000E+01 0.  1.
         -4   -1    0    0    0  501 -0.00000000000E+00 -0.00000000000E+00 -0.29114618501E+03  0.29114895491E+03  0.12700000000E+01 0.  1.
         25    2    1    2    0    0  0.00000000000E+00  0.00000000000E+00 -0.27776305629E+03  0.30459220728E+03  0.12499638914E+03 0.  0.
    9000005    1    3    3    0    0 -0.38044899946E+02 -0.29001954681E+02 -0.40908008527E+02  0.62952306939E+02  0.10000000000E+01 0.  0.
    9000005    1    3    3    0    0  0.38044899946E+02  0.29001954681E+02 -0.23685504776E+03  0.24163990034E+03  0.10000000000E+01 0.  0.
<mgrwt>
<rscale>  0 0.12499639E+03</rscale>
<asrwt>0</asrwt>
<pdfrwt beam="1">  1        4 0.20637811E-02 0.12499639E+03</pdfrwt>
<pdfrwt beam="2">  1       -4 0.44796554E-01 0.12499639E+03</pdfrwt>
<totfact> 0.75032402E+03</totfact>
</mgrwt>
</event>
<event>
 5    1  0.3330238E-002  0.1249997E+03  0.7818608E-02  0.1235070E+00
          4   -1    0    0  501    0  0.00000000000E+00  0.00000000000E+00  0.30484099570E+02  0.30510542877E+02  0.12700000000E+01 0. -1.
         -4   -1    0    0    0  501 -0.00000000000E+00 -0.00000000000E+00 -0.12805485256E+03  0.12806115010E+03  0.12700000000E+01 0. -1.
         25    2    1    2    0    0  0.00000000000E+00  0.00000000000E+00 -0.97570752988E+02  0.15857169297E+03  0.12499971989E+03 0.  0.
    9000005    1    3    3    0    0 -0.22441933089E+02 -0.12252417198E+02 -0.12112171563E+03  0.12379512141E+03  0.10000000000E+01 0.  0.
    9000005    1    3    3    0    0  0.22441933089E+02  0.12252417198E+02  0.23550962644E+02  0.34776571559E+02  0.10000000000E+01 0.  0.
<mgrwt>
<rscale>  0 0.12499972E+03</rscale>
<asrwt>0</asrwt>
<pdfrwt beam="1">  1        4 0.46923801E-02 0.12499972E+03</pdfrwt>
<pdfrwt beam="2">  1       -4 0.19703265E-01 0.12499972E+03</pdfrwt>
<totfact> 0.97619475E+03</totfact>
</mgrwt>
</event>
<event>
 5    1  0.3330238E-002  0.1250019E+03  0.7818608E-02  0.1235066E+00
          4   -1    0    0  501    0  0.00000000000E+00  0.00000000000E+00  0.13366620216E+02  0.13426817791E+02  0.12700000000E+01 0. -1.
         -4   -1    0    0    0  501 -0.00000000000E+00 -0.00000000000E+00 -0.29152998689E+03  0.29153275314E+03  0.12700000000E+01 0. -1.
         25    2    1    2    0    0  0.00000000000E+00  0.00000000000E+00 -0.27816336667E+03  0.30495957093E+03  0.12500192537E+03 0.  0.
    9000005    1    3    3    0    0 -0.55996689974E+01  0.49584348259E+02 -0.23086550800E+03  0.23619874400E+03  0.10000000000E+01 0.  0.
    9000005    1    3    3    0    0  0.55996689974E+01 -0.49584348259E+02 -0.47297858672E+02  0.68760826930E+02  0.10000000000E+01 0.  0.
<mgrwt>
<rscale>  0 0.12500193E+03</rscale>
<asrwt>0</asrwt>
<pdfrwt beam="1">  1        4 0.20612467E-02 0.12500193E+03</pdfrwt>
<pdfrwt beam="2">  1       -4 0.44855606E-01 0.12500193E+03</pdfrwt>
<totfact> 0.74977700E+03</totfact>
</mgrwt>
</event>
<event>
 5    1  0.3330238E-002  0.1250005E+03  0.7818608E-02  0.1235068E+00
         -4   -1    0    0    0  501 -0.00000000000E+00  0.00000000000E+00  0.65947677673E+01  0.67159408800E+01  0.12700000000E+01 0.  1.
          4   -1    0    0  501    0  0.00000000000E+00 -0.00000000000E+00 -0.58681662120E+03  0.58681799548E+03  0.12700000000E+01 0.  1.
         25    2    1    2    0    0  0.00000000000E+00  0.00000000000E+00 -0.58022185343E+03  0.59353393636E+03  0.12500053763E+03 0.  0.
    9000005    1    3    3    0    0  0.14971028717E+02 -0.18854529728E+02 -0.16286298098E+02  0.29083818488E+02  0.10000000000E+01 0.  0.
    9000005    1    3    3    0    0 -0.14971028717E+02  0.18854529728E+02 -0.56393555534E+03  0.56445011787E+03  0.10000000000E+01 0.  0.
<mgrwt>
<rscale>  0 0.12500054E+03</rscale>
<asrwt>0</asrwt>
<pdfrwt beam="2">  1        4 0.90288866E-01 0.12500054E+03</pdfrwt>
<pdfrwt beam="1">  1       -4 0.10240068E-02 0.12500054E+03</pdfrwt>
<totfact> 0.49277763E+03</totfact>
</mgrwt>
</event>
<event>
 5    1  0.3330238E-002  0.1249975E+03  0.7818608E-02  0.1235073E+00
         -4   -1    0    0    0  501 -0.00000000000E+00  0.00000000000E+00  0.72647872953E+02  0.72658972911E+02  0.12700000000E+01 0. -1.
          4   -1    0    0  501    0  0.00000000000E+00 -0.00000000000E+00 -0.53744802013E+02  0.53759805091E+02  0.12700000000E+01 0. -1.
         25    2    1    2    0    0  0.00000000000E+00  0.00000000000E+00  0.18903070939E+02  0.12641877800E+03  0.12499752534E+03 0.  0.
    9000005    1    3    3    0    0  0.22505144190E+02 -0.46825255606E+02  0.44574041336E+02  0.68461165917E+02  0.10000000000E+01 0.  0.
    9000005    1    3    3    0    0 -0.22505144190E+02  0.46825255606E+02 -0.25670970397E+02  0.57957612086E+02  0.10000000000E+01 0.  0.
<mgrwt>
<rscale>  0 0.12499753E+03</rscale>
<asrwt>0</asrwt>
<pdfrwt beam="2">  1        4 0.82704390E-02 0.12499753E+03</pdfrwt>
<pdfrwt beam="1">  1       -4 0.11178604E-01 0.12499753E+03</pdfrwt>
<totfact> 0.10422382E+04</totfact>
</mgrwt>
</event>
<event>
 5    1  0.3330238E-002  0.1249999E+03  0.7818608E-02  0.1235069E+00
          4   -1    0    0  501    0  0.00000000000E+00  0.00000000000E+00  0.36512955891E+02  0.36535035896E+02  0.12700000000E+01 0.  1.
         -4   -1    0    0    0  501 -0.00000000000E+00 -0.00000000000E+00 -0.10692421361E+03  0.10693175560E+03  0.12700000000E+01 0.  1.
         25    2    1    2    0    0  0.00000000000E+00  0.00000000000E+00 -0.70411257720E+02  0.14346679150E+03  0.12499990020E+03 0.  0.
    9000005    1    3    3    0    0  0.41822998171E+02 -0.33327649565E+02 -0.72314029846E+02  0.89945618648E+02  0.10000000000E+01 0.  0.
    9000005    1    3    3    0    0 -0.41822998171E+02  0.33327649565E+02  0.19027721257E+01  0.53521172851E+02  0.10000000000E+01 0.  0.
<mgrwt>
<rscale>  0 0.12499990E+03</rscale>
<asrwt>0</asrwt>
<pdfrwt beam="1">  1        4 0.56196565E-02 0.12499990E+03</pdfrwt>
<pdfrwt beam="2">  1       -4 0.16452158E-01 0.12499990E+03</pdfrwt>
<totfact> 0.10062256E+04</totfact>
</mgrwt>
</event>
<event>
 5    1  0.3330238E-002  0.1250010E+03  0.7818608E-02  0.1235068E+00
         -4   -1    0    0    0  501 -0.00000000000E+00  0.00000000000E+00  0.71557994488E+02  0.71569263481E+02  0.12700000000E+01 0.  1.
          4   -1    0    0  501    0  0.00000000000E+00 -0.00000000000E+00 -0.54566481149E+02  0.54581258368E+02  0.12700000000E+01 0.  1.
         25    2    1    2    0    0  0.00000000000E+00  0.00000000000E+00  0.16991513339E+02  0.12615052185E+03  0.12500097054E+03 0.  0.
    9000005    1    3    3    0    0  0.14183171849E+02 -0.55799469303E+02  0.33020837408E+02  0.66378602285E+02  0.10000000000E+01 0.  0.
    9000005    1    3    3    0    0 -0.14183171849E+02  0.55799469303E+02 -0.16029324069E+02  0.59771919564E+02  0.10000000000E+01 0.  0.
<mgrwt>
<rscale>  0 0.12500097E+03</rscale>
<asrwt>0</asrwt>
<pdfrwt beam="2">  1        4 0.83968468E-02 0.12500097E+03</pdfrwt>
<pdfrwt beam="1">  1       -4 0.11010926E-01 0.12500097E+03</pdfrwt>
<totfact> 0.10427433E+04</totfact>
</mgrwt>
</event>
<event>
 5    1  0.3330238E-002  0.1249988E+03  0.7818608E-02  0.1235071E+00
          4   -1    0    0  501    0  0.00000000000E+00  0.00000000000E+00  0.87604985580E+01  0.88520751796E+01  0.12700000000E+01 0.  1.
         -4   -1    0    0    0  501 -0.00000000000E+00 -0.00000000000E+00 -0.44347398941E+03  0.44347580788E+03  0.12700000000E+01 0.  1.
         25    2    1    2    0    0  0.00000000000E+00  0.00000000000E+00 -0.43471349085E+03  0.45232788306E+03  0.12499877869E+03 0.  0.
    9000005    1    3    3    0    0  0.61561760048E+02 -0.43206431317E+00 -0.17852790176E+03  0.18884715695E+03  0.10000000000E+01 0.  0.
    9000005    1    3    3    0    0 -0.61561760048E+02  0.43206431317E+00 -0.25618558908E+03  0.26348072612E+03  0.10000000000E+01 0.  0.
<mgrwt>
<rscale>  0 0.12499878E+03</rscale>
<asrwt>0</asrwt>
<pdfrwt beam="1">  1        4 0.13549536E-02 0.12499878E+03</pdfrwt>
<pdfrwt beam="2">  1       -4 0.68233934E-01 0.12499878E+03</pdfrwt>
<totfact> 0.59764275E+03</totfact>
</mgrwt>
</event>
<event>
 5    1  0.3330238E-002  0.1250028E+03  0.7818608E-02  0.1235065E+00
         -4   -1    0    0    0  501 -0.00000000000E+00  0.00000000000E+00  0.12772430267E+03  0.12773061650E+03  0.12700000000E+01 0. -1.
          4   -1    0    0  501    0  0.00000000000E+00 -0.00000000000E+00 -0.30564562159E+02  0.30590935912E+02  0.12700000000E+01 0. -1.
         25    2    1    2    0    0  0.00000000000E+00  0.00000000000E+00  0.97159740510E+02  0.15832155241E+03  0.12500279510E+03 0.  0.
    9000005    1    3    3    0    0  0.24736237523E+02 -0.47785255808E+02  0.88833514563E+02  0.10386387933E+03  0.10000000000E+01 0.  0.
    9000005    1    3    3    0    0 -0.24736237523E+02  0.47785255808E+02  0.83262259469E+01  0.54457673086E+02  0.10000000000E+01 0.  0.
<mgrwt>
<rscale>  0 0.12500280E+03</rscale>
<asrwt>0</asrwt>
<pdfrwt beam="2">  1        4 0.47047548E-02 0.12500280E+03</pdfrwt>
<pdfrwt beam="1">  1       -4 0.19652407E-01 0.12500280E+03</pdfrwt>
<totfact> 0.97661218E+03</totfact>
</mgrwt>
</event>
<event>
 5    1  0.3330238E-002  0.1250056E+03  0.7818608E-02  0.1235061E+00
         -4   -1    0    0    0  501 -0.00000000000E+00  0.00000000000E+00  0.51215124344E+02  0.51230868249E+02  0.12700000000E+01 0.  1.
          4   -1    0    0  501    0  0.00000000000E+00 -0.00000000000E+00 -0.76245474761E+02  0.76256051048E+02  0.12700000000E+01 0.  1.
         25    2    1    2    0    0  0.00000000000E+00  0.00000000000E+00 -0.25030350417E+02  0.12748691930E+03  0.12500558447E+03 0.  0.
    9000005    1    3    3    0    0 -0.17551769006E+02  0.53547669469E+02 -0.40073425180E+02  0.69154153212E+02  0.10000000000E+01 0.  0.
    9000005    1    3    3    0    0  0.17551769006E+02 -0.53547669469E+02  0.15043074763E+02  0.58332766085E+02  0.10000000000E+01 0.  0.
<mgrwt>
<rscale>  0 0.12500558E+03</rscale>
<asrwt>0</asrwt>
<pdfrwt beam="2">  1        4 0.11732098E-01 0.12500558E+03</pdfrwt>
<pdfrwt beam="1">  1       -4 0.78812746E-02 0.12500558E+03</pdfrwt>
<totfact> 0.10397273E+04</totfact>
</mgrwt>
</event>
<event>
 5    1  0.3330238E-002  0.1250011E+03  0.7818608E-02  0.1235068E+00
         -4   -1    0    0    0  501 -0.00000000000E+00  0.00000000000E+00  0.61249849494E+02  0.61263014643E+02  0.12700000000E+01 0.  1.
          4   -1    0    0  501    0  0.00000000000E+00 -0.00000000000E+00 -0.63750476214E+02  0.63763125061E+02  0.12700000000E+01 0.  1.
         25    2    1    2    0    0  0.00000000000E+00  0.00000000000E+00 -0.25006267194E+01  0.12502613970E+03  0.12500112990E+03 0.  0.
    9000005    1    3    3    0    0 -0.19986023787E+02  0.46918073199E+02  0.34875798540E+02  0.61790517584E+02  0.10000000000E+01 0.  0.
    9000005    1    3    3    0    0  0.19986023787E+02 -0.46918073199E+02 -0.37376425260E+02  0.63235622119E+02  0.10000000000E+01 0.  0.
<mgrwt>
<rscale>  0 0.12500113E+03</rscale>
<asrwt>0</asrwt>
<pdfrwt beam="2">  1        4 0.98097512E-02 0.12500113E+03</pdfrwt>
<pdfrwt beam="1">  1       -4 0.94250395E-02 0.12500113E+03</pdfrwt>
<totfact> 0.10452028E+04</totfact>
</mgrwt>
</event>
<event>
 5    1  0.3330238E-002  0.1249997E+03  0.7818608E-02  0.1235070E+00
         -4   -1    0    0    0  501 -0.00000000000E+00  0.00000000000E+00  0.56361594297E+01  0.57774729006E+01  0.12700000000E+01 0.  1.
          4   -1    0    0  501    0  0.00000000000E+00 -0.00000000000E+00 -0.68434316296E+03  0.68434434139E+03  0.12700000000E+01 0.  1.
         25    2    1    2    0    0  0.00000000000E+00  0.00000000000E+00 -0.67870700353E+03  0.69012181429E+03  0.12499968766E+03 0.  0.
    9000005    1    3    3    0    0  0.56495788788E+02 -0.71205109345E+01 -0.48148594451E+03  0.48484243893E+03  0.10000000000E+01 0.  0.
    9000005    1    3    3    0    0 -0.56495788788E+02  0.71205109345E+01 -0.19722105902E+03  0.20527937536E+03  0.10000000000E+01 0.  0.
<mgrwt>
<rscale>  0 0.12499969E+03</rscale>
<asrwt>0</asrwt>
<pdfrwt beam="2">  1        4 0.10529446E+00 0.12499969E+03</pdfrwt>
<pdfrwt beam="1">  1       -4 0.87806291E-03 0.12499969E+03</pdfrwt>
<totfact> 0.43613621E+03</totfact>
</mgrwt>
</event>
<event>
 5    1  0.3330238E-002  0.1249968E+03  0.7818608E-02  0.1235074E+00
          4   -1    0    0  501    0  0.00000000000E+00  0.00000000000E+00  0.32336726103E+03  0.32336975494E+03  0.12700000000E+01 0. -1.
         -4   -1    0    0    0  501 -0.00000000000E+00 -0.00000000000E+00 -0.12043378072E+02  0.12110155052E+02  0.12700000000E+01 0. -1.
         25    2    1    2    0    0  0.00000000000E+00  0.00000000000E+00  0.31132388296E+03  0.33547990999E+03  0.12499683958E+03 0.  0.
    9000005    1    3    3    0    0  0.56883733270E+02 -0.25843233638E+02  0.15886090719E+03  0.17070858112E+03  0.10000000000E+01 0.  0.
    9000005    1    3    3    0    0 -0.56883733270E+02  0.25843233638E+02  0.15246297577E+03  0.16477132887E+03  0.10000000000E+01 0.  0.
<mgrwt>
<rscale>  0 0.12499684E+03</rscale>
<asrwt>0</asrwt>
<pdfrwt beam="1">  1        4 0.49754131E-01 0.12499684E+03</pdfrwt>
<pdfrwt beam="2">  1       -4 0.18581562E-02 0.12499684E+03</pdfrwt>
<totfact> 0.71357045E+03</totfact>
</mgrwt>
</event>
<event>
 5    1  0.3330238E-002  0.1249988E+03  0.7818608E-02  0.1235071E+00
          4   -1    0    0  501    0  0.00000000000E+00  0.00000000000E+00  0.29289125657E+01  0.31924017318E+01  0.12700000000E+01 0.  1.
         -4   -1    0    0    0  501 -0.00000000000E+00 -0.00000000000E+00 -0.12759897721E+04  0.12759904041E+04  0.12700000000E+01 0.  1.
         25    2    1    2    0    0  0.00000000000E+00  0.00000000000E+00 -0.12730608595E+04  0.12791828058E+04  0.12499879482E+03 0.  0.
    9000005    1    3    3    0    0  0.36256875564E+02 -0.38088096214E+02 -0.29101919050E+03  0.29573372032E+03  0.10000000000E+01 0.  0.
    9000005    1    3    3    0    0 -0.36256875564E+02  0.38088096214E+02 -0.98204166901E+03  0.98344908550E+03  0.10000000000E+01 0.  0.
<mgrwt>
<rscale>  0 0.12499879E+03</rscale>
<asrwt>0</asrwt>
<pdfrwt beam="1">  1        4 0.47091997E-03 0.12499879E+03</pdfrwt>
<pdfrwt beam="2">  1       -4 0.19632601E+00 0.12499879E+03</pdfrwt>
<totfact> 0.22725897E+03</totfact>
</mgrwt>
</event>
<event>
 5    1  0.3330238E-002  0.1249991E+03  0.7818608E-02  0.1235071E+00
         -4   -1    0    0    0  501 -0.00000000000E+00  0.00000000000E+00  0.26165275263E+02  0.26196078515E+02  0.12700000000E+01 0.  1.
          4   -1    0    0  501    0  0.00000000000E+00 -0.00000000000E+00 -0.14916789651E+03  0.14917330274E+03  0.12700000000E+01 0.  1.
         25    2    1    2    0    0  0.00000000000E+00  0.00000000000E+00 -0.12300262125E+03  0.17536938125E+03  0.12499910018E+03 0.  0.
    9000005    1    3    3    0    0 -0.40549570969E+02 -0.36560984345E+02 -0.18849774535E+02  0.57769258971E+02  0.10000000000E+01 0.  0.
    9000005    1    3    3    0    0  0.40549570969E+02  0.36560984345E+02 -0.10415284671E+03  0.11760012228E+03  0.10000000000E+01 0.  0.
<mgrwt>
<rscale>  0 0.12499910E+03</rscale>
<asrwt>0</asrwt>
<pdfrwt beam="2">  1        4 0.22951692E-01 0.12499910E+03</pdfrwt>
<pdfrwt beam="1">  1       -4 0.40282124E-02 0.12499910E+03</pdfrwt>
<totfact> 0.94459140E+03</totfact>
</mgrwt>
</event>
<event>
 5    1  0.3330238E-002  0.1249993E+03  0.7818608E-02  0.1235070E+00
         -4   -1    0    0    0  501 -0.00000000000E+00  0.00000000000E+00  0.14559269804E+02  0.14614555663E+02  0.12700000000E+01 0.  1.
          4   -1    0    0  501    0  0.00000000000E+00 -0.00000000000E+00 -0.26773166743E+03  0.26773467957E+03  0.12700000000E+01 0.  1.
         25    2    1    2    0    0  0.00000000000E+00  0.00000000000E+00 -0.25317239763E+03  0.28234923524E+03  0.12499931087E+03 0.  0.
    9000005    1    3    3    0    0 -0.48260923755E+02 -0.34813158201E+02 -0.83482978076E+02  0.10252551085E+03  0.10000000000E+01 0.  0.
    9000005    1    3    3    0    0  0.48260923755E+02  0.34813158201E+02 -0.16968941955E+03  0.17982372439E+03  0.10000000000E+01 0.  0.
<mgrwt>
<rscale>  0 0.12499931E+03</rscale>
<asrwt>0</asrwt>
<pdfrwt beam="2">  1        4 0.41193968E-01 0.12499931E+03</pdfrwt>
<pdfrwt beam="1">  1       -4 0.22443723E-02 0.12499931E+03</pdfrwt>
<totfact> 0.77868836E+03</totfact>
</mgrwt>
</event>
<event>
 5    1  0.3330238E-002  0.1249999E+03  0.7818608E-02  0.1235069E+00
         -4   -1    0    0    0  501 -0.00000000000E+00  0.00000000000E+00  0.11014596565E+03  0.11015328706E+03  0.12700000000E+01 0. -1.
          4   -1    0    0  501    0  0.00000000000E+00 -0.00000000000E+00 -0.35444385800E+02  0.35467131047E+02  0.12700000000E+01 0. -1.
         25    2    1    2    0    0  0.00000000000E+00  0.00000000000E+00  0.74701579851E+02  0.14562041810E+03  0.12499992054E+03 0.  0.
    9000005    1    3    3    0    0 -0.15850563223E+02  0.60146167917E+02  0.44383465401E+02  0.76417889729E+02  0.10000000000E+01 0.  0.
    9000005    1    3    3    0    0  0.15850563223E+02 -0.60146167917E+02  0.30318114450E+02  0.69202528374E+02  0.10000000000E+01 0.  0.
<mgrwt>
<rscale>  0 0.12499992E+03</rscale>
<asrwt>0</asrwt>
<pdfrwt beam="2">  1        4 0.54552952E-02 0.12499992E+03</pdfrwt>
<pdfrwt beam="1">  1       -4 0.16947846E-01 0.12499992E+03</pdfrwt>
<totfact> 0.10018416E+04</totfact>
</mgrwt>
</event>
<event>
 5    1  0.3330238E-002  0.1249996E+03  0.7818608E-02  0.1235070E+00
         -4   -1    0    0    0  501 -0.00000000000E+00  0.00000000000E+00  0.38331057809E+03  0.38331268199E+03  0.12700000000E+01 0.  1.
          4   -1    0    0  501    0  0.00000000000E+00 -0.00000000000E+00 -0.10149045000E+02  0.10228197027E+02  0.12700000000E+01 0.  1.
         25    2    1    2    0    0  0.00000000000E+00  0.00000000000E+00  0.37316153309E+03  0.39354087902E+03  0.12499957472E+03 0.  0.
    9000005    1    3    3    0    0 -0.77889844728E+01  0.59023357851E+01 -0.77437994851E+01  0.12508887932E+02  0.10000000000E+01 0.  0.
    9000005    1    3    3    0    0  0.77889844728E+01 -0.59023357851E+01  0.38090533258E+03  0.38103199109E+03  0.10000000000E+01 0.  0.
<mgrwt>
<rscale>  0 0.12499957E+03</rscale>
<asrwt>0</asrwt>
<pdfrwt beam="2">  1        4 0.15676418E-02 0.12499957E+03</pdfrwt>
<pdfrwt beam="1">  1       -4 0.58977116E-01 0.12499957E+03</pdfrwt>
<totfact> 0.65186486E+03</totfact>
</mgrwt>
</event>
<event>
 5    1  0.3330238E-002  0.1250063E+03  0.7818608E-02  0.1235059E+00
          4   -1    0    0  501    0  0.00000000000E+00  0.00000000000E+00  0.77569470515E+03  0.77569574480E+03  0.12700000000E+01 0.  1.
         -4   -1    0    0    0  501 -0.00000000000E+00 -0.00000000000E+00 -0.49551950596E+01  0.51153551273E+01  0.12700000000E+01 0.  1.
         25    2    1    2    0    0  0.00000000000E+00  0.00000000000E+00  0.77073951009E+03  0.78081109993E+03  0.12500632525E+03 0.  0.
    9000005    1    3    3    0    0  0.18285576184E+02  0.44118168314E+01  0.13115733906E+02  0.22953189322E+02  0.10000000000E+01 0.  0.
    9000005    1    3    3    0    0 -0.18285576184E+02 -0.44118168314E+01  0.75762377619E+03  0.75785791061E+03  0.10000000000E+01 0.  0.
<mgrwt>
<rscale>  0 0.12500633E+03</rscale>
<asrwt>0</asrwt>
<pdfrwt beam="1">  1        4 0.11934999E+00 0.12500633E+03</pdfrwt>
<pdfrwt beam="2">  1       -4 0.77473804E-03 0.12500633E+03</pdfrwt>
<totfact> 0.39130461E+03</totfact>
</mgrwt>
</event>
<event>
 5    1  0.3330238E-002  0.1249935E+03  0.7818608E-02  0.1235079E+00
         -4   -1    0    0    0  501 -0.00000000000E+00  0.00000000000E+00  0.25122755485E+02  0.25154835383E+02  0.12700000000E+01 0. -1.
          4   -1    0    0  501    0  0.00000000000E+00 -0.00000000000E+00 -0.15533641057E+03  0.15534160212E+03  0.12700000000E+01 0. -1.
         25    2    1    2    0    0  0.00000000000E+00  0.00000000000E+00 -0.13021365509E+03  0.18049643750E+03  0.12499347175E+03 0.  0.
    9000005    1    3    3    0    0 -0.34454631467E+02  0.15346685101E+02  0.68380132999E+01  0.38345805494E+02  0.10000000000E+01 0.  0.
    9000005    1    3    3    0    0  0.34454631467E+02 -0.15346685101E+02 -0.13705166839E+03  0.14215063201E+03  0.10000000000E+01 0.  0.
<mgrwt>
<rscale>  0 0.12499347E+03</rscale>
<asrwt>0</asrwt>
<pdfrwt beam="2">  1        4 0.23900776E-01 0.12499347E+03</pdfrwt>
<pdfrwt beam="1">  1       -4 0.38679064E-02 0.12499347E+03</pdfrwt>
<totfact> 0.93541410E+03</totfact>
</mgrwt>
</event>
<event>
 5    1  0.3330238E-002  0.1249996E+03  0.7818608E-02  0.1235070E+00
         -4   -1    0    0    0  501 -0.00000000000E+00  0.00000000000E+00  0.21871767743E+02  0.21908608450E+02  0.12700000000E+01 0. -1.
          4   -1    0    0  501    0  0.00000000000E+00 -0.00000000000E+00 -0.17840715139E+03  0.17841167161E+03  0.12700000000E+01 0. -1.
         25    2    1    2    0    0  0.00000000000E+00  0.00000000000E+00 -0.15653538365E+03  0.20032028006E+03  0.12499955308E+03 0.  0.
    9000005    1    3    3    0    0 -0.20362578827E+02  0.58446507127E+02 -0.64426730974E+02  0.89344459682E+02  0.10000000000E+01 0.  0.
    9000005    1    3    3    0    0  0.20362578827E+02 -0.58446507127E+02 -0.92108652676E+02  0.11097582038E+03  0.10000000000E+01 0.  0.
<mgrwt>
<rscale>  0 0.12499955E+03</rscale>
<asrwt>0</asrwt>
<pdfrwt beam="2">  1        4 0.27450435E-01 0.12499955E+03</pdfrwt>
<pdfrwt beam="1">  1       -4 0.33680691E-02 0.12499955E+03</pdfrwt>
<totfact> 0.90082418E+03</totfact>
</mgrwt>
</event>
<event>
 4    1  0.3330238E-002  0.1246454E+03  0.7818608E-02  0.1235625E+00
          4   -1    0    0  501    0  0.00000000000E+00  0.00000000000E+00  0.17740311267E+04  0.17740315813E+04  0.12700000000E+01 0.  1.
         -4   -1    0    0    0  501 -0.00000000000E+00 -0.00000000000E+00 -0.20047684960E+01  0.23731828253E+01  0.12700000000E+01 0.  1.
    9000005    1    1    2    0    0  0.52506168720E+02 -0.32727246433E+02  0.99184804867E+03  0.99377639440E+03  0.10000000000E+01 0.  0.
    9000005    1    1    2    0    0 -0.52506168720E+02  0.32727246433E+02  0.78017830956E+03  0.78262836974E+03  0.10000000000E+01 0.  0.
<mgrwt>
<rscale>  0 0.12464538E+03</rscale>
<asrwt>0</asrwt>
<pdfrwt beam="1">  1        4 0.27295631E+00 0.12464538E+03</pdfrwt>
<pdfrwt beam="2">  1       -4 0.33680037E-03 0.12464538E+03</pdfrwt>
<totfact> 0.13172723E+03</totfact>
</mgrwt>
</event>
<event>
 5    1  0.3330238E-002  0.1249856E+03  0.7818608E-02  0.1235092E+00
         -4   -1    0    0    0  501 -0.00000000000E+00  0.00000000000E+00  0.99494058901E+01  0.10030133477E+02  0.12700000000E+01 0. -1.
          4   -1    0    0  501    0  0.00000000000E+00 -0.00000000000E+00 -0.39085328798E+03  0.39085535128E+03  0.12700000000E+01 0. -1.
         25    2    1    2    0    0  0.00000000000E+00  0.00000000000E+00 -0.38090388209E+03  0.40088548476E+03  0.12498561717E+03 0.  0.
    9000005    1    3    3    0    0 -0.59970043864E+02 -0.67960839446E+01 -0.13855874184E+03  0.15113609052E+03  0.10000000000E+01 0.  0.
    9000005    1    3    3    0    0  0.59970043864E+02  0.67960839446E+01 -0.24234514026E+03  0.24974939424E+03  0.10000000000E+01 0.  0.
<mgrwt>
<rscale>  0 0.12498562E+03</rscale>
<asrwt>0</asrwt>
<pdfrwt beam="2">  1        4 0.60137632E-01 0.12498562E+03</pdfrwt>
<pdfrwt beam="1">  1       -4 0.15370467E-02 0.12498562E+03</pdfrwt>
<totfact> 0.64487238E+03</totfact>
</mgrwt>
</event>
<event>
 5    1  0.3330238E-002  0.1250040E+03  0.7818608E-02  0.1235063E+00
         -4   -1    0    0    0  501 -0.00000000000E+00  0.00000000000E+00  0.45802918637E+01  0.47531014671E+01  0.12700000000E+01 0. -1.
          4   -1    0    0  501    0  0.00000000000E+00 -0.00000000000E+00 -0.83692812044E+03  0.83692908403E+03  0.12700000000E+01 0. -1.
         25    2    1    2    0    0  0.00000000000E+00  0.00000000000E+00 -0.83234782858E+03  0.84168218549E+03  0.12500397448E+03 0.  0.
    9000005    1    3    3    0    0  0.16151363843E+02  0.10059419803E+02 -0.81698234777E+03  0.81720451237E+03  0.10000000000E+01 0.  0.
    9000005    1    3    3    0    0 -0.16151363843E+02 -0.10059419803E+02 -0.15365480812E+02  0.24477673119E+02  0.10000000000E+01 0.  0.
<mgrwt>
<rscale>  0 0.12500397E+03</rscale>
<asrwt>0</asrwt>
<pdfrwt beam="2">  1        4 0.12877142E+00 0.12500397E+03</pdfrwt>
<pdfrwt beam="1">  1       -4 0.71802812E-03 0.12500397E+03</pdfrwt>
<totfact> 0.36467001E+03</totfact>
</mgrwt>
</event>
<event>
 5    1  0.3330238E-002  0.1249965E+03  0.7818608E-02  0.1235075E+00
          4   -1    0    0  501    0  0.00000000000E+00  0.00000000000E+00  0.40732529910E+03  0.40732727896E+03  0.12700000000E+01 0.  1.
         -4   -1    0    0    0  501 -0.00000000000E+00 -0.00000000000E+00 -0.95454025110E+01  0.96295175942E+01  0.12700000000E+01 0.  1.
         25    2    1    2    0    0  0.00000000000E+00  0.00000000000E+00  0.39777989659E+03  0.41695679656E+03  0.12499649621E+03 0.  0.
    9000005    1    3    3    0    0 -0.21902428270E+02 -0.57622505351E+02  0.23306493013E+03  0.24108158607E+03  0.10000000000E+01 0.  0.
    9000005    1    3    3    0    0  0.21902428270E+02  0.57622505351E+02  0.16471496646E+03  0.17587521048E+03  0.10000000000E+01 0.  0.
<mgrwt>
<rscale>  0 0.12499650E+03</rscale>
<asrwt>0</asrwt>
<pdfrwt beam="1">  1        4 0.62672044E-01 0.12499650E+03</pdfrwt>
<pdfrwt beam="2">  1       -4 0.14751464E-02 0.12499650E+03</pdfrwt>
<totfact> 0.62941208E+03</totfact>
</mgrwt>
</event>
<event>
 5    1  0.3330238E-002  0.1249922E+03  0.7818608E-02  0.1235082E+00
         -4   -1    0    0    0  501 -0.00000000000E+00  0.00000000000E+00  0.38902857822E+02  0.38923582141E+02  0.12700000000E+01 0. -1.
          4   -1    0    0  501    0  0.00000000000E+00 -0.00000000000E+00 -0.10034630689E+03  0.10035434323E+03  0.12700000000E+01 0. -1.
         25    2    1    2    0    0  0.00000000000E+00  0.00000000000E+00 -0.61443449064E+02  0.13927792537E+03  0.12499217201E+03 0.  0.
    9000005    1    3    3    0    0 -0.47360501585E+02  0.20304601911E+02  0.86660854427E+01  0.52262749698E+02  0.10000000000E+01 0.  0.
    9000005    1    3    3    0    0  0.47360501585E+02 -0.20304601911E+02 -0.70109534507E+02  0.87015175676E+02  0.10000000000E+01 0.  0.
<mgrwt>
<rscale>  0 0.12499217E+03</rscale>
<asrwt>0</asrwt>
<pdfrwt beam="2">  1        4 0.15440106E-01 0.12499217E+03</pdfrwt>
<pdfrwt beam="1">  1       -4 0.59872674E-02 0.12499217E+03</pdfrwt>
<totfact> 0.10150363E+04</totfact>
</mgrwt>
</event>
<event>
 5    1  0.3330238E-002  0.1249968E+03  0.7818608E-02  0.1235074E+00
         -4   -1    0    0    0  501 -0.00000000000E+00  0.00000000000E+00  0.17992331600E+03  0.17992779813E+03  0.12700000000E+01 0. -1.
          4   -1    0    0  501    0  0.00000000000E+00 -0.00000000000E+00 -0.21686194226E+02  0.21723349649E+02  0.12700000000E+01 0. -1.
         25    2    1    2    0    0  0.00000000000E+00  0.00000000000E+00  0.15823712177E+03  0.20165114778E+03  0.12499679473E+03 0.  0.
    9000005    1    3    3    0    0  0.14286488467E+02  0.34749227202E+02  0.15967514324E+03  0.16403890975E+03  0.10000000000E+01 0.  0.
    9000005    1    3    3    0    0 -0.14286488467E+02 -0.34749227202E+02 -0.14380214649E+01  0.37612238030E+02  0.10000000000E+01 0.  0.
<mgrwt>
<rscale>  0 0.12499679E+03</rscale>
<asrwt>0</asrwt>
<pdfrwt beam="2">  1        4 0.33395405E-02 0.12499679E+03</pdfrwt>
<pdfrwt beam="1">  1       -4 0.27683712E-01 0.12499679E+03</pdfrwt>
<totfact> 0.89864217E+03</totfact>
</mgrwt>
</event>
<event>
 5    1  0.3330238E-002  0.1249929E+03  0.7818608E-02  0.1235080E+00
         -4   -1    0    0    0  501 -0.00000000000E+00  0.00000000000E+00  0.12397281081E+02  0.12462161859E+02  0.12700000000E+01 0.  1.
          4   -1    0    0  501    0  0.00000000000E+00 -0.00000000000E+00 -0.31416487617E+03  0.31416744312E+03  0.12700000000E+01 0.  1.
         25    2    1    2    0    0  0.00000000000E+00  0.00000000000E+00 -0.30176759509E+03  0.32662960498E+03  0.12499286942E+03 0.  0.
    9000005    1    3    3    0    0 -0.18686165022E+02 -0.10227974817E+02  0.26288116024E+01  0.21487086413E+02  0.10000000000E+01 0.  0.
    9000005    1    3    3    0    0  0.18686165022E+02  0.10227974817E+02 -0.30439640669E+03  0.30514251857E+03  0.10000000000E+01 0.  0.
<mgrwt>
<rscale>  0 0.12499287E+03</rscale>
<asrwt>0</asrwt>
<pdfrwt beam="2">  1        4 0.48338240E-01 0.12499287E+03</pdfrwt>
<pdfrwt beam="1">  1       -4 0.19124625E-02 0.12499287E+03</pdfrwt>
<totfact> 0.72385938E+03</totfact>
</mgrwt>
</event>
<event>
 5    1  0.3330238E-002  0.1249993E+03  0.7818608E-02  0.1235070E+00
         -4   -1    0    0    0  501 -0.00000000000E+00  0.00000000000E+00  0.31915989139E+02  0.31941247044E+02  0.12700000000E+01 0.  1.
          4   -1    0    0  501    0  0.00000000000E+00 -0.00000000000E+00 -0.12231327705E+03  0.12231987019E+03  0.12700000000E+01 0.  1.
         25    2    1    2    0    0  0.00000000000E+00  0.00000000000E+00 -0.90397287909E+02  0.15426111723E+03  0.12499929051E+03 0.  0.
    9000005    1    3    3    0    0 -0.22489249140E+02 -0.45954451506E+02 -0.91492532582E+00  0.51180221067E+02  0.10000000000E+01 0.  0.
    9000005    1    3    3    0    0  0.22489249140E+02  0.45954451506E+02 -0.89482362583E+02  0.10308089616E+03  0.10000000000E+01 0.  0.
<mgrwt>
<rscale>  0 0.12499929E+03</rscale>
<asrwt>0</asrwt>
<pdfrwt beam="2">  1        4 0.18819877E-01 0.12499929E+03</pdfrwt>
<pdfrwt beam="1">  1       -4 0.49126023E-02 0.12499929E+03</pdfrwt>
<totfact> 0.98462318E+03</totfact>
</mgrwt>
</event>
<event>
 5    1  0.3330238E-002  0.1250004E+03  0.7818608E-02  0.1235069E+00
         -4   -1    0    0    0  501 -0.00000000000E+00  0.00000000000E+00  0.88669355153E+02  0.88678449711E+02  0.12700000000E+01 0.  1.
          4   -1    0    0  501    0  0.00000000000E+00 -0.00000000000E+00 -0.44033880160E+02  0.44052190660E+02  0.12700000000E+01 0.  1.
         25    2    1    2    0    0  0.00000000000E+00  0.00000000000E+00  0.44635474992E+02  0.13273064037E+03  0.12500038906E+03 0.  0.
    9000005    1    3    3    0    0  0.11277550384E+02 -0.49890271281E+02 -0.15805962589E+02  0.53544848161E+02  0.10000000000E+01 0.  0.
    9000005    1    3    3    0    0 -0.11277550384E+02  0.49890271281E+02  0.60441437581E+02  0.79185792211E+02  0.10000000000E+01 0.  0.
<mgrwt>
<rscale>  0 0.12500039E+03</rscale>
<asrwt>0</asrwt>
<pdfrwt beam="2">  1        4 0.67765513E-02 0.12500039E+03</pdfrwt>
<pdfrwt beam="1">  1       -4 0.13643547E-01 0.12500039E+03</pdfrwt>
<totfact> 0.10286038E+04</totfact>
</mgrwt>
</event>
<event>
 5    1  0.3330238E-002  0.1250000E+03  0.7818608E-02  0.1235069E+00
         -4   -1    0    0    0  501 -0.00000000000E+00  0.00000000000E+00  0.30153720982E+03  0.30153988427E+03  0.12700000000E+01 0. -1.
          4   -1    0    0  501    0  0.00000000000E+00 -0.00000000000E+00 -0.12920585887E+02  0.12982851754E+02  0.12700000000E+01 0. -1.
         25    2    1    2    0    0  0.00000000000E+00  0.00000000000E+00  0.28861662394E+03  0.31452273603E+03  0.12499998347E+03 0.  0.
    9000005    1    3    3    0    0  0.33449839448E+02  0.51241402023E+02  0.11241368732E+03  0.12799378945E+03  0.10000000000E+01 0.  0.
    9000005    1    3    3    0    0 -0.33449839448E+02 -0.51241402023E+02  0.17620293661E+03  0.18652894658E+03  0.10000000000E+01 0.  0.
<mgrwt>
<rscale>  0 0.12499998E+03</rscale>
<asrwt>0</asrwt>
<pdfrwt beam="2">  1        4 0.19927781E-02 0.12499998E+03</pdfrwt>
<pdfrwt beam="1">  1       -4 0.46395329E-01 0.12499998E+03</pdfrwt>
<totfact> 0.73812374E+03</totfact>
</mgrwt>
</event>
<event>
 5    1  0.3330238E-002  0.1250009E+03  0.7818608E-02  0.1235068E+00
          4   -1    0    0  501    0  0.00000000000E+00  0.00000000000E+00  0.14611820880E+02  0.14666908652E+02  0.12700000000E+01 0.  1.
         -4   -1    0    0    0  501 -0.00000000000E+00 -0.00000000000E+00 -0.26677922165E+03  0.26678224454E+03  0.12700000000E+01 0.  1.
         25    2    1    2    0    0  0.00000000000E+00  0.00000000000E+00 -0.25216740077E+03  0.28144915320E+03  0.12500091129E+03 0.  0.
    9000005    1    3    3    0    0 -0.33566072451E+02 -0.50607835012E+02 -0.92879791620E+02  0.11097517685E+03  0.10000000000E+01 0.  0.
    9000005    1    3    3    0    0  0.33566072451E+02  0.50607835012E+02 -0.15928760915E+03  0.17047397635E+03  0.10000000000E+01 0.  0.
<mgrwt>
<rscale>  0 0.12500091E+03</rscale>
<asrwt>0</asrwt>
<pdfrwt beam="1">  1        4 0.22524427E-02 0.12500091E+03</pdfrwt>
<pdfrwt beam="2">  1       -4 0.41047424E-01 0.12500091E+03</pdfrwt>
<totfact> 0.77984772E+03</totfact>
</mgrwt>
</event>
<event>
 5    1  0.3330238E-002  0.1250026E+03  0.7818608E-02  0.1235065E+00
         -4   -1    0    0    0  501 -0.00000000000E+00  0.00000000000E+00  0.11963486309E+03  0.11964160383E+03  0.12700000000E+01 0.  1.
          4   -1    0    0  501    0  0.00000000000E+00 -0.00000000000E+00 -0.32632766417E+02  0.32657469958E+02  0.12700000000E+01 0.  1.
         25    2    1    2    0    0  0.00000000000E+00  0.00000000000E+00  0.87002096674E+02  0.15229907379E+03  0.12500257218E+03 0.  0.
    9000005    1    3    3    0    0  0.24072182708E+02  0.56801866434E+02  0.55653539223E+02  0.83091747116E+02  0.10000000000E+01 0.  0.
    9000005    1    3    3    0    0 -0.24072182708E+02 -0.56801866434E+02  0.31348557450E+02  0.69207326671E+02  0.10000000000E+01 0.  0.
<mgrwt>
<rscale>  0 0.12500257E+03</rscale>
<asrwt>0</asrwt>
<pdfrwt beam="2">  1        4 0.50228443E-02 0.12500257E+03</pdfrwt>
<pdfrwt beam="1">  1       -4 0.18407783E-01 0.12500257E+03</pdfrwt>
<totfact> 0.98841650E+03</totfact>
</mgrwt>
</event>
<event>
 5    1  0.3330238E-002  0.1249999E+03  0.7818608E-02  0.1235069E+00
          4   -1    0    0  501    0  0.00000000000E+00  0.00000000000E+00  0.42788584814E+02  0.42807427981E+02  0.12700000000E+01 0. -1.
         -4   -1    0    0    0  501 -0.00000000000E+00 -0.00000000000E+00 -0.91248396671E+02  0.91257234207E+02  0.12700000000E+01 0. -1.
         25    2    1    2    0    0  0.00000000000E+00  0.00000000000E+00 -0.48459811858E+02  0.13406466219E+03  0.12499992113E+03 0.  0.
    9000005    1    3    3    0    0  0.49709483400E+02 -0.24129558275E+02  0.70754359054E+01  0.55716515646E+02  0.10000000000E+01 0.  0.
    9000005    1    3    3    0    0 -0.49709483400E+02  0.24129558275E+02 -0.55535247763E+02  0.78348146542E+02  0.10000000000E+01 0.  0.
<mgrwt>
<rscale>  0 0.12499992E+03</rscale>
<asrwt>0</asrwt>
<pdfrwt beam="1">  1        4 0.65849885E-02 0.12499992E+03</pdfrwt>
<pdfrwt beam="2">  1       -4 0.14040344E-01 0.12499992E+03</pdfrwt>
<totfact> 0.10257841E+04</totfact>
</mgrwt>
</event>
<event>
 5    1  0.3330238E-002  0.1250448E+03  0.7818608E-02  0.1234999E+00
         -4   -1    0    0    0  501 -0.00000000000E+00  0.00000000000E+00  0.60290622620E+01  0.61613709318E+01  0.12700000000E+01 0. -1.
          4   -1    0    0  501    0  0.00000000000E+00 -0.00000000000E+00 -0.64119832001E+03  0.64119957774E+03  0.12700000000E+01 0. -1.
         25    2    1    2    0    0  0.00000000000E+00  0.00000000000E+00 -0.63516925775E+03  0.64736094867E+03  0.12504483943E+03 0.  0.
    9000005    1    3    3    0    0 -0.15307745134E+02  0.26269238826E+02 -0.34800598032E+02  0.46222089881E+02  0.10000000000E+01 0.  0.
    9000005    1    3    3    0    0  0.15307745134E+02 -0.26269238826E+02 -0.60036865972E+03  0.60113885879E+03  0.10000000000E+01 0.  0.
<mgrwt>
<rscale>  0 0.12504484E+03</rscale>
<asrwt>0</asrwt>
<pdfrwt beam="2">  1        4 0.98656116E-01 0.12504484E+03</pdfrwt>
<pdfrwt beam="1">  1       -4 0.93782289E-03 0.12504484E+03</pdfrwt>
<totfact> 0.45963029E+03</totfact>
</mgrwt>
</event>
<event>
 5    1  0.3330238E-002  0.1250012E+03  0.7818608E-02  0.1235067E+00
          4   -1    0    0  501    0  0.00000000000E+00  0.00000000000E+00  0.82604143363E+01  0.83574724054E+01  0.12700000000E+01 0. -1.
         -4   -1    0    0    0  501 -0.00000000000E+00 -0.00000000000E+00 -0.47003711195E+03  0.47003882766E+03  0.12700000000E+01 0. -1.
         25    2    1    2    0    0  0.00000000000E+00  0.00000000000E+00 -0.46177669761E+03  0.47839630006E+03  0.12500120583E+03 0.  0.
    9000005    1    3    3    0    0 -0.39514946300E+02  0.37592795268E+02 -0.11413404548E+03  0.12649991927E+03  0.10000000000E+01 0.  0.
    9000005    1    3    3    0    0  0.39514946300E+02 -0.37592795268E+02 -0.34764265213E+03  0.35189638080E+03  0.10000000000E+01 0.  0.
<mgrwt>
<rscale>  0 0.12500121E+03</rscale>
<asrwt>0</asrwt>
<pdfrwt beam="1">  1        4 0.12784313E-02 0.12500121E+03</pdfrwt>
<pdfrwt beam="2">  1       -4 0.72320979E-01 0.12500121E+03</pdfrwt>
<totfact> 0.57578874E+03</totfact>
</mgrwt>
</event>
<event>
 5    1  0.3330238E-002  0.1250006E+03  0.7818608E-02  0.1235068E+00
          4   -1    0    0  501    0  0.00000000000E+00  0.00000000000E+00  0.21099055002E+04  0.21099058824E+04  0.12700000000E+01 0. -1.
         -4   -1    0    0    0  501 -0.00000000000E+00 -0.00000000000E+00 -0.16331833292E+01  0.20688614711E+01  0.12700000000E+01 0. -1.
         25    2    1    2    0    0  0.00000000000E+00  0.00000000000E+00  0.21082723168E+04  0.21119747439E+04  0.12500062701E+03 0.  0.
    9000005    1    3    3    0    0  0.34835684972E+02  0.47624017879E+02  0.70634818793E+03  0.70880909603E+03  0.10000000000E+01 0.  0.
    9000005    1    3    3    0    0 -0.34835684972E+02 -0.47624017879E+02  0.14019241289E+04  0.14031656478E+04  0.10000000000E+01 0.  0.
<mgrwt>
<rscale>  0 0.12500063E+03</rscale>
<asrwt>0</asrwt>
<pdfrwt beam="1">  1        4 0.32463151E+00 0.12500063E+03</pdfrwt>
<pdfrwt beam="2">  1       -4 0.28480460E-03 0.12500063E+03</pdfrwt>
<totfact> 0.84697436E+02</totfact>
</mgrwt>
</event>
<event>
 5    1  0.3330238E-002  0.1249994E+03  0.7818608E-02  0.1235070E+00
          4   -1    0    0  501    0  0.00000000000E+00  0.00000000000E+00  0.74416172543E+02  0.74427008780E+02  0.12700000000E+01 0.  1.
         -4   -1    0    0    0  501 -0.00000000000E+00 -0.00000000000E+00 -0.52469141949E+02  0.52484509685E+02  0.12700000000E+01 0.  1.
         25    2    1    2    0    0  0.00000000000E+00  0.00000000000E+00  0.21947030594E+02  0.12691151847E+03  0.12499944547E+03 0.  0.
    9000005    1    3    3    0    0  0.11296152199E+02  0.38268059604E+02  0.59804618111E+02  0.71900207147E+02  0.10000000000E+01 0.  0.
    9000005    1    3    3    0    0 -0.11296152199E+02 -0.38268059604E+02 -0.37857587517E+02  0.55011311319E+02  0.10000000000E+01 0.  0.
<mgrwt>
<rscale>  0 0.12499945E+03</rscale>
<asrwt>0</asrwt>
<pdfrwt beam="1">  1        4 0.11450658E-01 0.12499945E+03</pdfrwt>
<pdfrwt beam="2">  1       -4 0.80741914E-02 0.12499945E+03</pdfrwt>
<totfact> 0.10411199E+04</totfact>
</mgrwt>
</event>
<event>
 5    1  0.3330238E-002  0.1250276E+03  0.7818608E-02  0.1235026E+00
          4   -1    0    0  501    0  0.00000000000E+00  0.00000000000E+00  0.29342633910E+02  0.29370104950E+02  0.12700000000E+01 0.  1.
         -4   -1    0    0    0  501 -0.00000000000E+00 -0.00000000000E+00 -0.13309143365E+03  0.13309749288E+03  0.12700000000E+01 0.  1.
         25    2    1    2    0    0  0.00000000000E+00  0.00000000000E+00 -0.10374879974E+03  0.16246759783E+03  0.12502762454E+03 0.  0.
    9000005    1    3    3    0    0  0.23227727220E+02  0.55090236695E+02 -0.75569936715E+02  0.96365330000E+02  0.10000000000E+01 0.  0.
    9000005    1    3    3    0    0 -0.23227727220E+02 -0.55090236695E+02 -0.28178863024E+02  0.66102267830E+02  0.10000000000E+01 0.  0.
<mgrwt>
<rscale>  0 0.12502762E+03</rscale>
<asrwt>0</asrwt>
<pdfrwt beam="1">  1        4 0.45168307E-02 0.12502762E+03</pdfrwt>
<pdfrwt beam="2">  1       -4 0.20478184E-01 0.12502762E+03</pdfrwt>
<totfact> 0.96809043E+03</totfact>
</mgrwt>
</event>
<event>
 5    1  0.3330238E-002  0.1249998E+03  0.7818608E-02  0.1235070E+00
          4   -1    0    0  501    0  0.00000000000E+00  0.00000000000E+00  0.50031305606E+02  0.50047421918E+02  0.12700000000E+01 0.  1.
         -4   -1    0    0    0  501 -0.00000000000E+00 -0.00000000000E+00 -0.78041965502E+02  0.78052298360E+02  0.12700000000E+01 0.  1.
         25    2    1    2    0    0  0.00000000000E+00  0.00000000000E+00 -0.28010659895E+02  0.12809972028E+03  0.12499976507E+03 0.  0.
    9000005    1    3    3    0    0  0.58809442260E+02 -0.13704317917E+02  0.24833272528E+01  0.60444402079E+02  0.10000000000E+01 0.  0.
    9000005    1    3    3    0    0 -0.58809442260E+02  0.13704317917E+02 -0.30493987148E+02  0.67655318199E+02  0.10000000000E+01 0.  0.
<mgrwt>
<rscale>  0 0.12499977E+03</rscale>
<asrwt>0</asrwt>
<pdfrwt beam="1">  1        4 0.76991584E-02 0.12499977E+03</pdfrwt>
<pdfrwt beam="2">  1       -4 0.12008491E-01 0.12499977E+03</pdfrwt>
<totfact> 0.10385390E+04</totfact>
</mgrwt>
</event>
<event>
 5    1  0.3330238E-002  0.1249990E+03  0.7818608E-02  0.1235071E+00
         -4   -1    0    0    0  501 -0.00000000000E+00  0.00000000000E+00  0.35291432672E+02  0.35314276434E+02  0.12700000000E+01 0.  1.
          4   -1    0    0  501    0  0.00000000000E+00 -0.00000000000E+00 -0.11062141126E+03  0.11062870120E+03  0.12700000000E+01 0.  1.
         25    2    1    2    0    0  0.00000000000E+00  0.00000000000E+00 -0.75329978583E+02  0.14594297763E+03  0.12499898818E+03 0.  0.
    9000005    1    3    3    0    0 -0.30142504194E+02  0.50822816838E+02 -0.13918623579E+02  0.60714556350E+02  0.10000000000E+01 0.  0.
    9000005    1    3    3    0    0  0.30142504194E+02 -0.50822816838E+02 -0.61411355004E+02  0.85228421280E+02  0.10000000000E+01 0.  0.
<mgrwt>
<rscale>  0 0.12499899E+03</rscale>
<asrwt>0</asrwt>
<pdfrwt beam="2">  1        4 0.17020996E-01 0.12499899E+03</pdfrwt>
<pdfrwt beam="1">  1       -4 0.54317692E-02 0.12499899E+03</pdfrwt>
<totfact> 0.10012092E+04</totfact>
</mgrwt>
</event>
<event>
 5    1  0.3330238E-002  0.1249996E+03  0.7818608E-02  0.1235070E+00
         -4   -1    0    0    0  501 -0.00000000000E+00  0.00000000000E+00  0.36724306570E+02  0.36746259579E+02  0.12700000000E+01 0.  1.
          4   -1    0    0  501    0  0.00000000000E+00 -0.00000000000E+00 -0.10630864268E+03  0.10631622834E+03  0.12700000000E+01 0.  1.
         25    2    1    2    0    0  0.00000000000E+00  0.00000000000E+00 -0.69584336108E+02  0.14306248792E+03  0.12499958247E+03 0.  0.
    9000005    1    3    3    0    0  0.58346995498E+02 -0.77551275731E+01 -0.58818842943E+02  0.83217607346E+02  0.10000000000E+01 0.  0.
    9000005    1    3    3    0    0 -0.58346995498E+02  0.77551275731E+01 -0.10765493165E+02  0.59844880570E+02  0.10000000000E+01 0.  0.
<mgrwt>
<rscale>  0 0.12499958E+03</rscale>
<asrwt>0</asrwt>
<pdfrwt beam="2">  1        4 0.16357448E-01 0.12499958E+03</pdfrwt>
<pdfrwt beam="1">  1       -4 0.56521656E-02 0.12499958E+03</pdfrwt>
<totfact> 0.10070599E+04</totfact>
</mgrwt>
</event>
<event>
 5    1  0.3330238E-002  0.1250068E+03  0.7818608E-02  0.1235059E+00
          4   -1    0    0  501    0  0.00000000000E+00  0.00000000000E+00  0.96105768507E+02  0.96114159417E+02  0.12700000000E+01 0. -1.
         -4   -1    0    0    0  501 -0.00000000000E+00 -0.00000000000E+00 -0.40629674920E+02  0.40649518867E+02  0.12700000000E+01 0. -1.
         25    2    1    2    0    0  0.00000000000E+00  0.00000000000E+00  0.55476093587E+02  0.13676367828E+03  0.12500682677E+03 0.  0.
    9000005    1    3    3    0    0 -0.17176938767E+02  0.60079573288E+02  0.26604064122E+02  0.67921856421E+02  0.10000000000E+01 0.  0.
    9000005    1    3    3    0    0  0.17176938767E+02 -0.60079573288E+02  0.28872029465E+02  0.68841821862E+02  0.10000000000E+01 0.  0.
<mgrwt>
<rscale>  0 0.12500683E+03</rscale>
<asrwt>0</asrwt>
<pdfrwt beam="1">  1        4 0.14787675E-01 0.12500683E+03</pdfrwt>
<pdfrwt beam="2">  1       -4 0.62528912E-02 0.12500683E+03</pdfrwt>
<totfact> 0.10199459E+04</totfact>
</mgrwt>
</event>
<event>
 5    1  0.3330238E-002  0.1249748E+03  0.7818608E-02  0.1235109E+00
         -4   -1    0    0    0  501 -0.00000000000E+00  0.00000000000E+00  0.72383400775E+01  0.73489092441E+01  0.12700000000E+01 0.  1.
          4   -1    0    0  501    0  0.00000000000E+00 -0.00000000000E+00 -0.53524285092E+03  0.53524435762E+03  0.12700000000E+01 0.  1.
         25    2    1    2    0    0  0.00000000000E+00  0.00000000000E+00 -0.52800451084E+03  0.54259326686E+03  0.12497475654E+03 0.  0.
    9000005    1    3    3    0    0 -0.32082689357E+02  0.51111696707E+02 -0.33427326270E+03  0.33967825755E+03  0.10000000000E+01 0.  0.
    9000005    1    3    3    0    0  0.32082689357E+02 -0.51111696707E+02 -0.19373124814E+03  0.20291500931E+03  0.10000000000E+01 0.  0.
<mgrwt>
<rscale>  0 0.12497476E+03</rscale>
<asrwt>0</asrwt>
<pdfrwt beam="2">  1        4 0.82353645E-01 0.12497476E+03</pdfrwt>
<pdfrwt beam="1">  1       -4 0.11222124E-02 0.12497476E+03</pdfrwt>
<totfact> 0.52733988E+03</totfact>
</mgrwt>
</event>
<event>
 5    1  0.3330238E-002  0.1249958E+03  0.7818608E-02  0.1235076E+00
          4   -1    0    0  501    0  0.00000000000E+00  0.00000000000E+00  0.50626916518E+02  0.50642843287E+02  0.12700000000E+01 0.  1.
         -4   -1    0    0    0  501 -0.00000000000E+00 -0.00000000000E+00 -0.77119120517E+02  0.77129577007E+02  0.12700000000E+01 0.  1.
         25    2    1    2    0    0  0.00000000000E+00  0.00000000000E+00 -0.26492203998E+02  0.12777242029E+03  0.12499581799E+03 0.  0.
    9000005    1    3    3    0    0 -0.58399223183E+02 -0.13281260292E+02  0.49862306000E+01  0.60105936802E+02  0.10000000000E+01 0.  0.
    9000005    1    3    3    0    0  0.58399223183E+02  0.13281260292E+02 -0.31478434598E+02  0.67666483491E+02  0.10000000000E+01 0.  0.
<mgrwt>
<rscale>  0 0.12499582E+03</rscale>
<asrwt>0</asrwt>
<pdfrwt beam="1">  1        4 0.77907859E-02 0.12499582E+03</pdfrwt>
<pdfrwt beam="2">  1       -4 0.11866510E-01 0.12499582E+03</pdfrwt>
<totfact> 0.10393387E+04</totfact>
</mgrwt>
</event>
<event>
 5    1  0.3330238E-002  0.1250001E+03  0.7818608E-02  0.1235069E+00
         -4   -1    0    0    0  501 -0.00000000000E+00  0.00000000000E+00  0.51583420016E+02  0.51599051547E+02  0.12700000000E+01 0.  1.
          4   -1    0    0  501    0  0.00000000000E+00 -0.00000000000E+00 -0.75694525761E+02  0.75705179018E+02  0.12700000000E+01 0.  1.
         25    2    1    2    0    0  0.00000000000E+00  0.00000000000E+00 -0.24111105745E+02  0.12730423057E+03  0.12500008680E+03 0.  0.
    9000005    1    3    3    0    0  0.25687140872E+02  0.80784664306E+01  0.45376894216E+02  0.52774552150E+02  0.10000000000E+01 0.  0.
    9000005    1    3    3    0    0 -0.25687140872E+02 -0.80784664306E+01 -0.69487999961E+02  0.74529678415E+02  0.10000000000E+01 0.  0.
<mgrwt>
<rscale>  0 0.12500009E+03</rscale>
<asrwt>0</asrwt>
<pdfrwt beam="2">  1        4 0.11647334E-01 0.12500009E+03</pdfrwt>
<pdfrwt beam="1">  1       -4 0.79379326E-02 0.12500009E+03</pdfrwt>
<totfact> 0.10402522E+04</totfact>
</mgrwt>
</event>
<event>
 5    1  0.3330238E-002  0.1250043E+03  0.7818608E-02  0.1235063E+00
          4   -1    0    0  501    0  0.00000000000E+00  0.00000000000E+00  0.36140094309E+03  0.36140317454E+03  0.12700000000E+01 0. -1.
         -4   -1    0    0    0  501 -0.00000000000E+00 -0.00000000000E+00 -0.10769798413E+02  0.10844420586E+02  0.12700000000E+01 0. -1.
         25    2    1    2    0    0  0.00000000000E+00  0.00000000000E+00  0.35063114468E+03  0.37224759513E+03  0.12500428976E+03 0.  0.
    9000005    1    3    3    0    0  0.24868515256E+02  0.57256884399E+02  0.18411128633E+03  0.19440874368E+03  0.10000000000E+01 0.  0.
    9000005    1    3    3    0    0 -0.24868515256E+02 -0.57256884399E+02  0.16651985835E+03  0.17783885145E+03  0.10000000000E+01 0.  0.
<mgrwt>
<rscale>  0 0.12500429E+03</rscale>
<asrwt>0</asrwt>
<pdfrwt beam="1">  1        4 0.55606049E-01 0.12500429E+03</pdfrwt>
<pdfrwt beam="2">  1       -4 0.16628041E-02 0.12500429E+03</pdfrwt>
<totfact> 0.67338068E+03</totfact>
</mgrwt>
</event>
<event>
 5    1  0.3330238E-002  0.1249991E+03  0.7818608E-02  0.1235071E+00
          4   -1    0    0  501    0  0.00000000000E+00  0.00000000000E+00  0.13593126160E+03  0.13593719425E+03  0.12700000000E+01 0.  1.
         -4   -1    0    0    0  501 -0.00000000000E+00 -0.00000000000E+00 -0.28715932563E+02  0.28744002556E+02  0.12700000000E+01 0.  1.
         25    2    1    2    0    0  0.00000000000E+00  0.00000000000E+00  0.10721532904E+03  0.16468119680E+03  0.12499907920E+03 0.  0.
    9000005    1    3    3    0    0  0.60009319147E+02  0.16094301964E+02  0.62450114158E+02  0.88097455687E+02  0.10000000000E+01 0.  0.
    9000005    1    3    3    0    0 -0.60009319147E+02 -0.16094301964E+02  0.44765214877E+02  0.76583741115E+02  0.10000000000E+01 0.  0.
<mgrwt>
<rscale>  0 0.12499908E+03</rscale>
<asrwt>0</asrwt>
<pdfrwt beam="1">  1        4 0.20915117E-01 0.12499908E+03</pdfrwt>
<pdfrwt beam="2">  1       -4 0.44204515E-02 0.12499908E+03</pdfrwt>
<totfact> 0.96449798E+03</totfact>
</mgrwt>
</event>
<event>
 5    1  0.3330238E-002  0.1250002E+03  0.7818608E-02  0.1235069E+00
         -4   -1    0    0    0  501 -0.00000000000E+00  0.00000000000E+00  0.42063045579E+02  0.42082213622E+02  0.12700000000E+01 0. -1.
          4   -1    0    0  501    0  0.00000000000E+00 -0.00000000000E+00 -0.92822253723E+02  0.92830941427E+02  0.12700000000E+01 0. -1.
         25    2    1    2    0    0  0.00000000000E+00  0.00000000000E+00 -0.50759208144E+02  0.13491315505E+03  0.12500024878E+03 0.  0.
    9000005    1    3    3    0    0  0.11390469523E+02  0.20911827122E+02  0.36979631706E+02  0.43994777766E+02  0.10000000000E+01 0.  0.
    9000005    1    3    3    0    0 -0.11390469523E+02 -0.20911827122E+02 -0.87738839850E+02  0.90918377283E+02  0.10000000000E+01 0.  0.
<mgrwt>
<rscale>  0 0.12500025E+03</rscale>
<asrwt>0</asrwt>
<pdfrwt beam="2">  1        4 0.14282489E-01 0.12500025E+03</pdfrwt>
<pdfrwt beam="1">  1       -4 0.64733806E-02 0.12500025E+03</pdfrwt>
<totfact> 0.10239844E+04</totfact>
</mgrwt>
</event>
<event>
 5    1  0.3330238E-002  0.1250021E+03  0.7818608E-02  0.1235066E+00
          4   -1    0    0  501    0  0.00000000000E+00  0.00000000000E+00  0.20274386260E+01  0.23923643916E+01  0.12700000000E+01 0. -1.
         -4   -1    0    0    0  501 -0.00000000000E+00 -0.00000000000E+00 -0.17673069142E+04  0.17673073705E+04  0.12700000000E+01 0. -1.
         25    2    1    2    0    0  0.00000000000E+00  0.00000000000E+00 -0.17652794756E+04  0.17696997349E+04  0.12500209938E+03 0.  0.
    9000005    1    3    3    0    0 -0.21293425482E+02  0.48359124058E+02 -0.41024905068E+03  0.41363909201E+03  0.10000000000E+01 0.  0.
    9000005    1    3    3    0    0  0.21293425482E+02 -0.48359124058E+02 -0.13550304249E+04  0.13560606429E+04  0.10000000000E+01 0.  0.
<mgrwt>
<rscale>  0 0.12500210E+03</rscale>
<asrwt>0</asrwt>
<pdfrwt beam="1">  1        4 0.34002136E-03 0.12500210E+03</pdfrwt>
<pdfrwt beam="2">  1       -4 0.27192035E+00 0.12500210E+03</pdfrwt>
<totfact> 0.13175650E+03</totfact>
</mgrwt>
</event>
<event>
 5    1  0.3330238E-002  0.1249994E+03  0.7818608E-02  0.1235070E+00
         -4   -1    0    0    0  501 -0.00000000000E+00  0.00000000000E+00  0.31837470537E+01  0.34277026275E+01  0.12700000000E+01 0.  1.
          4   -1    0    0  501    0  0.00000000000E+00 -0.00000000000E+00 -0.11814065826E+04  0.11814072652E+04  0.12700000000E+01 0.  1.
         25    2    1    2    0    0  0.00000000000E+00  0.00000000000E+00 -0.11782228356E+04  0.11848349679E+04  0.12499940331E+03 0.  0.
    9000005    1    3    3    0    0  0.53546620593E+02 -0.31271885354E+02 -0.66255858089E+03  0.66545476518E+03  0.10000000000E+01 0.  0.
    9000005    1    3    3    0    0 -0.53546620593E+02  0.31271885354E+02 -0.51566425468E+03  0.51938020269E+03  0.10000000000E+01 0.  0.
<mgrwt>
<rscale>  0 0.12499940E+03</rscale>
<asrwt>0</asrwt>
<pdfrwt beam="2">  1        4 0.18177334E+00 0.12499940E+03</pdfrwt>
<pdfrwt beam="1">  1       -4 0.50862651E-03 0.12499940E+03</pdfrwt>
<totfact> 0.25113563E+03</totfact>
</mgrwt>
</event>
<event>
 5    1  0.3330238E-002  0.1250004E+03  0.7818608E-02  0.1235069E+00
         -4   -1    0    0    0  501 -0.00000000000E+00  0.00000000000E+00  0.13239832871E+02  0.13300604289E+02  0.12700000000E+01 0. -1.
          4   -1    0    0  501    0  0.00000000000E+00 -0.00000000000E+00 -0.29430198879E+03  0.29430472899E+03  0.12700000000E+01 0. -1.
         25    2    1    2    0    0  0.00000000000E+00  0.00000000000E+00 -0.28106215592E+03  0.30760533328E+03  0.12500042229E+03 0.  0.
    9000005    1    3    3    0    0  0.58025944014E+02  0.13063545889E+02 -0.18771304352E+03  0.19691331372E+03  0.10000000000E+01 0.  0.
    9000005    1    3    3    0    0 -0.58025944014E+02 -0.13063545889E+02 -0.93349112398E+02  0.11069201956E+03  0.10000000000E+01 0.  0.
<mgrwt>
<rscale>  0 0.12500042E+03</rscale>
<asrwt>0</asrwt>
<pdfrwt beam="2">  1        4 0.45282110E-01 0.12500042E+03</pdfrwt>
<pdfrwt beam="1">  1       -4 0.20417831E-02 0.12500042E+03</pdfrwt>
<totfact> 0.74653939E+03</totfact>
</mgrwt>
</event>
<event>
 5    1  0.3330238E-002  0.1249995E+03  0.7818608E-02  0.1235070E+00
          4   -1    0    0  501    0  0.00000000000E+00  0.00000000000E+00  0.11606151199E+03  0.11606846025E+03  0.12700000000E+01 0.  1.
         -4   -1    0    0    0  501 -0.00000000000E+00 -0.00000000000E+00 -0.33636538416E+02  0.33660505294E+02  0.12700000000E+01 0.  1.
         25    2    1    2    0    0  0.00000000000E+00  0.00000000000E+00  0.82424973573E+02  0.14972896555E+03  0.12499954742E+03 0.  0.
    9000005    1    3    3    0    0 -0.47468522213E+02  0.39593629851E+02  0.30214186729E+02  0.68809978968E+02  0.10000000000E+01 0.  0.
    9000005    1    3    3    0    0  0.47468522213E+02 -0.39593629851E+02  0.52210786844E+02  0.80918986578E+02  0.10000000000E+01 0.  0.
<mgrwt>
<rscale>  0 0.12499955E+03</rscale>
<asrwt>0</asrwt>
<pdfrwt beam="1">  1        4 0.17857996E-01 0.12499955E+03</pdfrwt>
<pdfrwt beam="2">  1       -4 0.51772301E-02 0.12499955E+03</pdfrwt>
<totfact> 0.99358764E+03</totfact>
</mgrwt>
</event>
<event>
 5    1  0.3330238E-002  0.1250079E+03  0.7818608E-02  0.1235057E+00
          4   -1    0    0  501    0  0.00000000000E+00  0.00000000000E+00  0.12521295649E+02  0.12585537125E+02  0.12700000000E+01 0.  1.
         -4   -1    0    0    0  501 -0.00000000000E+00 -0.00000000000E+00 -0.31114411779E+03  0.31114670967E+03  0.12700000000E+01 0.  1.
         25    2    1    2    0    0  0.00000000000E+00  0.00000000000E+00 -0.29862282214E+03  0.32373224679E+03  0.12500791058E+03 0.  0.
    9000005    1    3    3    0    0 -0.27008124349E+02 -0.53207013819E+02 -0.19743509965E+03  0.20625722697E+03  0.10000000000E+01 0.  0.
    9000005    1    3    3    0    0  0.27008124349E+02  0.53207013819E+02 -0.10118772249E+03  0.11747501982E+03  0.10000000000E+01 0.  0.
<mgrwt>
<rscale>  0 0.12500791E+03</rscale>
<asrwt>0</asrwt>
<pdfrwt beam="1">  1        4 0.19314944E-02 0.12500791E+03</pdfrwt>
<pdfrwt beam="2">  1       -4 0.47873461E-01 0.12500791E+03</pdfrwt>
<totfact> 0.72701668E+03</totfact>
</mgrwt>
</event>
<event>
 4    1  0.3330238E-002  0.1249103E+03  0.7818608E-02  0.1235210E+00
          4   -1    0    0  501    0  0.00000000000E+00  0.00000000000E+00  0.16394939794E+02  0.16444055182E+02  0.12700000000E+01 0. -1.
         -4   -1    0    0    0  501 -0.00000000000E+00 -0.00000000000E+00 -0.23751107248E+03  0.23751446788E+03  0.12700000000E+01 0. -1.
    9000005    1    1    2    0    0 -0.13292515522E+01  0.47774217443E+02 -0.28839919501E+02  0.55829058015E+02  0.10000000000E+01 0.  0.
    9000005    1    1    2    0    0  0.13292515522E+01 -0.47774217443E+02 -0.19227621319E+03  0.19812946505E+03  0.10000000000E+01 0.  0.
<mgrwt>
<rscale>  0 0.12491032E+03</rscale>
<asrwt>0</asrwt>
<pdfrwt beam="1">  1        4 0.25263379E-02 0.12491032E+03</pdfrwt>
<pdfrwt beam="2">  1       -4 0.36544202E-01 0.12491032E+03</pdfrwt>
<totfact> 0.81924955E+03</totfact>
</mgrwt>
</event>
<event>
 5    1  0.3330238E-002  0.1249970E+03  0.7818608E-02  0.1235074E+00
         -4   -1    0    0    0  501 -0.00000000000E+00  0.00000000000E+00  0.63173542222E+02  0.63186306562E+02  0.12700000000E+01 0.  1.
          4   -1    0    0  501    0  0.00000000000E+00 -0.00000000000E+00 -0.61805152768E+02  0.61818199656E+02  0.12700000000E+01 0.  1.
         25    2    1    2    0    0  0.00000000000E+00  0.00000000000E+00  0.13683894538E+01  0.12500450622E+03  0.12499701630E+03 0.  0.
    9000005    1    3    3    0    0 -0.58793622047E+02  0.91081132293E+01  0.19801192255E+02  0.62711521547E+02  0.10000000000E+01 0.  0.
    9000005    1    3    3    0    0  0.58793622047E+02 -0.91081132293E+01 -0.18432802801E+02  0.62292984670E+02  0.10000000000E+01 0.  0.
<mgrwt>
<rscale>  0 0.12499702E+03</rscale>
<asrwt>0</asrwt>
<pdfrwt beam="2">  1        4 0.95104706E-02 0.12499702E+03</pdfrwt>
<pdfrwt beam="1">  1       -4 0.97209919E-02 0.12499702E+03</pdfrwt>
<totfact> 0.10453470E+04</totfact>
</mgrwt>
</event>
<event>
 5    1  0.3330238E-002  0.1250034E+03  0.7818608E-02  0.1235064E+00
         -4   -1    0    0    0  501 -0.00000000000E+00  0.00000000000E+00  0.14390055665E+02  0.14445989133E+02  0.12700000000E+01 0.  1.
          4   -1    0    0  501    0  0.00000000000E+00 -0.00000000000E+00 -0.27088576701E+03  0.27088874407E+03  0.12700000000E+01 0.  1.
         25    2    1    2    0    0  0.00000000000E+00  0.00000000000E+00 -0.25649571134E+03  0.28533473321E+03  0.12500344011E+03 0.  0.
    9000005    1    3    3    0    0  0.28673898622E+02 -0.14726433254E+01 -0.15451627778E+01  0.28770621623E+02  0.10000000000E+01 0.  0.
    9000005    1    3    3    0    0 -0.28673898622E+02  0.14726433254E+01 -0.25495054856E+03  0.25656411158E+03  0.10000000000E+01 0.  0.
<mgrwt>
<rscale>  0 0.12500344E+03</rscale>
<asrwt>0</asrwt>
<pdfrwt beam="2">  1        4 0.41679261E-01 0.12500344E+03</pdfrwt>
<pdfrwt beam="1">  1       -4 0.22183865E-02 0.12500344E+03</pdfrwt>
<totfact> 0.77470114E+03</totfact>
</mgrwt>
</event>
<event>
 5    1  0.3330238E-002  0.1249972E+03  0.7818608E-02  0.1235074E+00
         -4   -1    0    0    0  501 -0.00000000000E+00  0.00000000000E+00  0.31103241709E+02  0.31129159077E+02  0.12700000000E+01 0.  1.
          4   -1    0    0  501    0  0.00000000000E+00 -0.00000000000E+00 -0.12550276841E+03  0.12550919401E+03  0.12700000000E+01 0.  1.
         25    2    1    2    0    0  0.00000000000E+00  0.00000000000E+00 -0.94399526706E+02  0.15663835308E+03  0.12499721202E+03 0.  0.
    9000005    1    3    3    0    0  0.37011034439E+02 -0.48533950314E+02 -0.30400523010E+02  0.68194961710E+02  0.10000000000E+01 0.  0.
    9000005    1    3    3    0    0 -0.37011034439E+02  0.48533950314E+02 -0.63999003696E+02  0.88443391372E+02  0.10000000000E+01 0.  0.
<mgrwt>
<rscale>  0 0.12499721E+03</rscale>
<asrwt>0</asrwt>
<pdfrwt beam="2">  1        4 0.19310606E-01 0.12499721E+03</pdfrwt>
<pdfrwt beam="1">  1       -4 0.47876021E-02 0.12499721E+03</pdfrwt>
<totfact> 0.98000970E+03</totfact>
</mgrwt>
</event>
<event>
 5    1  0.3330238E-002  0.1250010E+03  0.7818608E-02  0.1235068E+00
          4   -1    0    0  501    0  0.00000000000E+00  0.00000000000E+00  0.83225684014E+01  0.84189099529E+01  0.12700000000E+01 0.  1.
         -4   -1    0    0    0  501 -0.00000000000E+00 -0.00000000000E+00 -0.46656525939E+03  0.46656698787E+03  0.12700000000E+01 0.  1.
         25    2    1    2    0    0  0.00000000000E+00  0.00000000000E+00 -0.45824269099E+03  0.47498589783E+03  0.12500095714E+03 0.  0.
    9000005    1    3    3    0    0 -0.32194284314E+02 -0.28065967384E+02 -0.40246899537E+03  0.40473011094E+03  0.10000000000E+01 0.  0.
    9000005    1    3    3    0    0  0.32194284314E+02  0.28065967384E+02 -0.55773695627E+02  0.70255786890E+02  0.10000000000E+01 0.  0.
<mgrwt>
<rscale>  0 0.12500096E+03</rscale>
<asrwt>0</asrwt>
<pdfrwt beam="1">  1        4 0.12879394E-02 0.12500096E+03</pdfrwt>
<pdfrwt beam="2">  1       -4 0.71786794E-01 0.12500096E+03</pdfrwt>
<totfact> 0.57857554E+03</totfact>
</mgrwt>
</event>
<event>
 5    1  0.3330238E-002  0.1250140E+03  0.7818608E-02  0.1235047E+00
          4   -1    0    0  501    0  0.00000000000E+00  0.00000000000E+00  0.13468267436E+03  0.13468866200E+03  0.12700000000E+01 0. -1.
         -4   -1    0    0    0  501 -0.00000000000E+00 -0.00000000000E+00 -0.28989333625E+02  0.29017139143E+02  0.12700000000E+01 0. -1.
         25    2    1    2    0    0  0.00000000000E+00  0.00000000000E+00  0.10569334073E+03  0.16370580115E+03  0.12501402743E+03 0.  0.
    9000005    1    3    3    0    0 -0.45538742289E+02  0.28578533234E+02  0.11114561043E+02  0.54909407921E+02  0.10000000000E+01 0.  0.
    9000005    1    3    3    0    0  0.45538742289E+02 -0.28578533234E+02  0.94578779692E+02  0.10879639323E+03  0.10000000000E+01 0.  0.
<mgrwt>
<rscale>  0 0.12501403E+03</rscale>
<asrwt>0</asrwt>
<pdfrwt beam="1">  1        4 0.20723011E-01 0.12501403E+03</pdfrwt>
<pdfrwt beam="2">  1       -4 0.44624970E-02 0.12501403E+03</pdfrwt>
<totfact> 0.96602606E+03</totfact>
</mgrwt>
</event>
<event>
 5    1  0.3330238E-002  0.1249763E+03  0.7818608E-02  0.1235106E+00
          4   -1    0    0  501    0  0.00000000000E+00  0.00000000000E+00  0.41579664246E+02  0.41599055023E+02  0.12700000000E+01 0. -1.
         -4   -1    0    0    0  501 -0.00000000000E+00 -0.00000000000E+00 -0.93864949093E+02  0.93873540299E+02  0.12700000000E+01 0. -1.
         25    2    1    2    0    0  0.00000000000E+00  0.00000000000E+00 -0.52285284847E+02  0.13547259532E+03  0.12497629004E+03 0.  0.
    9000005    1    3    3    0    0  0.10402072237E+02 -0.11461420412E+01 -0.92913488738E+02  0.93506326727E+02  0.10000000000E+01 0.  0.
    9000005    1    3    3    0    0 -0.10402072237E+02  0.11461420412E+01  0.40628203891E+02  0.41966268596E+02  0.10000000000E+01 0.  0.
<mgrwt>
<rscale>  0 0.12497629E+03</rscale>
<asrwt>0</asrwt>
<pdfrwt beam="1">  1        4 0.63990239E-02 0.12497629E+03</pdfrwt>
<pdfrwt beam="2">  1       -4 0.14442914E-01 0.12497629E+03</pdfrwt>
<totfact> 0.10233590E+04</totfact>
</mgrwt>
</event>
<event>
 5    1  0.3330238E-002  0.1249999E+03  0.7818608E-02  0.1235069E+00
         -4   -1    0    0    0  501 -0.00000000000E+00  0.00000000000E+00  0.47228960161E+03  0.47229130914E+03  0.12700000000E+01 0.  1.
          4   -1    0    0  501    0  0.00000000000E+00 -0.00000000000E+00 -0.82203857107E+01  0.83179108694E+01  0.12700000000E+01 0.  1.
         25    2    1    2    0    0  0.00000000000E+00  0.00000000000E+00  0.46406921590E+03  0.48060922001E+03  0.12499994085E+03 0.  0.
    9000005    1    3    3    0    0 -0.53241084791E+02  0.28461843639E+02  0.16997152123E+03  0.18037740347E+03  0.10000000000E+01 0.  0.
    9000005    1    3    3    0    0  0.53241084791E+02 -0.28461843639E+02  0.29409769467E+03  0.30023181654E+03  0.10000000000E+01 0.  0.
<mgrwt>
<rscale>  0 0.12499994E+03</rscale>
<asrwt>0</asrwt>
<pdfrwt beam="2">  1        4 0.12723080E-02 0.12499994E+03</pdfrwt>
<pdfrwt beam="1">  1       -4 0.72667572E-01 0.12499994E+03</pdfrwt>
<totfact> 0.57400951E+03</totfact>
</mgrwt>
</event>
<event>
 5    1  0.3330238E-002  0.1250034E+03  0.7818608E-02  0.1235064E+00
         -4   -1    0    0    0  501 -0.00000000000E+00  0.00000000000E+00  0.12458869601E+02  0.12523431308E+02  0.12700000000E+01 0. -1.
          4   -1    0    0  501    0  0.00000000000E+00 -0.00000000000E+00 -0.31267252612E+03  0.31267510533E+03  0.12700000000E+01 0. -1.
         25    2    1    2    0    0  0.00000000000E+00  0.00000000000E+00 -0.30021365652E+03  0.32519853663E+03  0.12500339463E+03 0.  0.
    9000005    1    3    3    0    0 -0.42758553855E+01 -0.57130779425E+02 -0.85159833736E+02  0.10264212673E+03  0.10000000000E+01 0.  0.
    9000005    1    3    3    0    0  0.42758553855E+01  0.57130779425E+02 -0.21505382278E+03  0.22255640991E+03  0.10000000000E+01 0.  0.
<mgrwt>
<rscale>  0 0.12500339E+03</rscale>
<asrwt>0</asrwt>
<pdfrwt beam="2">  1        4 0.48108624E-01 0.12500339E+03</pdfrwt>
<pdfrwt beam="1">  1       -4 0.19219141E-02 0.12500339E+03</pdfrwt>
<totfact> 0.72536610E+03</totfact>
</mgrwt>
</event>
<event>
 5    1  0.3330238E-002  0.1250078E+03  0.7818608E-02  0.1235057E+00
          4   -1    0    0  501    0  0.00000000000E+00  0.00000000000E+00  0.99849889148E+01  0.10065431120E+02  0.12700000000E+01 0. -1.
         -4   -1    0    0    0  501 -0.00000000000E+00 -0.00000000000E+00 -0.38961014389E+03  0.38961221378E+03  0.12700000000E+01 0. -1.
         25    2    1    2    0    0  0.00000000000E+00  0.00000000000E+00 -0.37962515498E+03  0.39967764490E+03  0.12500784591E+03 0.  0.
    9000005    1    3    3    0    0 -0.22365801614E+01  0.59747467590E+02 -0.13164616381E+03  0.14459071416E+03  0.10000000000E+01 0.  0.
    9000005    1    3    3    0    0  0.22365801614E+01 -0.59747467590E+02 -0.24797899117E+03  0.25508693074E+03  0.10000000000E+01 0.  0.
<mgrwt>
<rscale>  0 0.12500785E+03</rscale>
<asrwt>0</asrwt>
<pdfrwt beam="1">  1        4 0.15424995E-02 0.12500785E+03</pdfrwt>
<pdfrwt beam="2">  1       -4 0.59946358E-01 0.12500785E+03</pdfrwt>
<totfact> 0.64572973E+03</totfact>
</mgrwt>
</event>
<event>
 5    1  0.3330238E-002  0.1250016E+03  0.7818608E-02  0.1235067E+00
          4   -1    0    0  501    0  0.00000000000E+00  0.00000000000E+00  0.16333000877E+02  0.16382301964E+02  0.12700000000E+01 0.  1.
         -4   -1    0    0    0  501 -0.00000000000E+00 -0.00000000000E+00 -0.23875775076E+03  0.23876112843E+03  0.12700000000E+01 0.  1.
         25    2    1    2    0    0  0.00000000000E+00  0.00000000000E+00 -0.22242474988E+03  0.25514343039E+03  0.12500160284E+03 0.  0.
    9000005    1    3    3    0    0  0.41891462916E+02  0.27639638311E+02 -0.18721518863E+03  0.19382820003E+03  0.10000000000E+01 0.  0.
    9000005    1    3    3    0    0 -0.41891462916E+02 -0.27639638311E+02 -0.35209561250E+02  0.61315230364E+02  0.10000000000E+01 0.  0.
<mgrwt>
<rscale>  0 0.12500160E+03</rscale>
<asrwt>0</asrwt>
<pdfrwt beam="1">  1        4 0.25168218E-02 0.12500160E+03</pdfrwt>
<pdfrwt beam="2">  1       -4 0.36736011E-01 0.12500160E+03</pdfrwt>
<totfact> 0.81589568E+03</totfact>
</mgrwt>
</event>
<event>
 5    1  0.3330238E-002  0.1249982E+03  0.7818608E-02  0.1235072E+00
          4   -1    0    0  501    0  0.00000000000E+00  0.00000000000E+00  0.61005299932E+03  0.61005432125E+03  0.12700000000E+01 0.  1.
         -4   -1    0    0    0  501 -0.00000000000E+00 -0.00000000000E+00 -0.63386360300E+01  0.64646118771E+01  0.12700000000E+01 0.  1.
         25    2    1    2    0    0  0.00000000000E+00  0.00000000000E+00  0.60371436329E+03  0.61651893313E+03  0.12499824985E+03 0.  0.
    9000005    1    3    3    0    0 -0.10713246947E+02 -0.61541040715E+02  0.31049527808E+03  0.31671815714E+03  0.10000000000E+01 0.  0.
    9000005    1    3    3    0    0  0.10713246947E+02  0.61541040715E+02  0.29321908521E+03  0.29980077599E+03  0.10000000000E+01 0.  0.
<mgrwt>
<rscale>  0 0.12499825E+03</rscale>
<asrwt>0</asrwt>
<pdfrwt beam="1">  1        4 0.93864142E-01 0.12499825E+03</pdfrwt>
<pdfrwt beam="2">  1       -4 0.98496647E-03 0.12499825E+03</pdfrwt>
<totfact> 0.47843036E+03</totfact>
</mgrwt>
</event>
<event>
 4    1  0.3330238E-002  0.1251184E+03  0.7818608E-02  0.1234884E+00
          4   -1    0    0  501    0  0.00000000000E+00  0.00000000000E+00  0.18631103504E+02  0.18674338483E+02  0.12700000000E+01 0. -1.
         -4   -1    0    0    0  501 -0.00000000000E+00 -0.00000000000E+00 -0.20977167816E+03  0.20977552254E+03  0.12700000000E+01 0. -1.
    9000005    1    1    2    0    0  0.57743348116E+02 -0.14448382549E+02 -0.60467750042E+02  0.84855163691E+02  0.10000000000E+01 0.  0.
    9000005    1    1    2    0    0 -0.57743348116E+02  0.14448382549E+02 -0.13067282461E+03  0.14359469733E+03  0.10000000000E+01 0.  0.
<mgrwt>
<rscale>  0 0.12511842E+03</rscale>
<asrwt>0</asrwt>
<pdfrwt beam="1">  1        4 0.28699453E-02 0.12511842E+03</pdfrwt>
<pdfrwt beam="2">  1       -4 0.32276186E-01 0.12511842E+03</pdfrwt>
<totfact> 0.85322520E+03</totfact>
</mgrwt>
</event>
<event>
 5    1  0.3330238E-002  0.1250038E+03  0.7818608E-02  0.1235063E+00
          4   -1    0    0  501    0  0.00000000000E+00  0.00000000000E+00  0.23727228005E+02  0.23761192074E+02  0.12700000000E+01 0.  1.
         -4   -1    0    0    0  501 -0.00000000000E+00 -0.00000000000E+00 -0.16448735705E+03  0.16449225979E+03  0.12700000000E+01 0.  1.
         25    2    1    2    0    0  0.00000000000E+00  0.00000000000E+00 -0.14076012905E+03  0.18825345186E+03  0.12500379278E+03 0.  0.
    9000005    1    3    3    0    0 -0.30128917394E+02 -0.48098521237E+02 -0.30985821459E+02  0.64671017775E+02  0.10000000000E+01 0.  0.
    9000005    1    3    3    0    0  0.30128917394E+02  0.48098521237E+02 -0.10977430759E+03  0.12358243409E+03  0.10000000000E+01 0.  0.
<mgrwt>
<rscale>  0 0.12500379E+03</rscale>
<asrwt>0</asrwt>
<pdfrwt beam="1">  1        4 0.36533326E-02 0.12500379E+03</pdfrwt>
<pdfrwt beam="2">  1       -4 0.25308736E-01 0.12500379E+03</pdfrwt>
<totfact> 0.92144269E+03</totfact>
</mgrwt>
</event>
<event>
 5    1  0.3330238E-002  0.1249927E+03  0.7818608E-02  0.1235081E+00
         -4   -1    0    0    0  501 -0.00000000000E+00  0.00000000000E+00  0.13600530446E+03  0.13601123388E+03  0.12700000000E+01 0. -1.
          4   -1    0    0  501    0  0.00000000000E+00 -0.00000000000E+00 -0.28697373421E+02  0.28725461550E+02  0.12700000000E+01 0. -1.
         25    2    1    2    0    0  0.00000000000E+00  0.00000000000E+00  0.10730793104E+03  0.16473669543E+03  0.12499274682E+03 0.  0.
    9000005    1    3    3    0    0 -0.61828394788E+02  0.79210839819E+01  0.59444447899E+02  0.86140213371E+02  0.10000000000E+01 0.  0.
    9000005    1    3    3    0    0  0.61828394788E+02 -0.79210839819E+01  0.47863483141E+02  0.78596482058E+02  0.10000000000E+01 0.  0.
<mgrwt>
<rscale>  0 0.12499275E+03</rscale>
<asrwt>0</asrwt>
<pdfrwt beam="2">  1        4 0.44175972E-02 0.12499275E+03</pdfrwt>
<pdfrwt beam="1">  1       -4 0.20926510E-01 0.12499275E+03</pdfrwt>
<totfact> 0.96452997E+03</totfact>
</mgrwt>
</event>
<event>
 5    1  0.3330238E-002  0.1249665E+03  0.7818608E-02  0.1235122E+00
          4   -1    0    0  501    0  0.00000000000E+00  0.00000000000E+00  0.80728772474E+02  0.80738761479E+02  0.12700000000E+01 0.  1.
         -4   -1    0    0    0  501 -0.00000000000E+00 -0.00000000000E+00 -0.48340104938E+02  0.48356784895E+02  0.12700000000E+01 0.  1.
         25    2    1    2    0    0  0.00000000000E+00  0.00000000000E+00  0.32388667536E+02  0.12909554637E+03  0.12496653276E+03 0.  0.
    9000005    1    3    3    0    0 -0.27373887980E+02 -0.49714177998E+02 -0.10790177876E+02  0.57777652910E+02  0.10000000000E+01 0.  0.
    9000005    1    3    3    0    0  0.27373887980E+02  0.49714177998E+02  0.43178845412E+02  0.71317893465E+02  0.10000000000E+01 0.  0.
<mgrwt>
<rscale>  0 0.12496653E+03</rscale>
<asrwt>0</asrwt>
<pdfrwt beam="1">  1        4 0.12421863E-01 0.12496653E+03</pdfrwt>
<pdfrwt beam="2">  1       -4 0.74389907E-02 0.12496653E+03</pdfrwt>
<totfact> 0.10371728E+04</totfact>
</mgrwt>
</event>
<event>
 5    1  0.3330238E-002  0.1250012E+03  0.7818608E-02  0.1235067E+00
         -4   -1    0    0    0  501 -0.00000000000E+00  0.00000000000E+00  0.36831019896E+02  0.36852909337E+02  0.12700000000E+01 0.  1.
          4   -1    0    0  501    0  0.00000000000E+00 -0.00000000000E+00 -0.10600360293E+03  0.10601121041E+03  0.12700000000E+01 0.  1.
         25    2    1    2    0    0  0.00000000000E+00  0.00000000000E+00 -0.69172583029E+02  0.14286411975E+03  0.12500124187E+03 0.  0.
    9000005    1    3    3    0    0 -0.25850878829E+02  0.46992458582E+02 -0.71244199324E+02  0.89181248237E+02  0.10000000000E+01 0.  0.
    9000005    1    3    3    0    0  0.25850878829E+02 -0.46992458582E+02  0.20716162945E+01  0.53682871513E+02  0.10000000000E+01 0.  0.
<mgrwt>
<rscale>  0 0.12500124E+03</rscale>
<asrwt>0</asrwt>
<pdfrwt beam="2">  1        4 0.16310516E-01 0.12500124E+03</pdfrwt>
<pdfrwt beam="1">  1       -4 0.56685798E-02 0.12500124E+03</pdfrwt>
<totfact> 0.10074285E+04</totfact>
</mgrwt>
</event>
<event>
 5    1  0.3330238E-002  0.1249931E+03  0.7818608E-02  0.1235080E+00
          4   -1    0    0  501    0  0.00000000000E+00  0.00000000000E+00  0.22391382795E+02  0.22427369963E+02  0.12700000000E+01 0.  1.
         -4   -1    0    0    0  501 -0.00000000000E+00 -0.00000000000E+00 -0.17425554777E+03  0.17426017568E+03  0.12700000000E+01 0.  1.
         25    2    1    2    0    0  0.00000000000E+00  0.00000000000E+00 -0.15186416497E+03  0.19668754564E+03  0.12499306384E+03 0.  0.
    9000005    1    3    3    0    0  0.23946617191E+02 -0.21709922871E+02  0.82225757843E+01  0.33367229110E+02  0.10000000000E+01 0.  0.
    9000005    1    3    3    0    0 -0.23946617191E+02  0.21709922871E+02 -0.16008674076E+03  0.16332031653E+03  0.10000000000E+01 0.  0.
<mgrwt>
<rscale>  0 0.12499306E+03</rscale>
<asrwt>0</asrwt>
<pdfrwt beam="1">  1        4 0.34479525E-02 0.12499306E+03</pdfrwt>
<pdfrwt beam="2">  1       -4 0.26811669E-01 0.12499306E+03</pdfrwt>
<totfact> 0.90710632E+03</totfact>
</mgrwt>
</event>
<event>
 5    1  0.3330238E-002  0.1249897E+03  0.7818608E-02  0.1235085E+00
         -4   -1    0    0    0  501 -0.00000000000E+00  0.00000000000E+00  0.57187702728E+03  0.57187843746E+03  0.12700000000E+01 0.  1.
          4   -1    0    0  501    0  0.00000000000E+00 -0.00000000000E+00 -0.67689792104E+01  0.68870878861E+01  0.12700000000E+01 0.  1.
         25    2    1    2    0    0  0.00000000000E+00  0.00000000000E+00  0.56510804807E+03  0.57876552535E+03  0.12498970892E+03 0.  0.
    9000005    1    3    3    0    0 -0.61892940866E+02 -0.85848458387E+01  0.28446954604E+03  0.29125308295E+03  0.10000000000E+01 0.  0.
    9000005    1    3    3    0    0  0.61892940866E+02  0.85848458387E+01  0.28063850203E+03  0.28751244239E+03  0.10000000000E+01 0.  0.
<mgrwt>
<rscale>  0 0.12498971E+03</rscale>
<asrwt>0</asrwt>
<pdfrwt beam="2">  1        4 0.10505747E-02 0.12498971E+03</pdfrwt>
<pdfrwt beam="1">  1       -4 0.87990311E-01 0.12498971E+03</pdfrwt>
<totfact> 0.50247352E+03</totfact>
</mgrwt>
</event>
<event>
 5    1  0.3330238E-002  0.1250000E+03  0.7818608E-02  0.1235069E+00
         -4   -1    0    0    0  501 -0.00000000000E+00  0.00000000000E+00  0.20075229680E+02  0.20115360964E+02  0.12700000000E+01 0. -1.
          4   -1    0    0  501    0  0.00000000000E+00 -0.00000000000E+00 -0.19434405211E+03  0.19434820166E+03  0.12700000000E+01 0. -1.
         25    2    1    2    0    0  0.00000000000E+00  0.00000000000E+00 -0.17426882243E+03  0.21446356262E+03  0.12499998890E+03 0.  0.
    9000005    1    3    3    0    0  0.80624346240E+01  0.56202554081E+02 -0.42344248186E+02  0.70836186316E+02  0.10000000000E+01 0.  0.
    9000005    1    3    3    0    0 -0.80624346240E+01 -0.56202554081E+02 -0.13192457424E+03  0.14362737631E+03  0.10000000000E+01 0.  0.
<mgrwt>
<rscale>  0 0.12499999E+03</rscale>
<asrwt>0</asrwt>
<pdfrwt beam="2">  1        4 0.29902490E-01 0.12499999E+03</pdfrwt>
<pdfrwt beam="1">  1       -4 0.30919032E-02 0.12499999E+03</pdfrwt>
<totfact> 0.87752094E+03</totfact>
</mgrwt>
</event>
<event>
 5    1  0.3330238E-002  0.1250013E+03  0.7818608E-02  0.1235067E+00
         -4   -1    0    0    0  501 -0.00000000000E+00  0.00000000000E+00  0.17767324828E+03  0.17767778717E+03  0.12700000000E+01 0. -1.
          4   -1    0    0  501    0  0.00000000000E+00 -0.00000000000E+00 -0.21962860350E+02  0.21999548512E+02  0.12700000000E+01 0. -1.
         25    2    1    2    0    0  0.00000000000E+00  0.00000000000E+00  0.15571038793E+03  0.19967733568E+03  0.12500125390E+03 0.  0.
    9000005    1    3    3    0    0  0.56502134826E+02 -0.24713367399E+02  0.61715370661E+02  0.87252671845E+02  0.10000000000E+01 0.  0.
    9000005    1    3    3    0    0 -0.56502134826E+02  0.24713367399E+02  0.93995017268E+02  0.11242466384E+03  0.10000000000E+01 0.  0.
<mgrwt>
<rscale>  0 0.12500125E+03</rscale>
<asrwt>0</asrwt>
<pdfrwt beam="2">  1        4 0.33820729E-02 0.12500125E+03</pdfrwt>
<pdfrwt beam="1">  1       -4 0.27337517E-01 0.12500125E+03</pdfrwt>
<totfact> 0.90187423E+03</totfact>
</mgrwt>
</event>
<event>
 5    1  0.3330238E-002  0.1250047E+03  0.7818608E-02  0.1235062E+00
          4   -1    0    0  501    0  0.00000000000E+00  0.00000000000E+00  0.31835350479E+02  0.31860672312E+02  0.12700000000E+01 0. -1.
         -4   -1    0    0    0  501 -0.00000000000E+00 -0.00000000000E+00 -0.12263346544E+03  0.12264004137E+03  0.12700000000E+01 0. -1.
         25    2    1    2    0    0  0.00000000000E+00  0.00000000000E+00 -0.90798114964E+02  0.15450071368E+03  0.12500469130E+03 0.  0.
    9000005    1    3    3    0    0 -0.10346812195E+02 -0.36154168887E+02 -0.10709017853E+03  0.11350544827E+03  0.10000000000E+01 0.  0.
    9000005    1    3    3    0    0  0.10346812195E+02  0.36154168887E+02  0.16292063565E+02  0.40995265406E+02  0.10000000000E+01 0.  0.
<mgrwt>
<rscale>  0 0.12500469E+03</rscale>
<asrwt>0</asrwt>
<pdfrwt beam="1">  1        4 0.49002000E-02 0.12500469E+03</pdfrwt>
<pdfrwt beam="2">  1       -4 0.18869140E-01 0.12500469E+03</pdfrwt>
<totfact> 0.98403221E+03</totfact>
</mgrwt>
</event>
<event>
 5    1  0.3330238E-002  0.1249970E+03  0.7818608E-02  0.1235074E+00
         -4   -1    0    0    0  501 -0.00000000000E+00  0.00000000000E+00  0.58038752306E+02  0.58052645669E+02  0.12700000000E+01 0. -1.
          4   -1    0    0  501    0  0.00000000000E+00 -0.00000000000E+00 -0.67273044724E+02  0.67285031370E+02  0.12700000000E+01 0. -1.
         25    2    1    2    0    0  0.00000000000E+00  0.00000000000E+00 -0.92342924186E+01  0.12533767704E+03  0.12499704448E+03 0.  0.
    9000005    1    3    3    0    0 -0.83203831164E+01  0.56731057487E+02 -0.29532870595E+02  0.64504512279E+02  0.10000000000E+01 0.  0.
    9000005    1    3    3    0    0  0.83203831164E+01 -0.56731057487E+02  0.20298578176E+02  0.60833164760E+02  0.10000000000E+01 0.  0.
<mgrwt>
<rscale>  0 0.12499704E+03</rscale>
<asrwt>0</asrwt>
<pdfrwt beam="2">  1        4 0.10351690E-01 0.12499704E+03</pdfrwt>
<pdfrwt beam="1">  1       -4 0.89310296E-02 0.12499704E+03</pdfrwt>
<totfact> 0.10446230E+04</totfact>
</mgrwt>
</event>
<event>
 5    1  0.3330238E-002  0.1250046E+03  0.7818608E-02  0.1235062E+00
          4   -1    0    0  501    0  0.00000000000E+00  0.00000000000E+00  0.10147591365E+02  0.10226754643E+02  0.12700000000E+01 0. -1.
         -4   -1    0    0    0  501 -0.00000000000E+00 -0.00000000000E+00 -0.38339615946E+03  0.38339826290E+03  0.12700000000E+01 0. -1.
         25    2    1    2    0    0  0.00000000000E+00  0.00000000000E+00 -0.37324856810E+03  0.39362501754E+03  0.12500464329E+03 0.  0.
    9000005    1    3    3    0    0  0.58978955007E+02  0.10924290949E+02 -0.24185850839E+03  0.24918747028E+03  0.10000000000E+01 0.  0.
    9000005    1    3    3    0    0 -0.58978955007E+02 -0.10924290949E+02 -0.13139005971E+03  0.14443754726E+03  0.10000000000E+01 0.  0.
<mgrwt>
<rscale>  0 0.12500464E+03</rscale>
<asrwt>0</asrwt>
<pdfrwt beam="1">  1        4 0.15674195E-02 0.12500464E+03</pdfrwt>
<pdfrwt beam="2">  1       -4 0.58990264E-01 0.12500464E+03</pdfrwt>
<totfact> 0.65170893E+03</totfact>
</mgrwt>
</event>
<event>
 5    1  0.3330238E-002  0.1249997E+03  0.7818608E-02  0.1235070E+00
          4   -1    0    0  501    0  0.00000000000E+00  0.00000000000E+00  0.19531900034E+03  0.19532312918E+03  0.12700000000E+01 0.  1.
         -4   -1    0    0    0  501 -0.00000000000E+00 -0.00000000000E+00 -0.19974736563E+02  0.20015069342E+02  0.12700000000E+01 0.  1.
         25    2    1    2    0    0  0.00000000000E+00  0.00000000000E+00  0.17534426378E+03  0.21533819852E+03  0.12499971562E+03 0.  0.
    9000005    1    3    3    0    0  0.61613631941E+02  0.48409122670E+01  0.71737473681E+02  0.94693923790E+02  0.10000000000E+01 0.  0.
    9000005    1    3    3    0    0 -0.61613631941E+02 -0.48409122670E+01  0.10360679009E+03  0.12064427473E+03  0.10000000000E+01 0.  0.
<mgrwt>
<rscale>  0 0.12499972E+03</rscale>
<asrwt>0</asrwt>
<pdfrwt beam="1">  1        4 0.30052498E-01 0.12499972E+03</pdfrwt>
<pdfrwt beam="2">  1       -4 0.30764564E-02 0.12499972E+03</pdfrwt>
<totfact> 0.87611991E+03</totfact>
</mgrwt>
</event>
<event>
 5    1  0.3330238E-002  0.1250082E+03  0.7818608E-02  0.1235056E+00
          4   -1    0    0  501    0  0.00000000000E+00  0.00000000000E+00  0.96664370563E+02  0.96672712988E+02  0.12700000000E+01 0.  1.
         -4   -1    0    0    0  501 -0.00000000000E+00 -0.00000000000E+00 -0.40395668500E+02  0.40415627343E+02  0.12700000000E+01 0.  1.
         25    2    1    2    0    0  0.00000000000E+00  0.00000000000E+00  0.56268702064E+02  0.13708834033E+03  0.12500818462E+03 0.  0.
    9000005    1    3    3    0    0  0.55923126716E+02 -0.27562265341E+02  0.23393768968E+02  0.66598370843E+02  0.10000000000E+01 0.  0.
    9000005    1    3    3    0    0 -0.55923126716E+02  0.27562265341E+02  0.32874933095E+02  0.70489969488E+02  0.10000000000E+01 0.  0.
<mgrwt>
<rscale>  0 0.12500818E+03</rscale>
<asrwt>0</asrwt>
<pdfrwt beam="1">  1        4 0.14873618E-01 0.12500818E+03</pdfrwt>
<pdfrwt beam="2">  1       -4 0.62168953E-02 0.12500818E+03</pdfrwt>
<totfact> 0.10192358E+04</totfact>
</mgrwt>
</event>
<event>
 5    1  0.3330238E-002  0.1249962E+03  0.7818608E-02  0.1235075E+00
         -4   -1    0    0    0  501 -0.00000000000E+00  0.00000000000E+00  0.10659486592E+04  0.10659494158E+04  0.12700000000E+01 0.  1.
          4   -1    0    0  501    0  0.00000000000E+00 -0.00000000000E+00 -0.35535350586E+01  0.37736602143E+01  0.12700000000E+01 0.  1.
         25    2    1    2    0    0  0.00000000000E+00  0.00000000000E+00  0.10623951242E+04  0.10697230760E+04  0.12499623780E+03 0.  0.
    9000005    1    3    3    0    0 -0.52023486429E+02  0.33992913848E+02  0.47504380418E+03  0.47909245164E+03  0.10000000000E+01 0.  0.
    9000005    1    3    3    0    0  0.52023486429E+02 -0.33992913848E+02  0.58735131998E+03  0.59063062435E+03  0.10000000000E+01 0.  0.
<mgrwt>
<rscale>  0 0.12499624E+03</rscale>
<asrwt>0</asrwt>
<pdfrwt beam="2">  1        4 0.56368908E-03 0.12499624E+03</pdfrwt>
<pdfrwt beam="1">  1       -4 0.16400895E+00 0.12499624E+03</pdfrwt>
<totfact> 0.28389201E+03</totfact>
</mgrwt>
</event>
<event>
 5    1  0.3330238E-002  0.1249990E+03  0.7818608E-02  0.1235071E+00
          4   -1    0    0  501    0  0.00000000000E+00  0.00000000000E+00  0.61087338640E+01  0.62393532855E+01  0.12700000000E+01 0.  1.
         -4   -1    0    0    0  501 -0.00000000000E+00 -0.00000000000E+00 -0.63254790638E+03  0.63254918131E+03  0.12700000000E+01 0.  1.
         25    2    1    2    0    0  0.00000000000E+00  0.00000000000E+00 -0.62643917252E+03  0.63878853459E+03  0.12499902023E+03 0.  0.
    9000005    1    3    3    0    0  0.38460555939E+02  0.21740323474E+02 -0.87359953368E+02  0.97901059649E+02  0.10000000000E+01 0.  0.
    9000005    1    3    3    0    0 -0.38460555939E+02 -0.21740323474E+02 -0.53907921915E+03  0.54088747494E+03  0.10000000000E+01 0.  0.
<mgrwt>
<rscale>  0 0.12499902E+03</rscale>
<asrwt>0</asrwt>
<pdfrwt beam="1">  1        4 0.94995143E-03 0.12499902E+03</pdfrwt>
<pdfrwt beam="2">  1       -4 0.97325157E-01 0.12499902E+03</pdfrwt>
<totfact> 0.46508242E+03</totfact>
</mgrwt>
</event>
<event>
 5    1  0.3330238E-002  0.1249945E+03  0.7818608E-02  0.1235078E+00
          4   -1    0    0  501    0  0.00000000000E+00  0.00000000000E+00  0.66090948332E+03  0.66091070353E+03  0.12700000000E+01 0.  1.
         -4   -1    0    0    0  501 -0.00000000000E+00 -0.00000000000E+00 -0.58404246714E+01  0.59769106019E+01  0.12700000000E+01 0.  1.
         25    2    1    2    0    0  0.00000000000E+00  0.00000000000E+00  0.65506905865E+03  0.66688761414E+03  0.12499447302E+03 0.  0.
    9000005    1    3    3    0    0  0.17311842495E+02 -0.59951444730E+02  0.30981594430E+03  0.31603923009E+03  0.10000000000E+01 0.  0.
    9000005    1    3    3    0    0 -0.17311842495E+02  0.59951444730E+02  0.34525311435E+03  0.35084838404E+03  0.10000000000E+01 0.  0.
<mgrwt>
<rscale>  0 0.12499447E+03</rscale>
<asrwt>0</asrwt>
<pdfrwt beam="1">  1        4 0.10168899E+00 0.12499447E+03</pdfrwt>
<pdfrwt beam="2">  1       -4 0.90911951E-03 0.12499447E+03</pdfrwt>
<totfact> 0.44898617E+03</totfact>
</mgrwt>
</event>
<event>
 5    1  0.3330238E-002  0.1249982E+03  0.7818608E-02  0.1235072E+00
         -4   -1    0    0    0  501 -0.00000000000E+00  0.00000000000E+00  0.28013717319E+01  0.30758061675E+01  0.12700000000E+01 0.  1.
          4   -1    0    0  501    0  0.00000000000E+00 -0.00000000000E+00 -0.13289805597E+04  0.13289811665E+04  0.12700000000E+01 0.  1.
         25    2    1    2    0    0  0.00000000000E+00  0.00000000000E+00 -0.13261791879E+04  0.13320569726E+04  0.12499815951E+03 0.  0.
    9000005    1    3    3    0    0 -0.58546782972E+02 -0.21838048018E+02 -0.65548796553E+03  0.65846040055E+03  0.10000000000E+01 0.  0.
    9000005    1    3    3    0    0  0.58546782972E+02  0.21838048018E+02 -0.67069122239E+03  0.67359657208E+03  0.10000000000E+01 0.  0.
<mgrwt>
<rscale>  0 0.12499816E+03</rscale>
<asrwt>0</asrwt>
<pdfrwt beam="2">  1        4 0.20447922E+00 0.12499816E+03</pdfrwt>
<pdfrwt beam="1">  1       -4 0.45213835E-03 0.12499816E+03</pdfrwt>
<totfact> 0.21485262E+03</totfact>
</mgrwt>
</event>
<event>
 5    1  0.3330238E-002  0.1250033E+03  0.7818608E-02  0.1235064E+00
          4   -1    0    0  501    0  0.00000000000E+00  0.00000000000E+00  0.19869646969E+03  0.19870052835E+03  0.12700000000E+01 0.  1.
         -4   -1    0    0    0  501 -0.00000000000E+00 -0.00000000000E+00 -0.19635634903E+02  0.19676662777E+02  0.12700000000E+01 0.  1.
         25    2    1    2    0    0  0.00000000000E+00  0.00000000000E+00  0.17906083479E+03  0.21837719113E+03  0.12500326016E+03 0.  0.
    9000005    1    3    3    0    0 -0.25813913898E+02  0.35920488535E+02  0.12409685216E+02  0.45952583545E+02  0.10000000000E+01 0.  0.
    9000005    1    3    3    0    0  0.25813913898E+02 -0.35920488535E+02  0.16665114957E+03  0.17242460759E+03  0.10000000000E+01 0.  0.
<mgrwt>
<rscale>  0 0.12500326E+03</rscale>
<asrwt>0</asrwt>
<pdfrwt beam="1">  1        4 0.30572159E-01 0.12500326E+03</pdfrwt>
<pdfrwt beam="2">  1       -4 0.30243348E-02 0.12500326E+03</pdfrwt>
<totfact> 0.87119442E+03</totfact>
</mgrwt>
</event>
<event>
 5    1  0.3330238E-002  0.1249997E+03  0.7818608E-02  0.1235070E+00
          4   -1    0    0  501    0  0.00000000000E+00  0.00000000000E+00  0.57442508812E+02  0.57456546351E+02  0.12700000000E+01 0.  1.
         -4   -1    0    0    0  501 -0.00000000000E+00 -0.00000000000E+00 -0.67974155364E+02  0.67986018397E+02  0.12700000000E+01 0.  1.
         25    2    1    2    0    0  0.00000000000E+00  0.00000000000E+00 -0.10531646552E+02  0.12544256475E+03  0.12499968589E+03 0.  0.
    9000005    1    3    3    0    0  0.42488743408E+02 -0.28941598598E+02  0.30389213881E+02  0.59727830750E+02  0.10000000000E+01 0.  0.
    9000005    1    3    3    0    0 -0.42488743408E+02  0.28941598598E+02 -0.40920860433E+02  0.65714733998E+02  0.10000000000E+01 0.  0.
<mgrwt>
<rscale>  0 0.12499969E+03</rscale>
<asrwt>0</asrwt>
<pdfrwt beam="1">  1        4 0.88393014E-02 0.12499969E+03</pdfrwt>
<pdfrwt beam="2">  1       -4 0.10459555E-01 0.12499969E+03</pdfrwt>
<totfact> 0.10443298E+04</totfact>
</mgrwt>
</event>
<event>
 5    1  0.3330238E-002  0.1250041E+03  0.7818608E-02  0.1235063E+00
          4   -1    0    0  501    0  0.00000000000E+00  0.00000000000E+00  0.15098250448E+02  0.15151569773E+02  0.12700000000E+01 0. -1.
         -4   -1    0    0    0  501 -0.00000000000E+00 -0.00000000000E+00 -0.25822812456E+03  0.25823124755E+03  0.12700000000E+01 0. -1.
         25    2    1    2    0    0  0.00000000000E+00  0.00000000000E+00 -0.24312987411E+03  0.27338281732E+03  0.12500411643E+03 0.  0.
    9000005    1    3    3    0    0  0.34688070902E+02 -0.50131056051E+02 -0.91489067083E+02  0.10994377854E+03  0.10000000000E+01 0.  0.
    9000005    1    3    3    0    0 -0.34688070902E+02  0.50131056051E+02 -0.15164080702E+03  0.16343903878E+03  0.10000000000E+01 0.  0.
<mgrwt>
<rscale>  0 0.12500412E+03</rscale>
<asrwt>0</asrwt>
<pdfrwt beam="1">  1        4 0.23271497E-02 0.12500412E+03</pdfrwt>
<pdfrwt beam="2">  1       -4 0.39731742E-01 0.12500412E+03</pdfrwt>
<totfact> 0.79056521E+03</totfact>
</mgrwt>
</event>
<event>
 5    1  0.3330238E-002  0.1250003E+03  0.7818608E-02  0.1235069E+00
          4   -1    0    0  501    0  0.00000000000E+00  0.00000000000E+00  0.52818802893E+02  0.52834068924E+02  0.12700000000E+01 0.  1.
         -4   -1    0    0    0  501 -0.00000000000E+00 -0.00000000000E+00 -0.73924584877E+02  0.73935493163E+02  0.12700000000E+01 0.  1.
         25    2    1    2    0    0  0.00000000000E+00  0.00000000000E+00 -0.21105781984E+02  0.12676956209E+03  0.12500027135E+03 0.  0.
    9000005    1    3    3    0    0  0.41079646102E+02  0.21746750649E+02 -0.52915033315E+02  0.70437626581E+02  0.10000000000E+01 0.  0.
    9000005    1    3    3    0    0 -0.41079646102E+02 -0.21746750649E+02  0.31809251331E+02  0.56331935506E+02  0.10000000000E+01 0.  0.
<mgrwt>
<rscale>  0 0.12500027E+03</rscale>
<asrwt>0</asrwt>
<pdfrwt beam="1">  1        4 0.81279830E-02 0.12500027E+03</pdfrwt>
<pdfrwt beam="2">  1       -4 0.11375027E-01 0.12500027E+03</pdfrwt>
<totfact> 0.10414092E+04</totfact>
</mgrwt>
</event>
<event>
 5    1  0.3330238E-002  0.1250286E+03  0.7818608E-02  0.1235025E+00
          4   -1    0    0  501    0  0.00000000000E+00  0.00000000000E+00  0.45189317305E+02  0.45207159814E+02  0.12700000000E+01 0.  1.
         -4   -1    0    0    0  501 -0.00000000000E+00 -0.00000000000E+00 -0.86441819813E+02  0.86451148706E+02  0.12700000000E+01 0.  1.
         25    2    1    2    0    0  0.00000000000E+00  0.00000000000E+00 -0.41252502508E+02  0.13165830852E+03  0.12502856169E+03 0.  0.
    9000005    1    3    3    0    0 -0.52167323668E+02  0.19917710151E+02 -0.50202792955E+02  0.75096373127E+02  0.10000000000E+01 0.  0.
    9000005    1    3    3    0    0  0.52167323668E+02 -0.19917710151E+02  0.89502904470E+01  0.56561935393E+02  0.10000000000E+01 0.  0.
<mgrwt>
<rscale>  0 0.12502856E+03</rscale>
<asrwt>0</asrwt>
<pdfrwt beam="1">  1        4 0.69542928E-02 0.12502856E+03</pdfrwt>
<pdfrwt beam="2">  1       -4 0.13300832E-01 0.12502856E+03</pdfrwt>
<totfact> 0.10302357E+04</totfact>
</mgrwt>
</event>
<event>
 5    1  0.3330238E-002  0.1249969E+03  0.7818608E-02  0.1235074E+00
          4   -1    0    0  501    0  0.00000000000E+00  0.00000000000E+00  0.27774575831E+01  0.30540416870E+01  0.12700000000E+01 0.  1.
         -4   -1    0    0    0  501 -0.00000000000E+00 -0.00000000000E+00 -0.13393637155E+04  0.13393643176E+04  0.12700000000E+01 0.  1.
         25    2    1    2    0    0  0.00000000000E+00  0.00000000000E+00 -0.13365862579E+04  0.13424183593E+04  0.12499690611E+03 0.  0.
    9000005    1    3    3    0    0  0.33092192382E+02  0.34877559631E+02 -0.10970067475E+04  0.10980602631E+04  0.10000000000E+01 0.  0.
    9000005    1    3    3    0    0 -0.33092192382E+02 -0.34877559631E+02 -0.23957951045E+03  0.24435809623E+03  0.10000000000E+01 0.  0.
<mgrwt>
<rscale>  0 0.12499691E+03</rscale>
<asrwt>0</asrwt>
<pdfrwt beam="1">  1        4 0.44862425E-03 0.12499691E+03</pdfrwt>
<pdfrwt beam="2">  1       -4 0.20607679E+00 0.12499691E+03</pdfrwt>
<totfact> 0.21250450E+03</totfact>
</mgrwt>
</event>
<event>
 5    1  0.3330238E-002  0.1250002E+03  0.7818608E-02  0.1235069E+00
          4   -1    0    0  501    0  0.00000000000E+00  0.00000000000E+00  0.27606494013E+02  0.27635690903E+02  0.12700000000E+01 0. -1.
         -4   -1    0    0    0  501 -0.00000000000E+00 -0.00000000000E+00 -0.14139115220E+03  0.14139685577E+03  0.12700000000E+01 0. -1.
         25    2    1    2    0    0  0.00000000000E+00  0.00000000000E+00 -0.11378465819E+03  0.16903254667E+03  0.12500021358E+03 0.  0.
    9000005    1    3    3    0    0  0.49212851052E+01  0.14996447425E+02 -0.13865811843E+03  0.13955710763E+03  0.10000000000E+01 0.  0.
    9000005    1    3    3    0    0 -0.49212851052E+01 -0.14996447425E+02  0.24873460242E+02  0.29475439044E+02  0.10000000000E+01 0.  0.
<mgrwt>
<rscale>  0 0.12500021E+03</rscale>
<asrwt>0</asrwt>
<pdfrwt beam="1">  1        4 0.42498377E-02 0.12500021E+03</pdfrwt>
<pdfrwt beam="2">  1       -4 0.21755169E-01 0.12500021E+03</pdfrwt>
<totfact> 0.95628637E+03</totfact>
</mgrwt>
</event>
<event>
 5    1  0.3330238E-002  0.1250003E+03  0.7818608E-02  0.1235069E+00
          4   -1    0    0  501    0  0.00000000000E+00  0.00000000000E+00  0.34951583358E+02  0.34974649094E+02  0.12700000000E+01 0.  1.
         -4   -1    0    0    0  501 -0.00000000000E+00 -0.00000000000E+00 -0.11169865303E+03  0.11170587267E+03  0.12700000000E+01 0.  1.
         25    2    1    2    0    0  0.00000000000E+00  0.00000000000E+00 -0.76747069669E+02  0.14668052176E+03  0.12500025104E+03 0.  0.
    9000005    1    3    3    0    0 -0.36480930668E+02 -0.18988981280E+02 -0.93585512109E+02  0.10222860553E+03  0.10000000000E+01 0.  0.
    9000005    1    3    3    0    0  0.36480930668E+02  0.18988981280E+02  0.16838442440E+02  0.44451916227E+02  0.10000000000E+01 0.  0.
<mgrwt>
<rscale>  0 0.12500025E+03</rscale>
<asrwt>0</asrwt>
<pdfrwt beam="1">  1        4 0.53794964E-02 0.12500025E+03</pdfrwt>
<pdfrwt beam="2">  1       -4 0.17186738E-01 0.12500025E+03</pdfrwt>
<totfact> 0.99968986E+03</totfact>
</mgrwt>
</event>
<event>
 5    1  0.3330238E-002  0.1249995E+03  0.7818608E-02  0.1235070E+00
         -4   -1    0    0    0  501 -0.00000000000E+00  0.00000000000E+00  0.28028180038E+02  0.28056938112E+02  0.12700000000E+01 0.  1.
          4   -1    0    0  501    0  0.00000000000E+00 -0.00000000000E+00 -0.13926448409E+03  0.13927027475E+03  0.12700000000E+01 0.  1.
         25    2    1    2    0    0  0.00000000000E+00  0.00000000000E+00 -0.11123630405E+03  0.16732721286E+03  0.12499952330E+03 0.  0.
    9000005    1    3    3    0    0 -0.39264003417E+01  0.62302089732E+02 -0.51772504767E+02  0.81107085107E+02  0.10000000000E+01 0.  0.
    9000005    1    3    3    0    0  0.39264003417E+01 -0.62302089732E+02 -0.59463799285E+02  0.86220127755E+02  0.10000000000E+01 0.  0.
<mgrwt>
<rscale>  0 0.12499952E+03</rscale>
<asrwt>0</asrwt>
<pdfrwt beam="2">  1        4 0.21427962E-01 0.12499952E+03</pdfrwt>
<pdfrwt beam="1">  1       -4 0.43146854E-02 0.12499952E+03</pdfrwt>
<totfact> 0.95949489E+03</totfact>
</mgrwt>
</event>
<event>
 5    1  0.3330238E-002  0.1249986E+03  0.7818608E-02  0.1235071E+00
         -4   -1    0    0    0  501 -0.00000000000E+00  0.00000000000E+00  0.28390495598E+01  0.31101611539E+01  0.12700000000E+01 0.  1.
          4   -1    0    0  501    0  0.00000000000E+00 -0.00000000000E+00 -0.13128991031E+04  0.13128997174E+04  0.12700000000E+01 0.  1.
         25    2    1    2    0    0  0.00000000000E+00  0.00000000000E+00 -0.13100600536E+04  0.13160098785E+04  0.12499862576E+03 0.  0.
    9000005    1    3    3    0    0 -0.42075305375E+02 -0.22751011075E+01 -0.16917274994E+03  0.17434427644E+03  0.10000000000E+01 0.  0.
    9000005    1    3    3    0    0  0.42075305375E+02  0.22751011075E+01 -0.11408873036E+04  0.11416656021E+04  0.10000000000E+01 0.  0.
<mgrwt>
<rscale>  0 0.12499863E+03</rscale>
<asrwt>0</asrwt>
<pdfrwt beam="2">  1        4 0.20200492E+00 0.12499863E+03</pdfrwt>
<pdfrwt beam="1">  1       -4 0.45767989E-03 0.12499863E+03</pdfrwt>
<totfact> 0.21854508E+03</totfact>
</mgrwt>
</event>
<event>
 5    1  0.3330238E-002  0.1249962E+03  0.7818608E-02  0.1235075E+00
         -4   -1    0    0    0  501 -0.00000000000E+00  0.00000000000E+00  0.86671558801E+01  0.87597083884E+01  0.12700000000E+01 0. -1.
          4   -1    0    0  501    0  0.00000000000E+00 -0.00000000000E+00 -0.44818136294E+03  0.44818316232E+03  0.12700000000E+01 0. -1.
         25    2    1    2    0    0  0.00000000000E+00  0.00000000000E+00 -0.43951420706E+03  0.45694287071E+03  0.12499619548E+03 0.  0.
    9000005    1    3    3    0    0  0.40121348458E+02 -0.26776520222E+02 -0.74525566763E+02  0.88779303549E+02  0.10000000000E+01 0.  0.
    9000005    1    3    3    0    0 -0.40121348458E+02  0.26776520222E+02 -0.36498864029E+03  0.36816356716E+03  0.10000000000E+01 0.  0.
<mgrwt>
<rscale>  0 0.12499620E+03</rscale>
<asrwt>0</asrwt>
<pdfrwt beam="2">  1        4 0.68958219E-01 0.12499620E+03</pdfrwt>
<pdfrwt beam="1">  1       -4 0.13406668E-02 0.12499620E+03</pdfrwt>
<totfact> 0.59372000E+03</totfact>
</mgrwt>
</event>
<event>
 5    1  0.3330238E-002  0.1249962E+03  0.7818608E-02  0.1235075E+00
         -4   -1    0    0    0  501 -0.00000000000E+00  0.00000000000E+00  0.16263312079E+03  0.16263807942E+03  0.12700000000E+01 0. -1.
          4   -1    0    0  501    0  0.00000000000E+00 -0.00000000000E+00 -0.23995196395E+02  0.24028781701E+02  0.12700000000E+01 0. -1.
         25    2    1    2    0    0  0.00000000000E+00  0.00000000000E+00  0.13863792439E+03  0.18666686112E+03  0.12499617178E+03 0.  0.
    9000005    1    3    3    0    0 -0.61300988648E+02 -0.11075451651E+02  0.76715931607E+02  0.98827177440E+02  0.10000000000E+01 0.  0.
    9000005    1    3    3    0    0  0.61300988648E+02  0.11075451651E+02  0.61921992784E+02  0.87839683679E+02  0.10000000000E+01 0.  0.
<mgrwt>
<rscale>  0 0.12499617E+03</rscale>
<asrwt>0</asrwt>
<pdfrwt beam="2">  1        4 0.36945336E-02 0.12499617E+03</pdfrwt>
<pdfrwt beam="1">  1       -4 0.25023445E-01 0.12499617E+03</pdfrwt>
<totfact> 0.92438454E+03</totfact>
</mgrwt>
</event>
<event>
 5    1  0.3330238E-002  0.1249981E+03  0.7818608E-02  0.1235072E+00
          4   -1    0    0  501    0  0.00000000000E+00  0.00000000000E+00  0.59040405998E+01  0.60390889548E+01  0.12700000000E+01 0. -1.
         -4   -1    0    0    0  501 -0.00000000000E+00 -0.00000000000E+00 -0.65398658117E+03  0.65398781430E+03  0.12700000000E+01 0. -1.
         25    2    1    2    0    0  0.00000000000E+00  0.00000000000E+00 -0.64808254057E+03  0.66002690325E+03  0.12499813449E+03 0.  0.
    9000005    1    3    3    0    0  0.42237852675E+02 -0.43646029584E+02 -0.40166721554E+03  0.40623461711E+03  0.10000000000E+01 0.  0.
    9000005    1    3    3    0    0 -0.42237852675E+02  0.43646029584E+02 -0.24641532503E+03  0.25379228614E+03  0.10000000000E+01 0.  0.
<mgrwt>
<rscale>  0 0.12499813E+03</rscale>
<asrwt>0</asrwt>
<pdfrwt beam="1">  1        4 0.91879765E-03 0.12499813E+03</pdfrwt>
<pdfrwt beam="2">  1       -4 0.10062375E+00 0.12499813E+03</pdfrwt>
<totfact> 0.45284187E+03</totfact>
</mgrwt>
</event>
<event>
 5    1  0.3330238E-002  0.1249985E+03  0.7818608E-02  0.1235072E+00
         -4   -1    0    0    0  501 -0.00000000000E+00  0.00000000000E+00  0.13882194630E+04  0.13882200439E+04  0.12700000000E+01 0. -1.
          4   -1    0    0  501    0  0.00000000000E+00 -0.00000000000E+00 -0.26698748173E+01  0.29565404682E+01  0.12700000000E+01 0. -1.
         25    2    1    2    0    0  0.00000000000E+00  0.00000000000E+00  0.13855495881E+04  0.13911765844E+04  0.12499851058E+03 0.  0.
    9000005    1    3    3    0    0  0.42972855574E+02 -0.17917574171E+02  0.22886480915E+03  0.23355471874E+03  0.10000000000E+01 0.  0.
    9000005    1    3    3    0    0 -0.42972855574E+02  0.17917574171E+02  0.11566847790E+04  0.11576218656E+04  0.10000000000E+01 0.  0.
<mgrwt>
<rscale>  0 0.12499851E+03</rscale>
<asrwt>0</asrwt>
<pdfrwt beam="2">  1        4 0.43284562E-03 0.12499851E+03</pdfrwt>
<pdfrwt beam="1">  1       -4 0.21359444E+00 0.12499851E+03</pdfrwt>
<totfact> 0.20171704E+03</totfact>
</mgrwt>
</event>
<event>
 5    1  0.3330238E-002  0.1250042E+03  0.7818608E-02  0.1235063E+00
         -4   -1    0    0    0  501 -0.00000000000E+00  0.00000000000E+00  0.58357134451E+02  0.58370952034E+02  0.12700000000E+01 0. -1.
          4   -1    0    0  501    0  0.00000000000E+00 -0.00000000000E+00 -0.66913684535E+02  0.66925735544E+02  0.12700000000E+01 0. -1.
         25    2    1    2    0    0  0.00000000000E+00  0.00000000000E+00 -0.85565500840E+01  0.12529668758E+03  0.12500418140E+03 0.  0.
    9000005    1    3    3    0    0  0.10608304102E+02 -0.50559591230E+02 -0.39527352064E+02  0.65055514312E+02  0.10000000000E+01 0.  0.
    9000005    1    3    3    0    0 -0.10608304102E+02  0.50559591230E+02  0.30970801980E+02  0.60241173266E+02  0.10000000000E+01 0.  0.
<mgrwt>
<rscale>  0 0.12500418E+03</rscale>
<asrwt>0</asrwt>
<pdfrwt beam="2">  1        4 0.10296403E-01 0.12500418E+03</pdfrwt>
<pdfrwt beam="1">  1       -4 0.89800106E-02 0.12500418E+03</pdfrwt>
<totfact> 0.10445435E+04</totfact>
</mgrwt>
</event>
<event>
 5    1  0.3330238E-002  0.1250000E+03  0.7818608E-02  0.1235069E+00
         -4   -1    0    0    0  501 -0.00000000000E+00  0.00000000000E+00  0.46490384549E+02  0.46507727912E+02  0.12700000000E+01 0.  1.
          4   -1    0    0  501    0  0.00000000000E+00 -0.00000000000E+00 -0.83984879297E+02  0.83994481071E+02  0.12700000000E+01 0.  1.
         25    2    1    2    0    0  0.00000000000E+00  0.00000000000E+00 -0.37494494747E+02  0.13050220898E+03  0.12499995765E+03 0.  0.
    9000005    1    3    3    0    0  0.75721378295E+01 -0.46110038579E+02  0.24573518229E+02  0.52804646834E+02  0.10000000000E+01 0.  0.
    9000005    1    3    3    0    0 -0.75721378295E+01  0.46110038579E+02 -0.62068012977E+02  0.77697562149E+02  0.10000000000E+01 0.  0.
<mgrwt>
<rscale>  0 0.12499996E+03</rscale>
<asrwt>0</asrwt>
<pdfrwt beam="2">  1        4 0.12922823E-01 0.12499996E+03</pdfrwt>
<pdfrwt beam="1">  1       -4 0.71544395E-02 0.12499996E+03</pdfrwt>
<totfact> 0.10333783E+04</totfact>
</mgrwt>
</event>
<event>
 5    1  0.3330238E-002  0.1250018E+03  0.7818608E-02  0.1235066E+00
          4   -1    0    0  501    0  0.00000000000E+00  0.00000000000E+00  0.20990288355E+03  0.20990672553E+03  0.12700000000E+01 0. -1.
         -4   -1    0    0    0  501 -0.00000000000E+00 -0.00000000000E+00 -0.18584651421E+02  0.18627994215E+02  0.12700000000E+01 0. -1.
         25    2    1    2    0    0  0.00000000000E+00  0.00000000000E+00  0.19131823213E+03  0.22853471975E+03  0.12500180872E+03 0.  0.
    9000005    1    3    3    0    0 -0.47071539235E+02 -0.16331672108E+02  0.16462345312E+03  0.17200097278E+03  0.10000000000E+01 0.  0.
    9000005    1    3    3    0    0  0.47071539235E+02  0.16331672108E+02  0.26694779012E+02  0.56533746969E+02  0.10000000000E+01 0.  0.
<mgrwt>
<rscale>  0 0.12500181E+03</rscale>
<asrwt>0</asrwt>
<pdfrwt beam="1">  1        4 0.32296383E-01 0.12500181E+03</pdfrwt>
<pdfrwt beam="2">  1       -4 0.28628065E-02 0.12500181E+03</pdfrwt>
<totfact> 0.85531646E+03</totfact>
</mgrwt>
</event>
<event>
 5    1  0.3330238E-002  0.1250011E+03  0.7818608E-02  0.1235068E+00
          4   -1    0    0  501    0  0.00000000000E+00  0.00000000000E+00  0.48407947590E+01  0.50046172580E+01  0.12700000000E+01 0. -1.
         -4   -1    0    0    0  501 -0.00000000000E+00 -0.00000000000E+00 -0.79336646089E+03  0.79336747738E+03  0.12700000000E+01 0. -1.
         25    2    1    2    0    0  0.00000000000E+00  0.00000000000E+00 -0.78852566613E+03  0.79837209464E+03  0.12500110140E+03 0.  0.
    9000005    1    3    3    0    0  0.39581261445E+02  0.43455143348E+02 -0.52979399247E+03  0.53304568303E+03  0.10000000000E+01 0.  0.
    9000005    1    3    3    0    0 -0.39581261445E+02 -0.43455143348E+02 -0.25873167367E+03  0.26532641161E+03  0.10000000000E+01 0.  0.
<mgrwt>
<rscale>  0 0.12500110E+03</rscale>
<asrwt>0</asrwt>
<pdfrwt beam="1">  1        4 0.75741821E-03 0.12500110E+03</pdfrwt>
<pdfrwt beam="2">  1       -4 0.12206896E+00 0.12500110E+03</pdfrwt>
<totfact> 0.38336608E+03</totfact>
</mgrwt>
</event>
<event>
 5    1  0.3330238E-002  0.1250058E+03  0.7818608E-02  0.1235060E+00
         -4   -1    0    0    0  501 -0.00000000000E+00  0.00000000000E+00  0.14125147088E+02  0.14182125379E+02  0.12700000000E+01 0. -1.
          4   -1    0    0  501    0  0.00000000000E+00 -0.00000000000E+00 -0.27595613530E+03  0.27595905767E+03  0.12700000000E+01 0. -1.
         25    2    1    2    0    0  0.00000000000E+00  0.00000000000E+00 -0.26183098821E+03  0.29014118305E+03  0.12500575872E+03 0.  0.
    9000005    1    3    3    0    0 -0.53112432307E+02 -0.32772080196E+02 -0.12333380292E+03  0.13822867520E+03  0.10000000000E+01 0.  0.
    9000005    1    3    3    0    0  0.53112432307E+02  0.32772080196E+02 -0.13849718529E+03  0.15191250785E+03  0.10000000000E+01 0.  0.
<mgrwt>
<rscale>  0 0.12500576E+03</rscale>
<asrwt>0</asrwt>
<pdfrwt beam="2">  1        4 0.42459394E-01 0.12500576E+03</pdfrwt>
<pdfrwt beam="1">  1       -4 0.21777075E-02 0.12500576E+03</pdfrwt>
<totfact> 0.76842561E+03</totfact>
</mgrwt>
</event>
<event>
 5    1  0.3330238E-002  0.1249911E+03  0.7818608E-02  0.1235083E+00
         -4   -1    0    0    0  501 -0.00000000000E+00  0.00000000000E+00  0.14220893476E+03  0.14221460553E+03  0.12700000000E+01 0.  1.
          4   -1    0    0  501    0  0.00000000000E+00 -0.00000000000E+00 -0.27443569423E+02  0.27472939462E+02  0.12700000000E+01 0.  1.
         25    2    1    2    0    0  0.00000000000E+00  0.00000000000E+00  0.11476536534E+03  0.16968754499E+03  0.12499109506E+03 0.  0.
    9000005    1    3    3    0    0 -0.16732300853E+02 -0.36814909620E+02 -0.72906258664E+01  0.41103049616E+02  0.10000000000E+01 0.  0.
    9000005    1    3    3    0    0  0.16732300853E+02  0.36814909620E+02  0.12205599120E+03  0.12858449538E+03  0.10000000000E+01 0.  0.
<mgrwt>
<rscale>  0 0.12499110E+03</rscale>
<asrwt>0</asrwt>
<pdfrwt beam="2">  1        4 0.42247832E-02 0.12499110E+03</pdfrwt>
<pdfrwt beam="1">  1       -4 0.21880992E-01 0.12499110E+03</pdfrwt>
<totfact> 0.95525999E+03</totfact>
</mgrwt>
</event>
<event>
 5    1  0.3330238E-002  0.1249984E+03  0.7818608E-02  0.1235072E+00
         -4   -1    0    0    0  501 -0.00000000000E+00  0.00000000000E+00  0.23934291839E+03  0.23934628780E+03  0.12700000000E+01 0.  1.
          4   -1    0    0  501    0  0.00000000000E+00 -0.00000000000E+00 -0.16292105138E+02  0.16341529605E+02  0.12700000000E+01 0.  1.
         25    2    1    2    0    0  0.00000000000E+00  0.00000000000E+00  0.22305081325E+03  0.25568781740E+03  0.12499837869E+03 0.  0.
    9000005    1    3    3    0    0  0.19096090083E+02  0.49710019569E+02  0.17841770916E+03  0.18619781321E+03  0.10000000000E+01 0.  0.
    9000005    1    3    3    0    0 -0.19096090083E+02 -0.49710019569E+02  0.44633104092E+02  0.69490004194E+02  0.10000000000E+01 0.  0.
<mgrwt>
<rscale>  0 0.12499838E+03</rscale>
<asrwt>0</asrwt>
<pdfrwt beam="2">  1        4 0.25105391E-02 0.12499838E+03</pdfrwt>
<pdfrwt beam="1">  1       -4 0.36826044E-01 0.12499838E+03</pdfrwt>
<totfact> 0.81517994E+03</totfact>
</mgrwt>
</event>
<event>
 5    1  0.3330238E-002  0.1250038E+03  0.7818608E-02  0.1235063E+00
         -4   -1    0    0    0  501 -0.00000000000E+00  0.00000000000E+00  0.93185171780E+03  0.93185258323E+03  0.12700000000E+01 0. -1.
          4   -1    0    0  501    0  0.00000000000E+00 -0.00000000000E+00 -0.40951045757E+01  0.42875146047E+01  0.12700000000E+01 0. -1.
         25    2    1    2    0    0  0.00000000000E+00  0.00000000000E+00  0.92775661323E+03  0.93614009783E+03  0.12500379749E+03 0.  0.
    9000005    1    3    3    0    0 -0.23262037630E+02  0.22137870599E+02  0.86537516399E+03  0.86597135181E+03  0.10000000000E+01 0.  0.
    9000005    1    3    3    0    0  0.23262037630E+02 -0.22137870599E+02  0.62381449237E+02  0.70168746022E+02  0.10000000000E+01 0.  0.
<mgrwt>
<rscale>  0 0.12500380E+03</rscale>
<asrwt>0</asrwt>
<pdfrwt beam="2">  1        4 0.64488290E-03 0.12500380E+03</pdfrwt>
<pdfrwt beam="1">  1       -4 0.14337679E+00 0.12500380E+03</pdfrwt>
<totfact> 0.32810475E+03</totfact>
</mgrwt>
</event>
<event>
 5    1  0.3330238E-002  0.1250263E+03  0.7818608E-02  0.1235028E+00
         -4   -1    0    0    0  501 -0.00000000000E+00  0.00000000000E+00  0.88841559540E+02  0.88850636472E+02  0.12700000000E+01 0.  1.
          4   -1    0    0  501    0  0.00000000000E+00 -0.00000000000E+00 -0.43966752860E+02  0.43985091305E+02  0.12700000000E+01 0.  1.
         25    2    1    2    0    0  0.00000000000E+00  0.00000000000E+00  0.44874806680E+02  0.13283572778E+03  0.12502632643E+03 0.  0.
    9000005    1    3    3    0    0 -0.38015457201E+02 -0.76256583617E+01 -0.29651091625E+02  0.48821233969E+02  0.10000000000E+01 0.  0.
    9000005    1    3    3    0    0  0.38015457201E+02  0.76256583617E+01  0.74525898305E+02  0.84014493808E+02  0.10000000000E+01 0.  0.
<mgrwt>
<rscale>  0 0.12502633E+03</rscale>
<asrwt>0</asrwt>
<pdfrwt beam="2">  1        4 0.67662248E-02 0.12502633E+03</pdfrwt>
<pdfrwt beam="1">  1       -4 0.13670041E-01 0.12502633E+03</pdfrwt>
<totfact> 0.10277788E+04</totfact>
</mgrwt>
</event>
<event>
 5    1  0.3330238E-002  0.1250222E+03  0.7818608E-02  0.1235035E+00
         -4   -1    0    0    0  501 -0.00000000000E+00  0.00000000000E+00  0.17606847313E+02  0.17652591093E+02  0.12700000000E+01 0.  1.
          4   -1    0    0  501    0  0.00000000000E+00 -0.00000000000E+00 -0.22160289244E+03  0.22160653158E+03  0.12700000000E+01 0.  1.
         25    2    1    2    0    0  0.00000000000E+00  0.00000000000E+00 -0.20399604513E+03  0.23925912267E+03  0.12502216345E+03 0.  0.
    9000005    1    3    3    0    0  0.40593805689E+02 -0.27233748202E+02 -0.27458127464E+02  0.56075688718E+02  0.10000000000E+01 0.  0.
    9000005    1    3    3    0    0 -0.40593805689E+02  0.27233748202E+02 -0.17653791766E+03  0.18318343395E+03  0.10000000000E+01 0.  0.
<mgrwt>
<rscale>  0 0.12502216E+03</rscale>
<asrwt>0</asrwt>
<pdfrwt beam="2">  1        4 0.34096549E-01 0.12502216E+03</pdfrwt>
<pdfrwt beam="1">  1       -4 0.27125446E-02 0.12502216E+03</pdfrwt>
<totfact> 0.83866385E+03</totfact>
</mgrwt>
</event>
<event>
 5    1  0.3330238E-002  0.1250071E+03  0.7818608E-02  0.1235058E+00
         -4   -1    0    0    0  501 -0.00000000000E+00  0.00000000000E+00  0.20337790875E+01  0.23977400562E+01  0.12700000000E+01 0. -1.
          4   -1    0    0  501    0  0.00000000000E+00 -0.00000000000E+00 -0.17627753611E+04  0.17627758186E+04  0.12700000000E+01 0. -1.
         25    2    1    2    0    0  0.00000000000E+00  0.00000000000E+00 -0.17607415820E+04  0.17651735586E+04  0.12500709384E+03 0.  0.
    9000005    1    3    3    0    0 -0.46670634310E+02  0.39589493648E+02 -0.70163669442E+03  0.70430144617E+03  0.10000000000E+01 0.  0.
    9000005    1    3    3    0    0  0.46670634310E+02 -0.39589493648E+02 -0.10591048876E+04  0.10608721125E+04  0.10000000000E+01 0.  0.
<mgrwt>
<rscale>  0 0.12500709E+03</rscale>
<asrwt>0</asrwt>
<pdfrwt beam="2">  1        4 0.27122312E+00 0.12500709E+03</pdfrwt>
<pdfrwt beam="1">  1       -4 0.34092269E-03 0.12500709E+03</pdfrwt>
<totfact> 0.13245810E+03</totfact>
</mgrwt>
</event>
<event>
 5    1  0.3330238E-002  0.1250022E+03  0.7818608E-02  0.1235066E+00
         -4   -1    0    0    0  501 -0.00000000000E+00  0.00000000000E+00  0.19881404642E+02  0.19921926376E+02  0.12700000000E+01 0.  1.
          4   -1    0    0  501    0  0.00000000000E+00 -0.00000000000E+00 -0.19624193953E+03  0.19624604895E+03  0.12700000000E+01 0.  1.
         25    2    1    2    0    0  0.00000000000E+00  0.00000000000E+00 -0.17636053489E+03  0.21616797533E+03  0.12500222115E+03 0.  0.
    9000005    1    3    3    0    0  0.19061309451E+02 -0.37676403110E+02 -0.85089550648E+01  0.43084187187E+02  0.10000000000E+01 0.  0.
    9000005    1    3    3    0    0 -0.19061309451E+02  0.37676403110E+02 -0.16785157982E+03  0.17308378814E+03  0.10000000000E+01 0.  0.
<mgrwt>
<rscale>  0 0.12500222E+03</rscale>
<asrwt>0</asrwt>
<pdfrwt beam="2">  1        4 0.30194499E-01 0.12500222E+03</pdfrwt>
<pdfrwt beam="1">  1       -4 0.30621109E-02 0.12500222E+03</pdfrwt>
<totfact> 0.87474032E+03</totfact>
</mgrwt>
</event>
<event>
 5    1  0.3330238E-002  0.1249967E+03  0.7818608E-02  0.1235074E+00
         -4   -1    0    0    0  501 -0.00000000000E+00  0.00000000000E+00  0.12150139023E+04  0.12150145661E+04  0.12700000000E+01 0. -1.
          4   -1    0    0  501    0  0.00000000000E+00 -0.00000000000E+00 -0.30886950164E+01  0.33396013092E+01  0.12700000000E+01 0. -1.
         25    2    1    2    0    0  0.00000000000E+00  0.00000000000E+00  0.12119252073E+04  0.12183541674E+04  0.12499667612E+03 0.  0.
    9000005    1    3    3    0    0  0.18476322691E+02  0.20153787668E+02  0.58258166258E+02  0.64362750044E+02  0.10000000000E+01 0.  0.
    9000005    1    3    3    0    0 -0.18476322691E+02 -0.20153787668E+02  0.11536670411E+04  0.11539914173E+04  0.10000000000E+01 0.  0.
<mgrwt>
<rscale>  0 0.12499668E+03</rscale>
<asrwt>0</asrwt>
<pdfrwt beam="2">  1        4 0.49453562E-03 0.12499668E+03</pdfrwt>
<pdfrwt beam="1">  1       -4 0.18694448E+00 0.12499668E+03</pdfrwt>
<totfact> 0.24239099E+03</totfact>
</mgrwt>
</event>
<event>
 5    1  0.3330238E-002  0.1250001E+03  0.7818608E-02  0.1235069E+00
         -4   -1    0    0    0  501 -0.00000000000E+00  0.00000000000E+00  0.76072761893E+02  0.76083362189E+02  0.12700000000E+01 0.  1.
          4   -1    0    0  501    0  0.00000000000E+00 -0.00000000000E+00 -0.51326932980E+02  0.51342642600E+02  0.12700000000E+01 0.  1.
         25    2    1    2    0    0  0.00000000000E+00  0.00000000000E+00  0.24745828913E+02  0.12742600479E+03  0.12500012259E+03 0.  0.
    9000005    1    3    3    0    0  0.62377817673E+02 -0.62602812140E+00  0.85758985470E+01  0.62975630880E+02  0.10000000000E+01 0.  0.
    9000005    1    3    3    0    0 -0.62377817673E+02  0.62602812140E+00  0.16169930366E+02  0.64450373908E+02  0.10000000000E+01 0.  0.
<mgrwt>
<rscale>  0 0.12500012E+03</rscale>
<asrwt>0</asrwt>
<pdfrwt beam="2">  1        4 0.78984751E-02 0.12500012E+03</pdfrwt>
<pdfrwt beam="1">  1       -4 0.11705526E-01 0.12500012E+03</pdfrwt>
<totfact> 0.10399875E+04</totfact>
</mgrwt>
</event>
<event>
 5    1  0.3330238E-002  0.1249954E+03  0.7818608E-02  0.1235076E+00
          4   -1    0    0  501    0  0.00000000000E+00  0.00000000000E+00  0.67268202641E+01  0.68456563503E+01  0.12700000000E+01 0. -1.
         -4   -1    0    0    0  501 -0.00000000000E+00 -0.00000000000E+00 -0.57545174214E+03  0.57545314356E+03  0.12700000000E+01 0. -1.
         25    2    1    2    0    0  0.00000000000E+00  0.00000000000E+00 -0.56872492187E+03  0.58229879991E+03  0.12499542237E+03 0.  0.
    9000005    1    3    3    0    0  0.49159631843E+02 -0.38128435883E+02 -0.31173200338E+03  0.31788093519E+03  0.10000000000E+01 0.  0.
    9000005    1    3    3    0    0 -0.49159631843E+02  0.38128435883E+02 -0.25699291850E+03  0.26441786472E+03  0.10000000000E+01 0.  0.
<mgrwt>
<rscale>  0 0.12499542E+03</rscale>
<asrwt>0</asrwt>
<pdfrwt beam="1">  1        4 0.10441449E-02 0.12499542E+03</pdfrwt>
<pdfrwt beam="2">  1       -4 0.88540248E-01 0.12499542E+03</pdfrwt>
<totfact> 0.50009408E+03</totfact>
</mgrwt>
</event>
<event>
 5    1  0.3330238E-002  0.1249954E+03  0.7818608E-02  0.1235076E+00
         -4   -1    0    0    0  501 -0.00000000000E+00  0.00000000000E+00  0.37210738602E+02  0.37232404802E+02  0.12700000000E+01 0. -1.
          4   -1    0    0  501    0  0.00000000000E+00 -0.00000000000E+00 -0.10491270403E+03  0.10492039062E+03  0.12700000000E+01 0. -1.
         25    2    1    2    0    0  0.00000000000E+00  0.00000000000E+00 -0.67701965431E+02  0.14215279542E+03  0.12499544441E+03 0.  0.
    9000005    1    3    3    0    0 -0.56017617342E+02 -0.34069000224E+01 -0.65107843440E+02  0.85962850685E+02  0.10000000000E+01 0.  0.
    9000005    1    3    3    0    0  0.56017617342E+02  0.34069000224E+01 -0.25941219911E+01  0.56189944735E+02  0.10000000000E+01 0.  0.
<mgrwt>
<rscale>  0 0.12499544E+03</rscale>
<asrwt>0</asrwt>
<pdfrwt beam="2">  1        4 0.16142674E-01 0.12499544E+03</pdfrwt>
<pdfrwt beam="1">  1       -4 0.57269870E-02 0.12499544E+03</pdfrwt>
<totfact> 0.10090197E+04</totfact>
</mgrwt>
</event>
<event>
 5    1  0.3330238E-002  0.1250012E+03  0.7818608E-02  0.1235067E+00
         -4   -1    0    0    0  501 -0.00000000000E+00  0.00000000000E+00  0.48843055571E+03  0.48843220682E+03  0.12700000000E+01 0.  1.
          4   -1    0    0  501    0  0.00000000000E+00 -0.00000000000E+00 -0.79456097589E+01  0.80464659597E+01  0.12700000000E+01 0.  1.
         25    2    1    2    0    0  0.00000000000E+00  0.00000000000E+00  0.48048494596E+03  0.49647867278E+03  0.12500115692E+03 0.  0.
    9000005    1    3    3    0    0  0.23011809197E+02 -0.50376165922E+02  0.12526467753E+03  0.13696547336E+03  0.10000000000E+01 0.  0.
    9000005    1    3    3    0    0 -0.23011809197E+02  0.50376165922E+02  0.35522026843E+03  0.35951319942E+03  0.10000000000E+01 0.  0.
<mgrwt>
<rscale>  0 0.12500116E+03</rscale>
<asrwt>0</asrwt>
<pdfrwt beam="2">  1        4 0.12302862E-02 0.12500116E+03</pdfrwt>
<pdfrwt beam="1">  1       -4 0.75151075E-01 0.12500116E+03</pdfrwt>
<totfact> 0.56137174E+03</totfact>
</mgrwt>
</event>
<event>
 5    1  0.3330238E-002  0.1249992E+03  0.7818608E-02  0.1235070E+00
         -4   -1    0    0    0  501 -0.00000000000E+00  0.00000000000E+00  0.49325707224E+02  0.49342054002E+02  0.12700000000E+01 0.  1.
          4   -1    0    0  501    0  0.00000000000E+00 -0.00000000000E+00 -0.79157472659E+02  0.79167659923E+02  0.12700000000E+01 0.  1.
         25    2    1    2    0    0  0.00000000000E+00  0.00000000000E+00 -0.29831765435E+02  0.12850971393E+03  0.12499924937E+03 0.  0.
    9000005    1    3    3    0    0 -0.13947378449E+02 -0.16198341872E+02  0.45455383109E+02  0.50240496599E+02  0.10000000000E+01 0.  0.
    9000005    1    3    3    0    0  0.13947378449E+02  0.16198341872E+02 -0.75287148544E+02  0.78269217326E+02  0.10000000000E+01 0.  0.
<mgrwt>
<rscale>  0 0.12499925E+03</rscale>
<asrwt>0</asrwt>
<pdfrwt beam="2">  1        4 0.12180114E-01 0.12499925E+03</pdfrwt>
<pdfrwt beam="1">  1       -4 0.75906114E-02 0.12499925E+03</pdfrwt>
<totfact> 0.10376670E+04</totfact>
</mgrwt>
</event>
<event>
 5    1  0.3330238E-002  0.1249817E+03  0.7818608E-02  0.1235098E+00
          4   -1    0    0  501    0  0.00000000000E+00  0.00000000000E+00  0.53380919342E+02  0.53396024663E+02  0.12700000000E+01 0. -1.
         -4   -1    0    0    0  501 -0.00000000000E+00 -0.00000000000E+00 -0.73124482042E+02  0.73135509664E+02  0.12700000000E+01 0. -1.
         25    2    1    2    0    0  0.00000000000E+00  0.00000000000E+00 -0.19743562700E+02  0.12653153433E+03  0.12498168230E+03 0.  0.
    9000005    1    3    3    0    0  0.10539099409E+02 -0.51237021974E+02  0.24725078249E+02  0.57867387461E+02  0.10000000000E+01 0.  0.
    9000005    1    3    3    0    0 -0.10539099409E+02  0.51237021974E+02 -0.44468640949E+02  0.68664146867E+02  0.10000000000E+01 0.  0.
<mgrwt>
<rscale>  0 0.12498168E+03</rscale>
<asrwt>0</asrwt>
<pdfrwt beam="1">  1        4 0.82144593E-02 0.12498168E+03</pdfrwt>
<pdfrwt beam="2">  1       -4 0.11251931E-01 0.12498168E+03</pdfrwt>
<totfact> 0.10423650E+04</totfact>
</mgrwt>
</event>
<event>
 5    1  0.3330238E-002  0.1249991E+03  0.7818608E-02  0.1235071E+00
         -4   -1    0    0    0  501 -0.00000000000E+00  0.00000000000E+00  0.11567142555E+04  0.11567149527E+04  0.12700000000E+01 0.  1.
          4   -1    0    0  501    0  0.00000000000E+00 -0.00000000000E+00 -0.32568483209E+01  0.34957060783E+01  0.12700000000E+01 0.  1.
         25    2    1    2    0    0  0.00000000000E+00  0.00000000000E+00  0.11534574072E+04  0.11602106588E+04  0.12499913017E+03 0.  0.
    9000005    1    3    3    0    0  0.19905843316E+02 -0.17665301603E+02  0.11015285718E+04  0.11018504889E+04  0.10000000000E+01 0.  0.
    9000005    1    3    3    0    0 -0.19905843316E+02  0.17665301603E+02  0.51928835373E+02  0.58360169825E+02  0.10000000000E+01 0.  0.
<mgrwt>
<rscale>  0 0.12499913E+03</rscale>
<asrwt>0</asrwt>
<pdfrwt beam="2">  1        4 0.51948058E-03 0.12499913E+03</pdfrwt>
<pdfrwt beam="1">  1       -4 0.17797457E+00 0.12499913E+03</pdfrwt>
<totfact> 0.25779088E+03</totfact>
</mgrwt>
</event>
<event>
 5    1  0.3330238E-002  0.1250005E+03  0.7818608E-02  0.1235069E+00
          4   -1    0    0  501    0  0.00000000000E+00  0.00000000000E+00  0.10748742222E+02  0.10823509568E+02  0.12700000000E+01 0. -1.
         -4   -1    0    0    0  501 -0.00000000000E+00 -0.00000000000E+00 -0.36208183909E+03  0.36208406634E+03  0.12700000000E+01 0. -1.
         25    2    1    2    0    0  0.00000000000E+00  0.00000000000E+00 -0.35133309687E+03  0.37290757591E+03  0.12500046086E+03 0.  0.
    9000005    1    3    3    0    0 -0.48125898031E+02  0.34866122632E+02 -0.11800949114E+03  0.13213246599E+03  0.10000000000E+01 0.  0.
    9000005    1    3    3    0    0  0.48125898031E+02 -0.34866122632E+02 -0.23332360572E+03  0.24077510992E+03  0.10000000000E+01 0.  0.
<mgrwt>
<rscale>  0 0.12500046E+03</rscale>
<asrwt>0</asrwt>
<pdfrwt beam="1">  1        4 0.16595756E-02 0.12500046E+03</pdfrwt>
<pdfrwt beam="2">  1       -4 0.55710812E-01 0.12500046E+03</pdfrwt>
<totfact> 0.67275162E+03</totfact>
</mgrwt>
</event>
<event>
 5    1  0.3330238E-002  0.1249924E+03  0.7818608E-02  0.1235081E+00
         -4   -1    0    0    0  501 -0.00000000000E+00  0.00000000000E+00  0.53621853919E+02  0.53636891387E+02  0.12700000000E+01 0. -1.
          4   -1    0    0  501    0  0.00000000000E+00 -0.00000000000E+00 -0.72808467132E+02  0.72819542612E+02  0.12700000000E+01 0. -1.
         25    2    1    2    0    0  0.00000000000E+00  0.00000000000E+00 -0.19186613214E+02  0.12645643400E+03  0.12499241406E+03 0.  0.
    9000005    1    3    3    0    0  0.56780002875E+02  0.26088030868E+02 -0.91168206977E+01  0.63155922134E+02  0.10000000000E+01 0.  0.
    9000005    1    3    3    0    0 -0.56780002875E+02 -0.26088030868E+02 -0.10069792516E+02  0.63300511864E+02  0.10000000000E+01 0.  0.
<mgrwt>
<rscale>  0 0.12499241E+03</rscale>
<asrwt>0</asrwt>
<pdfrwt beam="2">  1        4 0.11203311E-01 0.12499241E+03</pdfrwt>
<pdfrwt beam="1">  1       -4 0.82515247E-02 0.12499241E+03</pdfrwt>
<totfact> 0.10422763E+04</totfact>
</mgrwt>
</event>
<event>
 5    1  0.3330238E-002  0.1249986E+03  0.7818608E-02  0.1235071E+00
         -4   -1    0    0    0  501 -0.00000000000E+00  0.00000000000E+00  0.26782725966E+01  0.29641261953E+01  0.12700000000E+01 0.  1.
          4   -1    0    0  501    0  0.00000000000E+00 -0.00000000000E+00 -0.13842899825E+04  0.13842905651E+04  0.12700000000E+01 0.  1.
         25    2    1    2    0    0  0.00000000000E+00  0.00000000000E+00 -0.13816117099E+04  0.13872546913E+04  0.12499864601E+03 0.  0.
    9000005    1    3    3    0    0  0.55015553394E+02  0.19758607263E+02 -0.93598515918E+03  0.93780932597E+03  0.10000000000E+01 0.  0.
    9000005    1    3    3    0    0 -0.55015553394E+02 -0.19758607263E+02 -0.44562655076E+03  0.44944536533E+03  0.10000000000E+01 0.  0.
<mgrwt>
<rscale>  0 0.12499865E+03</rscale>
<asrwt>0</asrwt>
<pdfrwt beam="2">  1        4 0.21298918E+00 0.12499865E+03</pdfrwt>
<pdfrwt beam="1">  1       -4 0.43407660E-03 0.12499865E+03</pdfrwt>
<totfact> 0.20256768E+03</totfact>
</mgrwt>
</event>
<event>
 5    1  0.3330238E-002  0.1249978E+03  0.7818608E-02  0.1235073E+00
         -4   -1    0    0    0  501 -0.00000000000E+00  0.00000000000E+00  0.81134838069E+02  0.81144777087E+02  0.12700000000E+01 0. -1.
          4   -1    0    0  501    0  0.00000000000E+00 -0.00000000000E+00 -0.48122223089E+02  0.48138978541E+02  0.12700000000E+01 0. -1.
         25    2    1    2    0    0  0.00000000000E+00  0.00000000000E+00  0.33012614980E+02  0.12928375563E+03  0.12499782687E+03 0.  0.
    9000005    1    3    3    0    0  0.41437101033E+02 -0.30674194604E+02 -0.20019946086E+02  0.55314896709E+02  0.10000000000E+01 0.  0.
    9000005    1    3    3    0    0 -0.41437101033E+02  0.30674194604E+02  0.53032561066E+02  0.73968858919E+02  0.10000000000E+01 0.  0.
<mgrwt>
<rscale>  0 0.12499783E+03</rscale>
<asrwt>0</asrwt>
<pdfrwt beam="2">  1        4 0.74054724E-02 0.12499783E+03</pdfrwt>
<pdfrwt beam="1">  1       -4 0.12484336E-01 0.12499783E+03</pdfrwt>
<totfact> 0.10360362E+04</totfact>
</mgrwt>
</event>
<event>
 5    1  0.3330238E-002  0.1250109E+03  0.7818608E-02  0.1235052E+00
          4   -1    0    0  501    0  0.00000000000E+00  0.00000000000E+00  0.89762066413E+02  0.89771050271E+02  0.12700000000E+01 0. -1.
         -4   -1    0    0    0  501 -0.00000000000E+00 -0.00000000000E+00 -0.43504970228E+02  0.43523503243E+02  0.12700000000E+01 0. -1.
         25    2    1    2    0    0  0.00000000000E+00  0.00000000000E+00  0.46257096186E+02  0.13329455351E+03  0.12501087572E+03 0.  0.
    9000005    1    3    3    0    0 -0.19346246634E+02  0.52454142510E+02  0.52911783636E+02  0.76982927801E+02  0.10000000000E+01 0.  0.
    9000005    1    3    3    0    0  0.19346246634E+02 -0.52454142510E+02 -0.66546874508E+01  0.56311625712E+02  0.10000000000E+01 0.  0.
<mgrwt>
<rscale>  0 0.12501088E+03</rscale>
<asrwt>0</asrwt>
<pdfrwt beam="1">  1        4 0.13811665E-01 0.12501088E+03</pdfrwt>
<pdfrwt beam="2">  1       -4 0.66951891E-02 0.12501088E+03</pdfrwt>
<totfact> 0.10271624E+04</totfact>
</mgrwt>
</event>
<event>
 5    1  0.3330238E-002  0.1249929E+03  0.7818608E-02  0.1235080E+00
         -4   -1    0    0    0  501 -0.00000000000E+00  0.00000000000E+00  0.21725780311E+02  0.21762868151E+02  0.12700000000E+01 0.  1.
          4   -1    0    0  501    0  0.00000000000E+00 -0.00000000000E+00 -0.17958480205E+03  0.17958929263E+03  0.12700000000E+01 0.  1.
         25    2    1    2    0    0  0.00000000000E+00  0.00000000000E+00 -0.15785902174E+03  0.20135216078E+03  0.12499288742E+03 0.  0.
    9000005    1    3    3    0    0 -0.60785485693E+02  0.14427232611E+02 -0.76777174451E+02  0.98988660100E+02  0.10000000000E+01 0.  0.
    9000005    1    3    3    0    0  0.60785485693E+02 -0.14427232611E+02 -0.81081847284E+02  0.10236350068E+03  0.10000000000E+01 0.  0.
<mgrwt>
<rscale>  0 0.12499289E+03</rscale>
<asrwt>0</asrwt>
<pdfrwt beam="2">  1        4 0.27631629E-01 0.12499289E+03</pdfrwt>
<pdfrwt beam="1">  1       -4 0.33456262E-02 0.12499289E+03</pdfrwt>
<totfact> 0.89922263E+03</totfact>
</mgrwt>
</event>
<event>
 5    1  0.3330238E-002  0.1249989E+03  0.7818608E-02  0.1235071E+00
          4   -1    0    0  501    0  0.00000000000E+00  0.00000000000E+00  0.98738956229E+02  0.98747123387E+02  0.12700000000E+01 0.  1.
         -4   -1    0    0    0  501 -0.00000000000E+00 -0.00000000000E+00 -0.39540685544E+02  0.39561075734E+02  0.12700000000E+01 0.  1.
         25    2    1    2    0    0  0.00000000000E+00  0.00000000000E+00  0.59198270685E+02  0.13830819912E+03  0.12499889076E+03 0.  0.
    9000005    1    3    3    0    0  0.35031793284E+02  0.18222276002E+01  0.86822569418E+02  0.93646706372E+02  0.10000000000E+01 0.  0.
    9000005    1    3    3    0    0 -0.35031793284E+02 -0.18222276002E+01 -0.27624298733E+02  0.44661492749E+02  0.10000000000E+01 0.  0.
<mgrwt>
<rscale>  0 0.12499889E+03</rscale>
<asrwt>0</asrwt>
<pdfrwt beam="1">  1        4 0.15192805E-01 0.12499889E+03</pdfrwt>
<pdfrwt beam="2">  1       -4 0.60853791E-02 0.12499889E+03</pdfrwt>
<totfact> 0.10169024E+04</totfact>
</mgrwt>
</event>
<event>
 5    1  0.3330238E-002  0.1250001E+03  0.7818608E-02  0.1235069E+00
          4   -1    0    0  501    0  0.00000000000E+00  0.00000000000E+00  0.24192729464E+02  0.24226040925E+02  0.12700000000E+01 0.  1.
         -4   -1    0    0    0  501 -0.00000000000E+00 -0.00000000000E+00 -0.16131718348E+03  0.16132218256E+03  0.12700000000E+01 0.  1.
         25    2    1    2    0    0  0.00000000000E+00  0.00000000000E+00 -0.13712445401E+03  0.18554822348E+03  0.12500010940E+03 0.  0.
    9000005    1    3    3    0    0 -0.32492658661E+02  0.32352891410E+02 -0.13158784273E+03  0.13935150808E+03  0.10000000000E+01 0.  0.
    9000005    1    3    3    0    0  0.32492658661E+02 -0.32352891410E+02 -0.55366112807E+01  0.46196715402E+02  0.10000000000E+01 0.  0.
<mgrwt>
<rscale>  0 0.12500011E+03</rscale>
<asrwt>0</asrwt>
<pdfrwt beam="1">  1        4 0.37249055E-02 0.12500011E+03</pdfrwt>
<pdfrwt beam="2">  1       -4 0.24820974E-01 0.12500011E+03</pdfrwt>
<totfact> 0.92627504E+03</totfact>
</mgrwt>
</event>
<event>
 5    1  0.3330238E-002  0.1249987E+03  0.7818608E-02  0.1235071E+00
          4   -1    0    0  501    0  0.00000000000E+00  0.00000000000E+00  0.67503367578E+02  0.67515313333E+02  0.12700000000E+01 0.  1.
         -4   -1    0    0    0  501 -0.00000000000E+00 -0.00000000000E+00 -0.57842276020E+02  0.57856216565E+02  0.12700000000E+01 0.  1.
         25    2    1    2    0    0  0.00000000000E+00  0.00000000000E+00  0.96610915579E+01  0.12537152990E+03  0.12499873527E+03 0.  0.
    9000005    1    3    3    0    0  0.58562381226E+02 -0.21575971422E+02  0.80174293187E+01  0.62931345215E+02  0.10000000000E+01 0.  0.
    9000005    1    3    3    0    0 -0.58562381226E+02  0.21575971422E+02  0.16436622392E+01  0.62440184683E+02  0.10000000000E+01 0.  0.
<mgrwt>
<rscale>  0 0.12499874E+03</rscale>
<asrwt>0</asrwt>
<pdfrwt beam="1">  1        4 0.10387125E-01 0.12499874E+03</pdfrwt>
<pdfrwt beam="2">  1       -4 0.89008030E-02 0.12499874E+03</pdfrwt>
<totfact> 0.10445096E+04</totfact>
</mgrwt>
</event>
<event>
 5    1  0.3330238E-002  0.1249970E+03  0.7818608E-02  0.1235074E+00
          4   -1    0    0  501    0  0.00000000000E+00  0.00000000000E+00  0.56700955419E+02  0.56715176500E+02  0.12700000000E+01 0. -1.
         -4   -1    0    0    0  501 -0.00000000000E+00 -0.00000000000E+00 -0.68860109825E+02  0.68871820254E+02  0.12700000000E+01 0. -1.
         25    2    1    2    0    0  0.00000000000E+00  0.00000000000E+00 -0.12159154407E+02  0.12558699675E+03  0.12499699484E+03 0.  0.
    9000005    1    3    3    0    0 -0.13845021610E+01 -0.53743583740E+02 -0.38085433901E+02  0.65892259902E+02  0.10000000000E+01 0.  0.
    9000005    1    3    3    0    0  0.13845021610E+01  0.53743583740E+02  0.25926279495E+02  0.59694736853E+02  0.10000000000E+01 0.  0.
<mgrwt>
<rscale>  0 0.12499699E+03</rscale>
<asrwt>0</asrwt>
<pdfrwt beam="1">  1        4 0.87252187E-02 0.12499699E+03</pdfrwt>
<pdfrwt beam="2">  1       -4 0.10595858E-01 0.12499699E+03</pdfrwt>
<totfact> 0.10440741E+04</totfact>
</mgrwt>
</event>
<event>
 5    1  0.3330238E-002  0.1250020E+03  0.7818608E-02  0.1235066E+00
          4   -1    0    0  501    0  0.00000000000E+00  0.00000000000E+00  0.75148431660E+02  0.75159162322E+02  0.12700000000E+01 0.  1.
         -4   -1    0    0    0  501 -0.00000000000E+00 -0.00000000000E+00 -0.51959955108E+02  0.51975473397E+02  0.12700000000E+01 0.  1.
         25    2    1    2    0    0  0.00000000000E+00  0.00000000000E+00  0.23188476552E+02  0.12713463572E+03  0.12500204060E+03 0.  0.
    9000005    1    3    3    0    0 -0.29840608157E+02 -0.49927152617E+02  0.34835685412E+02  0.67806396761E+02  0.10000000000E+01 0.  0.
    9000005    1    3    3    0    0  0.29840608157E+02  0.49927152617E+02 -0.11647208860E+02  0.59328238958E+02  0.10000000000E+01 0.  0.
<mgrwt>
<rscale>  0 0.12500204E+03</rscale>
<asrwt>0</asrwt>
<pdfrwt beam="1">  1        4 0.11563316E-01 0.12500204E+03</pdfrwt>
<pdfrwt beam="2">  1       -4 0.79958584E-02 0.12500204E+03</pdfrwt>
<totfact> 0.10405743E+04</totfact>
</mgrwt>
</event>
<event>
 5    1  0.3330238E-002  0.1250008E+03  0.7818608E-02  0.1235068E+00
          4   -1    0    0  501    0  0.00000000000E+00  0.00000000000E+00  0.31953183045E+02  0.31978411573E+02  0.12700000000E+01 0.  1.
         -4   -1    0    0    0  501 -0.00000000000E+00 -0.00000000000E+00 -0.12217393813E+03  0.12218053879E+03  0.12700000000E+01 0.  1.
         25    2    1    2    0    0  0.00000000000E+00  0.00000000000E+00 -0.90220755085E+02  0.15415895036E+03  0.12500078931E+03 0.  0.
    9000005    1    3    3    0    0  0.18677151864E+02  0.41485219627E+02 -0.97945907934E+02  0.10800120523E+03  0.10000000000E+01 0.  0.
    9000005    1    3    3    0    0 -0.18677151864E+02 -0.41485219627E+02  0.77251528490E+01  0.46157745133E+02  0.10000000000E+01 0.  0.
<mgrwt>
<rscale>  0 0.12500079E+03</rscale>
<asrwt>0</asrwt>
<pdfrwt beam="1">  1        4 0.49183228E-02 0.12500079E+03</pdfrwt>
<pdfrwt beam="2">  1       -4 0.18798439E-01 0.12500079E+03</pdfrwt>
<totfact> 0.98479112E+03</totfact>
</mgrwt>
</event>
<event>
 5    1  0.3330238E-002  0.1250590E+03  0.7818608E-02  0.1234977E+00
          4   -1    0    0  501    0  0.00000000000E+00  0.00000000000E+00  0.44480698360E+02  0.44498825002E+02  0.12700000000E+01 0.  1.
         -4   -1    0    0    0  501 -0.00000000000E+00 -0.00000000000E+00 -0.87861279491E+02  0.87870457686E+02  0.12700000000E+01 0.  1.
         25    2    1    2    0    0  0.00000000000E+00  0.00000000000E+00 -0.43380581132E+02  0.13236928269E+03  0.12505899480E+03 0.  0.
    9000005    1    3    3    0    0 -0.44800470651E+02 -0.43605829507E+02 -0.21031401422E+02  0.65968707606E+02  0.10000000000E+01 0.  0.
    9000005    1    3    3    0    0  0.44800470651E+02  0.43605829507E+02 -0.22349179710E+02  0.66400575082E+02  0.10000000000E+01 0.  0.
<mgrwt>
<rscale>  0 0.12505899E+03</rscale>
<asrwt>0</asrwt>
<pdfrwt beam="1">  1        4 0.68452847E-02 0.12505899E+03</pdfrwt>
<pdfrwt beam="2">  1       -4 0.13519220E-01 0.12505899E+03</pdfrwt>
<totfact> 0.10280135E+04</totfact>
</mgrwt>
</event>
<event>
 5    1  0.3330238E-002  0.1250052E+03  0.7818608E-02  0.1235061E+00
         -4   -1    0    0    0  501 -0.00000000000E+00  0.00000000000E+00  0.75258297253E+03  0.75258404410E+03  0.12700000000E+01 0.  1.
          4   -1    0    0  501    0  0.00000000000E+00 -0.00000000000E+00 -0.51121199811E+01  0.52675108638E+01  0.12700000000E+01 0.  1.
         25    2    1    2    0    0  0.00000000000E+00  0.00000000000E+00  0.74747085254E+03  0.75785155496E+03  0.12500521573E+03 0.  0.
    9000005    1    3    3    0    0 -0.59088047337E+02  0.19327512828E+00  0.49711131141E+03  0.50061171643E+03  0.10000000000E+01 0.  0.
    9000005    1    3    3    0    0  0.59088047337E+02 -0.19327512828E+00  0.25035954114E+03  0.25723983854E+03  0.10000000000E+01 0.  0.
<mgrwt>
<rscale>  0 0.12500522E+03</rscale>
<asrwt>0</asrwt>
<pdfrwt beam="2">  1        4 0.79851615E-03 0.12500522E+03</pdfrwt>
<pdfrwt beam="1">  1       -4 0.11579395E+00 0.12500522E+03</pdfrwt>
<totfact> 0.40196826E+03</totfact>
</mgrwt>
</event>
<event>
 5    1  0.3330238E-002  0.1249805E+03  0.7818608E-02  0.1235100E+00
          4   -1    0    0  501    0  0.00000000000E+00  0.00000000000E+00  0.14918748342E+03  0.14919288894E+03  0.12700000000E+01 0.  1.
         -4   -1    0    0    0  501 -0.00000000000E+00 -0.00000000000E+00 -0.26154028205E+02  0.26184844689E+02  0.12700000000E+01 0.  1.
         25    2    1    2    0    0  0.00000000000E+00  0.00000000000E+00  0.12303345522E+03  0.17537773363E+03  0.12498047187E+03 0.  0.
    9000005    1    3    3    0    0  0.13732644233E+02 -0.46874468162E+02  0.68402113759E+01  0.49331427861E+02  0.10000000000E+01 0.  0.
    9000005    1    3    3    0    0 -0.13732644233E+02  0.46874468162E+02  0.11619324384E+03  0.12604630577E+03  0.10000000000E+01 0.  0.
<mgrwt>
<rscale>  0 0.12498047E+03</rscale>
<asrwt>0</asrwt>
<pdfrwt beam="1">  1        4 0.22954707E-01 0.12498047E+03</pdfrwt>
<pdfrwt beam="2">  1       -4 0.40264829E-02 0.12498047E+03</pdfrwt>
<totfact> 0.94497094E+03</totfact>
</mgrwt>
</event>
<event>
 5    1  0.3330238E-002  0.1250031E+03  0.7818608E-02  0.1235064E+00
          4   -1    0    0  501    0  0.00000000000E+00  0.00000000000E+00  0.20135556417E+02  0.20175567705E+02  0.12700000000E+01 0. -1.
         -4   -1    0    0    0  501 -0.00000000000E+00 -0.00000000000E+00 -0.19377263711E+03  0.19377679890E+03  0.12700000000E+01 0. -1.
         25    2    1    2    0    0  0.00000000000E+00  0.00000000000E+00 -0.17363708069E+03  0.21395236661E+03  0.12500311750E+03 0.  0.
    9000005    1    3    3    0    0 -0.93082329751E+01 -0.60413450762E+02 -0.10907012510E+03  0.12503487683E+03  0.10000000000E+01 0.  0.
    9000005    1    3    3    0    0  0.93082329751E+01  0.60413450762E+02 -0.64566955594E+02  0.88917489780E+02  0.10000000000E+01 0.  0.
<mgrwt>
<rscale>  0 0.12500312E+03</rscale>
<asrwt>0</asrwt>
<pdfrwt beam="1">  1        4 0.31011760E-02 0.12500312E+03</pdfrwt>
<pdfrwt beam="2">  1       -4 0.29814572E-01 0.12500312E+03</pdfrwt>
<totfact> 0.87828330E+03</totfact>
</mgrwt>
</event>
<event>
 5    1  0.3330238E-002  0.1250002E+03  0.7818608E-02  0.1235069E+00
         -4   -1    0    0    0  501 -0.00000000000E+00  0.00000000000E+00  0.19067864607E+01  0.22910116994E+01  0.12700000000E+01 0.  1.
          4   -1    0    0  501    0  0.00000000000E+00 -0.00000000000E+00 -0.18607151106E+04  0.18607155440E+04  0.12700000000E+01 0.  1.
         25    2    1    2    0    0  0.00000000000E+00  0.00000000000E+00 -0.18588083241E+04  0.18630065557E+04  0.12500016288E+03 0.  0.
    9000005    1    3    3    0    0  0.67084878743E+01  0.59251708335E+02 -0.12080304376E+04  0.12095016771E+04  0.10000000000E+01 0.  0.
    9000005    1    3    3    0    0 -0.67084878743E+01 -0.59251708335E+02 -0.65077788652E+03  0.65350487858E+03  0.10000000000E+01 0.  0.
<mgrwt>
<rscale>  0 0.12500016E+03</rscale>
<asrwt>0</asrwt>
<pdfrwt beam="2">  1        4 0.28629213E+00 0.12500016E+03</pdfrwt>
<pdfrwt beam="1">  1       -4 0.32294238E-03 0.12500016E+03</pdfrwt>
<totfact> 0.11757227E+03</totfact>
</mgrwt>
</event>
<event>
 5    1  0.3330238E-002  0.1249992E+03  0.7818608E-02  0.1235070E+00
         -4   -1    0    0    0  501 -0.00000000000E+00  0.00000000000E+00  0.18090528071E+02  0.18135051857E+02  0.12700000000E+01 0.  1.
          4   -1    0    0  501    0  0.00000000000E+00 -0.00000000000E+00 -0.21561346234E+03  0.21561720257E+03  0.12700000000E+01 0.  1.
         25    2    1    2    0    0  0.00000000000E+00  0.00000000000E+00 -0.19752293427E+03  0.23375225442E+03  0.12499922754E+03 0.  0.
    9000005    1    3    3    0    0 -0.67168213381E+01 -0.29237410637E+02 -0.20127695756E+03  0.20350271624E+03  0.10000000000E+01 0.  0.
    9000005    1    3    3    0    0  0.67168213381E+01  0.29237410637E+02  0.37540232937E+01  0.30249538187E+02  0.10000000000E+01 0.  0.
<mgrwt>
<rscale>  0 0.12499923E+03</rscale>
<asrwt>0</asrwt>
<pdfrwt beam="2">  1        4 0.33175013E-01 0.12499923E+03</pdfrwt>
<pdfrwt beam="1">  1       -4 0.27868709E-02 0.12499923E+03</pdfrwt>
<totfact> 0.84738206E+03</totfact>
</mgrwt>
</event>
<event>
 5    1  0.3330238E-002  0.1249980E+03  0.7818608E-02  0.1235072E+00
          4   -1    0    0  501    0  0.00000000000E+00  0.00000000000E+00  0.20082828454E+02  0.20122944583E+02  0.12700000000E+01 0.  1.
         -4   -1    0    0    0  501 -0.00000000000E+00 -0.00000000000E+00 -0.19426448239E+03  0.19426863364E+03  0.12700000000E+01 0.  1.
         25    2    1    2    0    0  0.00000000000E+00  0.00000000000E+00 -0.17418165393E+03  0.21439157822E+03  0.12499800097E+03 0.  0.
    9000005    1    3    3    0    0  0.18208032328E+02 -0.29296128268E+02 -0.17646579959E+03  0.17980815887E+03  0.10000000000E+01 0.  0.
    9000005    1    3    3    0    0 -0.18208032328E+02  0.29296128268E+02  0.22841456551E+01  0.34583419353E+02  0.10000000000E+01 0.  0.
<mgrwt>
<rscale>  0 0.12499800E+03</rscale>
<asrwt>0</asrwt>
<pdfrwt beam="1">  1        4 0.30930712E-02 0.12499800E+03</pdfrwt>
<pdfrwt beam="2">  1       -4 0.29890247E-01 0.12499800E+03</pdfrwt>
<totfact> 0.87767585E+03</totfact>
</mgrwt>
</event>
<event>
 5    1  0.3330238E-002  0.1250001E+03  0.7818608E-02  0.1235069E+00
          4   -1    0    0  501    0  0.00000000000E+00  0.00000000000E+00  0.46796504913E+02  0.46813734866E+02  0.12700000000E+01 0.  1.
         -4   -1    0    0    0  501 -0.00000000000E+00 -0.00000000000E+00 -0.83435866127E+02  0.83445531075E+02  0.12700000000E+01 0.  1.
         25    2    1    2    0    0  0.00000000000E+00  0.00000000000E+00 -0.36639361214E+02  0.13025926594E+03  0.12500013429E+03 0.  0.
    9000005    1    3    3    0    0  0.37367627206E+02 -0.41894397743E+02  0.10290457417E+02  0.57082165684E+02  0.10000000000E+01 0.  0.
    9000005    1    3    3    0    0 -0.37367627206E+02  0.41894397743E+02 -0.46929818631E+02  0.73177100257E+02  0.10000000000E+01 0.  0.
<mgrwt>
<rscale>  0 0.12500013E+03</rscale>
<asrwt>0</asrwt>
<pdfrwt beam="1">  1        4 0.72015311E-02 0.12500013E+03</pdfrwt>
<pdfrwt beam="2">  1       -4 0.12838356E-01 0.12500013E+03</pdfrwt>
<totfact> 0.10338933E+04</totfact>
</mgrwt>
</event>
<event>
 5    1  0.3330238E-002  0.1249681E+03  0.7818608E-02  0.1235119E+00
         -4   -1    0    0    0  501 -0.00000000000E+00  0.00000000000E+00  0.10120935738E+02  0.10200305888E+02  0.12700000000E+01 0.  1.
          4   -1    0    0  501    0  0.00000000000E+00 -0.00000000000E+00 -0.38417335733E+03  0.38417545650E+03  0.12700000000E+01 0.  1.
         25    2    1    2    0    0  0.00000000000E+00  0.00000000000E+00 -0.37405242159E+03  0.39437576239E+03  0.12496810740E+03 0.  0.
    9000005    1    3    3    0    0  0.57665141774E+02  0.10066581062E+02 -0.25592504708E+03  0.26253615818E+03  0.10000000000E+01 0.  0.
    9000005    1    3    3    0    0 -0.57665141774E+02 -0.10066581062E+02 -0.11812737451E+03  0.13183960421E+03  0.10000000000E+01 0.  0.
<mgrwt>
<rscale>  0 0.12496811E+03</rscale>
<asrwt>0</asrwt>
<pdfrwt beam="2">  1        4 0.59109849E-01 0.12496811E+03</pdfrwt>
<pdfrwt beam="1">  1       -4 0.15633342E-02 0.12496811E+03</pdfrwt>
<totfact> 0.65149373E+03</totfact>
</mgrwt>
</event>
<event>
 5    1  0.3330238E-002  0.1250022E+03  0.7818608E-02  0.1235066E+00
          4   -1    0    0  501    0  0.00000000000E+00  0.00000000000E+00  0.34118204677E+01  0.36405245369E+01  0.12700000000E+01 0. -1.
         -4   -1    0    0    0  501 -0.00000000000E+00 -0.00000000000E+00 -0.11075975264E+04  0.11075982545E+04  0.12700000000E+01 0. -1.
         25    2    1    2    0    0  0.00000000000E+00  0.00000000000E+00 -0.11041857059E+04  0.11112387790E+04  0.12500220345E+03 0.  0.
    9000005    1    3    3    0    0 -0.36292886127E+02  0.47309703429E+02 -0.71840636073E+03  0.72087729938E+03  0.10000000000E+01 0.  0.
    9000005    1    3    3    0    0  0.36292886127E+02 -0.47309703429E+02 -0.38577934520E+03  0.39036147967E+03  0.10000000000E+01 0.  0.
<mgrwt>
<rscale>  0 0.12500220E+03</rscale>
<asrwt>0</asrwt>
<pdfrwt beam="1">  1        4 0.54254497E-03 0.12500220E+03</pdfrwt>
<pdfrwt beam="2">  1       -4 0.17041699E+00 0.12500220E+03</pdfrwt>
<totfact> 0.27155522E+03</totfact>
</mgrwt>
</event>
<event>
 5    1  0.3330238E-002  0.1250047E+03  0.7818608E-02  0.1235062E+00
          4   -1    0    0  501    0  0.00000000000E+00  0.00000000000E+00  0.61045803337E+03  0.61045935443E+03  0.12700000000E+01 0.  1.
         -4   -1    0    0    0  501 -0.00000000000E+00 -0.00000000000E+00 -0.63350092307E+01  0.64610557925E+01  0.12700000000E+01 0.  1.
         25    2    1    2    0    0  0.00000000000E+00  0.00000000000E+00  0.60412302414E+03  0.61692041022E+03  0.12500465691E+03 0.  0.
    9000005    1    3    3    0    0  0.59807246401E+02  0.17571858312E+02  0.32405721173E+03  0.32999962637E+03  0.10000000000E+01 0.  0.
    9000005    1    3    3    0    0 -0.59807246401E+02 -0.17571858312E+02  0.28006581241E+03  0.28692078385E+03  0.10000000000E+01 0.  0.
<mgrwt>
<rscale>  0 0.12500466E+03</rscale>
<asrwt>0</asrwt>
<pdfrwt beam="1">  1        4 0.93926448E-01 0.12500466E+03</pdfrwt>
<pdfrwt beam="2">  1       -4 0.98441400E-03 0.12500466E+03</pdfrwt>
<totfact> 0.47811780E+03</totfact>
</mgrwt>
</event>
<event>
 5    1  0.3330238E-002  0.1249974E+03  0.7818608E-02  0.1235073E+00
          4   -1    0    0  501    0  0.00000000000E+00  0.00000000000E+00  0.81398452774E+02  0.81408359607E+02  0.12700000000E+01 0. -1.
         -4   -1    0    0    0  501 -0.00000000000E+00 -0.00000000000E+00 -0.47965980309E+02  0.47982790321E+02  0.12700000000E+01 0. -1.
         25    2    1    2    0    0  0.00000000000E+00  0.00000000000E+00  0.33432472465E+02  0.12939114993E+03  0.12499735783E+03 0.  0.
    9000005    1    3    3    0    0 -0.38016502494E+02  0.49203267645E+02  0.23169874604E+02  0.66363085356E+02  0.10000000000E+01 0.  0.
    9000005    1    3    3    0    0  0.38016502494E+02 -0.49203267645E+02  0.10262597861E+02  0.63028064572E+02  0.10000000000E+01 0.  0.
<mgrwt>
<rscale>  0 0.12499736E+03</rscale>
<asrwt>0</asrwt>
<pdfrwt beam="1">  1        4 0.12524894E-01 0.12499736E+03</pdfrwt>
<pdfrwt beam="2">  1       -4 0.73814368E-02 0.12499736E+03</pdfrwt>
<totfact> 0.10358167E+04</totfact>
</mgrwt>
</event>
<event>
 5    1  0.3330238E-002  0.1249985E+03  0.7818608E-02  0.1235072E+00
          4   -1    0    0  501    0  0.00000000000E+00  0.00000000000E+00  0.12318582644E+03  0.12319237287E+03  0.12700000000E+01 0. -1.
         -4   -1    0    0    0  501 -0.00000000000E+00 -0.00000000000E+00 -0.31689337774E+02  0.31714776187E+02  0.12700000000E+01 0. -1.
         25    2    1    2    0    0  0.00000000000E+00  0.00000000000E+00  0.91496488661E+02  0.15490714906E+03  0.12499846956E+03 0.  0.
    9000005    1    3    3    0    0  0.12287307763E+02 -0.14817942349E+02 -0.27929650640E+02  0.33935449495E+02  0.10000000000E+01 0.  0.
    9000005    1    3    3    0    0 -0.12287307763E+02  0.14817942349E+02  0.11942613930E+03  0.12097169957E+03  0.10000000000E+01 0.  0.
<mgrwt>
<rscale>  0 0.12499847E+03</rscale>
<asrwt>0</asrwt>
<pdfrwt beam="1">  1        4 0.18954126E-01 0.12499847E+03</pdfrwt>
<pdfrwt beam="2">  1       -4 0.48777431E-02 0.12499847E+03</pdfrwt>
<totfact> 0.98337114E+03</totfact>
</mgrwt>
</event>
<event>
 5    1  0.3330238E-002  0.1250016E+03  0.7818608E-02  0.1235067E+00
         -4   -1    0    0    0  501 -0.00000000000E+00  0.00000000000E+00  0.75154477417E+02  0.75165207216E+02  0.12700000000E+01 0. -1.
          4   -1    0    0  501    0  0.00000000000E+00 -0.00000000000E+00 -0.51955372894E+02  0.51970892551E+02  0.12700000000E+01 0. -1.
         25    2    1    2    0    0  0.00000000000E+00  0.00000000000E+00  0.23199104524E+02  0.12713609977E+03  0.12500155764E+03 0.  0.
    9000005    1    3    3    0    0  0.16140189816E+02 -0.60365979990E+02  0.10695506126E+02  0.63403084458E+02  0.10000000000E+01 0.  0.
    9000005    1    3    3    0    0 -0.16140189816E+02  0.60365979990E+02  0.12503598398E+02  0.63733015309E+02  0.10000000000E+01 0.  0.
<mgrwt>
<rscale>  0 0.12500156E+03</rscale>
<asrwt>0</asrwt>
<pdfrwt beam="2">  1        4 0.79951535E-02 0.12500156E+03</pdfrwt>
<pdfrwt beam="1">  1       -4 0.11564246E-01 0.12500156E+03</pdfrwt>
<totfact> 0.10405824E+04</totfact>
</mgrwt>
</event>
<event>
 5    1  0.3330238E-002  0.1249555E+03  0.7818608E-02  0.1235139E+00
          4   -1    0    0  501    0  0.00000000000E+00  0.00000000000E+00  0.24886544939E+01  0.27939758750E+01  0.12700000000E+01 0.  1.
         -4   -1    0    0    0  501 -0.00000000000E+00 -0.00000000000E+00 -0.14775442001E+04  0.14775447459E+04  0.12700000000E+01 0.  1.
         25    2    1    2    0    0  0.00000000000E+00  0.00000000000E+00 -0.14750555456E+04  0.14803387218E+04  0.12495546637E+03 0.  0.
    9000005    1    3    3    0    0  0.57485372537E+02 -0.23529194679E+02 -0.65869796809E+03  0.66162089162E+03  0.10000000000E+01 0.  0.
    9000005    1    3    3    0    0 -0.57485372537E+02  0.23529194679E+02 -0.81635757753E+03  0.81871783018E+03  0.10000000000E+01 0.  0.
<mgrwt>
<rscale>  0 0.12495547E+03</rscale>
<asrwt>0</asrwt>
<pdfrwt beam="1">  1        4 0.40639935E-03 0.12495547E+03</pdfrwt>
<pdfrwt beam="2">  1       -4 0.22733736E+00 0.12495547E+03</pdfrwt>
<totfact> 0.18337702E+03</totfact>
</mgrwt>
</event>
<event>
 5    1  0.3330238E-002  0.1250003E+03  0.7818608E-02  0.1235069E+00
          4   -1    0    0  501    0  0.00000000000E+00  0.00000000000E+00  0.32372852209E+03  0.32373101321E+03  0.12700000000E+01 0.  1.
         -4   -1    0    0    0  501 -0.00000000000E+00 -0.00000000000E+00 -0.12030525254E+02  0.12097373181E+02  0.12700000000E+01 0.  1.
         25    2    1    2    0    0  0.00000000000E+00  0.00000000000E+00  0.31169799683E+03  0.33582838639E+03  0.12500025550E+03 0.  0.
    9000005    1    3    3    0    0 -0.87715622174E+01  0.48484845917E+02  0.25911964981E+03  0.26376450387E+03  0.10000000000E+01 0.  0.
    9000005    1    3    3    0    0  0.87715622174E+01 -0.48484845917E+02  0.52578347026E+02  0.72063882516E+02  0.10000000000E+01 0.  0.
<mgrwt>
<rscale>  0 0.12500026E+03</rscale>
<asrwt>0</asrwt>
<pdfrwt beam="1">  1        4 0.49809715E-01 0.12500026E+03</pdfrwt>
<pdfrwt beam="2">  1       -4 0.18561841E-02 0.12500026E+03</pdfrwt>
<totfact> 0.71311870E+03</totfact>
</mgrwt>
</event>
<event>
 5    1  0.3330238E-002  0.1249987E+03  0.7818608E-02  0.1235071E+00
          4   -1    0    0  501    0  0.00000000000E+00  0.00000000000E+00  0.91759304584E+03  0.91759392471E+03  0.12700000000E+01 0. -1.
         -4   -1    0    0    0  501 -0.00000000000E+00 -0.00000000000E+00 -0.41613524171E+01  0.43508337062E+01  0.12700000000E+01 0. -1.
         25    2    1    2    0    0  0.00000000000E+00  0.00000000000E+00  0.91343169342E+03  0.92194475842E+03  0.12499871612E+03 0.  0.
    9000005    1    3    3    0    0 -0.74862967301E+01  0.76867207017E+01  0.91078417671E+03  0.91084792740E+03  0.10000000000E+01 0.  0.
    9000005    1    3    3    0    0  0.74862967301E+01 -0.76867207017E+01  0.26475167150E+01  0.11096831018E+02  0.10000000000E+01 0.  0.
<mgrwt>
<rscale>  0 0.12499872E+03</rscale>
<asrwt>0</asrwt>
<pdfrwt beam="1">  1        4 0.14118283E+00 0.12499872E+03</pdfrwt>
<pdfrwt beam="2">  1       -4 0.65485103E-03 0.12499872E+03</pdfrwt>
<totfact> 0.33334358E+03</totfact>
</mgrwt>
</event>
<event>
 5    1  0.3330238E-002  0.1250070E+03  0.7818608E-02  0.1235058E+00
          4   -1    0    0  501    0  0.00000000000E+00  0.00000000000E+00  0.58961590182E+03  0.58961726957E+03  0.12700000000E+01 0. -1.
         -4   -1    0    0    0  501 -0.00000000000E+00 -0.00000000000E+00 -0.65635723571E+01  0.66853109193E+01  0.12700000000E+01 0. -1.
         25    2    1    2    0    0  0.00000000000E+00  0.00000000000E+00  0.58305232946E+03  0.59630258049E+03  0.12500699424E+03 0.  0.
    9000005    1    3    3    0    0  0.28183319024E+02  0.38666183861E+02  0.48330259516E+03  0.48566631727E+03  0.10000000000E+01 0.  0.
    9000005    1    3    3    0    0 -0.28183319024E+02 -0.38666183861E+02  0.99749734306E+02  0.11063626322E+03  0.10000000000E+01 0.  0.
<mgrwt>
<rscale>  0 0.12500699E+03</rscale>
<asrwt>0</asrwt>
<pdfrwt beam="1">  1        4 0.90719585E-01 0.12500699E+03</pdfrwt>
<pdfrwt beam="2">  1       -4 0.10192503E-02 0.12500699E+03</pdfrwt>
<totfact> 0.49094316E+03</totfact>
</mgrwt>
</event>
<event>
 5    1  0.3330238E-002  0.1249969E+03  0.7818608E-02  0.1235074E+00
         -4   -1    0    0    0  501 -0.00000000000E+00  0.00000000000E+00  0.21927081691E+02  0.21963829618E+02  0.12700000000E+01 0.  1.
          4   -1    0    0  501    0  0.00000000000E+00 -0.00000000000E+00 -0.17795035585E+03  0.17795488768E+03  0.12700000000E+01 0.  1.
         25    2    1    2    0    0  0.00000000000E+00  0.00000000000E+00 -0.15602327416E+03  0.19991871730E+03  0.12499692574E+03 0.  0.
    9000005    1    3    3    0    0 -0.28190957554E+02 -0.39658927295E+02 -0.14072517474E+03  0.14890310745E+03  0.10000000000E+01 0.  0.
    9000005    1    3    3    0    0  0.28190957554E+02  0.39658927295E+02 -0.15298099419E+02  0.51015609844E+02  0.10000000000E+01 0.  0.
<mgrwt>
<rscale>  0 0.12499693E+03</rscale>
<asrwt>0</asrwt>
<pdfrwt beam="2">  1        4 0.27380152E-01 0.12499693E+03</pdfrwt>
<pdfrwt beam="1">  1       -4 0.33765727E-02 0.12499693E+03</pdfrwt>
<totfact> 0.90155419E+03</totfact>
</mgrwt>
</event>
<event>
 5    1  0.3330238E-002  0.1250022E+03  0.7818608E-02  0.1235066E+00
          4   -1    0    0  501    0  0.00000000000E+00  0.00000000000E+00  0.82208630412E+01  0.83183826037E+01  0.12700000000E+01 0.  1.
         -4   -1    0    0    0  501 -0.00000000000E+00 -0.00000000000E+00 -0.47227979137E+03  0.47228149894E+03  0.12700000000E+01 0.  1.
         25    2    1    2    0    0  0.00000000000E+00  0.00000000000E+00 -0.46405892833E+03  0.48059988154E+03  0.12500222867E+03 0.  0.
    9000005    1    3    3    0    0  0.47270468738E+02 -0.40171810169E+02 -0.26108650846E+03  0.26835691988E+03  0.10000000000E+01 0.  0.
    9000005    1    3    3    0    0 -0.47270468738E+02  0.40171810169E+02 -0.20297241987E+03  0.21224296167E+03  0.10000000000E+01 0.  0.
<mgrwt>
<rscale>  0 0.12500223E+03</rscale>
<asrwt>0</asrwt>
<pdfrwt beam="1">  1        4 0.12723814E-02 0.12500223E+03</pdfrwt>
<pdfrwt beam="2">  1       -4 0.72666041E-01 0.12500223E+03</pdfrwt>
<totfact> 0.57398828E+03</totfact>
</mgrwt>
</event>
<event>
 5    1  0.3330238E-002  0.1250009E+03  0.7818608E-02  0.1235068E+00
         -4   -1    0    0    0  501 -0.00000000000E+00  0.00000000000E+00  0.49429664741E+02  0.49445977151E+02  0.12700000000E+01 0. -1.
          4   -1    0    0  501    0  0.00000000000E+00 -0.00000000000E+00 -0.78993103767E+02  0.79003312226E+02  0.12700000000E+01 0. -1.
         25    2    1    2    0    0  0.00000000000E+00  0.00000000000E+00 -0.29563439025E+02  0.12844928938E+03  0.12500089205E+03 0.  0.
    9000005    1    3    3    0    0 -0.62893884756E+01 -0.47450414141E+02  0.26503850013E+02  0.54722502456E+02  0.10000000000E+01 0.  0.
    9000005    1    3    3    0    0  0.62893884756E+01  0.47450414141E+02 -0.56067289038E+02  0.73726786921E+02  0.10000000000E+01 0.  0.
<mgrwt>
<rscale>  0 0.12500089E+03</rscale>
<asrwt>0</asrwt>
<pdfrwt beam="2">  1        4 0.12154825E-01 0.12500089E+03</pdfrwt>
<pdfrwt beam="1">  1       -4 0.76066039E-02 0.12500089E+03</pdfrwt>
<totfact> 0.10377587E+04</totfact>
</mgrwt>
</event>
<event>
 5    1  0.3330238E-002  0.1250066E+03  0.7818608E-02  0.1235059E+00
         -4   -1    0    0    0  501 -0.00000000000E+00  0.00000000000E+00  0.48840937254E+02  0.48857446227E+02  0.12700000000E+01 0. -1.
          4   -1    0    0  501    0  0.00000000000E+00 -0.00000000000E+00 -0.79952376327E+02  0.79962462320E+02  0.12700000000E+01 0. -1.
         25    2    1    2    0    0  0.00000000000E+00  0.00000000000E+00 -0.31111439074E+02  0.12881990855E+03  0.12500658861E+03 0.  0.
    9000005    1    3    3    0    0  0.25105039040E+02  0.13202850694E+02 -0.72941833486E+02  0.78269338339E+02  0.10000000000E+01 0.  0.
    9000005    1    3    3    0    0 -0.25105039040E+02 -0.13202850694E+02  0.41830394413E+02  0.50550570208E+02  0.10000000000E+01 0.  0.
<mgrwt>
<rscale>  0 0.12500659E+03</rscale>
<asrwt>0</asrwt>
<pdfrwt beam="2">  1        4 0.12302411E-01 0.12500659E+03</pdfrwt>
<pdfrwt beam="1">  1       -4 0.75160361E-02 0.12500659E+03</pdfrwt>
<totfact> 0.10368276E+04</totfact>
</mgrwt>
</event>
<event>
 5    1  0.3330238E-002  0.1250016E+03  0.7818608E-02  0.1235067E+00
          4   -1    0    0  501    0  0.00000000000E+00  0.00000000000E+00  0.17129207625E+03  0.17129678423E+03  0.12700000000E+01 0.  1.
         -4   -1    0    0    0  501 -0.00000000000E+00 -0.00000000000E+00 -0.22782508851E+02  0.22817879164E+02  0.12700000000E+01 0.  1.
         25    2    1    2    0    0  0.00000000000E+00  0.00000000000E+00  0.14850956740E+03  0.19411466339E+03  0.12500164373E+03 0.  0.
    9000005    1    3    3    0    0  0.54868998984E+02 -0.26778113750E+02  0.53555285176E+02  0.81220951705E+02  0.10000000000E+01 0.  0.
    9000005    1    3    3    0    0 -0.54868998984E+02  0.26778113750E+02  0.94954282228E+02  0.11289371169E+03  0.10000000000E+01 0.  0.
<mgrwt>
<rscale>  0 0.12500164E+03</rscale>
<asrwt>0</asrwt>
<pdfrwt beam="1">  1        4 0.26355709E-01 0.12500164E+03</pdfrwt>
<pdfrwt beam="2">  1       -4 0.35080845E-02 0.12500164E+03</pdfrwt>
<totfact> 0.91132912E+03</totfact>
</mgrwt>
</event>
<event>
 5    1  0.3330238E-002  0.1249987E+03  0.7818608E-02  0.1235071E+00
         -4   -1    0    0    0  501 -0.00000000000E+00  0.00000000000E+00  0.16771505481E+01  0.21037428458E+01  0.12700000000E+01 0. -1.
          4   -1    0    0  501    0  0.00000000000E+00 -0.00000000000E+00 -0.20658402165E+04  0.20658406068E+04  0.12700000000E+01 0. -1.
         25    2    1    2    0    0  0.00000000000E+00  0.00000000000E+00 -0.20641630659E+04  0.20679443497E+04  0.12499868278E+03 0.  0.
    9000005    1    3    3    0    0  0.62491243107E+02 -0.11033477927E+00 -0.10321800653E+04  0.10340705270E+04  0.10000000000E+01 0.  0.
    9000005    1    3    3    0    0 -0.62491243107E+02  0.11033477927E+00 -0.10319830006E+04  0.10338738226E+04  0.10000000000E+01 0.  0.
<mgrwt>
<rscale>  0 0.12499868E+03</rscale>
<asrwt>0</asrwt>
<pdfrwt beam="2">  1        4 0.31785261E+00 0.12499868E+03</pdfrwt>
<pdfrwt beam="1">  1       -4 0.29086964E-03 0.12499868E+03</pdfrwt>
<totfact> 0.90007354E+02</totfact>
</mgrwt>
</event>
<event>
 5    1  0.3330238E-002  0.1250226E+03  0.7818608E-02  0.1235034E+00
         -4   -1    0    0    0  501 -0.00000000000E+00  0.00000000000E+00  0.43058080489E+03  0.43058267782E+03  0.12700000000E+01 0.  1.
          4   -1    0    0  501    0  0.00000000000E+00 -0.00000000000E+00 -0.90289951294E+01  0.91178754678E+01  0.12700000000E+01 0.  1.
         25    2    1    2    0    0  0.00000000000E+00  0.00000000000E+00  0.42155180976E+03  0.43970055329E+03  0.12502259096E+03 0.  0.
    9000005    1    3    3    0    0 -0.40994922629E+02 -0.15845862453E+02  0.36707290428E+03  0.36969608071E+03  0.10000000000E+01 0.  0.
    9000005    1    3    3    0    0  0.40994922629E+02  0.15845862453E+02  0.54478905482E+02  0.70004472577E+02  0.10000000000E+01 0.  0.
<mgrwt>
<rscale>  0 0.12502259E+03</rscale>
<asrwt>0</asrwt>
<pdfrwt beam="2">  1        4 0.13960571E-02 0.12502259E+03</pdfrwt>
<pdfrwt beam="1">  1       -4 0.66250185E-01 0.12502259E+03</pdfrwt>
<totfact> 0.60836132E+03</totfact>
</mgrwt>
</event>
<event>
 5    1  0.3330238E-002  0.1250002E+03  0.7818608E-02  0.1235069E+00
          4   -1    0    0  501    0  0.00000000000E+00  0.00000000000E+00  0.65953103040E+01  0.67164736288E+01  0.12700000000E+01 0.  1.
         -4   -1    0    0    0  501 -0.00000000000E+00 -0.00000000000E+00 -0.58676598432E+03  0.58676735872E+03  0.12700000000E+01 0.  1.
         25    2    1    2    0    0  0.00000000000E+00  0.00000000000E+00 -0.58017067401E+03  0.59348383234E+03  0.12500019307E+03 0.  0.
    9000005    1    3    3    0    0  0.58081031582E+02  0.91086573824E+01 -0.39067823087E+03  0.39507828837E+03  0.10000000000E+01 0.  0.
    9000005    1    3    3    0    0 -0.58081031582E+02 -0.91086573824E+01 -0.18949244315E+03  0.19840554397E+03  0.10000000000E+01 0.  0.
<mgrwt>
<rscale>  0 0.12500019E+03</rscale>
<asrwt>0</asrwt>
<pdfrwt beam="1">  1        4 0.10240896E-02 0.12500019E+03</pdfrwt>
<pdfrwt beam="2">  1       -4 0.90281075E-01 0.12500019E+03</pdfrwt>
<totfact> 0.49281338E+03</totfact>
</mgrwt>
</event>
<event>
 5    1  0.3330238E-002  0.1250008E+03  0.7818608E-02  0.1235068E+00
         -4   -1    0    0    0  501 -0.00000000000E+00  0.00000000000E+00  0.41522681447E+02  0.41542098822E+02  0.12700000000E+01 0. -1.
          4   -1    0    0  501    0  0.00000000000E+00 -0.00000000000E+00 -0.94030537763E+02  0.94039113841E+02  0.12700000000E+01 0. -1.
         25    2    1    2    0    0  0.00000000000E+00  0.00000000000E+00 -0.52507856315E+02  0.13558121266E+03  0.12500076101E+03 0.  0.
    9000005    1    3    3    0    0  0.47321192564E+01 -0.24584614960E+02 -0.88358638172E+02  0.91842502062E+02  0.10000000000E+01 0.  0.
    9000005    1    3    3    0    0 -0.47321192564E+01  0.24584614960E+02  0.35850781856E+02  0.43738710601E+02  0.10000000000E+01 0.  0.
<mgrwt>
<rscale>  0 0.12500076E+03</rscale>
<asrwt>0</asrwt>
<pdfrwt beam="2">  1        4 0.14468390E-01 0.12500076E+03</pdfrwt>
<pdfrwt beam="1">  1       -4 0.63902582E-02 0.12500076E+03</pdfrwt>
<totfact> 0.10225659E+04</totfact>
</mgrwt>
</event>
<event>
 5    1  0.3330238E-002  0.1249980E+03  0.7818608E-02  0.1235072E+00
         -4   -1    0    0    0  501 -0.00000000000E+00  0.00000000000E+00  0.17374147793E+02  0.17420502620E+02  0.12700000000E+01 0. -1.
          4   -1    0    0  501    0  0.00000000000E+00 -0.00000000000E+00 -0.22447644215E+03  0.22448003470E+03  0.12700000000E+01 0. -1.
         25    2    1    2    0    0  0.00000000000E+00  0.00000000000E+00 -0.20710229436E+03  0.24190053732E+03  0.12499803850E+03 0.  0.
    9000005    1    3    3    0    0 -0.25556058543E+01 -0.44084256787E+02 -0.18912210775E+03  0.19421154564E+03  0.10000000000E+01 0.  0.
    9000005    1    3    3    0    0  0.25556058543E+01  0.44084256787E+02 -0.17980186605E+02  0.47688991686E+02  0.10000000000E+01 0.  0.
<mgrwt>
<rscale>  0 0.12499804E+03</rscale>
<asrwt>0</asrwt>
<pdfrwt beam="2">  1        4 0.34538677E-01 0.12499804E+03</pdfrwt>
<pdfrwt beam="1">  1       -4 0.26767881E-02 0.12499804E+03</pdfrwt>
<totfact> 0.83518780E+03</totfact>
</mgrwt>
</event>
<event>
 5    1  0.3330238E-002  0.1250002E+03  0.7818608E-02  0.1235069E+00
         -4   -1    0    0    0  501 -0.00000000000E+00  0.00000000000E+00  0.49361115833E+01  0.50968713504E+01  0.12700000000E+01 0. -1.
          4   -1    0    0  501    0  0.00000000000E+00 -0.00000000000E+00 -0.77852317825E+03  0.77852421413E+03  0.12700000000E+01 0. -1.
         25    2    1    2    0    0  0.00000000000E+00  0.00000000000E+00 -0.77358706667E+03  0.78362108548E+03  0.12500022353E+03 0.  0.
    9000005    1    3    3    0    0 -0.50579793428E+02  0.19989022370E+02 -0.19383715557E+03  0.20132491003E+03  0.10000000000E+01 0.  0.
    9000005    1    3    3    0    0  0.50579793428E+02 -0.19989022370E+02 -0.57974991110E+03  0.58229617545E+03  0.10000000000E+01 0.  0.
<mgrwt>
<rscale>  0 0.12500022E+03</rscale>
<asrwt>0</asrwt>
<pdfrwt beam="2">  1        4 0.11978515E+00 0.12500022E+03</pdfrwt>
<pdfrwt beam="1">  1       -4 0.77184822E-03 0.12500022E+03</pdfrwt>
<totfact> 0.39006303E+03</totfact>
</mgrwt>
</event>
<event>
 5    1  0.3330238E-002  0.1250200E+03  0.7818608E-02  0.1235038E+00
         -4   -1    0    0    0  501 -0.00000000000E+00  0.00000000000E+00  0.79558408135E+03  0.79558509500E+03  0.12700000000E+01 0.  1.
          4   -1    0    0  501    0  0.00000000000E+00 -0.00000000000E+00 -0.48283513102E+01  0.49925821350E+01  0.12700000000E+01 0.  1.
         25    2    1    2    0    0  0.00000000000E+00  0.00000000000E+00  0.79075573004E+03  0.80057767714E+03  0.12501996859E+03 0.  0.
    9000005    1    3    3    0    0 -0.51074323410E+02  0.30900525232E+02  0.51398612478E+03  0.51744194402E+03  0.10000000000E+01 0.  0.
    9000005    1    3    3    0    0  0.51074323410E+02 -0.30900525232E+02  0.27676960526E+03  0.28313573312E+03  0.10000000000E+01 0.  0.
<mgrwt>
<rscale>  0 0.12501997E+03</rscale>
<asrwt>0</asrwt>
<pdfrwt beam="2">  1        4 0.75553504E-03 0.12501997E+03</pdfrwt>
<pdfrwt beam="1">  1       -4 0.12241016E+00 0.12501997E+03</pdfrwt>
<totfact> 0.38222301E+03</totfact>
</mgrwt>
</event>
<event>
 5    1  0.3330238E-002  0.1249936E+03  0.7818608E-02  0.1235079E+00
          4   -1    0    0  501    0  0.00000000000E+00  0.00000000000E+00  0.15518210165E+02  0.15570091416E+02  0.12700000000E+01 0. -1.
         -4   -1    0    0    0  501 -0.00000000000E+00 -0.00000000000E+00 -0.25122129517E+03  0.25122450526E+03  0.12700000000E+01 0. -1.
         25    2    1    2    0    0  0.00000000000E+00  0.00000000000E+00 -0.23570308500E+03  0.26679459668E+03  0.12499364999E+03 0.  0.
    9000005    1    3    3    0    0  0.15395761650E+02 -0.58888822313E+02 -0.14803217586E+03  0.16006076334E+03  0.10000000000E+01 0.  0.
    9000005    1    3    3    0    0 -0.15395761650E+02  0.58888822313E+02 -0.87670909137E+02  0.10673383334E+03  0.10000000000E+01 0.  0.
<mgrwt>
<rscale>  0 0.12499365E+03</rscale>
<asrwt>0</asrwt>
<pdfrwt beam="1">  1        4 0.23916549E-02 0.12499365E+03</pdfrwt>
<pdfrwt beam="2">  1       -4 0.38653665E-01 0.12499365E+03</pdfrwt>
<totfact> 0.79973191E+03</totfact>
</mgrwt>
</event>
<event>
 5    1  0.3330238E-002  0.1250002E+03  0.7818608E-02  0.1235069E+00
         -4   -1    0    0    0  501 -0.00000000000E+00  0.00000000000E+00  0.67853945054E+02  0.67865829099E+02  0.12700000000E+01 0.  1.
          4   -1    0    0  501    0  0.00000000000E+00 -0.00000000000E+00 -0.57544764769E+02  0.57558777370E+02  0.12700000000E+01 0.  1.
         25    2    1    2    0    0  0.00000000000E+00  0.00000000000E+00  0.10309180284E+02  0.12542460647E+03  0.12500021084E+03 0.  0.
    9000005    1    3    3    0    0  0.44138826763E+00 -0.60774731516E+02  0.19747018174E+02  0.63911716776E+02  0.10000000000E+01 0.  0.
    9000005    1    3    3    0    0 -0.44138826763E+00  0.60774731516E+02 -0.94378378897E+01  0.61512889694E+02  0.10000000000E+01 0.  0.
<mgrwt>
<rscale>  0 0.12500021E+03</rscale>
<asrwt>0</asrwt>
<pdfrwt beam="2">  1        4 0.88550328E-02 0.12500021E+03</pdfrwt>
<pdfrwt beam="1">  1       -4 0.10441060E-01 0.12500021E+03</pdfrwt>
<totfact> 0.10443572E+04</totfact>
</mgrwt>
</event>
<event>
 5    1  0.3330238E-002  0.1249975E+03  0.7818608E-02  0.1235073E+00
         -4   -1    0    0    0  501 -0.00000000000E+00  0.00000000000E+00  0.34587817260E+03  0.34588050419E+03  0.12700000000E+01 0.  1.
          4   -1    0    0  501    0  0.00000000000E+00 -0.00000000000E+00 -0.11255176444E+02  0.11326601290E+02  0.12700000000E+01 0.  1.
         25    2    1    2    0    0  0.00000000000E+00  0.00000000000E+00  0.33462299615E+03  0.35720710548E+03  0.12499746658E+03 0.  0.
    9000005    1    3    3    0    0  0.45981579943E+02  0.39361162961E+02  0.12290323415E+03  0.13700296277E+03  0.10000000000E+01 0.  0.
    9000005    1    3    3    0    0 -0.45981579943E+02 -0.39361162961E+02  0.21171976200E+03  0.22020414271E+03  0.10000000000E+01 0.  0.
<mgrwt>
<rscale>  0 0.12499747E+03</rscale>
<asrwt>0</asrwt>
<pdfrwt beam="2">  1        4 0.17372395E-02 0.12499747E+03</pdfrwt>
<pdfrwt beam="1">  1       -4 0.53217690E-01 0.12499747E+03</pdfrwt>
<totfact> 0.68942765E+03</totfact>
</mgrwt>
</event>
<event>
 5    1  0.3330238E-002  0.1249968E+03  0.7818608E-02  0.1235074E+00
          4   -1    0    0  501    0  0.00000000000E+00  0.00000000000E+00  0.21279562272E+03  0.21279941247E+03  0.12700000000E+01 0.  1.
         -4   -1    0    0    0  501 -0.00000000000E+00 -0.00000000000E+00 -0.18329941756E+02  0.18373885403E+02  0.12700000000E+01 0.  1.
         25    2    1    2    0    0  0.00000000000E+00  0.00000000000E+00  0.19446568096E+03  0.23117329787E+03  0.12499677027E+03 0.  0.
    9000005    1    3    3    0    0 -0.47395187095E+02  0.43197232523E+01  0.22334538377E+02  0.52581321524E+02  0.10000000000E+01 0.  0.
    9000005    1    3    3    0    0  0.47395187095E+02 -0.43197232523E+01  0.17213114258E+03  0.17859197635E+03  0.10000000000E+01 0.  0.
<mgrwt>
<rscale>  0 0.12499677E+03</rscale>
<asrwt>0</asrwt>
<pdfrwt beam="1">  1        4 0.32741461E-01 0.12499677E+03</pdfrwt>
<pdfrwt beam="2">  1       -4 0.28236627E-02 0.12499677E+03</pdfrwt>
<totfact> 0.85135893E+03</totfact>
</mgrwt>
</event>
<event>
 5    1  0.3330238E-002  0.1250041E+03  0.7818608E-02  0.1235063E+00
         -4   -1    0    0    0  501 -0.00000000000E+00  0.00000000000E+00  0.10047367094E+04  0.10047375121E+04  0.12700000000E+01 0.  1.
          4   -1    0    0  501    0  0.00000000000E+00 -0.00000000000E+00 -0.37835555970E+01  0.39910140260E+01  0.12700000000E+01 0.  1.
         25    2    1    2    0    0  0.00000000000E+00  0.00000000000E+00  0.10009531538E+04  0.10087285261E+04  0.12500409276E+03 0.  0.
    9000005    1    3    3    0    0  0.22989849736E+02  0.30208226711E+02  0.90107460880E+03  0.90187444845E+03  0.10000000000E+01 0.  0.
    9000005    1    3    3    0    0 -0.22989849736E+02 -0.30208226711E+02  0.99878545007E+02  0.10685407762E+03  0.10000000000E+01 0.  0.
<mgrwt>
<rscale>  0 0.12500409E+03</rscale>
<asrwt>0</asrwt>
<pdfrwt beam="2">  1        4 0.59810608E-03 0.12500409E+03</pdfrwt>
<pdfrwt beam="1">  1       -4 0.15459076E+00 0.12500409E+03</pdfrwt>
<totfact> 0.30315327E+03</totfact>
</mgrwt>
</event>
<event>
 5    1  0.3330238E-002  0.1250105E+03  0.7818608E-02  0.1235053E+00
         -4   -1    0    0    0  501 -0.00000000000E+00  0.00000000000E+00  0.43238594507E+02  0.43257241648E+02  0.12700000000E+01 0.  1.
          4   -1    0    0  501    0  0.00000000000E+00 -0.00000000000E+00 -0.90314290118E+02  0.90323219049E+02  0.12700000000E+01 0.  1.
         25    2    1    2    0    0  0.00000000000E+00  0.00000000000E+00 -0.47075695610E+02  0.13358046070E+03  0.12501047301E+03 0.  0.
    9000005    1    3    3    0    0 -0.84744251224E+01  0.12845634564E+02  0.41187595456E+02  0.43980043519E+02  0.10000000000E+01 0.  0.
    9000005    1    3    3    0    0  0.84744251224E+01 -0.12845634564E+02 -0.88263291066E+02  0.89600417178E+02  0.10000000000E+01 0.  0.
<mgrwt>
<rscale>  0 0.12501047E+03</rscale>
<asrwt>0</asrwt>
<pdfrwt beam="2">  1        4 0.13896627E-01 0.12501047E+03</pdfrwt>
<pdfrwt beam="1">  1       -4 0.66542127E-02 0.12501047E+03</pdfrwt>
<totfact> 0.10265653E+04</totfact>
</mgrwt>
</event>
<event>
 5    1  0.3330238E-002  0.1249981E+03  0.7818608E-02  0.1235072E+00
         -4   -1    0    0    0  501 -0.00000000000E+00  0.00000000000E+00  0.50551881408E+03  0.50552040937E+03  0.12700000000E+01 0. -1.
          4   -1    0    0  501    0  0.00000000000E+00 -0.00000000000E+00 -0.76731752140E+01  0.77775650344E+01  0.12700000000E+01 0. -1.
         25    2    1    2    0    0  0.00000000000E+00  0.00000000000E+00  0.49784563886E+03  0.51329797440E+03  0.12499812154E+03 0.  0.
    9000005    1    3    3    0    0 -0.53445939937E+02 -0.21874490404E+02  0.15086809152E+03  0.16154610136E+03  0.10000000000E+01 0.  0.
    9000005    1    3    3    0    0  0.53445939937E+02  0.21874490404E+02  0.34697754735E+03  0.35175187304E+03  0.10000000000E+01 0.  0.
<mgrwt>
<rscale>  0 0.12499812E+03</rscale>
<asrwt>0</asrwt>
<pdfrwt beam="2">  1        4 0.11886412E-02 0.12499812E+03</pdfrwt>
<pdfrwt beam="1">  1       -4 0.77780278E-01 0.12499812E+03</pdfrwt>
<totfact> 0.54849433E+03</totfact>
</mgrwt>
</event>
<event>
 5    1  0.3330238E-002  0.1249981E+03  0.7818608E-02  0.1235072E+00
          4   -1    0    0  501    0  0.00000000000E+00  0.00000000000E+00  0.26672093216E+03  0.26672395571E+03  0.12700000000E+01 0. -1.
         -4   -1    0    0    0  501 -0.00000000000E+00 -0.00000000000E+00 -0.14614371390E+02  0.14669449585E+02  0.12700000000E+01 0. -1.
         25    2    1    2    0    0  0.00000000000E+00  0.00000000000E+00  0.25210656077E+03  0.28139340530E+03  0.12499812224E+03 0.  0.
    9000005    1    3    3    0    0  0.17835999192E+02  0.37932768039E+02  0.23039048048E+03  0.23417470242E+03  0.10000000000E+01 0.  0.
    9000005    1    3    3    0    0 -0.17835999192E+02 -0.37932768039E+02  0.21716080289E+02  0.47218702877E+02  0.10000000000E+01 0.  0.
<mgrwt>
<rscale>  0 0.12499812E+03</rscale>
<asrwt>0</asrwt>
<pdfrwt beam="1">  1        4 0.41038461E-01 0.12499812E+03</pdfrwt>
<pdfrwt beam="2">  1       -4 0.22528341E-02 0.12499812E+03</pdfrwt>
<totfact> 0.77996965E+03</totfact>
</mgrwt>
</event>
<event>
 5    1  0.3330238E-002  0.1250034E+03  0.7818608E-02  0.1235064E+00
         -4   -1    0    0    0  501 -0.00000000000E+00  0.00000000000E+00  0.71946661231E+03  0.71946773321E+03  0.12700000000E+01 0. -1.
          4   -1    0    0  501    0  0.00000000000E+00 -0.00000000000E+00 -0.53542617161E+01  0.55028191434E+01  0.12700000000E+01 0. -1.
         25    2    1    2    0    0  0.00000000000E+00  0.00000000000E+00  0.71411235059E+03  0.72497055235E+03  0.12500340998E+03 0.  0.
    9000005    1    3    3    0    0 -0.68145672765E+00 -0.30696880666E+02  0.41379594593E+02  0.51536722001E+02  0.10000000000E+01 0.  0.
    9000005    1    3    3    0    0  0.68145672765E+00  0.30696880666E+02  0.67273275600E+03  0.67343383035E+03  0.10000000000E+01 0.  0.
<mgrwt>
<rscale>  0 0.12500341E+03</rscale>
<asrwt>0</asrwt>
<pdfrwt beam="2">  1        4 0.83524647E-03 0.12500341E+03</pdfrwt>
<pdfrwt beam="1">  1       -4 0.11069866E+00 0.12500341E+03</pdfrwt>
<totfact> 0.41797730E+03</totfact>
</mgrwt>
</event>
<event>
 5    1  0.3330238E-002  0.1249994E+03  0.7818608E-02  0.1235070E+00
         -4   -1    0    0    0  501 -0.00000000000E+00  0.00000000000E+00  0.93919535912E+02  0.93928122125E+02  0.12700000000E+01 0. -1.
          4   -1    0    0  501    0  0.00000000000E+00 -0.00000000000E+00 -0.41570897332E+02  0.41590292196E+02  0.12700000000E+01 0. -1.
         25    2    1    2    0    0  0.00000000000E+00  0.00000000000E+00  0.52348638580E+02  0.13551841432E+03  0.12499944263E+03 0.  0.
    9000005    1    3    3    0    0  0.40291155896E+02  0.13379627856E+02 -0.23541161493E+02  0.48554896452E+02  0.10000000000E+01 0.  0.
    9000005    1    3    3    0    0 -0.40291155896E+02 -0.13379627856E+02  0.75889800073E+02  0.86963517869E+02  0.10000000000E+01 0.  0.
<mgrwt>
<rscale>  0 0.12499944E+03</rscale>
<asrwt>0</asrwt>
<pdfrwt beam="2">  1        4 0.63976751E-02 0.12499944E+03</pdfrwt>
<pdfrwt beam="1">  1       -4 0.14451312E-01 0.12499944E+03</pdfrwt>
<totfact> 0.10227284E+04</totfact>
</mgrwt>
</event>
<event>
 5    1  0.3330238E-002  0.1249917E+03  0.7818608E-02  0.1235082E+00
          4   -1    0    0  501    0  0.00000000000E+00  0.00000000000E+00  0.62450519320E+03  0.62450648454E+03  0.12700000000E+01 0.  1.
         -4   -1    0    0    0  501 -0.00000000000E+00 -0.00000000000E+00 -0.61883357084E+01  0.63173094621E+01  0.12700000000E+01 0.  1.
         25    2    1    2    0    0  0.00000000000E+00  0.00000000000E+00  0.61831685749E+03  0.63082379400E+03  0.12499169101E+03 0.  0.
    9000005    1    3    3    0    0  0.59553119493E+02  0.15410771932E+02  0.25371920103E+03  0.26107182710E+03  0.10000000000E+01 0.  0.
    9000005    1    3    3    0    0 -0.59553119493E+02 -0.15410771932E+02  0.36459765646E+03  0.36975196690E+03  0.10000000000E+01 0.  0.
<mgrwt>
<rscale>  0 0.12499169E+03</rscale>
<asrwt>0</asrwt>
<pdfrwt beam="1">  1        4 0.96087768E-01 0.12499169E+03</pdfrwt>
<pdfrwt beam="2">  1       -4 0.96207178E-03 0.12499169E+03</pdfrwt>
<totfact> 0.46986533E+03</totfact>
</mgrwt>
</event>
<event>
 5    1  0.3330238E-002  0.1249986E+03  0.7818608E-02  0.1235071E+00
         -4   -1    0    0    0  501 -0.00000000000E+00  0.00000000000E+00  0.11114889357E+02  0.11187209903E+02  0.12700000000E+01 0. -1.
          4   -1    0    0  501    0  0.00000000000E+00 -0.00000000000E+00 -0.35022204657E+03  0.35022434924E+03  0.12700000000E+01 0. -1.
         25    2    1    2    0    0  0.00000000000E+00  0.00000000000E+00 -0.33910715721E+03  0.36141155915E+03  0.12499860404E+03 0.  0.
    9000005    1    3    3    0    0  0.60823637396E+02  0.85654387154E+01 -0.13629942862E+03  0.14950389911E+03  0.10000000000E+01 0.  0.
    9000005    1    3    3    0    0 -0.60823637396E+02 -0.85654387154E+01 -0.20280772859E+03  0.21190766004E+03  0.10000000000E+01 0.  0.
<mgrwt>
<rscale>  0 0.12499860E+03</rscale>
<asrwt>0</asrwt>
<pdfrwt beam="2">  1        4 0.53886047E-01 0.12499860E+03</pdfrwt>
<pdfrwt beam="1">  1       -4 0.17157235E-02 0.12499860E+03</pdfrwt>
<totfact> 0.68489242E+03</totfact>
</mgrwt>
</event>
<event>
 5    1  0.3330238E-002  0.1250050E+03  0.7818608E-02  0.1235061E+00
          4   -1    0    0  501    0  0.00000000000E+00  0.00000000000E+00  0.32710242964E+01  0.35089172044E+01  0.12700000000E+01 0. -1.
         -4   -1    0    0    0  501 -0.00000000000E+00 -0.00000000000E+00 -0.11521501800E+04  0.11521508800E+04  0.12700000000E+01 0. -1.
         25    2    1    2    0    0  0.00000000000E+00  0.00000000000E+00 -0.11488791557E+04  0.11556597972E+04  0.12500500931E+03 0.  0.
    9000005    1    3    3    0    0 -0.24676473557E+02  0.44616347682E+02 -0.90853988949E+03  0.90996993226E+03  0.10000000000E+01 0.  0.
    9000005    1    3    3    0    0  0.24676473557E+02 -0.44616347682E+02 -0.24033926624E+03  0.24568986492E+03  0.10000000000E+01 0.  0.
<mgrwt>
<rscale>  0 0.12500501E+03</rscale>
<asrwt>0</asrwt>
<pdfrwt beam="1">  1        4 0.52158872E-03 0.12500501E+03</pdfrwt>
<pdfrwt beam="2">  1       -4 0.17727192E+00 0.12500501E+03</pdfrwt>
<totfact> 0.25900940E+03</totfact>
</mgrwt>
</event>
<event>
 5    1  0.3330238E-002  0.1250259E+03  0.7818608E-02  0.1235029E+00
          4   -1    0    0  501    0  0.00000000000E+00  0.00000000000E+00  0.54663281607E+01  0.56119197750E+01  0.12700000000E+01 0. -1.
         -4   -1    0    0    0  501 -0.00000000000E+00 -0.00000000000E+00 -0.70535697615E+03  0.70535811947E+03  0.12700000000E+01 0. -1.
         25    2    1    2    0    0  0.00000000000E+00  0.00000000000E+00 -0.69989064799E+03  0.71097003925E+03  0.12502590756E+03 0.  0.
    9000005    1    3    3    0    0  0.53644158695E+02  0.32014087313E+02 -0.33819204957E+03  0.34391490218E+03  0.10000000000E+01 0.  0.
    9000005    1    3    3    0    0 -0.53644158695E+02 -0.32014087313E+02 -0.36169859842E+03  0.36705513707E+03  0.10000000000E+01 0.  0.
<mgrwt>
<rscale>  0 0.12502591E+03</rscale>
<asrwt>0</asrwt>
<pdfrwt beam="1">  1        4 0.85226143E-03 0.12502591E+03</pdfrwt>
<pdfrwt beam="2">  1       -4 0.10852767E+00 0.12502591E+03</pdfrwt>
<totfact> 0.42489835E+03</totfact>
</mgrwt>
</event>
<event>
 5    1  0.3330238E-002  0.1249991E+03  0.7818608E-02  0.1235071E+00
          4   -1    0    0  501    0  0.00000000000E+00  0.00000000000E+00  0.24731116547E+02  0.24763703795E+02  0.12700000000E+01 0. -1.
         -4   -1    0    0    0  501 -0.00000000000E+00 -0.00000000000E+00 -0.15780726117E+03  0.15781237144E+03  0.12700000000E+01 0. -1.
         25    2    1    2    0    0  0.00000000000E+00  0.00000000000E+00 -0.13307614462E+03  0.18257607523E+03  0.12499905191E+03 0.  0.
    9000005    1    3    3    0    0  0.46197602297E+02 -0.36933915912E+02 -0.37076314591E+02  0.69813936333E+02  0.10000000000E+01 0.  0.
    9000005    1    3    3    0    0 -0.46197602297E+02  0.36933915912E+02 -0.95999830032E+02  0.11276213890E+03  0.10000000000E+01 0.  0.
<mgrwt>
<rscale>  0 0.12499905E+03</rscale>
<asrwt>0</asrwt>
<pdfrwt beam="1">  1        4 0.38076871E-02 0.12499905E+03</pdfrwt>
<pdfrwt beam="2">  1       -4 0.24280939E-01 0.12499905E+03</pdfrwt>
<totfact> 0.93157326E+03</totfact>
</mgrwt>
</event>
<event>
 5    1  0.3330238E-002  0.1249895E+03  0.7818608E-02  0.1235086E+00
         -4   -1    0    0    0  501 -0.00000000000E+00  0.00000000000E+00  0.11621545866E+03  0.11622239772E+03  0.12700000000E+01 0.  1.
          4   -1    0    0  501    0  0.00000000000E+00 -0.00000000000E+00 -0.33586525026E+02  0.33610527567E+02  0.12700000000E+01 0.  1.
         25    2    1    2    0    0  0.00000000000E+00  0.00000000000E+00  0.82628933631E+02  0.14983292528E+03  0.12498945886E+03 0.  0.
    9000005    1    3    3    0    0 -0.36293977939E+02 -0.35618294275E+02  0.84845887106E+02  0.98922900688E+02  0.10000000000E+01 0.  0.
    9000005    1    3    3    0    0  0.36293977939E+02  0.35618294275E+02 -0.22169534745E+01  0.50910024596E+02  0.10000000000E+01 0.  0.
<mgrwt>
<rscale>  0 0.12498946E+03</rscale>
<asrwt>0</asrwt>
<pdfrwt beam="2">  1        4 0.51695378E-02 0.12498946E+03</pdfrwt>
<pdfrwt beam="1">  1       -4 0.17881681E-01 0.12498946E+03</pdfrwt>
<totfact> 0.99360582E+03</totfact>
</mgrwt>
</event>
<event>
 5    1  0.3330238E-002  0.1249987E+03  0.7818608E-02  0.1235071E+00
          4   -1    0    0  501    0  0.00000000000E+00  0.00000000000E+00  0.47639718622E+02  0.47656643717E+02  0.12700000000E+01 0. -1.
         -4   -1    0    0    0  501 -0.00000000000E+00 -0.00000000000E+00 -0.81957494603E+02  0.81967333869E+02  0.12700000000E+01 0. -1.
         25    2    1    2    0    0  0.00000000000E+00  0.00000000000E+00 -0.34317775981E+02  0.12962397759E+03  0.12499866326E+03 0.  0.
    9000005    1    3    3    0    0  0.56249417578E+02  0.27224408035E+02 -0.17124752381E+02  0.64802951436E+02  0.10000000000E+01 0.  0.
    9000005    1    3    3    0    0 -0.56249417578E+02 -0.27224408035E+02 -0.17193023600E+02  0.64821026150E+02  0.10000000000E+01 0.  0.
<mgrwt>
<rscale>  0 0.12499866E+03</rscale>
<asrwt>0</asrwt>
<pdfrwt beam="1">  1        4 0.73312463E-02 0.12499866E+03</pdfrwt>
<pdfrwt beam="2">  1       -4 0.12610904E-01 0.12499866E+03</pdfrwt>
<totfact> 0.10352870E+04</totfact>
</mgrwt>
</event>
<event>
 5    1  0.3330238E-002  0.1250040E+03  0.7818608E-02  0.1235063E+00
         -4   -1    0    0    0  501 -0.00000000000E+00  0.00000000000E+00  0.80692371870E+03  0.80692471812E+03  0.12700000000E+01 0.  1.
          4   -1    0    0  501    0  0.00000000000E+00 -0.00000000000E+00 -0.47569174007E+01  0.49235315737E+01  0.12700000000E+01 0.  1.
         25    2    1    2    0    0  0.00000000000E+00  0.00000000000E+00  0.80216680130E+03  0.81184824969E+03  0.12500401358E+03 0.  0.
    9000005    1    3    3    0    0  0.57826534788E+02 -0.19054373718E+02  0.30957584832E+03  0.31550781789E+03  0.10000000000E+01 0.  0.
    9000005    1    3    3    0    0 -0.57826534788E+02  0.19054373718E+02  0.49259095298E+03  0.49634043180E+03  0.10000000000E+01 0.  0.
<mgrwt>
<rscale>  0 0.12500401E+03</rscale>
<asrwt>0</asrwt>
<pdfrwt beam="2">  1        4 0.74472677E-03 0.12500401E+03</pdfrwt>
<pdfrwt beam="1">  1       -4 0.12415501E+00 0.12500401E+03</pdfrwt>
<totfact> 0.37737922E+03</totfact>
</mgrwt>
</event>
<event>
 5    1  0.3330238E-002  0.1249989E+03  0.7818608E-02  0.1235071E+00
         -4   -1    0    0    0  501 -0.00000000000E+00  0.00000000000E+00  0.10370952980E+04  0.10370960756E+04  0.12700000000E+01 0. -1.
          4   -1    0    0  501    0  0.00000000000E+00 -0.00000000000E+00 -0.36586031086E+01  0.38727608635E+01  0.12700000000E+01 0. -1.
         25    2    1    2    0    0  0.00000000000E+00  0.00000000000E+00  0.10334366949E+04  0.10409688365E+04  0.12499886459E+03 0.  0.
    9000005    1    3    3    0    0 -0.20705925807E+02  0.25618995143E+02  0.74471502822E+02  0.81437540534E+02  0.10000000000E+01 0.  0.
    9000005    1    3    3    0    0  0.20705925807E+02 -0.25618995143E+02  0.95896519207E+03  0.95953129594E+03  0.10000000000E+01 0.  0.
<mgrwt>
<rscale>  0 0.12499886E+03</rscale>
<asrwt>0</asrwt>
<pdfrwt beam="2">  1        4 0.57939529E-03 0.12499886E+03</pdfrwt>
<pdfrwt beam="1">  1       -4 0.15956971E+00 0.12499886E+03</pdfrwt>
<totfact> 0.29279152E+03</totfact>
</mgrwt>
</event>
<event>
 5    1  0.3330238E-002  0.1249865E+03  0.7818608E-02  0.1235090E+00
         -4   -1    0    0    0  501 -0.00000000000E+00  0.00000000000E+00  0.47459252191E+02  0.47476241621E+02  0.12700000000E+01 0. -1.
          4   -1    0    0  501    0  0.00000000000E+00 -0.00000000000E+00 -0.82253036176E+02  0.82262840093E+02  0.12700000000E+01 0. -1.
         25    2    1    2    0    0  0.00000000000E+00  0.00000000000E+00 -0.34793783986E+02  0.12973908171E+03  0.12498648695E+03 0.  0.
    9000005    1    3    3    0    0 -0.19058827558E+01 -0.19502501690E+02  0.44192418004E+02  0.48352350204E+02  0.10000000000E+01 0.  0.
    9000005    1    3    3    0    0  0.19058827558E+01  0.19502501690E+02 -0.78986201989E+02  0.81386731510E+02  0.10000000000E+01 0.  0.
<mgrwt>
<rscale>  0 0.12498649E+03</rscale>
<asrwt>0</asrwt>
<pdfrwt beam="2">  1        4 0.12656374E-01 0.12498649E+03</pdfrwt>
<pdfrwt beam="1">  1       -4 0.73034844E-02 0.12498649E+03</pdfrwt>
<totfact> 0.10353250E+04</totfact>
</mgrwt>
</event>
<event>
 5    1  0.3330238E-002  0.1249896E+03  0.7818608E-02  0.1235086E+00
         -4   -1    0    0    0  501 -0.00000000000E+00  0.00000000000E+00  0.82909489314E+03  0.82909586583E+03  0.12700000000E+01 0. -1.
          4   -1    0    0  501    0  0.00000000000E+00 -0.00000000000E+00 -0.46240848961E+01  0.47953165825E+01  0.12700000000E+01 0. -1.
         25    2    1    2    0    0  0.00000000000E+00  0.00000000000E+00  0.82447080824E+03  0.83389118241E+03  0.12498956138E+03 0.  0.
    9000005    1    3    3    0    0  0.14966720234E+02  0.53455392916E+02  0.22082474251E+03  0.22769727414E+03  0.10000000000E+01 0.  0.
    9000005    1    3    3    0    0 -0.14966720234E+02 -0.53455392916E+02  0.60364606573E+03  0.60619390827E+03  0.10000000000E+01 0.  0.
<mgrwt>
<rscale>  0 0.12498956E+03</rscale>
<asrwt>0</asrwt>
<pdfrwt beam="2">  1        4 0.72464491E-03 0.12498956E+03</pdfrwt>
<pdfrwt beam="1">  1       -4 0.12756618E+00 0.12498956E+03</pdfrwt>
<totfact> 0.36804154E+03</totfact>
</mgrwt>
</event>
<event>
 5    1  0.3330238E-002  0.1250029E+03  0.7818608E-02  0.1235065E+00
          4   -1    0    0  501    0  0.00000000000E+00  0.00000000000E+00  0.89094592681E+02  0.89103643837E+02  0.12700000000E+01 0.  1.
         -4   -1    0    0    0  501 -0.00000000000E+00 -0.00000000000E+00 -0.43825416008E+02  0.43843813569E+02  0.12700000000E+01 0.  1.
         25    2    1    2    0    0  0.00000000000E+00  0.00000000000E+00  0.45269176674E+02  0.13294745741E+03  0.12500291226E+03 0.  0.
    9000005    1    3    3    0    0 -0.13504583113E+02 -0.23556806028E+02  0.82498040021E+02  0.86857489502E+02  0.10000000000E+01 0.  0.
    9000005    1    3    3    0    0  0.13504583113E+02  0.23556806028E+02 -0.37228863347E+02  0.46089967904E+02  0.10000000000E+01 0.  0.
<mgrwt>
<rscale>  0 0.12500291E+03</rscale>
<asrwt>0</asrwt>
<pdfrwt beam="1">  1        4 0.13708972E-01 0.12500291E+03</pdfrwt>
<pdfrwt beam="2">  1       -4 0.67444832E-02 0.12500291E+03</pdfrwt>
<totfact> 0.10280841E+04</totfact>
</mgrwt>
</event>
<event>
 5    1  0.3330238E-002  0.1249992E+03  0.7818608E-02  0.1235071E+00
         -4   -1    0    0    0  501 -0.00000000000E+00  0.00000000000E+00  0.47974511177E+02  0.47991318201E+02  0.12700000000E+01 0. -1.
          4   -1    0    0  501    0  0.00000000000E+00 -0.00000000000E+00 -0.81386338493E+02  0.81396246801E+02  0.12700000000E+01 0. -1.
         25    2    1    2    0    0  0.00000000000E+00  0.00000000000E+00 -0.33411827316E+02  0.12938756500E+03  0.12499916709E+03 0.  0.
    9000005    1    3    3    0    0  0.28211472258E+02 -0.55107605569E+02 -0.78945661236E+01  0.62418423024E+02  0.10000000000E+01 0.  0.
    9000005    1    3    3    0    0 -0.28211472258E+02  0.55107605569E+02 -0.25517261192E+02  0.66969141978E+02  0.10000000000E+01 0.  0.
<mgrwt>
<rscale>  0 0.12499917E+03</rscale>
<asrwt>0</asrwt>
<pdfrwt beam="2">  1        4 0.12523030E-01 0.12499917E+03</pdfrwt>
<pdfrwt beam="1">  1       -4 0.73827490E-02 0.12499917E+03</pdfrwt>
<totfact> 0.10357821E+04</totfact>
</mgrwt>
</event>
<event>
 5    1  0.3330238E-002  0.1250058E+03  0.7818608E-02  0.1235060E+00
         -4   -1    0    0    0  501 -0.00000000000E+00  0.00000000000E+00  0.74969295989E+02  0.74980052288E+02  0.12700000000E+01 0. -1.
          4   -1    0    0  501    0  0.00000000000E+00 -0.00000000000E+00 -0.52087265586E+02  0.52102745956E+02  0.12700000000E+01 0. -1.
         25    2    1    2    0    0  0.00000000000E+00  0.00000000000E+00  0.22882030404E+02  0.12708279824E+03  0.12500580104E+03 0.  0.
    9000005    1    3    3    0    0 -0.22266609364E+02 -0.12755783208E+01 -0.47908625148E+02  0.52855135570E+02  0.10000000000E+01 0.  0.
    9000005    1    3    3    0    0  0.22266609364E+02  0.12755783208E+01  0.70790655551E+02  0.74227662674E+02  0.10000000000E+01 0.  0.
<mgrwt>
<rscale>  0 0.12500580E+03</rscale>
<asrwt>0</asrwt>
<pdfrwt beam="2">  1        4 0.80154437E-02 0.12500580E+03</pdfrwt>
<pdfrwt beam="1">  1       -4 0.11535756E-01 0.12500580E+03</pdfrwt>
<totfact> 0.10405985E+04</totfact>
</mgrwt>
</event>
<event>
 4    1  0.3330238E-002  0.1251268E+03  0.7818608E-02  0.1234871E+00
          4   -1    0    0  501    0  0.00000000000E+00  0.00000000000E+00  0.75567761715E+03  0.75567868434E+03  0.12700000000E+01 0.  1.
         -4   -1    0    0    0  501 -0.00000000000E+00 -0.00000000000E+00 -0.51007582530E+01  0.52564850190E+01  0.12700000000E+01 0.  1.
    9000005    1    1    2    0    0  0.59609449578E+02  0.18776233313E+02  0.39176900937E+03  0.39672382096E+03  0.10000000000E+01 0.  0.
    9000005    1    1    2    0    0 -0.59609449578E+02 -0.18776233313E+02  0.35880784953E+03  0.36421134840E+03  0.10000000000E+01 0.  0.
<mgrwt>
<rscale>  0 0.12512678E+03</rscale>
<asrwt>0</asrwt>
<pdfrwt beam="1">  1        4 0.11627012E+00 0.12512678E+03</pdfrwt>
<pdfrwt beam="2">  1       -4 0.79679336E-03 0.12512678E+03</pdfrwt>
<totfact> 0.39945697E+03</totfact>
</mgrwt>
</event>
<event>
 5    1  0.3330238E-002  0.1250016E+03  0.7818608E-02  0.1235067E+00
          4   -1    0    0  501    0  0.00000000000E+00  0.00000000000E+00  0.18797972405E+02  0.18840824465E+02  0.12700000000E+01 0.  1.
         -4   -1    0    0    0  501 -0.00000000000E+00 -0.00000000000E+00 -0.20752556122E+03  0.20752944721E+03  0.12700000000E+01 0.  1.
         25    2    1    2    0    0  0.00000000000E+00  0.00000000000E+00 -0.18872758882E+03  0.22637027168E+03  0.12500158847E+03 0.  0.
    9000005    1    3    3    0    0  0.20438284737E+01  0.58667318825E+02 -0.13317529845E+03  0.14554274853E+03  0.10000000000E+01 0.  0.
    9000005    1    3    3    0    0 -0.20438284737E+01 -0.58667318825E+02 -0.55552290367E+02  0.80827523146E+02  0.10000000000E+01 0.  0.
<mgrwt>
<rscale>  0 0.12500159E+03</rscale>
<asrwt>0</asrwt>
<pdfrwt beam="1">  1        4 0.28955911E-02 0.12500159E+03</pdfrwt>
<pdfrwt beam="2">  1       -4 0.31930603E-01 0.12500159E+03</pdfrwt>
<totfact> 0.85867036E+03</totfact>
</mgrwt>
</event>
<event>
 5    1  0.3330238E-002  0.1250017E+03  0.7818608E-02  0.1235067E+00
          4   -1    0    0  501    0  0.00000000000E+00  0.00000000000E+00  0.33292703801E+03  0.33292946030E+03  0.12700000000E+01 0.  1.
         -4   -1    0    0    0  501 -0.00000000000E+00 -0.00000000000E+00 -0.11696533310E+02  0.11765279064E+02  0.12700000000E+01 0.  1.
         25    2    1    2    0    0  0.00000000000E+00  0.00000000000E+00  0.32123050470E+03  0.34469473937E+03  0.12500170478E+03 0.  0.
    9000005    1    3    3    0    0  0.39083944099E+02 -0.35032732670E+02  0.67082476200E+02  0.85181603987E+02  0.10000000000E+01 0.  0.
    9000005    1    3    3    0    0 -0.39083944099E+02  0.35032732670E+02  0.25414802850E+03  0.25951313538E+03  0.10000000000E+01 0.  0.
<mgrwt>
<rscale>  0 0.12500170E+03</rscale>
<asrwt>0</asrwt>
<pdfrwt beam="1">  1        4 0.51225024E-01 0.12500170E+03</pdfrwt>
<pdfrwt beam="2">  1       -4 0.18049410E-02 0.12500170E+03</pdfrwt>
<totfact> 0.70309511E+03</totfact>
</mgrwt>
</event>
<event>
 5    1  0.3330238E-002  0.1250016E+03  0.7818608E-02  0.1235067E+00
         -4   -1    0    0    0  501 -0.00000000000E+00  0.00000000000E+00  0.22167548573E+03  0.22167912367E+03  0.12700000000E+01 0.  1.
          4   -1    0    0  501    0  0.00000000000E+00 -0.00000000000E+00 -0.17595258566E+02  0.17641032396E+02  0.12700000000E+01 0.  1.
         25    2    1    2    0    0  0.00000000000E+00  0.00000000000E+00  0.20408022716E+03  0.23932015607E+03  0.12500159192E+03 0.  0.
    9000005    1    3    3    0    0  0.21616987927E+02  0.56813801083E+02  0.12980072221E+03  0.14333293288E+03  0.10000000000E+01 0.  0.
    9000005    1    3    3    0    0 -0.21616987927E+02 -0.56813801083E+02  0.74279504946E+02  0.95987223189E+02  0.10000000000E+01 0.  0.
<mgrwt>
<rscale>  0 0.12500159E+03</rscale>
<asrwt>0</asrwt>
<pdfrwt beam="2">  1        4 0.27107638E-02 0.12500159E+03</pdfrwt>
<pdfrwt beam="1">  1       -4 0.34107721E-01 0.12500159E+03</pdfrwt>
<totfact> 0.83895744E+03</totfact>
</mgrwt>
</event>
<event>
 5    1  0.3330238E-002  0.1249993E+03  0.7818608E-02  0.1235070E+00
          4   -1    0    0  501    0  0.00000000000E+00  0.00000000000E+00  0.24232262908E+02  0.24265520098E+02  0.12700000000E+01 0.  1.
         -4   -1    0    0    0  501 -0.00000000000E+00 -0.00000000000E+00 -0.16105235004E+03  0.16105735734E+03  0.12700000000E+01 0.  1.
         25    2    1    2    0    0  0.00000000000E+00  0.00000000000E+00 -0.13682008714E+03  0.18532287744E+03  0.12499933064E+03 0.  0.
    9000005    1    3    3    0    0 -0.38663292708E+01  0.10407876508E+02  0.22765512707E+02  0.25348391749E+02  0.10000000000E+01 0.  0.
    9000005    1    3    3    0    0  0.38663292708E+01 -0.10407876508E+02 -0.15958559984E+03  0.15997448569E+03  0.10000000000E+01 0.  0.
<mgrwt>
<rscale>  0 0.12499933E+03</rscale>
<asrwt>0</asrwt>
<pdfrwt beam="1">  1        4 0.37309840E-02 0.12499933E+03</pdfrwt>
<pdfrwt beam="2">  1       -4 0.24780227E-01 0.12499933E+03</pdfrwt>
<totfact> 0.92668938E+03</totfact>
</mgrwt>
</event>
<event>
 5    1  0.3330238E-002  0.1250019E+03  0.7818608E-02  0.1235066E+00
          4   -1    0    0  501    0  0.00000000000E+00  0.00000000000E+00  0.46096754079E+02  0.46114245484E+02  0.12700000000E+01 0. -1.
         -4   -1    0    0    0  501 -0.00000000000E+00 -0.00000000000E+00 -0.84704499290E+02  0.84714019501E+02  0.12700000000E+01 0. -1.
         25    2    1    2    0    0  0.00000000000E+00  0.00000000000E+00 -0.38607745212E+02  0.13082826498E+03  0.12500190770E+03 0.  0.
    9000005    1    3    3    0    0 -0.27475946098E+02 -0.45887913810E+02  0.14525134943E+02  0.55431108531E+02  0.10000000000E+01 0.  0.
    9000005    1    3    3    0    0  0.27475946098E+02  0.45887913810E+02 -0.53132880155E+02  0.75397156454E+02  0.10000000000E+01 0.  0.
<mgrwt>
<rscale>  0 0.12500191E+03</rscale>
<asrwt>0</asrwt>
<pdfrwt beam="1">  1        4 0.70938862E-02 0.12500191E+03</pdfrwt>
<pdfrwt beam="2">  1       -4 0.13033539E-01 0.12500191E+03</pdfrwt>
<totfact> 0.10326328E+04</totfact>
</mgrwt>
</event>
<event>
 5    1  0.3330238E-002  0.1249984E+03  0.7818608E-02  0.1235072E+00
          4   -1    0    0  501    0  0.00000000000E+00  0.00000000000E+00  0.31202351804E+02  0.31228186917E+02  0.12700000000E+01 0. -1.
         -4   -1    0    0    0  501 -0.00000000000E+00 -0.00000000000E+00 -0.12510689727E+03  0.12511334319E+03  0.12700000000E+01 0. -1.
         25    2    1    2    0    0  0.00000000000E+00  0.00000000000E+00 -0.93904545466E+02  0.15634153011E+03  0.12499844150E+03 0.  0.
    9000005    1    3    3    0    0 -0.20435886338E+02 -0.39943629377E+02  0.74521471850E+01  0.45493444318E+02  0.10000000000E+01 0.  0.
    9000005    1    3    3    0    0  0.20435886338E+02  0.39943629377E+02 -0.10135669265E+03  0.11084808579E+03  0.10000000000E+01 0.  0.
<mgrwt>
<rscale>  0 0.12499844E+03</rscale>
<asrwt>0</asrwt>
<pdfrwt beam="1">  1        4 0.48028451E-02 0.12499844E+03</pdfrwt>
<pdfrwt beam="2">  1       -4 0.19249698E-01 0.12499844E+03</pdfrwt>
<totfact> 0.98056218E+03</totfact>
</mgrwt>
</event>
<event>
 5    1  0.3330238E-002  0.1250025E+03  0.7818608E-02  0.1235065E+00
          4   -1    0    0  501    0  0.00000000000E+00  0.00000000000E+00  0.53271921791E+02  0.53287058009E+02  0.12700000000E+01 0.  1.
         -4   -1    0    0    0  501 -0.00000000000E+00 -0.00000000000E+00 -0.73298542043E+02  0.73309543483E+02  0.12700000000E+01 0.  1.
         25    2    1    2    0    0  0.00000000000E+00  0.00000000000E+00 -0.20026620252E+02  0.12659660149E+03  0.12500253594E+03 0.  0.
    9000005    1    3    3    0    0 -0.44394856177E+02  0.42714697078E+02  0.60658881744E+00  0.61618313442E+02  0.10000000000E+01 0.  0.
    9000005    1    3    3    0    0  0.44394856177E+02 -0.42714697078E+02 -0.20633209070E+02  0.64978288050E+02  0.10000000000E+01 0.  0.
<mgrwt>
<rscale>  0 0.12500254E+03</rscale>
<asrwt>0</asrwt>
<pdfrwt beam="1">  1        4 0.81976909E-02 0.12500254E+03</pdfrwt>
<pdfrwt beam="2">  1       -4 0.11278709E-01 0.12500254E+03</pdfrwt>
<totfact> 0.10417326E+04</totfact>
</mgrwt>
</event>
<event>
 5    1  0.3330238E-002  0.1249995E+03  0.7818608E-02  0.1235070E+00
          4   -1    0    0  501    0  0.00000000000E+00  0.00000000000E+00  0.95852686912E+01  0.96690369677E+01  0.12700000000E+01 0. -1.
         -4   -1    0    0    0  501 -0.00000000000E+00 -0.00000000000E+00 -0.40566532992E+03  0.40566731788E+03  0.12700000000E+01 0. -1.
         25    2    1    2    0    0  0.00000000000E+00  0.00000000000E+00 -0.39608006123E+03  0.41533635485E+03  0.12499949103E+03 0.  0.
    9000005    1    3    3    0    0 -0.33293484494E+02  0.52874199509E+02 -0.20149485406E+03  0.21096282444E+03  0.10000000000E+01 0.  0.
    9000005    1    3    3    0    0  0.33293484494E+02 -0.52874199509E+02 -0.19458520717E+03  0.20437353041E+03  0.10000000000E+01 0.  0.
<mgrwt>
<rscale>  0 0.12499949E+03</rscale>
<asrwt>0</asrwt>
<pdfrwt beam="1">  1        4 0.14812537E-02 0.12499949E+03</pdfrwt>
<pdfrwt beam="2">  1       -4 0.62416634E-01 0.12499949E+03</pdfrwt>
<totfact> 0.63088747E+03</totfact>
</mgrwt>
</event>
<event>
 5    1  0.3330238E-002  0.1250002E+03  0.7818608E-02  0.1235069E+00
          4   -1    0    0  501    0  0.00000000000E+00  0.00000000000E+00  0.80076944867E+02  0.80087015173E+02  0.12700000000E+01 0. -1.
         -4   -1    0    0    0  501 -0.00000000000E+00 -0.00000000000E+00 -0.48759956508E+02  0.48776492890E+02  0.12700000000E+01 0. -1.
         25    2    1    2    0    0  0.00000000000E+00  0.00000000000E+00  0.31316988359E+02  0.12886350806E+03  0.12500019980E+03 0.  0.
    9000005    1    3    3    0    0  0.59967153281E+01  0.39564755200E+02  0.65141272367E+02  0.76457280977E+02  0.10000000000E+01 0.  0.
    9000005    1    3    3    0    0 -0.59967153281E+01 -0.39564755200E+02 -0.33824284008E+02  0.52406227086E+02  0.10000000000E+01 0.  0.
<mgrwt>
<rscale>  0 0.12500020E+03</rscale>
<asrwt>0</asrwt>
<pdfrwt beam="1">  1        4 0.12321577E-01 0.12500020E+03</pdfrwt>
<pdfrwt beam="2">  1       -4 0.75035784E-02 0.12500020E+03</pdfrwt>
<totfact> 0.10368834E+04</totfact>
</mgrwt>
</event>
<event>
 5    1  0.3330238E-002  0.1250001E+03  0.7818608E-02  0.1235069E+00
          4   -1    0    0  501    0  0.00000000000E+00  0.00000000000E+00  0.51914431867E+03  0.51914587209E+03  0.12700000000E+01 0.  1.
         -4   -1    0    0    0  501 -0.00000000000E+00 -0.00000000000E+00 -0.74692527595E+01  0.75764527838E+01  0.12700000000E+01 0.  1.
         25    2    1    2    0    0  0.00000000000E+00  0.00000000000E+00  0.51167506591E+03  0.52672232487E+03  0.12500013778E+03 0.  0.
    9000005    1    3    3    0    0 -0.51039766878E+02 -0.12756656819E+02  0.39795286253E+03  0.40141658024E+03  0.10000000000E+01 0.  0.
    9000005    1    3    3    0    0  0.51039766878E+02  0.12756656819E+02  0.11372220338E+03  0.12530574463E+03  0.10000000000E+01 0.  0.
<mgrwt>
<rscale>  0 0.12500014E+03</rscale>
<asrwt>0</asrwt>
<pdfrwt beam="1">  1        4 0.79876730E-01 0.12500014E+03</pdfrwt>
<pdfrwt beam="2">  1       -4 0.11574813E-02 0.12500014E+03</pdfrwt>
<totfact> 0.53848890E+03</totfact>
</mgrwt>
</event>
<event>
 5    1  0.3330238E-002  0.1250006E+03  0.7818608E-02  0.1235068E+00
         -4   -1    0    0    0  501 -0.00000000000E+00  0.00000000000E+00  0.51189935446E+02  0.51205687096E+02  0.12700000000E+01 0. -1.
          4   -1    0    0  501    0  0.00000000000E+00 -0.00000000000E+00 -0.76276851214E+02  0.76287423152E+02  0.12700000000E+01 0. -1.
         25    2    1    2    0    0  0.00000000000E+00  0.00000000000E+00 -0.25086915768E+02  0.12749311025E+03  0.12500055927E+03 0.  0.
    9000005    1    3    3    0    0  0.26892745159E+02 -0.20272561690E+01 -0.70040918174E+02  0.75060373889E+02  0.10000000000E+01 0.  0.
    9000005    1    3    3    0    0 -0.26892745159E+02  0.20272561690E+01  0.44954002405E+02  0.52432736359E+02  0.10000000000E+01 0.  0.
<mgrwt>
<rscale>  0 0.12500056E+03</rscale>
<asrwt>0</asrwt>
<pdfrwt beam="2">  1        4 0.11736925E-01 0.12500056E+03</pdfrwt>
<pdfrwt beam="1">  1       -4 0.78773996E-02 0.12500056E+03</pdfrwt>
<totfact> 0.10398318E+04</totfact>
</mgrwt>
</event>
<event>
 5    1  0.3330238E-002  0.1249992E+03  0.7818608E-02  0.1235071E+00
          4   -1    0    0  501    0  0.00000000000E+00  0.00000000000E+00  0.32636040756E+02  0.32660741820E+02  0.12700000000E+01 0.  1.
         -4   -1    0    0    0  501 -0.00000000000E+00 -0.00000000000E+00 -0.11961633467E+03  0.11962307646E+03  0.12700000000E+01 0.  1.
         25    2    1    2    0    0  0.00000000000E+00  0.00000000000E+00 -0.86980293918E+02  0.15228381827E+03  0.12499915911E+03 0.  0.
    9000005    1    3    3    0    0  0.30443488762E+02 -0.39469694330E+01 -0.10980316244E+03  0.11401806461E+03  0.10000000000E+01 0.  0.
    9000005    1    3    3    0    0 -0.30443488762E+02  0.39469694330E+01  0.22822868524E+02  0.38265753663E+02  0.10000000000E+01 0.  0.
<mgrwt>
<rscale>  0 0.12499916E+03</rscale>
<asrwt>0</asrwt>
<pdfrwt beam="1">  1        4 0.50233481E-02 0.12499916E+03</pdfrwt>
<pdfrwt beam="2">  1       -4 0.18404932E-01 0.12499916E+03</pdfrwt>
<totfact> 0.98852257E+03</totfact>
</mgrwt>
</event>
<event>
 5    1  0.3330238E-002  0.1249880E+03  0.7818608E-02  0.1235088E+00
          4   -1    0    0  501    0  0.00000000000E+00  0.00000000000E+00  0.31894343840E+02  0.31919618873E+02  0.12700000000E+01 0.  1.
         -4   -1    0    0    0  501 -0.00000000000E+00 -0.00000000000E+00 -0.12237411706E+03  0.12238070692E+03  0.12700000000E+01 0.  1.
         25    2    1    2    0    0  0.00000000000E+00  0.00000000000E+00 -0.90479773215E+02  0.15430032579E+03  0.12498800413E+03 0.  0.
    9000005    1    3    3    0    0 -0.89366607001E+01  0.56443432778E+02 -0.14038595712E+02  0.58854117764E+02  0.10000000000E+01 0.  0.
    9000005    1    3    3    0    0  0.89366607001E+01 -0.56443432778E+02 -0.76441177503E+02  0.95446208025E+02  0.10000000000E+01 0.  0.
<mgrwt>
<rscale>  0 0.12498800E+03</rscale>
<asrwt>0</asrwt>
<pdfrwt beam="1">  1        4 0.49092733E-02 0.12498800E+03</pdfrwt>
<pdfrwt beam="2">  1       -4 0.18829238E-01 0.12498800E+03</pdfrwt>
<totfact> 0.98479597E+03</totfact>
</mgrwt>
</event>
<event>
 5    1  0.3330238E-002  0.1250024E+03  0.7818608E-02  0.1235066E+00
         -4   -1    0    0    0  501 -0.00000000000E+00  0.00000000000E+00  0.12704250110E+04  0.12704256457E+04  0.12700000000E+01 0.  1.
          4   -1    0    0  501    0  0.00000000000E+00 -0.00000000000E+00 -0.29430777484E+01  0.32054027256E+01  0.12700000000E+01 0.  1.
         25    2    1    2    0    0  0.00000000000E+00  0.00000000000E+00  0.12674819332E+04  0.12736310485E+04  0.12500238644E+03 0.  0.
    9000005    1    3    3    0    0 -0.36804851019E+02  0.50503243462E+02  0.62891339050E+03  0.63201125576E+03  0.10000000000E+01 0.  0.
    9000005    1    3    3    0    0  0.36804851019E+02 -0.50503243462E+02  0.63856854271E+03  0.64161979271E+03  0.10000000000E+01 0.  0.
<mgrwt>
<rscale>  0 0.12500239E+03</rscale>
<asrwt>0</asrwt>
<pdfrwt beam="2">  1        4 0.47300837E-03 0.12500239E+03</pdfrwt>
<pdfrwt beam="1">  1       -4 0.19547043E+00 0.12500239E+03</pdfrwt>
<totfact> 0.22858330E+03</totfact>
</mgrwt>
</event>
<event>
 5    1  0.3330238E-002  0.1249934E+03  0.7818608E-02  0.1235080E+00
         -4   -1    0    0    0  501 -0.00000000000E+00  0.00000000000E+00  0.14480017398E+02  0.14535604695E+02  0.12700000000E+01 0. -1.
          4   -1    0    0  501    0  0.00000000000E+00 -0.00000000000E+00 -0.26916582146E+03  0.26916881755E+03  0.12700000000E+01 0. -1.
         25    2    1    2    0    0  0.00000000000E+00  0.00000000000E+00 -0.25468580406E+03  0.28370442224E+03  0.12499336147E+03 0.  0.
    9000005    1    3    3    0    0 -0.27727629214E+01 -0.61939863049E+02 -0.14501208142E+03  0.15771410402E+03  0.10000000000E+01 0.  0.
    9000005    1    3    3    0    0  0.27727629214E+01  0.61939863049E+02 -0.10967372263E+03  0.12599031822E+03  0.10000000000E+01 0.  0.
<mgrwt>
<rscale>  0 0.12499336E+03</rscale>
<asrwt>0</asrwt>
<pdfrwt beam="2">  1        4 0.41414629E-01 0.12499336E+03</pdfrwt>
<pdfrwt beam="1">  1       -4 0.22322016E-02 0.12499336E+03</pdfrwt>
<totfact> 0.77700940E+03</totfact>
</mgrwt>
</event>
<event>
 5    1  0.3330238E-002  0.1249951E+03  0.7818608E-02  0.1235077E+00
         -4   -1    0    0    0  501 -0.00000000000E+00  0.00000000000E+00  0.50406127536E+02  0.50422124045E+02  0.12700000000E+01 0. -1.
          4   -1    0    0  501    0  0.00000000000E+00 -0.00000000000E+00 -0.77455929066E+02  0.77466340094E+02  0.12700000000E+01 0. -1.
         25    2    1    2    0    0  0.00000000000E+00  0.00000000000E+00 -0.27049801530E+02  0.12788846414E+03  0.12499506989E+03 0.  0.
    9000005    1    3    3    0    0  0.55748884239E+02  0.27913495999E+02 -0.92033237139E+01  0.63030171506E+02  0.10000000000E+01 0.  0.
    9000005    1    3    3    0    0 -0.55748884239E+02 -0.27913495999E+02 -0.17846477816E+02  0.64858292632E+02  0.10000000000E+01 0.  0.
<mgrwt>
<rscale>  0 0.12499507E+03</rscale>
<asrwt>0</asrwt>
<pdfrwt beam="2">  1        4 0.11918328E-01 0.12499507E+03</pdfrwt>
<pdfrwt beam="1">  1       -4 0.77568202E-02 0.12499507E+03</pdfrwt>
<totfact> 0.10391053E+04</totfact>
</mgrwt>
</event>
<event>
 5    1  0.3330238E-002  0.1250082E+03  0.7818608E-02  0.1235056E+00
          4   -1    0    0  501    0  0.00000000000E+00  0.00000000000E+00  0.28706124995E+01  0.31389992230E+01  0.12700000000E+01 0.  1.
         -4   -1    0    0    0  501 -0.00000000000E+00 -0.00000000000E+00 -0.12999029166E+04  0.12999035370E+04  0.12700000000E+01 0.  1.
         25    2    1    2    0    0  0.00000000000E+00  0.00000000000E+00 -0.12970323041E+04  0.13030425363E+04  0.12500821296E+03 0.  0.
    9000005    1    3    3    0    0 -0.37527386051E+02  0.29793274427E+02 -0.23029246401E+03  0.23522662027E+03  0.10000000000E+01 0.  0.
    9000005    1    3    3    0    0  0.37527386051E+02 -0.29793274427E+02 -0.10667398401E+04  0.10678159160E+04  0.10000000000E+01 0.  0.
<mgrwt>
<rscale>  0 0.12500821E+03</rscale>
<asrwt>0</asrwt>
<pdfrwt beam="1">  1        4 0.46232659E-03 0.12500821E+03</pdfrwt>
<pdfrwt beam="2">  1       -4 0.20000531E+00 0.12500821E+03</pdfrwt>
<totfact> 0.22152916E+03</totfact>
</mgrwt>
</event>
<event>
 5    1  0.3330238E-002  0.1249970E+03  0.7818608E-02  0.1235074E+00
          4   -1    0    0  501    0  0.00000000000E+00  0.00000000000E+00  0.70291439672E+02  0.70302911684E+02  0.12700000000E+01 0. -1.
         -4   -1    0    0    0  501 -0.00000000000E+00 -0.00000000000E+00 -0.55546236279E+02  0.55560752917E+02  0.12700000000E+01 0. -1.
         25    2    1    2    0    0  0.00000000000E+00  0.00000000000E+00  0.14745203394E+02  0.12586366460E+03  0.12499696414E+03 0.  0.
    9000005    1    3    3    0    0 -0.77661291684E+01  0.61932315073E+02  0.10416116014E+02  0.63288386655E+02  0.10000000000E+01 0.  0.
    9000005    1    3    3    0    0  0.77661291684E+01 -0.61932315073E+02  0.43290873799E+01  0.62575277946E+02  0.10000000000E+01 0.  0.
<mgrwt>
<rscale>  0 0.12499696E+03</rscale>
<asrwt>0</asrwt>
<pdfrwt beam="1">  1        4 0.10816067E-01 0.12499696E+03</pdfrwt>
<pdfrwt beam="2">  1       -4 0.85475740E-02 0.12499696E+03</pdfrwt>
<totfact> 0.10434662E+04</totfact>
</mgrwt>
</event>
<event>
 5    1  0.3330238E-002  0.1250030E+03  0.7818608E-02  0.1235065E+00
         -4   -1    0    0    0  501 -0.00000000000E+00  0.00000000000E+00  0.13941136373E+03  0.13941714829E+03  0.12700000000E+01 0.  1.
          4   -1    0    0  501    0  0.00000000000E+00 -0.00000000000E+00 -0.28000183866E+02  0.28028970665E+02  0.12700000000E+01 0.  1.
         25    2    1    2    0    0  0.00000000000E+00  0.00000000000E+00  0.11141117987E+03  0.16744611896E+03  0.12500300698E+03 0.  0.
    9000005    1    3    3    0    0  0.48950515638E+02 -0.20468360188E+01  0.37375133993E+01  0.49145819002E+02  0.10000000000E+01 0.  0.
    9000005    1    3    3    0    0 -0.48950515638E+02  0.20468360188E+01  0.10767366647E+03  0.11830029996E+03  0.10000000000E+01 0.  0.
<mgrwt>
<rscale>  0 0.12500301E+03</rscale>
<asrwt>0</asrwt>
<pdfrwt beam="2">  1        4 0.43103799E-02 0.12500301E+03</pdfrwt>
<pdfrwt beam="1">  1       -4 0.21450561E-01 0.12500301E+03</pdfrwt>
<totfact> 0.95919653E+03</totfact>
</mgrwt>
</event>
<event>
 5    1  0.3330238E-002  0.1250028E+03  0.7818608E-02  0.1235065E+00
         -4   -1    0    0    0  501 -0.00000000000E+00  0.00000000000E+00  0.16999779805E+03  0.17000254187E+03  0.12700000000E+01 0.  1.
          4   -1    0    0  501    0  0.00000000000E+00 -0.00000000000E+00 -0.22956651335E+02  0.22991753750E+02  0.12700000000E+01 0.  1.
         25    2    1    2    0    0  0.00000000000E+00  0.00000000000E+00  0.14704114671E+03  0.19299429562E+03  0.12500279723E+03 0.  0.
    9000005    1    3    3    0    0 -0.29963114682E+02  0.53951691023E+01  0.15778138507E+03  0.16069493323E+03  0.10000000000E+01 0.  0.
    9000005    1    3    3    0    0  0.29963114682E+02 -0.53951691023E+01 -0.10740238353E+02  0.32299362392E+02  0.10000000000E+01 0.  0.
<mgrwt>
<rscale>  0 0.12500280E+03</rscale>
<asrwt>0</asrwt>
<pdfrwt beam="2">  1        4 0.35348577E-02 0.12500280E+03</pdfrwt>
<pdfrwt beam="1">  1       -4 0.26156572E-01 0.12500280E+03</pdfrwt>
<totfact> 0.91323192E+03</totfact>
</mgrwt>
</event>
<event>
 5    1  0.3330238E-002  0.1249994E+03  0.7818608E-02  0.1235070E+00
          4   -1    0    0  501    0  0.00000000000E+00  0.00000000000E+00  0.23441580059E+02  0.23475957396E+02  0.12700000000E+01 0. -1.
         -4   -1    0    0    0  501 -0.00000000000E+00 -0.00000000000E+00 -0.16647709379E+03  0.16648193793E+03  0.12700000000E+01 0. -1.
         25    2    1    2    0    0  0.00000000000E+00  0.00000000000E+00 -0.14303551373E+03  0.18995789532E+03  0.12499937523E+03 0.  0.
    9000005    1    3    3    0    0  0.41418061608E+02 -0.25341742690E+02 -0.13129997436E+03  0.13999408208E+03  0.10000000000E+01 0.  0.
    9000005    1    3    3    0    0 -0.41418061608E+02  0.25341742690E+02 -0.11735539370E+02  0.49963813247E+02  0.10000000000E+01 0.  0.
<mgrwt>
<rscale>  0 0.12499938E+03</rscale>
<asrwt>0</asrwt>
<pdfrwt beam="1">  1        4 0.36094141E-02 0.12499938E+03</pdfrwt>
<pdfrwt beam="2">  1       -4 0.25614877E-01 0.12499938E+03</pdfrwt>
<totfact> 0.91855927E+03</totfact>
</mgrwt>
</event>
<event>
 5    1  0.3330238E-002  0.1250020E+03  0.7818608E-02  0.1235066E+00
          4   -1    0    0  501    0  0.00000000000E+00  0.00000000000E+00  0.34331287204E+02  0.34354769408E+02  0.12700000000E+01 0.  1.
         -4   -1    0    0    0  501 -0.00000000000E+00 -0.00000000000E+00 -0.11371876965E+03  0.11372586105E+03  0.12700000000E+01 0.  1.
         25    2    1    2    0    0  0.00000000000E+00  0.00000000000E+00 -0.79387482446E+02  0.14808063045E+03  0.12500200297E+03 0.  0.
    9000005    1    3    3    0    0  0.53192542946E+01  0.62553480946E+01 -0.11308274880E+03  0.11338488402E+03  0.10000000000E+01 0.  0.
    9000005    1    3    3    0    0 -0.53192542946E+01 -0.62553480946E+01  0.33695266358E+02  0.34695746439E+02  0.10000000000E+01 0.  0.
<mgrwt>
<rscale>  0 0.12500200E+03</rscale>
<asrwt>0</asrwt>
<pdfrwt beam="1">  1        4 0.52840883E-02 0.12500200E+03</pdfrwt>
<pdfrwt beam="2">  1       -4 0.17497547E-01 0.12500200E+03</pdfrwt>
<totfact> 0.99683185E+03</totfact>
</mgrwt>
</event>
<event>
 5    1  0.3330238E-002  0.1250019E+03  0.7818608E-02  0.1235066E+00
         -4   -1    0    0    0  501 -0.00000000000E+00  0.00000000000E+00  0.92714589506E+01  0.93580367104E+01  0.12700000000E+01 0.  1.
          4   -1    0    0  501    0  0.00000000000E+00 -0.00000000000E+00 -0.41928717558E+03  0.41928909896E+03  0.12700000000E+01 0.  1.
         25    2    1    2    0    0  0.00000000000E+00  0.00000000000E+00 -0.41001571663E+03  0.42864713567E+03  0.12500191612E+03 0.  0.
    9000005    1    3    3    0    0 -0.49014911389E+02 -0.38078186888E+02 -0.22996281662E+03  0.23819384309E+03  0.10000000000E+01 0.  0.
    9000005    1    3    3    0    0  0.49014911389E+02  0.38078186888E+02 -0.18005290001E+03  0.19045329259E+03  0.10000000000E+01 0.  0.
<mgrwt>
<rscale>  0 0.12500192E+03</rscale>
<asrwt>0</asrwt>
<pdfrwt beam="2">  1        4 0.64512513E-01 0.12500192E+03</pdfrwt>
<pdfrwt beam="1">  1       -4 0.14331864E-02 0.12500192E+03</pdfrwt>
<totfact> 0.61856205E+03</totfact>
</mgrwt>
</event>
<event>
 5    1  0.3330238E-002  0.1249979E+03  0.7818608E-02  0.1235073E+00
         -4   -1    0    0    0  501 -0.00000000000E+00  0.00000000000E+00  0.11816305073E+03  0.11816987542E+03  0.12700000000E+01 0. -1.
          4   -1    0    0  501    0  0.00000000000E+00 -0.00000000000E+00 -0.33037047716E+02  0.33061449178E+02  0.12700000000E+01 0. -1.
         25    2    1    2    0    0  0.00000000000E+00  0.00000000000E+00  0.85126003013E+02  0.15123132460E+03  0.12499790859E+03 0.  0.
    9000005    1    3    3    0    0  0.35569046732E+02 -0.40632869655E+02  0.45158412433E+01  0.54199446528E+02  0.10000000000E+01 0.  0.
    9000005    1    3    3    0    0 -0.35569046732E+02  0.40632869655E+02  0.80610161770E+02  0.97031878073E+02  0.10000000000E+01 0.  0.
<mgrwt>
<rscale>  0 0.12499791E+03</rscale>
<asrwt>0</asrwt>
<pdfrwt beam="2">  1        4 0.50850247E-02 0.12499791E+03</pdfrwt>
<pdfrwt beam="1">  1       -4 0.18181333E-01 0.12499791E+03</pdfrwt>
<totfact> 0.99063478E+03</totfact>
</mgrwt>
</event>
<event>
 5    1  0.3330238E-002  0.1249962E+03  0.7818608E-02  0.1235075E+00
         -4   -1    0    0    0  501 -0.00000000000E+00  0.00000000000E+00  0.44228034494E+02  0.44246264647E+02  0.12700000000E+01 0. -1.
          4   -1    0    0  501    0  0.00000000000E+00 -0.00000000000E+00 -0.88274278628E+02  0.88283413886E+02  0.12700000000E+01 0. -1.
         25    2    1    2    0    0  0.00000000000E+00  0.00000000000E+00 -0.44046244135E+02  0.13252967853E+03  0.12499617622E+03 0.  0.
    9000005    1    3    3    0    0 -0.13717972710E+02 -0.56078198949E+02  0.33362600196E+01  0.57836647582E+02  0.10000000000E+01 0.  0.
    9000005    1    3    3    0    0  0.13717972710E+02  0.56078198949E+02 -0.47382504154E+02  0.74693030950E+02  0.10000000000E+01 0.  0.
<mgrwt>
<rscale>  0 0.12499618E+03</rscale>
<asrwt>0</asrwt>
<pdfrwt beam="2">  1        4 0.13582763E-01 0.12499618E+03</pdfrwt>
<pdfrwt beam="1">  1       -4 0.68064180E-02 0.12499618E+03</pdfrwt>
<totfact> 0.10291293E+04</totfact>
</mgrwt>
</event>
<event>
 5    1  0.3330238E-002  0.1249948E+03  0.7818608E-02  0.1235077E+00
         -4   -1    0    0    0  501 -0.00000000000E+00  0.00000000000E+00  0.13283587271E+04  0.13283593342E+04  0.12700000000E+01 0.  1.
          4   -1    0    0  501    0  0.00000000000E+00 -0.00000000000E+00 -0.28026464368E+01  0.30769671837E+01  0.12700000000E+01 0.  1.
         25    2    1    2    0    0  0.00000000000E+00  0.00000000000E+00  0.13255560806E+04  0.13314363014E+04  0.12499480655E+03 0.  0.
    9000005    1    3    3    0    0 -0.27013444224E+01 -0.44068649763E+02  0.11338274564E+04  0.11346872009E+04  0.10000000000E+01 0.  0.
    9000005    1    3    3    0    0  0.27013444224E+01  0.44068649763E+02  0.19172862427E+03  0.19674910042E+03  0.10000000000E+01 0.  0.
<mgrwt>
<rscale>  0 0.12499481E+03</rscale>
<asrwt>0</asrwt>
<pdfrwt beam="2">  1        4 0.45232599E-03 0.12499481E+03</pdfrwt>
<pdfrwt beam="1">  1       -4 0.20438343E+00 0.12499481E+03</pdfrwt>
<totfact> 0.21501032E+03</totfact>
</mgrwt>
</event>
<event>
 5    1  0.3330238E-002  0.1249974E+03  0.7818608E-02  0.1235073E+00
          4   -1    0    0  501    0  0.00000000000E+00  0.00000000000E+00  0.14830323995E+02  0.14884603112E+02  0.12700000000E+01 0. -1.
         -4   -1    0    0    0  501 -0.00000000000E+00 -0.00000000000E+00 -0.26284820424E+03  0.26285127235E+03  0.12700000000E+01 0. -1.
         25    2    1    2    0    0  0.00000000000E+00  0.00000000000E+00 -0.24801788025E+03  0.27773587546E+03  0.12499739035E+03 0.  0.
    9000005    1    3    3    0    0 -0.62148214185E+02  0.14335026209E+01 -0.13817216512E+03  0.15151568457E+03  0.10000000000E+01 0.  0.
    9000005    1    3    3    0    0  0.62148214185E+02 -0.14335026209E+01 -0.10984571513E+03  0.12622019089E+03  0.10000000000E+01 0.  0.
<mgrwt>
<rscale>  0 0.12499739E+03</rscale>
<asrwt>0</asrwt>
<pdfrwt beam="1">  1        4 0.22859998E-02 0.12499739E+03</pdfrwt>
<pdfrwt beam="2">  1       -4 0.40442593E-01 0.12499739E+03</pdfrwt>
<totfact> 0.78483827E+03</totfact>
</mgrwt>
</event>
<event>
 5    1  0.3330238E-002  0.1249825E+03  0.7818608E-02  0.1235097E+00
         -4   -1    0    0    0  501 -0.00000000000E+00  0.00000000000E+00  0.23412313357E+02  0.23446733605E+02  0.12700000000E+01 0. -1.
          4   -1    0    0  501    0  0.00000000000E+00 -0.00000000000E+00 -0.16663990212E+03  0.16664474152E+03  0.12700000000E+01 0. -1.
         25    2    1    2    0    0  0.00000000000E+00  0.00000000000E+00 -0.14322758876E+03  0.19009147513E+03  0.12498250571E+03 0.  0.
    9000005    1    3    3    0    0 -0.23492222043E+02  0.22486658590E+02 -0.15276189194E+03  0.15618812355E+03  0.10000000000E+01 0.  0.
    9000005    1    3    3    0    0  0.23492222043E+02 -0.22486658590E+02  0.95343031758E+01  0.33903351576E+02  0.10000000000E+01 0.  0.
<mgrwt>
<rscale>  0 0.12498251E+03</rscale>
<asrwt>0</asrwt>
<pdfrwt beam="2">  1        4 0.25639927E-01 0.12498251E+03</pdfrwt>
<pdfrwt beam="1">  1       -4 0.36049145E-02 0.12498251E+03</pdfrwt>
<totfact> 0.91867396E+03</totfact>
</mgrwt>
</event>
<event>
 5    1  0.3330238E-002  0.1249997E+03  0.7818608E-02  0.1235070E+00
         -4   -1    0    0    0  501 -0.00000000000E+00  0.00000000000E+00  0.30401169166E+02  0.30427684543E+02  0.12700000000E+01 0. -1.
          4   -1    0    0  501    0  0.00000000000E+00 -0.00000000000E+00 -0.12840393787E+03  0.12841021829E+03  0.12700000000E+01 0. -1.
         25    2    1    2    0    0  0.00000000000E+00  0.00000000000E+00 -0.98002768702E+02  0.15883790283E+03  0.12499974681E+03 0.  0.
    9000005    1    3    3    0    0 -0.28653443211E+02  0.31878539442E+02 -0.10678669504E+03  0.11507240904E+03  0.10000000000E+01 0.  0.
    9000005    1    3    3    0    0  0.28653443211E+02 -0.31878539442E+02  0.87839263368E+01  0.43765493790E+02  0.10000000000E+01 0.  0.
<mgrwt>
<rscale>  0 0.12499975E+03</rscale>
<asrwt>0</asrwt>
<pdfrwt beam="2">  1        4 0.19756974E-01 0.12499975E+03</pdfrwt>
<pdfrwt beam="1">  1       -4 0.46796258E-02 0.12499975E+03</pdfrwt>
<totfact> 0.97567852E+03</totfact>
</mgrwt>
</event>
<event>
 5    1  0.3330238E-002  0.1250018E+03  0.7818608E-02  0.1235066E+00
          4   -1    0    0  501    0  0.00000000000E+00  0.00000000000E+00  0.17782733411E+04  0.17782737946E+04  0.12700000000E+01 0.  1.
         -4   -1    0    0    0  501 -0.00000000000E+00 -0.00000000000E+00 -0.20126681167E+01  0.23798598589E+01  0.12700000000E+01 0.  1.
         25    2    1    2    0    0  0.00000000000E+00  0.00000000000E+00  0.17762606730E+04  0.17806536544E+04  0.12500183501E+03 0.  0.
    9000005    1    3    3    0    0  0.14258603981E+02  0.57249057757E+02  0.11816615105E+04  0.11831338419E+04  0.10000000000E+01 0.  0.
    9000005    1    3    3    0    0 -0.14258603981E+02 -0.57249057757E+02  0.59459916241E+03  0.59751981251E+03  0.10000000000E+01 0.  0.
<mgrwt>
<rscale>  0 0.12500184E+03</rscale>
<asrwt>0</asrwt>
<pdfrwt beam="1">  1        4 0.27360959E+00 0.12500184E+03</pdfrwt>
<pdfrwt beam="2">  1       -4 0.33792066E-03 0.12500184E+03</pdfrwt>
<totfact> 0.13003311E+03</totfact>
</mgrwt>
</event>
<event>
 5    1  0.3330238E-002  0.1250006E+03  0.7818608E-02  0.1235068E+00
         -4   -1    0    0    0  501 -0.00000000000E+00  0.00000000000E+00  0.43189541025E+01  0.45018068083E+01  0.12700000000E+01 0.  1.
          4   -1    0    0  501    0  0.00000000000E+00 -0.00000000000E+00 -0.88551957186E+03  0.88552048257E+03  0.12700000000E+01 0.  1.
         25    2    1    2    0    0  0.00000000000E+00  0.00000000000E+00 -0.88120061776E+03  0.89002228938E+03  0.12500058740E+03 0.  0.
    9000005    1    3    3    0    0  0.15951417036E+01  0.23934508661E+02 -0.85146916272E+03  0.85180757231E+03  0.10000000000E+01 0.  0.
    9000005    1    3    3    0    0 -0.15951417036E+01 -0.23934508661E+02 -0.29731455045E+02  0.38214717073E+02  0.10000000000E+01 0.  0.
<mgrwt>
<rscale>  0 0.12500059E+03</rscale>
<asrwt>0</asrwt>
<pdfrwt beam="2">  1        4 0.13624777E+00 0.12500059E+03</pdfrwt>
<pdfrwt beam="1">  1       -4 0.67859083E-03 0.12500059E+03</pdfrwt>
<totfact> 0.34542692E+03</totfact>
</mgrwt>
</event>
<event>
 5    1  0.3330238E-002  0.1249542E+03  0.7818608E-02  0.1235141E+00
         -4   -1    0    0    0  501 -0.00000000000E+00  0.00000000000E+00  0.17521480180E+03  0.17521940437E+03  0.12700000000E+01 0. -1.
          4   -1    0    0  501    0  0.00000000000E+00 -0.00000000000E+00 -0.22254723641E+02  0.22290931437E+02  0.12700000000E+01 0. -1.
         25    2    1    2    0    0  0.00000000000E+00  0.00000000000E+00  0.15296007816E+03  0.19751033581E+03  0.12495418057E+03 0.  0.
    9000005    1    3    3    0    0  0.28416020233E+02  0.24413018449E+00  0.16441454554E+03  0.16685524442E+03  0.10000000000E+01 0.  0.
    9000005    1    3    3    0    0 -0.28416020233E+02 -0.24413018449E+00 -0.11454467380E+02  0.30655091394E+02  0.10000000000E+01 0.  0.
<mgrwt>
<rscale>  0 0.12495418E+03</rscale>
<asrwt>0</asrwt>
<pdfrwt beam="2">  1        4 0.34269430E-02 0.12495418E+03</pdfrwt>
<pdfrwt beam="1">  1       -4 0.26959262E-01 0.12495418E+03</pdfrwt>
<totfact> 0.90649651E+03</totfact>
</mgrwt>
</event>
<event>
 5    1  0.3330238E-002  0.1250005E+03  0.7818608E-02  0.1235068E+00
          4   -1    0    0  501    0  0.00000000000E+00  0.00000000000E+00  0.68413976091E+03  0.68414093969E+03  0.12700000000E+01 0.  1.
         -4   -1    0    0    0  501 -0.00000000000E+00 -0.00000000000E+00 -0.56379531712E+01  0.57792227817E+01  0.12700000000E+01 0.  1.
         25    2    1    2    0    0  0.00000000000E+00  0.00000000000E+00  0.67850180774E+03  0.68992016247E+03  0.12500050991E+03 0.  0.
    9000005    1    3    3    0    0  0.18271881611E+02 -0.44307933591E+02  0.56059133853E+03  0.56263727523E+03  0.10000000000E+01 0.  0.
    9000005    1    3    3    0    0 -0.18271881611E+02  0.44307933591E+02  0.11791046921E+03  0.12728288725E+03  0.10000000000E+01 0.  0.
<mgrwt>
<rscale>  0 0.12500051E+03</rscale>
<asrwt>0</asrwt>
<pdfrwt beam="1">  1        4 0.10526318E+00 0.12500051E+03</pdfrwt>
<pdfrwt beam="2">  1       -4 0.87833536E-03 0.12500051E+03</pdfrwt>
<totfact> 0.43623688E+03</totfact>
</mgrwt>
</event>
<event>
 5    1  0.3330238E-002  0.1249997E+03  0.7818608E-02  0.1235070E+00
          4   -1    0    0  501    0  0.00000000000E+00  0.00000000000E+00  0.44557276983E+02  0.44575372485E+02  0.12700000000E+01 0. -1.
         -4   -1    0    0    0  501 -0.00000000000E+00 -0.00000000000E+00 -0.87627180604E+02  0.87636383315E+02  0.12700000000E+01 0. -1.
         25    2    1    2    0    0  0.00000000000E+00  0.00000000000E+00 -0.43069903621E+02  0.13221175580E+03  0.12499972710E+03 0.  0.
    9000005    1    3    3    0    0  0.20551344600E+02 -0.58512443059E+02 -0.13398991805E+02  0.63455470520E+02  0.10000000000E+01 0.  0.
    9000005    1    3    3    0    0 -0.20551344600E+02  0.58512443059E+02 -0.29670911815E+02  0.68756285280E+02  0.10000000000E+01 0.  0.
<mgrwt>
<rscale>  0 0.12499973E+03</rscale>
<asrwt>0</asrwt>
<pdfrwt beam="1">  1        4 0.68570656E-02 0.12499973E+03</pdfrwt>
<pdfrwt beam="2">  1       -4 0.13483205E-01 0.12499973E+03</pdfrwt>
<totfact> 0.10297244E+04</totfact>
</mgrwt>
</event>
<event>
 5    1  0.3330238E-002  0.1250017E+03  0.7818608E-02  0.1235067E+00
         -4   -1    0    0    0  501 -0.00000000000E+00  0.00000000000E+00  0.18409250753E+03  0.18409688816E+03  0.12700000000E+01 0.  1.
          4   -1    0    0  501    0  0.00000000000E+00 -0.00000000000E+00 -0.21195892943E+02  0.21233906321E+02  0.12700000000E+01 0.  1.
         25    2    1    2    0    0  0.00000000000E+00  0.00000000000E+00  0.16289661459E+03  0.20533079448E+03  0.12500171246E+03 0.  0.
    9000005    1    3    3    0    0 -0.14148080562E+02 -0.52569846922E+02  0.31043569590E+02  0.62677429764E+02  0.10000000000E+01 0.  0.
    9000005    1    3    3    0    0  0.14148080562E+02  0.52569846922E+02  0.13185304500E+03  0.14265336471E+03  0.10000000000E+01 0.  0.
<mgrwt>
<rscale>  0 0.12500171E+03</rscale>
<asrwt>0</asrwt>
<pdfrwt beam="2">  1        4 0.32641676E-02 0.12500171E+03</pdfrwt>
<pdfrwt beam="1">  1       -4 0.28325186E-01 0.12500171E+03</pdfrwt>
<totfact> 0.89240726E+03</totfact>
</mgrwt>
</event>
<event>
 5    1  0.3330238E-002  0.1250042E+03  0.7818608E-02  0.1235063E+00
         -4   -1    0    0    0  501 -0.00000000000E+00  0.00000000000E+00  0.53703753709E+03  0.53703903875E+03  0.12700000000E+01 0.  1.
          4   -1    0    0  501    0  0.00000000000E+00 -0.00000000000E+00 -0.72172325677E+01  0.73281202185E+01  0.12700000000E+01 0.  1.
         25    2    1    2    0    0  0.00000000000E+00  0.00000000000E+00  0.52982030452E+03  0.54436715897E+03  0.12500419466E+03 0.  0.
    9000005    1    3    3    0    0 -0.51590316545E+02  0.20423826631E+02  0.13969050401E+03  0.15031011399E+03  0.10000000000E+01 0.  0.
    9000005    1    3    3    0    0  0.51590316545E+02 -0.20423826631E+02  0.39012980051E+03  0.39405704498E+03  0.10000000000E+01 0.  0.
<mgrwt>
<rscale>  0 0.12500419E+03</rscale>
<asrwt>0</asrwt>
<pdfrwt beam="2">  1        4 0.11189888E-02 0.12500419E+03</pdfrwt>
<pdfrwt beam="1">  1       -4 0.82629803E-01 0.12500419E+03</pdfrwt>
<totfact> 0.52574336E+03</totfact>
</mgrwt>
</event>
<event>
 5    1  0.3330238E-002  0.1249945E+03  0.7818608E-02  0.1235078E+00
          4   -1    0    0  501    0  0.00000000000E+00  0.00000000000E+00  0.62842998924E+02  0.62855830388E+02  0.12700000000E+01 0.  1.
         -4   -1    0    0    0  501 -0.00000000000E+00 -0.00000000000E+00 -0.62127720970E+02  0.62140700133E+02  0.12700000000E+01 0.  1.
         25    2    1    2    0    0  0.00000000000E+00  0.00000000000E+00  0.71527795381E+00  0.12499653052E+03  0.12499448396E+03 0.  0.
    9000005    1    3    3    0    0 -0.10723205623E+02  0.43190610520E+02  0.44227358599E+02  0.62749304574E+02  0.10000000000E+01 0.  0.
    9000005    1    3    3    0    0  0.10723205623E+02 -0.43190610520E+02 -0.43512080645E+02  0.62247225946E+02  0.10000000000E+01 0.  0.
<mgrwt>
<rscale>  0 0.12499448E+03</rscale>
<asrwt>0</asrwt>
<pdfrwt beam="1">  1        4 0.96701390E-02 0.12499448E+03</pdfrwt>
<pdfrwt beam="2">  1       -4 0.95600964E-02 0.12499448E+03</pdfrwt>
<totfact> 0.10454241E+04</totfact>
</mgrwt>
</event>
<event>
 5    1  0.3330238E-002  0.1250014E+03  0.7818608E-02  0.1235067E+00
          4   -1    0    0  501    0  0.00000000000E+00  0.00000000000E+00  0.60312994285E+01  0.61635600748E+01  0.12700000000E+01 0. -1.
         -4   -1    0    0    0  501 -0.00000000000E+00 -0.00000000000E+00 -0.64052031138E+03  0.64052157043E+03  0.12700000000E+01 0. -1.
         25    2    1    2    0    0  0.00000000000E+00  0.00000000000E+00 -0.63448901195E+03  0.64668513051E+03  0.12500140692E+03 0.  0.
    9000005    1    3    3    0    0  0.42016507654E+02 -0.72962375616E+01 -0.55356949169E+03  0.55521059439E+03  0.10000000000E+01 0.  0.
    9000005    1    3    3    0    0 -0.42016507654E+02  0.72962375616E+01 -0.80919520268E+02  0.91474536120E+02  0.10000000000E+01 0.  0.
<mgrwt>
<rscale>  0 0.12500141E+03</rscale>
<asrwt>0</asrwt>
<pdfrwt beam="1">  1        4 0.93816347E-03 0.12500141E+03</pdfrwt>
<pdfrwt beam="2">  1       -4 0.98551804E-01 0.12500141E+03</pdfrwt>
<totfact> 0.46045821E+03</totfact>
</mgrwt>
</event>
<event>
 5    1  0.3330238E-002  0.1250013E+03  0.7818608E-02  0.1235067E+00
         -4   -1    0    0    0  501 -0.00000000000E+00  0.00000000000E+00  0.15429716412E+02  0.15481894217E+02  0.12700000000E+01 0.  1.
          4   -1    0    0  501    0  0.00000000000E+00 -0.00000000000E+00 -0.25268819182E+03  0.25269138328E+03  0.12700000000E+01 0.  1.
         25    2    1    2    0    0  0.00000000000E+00  0.00000000000E+00 -0.23725847540E+03  0.26817327750E+03  0.12500129044E+03 0.  0.
    9000005    1    3    3    0    0 -0.13838564197E+02 -0.58332494225E+02 -0.80786516808E+02  0.10060639661E+03  0.10000000000E+01 0.  0.
    9000005    1    3    3    0    0  0.13838564197E+02  0.58332494225E+02 -0.15647195860E+03  0.16756688088E+03  0.10000000000E+01 0.  0.
<mgrwt>
<rscale>  0 0.12500129E+03</rscale>
<asrwt>0</asrwt>
<pdfrwt beam="2">  1        4 0.38879363E-01 0.12500129E+03</pdfrwt>
<pdfrwt beam="1">  1       -4 0.23780619E-02 0.12500129E+03</pdfrwt>
<totfact> 0.79770277E+03</totfact>
</mgrwt>
</event>
<event>
 5    1  0.3330238E-002  0.1250069E+03  0.7818608E-02  0.1235058E+00
         -4   -1    0    0    0  501 -0.00000000000E+00  0.00000000000E+00  0.10262936716E+03  0.10263722475E+03  0.12700000000E+01 0.  1.
          4   -1    0    0  501    0  0.00000000000E+00 -0.00000000000E+00 -0.38046018244E+02  0.38067209042E+02  0.12700000000E+01 0.  1.
         25    2    1    2    0    0  0.00000000000E+00  0.00000000000E+00  0.64583348918E+02  0.14070443379E+03  0.12500691473E+03 0.  0.
    9000005    1    3    3    0    0 -0.57830236434E+02  0.23642416682E+02  0.34028879254E+02  0.71149594067E+02  0.10000000000E+01 0.  0.
    9000005    1    3    3    0    0  0.57830236434E+02 -0.23642416682E+02  0.30554469663E+02  0.69554839724E+02  0.10000000000E+01 0.  0.
<mgrwt>
<rscale>  0 0.12500691E+03</rscale>
<asrwt>0</asrwt>
<pdfrwt beam="2">  1        4 0.58554682E-02 0.12500691E+03</pdfrwt>
<pdfrwt beam="1">  1       -4 0.15791368E-01 0.12500691E+03</pdfrwt>
<totfact> 0.10117431E+04</totfact>
</mgrwt>
</event>
<event>
 5    1  0.3330238E-002  0.1249996E+03  0.7818608E-02  0.1235070E+00
         -4   -1    0    0    0  501 -0.00000000000E+00  0.00000000000E+00  0.31945199723E+02  0.31970434550E+02  0.12700000000E+01 0.  1.
          4   -1    0    0  501    0  0.00000000000E+00 -0.00000000000E+00 -0.12220216467E+03  0.12220876381E+03  0.12700000000E+01 0.  1.
         25    2    1    2    0    0  0.00000000000E+00  0.00000000000E+00 -0.90256964952E+02  0.15417919836E+03  0.12499962193E+03 0.  0.
    9000005    1    3    3    0    0 -0.51438224761E+02  0.23137122937E+02 -0.78317091440E+02  0.96518310366E+02  0.10000000000E+01 0.  0.
    9000005    1    3    3    0    0  0.51438224761E+02 -0.23137122937E+02 -0.11939873512E+02  0.57660887991E+02  0.10000000000E+01 0.  0.
<mgrwt>
<rscale>  0 0.12499962E+03</rscale>
<asrwt>0</asrwt>
<pdfrwt beam="2">  1        4 0.18802781E-01 0.12499962E+03</pdfrwt>
<pdfrwt beam="1">  1       -4 0.49170950E-02 0.12499962E+03</pdfrwt>
<totfact> 0.98477711E+03</totfact>
</mgrwt>
</event>
<event>
 5    1  0.3330238E-002  0.1249995E+03  0.7818608E-02  0.1235070E+00
          4   -1    0    0  501    0  0.00000000000E+00  0.00000000000E+00  0.21566578837E+02  0.21603939982E+02  0.12700000000E+01 0.  1.
         -4   -1    0    0    0  501 -0.00000000000E+00 -0.00000000000E+00 -0.18092724629E+03  0.18093170355E+03  0.12700000000E+01 0.  1.
         25    2    1    2    0    0  0.00000000000E+00  0.00000000000E+00 -0.15936066745E+03  0.20253564353E+03  0.12499945828E+03 0.  0.
    9000005    1    3    3    0    0  0.16908148388E+02 -0.46254412202E+02 -0.14201127006E+03  0.15031153301E+03  0.10000000000E+01 0.  0.
    9000005    1    3    3    0    0 -0.16908148388E+02  0.46254412202E+02 -0.17349397383E+02  0.52224110520E+02  0.10000000000E+01 0.  0.
<mgrwt>
<rscale>  0 0.12499946E+03</rscale>
<asrwt>0</asrwt>
<pdfrwt beam="1">  1        4 0.33211521E-02 0.12499946E+03</pdfrwt>
<pdfrwt beam="2">  1       -4 0.27838177E-01 0.12499946E+03</pdfrwt>
<totfact> 0.89710693E+03</totfact>
</mgrwt>
</event>
<event>
 5    1  0.3330238E-002  0.1250000E+03  0.7818608E-02  0.1235069E+00
         -4   -1    0    0    0  501 -0.00000000000E+00  0.00000000000E+00  0.13812264384E+03  0.13812848237E+03  0.12700000000E+01 0. -1.
          4   -1    0    0  501    0  0.00000000000E+00 -0.00000000000E+00 -0.28260308128E+02  0.28288830225E+02  0.12700000000E+01 0. -1.
         25    2    1    2    0    0  0.00000000000E+00  0.00000000000E+00  0.10986233571E+03  0.16641731259E+03  0.12499995649E+03 0.  0.
    9000005    1    3    3    0    0  0.57015828557E+01  0.94521818105E+01  0.13682091190E+03  0.13726912880E+03  0.10000000000E+01 0.  0.
    9000005    1    3    3    0    0 -0.57015828557E+01 -0.94521818105E+01 -0.26958576191E+02  0.29148183791E+02  0.10000000000E+01 0.  0.
<mgrwt>
<rscale>  0 0.12499996E+03</rscale>
<asrwt>0</asrwt>
<pdfrwt beam="2">  1        4 0.43503829E-02 0.12499996E+03</pdfrwt>
<pdfrwt beam="1">  1       -4 0.21252281E-01 0.12499996E+03</pdfrwt>
<totfact> 0.96119741E+03</totfact>
</mgrwt>
</event>
<event>
 5    1  0.3330238E-002  0.1250022E+03  0.7818608E-02  0.1235066E+00
         -4   -1    0    0    0  501 -0.00000000000E+00  0.00000000000E+00  0.32667394191E+01  0.35049231706E+01  0.12700000000E+01 0. -1.
          4   -1    0    0  501    0  0.00000000000E+00 -0.00000000000E+00 -0.11535072790E+04  0.11535079781E+04  0.12700000000E+01 0. -1.
         25    2    1    2    0    0  0.00000000000E+00  0.00000000000E+00 -0.11502405396E+04  0.11570129013E+04  0.12500221949E+03 0.  0.
    9000005    1    3    3    0    0  0.89601891573E+01  0.26324108367E+02 -0.57106373567E+02  0.63524653270E+02  0.10000000000E+01 0.  0.
    9000005    1    3    3    0    0 -0.89601891573E+01 -0.26324108367E+02 -0.10931341660E+04  0.10934882480E+04  0.10000000000E+01 0.  0.
<mgrwt>
<rscale>  0 0.12500222E+03</rscale>
<asrwt>0</asrwt>
<pdfrwt beam="2">  1        4 0.17748072E+00 0.12500222E+03</pdfrwt>
<pdfrwt beam="1">  1       -4 0.52095182E-03 0.12500222E+03</pdfrwt>
<totfact> 0.25865253E+03</totfact>
</mgrwt>
</event>
<event>
 5    1  0.3330238E-002  0.1250029E+03  0.7818608E-02  0.1235065E+00
         -4   -1    0    0    0  501 -0.00000000000E+00  0.00000000000E+00  0.11733818479E+04  0.11733825352E+04  0.12700000000E+01 0.  1.
          4   -1    0    0  501    0  0.00000000000E+00 -0.00000000000E+00 -0.32073738883E+01  0.34496590063E+01  0.12700000000E+01 0.  1.
         25    2    1    2    0    0  0.00000000000E+00  0.00000000000E+00  0.11701744740E+04  0.11768321942E+04  0.12500285461E+03 0.  0.
    9000005    1    3    3    0    0  0.10070105297E+02 -0.45205461625E+02  0.98009997387E+03  0.98119411920E+03  0.10000000000E+01 0.  0.
    9000005    1    3    3    0    0 -0.10070105297E+02  0.45205461625E+02  0.19007450017E+03  0.19563807502E+03  0.10000000000E+01 0.  0.
<mgrwt>
<rscale>  0 0.12500285E+03</rscale>
<asrwt>0</asrwt>
<pdfrwt beam="2">  1        4 0.51213274E-03 0.12500285E+03</pdfrwt>
<pdfrwt beam="1">  1       -4 0.18053883E+00 0.12500285E+03</pdfrwt>
<totfact> 0.25325795E+03</totfact>
</mgrwt>
</event>
<event>
 5    1  0.3330238E-002  0.1249765E+03  0.7818608E-02  0.1235106E+00
          4   -1    0    0  501    0  0.00000000000E+00  0.00000000000E+00  0.15699825373E+01  0.20193427563E+01  0.12700000000E+01 0. -1.
         -4   -1    0    0    0  501 -0.00000000000E+00 -0.00000000000E+00 -0.21753241302E+04  0.21753245009E+04  0.12700000000E+01 0. -1.
         25    2    1    2    0    0  0.00000000000E+00  0.00000000000E+00 -0.21737541476E+04  0.21773438436E+04  0.12497647435E+03 0.  0.
    9000005    1    3    3    0    0  0.22203989138E+02  0.52451736157E+02 -0.63944013183E+03  0.64197265047E+03  0.10000000000E+01 0.  0.
    9000005    1    3    3    0    0 -0.22203989138E+02 -0.52451736157E+02 -0.15343140158E+04  0.15353711932E+04  0.10000000000E+01 0.  0.
<mgrwt>
<rscale>  0 0.12497647E+03</rscale>
<asrwt>0</asrwt>
<pdfrwt beam="1">  1        4 0.27613220E-03 0.12497647E+03</pdfrwt>
<pdfrwt beam="2">  1       -4 0.33469774E+00 0.12497647E+03</pdfrwt>
<totfact> 0.77246339E+02</totfact>
</mgrwt>
</event>
<event>
 4    1  0.3330238E-002  0.1251293E+03  0.7818608E-02  0.1234867E+00
         -4   -1    0    0    0  501 -0.00000000000E+00  0.00000000000E+00  0.18542673012E+02  0.18586113699E+02  0.12700000000E+01 0.  1.
          4   -1    0    0  501    0  0.00000000000E+00 -0.00000000000E+00 -0.21080627590E+03  0.21081010142E+03  0.12700000000E+01 0.  1.
    9000005    1    1    2    0    0 -0.51105099206E+02 -0.35327085325E+02 -0.10955338412E+03  0.12594712420E+03  0.10000000000E+01 0.  0.
    9000005    1    1    2    0    0  0.51105099206E+02  0.35327085325E+02 -0.82710218769E+02  0.10344909092E+03  0.10000000000E+01 0.  0.
<mgrwt>
<rscale>  0 0.12512926E+03</rscale>
<asrwt>0</asrwt>
<pdfrwt beam="2">  1        4 0.32435369E-01 0.12512926E+03</pdfrwt>
<pdfrwt beam="1">  1       -4 0.28563549E-02 0.12512926E+03</pdfrwt>
<totfact> 0.85156558E+03</totfact>
</mgrwt>
</event>
<event>
 5    1  0.3330238E-002  0.1250003E+03  0.7818608E-02  0.1235069E+00
         -4   -1    0    0    0  501 -0.00000000000E+00  0.00000000000E+00  0.70567105140E+01  0.71700811208E+01  0.12700000000E+01 0. -1.
          4   -1    0    0  501    0  0.00000000000E+00 -0.00000000000E+00 -0.54902820220E+03  0.54902967106E+03  0.12700000000E+01 0. -1.
         25    2    1    2    0    0  0.00000000000E+00  0.00000000000E+00 -0.54197149168E+03  0.55619975218E+03  0.12500026613E+03 0.  0.
    9000005    1    3    3    0    0  0.41548576005E+01 -0.60382974752E+02 -0.20178067404E+03  0.21066515349E+03  0.10000000000E+01 0.  0.
    9000005    1    3    3    0    0 -0.41548576005E+01  0.60382974752E+02 -0.34019081765E+03  0.34553459869E+03  0.10000000000E+01 0.  0.
<mgrwt>
<rscale>  0 0.12500027E+03</rscale>
<asrwt>0</asrwt>
<pdfrwt beam="2">  1        4 0.84474678E-01 0.12500027E+03</pdfrwt>
<pdfrwt beam="1">  1       -4 0.10944820E-02 0.12500027E+03</pdfrwt>
<totfact> 0.51754230E+03</totfact>
</mgrwt>
</event>
<event>
 5    1  0.3330238E-002  0.1249999E+03  0.7818608E-02  0.1235069E+00
          4   -1    0    0  501    0  0.00000000000E+00  0.00000000000E+00  0.18753320815E+02  0.18796274673E+02  0.12700000000E+01 0.  1.
         -4   -1    0    0    0  501 -0.00000000000E+00 -0.00000000000E+00 -0.20801289446E+03  0.20801677135E+03  0.12700000000E+01 0.  1.
         25    2    1    2    0    0  0.00000000000E+00  0.00000000000E+00 -0.18925957365E+03  0.22681304602E+03  0.12499988651E+03 0.  0.
    9000005    1    3    3    0    0  0.11132607292E+02 -0.55272546517E+02 -0.45730497146E+02  0.72603496561E+02  0.10000000000E+01 0.  0.
    9000005    1    3    3    0    0 -0.11132607292E+02  0.55272546517E+02 -0.14352907650E+03  0.15420954946E+03  0.10000000000E+01 0.  0.
<mgrwt>
<rscale>  0 0.12499989E+03</rscale>
<asrwt>0</asrwt>
<pdfrwt beam="1">  1        4 0.28887288E-02 0.12499989E+03</pdfrwt>
<pdfrwt beam="2">  1       -4 0.32005584E-01 0.12499989E+03</pdfrwt>
<totfact> 0.85801589E+03</totfact>
</mgrwt>
</event>
<event>
 4    1  0.3330238E-002  0.1236901E+03  0.7818608E-02  0.1237131E+00
         -4   -1    0    0    0  501 -0.00000000000E+00  0.00000000000E+00  0.11345805487E+03  0.11346516256E+03  0.12700000000E+01 0.  1.
          4   -1    0    0  501    0  0.00000000000E+00 -0.00000000000E+00 -0.33691116229E+02  0.33715044309E+02  0.12700000000E+01 0.  1.
    9000005    1    1    2    0    0 -0.54847028372E+02 -0.22832826504E+02  0.19471117727E+02  0.62527265356E+02  0.10000000000E+01 0.  0.
    9000005    1    1    2    0    0  0.54847028372E+02  0.22832826504E+02  0.60295820917E+02  0.84652941517E+02  0.10000000000E+01 0.  0.
<mgrwt>
<rscale>  0 0.12369013E+03</rscale>
<asrwt>0</asrwt>
<pdfrwt beam="2">  1        4 0.51856361E-02 0.12369013E+03</pdfrwt>
<pdfrwt beam="1">  1       -4 0.17457473E-01 0.12369013E+03</pdfrwt>
<totfact> 0.10287174E+04</totfact>
</mgrwt>
</event>
<event>
 4    1  0.3330238E-002  0.1249145E+03  0.7818608E-02  0.1235203E+00
          4   -1    0    0  501    0  0.00000000000E+00  0.00000000000E+00  0.16856596567E+03  0.16857074978E+03  0.12700000000E+01 0. -1.
         -4   -1    0    0    0  501 -0.00000000000E+00 -0.00000000000E+00 -0.23119207412E+02  0.23154063388E+02  0.12700000000E+01 0. -1.
    9000005    1    1    2    0    0  0.29356401931E+01 -0.25147840216E+02 -0.14895851576E+02  0.29392486201E+02  0.10000000000E+01 0.  0.
    9000005    1    1    2    0    0 -0.29356401931E+01  0.25147840216E+02  0.16034260983E+03  0.16233232697E+03  0.10000000000E+01 0.  0.
<mgrwt>
<rscale>  0 0.12491455E+03</rscale>
<asrwt>0</asrwt>
<pdfrwt beam="1">  1        4 0.25936275E-01 0.12491455E+03</pdfrwt>
<pdfrwt beam="2">  1       -4 0.35598504E-02 0.12491455E+03</pdfrwt>
<totfact> 0.91723488E+03</totfact>
</mgrwt>
</event>
<event>
 5    1  0.3330238E-002  0.1250053E+03  0.7818608E-02  0.1235061E+00
          4   -1    0    0  501    0  0.00000000000E+00  0.00000000000E+00  0.12662012503E+02  0.12725543628E+02  0.12700000000E+01 0. -1.
         -4   -1    0    0    0  501 -0.00000000000E+00 -0.00000000000E+00 -0.30769068724E+03  0.30769330820E+03  0.12700000000E+01 0. -1.
         25    2    1    2    0    0  0.00000000000E+00  0.00000000000E+00 -0.29502867473E+03  0.32041885183E+03  0.12500528666E+03 0.  0.
    9000005    1    3    3    0    0  0.52067757448E+02 -0.10357688659E+02 -0.23203324143E+03  0.23803100262E+03  0.10000000000E+01 0.  0.
    9000005    1    3    3    0    0 -0.52067757448E+02  0.10357688659E+02 -0.62995433300E+02  0.82387849205E+02  0.10000000000E+01 0.  0.
<mgrwt>
<rscale>  0 0.12500529E+03</rscale>
<asrwt>0</asrwt>
<pdfrwt beam="1">  1        4 0.19530908E-02 0.12500529E+03</pdfrwt>
<pdfrwt beam="2">  1       -4 0.47342112E-01 0.12500529E+03</pdfrwt>
<totfact> 0.73097771E+03</totfact>
</mgrwt>
</event>
<event>
 5    1  0.3330238E-002  0.1250002E+03  0.7818608E-02  0.1235069E+00
         -4   -1    0    0    0  501 -0.00000000000E+00  0.00000000000E+00  0.89562947095E+01  0.90458893937E+01  0.12700000000E+01 0.  1.
          4   -1    0    0  501    0  0.00000000000E+00 -0.00000000000E+00 -0.43388568492E+03  0.43388754359E+03  0.12700000000E+01 0.  1.
         25    2    1    2    0    0  0.00000000000E+00  0.00000000000E+00 -0.42492939021E+03  0.44293343298E+03  0.12500015754E+03 0.  0.
    9000005    1    3    3    0    0 -0.36148224481E+02 -0.14493850706E+02 -0.38564160255E+03  0.38760445232E+03  0.10000000000E+01 0.  0.
    9000005    1    3    3    0    0  0.36148224481E+02  0.14493850706E+02 -0.39287787660E+02  0.55328980658E+02  0.10000000000E+01 0.  0.
<mgrwt>
<rscale>  0 0.12500016E+03</rscale>
<asrwt>0</asrwt>
<pdfrwt beam="2">  1        4 0.66758662E-01 0.12500016E+03</pdfrwt>
<pdfrwt beam="1">  1       -4 0.13849267E-02 0.12500016E+03</pdfrwt>
<totfact> 0.60580695E+03</totfact>
</mgrwt>
</event>
<event>
 5    1  0.3330238E-002  0.1250111E+03  0.7818608E-02  0.1235052E+00
         -4   -1    0    0    0  501 -0.00000000000E+00  0.00000000000E+00  0.36770775031E+01  0.38902183697E+01  0.12700000000E+01 0. -1.
          4   -1    0    0  501    0  0.00000000000E+00 -0.00000000000E+00 -0.10323733521E+04  0.10323741333E+04  0.12700000000E+01 0. -1.
         25    2    1    2    0    0  0.00000000000E+00  0.00000000000E+00 -0.10286962746E+04  0.10362643516E+04  0.12501112387E+03 0.  0.
    9000005    1    3    3    0    0  0.54350373888E+02 -0.28281338079E+02 -0.61659620051E+03  0.61963349790E+03  0.10000000000E+01 0.  0.
    9000005    1    3    3    0    0 -0.54350373888E+02  0.28281338079E+02 -0.41210007408E+03  0.41663085373E+03  0.10000000000E+01 0.  0.
<mgrwt>
<rscale>  0 0.12501112E+03</rscale>
<asrwt>0</asrwt>
<pdfrwt beam="2">  1        4 0.15884290E+00 0.12501112E+03</pdfrwt>
<pdfrwt beam="1">  1       -4 0.58216060E-03 0.12501112E+03</pdfrwt>
<totfact> 0.29420460E+03</totfact>
</mgrwt>
</event>
<event>
 5    1  0.3330238E-002  0.1249989E+03  0.7818608E-02  0.1235071E+00
          4   -1    0    0  501    0  0.00000000000E+00  0.00000000000E+00  0.12057180163E+03  0.12057848999E+03  0.12700000000E+01 0.  1.
         -4   -1    0    0    0  501 -0.00000000000E+00 -0.00000000000E+00 -0.32377078382E+02  0.32401976862E+02  0.12700000000E+01 0.  1.
         25    2    1    2    0    0  0.00000000000E+00  0.00000000000E+00  0.88194723248E+02  0.15298046685E+03  0.12499885611E+03 0.  0.
    9000005    1    3    3    0    0 -0.25669746325E+02 -0.55979862589E+02  0.57078165904E+02  0.83973793024E+02  0.10000000000E+01 0.  0.
    9000005    1    3    3    0    0  0.25669746325E+02  0.55979862589E+02  0.31116557344E+02  0.69006673828E+02  0.10000000000E+01 0.  0.
<mgrwt>
<rscale>  0 0.12499886E+03</rscale>
<asrwt>0</asrwt>
<pdfrwt beam="1">  1        4 0.18551938E-01 0.12499886E+03</pdfrwt>
<pdfrwt beam="2">  1       -4 0.49835187E-02 0.12499886E+03</pdfrwt>
<totfact> 0.98715411E+03</totfact>
</mgrwt>
</event>
<event>
 5    1  0.3330238E-002  0.1249987E+03  0.7818608E-02  0.1235071E+00
         -4   -1    0    0    0  501 -0.00000000000E+00  0.00000000000E+00  0.23445774540E+02  0.23480145736E+02  0.12700000000E+01 0. -1.
          4   -1    0    0  501    0  0.00000000000E+00 -0.00000000000E+00 -0.16644556127E+03  0.16645040633E+03  0.12700000000E+01 0. -1.
         25    2    1    2    0    0  0.00000000000E+00  0.00000000000E+00 -0.14299978673E+03  0.18993055206E+03  0.12499870240E+03 0.  0.
    9000005    1    3    3    0    0  0.20042386152E+01 -0.30573515162E+02 -0.15425695606E+03  0.15727353654E+03  0.10000000000E+01 0.  0.
    9000005    1    3    3    0    0 -0.20042386152E+01  0.30573515162E+02  0.11257169330E+02  0.32657015527E+02  0.10000000000E+01 0.  0.
<mgrwt>
<rscale>  0 0.12499870E+03</rscale>
<asrwt>0</asrwt>
<pdfrwt beam="2">  1        4 0.25610025E-01 0.12499870E+03</pdfrwt>
<pdfrwt beam="1">  1       -4 0.36100590E-02 0.12499870E+03</pdfrwt>
<totfact> 0.91862070E+03</totfact>
</mgrwt>
</event>
<event>
 5    1  0.3330238E-002  0.1250008E+03  0.7818608E-02  0.1235068E+00
          4   -1    0    0  501    0  0.00000000000E+00  0.00000000000E+00  0.27536801560E+04  0.27536804488E+04  0.12700000000E+01 0.  1.
         -4   -1    0    0    0  501 -0.00000000000E+00 -0.00000000000E+00 -0.11339763807E+01  0.17025869822E+01  0.12700000000E+01 0.  1.
         25    2    1    2    0    0  0.00000000000E+00  0.00000000000E+00  0.27525461796E+04  0.27553830358E+04  0.12500081314E+03 0.  0.
    9000005    1    3    3    0    0 -0.48970446310E+02  0.32923537548E+02  0.92279020925E+03  0.92467552916E+03  0.10000000000E+01 0.  0.
    9000005    1    3    3    0    0  0.48970446310E+02 -0.32923537548E+02  0.18297559703E+04  0.18307075067E+04  0.10000000000E+01 0.  0.
<mgrwt>
<rscale>  0 0.12500081E+03</rscale>
<asrwt>0</asrwt>
<pdfrwt beam="1">  1        4 0.42368173E+00 0.12500081E+03</pdfrwt>
<pdfrwt beam="2">  1       -4 0.21822235E-03 0.12500081E+03</pdfrwt>
<totfact> 0.29594800E+02</totfact>
</mgrwt>
</event>
<event>
 5    1  0.3330238E-002  0.1249990E+03  0.7818608E-02  0.1235071E+00
         -4   -1    0    0    0  501 -0.00000000000E+00  0.00000000000E+00  0.35246262312E+01  0.37464503293E+01  0.12700000000E+01 0. -1.
          4   -1    0    0  501    0  0.00000000000E+00 -0.00000000000E+00 -0.10742227195E+04  0.10742234702E+04  0.12700000000E+01 0. -1.
         25    2    1    2    0    0  0.00000000000E+00  0.00000000000E+00 -0.10706980932E+04  0.10779699205E+04  0.12499897079E+03 0.  0.
    9000005    1    3    3    0    0  0.35279494093E+02  0.15382241241E+01 -0.97997226718E+03  0.98060881766E+03  0.10000000000E+01 0.  0.
    9000005    1    3    3    0    0 -0.35279494093E+02 -0.15382241241E+01 -0.90725826053E+02  0.97361102859E+02  0.10000000000E+01 0.  0.
<mgrwt>
<rscale>  0 0.12499897E+03</rscale>
<asrwt>0</asrwt>
<pdfrwt beam="2">  1        4 0.16528190E+00 0.12499897E+03</pdfrwt>
<pdfrwt beam="1">  1       -4 0.55937219E-03 0.12499897E+03</pdfrwt>
<totfact> 0.28137940E+03</totfact>
</mgrwt>
</event>
<event>
 5    1  0.3330238E-002  0.1250143E+03  0.7818608E-02  0.1235047E+00
         -4   -1    0    0    0  501 -0.00000000000E+00  0.00000000000E+00  0.25243211569E+03  0.25243531039E+03  0.12700000000E+01 0. -1.
          4   -1    0    0  501    0  0.00000000000E+00 -0.00000000000E+00 -0.15448657209E+02  0.15500771257E+02  0.12700000000E+01 0. -1.
         25    2    1    2    0    0  0.00000000000E+00  0.00000000000E+00  0.23698345848E+03  0.26793608165E+03  0.12501433620E+03 0.  0.
    9000005    1    3    3    0    0 -0.37365129542E+02  0.11974513348E+02  0.14227773706E+02  0.41748909210E+02  0.10000000000E+01 0.  0.
    9000005    1    3    3    0    0  0.37365129542E+02 -0.11974513348E+02  0.22275568477E+03  0.22618717244E+03  0.10000000000E+01 0.  0.
<mgrwt>
<rscale>  0 0.12501434E+03</rscale>
<asrwt>0</asrwt>
<pdfrwt beam="2">  1        4 0.23809711E-02 0.12501434E+03</pdfrwt>
<pdfrwt beam="1">  1       -4 0.38839963E-01 0.12501434E+03</pdfrwt>
<totfact> 0.79779637E+03</totfact>
</mgrwt>
</event>
<event>
 5    1  0.3330238E-002  0.1249971E+03  0.7818608E-02  0.1235074E+00
          4   -1    0    0  501    0  0.00000000000E+00  0.00000000000E+00  0.69617100632E+02  0.69628683748E+02  0.12700000000E+01 0.  1.
         -4   -1    0    0    0  501 -0.00000000000E+00 -0.00000000000E+00 -0.56084421094E+02  0.56098798467E+02  0.12700000000E+01 0.  1.
         25    2    1    2    0    0  0.00000000000E+00  0.00000000000E+00  0.13532679538E+02  0.12572748222E+03  0.12499706544E+03 0.  0.
    9000005    1    3    3    0    0 -0.16703601838E+02  0.25366527089E+02 -0.48165935346E+02  0.56951104806E+02  0.10000000000E+01 0.  0.
    9000005    1    3    3    0    0  0.16703601838E+02 -0.25366527089E+02  0.61698614884E+02  0.68776377409E+02  0.10000000000E+01 0.  0.
<mgrwt>
<rscale>  0 0.12499707E+03</rscale>
<asrwt>0</asrwt>
<pdfrwt beam="1">  1        4 0.10712320E-01 0.12499707E+03</pdfrwt>
<pdfrwt beam="2">  1       -4 0.86303695E-02 0.12499707E+03</pdfrwt>
<totfact> 0.10437631E+04</totfact>
</mgrwt>
</event>
<event>
 5    1  0.3330238E-002  0.1249983E+03  0.7818608E-02  0.1235072E+00
          4   -1    0    0  501    0  0.00000000000E+00  0.00000000000E+00  0.23982665826E+01  0.27137764464E+01  0.12700000000E+01 0.  1.
         -4   -1    0    0    0  501 -0.00000000000E+00 -0.00000000000E+00 -0.15278967266E+04  0.15278972544E+04  0.12700000000E+01 0.  1.
         25    2    1    2    0    0  0.00000000000E+00  0.00000000000E+00 -0.15254984600E+04  0.15306110309E+04  0.12499830513E+03 0.  0.
    9000005    1    3    3    0    0  0.33558936183E+02 -0.63111184901E+01 -0.12188566317E+03  0.12658257108E+03  0.10000000000E+01 0.  0.
    9000005    1    3    3    0    0 -0.33558936183E+02  0.63111184901E+01 -0.14036127969E+04  0.14040284598E+04  0.10000000000E+01 0.  0.
<mgrwt>
<rscale>  0 0.12499831E+03</rscale>
<asrwt>0</asrwt>
<pdfrwt beam="1">  1        4 0.39327590E-03 0.12499831E+03</pdfrwt>
<pdfrwt beam="2">  1       -4 0.23508462E+00 0.12499831E+03</pdfrwt>
<totfact> 0.17337189E+03</totfact>
</mgrwt>
</event>
<event>
 5    1  0.3330238E-002  0.1250023E+03  0.7818608E-02  0.1235066E+00
          4   -1    0    0  501    0  0.00000000000E+00  0.00000000000E+00  0.10030852802E+03  0.10031656739E+03  0.12700000000E+01 0.  1.
         -4   -1    0    0    0  501 -0.00000000000E+00 -0.00000000000E+00 -0.38923856929E+02  0.38944570074E+02  0.12700000000E+01 0.  1.
         25    2    1    2    0    0  0.00000000000E+00  0.00000000000E+00  0.61384671086E+02  0.13926113746E+03  0.12500234623E+03 0.  0.
    9000005    1    3    3    0    0  0.22260373173E+02 -0.58388879888E+02  0.29821413182E+02  0.69246676400E+02  0.10000000000E+01 0.  0.
    9000005    1    3    3    0    0 -0.22260373173E+02  0.58388879888E+02  0.31563257904E+02  0.70014461062E+02  0.10000000000E+01 0.  0.
<mgrwt>
<rscale>  0 0.12500235E+03</rscale>
<asrwt>0</asrwt>
<pdfrwt beam="1">  1        4 0.15434293E-01 0.12500235E+03</pdfrwt>
<pdfrwt beam="2">  1       -4 0.59904975E-02 0.12500235E+03</pdfrwt>
<totfact> 0.10148386E+04</totfact>
</mgrwt>
</event>
<event>
 5    1  0.3330238E-002  0.1249992E+03  0.7818608E-02  0.1235071E+00
         -4   -1    0    0    0  501 -0.00000000000E+00  0.00000000000E+00  0.19833695434E+03  0.19834102036E+03  0.12700000000E+01 0. -1.
          4   -1    0    0  501    0  0.00000000000E+00 -0.00000000000E+00 -0.19670006509E+02  0.19710962840E+02  0.12700000000E+01 0. -1.
         25    2    1    2    0    0  0.00000000000E+00  0.00000000000E+00  0.17866694783E+03  0.21805198320E+03  0.12499915652E+03 0.  0.
    9000005    1    3    3    0    0  0.22601823593E+02 -0.38718339691E+02  0.13390842552E+02  0.46800287632E+02  0.10000000000E+01 0.  0.
    9000005    1    3    3    0    0 -0.22601823593E+02  0.38718339691E+02  0.16527610528E+03  0.17125169557E+03  0.10000000000E+01 0.  0.
<mgrwt>
<rscale>  0 0.12499916E+03</rscale>
<asrwt>0</asrwt>
<pdfrwt beam="2">  1        4 0.30296180E-02 0.12499916E+03</pdfrwt>
<pdfrwt beam="1">  1       -4 0.30516842E-01 0.12499916E+03</pdfrwt>
<totfact> 0.87179181E+03</totfact>
</mgrwt>
</event>
<event>
 5    1  0.3330238E-002  0.1249996E+03  0.7818608E-02  0.1235070E+00
          4   -1    0    0  501    0  0.00000000000E+00  0.00000000000E+00  0.47977276010E+01  0.49629719054E+01  0.12700000000E+01 0.  1.
         -4   -1    0    0    0  501 -0.00000000000E+00 -0.00000000000E+00 -0.80023292984E+03  0.80023393761E+03  0.12700000000E+01 0.  1.
         25    2    1    2    0    0  0.00000000000E+00  0.00000000000E+00 -0.79543520224E+03  0.80519690952E+03  0.12499960852E+03 0.  0.
    9000005    1    3    3    0    0 -0.56116428116E+02  0.16751667807E+02 -0.53819071443E+03  0.54136855928E+03  0.10000000000E+01 0.  0.
    9000005    1    3    3    0    0  0.56116428116E+02 -0.16751667807E+02 -0.25724448781E+03  0.26382835024E+03  0.10000000000E+01 0.  0.
<mgrwt>
<rscale>  0 0.12499961E+03</rscale>
<asrwt>0</asrwt>
<pdfrwt beam="1">  1        4 0.75090120E-03 0.12499961E+03</pdfrwt>
<pdfrwt beam="2">  1       -4 0.12312544E+00 0.12499961E+03</pdfrwt>
<totfact> 0.38034126E+03</totfact>
</mgrwt>
</event>
<event>
 5    1  0.3330238E-002  0.1250032E+03  0.7818608E-02  0.1235064E+00
         -4   -1    0    0    0  501 -0.00000000000E+00  0.00000000000E+00  0.24428297404E+03  0.24428627531E+03  0.12700000000E+01 0.  1.
          4   -1    0    0  501    0  0.00000000000E+00 -0.00000000000E+00 -0.15962853091E+02  0.16013293815E+02  0.12700000000E+01 0.  1.
         25    2    1    2    0    0  0.00000000000E+00  0.00000000000E+00  0.22832012095E+03  0.26029956913E+03  0.12500315219E+03 0.  0.
    9000005    1    3    3    0    0  0.27934188135E+02 -0.45489612661E+02  0.46497550691E+02  0.70800041999E+02  0.10000000000E+01 0.  0.
    9000005    1    3    3    0    0 -0.27934188135E+02  0.45489612661E+02  0.18182257026E+03  0.18949952713E+03  0.10000000000E+01 0.  0.
<mgrwt>
<rscale>  0 0.12500315E+03</rscale>
<asrwt>0</asrwt>
<pdfrwt beam="2">  1        4 0.24599576E-02 0.12500315E+03</pdfrwt>
<pdfrwt beam="1">  1       -4 0.37586130E-01 0.12500315E+03</pdfrwt>
<totfact> 0.80858364E+03</totfact>
</mgrwt>
</event>
<event>
 5    1  0.3330238E-002  0.1250004E+03  0.7818608E-02  0.1235069E+00
          4   -1    0    0  501    0  0.00000000000E+00  0.00000000000E+00  0.17248531485E+02  0.17295222994E+02  0.12700000000E+01 0. -1.
         -4   -1    0    0    0  501 -0.00000000000E+00 -0.00000000000E+00 -0.22611529946E+03  0.22611886598E+03  0.12700000000E+01 0. -1.
         25    2    1    2    0    0  0.00000000000E+00  0.00000000000E+00 -0.20886676798E+03  0.24341408897E+03  0.12500036778E+03 0.  0.
    9000005    1    3    3    0    0  0.14718961316E+02 -0.59274819212E+02 -0.78664031871E+02  0.99595089864E+02  0.10000000000E+01 0.  0.
    9000005    1    3    3    0    0 -0.14718961316E+02  0.59274819212E+02 -0.13020273611E+03  0.14381899911E+03  0.10000000000E+01 0.  0.
<mgrwt>
<rscale>  0 0.12500037E+03</rscale>
<asrwt>0</asrwt>
<pdfrwt beam="1">  1        4 0.26574864E-02 0.12500037E+03</pdfrwt>
<pdfrwt beam="2">  1       -4 0.34790833E-01 0.12500037E+03</pdfrwt>
<totfact> 0.83290831E+03</totfact>
</mgrwt>
</event>
<event>
 5    1  0.3330238E-002  0.1249941E+03  0.7818608E-02  0.1235079E+00
         -4   -1    0    0    0  501 -0.00000000000E+00  0.00000000000E+00  0.76847037200E+01  0.77889390333E+01  0.12700000000E+01 0. -1.
          4   -1    0    0  501    0  0.00000000000E+00 -0.00000000000E+00 -0.50473785651E+03  0.50473945427E+03  0.12700000000E+01 0. -1.
         25    2    1    2    0    0  0.00000000000E+00  0.00000000000E+00 -0.49705315279E+03  0.51252839330E+03  0.12499406882E+03 0.  0.
    9000005    1    3    3    0    0 -0.18829974908E+02 -0.20606503865E+02 -0.19280973628E+02  0.33940416919E+02  0.10000000000E+01 0.  0.
    9000005    1    3    3    0    0  0.18829974908E+02  0.20606503865E+02 -0.47777217916E+03  0.47858797638E+03  0.10000000000E+01 0.  0.
<mgrwt>
<rscale>  0 0.12499407E+03</rscale>
<asrwt>0</asrwt>
<pdfrwt beam="2">  1        4 0.77660093E-01 0.12499407E+03</pdfrwt>
<pdfrwt beam="1">  1       -4 0.11904035E-02 0.12499407E+03</pdfrwt>
<totfact> 0.54912423E+03</totfact>
</mgrwt>
</event>
<event>
 5    1  0.3330238E-002  0.1250001E+03  0.7818608E-02  0.1235069E+00
          4   -1    0    0  501    0  0.00000000000E+00  0.00000000000E+00  0.91200000935E+01  0.92080020474E+01  0.12700000000E+01 0. -1.
         -4   -1    0    0    0  501 -0.00000000000E+00 -0.00000000000E+00 -0.42617185623E+03  0.42617374854E+03  0.12700000000E+01 0. -1.
         25    2    1    2    0    0  0.00000000000E+00  0.00000000000E+00 -0.41705185614E+03  0.43538175059E+03  0.12500007214E+03 0.  0.
    9000005    1    3    3    0    0  0.35593344585E+02 -0.49987373409E+02 -0.24968358256E+03  0.25711576202E+03  0.10000000000E+01 0.  0.
    9000005    1    3    3    0    0 -0.35593344585E+02  0.49987373409E+02 -0.16736827357E+03  0.17826598856E+03  0.10000000000E+01 0.  0.
<mgrwt>
<rscale>  0 0.12500007E+03</rscale>
<asrwt>0</asrwt>
<pdfrwt beam="1">  1        4 0.14099922E-02 0.12500007E+03</pdfrwt>
<pdfrwt beam="2">  1       -4 0.65571801E-01 0.12500007E+03</pdfrwt>
<totfact> 0.61251090E+03</totfact>
</mgrwt>
</event>
<event>
 5    1  0.3330238E-002  0.1250011E+03  0.7818608E-02  0.1235068E+00
          4   -1    0    0  501    0  0.00000000000E+00  0.00000000000E+00  0.11110974445E+03  0.11111700235E+03  0.12700000000E+01 0. -1.
         -4   -1    0    0    0  501 -0.00000000000E+00 -0.00000000000E+00 -0.35137418098E+02  0.35160361923E+02  0.12700000000E+01 0. -1.
         25    2    1    2    0    0  0.00000000000E+00  0.00000000000E+00  0.75972326348E+02  0.14627736427E+03  0.12500109170E+03 0.  0.
    9000005    1    3    3    0    0  0.57333296120E+02 -0.20921318360E+02  0.22263947700E+02  0.64973008035E+02  0.10000000000E+01 0.  0.
    9000005    1    3    3    0    0 -0.57333296120E+02  0.20921318360E+02  0.53708378648E+02  0.81304356236E+02  0.10000000000E+01 0.  0.
<mgrwt>
<rscale>  0 0.12500109E+03</rscale>
<asrwt>0</asrwt>
<pdfrwt beam="1">  1        4 0.17096130E-01 0.12500109E+03</pdfrwt>
<pdfrwt beam="2">  1       -4 0.54080799E-02 0.12500109E+03</pdfrwt>
<totfact> 0.10004854E+04</totfact>
</mgrwt>
</event>
<event>
 5    1  0.3330238E-002  0.1249988E+03  0.7818608E-02  0.1235071E+00
         -4   -1    0    0    0  501 -0.00000000000E+00  0.00000000000E+00  0.12516356765E+02  0.12580623461E+02  0.12700000000E+01 0. -1.
          4   -1    0    0  501    0  0.00000000000E+00 -0.00000000000E+00 -0.31122084834E+03  0.31122343957E+03  0.12700000000E+01 0. -1.
         25    2    1    2    0    0  0.00000000000E+00  0.00000000000E+00 -0.29870449157E+03  0.32380406304E+03  0.12499879180E+03 0.  0.
    9000005    1    3    3    0    0  0.13707528638E+02 -0.45649496477E+02 -0.25404652936E+03  0.25848097019E+03  0.10000000000E+01 0.  0.
    9000005    1    3    3    0    0 -0.13707528638E+02  0.45649496477E+02 -0.44657962210E+02  0.65323092844E+02  0.10000000000E+01 0.  0.
<mgrwt>
<rscale>  0 0.12499879E+03</rscale>
<asrwt>0</asrwt>
<pdfrwt beam="2">  1        4 0.47885268E-01 0.12499879E+03</pdfrwt>
<pdfrwt beam="1">  1       -4 0.19307365E-02 0.12499879E+03</pdfrwt>
<totfact> 0.72707904E+03</totfact>
</mgrwt>
</event>
<event>
 5    1  0.3330238E-002  0.1249974E+03  0.7818608E-02  0.1235073E+00
          4   -1    0    0  501    0  0.00000000000E+00  0.00000000000E+00  0.33806016331E+02  0.33829863141E+02  0.12700000000E+01 0. -1.
         -4   -1    0    0    0  501 -0.00000000000E+00 -0.00000000000E+00 -0.11547611406E+03  0.11548309755E+03  0.12700000000E+01 0. -1.
         25    2    1    2    0    0  0.00000000000E+00  0.00000000000E+00 -0.81670097730E+02  0.14931296069E+03  0.12499742144E+03 0.  0.
    9000005    1    3    3    0    0  0.19903303679E+01  0.38846925696E+02 -0.99257667069E+02  0.10661205149E+03  0.10000000000E+01 0.  0.
    9000005    1    3    3    0    0 -0.19903303679E+01 -0.38846925696E+02  0.17587569339E+02  0.42700909197E+02  0.10000000000E+01 0.  0.
<mgrwt>
<rscale>  0 0.12499742E+03</rscale>
<asrwt>0</asrwt>
<pdfrwt beam="1">  1        4 0.52032972E-02 0.12499742E+03</pdfrwt>
<pdfrwt beam="2">  1       -4 0.17767927E-01 0.12499742E+03</pdfrwt>
<totfact> 0.99446597E+03</totfact>
</mgrwt>
</event>
<event>
 5    1  0.3330238E-002  0.1250025E+03  0.7818608E-02  0.1235065E+00
          4   -1    0    0  501    0  0.00000000000E+00  0.00000000000E+00  0.19077616462E+02  0.19119841785E+02  0.12700000000E+01 0. -1.
         -4   -1    0    0    0  501 -0.00000000000E+00 -0.00000000000E+00 -0.20449337857E+03  0.20449732218E+03  0.12700000000E+01 0. -1.
         25    2    1    2    0    0  0.00000000000E+00  0.00000000000E+00 -0.18541576211E+03  0.22361716396E+03  0.12500252470E+03 0.  0.
    9000005    1    3    3    0    0  0.25056353871E+02  0.30192538318E+02 -0.17972275521E+03  0.18395836208E+03  0.10000000000E+01 0.  0.
    9000005    1    3    3    0    0 -0.25056353871E+02 -0.30192538318E+02 -0.56930068986E+01  0.39658801885E+02  0.10000000000E+01 0.  0.
<mgrwt>
<rscale>  0 0.12500252E+03</rscale>
<asrwt>0</asrwt>
<pdfrwt beam="1">  1        4 0.29385695E-02 0.12500252E+03</pdfrwt>
<pdfrwt beam="2">  1       -4 0.31464070E-01 0.12500252E+03</pdfrwt>
<totfact> 0.86294333E+03</totfact>
</mgrwt>
</event>
<event>
 5    1  0.3330238E-002  0.1250017E+03  0.7818608E-02  0.1235067E+00
         -4   -1    0    0    0  501 -0.00000000000E+00  0.00000000000E+00  0.91444999811E+02  0.91453818348E+02  0.12700000000E+01 0. -1.
          4   -1    0    0  501    0  0.00000000000E+00 -0.00000000000E+00 -0.42697802071E+02  0.42716685285E+02  0.12700000000E+01 0. -1.
         25    2    1    2    0    0  0.00000000000E+00  0.00000000000E+00  0.48747197740E+02  0.13417050363E+03  0.12500173902E+03 0.  0.
    9000005    1    3    3    0    0 -0.16176607247E+02 -0.51471559429E+02 -0.94727359858E+01  0.54788108008E+02  0.10000000000E+01 0.  0.
    9000005    1    3    3    0    0  0.16176607247E+02  0.51471559429E+02  0.58219933725E+02  0.79382395624E+02  0.10000000000E+01 0.  0.
<mgrwt>
<rscale>  0 0.12500174E+03</rscale>
<asrwt>0</asrwt>
<pdfrwt beam="2">  1        4 0.65710236E-02 0.12500174E+03</pdfrwt>
<pdfrwt beam="1">  1       -4 0.14070592E-01 0.12500174E+03</pdfrwt>
<totfact> 0.10255182E+04</totfact>
</mgrwt>
</event>
<event>
 5    1  0.3330238E-002  0.1250053E+03  0.7818608E-02  0.1235061E+00
          4   -1    0    0  501    0  0.00000000000E+00  0.00000000000E+00  0.35903329915E+02  0.35925784598E+02  0.12700000000E+01 0.  1.
         -4   -1    0    0    0  501 -0.00000000000E+00 -0.00000000000E+00 -0.10874808381E+03  0.10875549932E+03  0.12700000000E+01 0.  1.
         25    2    1    2    0    0  0.00000000000E+00  0.00000000000E+00 -0.72844753892E+02  0.14468128392E+03  0.12500526287E+03 0.  0.
    9000005    1    3    3    0    0 -0.52347674329E+02 -0.27311198582E+02 -0.12719698726E+02  0.60406715780E+02  0.10000000000E+01 0.  0.
    9000005    1    3    3    0    0  0.52347674329E+02  0.27311198582E+02 -0.60125055166E+02  0.84274568135E+02  0.10000000000E+01 0.  0.
<mgrwt>
<rscale>  0 0.12500526E+03</rscale>
<asrwt>0</asrwt>
<pdfrwt beam="1">  1        4 0.55258870E-02 0.12500526E+03</pdfrwt>
<pdfrwt beam="2">  1       -4 0.16732772E-01 0.12500526E+03</pdfrwt>
<totfact> 0.10036279E+04</totfact>
</mgrwt>
</event>
<event>
 5    1  0.3330238E-002  0.1249996E+03  0.7818608E-02  0.1235070E+00
         -4   -1    0    0    0  501 -0.00000000000E+00  0.00000000000E+00  0.88152081278E+01  0.89062222259E+01  0.12700000000E+01 0. -1.
          4   -1    0    0  501    0  0.00000000000E+00 -0.00000000000E+00 -0.44075534231E+03  0.44075717200E+03  0.12700000000E+01 0. -1.
         25    2    1    2    0    0  0.00000000000E+00  0.00000000000E+00 -0.43194013418E+03  0.44966339423E+03  0.12499955438E+03 0.  0.
    9000005    1    3    3    0    0 -0.55663057418E+02 -0.46474222747E+00 -0.31813840050E+03  0.32297311625E+03  0.10000000000E+01 0.  0.
    9000005    1    3    3    0    0  0.55663057418E+02  0.46474222747E+00 -0.11380173368E+03  0.12669027798E+03  0.10000000000E+01 0.  0.
<mgrwt>
<rscale>  0 0.12499955E+03</rscale>
<asrwt>0</asrwt>
<pdfrwt beam="2">  1        4 0.67815639E-01 0.12499955E+03</pdfrwt>
<pdfrwt beam="1">  1       -4 0.13633280E-02 0.12499955E+03</pdfrwt>
<totfact> 0.59993562E+03</totfact>
</mgrwt>
</event>
<event>
 5    1  0.3330238E-002  0.1249964E+03  0.7818608E-02  0.1235075E+00
         -4   -1    0    0    0  501 -0.00000000000E+00  0.00000000000E+00  0.47744673847E+02  0.47761561749E+02  0.12700000000E+01 0.  1.
          4   -1    0    0  501    0  0.00000000000E+00 -0.00000000000E+00 -0.81774431035E+02  0.81784292325E+02  0.12700000000E+01 0.  1.
         25    2    1    2    0    0  0.00000000000E+00  0.00000000000E+00 -0.34029757188E+02  0.12954585407E+03  0.12499641568E+03 0.  0.
    9000005    1    3    3    0    0 -0.25385132270E+02 -0.22559433041E+02 -0.71380699529E+02  0.79054014602E+02  0.10000000000E+01 0.  0.
    9000005    1    3    3    0    0  0.25385132270E+02  0.22559433041E+02  0.37350942341E+02  0.50491839472E+02  0.10000000000E+01 0.  0.
<mgrwt>
<rscale>  0 0.12499642E+03</rscale>
<asrwt>0</asrwt>
<pdfrwt beam="2">  1        4 0.12582739E-01 0.12499642E+03</pdfrwt>
<pdfrwt beam="1">  1       -4 0.73473921E-02 0.12499642E+03</pdfrwt>
<totfact> 0.10355070E+04</totfact>
</mgrwt>
</event>
<event>
 5    1  0.3330238E-002  0.1249996E+03  0.7818608E-02  0.1235070E+00
          4   -1    0    0  501    0  0.00000000000E+00  0.00000000000E+00  0.15697331088E+03  0.15697844829E+03  0.12700000000E+01 0. -1.
         -4   -1    0    0    0  501 -0.00000000000E+00 -0.00000000000E+00 -0.24862898163E+02  0.24895312914E+02  0.12700000000E+01 0. -1.
         25    2    1    2    0    0  0.00000000000E+00  0.00000000000E+00  0.13211041271E+03  0.18187376121E+03  0.12499961547E+03 0.  0.
    9000005    1    3    3    0    0  0.10026936959E+01  0.37356594097E+02  0.13893148838E+03  0.14387313502E+03  0.10000000000E+01 0.  0.
    9000005    1    3    3    0    0 -0.10026936959E+01 -0.37356594097E+02 -0.68210756664E+01  0.38000626184E+02  0.10000000000E+01 0.  0.
<mgrwt>
<rscale>  0 0.12499962E+03</rscale>
<asrwt>0</asrwt>
<pdfrwt beam="1">  1        4 0.24152629E-01 0.12499962E+03</pdfrwt>
<pdfrwt beam="2">  1       -4 0.38279499E-02 0.12499962E+03</pdfrwt>
<totfact> 0.93281607E+03</totfact>
</mgrwt>
</event>
<event>
 5    1  0.3330238E-002  0.1249988E+03  0.7818608E-02  0.1235071E+00
          4   -1    0    0  501    0  0.00000000000E+00  0.00000000000E+00  0.32128860317E+02  0.32153951006E+02  0.12700000000E+01 0.  1.
         -4   -1    0    0    0  501 -0.00000000000E+00 -0.00000000000E+00 -0.12150244225E+03  0.12150907938E+03  0.12700000000E+01 0.  1.
         25    2    1    2    0    0  0.00000000000E+00  0.00000000000E+00 -0.89373581931E+02  0.15366303039E+03  0.12499875904E+03 0.  0.
    9000005    1    3    3    0    0  0.60013999153E+02 -0.14605838047E+02 -0.56359591844E+02  0.83620656492E+02  0.10000000000E+01 0.  0.
    9000005    1    3    3    0    0 -0.60013999153E+02  0.14605838047E+02 -0.33013990086E+02  0.70042373895E+02  0.10000000000E+01 0.  0.
<mgrwt>
<rscale>  0 0.12499876E+03</rscale>
<asrwt>0</asrwt>
<pdfrwt beam="1">  1        4 0.49453422E-02 0.12499876E+03</pdfrwt>
<pdfrwt beam="2">  1       -4 0.18695124E-01 0.12499876E+03</pdfrwt>
<totfact> 0.98581227E+03</totfact>
</mgrwt>
</event>
<event>
 5    1  0.3330238E-002  0.1250026E+03  0.7818608E-02  0.1235065E+00
          4   -1    0    0  501    0  0.00000000000E+00  0.00000000000E+00  0.79631420290E+01  0.80637789512E+01  0.12700000000E+01 0.  1.
         -4   -1    0    0    0  501 -0.00000000000E+00 -0.00000000000E+00 -0.48738002205E+03  0.48738167671E+03  0.12700000000E+01 0.  1.
         25    2    1    2    0    0  0.00000000000E+00  0.00000000000E+00 -0.47941688002E+03  0.49544545566E+03  0.12500261872E+03 0.  0.
    9000005    1    3    3    0    0  0.38444235149E+02  0.16049674869E+02 -0.55082451156E+02  0.69069730744E+02  0.10000000000E+01 0.  0.
    9000005    1    3    3    0    0 -0.38444235149E+02 -0.16049674869E+02 -0.42433442887E+03  0.42637572492E+03  0.10000000000E+01 0.  0.
<mgrwt>
<rscale>  0 0.12500262E+03</rscale>
<asrwt>0</asrwt>
<pdfrwt beam="1">  1        4 0.12329677E-02 0.12500262E+03</pdfrwt>
<pdfrwt beam="2">  1       -4 0.74989387E-01 0.12500262E+03</pdfrwt>
<totfact> 0.56216255E+03</totfact>
</mgrwt>
</event>
<event>
 5    1  0.3330238E-002  0.1250013E+03  0.7818608E-02  0.1235067E+00
         -4   -1    0    0    0  501 -0.00000000000E+00  0.00000000000E+00  0.12401347814E+02  0.12466207427E+02  0.12700000000E+01 0. -1.
          4   -1    0    0  501    0  0.00000000000E+00 -0.00000000000E+00 -0.31410493988E+03  0.31410750732E+03  0.12700000000E+01 0. -1.
         25    2    1    2    0    0  0.00000000000E+00  0.00000000000E+00 -0.30170359206E+03  0.32657371475E+03  0.12500133479E+03 0.  0.
    9000005    1    3    3    0    0  0.43053917908E+01  0.28168994865E+01  0.11859890266E+02  0.12966430438E+02  0.10000000000E+01 0.  0.
    9000005    1    3    3    0    0 -0.43053917908E+01 -0.28168994865E+01 -0.31356348233E+03  0.31360728431E+03  0.10000000000E+01 0.  0.
<mgrwt>
<rscale>  0 0.12500133E+03</rscale>
<asrwt>0</asrwt>
<pdfrwt beam="2">  1        4 0.48329017E-01 0.12500133E+03</pdfrwt>
<pdfrwt beam="1">  1       -4 0.19130866E-02 0.12500133E+03</pdfrwt>
<totfact> 0.72378893E+03</totfact>
</mgrwt>
</event>
<event>
 5    1  0.3330238E-002  0.1250038E+03  0.7818608E-02  0.1235063E+00
          4   -1    0    0  501    0  0.00000000000E+00  0.00000000000E+00  0.57822400926E+02  0.57836346261E+02  0.12700000000E+01 0. -1.
         -4   -1    0    0    0  501 -0.00000000000E+00 -0.00000000000E+00 -0.67532079830E+02  0.67544020506E+02  0.12700000000E+01 0. -1.
         25    2    1    2    0    0  0.00000000000E+00  0.00000000000E+00 -0.97096789042E+01  0.12538036677E+03  0.12500383397E+03 0.  0.
    9000005    1    3    3    0    0 -0.60465120213E+02 -0.13899678115E+02 -0.12377953109E+02  0.63272786704E+02  0.10000000000E+01 0.  0.
    9000005    1    3    3    0    0  0.60465120213E+02  0.13899678115E+02  0.26682742047E+01  0.62107580064E+02  0.10000000000E+01 0.  0.
<mgrwt>
<rscale>  0 0.12500383E+03</rscale>
<asrwt>0</asrwt>
<pdfrwt beam="1">  1        4 0.88977452E-02 0.12500383E+03</pdfrwt>
<pdfrwt beam="2">  1       -4 0.10391542E-01 0.12500383E+03</pdfrwt>
<totfact> 0.10443699E+04</totfact>
</mgrwt>
</event>
<event>
 5    1  0.3330238E-002  0.1249962E+03  0.7818608E-02  0.1235075E+00
          4   -1    0    0  501    0  0.00000000000E+00  0.00000000000E+00  0.27616563072E+02  0.27645749328E+02  0.12700000000E+01 0. -1.
         -4   -1    0    0    0  501 -0.00000000000E+00 -0.00000000000E+00 -0.14133052067E+03  0.14133622669E+03  0.12700000000E+01 0. -1.
         25    2    1    2    0    0  0.00000000000E+00  0.00000000000E+00 -0.11371395760E+03  0.16898197601E+03  0.12499617620E+03 0.  0.
    9000005    1    3    3    0    0  0.11795710589E+02  0.45154891260E+02 -0.67742826296E+00  0.46685778371E+02  0.10000000000E+01 0.  0.
    9000005    1    3    3    0    0 -0.11795710589E+02 -0.45154891260E+02 -0.11303652934E+03  0.12229619764E+03  0.10000000000E+01 0.  0.
<mgrwt>
<rscale>  0 0.12499618E+03</rscale>
<asrwt>0</asrwt>
<pdfrwt beam="1">  1        4 0.42513861E-02 0.12499618E+03</pdfrwt>
<pdfrwt beam="2">  1       -4 0.21745841E-01 0.12499618E+03</pdfrwt>
<totfact> 0.95646751E+03</totfact>
</mgrwt>
</event>
<event>
 5    1  0.3330238E-002  0.1249982E+03  0.7818608E-02  0.1235072E+00
          4   -1    0    0  501    0  0.00000000000E+00  0.00000000000E+00  0.18399095802E+02  0.18442874676E+02  0.12700000000E+01 0. -1.
         -4   -1    0    0    0  501 -0.00000000000E+00 -0.00000000000E+00 -0.21200272540E+03  0.21200652932E+03  0.12700000000E+01 0. -1.
         25    2    1    2    0    0  0.00000000000E+00  0.00000000000E+00 -0.19360362959E+03  0.23044940400E+03  0.12499824963E+03 0.  0.
    9000005    1    3    3    0    0 -0.47419550881E+02 -0.13898316838E+02 -0.26276054019E+02  0.55975066159E+02  0.10000000000E+01 0.  0.
    9000005    1    3    3    0    0  0.47419550881E+02  0.13898316838E+02 -0.16732757558E+03  0.17447433784E+03  0.10000000000E+01 0.  0.
<mgrwt>
<rscale>  0 0.12499825E+03</rscale>
<asrwt>0</asrwt>
<pdfrwt beam="1">  1        4 0.28342905E-02 0.12499825E+03</pdfrwt>
<pdfrwt beam="2">  1       -4 0.32619463E-01 0.12499825E+03</pdfrwt>
<totfact> 0.85243968E+03</totfact>
</mgrwt>
</event>
<event>
 5    1  0.3330238E-002  0.1249813E+03  0.7818608E-02  0.1235099E+00
         -4   -1    0    0    0  501 -0.00000000000E+00  0.00000000000E+00  0.63550595168E+02  0.63563283791E+02  0.12700000000E+01 0.  1.
          4   -1    0    0  501    0  0.00000000000E+00 -0.00000000000E+00 -0.61422998605E+02  0.61436126649E+02  0.12700000000E+01 0.  1.
         25    2    1    2    0    0  0.00000000000E+00  0.00000000000E+00  0.21275965633E+01  0.12499941044E+03  0.12498130237E+03 0.  0.
    9000005    1    3    3    0    0 -0.56184389062E+02  0.27338472902E+02  0.10020563973E+01  0.62498654320E+02  0.10000000000E+01 0.  0.
    9000005    1    3    3    0    0  0.56184389062E+02 -0.27338472902E+02  0.11255401660E+01  0.62500756119E+02  0.10000000000E+01 0.  0.
<mgrwt>
<rscale>  0 0.12498130E+03</rscale>
<asrwt>0</asrwt>
<pdfrwt beam="2">  1        4 0.94516780E-02 0.12498130E+03</pdfrwt>
<pdfrwt beam="1">  1       -4 0.97790006E-02 0.12498130E+03</pdfrwt>
<totfact> 0.10457294E+04</totfact>
</mgrwt>
</event>
<event>
 5    1  0.3330238E-002  0.1250007E+03  0.7818608E-02  0.1235068E+00
         -4   -1    0    0    0  501 -0.00000000000E+00  0.00000000000E+00  0.29774859097E+03  0.29775129945E+03  0.12700000000E+01 0. -1.
          4   -1    0    0  501    0  0.00000000000E+00 -0.00000000000E+00 -0.13085924006E+02  0.13147406858E+02  0.12700000000E+01 0. -1.
         25    2    1    2    0    0  0.00000000000E+00  0.00000000000E+00  0.28466266696E+03  0.31089870631E+03  0.12500068649E+03 0.  0.
    9000005    1    3    3    0    0 -0.29755986880E+02  0.50609041476E+02  0.89068642776E+02  0.10668138057E+03  0.10000000000E+01 0.  0.
    9000005    1    3    3    0    0  0.29755986880E+02 -0.50609041476E+02  0.19559402419E+03  0.20421732574E+03  0.10000000000E+01 0.  0.
<mgrwt>
<rscale>  0 0.12500069E+03</rscale>
<asrwt>0</asrwt>
<pdfrwt beam="2">  1        4 0.20181567E-02 0.12500069E+03</pdfrwt>
<pdfrwt beam="1">  1       -4 0.45812417E-01 0.12500069E+03</pdfrwt>
<totfact> 0.74250616E+03</totfact>
</mgrwt>
</event>
<event>
 5    1  0.3330238E-002  0.1250542E+03  0.7818608E-02  0.1234985E+00
         -4   -1    0    0    0  501 -0.00000000000E+00  0.00000000000E+00  0.53023143138E+02  0.53038350354E+02  0.12700000000E+01 0. -1.
          4   -1    0    0  501    0  0.00000000000E+00 -0.00000000000E+00 -0.73703303132E+02  0.73714244164E+02  0.12700000000E+01 0. -1.
         25    2    1    2    0    0  0.00000000000E+00  0.00000000000E+00 -0.20680159994E+02  0.12675259452E+03  0.12505419305E+03 0.  0.
    9000005    1    3    3    0    0 -0.56671167164E+02 -0.20769324583E+02 -0.26860266858E+02  0.66071627549E+02  0.10000000000E+01 0.  0.
    9000005    1    3    3    0    0  0.56671167164E+02  0.20769324583E+02  0.61801068637E+01  0.60680966968E+02  0.10000000000E+01 0.  0.
<mgrwt>
<rscale>  0 0.12505419E+03</rscale>
<asrwt>0</asrwt>
<pdfrwt beam="2">  1        4 0.11340981E-01 0.12505419E+03</pdfrwt>
<pdfrwt beam="1">  1       -4 0.81594180E-02 0.12505419E+03</pdfrwt>
<totfact> 0.10401796E+04</totfact>
</mgrwt>
</event>
<event>
 5    1  0.3330238E-002  0.1250080E+03  0.7818608E-02  0.1235057E+00
         -4   -1    0    0    0  501 -0.00000000000E+00  0.00000000000E+00  0.13837263610E+03  0.13837846408E+03  0.12700000000E+01 0.  1.
          4   -1    0    0  501    0  0.00000000000E+00 -0.00000000000E+00 -0.28212843230E+02  0.28241413264E+02  0.12700000000E+01 0.  1.
         25    2    1    2    0    0  0.00000000000E+00  0.00000000000E+00  0.11015979287E+03  0.16661987734E+03  0.12500801399E+03 0.  0.
    9000005    1    3    3    0    0 -0.39216604506E+02  0.29224584440E+02  0.32221642524E+01  0.49024491299E+02  0.10000000000E+01 0.  0.
    9000005    1    3    3    0    0  0.39216604506E+02 -0.29224584440E+02  0.10693762862E+03  0.11759538604E+03  0.10000000000E+01 0.  0.
<mgrwt>
<rscale>  0 0.12500801E+03</rscale>
<asrwt>0</asrwt>
<pdfrwt beam="2">  1        4 0.43430833E-02 0.12500801E+03</pdfrwt>
<pdfrwt beam="1">  1       -4 0.21290744E-01 0.12500801E+03</pdfrwt>
<totfact> 0.96064197E+03</totfact>
</mgrwt>
</event>
<event>
 4    1  0.3330238E-002  0.1249112E+03  0.7818608E-02  0.1235208E+00
         -4   -1    0    0    0  501 -0.00000000000E+00  0.00000000000E+00  0.36269573003E+03  0.36269795352E+03  0.12700000000E+01 0. -1.
          4   -1    0    0  501    0  0.00000000000E+00 -0.00000000000E+00 -0.10714992490E+02  0.10789993701E+02  0.12700000000E+01 0. -1.
    9000005    1    1    2    0    0  0.60932643115E+02 -0.71110683822E+01  0.21090430321E+03  0.21964739790E+03  0.10000000000E+01 0.  0.
    9000005    1    1    2    0    0 -0.60932643115E+02  0.71110683822E+01  0.14107643433E+03  0.15384054932E+03  0.10000000000E+01 0.  0.
<mgrwt>
<rscale>  0 0.12491120E+03</rscale>
<asrwt>0</asrwt>
<pdfrwt beam="2">  1        4 0.16544009E-02 0.12491120E+03</pdfrwt>
<pdfrwt beam="1">  1       -4 0.55805277E-01 0.12491120E+03</pdfrwt>
<totfact> 0.67347717E+03</totfact>
</mgrwt>
</event>
<event>
 5    1  0.3330238E-002  0.1250010E+03  0.7818608E-02  0.1235068E+00
          4   -1    0    0  501    0  0.00000000000E+00  0.00000000000E+00  0.19644110133E+02  0.19685120343E+02  0.12700000000E+01 0.  1.
         -4   -1    0    0    0  501 -0.00000000000E+00 -0.00000000000E+00 -0.19860370751E+03  0.19860776807E+03  0.12700000000E+01 0.  1.
         25    2    1    2    0    0  0.00000000000E+00  0.00000000000E+00 -0.17895959738E+03  0.21829288841E+03  0.12500099055E+03 0.  0.
    9000005    1    3    3    0    0 -0.39307524206E+02 -0.42040071542E+02 -0.46958820575E+02  0.74287144946E+02  0.10000000000E+01 0.  0.
    9000005    1    3    3    0    0  0.39307524206E+02  0.42040071542E+02 -0.13200077680E+03  0.14400574346E+03  0.10000000000E+01 0.  0.
<mgrwt>
<rscale>  0 0.12500099E+03</rscale>
<asrwt>0</asrwt>
<pdfrwt beam="1">  1        4 0.30256379E-02 0.12500099E+03</pdfrwt>
<pdfrwt beam="2">  1       -4 0.30557882E-01 0.12500099E+03</pdfrwt>
<totfact> 0.87137273E+03</totfact>
</mgrwt>
</event>
<event>
 5    1  0.3330238E-002  0.1249995E+03  0.7818608E-02  0.1235070E+00
          4   -1    0    0  501    0  0.00000000000E+00  0.00000000000E+00  0.32864863616E+02  0.32889392827E+02  0.12700000000E+01 0. -1.
         -4   -1    0    0    0  501 -0.00000000000E+00 -0.00000000000E+00 -0.11878465706E+03  0.11879144604E+03  0.12700000000E+01 0. -1.
         25    2    1    2    0    0  0.00000000000E+00  0.00000000000E+00 -0.85919793440E+02  0.15168083887E+03  0.12499946390E+03 0.  0.
    9000005    1    3    3    0    0 -0.49016155281E+02 -0.15104056676E+02  0.36051487957E+00  0.51301520227E+02  0.10000000000E+01 0.  0.
    9000005    1    3    3    0    0  0.49016155281E+02  0.15104056676E+02 -0.86280308320E+02  0.10037931864E+03  0.10000000000E+01 0.  0.
<mgrwt>
<rscale>  0 0.12499946E+03</rscale>
<asrwt>0</asrwt>
<pdfrwt beam="1">  1        4 0.50585420E-02 0.12499946E+03</pdfrwt>
<pdfrwt beam="2">  1       -4 0.18276971E-01 0.12499946E+03</pdfrwt>
<totfact> 0.98970892E+03</totfact>
</mgrwt>
</event>
<event>
 5    1  0.3330238E-002  0.1250028E+03  0.7818608E-02  0.1235065E+00
          4   -1    0    0  501    0  0.00000000000E+00  0.00000000000E+00  0.38710232674E+01  0.40740300854E+01  0.12700000000E+01 0. -1.
         -4   -1    0    0    0  501 -0.00000000000E+00 -0.00000000000E+00 -0.98315760894E+03  0.98315842921E+03  0.12700000000E+01 0. -1.
         25    2    1    2    0    0  0.00000000000E+00  0.00000000000E+00 -0.97928658568E+03  0.98723245930E+03  0.12500284716E+03 0.  0.
    9000005    1    3    3    0    0 -0.12588214400E+02 -0.23395295705E+02 -0.42909240062E+02  0.50477776155E+02  0.10000000000E+01 0.  0.
    9000005    1    3    3    0    0  0.12588214400E+02  0.23395295705E+02 -0.93637734562E+03  0.93675468314E+03  0.10000000000E+01 0.  0.
<mgrwt>
<rscale>  0 0.12500285E+03</rscale>
<asrwt>0</asrwt>
<pdfrwt beam="1">  1        4 0.61122183E-03 0.12500285E+03</pdfrwt>
<pdfrwt beam="2">  1       -4 0.15127050E+00 0.12500285E+03</pdfrwt>
<totfact> 0.31027944E+03</totfact>
</mgrwt>
</event>
<event>
 5    1  0.3330238E-002  0.1250035E+03  0.7818608E-02  0.1235064E+00
         -4   -1    0    0    0  501 -0.00000000000E+00  0.00000000000E+00  0.17777848481E+02  0.17823153386E+02  0.12700000000E+01 0. -1.
          4   -1    0    0  501    0  0.00000000000E+00 -0.00000000000E+00 -0.21941124705E+03  0.21941492254E+03  0.12700000000E+01 0. -1.
         25    2    1    2    0    0  0.00000000000E+00  0.00000000000E+00 -0.20163339857E+03  0.23723807592E+03  0.12500350895E+03 0.  0.
    9000005    1    3    3    0    0 -0.14993728686E+02 -0.23951635746E+02 -0.20660342549E+03  0.20852929813E+03  0.10000000000E+01 0.  0.
    9000005    1    3    3    0    0  0.14993728686E+02  0.23951635746E+02  0.49700269190E+01  0.28708777794E+02  0.10000000000E+01 0.  0.
<mgrwt>
<rscale>  0 0.12500351E+03</rscale>
<asrwt>0</asrwt>
<pdfrwt beam="2">  1        4 0.33759342E-01 0.12500351E+03</pdfrwt>
<pdfrwt beam="1">  1       -4 0.27388215E-02 0.12500351E+03</pdfrwt>
<totfact> 0.84203846E+03</totfact>
</mgrwt>
</event>
<event>
 4    1  0.3330238E-002  0.1250829E+03  0.7818608E-02  0.1234940E+00
         -4   -1    0    0    0  501 -0.00000000000E+00  0.00000000000E+00  0.36981593381E+03  0.36981811448E+03  0.12700000000E+01 0.  1.
          4   -1    0    0  501    0  0.00000000000E+00 -0.00000000000E+00 -0.10536366285E+02  0.10612629952E+02  0.12700000000E+01 0.  1.
    9000005    1    1    2    0    0 -0.67585592007E+00 -0.59799455484E+02  0.23522425835E+03  0.24270946288E+03  0.10000000000E+01 0.  0.
    9000005    1    1    2    0    0  0.67585592007E+00  0.59799455484E+02  0.12405530917E+03  0.13772128155E+03  0.10000000000E+01 0.  0.
<mgrwt>
<rscale>  0 0.12508295E+03</rscale>
<asrwt>0</asrwt>
<pdfrwt beam="2">  1        4 0.16270137E-02 0.12508295E+03</pdfrwt>
<pdfrwt beam="1">  1       -4 0.56900790E-01 0.12508295E+03</pdfrwt>
<totfact> 0.66379882E+03</totfact>
</mgrwt>
</event>
<event>
 5    1  0.3330238E-002  0.1250013E+03  0.7818608E-02  0.1235067E+00
         -4   -1    0    0    0  501 -0.00000000000E+00  0.00000000000E+00  0.11991786680E+02  0.12058849356E+02  0.12700000000E+01 0. -1.
          4   -1    0    0  501    0  0.00000000000E+00 -0.00000000000E+00 -0.32477391040E+03  0.32477639350E+03  0.12700000000E+01 0. -1.
         25    2    1    2    0    0  0.00000000000E+00  0.00000000000E+00 -0.31278212372E+03  0.33683524286E+03  0.12500129564E+03 0.  0.
    9000005    1    3    3    0    0  0.46382758693E+01 -0.45637503588E+02 -0.27074843329E+03  0.27460882992E+03  0.10000000000E+01 0.  0.
    9000005    1    3    3    0    0 -0.46382758693E+01  0.45637503588E+02 -0.42033690426E+02  0.62226412942E+02  0.10000000000E+01 0.  0.
<mgrwt>
<rscale>  0 0.12500130E+03</rscale>
<asrwt>0</asrwt>
<pdfrwt beam="2">  1        4 0.49970560E-01 0.12500130E+03</pdfrwt>
<pdfrwt beam="1">  1       -4 0.18502402E-02 0.12500130E+03</pdfrwt>
<totfact> 0.71195502E+03</totfact>
</mgrwt>
</event>
<event>
 5    1  0.3330238E-002  0.1250022E+03  0.7818608E-02  0.1235066E+00
          4   -1    0    0  501    0  0.00000000000E+00  0.00000000000E+00  0.59402694446E+02  0.59416268879E+02  0.12700000000E+01 0.  1.
         -4   -1    0    0    0  501 -0.00000000000E+00 -0.00000000000E+00 -0.65733863770E+02  0.65746131035E+02  0.12700000000E+01 0.  1.
         25    2    1    2    0    0  0.00000000000E+00  0.00000000000E+00 -0.63311693235E+01  0.12516239991E+03  0.12500217057E+03 0.  0.
    9000005    1    3    3    0    0 -0.35721772279E+02 -0.16278895702E+02  0.45521203721E+02  0.60118445158E+02  0.10000000000E+01 0.  0.
    9000005    1    3    3    0    0  0.35721772279E+02  0.16278895702E+02 -0.51852373044E+02  0.65043954756E+02  0.10000000000E+01 0.  0.
<mgrwt>
<rscale>  0 0.12500217E+03</rscale>
<asrwt>0</asrwt>
<pdfrwt beam="1">  1        4 0.91408638E-02 0.12500217E+03</pdfrwt>
<pdfrwt beam="2">  1       -4 0.10114890E-01 0.12500217E+03</pdfrwt>
<totfact> 0.10448824E+04</totfact>
</mgrwt>
</event>
<event>
 5    1  0.3330238E-002  0.1250005E+03  0.7818608E-02  0.1235069E+00
          4   -1    0    0  501    0  0.00000000000E+00  0.00000000000E+00  0.58209787665E+02  0.58223640216E+02  0.12700000000E+01 0. -1.
         -4   -1    0    0    0  501 -0.00000000000E+00 -0.00000000000E+00 -0.67079055391E+02  0.67091076695E+02  0.12700000000E+01 0. -1.
         25    2    1    2    0    0  0.00000000000E+00  0.00000000000E+00 -0.88692677254E+01  0.12531471691E+03  0.12500045746E+03 0.  0.
    9000005    1    3    3    0    0 -0.35910544913E+02 -0.23193443656E+02  0.41262586957E+02  0.59423094390E+02  0.10000000000E+01 0.  0.
    9000005    1    3    3    0    0  0.35910544913E+02  0.23193443656E+02 -0.50131854682E+02  0.65891622521E+02  0.10000000000E+01 0.  0.
<mgrwt>
<rscale>  0 0.12500046E+03</rscale>
<asrwt>0</asrwt>
<pdfrwt beam="1">  1        4 0.89573423E-02 0.12500046E+03</pdfrwt>
<pdfrwt beam="2">  1       -4 0.10321845E-01 0.12500046E+03</pdfrwt>
<totfact> 0.10445923E+04</totfact>
</mgrwt>
</event>
<event>
 5    1  0.3330238E-002  0.1250005E+03  0.7818608E-02  0.1235068E+00
          4   -1    0    0  501    0  0.00000000000E+00  0.00000000000E+00  0.44228774844E+02  0.44247004692E+02  0.12700000000E+01 0.  1.
         -4   -1    0    0    0  501 -0.00000000000E+00 -0.00000000000E+00 -0.88278922143E+02  0.88288056920E+02  0.12700000000E+01 0.  1.
         25    2    1    2    0    0  0.00000000000E+00  0.00000000000E+00 -0.44050147299E+02  0.13253506161E+03  0.12500050832E+03 0.  0.
    9000005    1    3    3    0    0 -0.47261276925E+02  0.34413337867E+02 -0.45432351964E+02  0.74047314096E+02  0.10000000000E+01 0.  0.
    9000005    1    3    3    0    0  0.47261276925E+02 -0.34413337867E+02  0.13822046657E+01  0.58487747516E+02  0.10000000000E+01 0.  0.
<mgrwt>
<rscale>  0 0.12500051E+03</rscale>
<asrwt>0</asrwt>
<pdfrwt beam="1">  1        4 0.68065319E-02 0.12500051E+03</pdfrwt>
<pdfrwt beam="2">  1       -4 0.13583478E-01 0.12500051E+03</pdfrwt>
<totfact> 0.10290173E+04</totfact>
</mgrwt>
</event>
<event>
 5    1  0.3330238E-002  0.1249999E+03  0.7818608E-02  0.1235069E+00
          4   -1    0    0  501    0  0.00000000000E+00  0.00000000000E+00  0.14897755995E+02  0.14951790317E+02  0.12700000000E+01 0. -1.
         -4   -1    0    0    0  501 -0.00000000000E+00 -0.00000000000E+00 -0.26167313500E+03  0.26167621688E+03  0.12700000000E+01 0. -1.
         25    2    1    2    0    0  0.00000000000E+00  0.00000000000E+00 -0.24677537901E+03  0.27662800720E+03  0.12499986673E+03 0.  0.
    9000005    1    3    3    0    0  0.18979435863E+02 -0.45255506216E+02 -0.20901098977E+03  0.21469716736E+03  0.10000000000E+01 0.  0.
    9000005    1    3    3    0    0 -0.18979435863E+02  0.45255506216E+02 -0.37764389240E+02  0.61930839840E+02  0.10000000000E+01 0.  0.
<mgrwt>
<rscale>  0 0.12499987E+03</rscale>
<asrwt>0</asrwt>
<pdfrwt beam="1">  1        4 0.22963562E-02 0.12499987E+03</pdfrwt>
<pdfrwt beam="2">  1       -4 0.40261795E-01 0.12499987E+03</pdfrwt>
<totfact> 0.78627576E+03</totfact>
</mgrwt>
</event>
<event>
 5    1  0.3330238E-002  0.1249989E+03  0.7818608E-02  0.1235071E+00
         -4   -1    0    0    0  501 -0.00000000000E+00  0.00000000000E+00  0.11552689441E+02  0.11622286062E+02  0.12700000000E+01 0. -1.
          4   -1    0    0  501    0  0.00000000000E+00 -0.00000000000E+00 -0.33703250490E+03  0.33703489769E+03  0.12700000000E+01 0. -1.
         25    2    1    2    0    0  0.00000000000E+00  0.00000000000E+00 -0.32547981546E+03  0.34865718375E+03  0.12499888603E+03 0.  0.
    9000005    1    3    3    0    0  0.20991196039E+02 -0.26502388966E+02 -0.16145316079E+02  0.37479036318E+02  0.10000000000E+01 0.  0.
    9000005    1    3    3    0    0 -0.20991196039E+02  0.26502388966E+02 -0.30933449938E+03  0.31117814743E+03  0.10000000000E+01 0.  0.
<mgrwt>
<rscale>  0 0.12499889E+03</rscale>
<asrwt>0</asrwt>
<pdfrwt beam="2">  1        4 0.51856685E-01 0.12499889E+03</pdfrwt>
<pdfrwt beam="1">  1       -4 0.17828747E-02 0.12499889E+03</pdfrwt>
<totfact> 0.69874261E+03</totfact>
</mgrwt>
</event>
<event>
 5    1  0.3330238E-002  0.1250016E+03  0.7818608E-02  0.1235067E+00
          4   -1    0    0  501    0  0.00000000000E+00  0.00000000000E+00  0.55459966750E+01  0.56895499927E+01  0.12700000000E+01 0.  1.
         -4   -1    0    0    0  501 -0.00000000000E+00 -0.00000000000E+00 -0.69521090663E+03  0.69521206664E+03  0.12700000000E+01 0.  1.
         25    2    1    2    0    0  0.00000000000E+00  0.00000000000E+00 -0.68966490996E+03  0.70090161663E+03  0.12500155267E+03 0.  0.
    9000005    1    3    3    0    0 -0.28673202108E+01  0.21551480591E+02 -0.67334881210E+03  0.67370046058E+03  0.10000000000E+01 0.  0.
    9000005    1    3    3    0    0  0.28673202108E+01 -0.21551480591E+02 -0.16316097861E+02  0.27201156046E+02  0.10000000000E+01 0.  0.
<mgrwt>
<rscale>  0 0.12500155E+03</rscale>
<asrwt>0</asrwt>
<pdfrwt beam="1">  1        4 0.86436260E-03 0.12500155E+03</pdfrwt>
<pdfrwt beam="2">  1       -4 0.10696659E+00 0.12500155E+03</pdfrwt>
<totfact> 0.43037698E+03</totfact>
</mgrwt>
</event>
<event>
 5    1  0.3330238E-002  0.1249981E+03  0.7818608E-02  0.1235072E+00
          4   -1    0    0  501    0  0.00000000000E+00  0.00000000000E+00  0.63787000319E+01  0.65038999145E+01  0.12700000000E+01 0.  1.
         -4   -1    0    0    0  501 -0.00000000000E+00 -0.00000000000E+00 -0.60629396822E+03  0.60629529835E+03  0.12700000000E+01 0.  1.
         25    2    1    2    0    0  0.00000000000E+00  0.00000000000E+00 -0.59991526819E+03  0.61279919827E+03  0.12499811353E+03 0.  0.
    9000005    1    3    3    0    0 -0.18081748087E+02 -0.19218909078E+02 -0.22250435098E+02  0.34531115564E+02  0.10000000000E+01 0.  0.
    9000005    1    3    3    0    0  0.18081748087E+02  0.19218909078E+02 -0.57766483309E+03  0.57826808270E+03  0.10000000000E+01 0.  0.
<mgrwt>
<rscale>  0 0.12499811E+03</rscale>
<asrwt>0</asrwt>
<pdfrwt beam="1">  1        4 0.99107202E-03 0.12499811E+03</pdfrwt>
<pdfrwt beam="2">  1       -4 0.93285684E-01 0.12499811E+03</pdfrwt>
<totfact> 0.48071533E+03</totfact>
</mgrwt>
</event>
<event>
 5    1  0.3330238E-002  0.1249927E+03  0.7818608E-02  0.1235081E+00
          4   -1    0    0  501    0  0.00000000000E+00  0.00000000000E+00  0.34963703630E+02  0.34986761376E+02  0.12700000000E+01 0. -1.
         -4   -1    0    0    0  501 -0.00000000000E+00 -0.00000000000E+00 -0.11164637285E+03  0.11165359587E+03  0.12700000000E+01 0. -1.
         25    2    1    2    0    0  0.00000000000E+00  0.00000000000E+00 -0.76682669218E+02  0.14664035724E+03  0.12499265024E+03 0.  0.
    9000005    1    3    3    0    0 -0.45433511116E+02 -0.35544914505E+02 -0.66525929273E+02  0.88058753938E+02  0.10000000000E+01 0.  0.
    9000005    1    3    3    0    0  0.45433511116E+02  0.35544914505E+02 -0.10156739945E+02  0.58581603305E+02  0.10000000000E+01 0.  0.
<mgrwt>
<rscale>  0 0.12499265E+03</rscale>
<asrwt>0</asrwt>
<pdfrwt beam="1">  1        4 0.53813606E-02 0.12499265E+03</pdfrwt>
<pdfrwt beam="2">  1       -4 0.17178694E-01 0.12499265E+03</pdfrwt>
<totfact> 0.99994204E+03</totfact>
</mgrwt>
</event>
<event>
 5    1  0.3330238E-002  0.1249946E+03  0.7818608E-02  0.1235078E+00
         -4   -1    0    0    0  501 -0.00000000000E+00  0.00000000000E+00  0.71218530789E+02  0.71229853487E+02  0.12700000000E+01 0.  1.
          4   -1    0    0  501    0  0.00000000000E+00 -0.00000000000E+00 -0.54821004659E+02  0.54835713288E+02  0.12700000000E+01 0.  1.
         25    2    1    2    0    0  0.00000000000E+00  0.00000000000E+00  0.16397526131E+02  0.12606556678E+03  0.12499459294E+03 0.  0.
    9000005    1    3    3    0    0  0.55321923193E+02 -0.28976745237E+02  0.10395755934E+02  0.63318549350E+02  0.10000000000E+01 0.  0.
    9000005    1    3    3    0    0 -0.55321923193E+02  0.28976745237E+02  0.60017701968E+01  0.62747017426E+02  0.10000000000E+01 0.  0.
<mgrwt>
<rscale>  0 0.12499459E+03</rscale>
<asrwt>0</asrwt>
<pdfrwt beam="2">  1        4 0.84360032E-02 0.12499459E+03</pdfrwt>
<pdfrwt beam="1">  1       -4 0.10958699E-01 0.12499459E+03</pdfrwt>
<totfact> 0.10430793E+04</totfact>
</mgrwt>
</event>
<event>
 5    1  0.3330238E-002  0.1249996E+03  0.7818608E-02  0.1235070E+00
         -4   -1    0    0    0  501 -0.00000000000E+00  0.00000000000E+00  0.23868193296E+01  0.27036653846E+01  0.12700000000E+01 0.  1.
          4   -1    0    0  501    0  0.00000000000E+00 -0.00000000000E+00 -0.15344004204E+04  0.15344009460E+04  0.12700000000E+01 0.  1.
         25    2    1    2    0    0  0.00000000000E+00  0.00000000000E+00 -0.15320136011E+04  0.15371046114E+04  0.12499964965E+03 0.  0.
    9000005    1    3    3    0    0  0.33016826152E+02 -0.51975965494E+02 -0.89708031993E+03  0.89919169936E+03  0.10000000000E+01 0.  0.
    9000005    1    3    3    0    0 -0.33016826152E+02  0.51975965494E+02 -0.63493328119E+03  0.63791291205E+03  0.10000000000E+01 0.  0.
<mgrwt>
<rscale>  0 0.12499965E+03</rscale>
<asrwt>0</asrwt>
<pdfrwt beam="2">  1        4 0.23608528E+00 0.12499965E+03</pdfrwt>
<pdfrwt beam="1">  1       -4 0.39161740E-03 0.12499965E+03</pdfrwt>
<totfact> 0.17212675E+03</totfact>
</mgrwt>
</event>
<event>
 5    1  0.3330238E-002  0.1249972E+03  0.7818608E-02  0.1235074E+00
          4   -1    0    0  501    0  0.00000000000E+00  0.00000000000E+00  0.10524002422E+02  0.10600355040E+02  0.12700000000E+01 0.  1.
         -4   -1    0    0    0  501 -0.00000000000E+00 -0.00000000000E+00 -0.36973947006E+03  0.36974165118E+03  0.12700000000E+01 0.  1.
         25    2    1    2    0    0  0.00000000000E+00  0.00000000000E+00 -0.35921546764E+03  0.38034200622E+03  0.12499715800E+03 0.  0.
    9000005    1    3    3    0    0  0.61604568051E+02 -0.58364219583E+01 -0.15310111869E+03  0.16513672871E+03  0.10000000000E+01 0.  0.
    9000005    1    3    3    0    0 -0.61604568051E+02  0.58364219583E+01 -0.20611434895E+03  0.21520527751E+03  0.10000000000E+01 0.  0.
<mgrwt>
<rscale>  0 0.12499716E+03</rscale>
<asrwt>0</asrwt>
<pdfrwt beam="1">  1        4 0.16251186E-02 0.12499716E+03</pdfrwt>
<pdfrwt beam="2">  1       -4 0.56889027E-01 0.12499716E+03</pdfrwt>
<totfact> 0.66514853E+03</totfact>
</mgrwt>
</event>
<event>
 5    1  0.3330238E-002  0.1250003E+03  0.7818608E-02  0.1235069E+00
         -4   -1    0    0    0  501 -0.00000000000E+00  0.00000000000E+00  0.18132467585E+03  0.18132912335E+03  0.12700000000E+01 0.  1.
          4   -1    0    0  501    0  0.00000000000E+00 -0.00000000000E+00 -0.21519534798E+02  0.21556977476E+02  0.12700000000E+01 0.  1.
         25    2    1    2    0    0  0.00000000000E+00  0.00000000000E+00  0.15980514106E+03  0.20288610082E+03  0.12500034720E+03 0.  0.
    9000005    1    3    3    0    0  0.13341863940E+02  0.19244212208E+02 -0.14137295813E+02  0.27371667282E+02  0.10000000000E+01 0.  0.
    9000005    1    3    3    0    0 -0.13341863940E+02 -0.19244212208E+02  0.17394243687E+03  0.17551443354E+03  0.10000000000E+01 0.  0.
<mgrwt>
<rscale>  0 0.12500035E+03</rscale>
<asrwt>0</asrwt>
<pdfrwt beam="2">  1        4 0.33139200E-02 0.12500035E+03</pdfrwt>
<pdfrwt beam="1">  1       -4 0.27899326E-01 0.12500035E+03</pdfrwt>
<totfact> 0.89650318E+03</totfact>
</mgrwt>
</event>
<event>
 5    1  0.3330238E-002  0.1249968E+03  0.7818608E-02  0.1235074E+00
          4   -1    0    0  501    0  0.00000000000E+00  0.00000000000E+00  0.96054614978E+02  0.96063010356E+02  0.12700000000E+01 0.  1.
         -4   -1    0    0    0  501 -0.00000000000E+00 -0.00000000000E+00 -0.40644779799E+02  0.40664616375E+02  0.12700000000E+01 0.  1.
         25    2    1    2    0    0  0.00000000000E+00  0.00000000000E+00  0.55409835179E+02  0.13672762673E+03  0.12499677627E+03 0.  0.
    9000005    1    3    3    0    0  0.26367045066E+02 -0.56554427060E+02  0.31402101051E+02  0.69862123042E+02  0.10000000000E+01 0.  0.
    9000005    1    3    3    0    0 -0.26367045066E+02  0.56554427060E+02  0.24007734129E+02  0.66865503689E+02  0.10000000000E+01 0.  0.
<mgrwt>
<rscale>  0 0.12499678E+03</rscale>
<asrwt>0</asrwt>
<pdfrwt beam="1">  1        4 0.14779805E-01 0.12499678E+03</pdfrwt>
<pdfrwt beam="2">  1       -4 0.62552148E-02 0.12499678E+03</pdfrwt>
<totfact> 0.10202525E+04</totfact>
</mgrwt>
</event>
<event>
 5    1  0.3330238E-002  0.1250018E+03  0.7818608E-02  0.1235066E+00
          4   -1    0    0  501    0  0.00000000000E+00  0.00000000000E+00  0.29318768736E+03  0.29319043797E+03  0.12700000000E+01 0. -1.
         -4   -1    0    0    0  501 -0.00000000000E+00 -0.00000000000E+00 -0.13290685954E+02  0.13351225903E+02  0.12700000000E+01 0. -1.
         25    2    1    2    0    0  0.00000000000E+00  0.00000000000E+00  0.27989700140E+03  0.30654166387E+03  0.12500184117E+03 0.  0.
    9000005    1    3    3    0    0  0.59516289421E+02  0.10709952312E+02  0.17860414844E+03  0.18856652308E+03  0.10000000000E+01 0.  0.
    9000005    1    3    3    0    0 -0.59516289421E+02 -0.10709952312E+02  0.10129285296E+03  0.11797514080E+03  0.10000000000E+01 0.  0.
<mgrwt>
<rscale>  0 0.12500184E+03</rscale>
<asrwt>0</asrwt>
<pdfrwt beam="1">  1        4 0.45110666E-01 0.12500184E+03</pdfrwt>
<pdfrwt beam="2">  1       -4 0.20495894E-02 0.12500184E+03</pdfrwt>
<totfact> 0.74782467E+03</totfact>
</mgrwt>
</event>
<event>
 5    1  0.3330238E-002  0.1249978E+03  0.7818608E-02  0.1235073E+00
          4   -1    0    0  501    0  0.00000000000E+00  0.00000000000E+00  0.14899125686E+03  0.14899666950E+03  0.12700000000E+01 0. -1.
         -4   -1    0    0    0  501 -0.00000000000E+00 -0.00000000000E+00 -0.26195788164E+02  0.26226555579E+02  0.12700000000E+01 0. -1.
         25    2    1    2    0    0  0.00000000000E+00  0.00000000000E+00  0.12279546870E+03  0.17522322508E+03  0.12499780587E+03 0.  0.
    9000005    1    3    3    0    0 -0.48239465088E+02 -0.31045700332E+02  0.26655697608E+02  0.63264585007E+02  0.10000000000E+01 0.  0.
    9000005    1    3    3    0    0  0.48239465088E+02  0.31045700332E+02  0.96139771089E+02  0.11195864007E+03  0.10000000000E+01 0.  0.
<mgrwt>
<rscale>  0 0.12499781E+03</rscale>
<asrwt>0</asrwt>
<pdfrwt beam="1">  1        4 0.22924515E-01 0.12499781E+03</pdfrwt>
<pdfrwt beam="2">  1       -4 0.40329043E-02 0.12499781E+03</pdfrwt>
<totfact> 0.94488624E+03</totfact>
</mgrwt>
</event>
<event>
 5    1  0.3330238E-002  0.1249990E+03  0.7818608E-02  0.1235071E+00
         -4   -1    0    0    0  501 -0.00000000000E+00  0.00000000000E+00  0.90544040741E+01  0.91430374131E+01  0.12700000000E+01 0. -1.
          4   -1    0    0  501    0  0.00000000000E+00 -0.00000000000E+00 -0.42922214875E+03  0.42922402761E+03  0.12700000000E+01 0. -1.
         25    2    1    2    0    0  0.00000000000E+00  0.00000000000E+00 -0.42016774468E+03  0.43836706503E+03  0.12499900012E+03 0.  0.
    9000005    1    3    3    0    0  0.41511830883E+02 -0.94522004734E+01 -0.37051020765E+03  0.37294958127E+03  0.10000000000E+01 0.  0.
    9000005    1    3    3    0    0 -0.41511830883E+02  0.94522004734E+01 -0.49657537028E+02  0.65417483755E+02  0.10000000000E+01 0.  0.
<mgrwt>
<rscale>  0 0.12499900E+03</rscale>
<asrwt>0</asrwt>
<pdfrwt beam="2">  1        4 0.66041124E-01 0.12499900E+03</pdfrwt>
<pdfrwt beam="1">  1       -4 0.13999480E-02 0.12499900E+03</pdfrwt>
<totfact> 0.60986173E+03</totfact>
</mgrwt>
</event>
<event>
 5    1  0.3330238E-002  0.1250011E+03  0.7818608E-02  0.1235068E+00
         -4   -1    0    0    0  501 -0.00000000000E+00  0.00000000000E+00  0.16056980892E+03  0.16057483127E+03  0.12700000000E+01 0. -1.
          4   -1    0    0  501    0  0.00000000000E+00 -0.00000000000E+00 -0.24305867018E+02  0.24339023635E+02  0.12700000000E+01 0. -1.
         25    2    1    2    0    0  0.00000000000E+00  0.00000000000E+00  0.13626394190E+03  0.18491385490E+03  0.12500108748E+03 0.  0.
    9000005    1    3    3    0    0 -0.40036843753E+02 -0.47946952311E+02  0.65380765258E+02  0.90429550255E+02  0.10000000000E+01 0.  0.
    9000005    1    3    3    0    0  0.40036843753E+02  0.47946952311E+02  0.70883176646E+02  0.94484304649E+02  0.10000000000E+01 0.  0.
<mgrwt>
<rscale>  0 0.12500109E+03</rscale>
<asrwt>0</asrwt>
<pdfrwt beam="2">  1        4 0.37423010E-02 0.12500109E+03</pdfrwt>
<pdfrwt beam="1">  1       -4 0.24705984E-01 0.12500109E+03</pdfrwt>
<totfact> 0.92737636E+03</totfact>
</mgrwt>
</event>
<event>
 5    1  0.3330238E-002  0.1250001E+03  0.7818608E-02  0.1235069E+00
         -4   -1    0    0    0  501 -0.00000000000E+00  0.00000000000E+00  0.24135239470E+03  0.24135573606E+03  0.12700000000E+01 0. -1.
          4   -1    0    0  501    0  0.00000000000E+00 -0.00000000000E+00 -0.16156494388E+02  0.16206332432E+02  0.12700000000E+01 0. -1.
         25    2    1    2    0    0  0.00000000000E+00  0.00000000000E+00  0.22519590032E+03  0.25756206849E+03  0.12500010243E+03 0.  0.
    9000005    1    3    3    0    0 -0.23429320506E+02  0.57239923112E+02  0.13101773061E+03  0.14488611939E+03  0.10000000000E+01 0.  0.
    9000005    1    3    3    0    0  0.23429320506E+02 -0.57239923112E+02  0.94178169704E+02  0.11267594910E+03  0.10000000000E+01 0.  0.
<mgrwt>
<rscale>  0 0.12500010E+03</rscale>
<asrwt>0</asrwt>
<pdfrwt beam="2">  1        4 0.24897053E-02 0.12500010E+03</pdfrwt>
<pdfrwt beam="1">  1       -4 0.37135227E-01 0.12500010E+03</pdfrwt>
<totfact> 0.81249226E+03</totfact>
</mgrwt>
</event>
<event>
 5    1  0.3330238E-002  0.1250029E+03  0.7818608E-02  0.1235065E+00
         -4   -1    0    0    0  501 -0.00000000000E+00  0.00000000000E+00  0.14482866006E+03  0.14483422825E+03  0.12700000000E+01 0.  1.
          4   -1    0    0  501    0  0.00000000000E+00 -0.00000000000E+00 -0.26951716894E+02  0.26981622330E+02  0.12700000000E+01 0.  1.
         25    2    1    2    0    0  0.00000000000E+00  0.00000000000E+00  0.11787694316E+03  0.17181585058E+03  0.12500285110E+03 0.  0.
    9000005    1    3    3    0    0 -0.52605105813E+02 -0.18206574754E+02  0.19900582349E+02  0.59125372724E+02  0.10000000000E+01 0.  0.
    9000005    1    3    3    0    0  0.52605105813E+02  0.18206574754E+02  0.97976360812E+02  0.11269047786E+03  0.10000000000E+01 0.  0.
<mgrwt>
<rscale>  0 0.12500285E+03</rscale>
<asrwt>0</asrwt>
<pdfrwt beam="2">  1        4 0.41491468E-02 0.12500285E+03</pdfrwt>
<pdfrwt beam="1">  1       -4 0.22284061E-01 0.12500285E+03</pdfrwt>
<totfact> 0.95105181E+03</totfact>
</mgrwt>
</event>
<event>
 5    1  0.3330238E-002  0.1249978E+03  0.7818608E-02  0.1235073E+00
         -4   -1    0    0    0  501 -0.00000000000E+00  0.00000000000E+00  0.25915827800E+02  0.25946927189E+02  0.12700000000E+01 0.  1.
          4   -1    0    0  501    0  0.00000000000E+00 -0.00000000000E+00 -0.15059887789E+03  0.15060423275E+03  0.12700000000E+01 0.  1.
         25    2    1    2    0    0  0.00000000000E+00  0.00000000000E+00 -0.12468305009E+03  0.17655115994E+03  0.12499779636E+03 0.  0.
    9000005    1    3    3    0    0  0.17857852706E+01  0.60035337570E+02 -0.37972164559E+02  0.71065575826E+02  0.10000000000E+01 0.  0.
    9000005    1    3    3    0    0 -0.17857852706E+01 -0.60035337570E+02 -0.86710885534E+02  0.10548558412E+03  0.10000000000E+01 0.  0.
<mgrwt>
<rscale>  0 0.12499780E+03</rscale>
<asrwt>0</asrwt>
<pdfrwt beam="2">  1        4 0.23171862E-01 0.12499780E+03</pdfrwt>
<pdfrwt beam="1">  1       -4 0.39898547E-02 0.12499780E+03</pdfrwt>
<totfact> 0.94246174E+03</totfact>
</mgrwt>
</event>
<event>
 5    1  0.3330238E-002  0.1249888E+03  0.7818608E-02  0.1235087E+00
          4   -1    0    0  501    0  0.00000000000E+00  0.00000000000E+00  0.14184454246E+03  0.14185022779E+03  0.12700000000E+01 0.  1.
         -4   -1    0    0    0  501 -0.00000000000E+00 -0.00000000000E+00 -0.27513133579E+02  0.27542429438E+02  0.12700000000E+01 0.  1.
         25    2    1    2    0    0  0.00000000000E+00  0.00000000000E+00  0.11433140888E+03  0.16939265723E+03  0.12498880457E+03 0.  0.
    9000005    1    3    3    0    0  0.27515444507E+02  0.38006635452E+02  0.12383930234E+01  0.46948244292E+02  0.10000000000E+01 0.  0.
    9000005    1    3    3    0    0 -0.27515444507E+02 -0.38006635452E+02  0.11309301585E+03  0.12244441294E+03  0.10000000000E+01 0.  0.
<mgrwt>
<rscale>  0 0.12498880E+03</rscale>
<asrwt>0</asrwt>
<pdfrwt beam="1">  1        4 0.21824928E-01 0.12498880E+03</pdfrwt>
<pdfrwt beam="2">  1       -4 0.42354806E-02 0.12498880E+03</pdfrwt>
<totfact> 0.95585925E+03</totfact>
</mgrwt>
</event>
<event>
 5    1  0.3330238E-002  0.1249992E+03  0.7818608E-02  0.1235070E+00
         -4   -1    0    0    0  501 -0.00000000000E+00  0.00000000000E+00  0.11420486325E+03  0.11421192447E+03  0.12700000000E+01 0.  1.
          4   -1    0    0  501    0  0.00000000000E+00 -0.00000000000E+00 -0.34183553110E+02  0.34207136730E+02  0.12700000000E+01 0.  1.
         25    2    1    2    0    0  0.00000000000E+00  0.00000000000E+00  0.80021310141E+02  0.14841906120E+03  0.12499923060E+03 0.  0.
    9000005    1    3    3    0    0 -0.22348063406E+01  0.14643022984E+02 -0.32074792710E+02  0.35344091570E+02  0.10000000000E+01 0.  0.
    9000005    1    3    3    0    0  0.22348063406E+01 -0.14643022984E+02  0.11209610285E+03  0.11307496963E+03  0.10000000000E+01 0.  0.
<mgrwt>
<rscale>  0 0.12499923E+03</rscale>
<asrwt>0</asrwt>
<pdfrwt beam="2">  1        4 0.52613655E-02 0.12499923E+03</pdfrwt>
<pdfrwt beam="1">  1       -4 0.17572336E-01 0.12499923E+03</pdfrwt>
<totfact> 0.99621498E+03</totfact>
</mgrwt>
</event>
<event>
 5    1  0.3330238E-002  0.1250016E+03  0.7818608E-02  0.1235067E+00
          4   -1    0    0  501    0  0.00000000000E+00  0.00000000000E+00  0.16436134132E+02  0.16485126788E+02  0.12700000000E+01 0.  1.
         -4   -1    0    0    0  501 -0.00000000000E+00 -0.00000000000E+00 -0.23726392142E+03  0.23726732035E+03  0.12700000000E+01 0.  1.
         25    2    1    2    0    0  0.00000000000E+00  0.00000000000E+00 -0.22082778728E+03  0.25375244714E+03  0.12500157116E+03 0.  0.
    9000005    1    3    3    0    0 -0.57412698990E+02  0.24616589187E+02 -0.10680887942E+03  0.12373896392E+03  0.10000000000E+01 0.  0.
    9000005    1    3    3    0    0  0.57412698990E+02 -0.24616589187E+02 -0.11401890787E+03  0.13001348322E+03  0.10000000000E+01 0.  0.
<mgrwt>
<rscale>  0 0.12500157E+03</rscale>
<asrwt>0</asrwt>
<pdfrwt beam="1">  1        4 0.25326663E-02 0.12500157E+03</pdfrwt>
<pdfrwt beam="2">  1       -4 0.36506169E-01 0.12500157E+03</pdfrwt>
<totfact> 0.81788029E+03</totfact>
</mgrwt>
</event>
<event>
 5    1  0.3330238E-002  0.1249959E+03  0.7818608E-02  0.1235076E+00
          4   -1    0    0  501    0  0.00000000000E+00  0.00000000000E+00  0.10902533910E+02  0.10976253717E+02  0.12700000000E+01 0.  1.
         -4   -1    0    0    0  501 -0.00000000000E+00 -0.00000000000E+00 -0.35698277113E+03  0.35698503019E+03  0.12700000000E+01 0.  1.
         25    2    1    2    0    0  0.00000000000E+00  0.00000000000E+00 -0.34608023722E+03  0.36796128391E+03  0.12499590339E+03 0.  0.
    9000005    1    3    3    0    0 -0.27348772667E+02  0.31051911835E+02 -0.31089037472E+03  0.31363354682E+03  0.10000000000E+01 0.  0.
    9000005    1    3    3    0    0  0.27348772667E+02 -0.31051911835E+02 -0.35189862493E+02  0.54327737089E+02  0.10000000000E+01 0.  0.
<mgrwt>
<rscale>  0 0.12499590E+03</rscale>
<asrwt>0</asrwt>
<pdfrwt beam="1">  1        4 0.16831577E-02 0.12499590E+03</pdfrwt>
<pdfrwt beam="2">  1       -4 0.54926262E-01 0.12499590E+03</pdfrwt>
<totfact> 0.67798910E+03</totfact>
</mgrwt>
</event>
<event>
 5    1  0.3330238E-002  0.1250002E+03  0.7818608E-02  0.1235069E+00
          4   -1    0    0  501    0  0.00000000000E+00  0.00000000000E+00  0.58535418590E+02  0.58549194098E+02  0.12700000000E+01 0. -1.
         -4   -1    0    0    0  501 -0.00000000000E+00 -0.00000000000E+00 -0.66705603082E+02  0.66717691676E+02  0.12700000000E+01 0. -1.
         25    2    1    2    0    0  0.00000000000E+00  0.00000000000E+00 -0.81701844916E+01  0.12526688577E+03  0.12500016303E+03 0.  0.
    9000005    1    3    3    0    0  0.41722935733E+02 -0.46412695798E+02 -0.73041873890E+01  0.62843399421E+02  0.10000000000E+01 0.  0.
    9000005    1    3    3    0    0 -0.41722935733E+02  0.46412695798E+02 -0.86599710255E+00  0.62423486353E+02  0.10000000000E+01 0.  0.
<mgrwt>
<rscale>  0 0.12500016E+03</rscale>
<asrwt>0</asrwt>
<pdfrwt beam="1">  1        4 0.90074386E-02 0.12500016E+03</pdfrwt>
<pdfrwt beam="2">  1       -4 0.10264390E-01 0.12500016E+03</pdfrwt>
<totfact> 0.10447030E+04</totfact>
</mgrwt>
</event>
<event>
 5    1  0.3330238E-002  0.1249996E+03  0.7818608E-02  0.1235070E+00
          4   -1    0    0  501    0  0.00000000000E+00  0.00000000000E+00  0.29025395778E+02  0.29053166782E+02  0.12700000000E+01 0.  1.
         -4   -1    0    0    0  501 -0.00000000000E+00 -0.00000000000E+00 -0.13448454544E+03  0.13449054191E+03  0.12700000000E+01 0.  1.
         25    2    1    2    0    0  0.00000000000E+00  0.00000000000E+00 -0.10545914967E+03  0.16354370869E+03  0.12499964962E+03 0.  0.
    9000005    1    3    3    0    0 -0.21323738301E+02 -0.77172108471E+01 -0.12891766385E+03  0.13090080677E+03  0.10000000000E+01 0.  0.
    9000005    1    3    3    0    0  0.21323738301E+02  0.77172108471E+01  0.23458514186E+02  0.32642901927E+02  0.10000000000E+01 0.  0.
<mgrwt>
<rscale>  0 0.12499965E+03</rscale>
<asrwt>0</asrwt>
<pdfrwt beam="1">  1        4 0.44680431E-02 0.12499965E+03</pdfrwt>
<pdfrwt beam="2">  1       -4 0.20692527E-01 0.12499965E+03</pdfrwt>
<totfact> 0.96664665E+03</totfact>
</mgrwt>
</event>
<event>
 5    1  0.3330238E-002  0.1250013E+03  0.7818608E-02  0.1235067E+00
          4   -1    0    0  501    0  0.00000000000E+00  0.00000000000E+00  0.53134564190E+01  0.54631235678E+01  0.12700000000E+01 0.  1.
         -4   -1    0    0    0  501 -0.00000000000E+00 -0.00000000000E+00 -0.72481662359E+03  0.72481773621E+03  0.12700000000E+01 0.  1.
         25    2    1    2    0    0  0.00000000000E+00  0.00000000000E+00 -0.71950316717E+03  0.73028085978E+03  0.12500130638E+03 0.  0.
    9000005    1    3    3    0    0  0.79307361938E+01  0.61372659661E+02 -0.41062616113E+03  0.41526418595E+03  0.10000000000E+01 0.  0.
    9000005    1    3    3    0    0 -0.79307361938E+01 -0.61372659661E+02 -0.30887700604E+03  0.31501667383E+03  0.10000000000E+01 0.  0.
<mgrwt>
<rscale>  0 0.12500131E+03</rscale>
<asrwt>0</asrwt>
<pdfrwt beam="1">  1        4 0.82905385E-03 0.12500131E+03</pdfrwt>
<pdfrwt beam="2">  1       -4 0.11152177E+00 0.12500131E+03</pdfrwt>
<totfact> 0.41534363E+03</totfact>
</mgrwt>
</event>
<event>
 5    1  0.3330238E-002  0.1250014E+03  0.7818608E-02  0.1235067E+00
         -4   -1    0    0    0  501 -0.00000000000E+00  0.00000000000E+00  0.72677754499E+02  0.72688849894E+02  0.12700000000E+01 0. -1.
          4   -1    0    0  501    0  0.00000000000E+00 -0.00000000000E+00 -0.53726033486E+02  0.53741041803E+02  0.12700000000E+01 0. -1.
         25    2    1    2    0    0  0.00000000000E+00  0.00000000000E+00  0.18951721013E+02  0.12642989170E+03  0.12500139913E+03 0.  0.
    9000005    1    3    3    0    0 -0.43496147199E+02  0.13205440280E+02 -0.33898227689E+02  0.56713211111E+02  0.10000000000E+01 0.  0.
    9000005    1    3    3    0    0  0.43496147199E+02 -0.13205440280E+02  0.52849948702E+02  0.69716680586E+02  0.10000000000E+01 0.  0.
<mgrwt>
<rscale>  0 0.12500140E+03</rscale>
<asrwt>0</asrwt>
<pdfrwt beam="2">  1        4 0.82675516E-02 0.12500140E+03</pdfrwt>
<pdfrwt beam="1">  1       -4 0.11183201E-01 0.12500140E+03</pdfrwt>
<totfact> 0.10421228E+04</totfact>
</mgrwt>
</event>
<event>
 5    1  0.3330238E-002  0.1249993E+03  0.7818608E-02  0.1235070E+00
          4   -1    0    0  501    0  0.00000000000E+00  0.00000000000E+00  0.30779001840E+02  0.30805192002E+02  0.12700000000E+01 0.  1.
         -4   -1    0    0    0  501 -0.00000000000E+00 -0.00000000000E+00 -0.12682796934E+03  0.12683432779E+03  0.12700000000E+01 0.  1.
         25    2    1    2    0    0  0.00000000000E+00  0.00000000000E+00 -0.96048967497E+02  0.15763951979E+03  0.12499925617E+03 0.  0.
    9000005    1    3    3    0    0  0.10125327600E+02 -0.11206823078E+02 -0.12449776203E+03  0.12541454419E+03  0.10000000000E+01 0.  0.
    9000005    1    3    3    0    0 -0.10125327600E+02  0.11206823078E+02  0.28448794534E+02  0.32224975608E+02  0.10000000000E+01 0.  0.
<mgrwt>
<rscale>  0 0.12499926E+03</rscale>
<asrwt>0</asrwt>
<pdfrwt beam="1">  1        4 0.47377348E-02 0.12499926E+03</pdfrwt>
<pdfrwt beam="2">  1       -4 0.19514499E-01 0.12499926E+03</pdfrwt>
<totfact> 0.97801442E+03</totfact>
</mgrwt>
</event>
<event>
 5    1  0.3330238E-002  0.1250032E+03  0.7818608E-02  0.1235064E+00
          4   -1    0    0  501    0  0.00000000000E+00  0.00000000000E+00  0.27393034934E+02  0.27422459096E+02  0.12700000000E+01 0. -1.
         -4   -1    0    0    0  501 -0.00000000000E+00 -0.00000000000E+00 -0.14249868022E+03  0.14250433946E+03  0.12700000000E+01 0. -1.
         25    2    1    2    0    0  0.00000000000E+00  0.00000000000E+00 -0.11510564528E+03  0.16992679855E+03  0.12500322912E+03 0.  0.
    9000005    1    3    3    0    0  0.36091255647E+02 -0.24222119871E+01 -0.12682791572E+03  0.13188921886E+03  0.10000000000E+01 0.  0.
    9000005    1    3    3    0    0 -0.36091255647E+02  0.24222119871E+01  0.11722270433E+02  0.38037579697E+02  0.10000000000E+01 0.  0.
<mgrwt>
<rscale>  0 0.12500323E+03</rscale>
<asrwt>0</asrwt>
<pdfrwt beam="1">  1        4 0.42170119E-02 0.12500323E+03</pdfrwt>
<pdfrwt beam="2">  1       -4 0.21925572E-01 0.12500323E+03</pdfrwt>
<totfact> 0.95455364E+03</totfact>
</mgrwt>
</event>
<event>
 5    1  0.3330238E-002  0.1250022E+03  0.7818608E-02  0.1235066E+00
         -4   -1    0    0    0  501 -0.00000000000E+00  0.00000000000E+00  0.48697293093E+01  0.50326100133E+01  0.12700000000E+01 0.  1.
          4   -1    0    0  501    0  0.00000000000E+00 -0.00000000000E+00 -0.78881884524E+03  0.78881986760E+03  0.12700000000E+01 0.  1.
         25    2    1    2    0    0  0.00000000000E+00  0.00000000000E+00 -0.78394911594E+03  0.79385247761E+03  0.12500215930E+03 0.  0.
    9000005    1    3    3    0    0  0.22580772150E+02  0.25298543003E+02 -0.58609008763E+02  0.67719446669E+02  0.10000000000E+01 0.  0.
    9000005    1    3    3    0    0 -0.22580772150E+02 -0.25298543003E+02 -0.72534010717E+03  0.72613303094E+03  0.10000000000E+01 0.  0.
<mgrwt>
<rscale>  0 0.12500216E+03</rscale>
<asrwt>0</asrwt>
<pdfrwt beam="2">  1        4 0.12136925E+00 0.12500216E+03</pdfrwt>
<pdfrwt beam="1">  1       -4 0.76179768E-03 0.12500216E+03</pdfrwt>
<totfact> 0.38538855E+03</totfact>
</mgrwt>
</event>
<event>
 5    1  0.3330238E-002  0.1250014E+03  0.7818608E-02  0.1235067E+00
         -4   -1    0    0    0  501 -0.00000000000E+00  0.00000000000E+00  0.39339285205E+02  0.39359779730E+02  0.12700000000E+01 0. -1.
          4   -1    0    0  501    0  0.00000000000E+00 -0.00000000000E+00 -0.99248247411E+02  0.99256372663E+02  0.12700000000E+01 0. -1.
         25    2    1    2    0    0  0.00000000000E+00  0.00000000000E+00 -0.59908962207E+02  0.13861615239E+03  0.12500141580E+03 0.  0.
    9000005    1    3    3    0    0 -0.26728338459E+02  0.24139570459E+02  0.26678659699E+02  0.44831616322E+02  0.10000000000E+01 0.  0.
    9000005    1    3    3    0    0  0.26728338459E+02 -0.24139570459E+02 -0.86587621906E+02  0.93784536071E+02  0.10000000000E+01 0.  0.
<mgrwt>
<rscale>  0 0.12500142E+03</rscale>
<asrwt>0</asrwt>
<pdfrwt beam="2">  1        4 0.15271163E-01 0.12500142E+03</pdfrwt>
<pdfrwt beam="1">  1       -4 0.60543993E-02 0.12500142E+03</pdfrwt>
<totfact> 0.10162023E+04</totfact>
</mgrwt>
</event>
<event>
 5    1  0.3330238E-002  0.1249976E+03  0.7818608E-02  0.1235073E+00
         -4   -1    0    0    0  501 -0.00000000000E+00  0.00000000000E+00  0.17007299228E+03  0.17007773400E+03  0.12700000000E+01 0.  1.
          4   -1    0    0  501    0  0.00000000000E+00 -0.00000000000E+00 -0.22944566581E+02  0.22979687457E+02  0.12700000000E+01 0.  1.
         25    2    1    2    0    0  0.00000000000E+00  0.00000000000E+00  0.14712842570E+03  0.19305742146E+03  0.12499757730E+03 0.  0.
    9000005    1    3    3    0    0 -0.26320454303E+02 -0.29914929548E+02 -0.78701562338E+00  0.39865884139E+02  0.10000000000E+01 0.  0.
    9000005    1    3    3    0    0  0.26320454303E+02  0.29914929548E+02  0.14791544132E+03  0.15319153732E+03  0.10000000000E+01 0.  0.
<mgrwt>
<rscale>  0 0.12499758E+03</rscale>
<asrwt>0</asrwt>
<pdfrwt beam="2">  1        4 0.35329998E-02 0.12499758E+03</pdfrwt>
<pdfrwt beam="1">  1       -4 0.26168141E-01 0.12499758E+03</pdfrwt>
<totfact> 0.91322993E+03</totfact>
</mgrwt>
</event>
<event>
 5    1  0.3330238E-002  0.1250324E+03  0.7818608E-02  0.1235019E+00
          4   -1    0    0  501    0  0.00000000000E+00  0.00000000000E+00  0.39160697868E+03  0.39160903801E+03  0.12700000000E+01 0. -1.
         -4   -1    0    0    0  501 -0.00000000000E+00 -0.00000000000E+00 -0.99375937783E+01  0.10018416547E+02  0.12700000000E+01 0. -1.
         25    2    1    2    0    0  0.00000000000E+00  0.00000000000E+00  0.38166938490E+03  0.40162745456E+03  0.12503236734E+03 0.  0.
    9000005    1    3    3    0    0 -0.29551450310E+01 -0.59367771690E+02  0.25295611581E+03  0.25984815128E+03  0.10000000000E+01 0.  0.
    9000005    1    3    3    0    0  0.29551450310E+01  0.59367771690E+02  0.12871326909E+03  0.14177930328E+03  0.10000000000E+01 0.  0.
<mgrwt>
<rscale>  0 0.12503237E+03</rscale>
<asrwt>0</asrwt>
<pdfrwt beam="1">  1        4 0.60253614E-01 0.12503237E+03</pdfrwt>
<pdfrwt beam="2">  1       -4 0.15352358E-02 0.12503237E+03</pdfrwt>
<totfact> 0.64348814E+03</totfact>
</mgrwt>
</event>
<event>
 5    1  0.3330238E-002  0.1250004E+03  0.7818608E-02  0.1235069E+00
          4   -1    0    0  501    0  0.00000000000E+00  0.00000000000E+00  0.20121796109E+04  0.20121800116E+04  0.12700000000E+01 0.  1.
         -4   -1    0    0    0  501 -0.00000000000E+00 -0.00000000000E+00 -0.17331628483E+01  0.21486631794E+01  0.12700000000E+01 0.  1.
         25    2    1    2    0    0  0.00000000000E+00  0.00000000000E+00  0.20104464480E+04  0.20143286748E+04  0.12500035958E+03 0.  0.
    9000005    1    3    3    0    0  0.54833723962E+02  0.87126177740E+00  0.14880630569E+04  0.14890735905E+04  0.10000000000E+01 0.  0.
    9000005    1    3    3    0    0 -0.54833723962E+02 -0.87126177740E+00  0.52238339106E+03  0.52525508435E+03  0.10000000000E+01 0.  0.
<mgrwt>
<rscale>  0 0.12500036E+03</rscale>
<asrwt>0</asrwt>
<pdfrwt beam="1">  1        4 0.30959713E+00 0.12500036E+03</pdfrwt>
<pdfrwt beam="2">  1       -4 0.29863376E-03 0.12500036E+03</pdfrwt>
<totfact> 0.96753253E+02</totfact>
</mgrwt>
</event>
<event>
 5    1  0.3330238E-002  0.1250003E+03  0.7818608E-02  0.1235069E+00
          4   -1    0    0  501    0  0.00000000000E+00  0.00000000000E+00  0.46701370641E+02  0.46718635679E+02  0.12700000000E+01 0. -1.
         -4   -1    0    0    0  501 -0.00000000000E+00 -0.00000000000E+00 -0.83606025631E+02  0.83615670910E+02  0.12700000000E+01 0. -1.
         25    2    1    2    0    0  0.00000000000E+00  0.00000000000E+00 -0.36904654990E+02  0.13033430659E+03  0.12500031166E+03 0.  0.
    9000005    1    3    3    0    0 -0.27666415096E+02  0.41335417724E+02 -0.57898164998E+02  0.76336392323E+02  0.10000000000E+01 0.  0.
    9000005    1    3    3    0    0  0.27666415096E+02 -0.41335417724E+02  0.20993510009E+02  0.53997914267E+02  0.10000000000E+01 0.  0.
<mgrwt>
<rscale>  0 0.12500031E+03</rscale>
<asrwt>0</asrwt>
<pdfrwt beam="1">  1        4 0.71868963E-02 0.12500031E+03</pdfrwt>
<pdfrwt beam="2">  1       -4 0.12864536E-01 0.12500031E+03</pdfrwt>
<totfact> 0.10337288E+04</totfact>
</mgrwt>
</event>
<event>
 5    1  0.3330238E-002  0.1250001E+03  0.7818608E-02  0.1235069E+00
          4   -1    0    0  501    0  0.00000000000E+00  0.00000000000E+00  0.83793716473E+02  0.83803340150E+02  0.12700000000E+01 0.  1.
         -4   -1    0    0    0  501 -0.00000000000E+00 -0.00000000000E+00 -0.46596541823E+02  0.46613845688E+02  0.12700000000E+01 0.  1.
         25    2    1    2    0    0  0.00000000000E+00  0.00000000000E+00  0.37197174650E+02  0.13041718584E+03  0.12500005024E+03 0.  0.
    9000005    1    3    3    0    0  0.38052145410E+02 -0.43703628308E+02 -0.58092624702E+01  0.58247063687E+02  0.10000000000E+01 0.  0.
    9000005    1    3    3    0    0 -0.38052145410E+02  0.43703628308E+02  0.43006437120E+02  0.72170122152E+02  0.10000000000E+01 0.  0.
<mgrwt>
<rscale>  0 0.12500005E+03</rscale>
<asrwt>0</asrwt>
<pdfrwt beam="1">  1        4 0.12893412E-01 0.12500005E+03</pdfrwt>
<pdfrwt beam="2">  1       -4 0.71707701E-02 0.12500005E+03</pdfrwt>
<totfact> 0.10335579E+04</totfact>
</mgrwt>
</event>
<event>
 4    1  0.3330238E-002  0.1248016E+03  0.7818608E-02  0.1235380E+00
          4   -1    0    0  501    0  0.00000000000E+00  0.00000000000E+00  0.10016245038E+03  0.10017050147E+03  0.12700000000E+01 0.  1.
         -4   -1    0    0    0  501 -0.00000000000E+00 -0.00000000000E+00 -0.38855448298E+02  0.38876197890E+02  0.12700000000E+01 0.  1.
    9000005    1    1    2    0    0 -0.31341366875E+02 -0.26017591071E+01  0.90691273402E+02  0.95994570156E+02  0.10000000000E+01 0.  0.
    9000005    1    1    2    0    0  0.31341366875E+02  0.26017591071E+01 -0.29384271324E+02  0.43052129207E+02  0.10000000000E+01 0.  0.
<mgrwt>
<rscale>  0 0.12480159E+03</rscale>
<asrwt>0</asrwt>
<pdfrwt beam="1">  1        4 0.15411823E-01 0.12480159E+03</pdfrwt>
<pdfrwt beam="2">  1       -4 0.59799767E-02 0.12480159E+03</pdfrwt>
<totfact> 0.10198907E+04</totfact>
</mgrwt>
</event>
<event>
 5    1  0.3330238E-002  0.1249992E+03  0.7818608E-02  0.1235070E+00
         -4   -1    0    0    0  501 -0.00000000000E+00  0.00000000000E+00  0.20128902412E+02  0.20168926900E+02  0.12700000000E+01 0. -1.
          4   -1    0    0  501    0  0.00000000000E+00 -0.00000000000E+00 -0.19382451462E+03  0.19382867530E+03  0.12700000000E+01 0. -1.
         25    2    1    2    0    0  0.00000000000E+00  0.00000000000E+00 -0.17369561221E+03  0.21399760220E+03  0.12499923218E+03 0.  0.
    9000005    1    3    3    0    0 -0.51223411771E+02 -0.35272246345E+02 -0.97294143217E+02  0.11547778825E+03  0.10000000000E+01 0.  0.
    9000005    1    3    3    0    0  0.51223411771E+02  0.35272246345E+02 -0.76401468996E+02  0.98519813949E+02  0.10000000000E+01 0.  0.
<mgrwt>
<rscale>  0 0.12499923E+03</rscale>
<asrwt>0</asrwt>
<pdfrwt beam="2">  1        4 0.29822554E-01 0.12499923E+03</pdfrwt>
<pdfrwt beam="1">  1       -4 0.31001532E-02 0.12499923E+03</pdfrwt>
<totfact> 0.87828661E+03</totfact>
</mgrwt>
</event>
<event>
 5    1  0.3330238E-002  0.1250003E+03  0.7818608E-02  0.1235069E+00
          4   -1    0    0  501    0  0.00000000000E+00  0.00000000000E+00  0.37131804953E+03  0.37132022138E+03  0.12700000000E+01 0.  1.
         -4   -1    0    0    0  501 -0.00000000000E+00 -0.00000000000E+00 -0.10479469964E+02  0.10556144690E+02  0.12700000000E+01 0.  1.
         25    2    1    2    0    0  0.00000000000E+00  0.00000000000E+00  0.36083857956E+03  0.38187636607E+03  0.12500031384E+03 0.  0.
    9000005    1    3    3    0    0 -0.41661460267E+02  0.32660161486E+02  0.78962535199E+02  0.95070738847E+02  0.10000000000E+01 0.  0.
    9000005    1    3    3    0    0  0.41661460267E+02 -0.32660161486E+02  0.28187604436E+03  0.28680562722E+03  0.10000000000E+01 0.  0.
<mgrwt>
<rscale>  0 0.12500031E+03</rscale>
<asrwt>0</asrwt>
<pdfrwt beam="1">  1        4 0.57131920E-01 0.12500031E+03</pdfrwt>
<pdfrwt beam="2">  1       -4 0.16182912E-02 0.12500031E+03</pdfrwt>
<totfact> 0.66354018E+03</totfact>
</mgrwt>
</event>
<event>
 5    1  0.3330238E-002  0.1250034E+03  0.7818608E-02  0.1235064E+00
         -4   -1    0    0    0  501 -0.00000000000E+00  0.00000000000E+00  0.52900670341E+02  0.52915912753E+02  0.12700000000E+01 0. -1.
          4   -1    0    0  501    0  0.00000000000E+00 -0.00000000000E+00 -0.73813929737E+02  0.73824854374E+02  0.12700000000E+01 0. -1.
         25    2    1    2    0    0  0.00000000000E+00  0.00000000000E+00 -0.20913259397E+02  0.12674076713E+03  0.12500343049E+03 0.  0.
    9000005    1    3    3    0    0  0.41273360803E+01 -0.60404174398E+02  0.52429307367E+01  0.60779828155E+02  0.10000000000E+01 0.  0.
    9000005    1    3    3    0    0 -0.41273360803E+01  0.60404174398E+02 -0.26156190133E+02  0.65960938972E+02  0.10000000000E+01 0.  0.
<mgrwt>
<rscale>  0 0.12500343E+03</rscale>
<asrwt>0</asrwt>
<pdfrwt beam="2">  1        4 0.11358002E-01 0.12500343E+03</pdfrwt>
<pdfrwt beam="1">  1       -4 0.81405775E-02 0.12500343E+03</pdfrwt>
<totfact> 0.10413976E+04</totfact>
</mgrwt>
</event>
<event>
 5    1  0.3330238E-002  0.1249995E+03  0.7818608E-02  0.1235070E+00
          4   -1    0    0  501    0  0.00000000000E+00  0.00000000000E+00  0.12957805269E+03  0.12958427620E+03  0.12700000000E+01 0.  1.
         -4   -1    0    0    0  501 -0.00000000000E+00 -0.00000000000E+00 -0.30125370124E+02  0.30152128036E+02  0.12700000000E+01 0.  1.
         25    2    1    2    0    0  0.00000000000E+00  0.00000000000E+00  0.99452682568E+02  0.15973640424E+03  0.12499953108E+03 0.  0.
    9000005    1    3    3    0    0  0.17817971322E+02  0.41039934450E+02  0.10547929700E+03  0.11458027062E+03  0.10000000000E+01 0.  0.
    9000005    1    3    3    0    0 -0.17817971322E+02 -0.41039934450E+02 -0.60266144274E+01  0.45156133616E+02  0.10000000000E+01 0.  0.
<mgrwt>
<rscale>  0 0.12499953E+03</rscale>
<asrwt>0</asrwt>
<pdfrwt beam="1">  1        4 0.19937622E-01 0.12499953E+03</pdfrwt>
<pdfrwt beam="2">  1       -4 0.46372093E-02 0.12499953E+03</pdfrwt>
<totfact> 0.97394654E+03</totfact>
</mgrwt>
</event>
<event>
 5    1  0.3330238E-002  0.1249910E+03  0.7818608E-02  0.1235083E+00
         -4   -1    0    0    0  501 -0.00000000000E+00  0.00000000000E+00  0.55786744251E+02  0.55801198322E+02  0.12700000000E+01 0. -1.
          4   -1    0    0  501    0  0.00000000000E+00 -0.00000000000E+00 -0.69981760008E+02  0.69993282777E+02  0.12700000000E+01 0. -1.
         25    2    1    2    0    0  0.00000000000E+00  0.00000000000E+00 -0.14195015757E+02  0.12579448110E+03  0.12499101169E+03 0.  0.
    9000005    1    3    3    0    0 -0.31904815743E+02 -0.51412928210E+02  0.86067006330E+01  0.61125131906E+02  0.10000000000E+01 0.  0.
    9000005    1    3    3    0    0  0.31904815743E+02  0.51412928210E+02 -0.22801716390E+02  0.64669349193E+02  0.10000000000E+01 0.  0.
<mgrwt>
<rscale>  0 0.12499101E+03</rscale>
<asrwt>0</asrwt>
<pdfrwt beam="2">  1        4 0.10768423E-01 0.12499101E+03</pdfrwt>
<pdfrwt beam="1">  1       -4 0.85845742E-02 0.12499101E+03</pdfrwt>
<totfact> 0.10437583E+04</totfact>
</mgrwt>
</event>
<event>
 5    1  0.3330238E-002  0.1250019E+03  0.7818608E-02  0.1235066E+00
         -4   -1    0    0    0  501 -0.00000000000E+00  0.00000000000E+00  0.62856044216E+02  0.62868873017E+02  0.12700000000E+01 0.  1.
          4   -1    0    0  501    0  0.00000000000E+00 -0.00000000000E+00 -0.62122213323E+02  0.62135193636E+02  0.12700000000E+01 0.  1.
         25    2    1    2    0    0  0.00000000000E+00  0.00000000000E+00  0.73383089252E+00  0.12500406665E+03  0.12500191267E+03 0.  0.
    9000005    1    3    3    0    0  0.37924834687E+02 -0.41164506450E+02  0.28162355554E+02  0.62665205239E+02  0.10000000000E+01 0.  0.
    9000005    1    3    3    0    0 -0.37924834687E+02  0.41164506450E+02 -0.27428524661E+02  0.62338861414E+02  0.10000000000E+01 0.  0.
<mgrwt>
<rscale>  0 0.12500191E+03</rscale>
<asrwt>0</asrwt>
<pdfrwt beam="2">  1        4 0.95592489E-02 0.12500191E+03</pdfrwt>
<pdfrwt beam="1">  1       -4 0.96721459E-02 0.12500191E+03</pdfrwt>
<totfact> 0.10452322E+04</totfact>
</mgrwt>
</event>
<event>
 5    1  0.3330238E-002  0.1249953E+03  0.7818608E-02  0.1235077E+00
         -4   -1    0    0    0  501 -0.00000000000E+00  0.00000000000E+00  0.14452831923E+03  0.14453389899E+03  0.12700000000E+01 0.  1.
          4   -1    0    0  501    0  0.00000000000E+00 -0.00000000000E+00 -0.27004518598E+02  0.27034365624E+02  0.12700000000E+01 0.  1.
         25    2    1    2    0    0  0.00000000000E+00  0.00000000000E+00  0.11752380063E+03  0.17156826462E+03  0.12499530275E+03 0.  0.
    9000005    1    3    3    0    0 -0.41567217128E+02  0.19947935646E+02  0.86491023579E+00  0.46124849550E+02  0.10000000000E+01 0.  0.
    9000005    1    3    3    0    0  0.41567217128E+02 -0.19947935646E+02  0.11665889039E+03  0.12544341507E+03  0.10000000000E+01 0.  0.
<mgrwt>
<rscale>  0 0.12499530E+03</rscale>
<asrwt>0</asrwt>
<pdfrwt beam="2">  1        4 0.41572665E-02 0.12499530E+03</pdfrwt>
<pdfrwt beam="1">  1       -4 0.22237851E-01 0.12499530E+03</pdfrwt>
<totfact> 0.95167170E+03</totfact>
</mgrwt>
</event>
<event>
 5    1  0.3330238E-002  0.1250006E+03  0.7818608E-02  0.1235068E+00
          4   -1    0    0  501    0  0.00000000000E+00  0.00000000000E+00  0.41996900007E+03  0.41997092032E+03  0.12700000000E+01 0. -1.
         -4   -1    0    0    0  501 -0.00000000000E+00 -0.00000000000E+00 -0.92560760453E+01  0.93427963564E+01  0.12700000000E+01 0. -1.
         25    2    1    2    0    0  0.00000000000E+00  0.00000000000E+00  0.41071292402E+03  0.42931371668E+03  0.12500064548E+03 0.  0.
    9000005    1    3    3    0    0  0.41497725121E+02  0.40640793624E+02  0.12617260877E+03  0.13890378865E+03  0.10000000000E+01 0.  0.
    9000005    1    3    3    0    0 -0.41497725121E+02 -0.40640793624E+02  0.28454031525E+03  0.29040992803E+03  0.10000000000E+01 0.  0.
<mgrwt>
<rscale>  0 0.12500065E+03</rscale>
<asrwt>0</asrwt>
<pdfrwt beam="1">  1        4 0.64617445E-01 0.12500065E+03</pdfrwt>
<pdfrwt beam="2">  1       -4 0.14308299E-02 0.12500065E+03</pdfrwt>
<totfact> 0.61797360E+03</totfact>
</mgrwt>
</event>
<event>
 5    1  0.3330238E-002  0.1249954E+03  0.7818608E-02  0.1235076E+00
         -4   -1    0    0    0  501 -0.00000000000E+00  0.00000000000E+00  0.18128799122E+03  0.18129243961E+03  0.12700000000E+01 0.  1.
          4   -1    0    0  501    0  0.00000000000E+00 -0.00000000000E+00 -0.21522185504E+02  0.21559623579E+02  0.12700000000E+01 0.  1.
         25    2    1    2    0    0  0.00000000000E+00  0.00000000000E+00  0.15976580572E+03  0.20285206319E+03  0.12499538738E+03 0.  0.
    9000005    1    3    3    0    0  0.16864999218E+02 -0.94758425234E+01 -0.16548487777E+02  0.25476896158E+02  0.10000000000E+01 0.  0.
    9000005    1    3    3    0    0 -0.16864999218E+02  0.94758425234E+01  0.17631429349E+03  0.17737516703E+03  0.10000000000E+01 0.  0.
<mgrwt>
<rscale>  0 0.12499539E+03</rscale>
<asrwt>0</asrwt>
<pdfrwt beam="2">  1        4 0.33143275E-02 0.12499539E+03</pdfrwt>
<pdfrwt beam="1">  1       -4 0.27893682E-01 0.12499539E+03</pdfrwt>
<totfact> 0.89665954E+03</totfact>
</mgrwt>
</event>
<event>
 5    1  0.3330238E-002  0.1250027E+03  0.7818608E-02  0.1235065E+00
         -4   -1    0    0    0  501 -0.00000000000E+00  0.00000000000E+00  0.32169851672E+02  0.32194910414E+02  0.12700000000E+01 0.  1.
          4   -1    0    0  501    0  0.00000000000E+00 -0.00000000000E+00 -0.12135534058E+03  0.12136198575E+03  0.12700000000E+01 0.  1.
         25    2    1    2    0    0  0.00000000000E+00  0.00000000000E+00 -0.89185488904E+02  0.15355689617E+03  0.12500267569E+03 0.  0.
    9000005    1    3    3    0    0  0.25326006532E+02 -0.55840085786E+02 -0.59430591248E+02  0.85396235067E+02  0.10000000000E+01 0.  0.
    9000005    1    3    3    0    0 -0.25326006532E+02  0.55840085786E+02 -0.29754897656E+02  0.68160661103E+02  0.10000000000E+01 0.  0.
<mgrwt>
<rscale>  0 0.12500268E+03</rscale>
<asrwt>0</asrwt>
<pdfrwt beam="2">  1        4 0.18672491E-01 0.12500268E+03</pdfrwt>
<pdfrwt beam="1">  1       -4 0.49516468E-02 0.12500268E+03</pdfrwt>
<totfact> 0.98593416E+03</totfact>
</mgrwt>
</event>
<event>
 5    1  0.3330238E-002  0.1249991E+03  0.7818608E-02  0.1235071E+00
          4   -1    0    0  501    0  0.00000000000E+00  0.00000000000E+00  0.22531796883E+02  0.22567560142E+02  0.12700000000E+01 0.  1.
         -4   -1    0    0    0  501 -0.00000000000E+00 -0.00000000000E+00 -0.17318817488E+03  0.17319283132E+03  0.12700000000E+01 0.  1.
         25    2    1    2    0    0  0.00000000000E+00  0.00000000000E+00 -0.15065637800E+03  0.19576039146E+03  0.12499914652E+03 0.  0.
    9000005    1    3    3    0    0  0.40233107401E+01 -0.37242349948E+02  0.30080839611E+01  0.37592927899E+02  0.10000000000E+01 0.  0.
    9000005    1    3    3    0    0 -0.40233107401E+01  0.37242349948E+02 -0.15366446196E+03  0.15816746356E+03  0.10000000000E+01 0.  0.
<mgrwt>
<rscale>  0 0.12499915E+03</rscale>
<asrwt>0</asrwt>
<pdfrwt beam="1">  1        4 0.34695396E-02 0.12499915E+03</pdfrwt>
<pdfrwt beam="2">  1       -4 0.26647443E-01 0.12499915E+03</pdfrwt>
<totfact> 0.90856310E+03</totfact>
</mgrwt>
</event>
<event>
 5    1  0.3330238E-002  0.1249879E+03  0.7818608E-02  0.1235088E+00
         -4   -1    0    0    0  501 -0.00000000000E+00  0.00000000000E+00  0.13953409987E+02  0.14011086691E+02  0.12700000000E+01 0.  1.
          4   -1    0    0  501    0  0.00000000000E+00 -0.00000000000E+00 -0.27925873308E+03  0.27926162088E+03  0.12700000000E+01 0.  1.
         25    2    1    2    0    0  0.00000000000E+00  0.00000000000E+00 -0.26530532309E+03  0.29327270758E+03  0.12498786561E+03 0.  0.
    9000005    1    3    3    0    0  0.53849798686E+02 -0.25612352487E+02 -0.88837071801E+02  0.10699915301E+03  0.10000000000E+01 0.  0.
    9000005    1    3    3    0    0 -0.53849798686E+02  0.25612352487E+02 -0.17646825129E+03  0.18627355457E+03  0.10000000000E+01 0.  0.
<mgrwt>
<rscale>  0 0.12498787E+03</rscale>
<asrwt>0</asrwt>
<pdfrwt beam="2">  1        4 0.42967537E-01 0.12498787E+03</pdfrwt>
<pdfrwt beam="1">  1       -4 0.21513375E-02 0.12498787E+03</pdfrwt>
<totfact> 0.76471129E+03</totfact>
</mgrwt>
</event>
<event>
 5    1  0.3330238E-002  0.1249687E+03  0.7818608E-02  0.1235118E+00
         -4   -1    0    0    0  501 -0.00000000000E+00  0.00000000000E+00  0.39668926248E+01  0.41652295371E+01  0.12700000000E+01 0.  1.
          4   -1    0    0  501    0  0.00000000000E+00 -0.00000000000E+00 -0.96001584761E+03  0.96001668765E+03  0.12700000000E+01 0.  1.
         25    2    1    2    0    0  0.00000000000E+00  0.00000000000E+00 -0.95604895499E+03  0.96418191719E+03  0.12496865646E+03 0.  0.
    9000005    1    3    3    0    0 -0.59614309918E+02  0.93585498595E+01 -0.35317743479E+03  0.35829701206E+03  0.10000000000E+01 0.  0.
    9000005    1    3    3    0    0  0.59614309918E+02 -0.93585498595E+01 -0.60287152019E+03  0.60588490513E+03  0.10000000000E+01 0.  0.
<mgrwt>
<rscale>  0 0.12496866E+03</rscale>
<asrwt>0</asrwt>
<pdfrwt beam="2">  1        4 0.14770989E+00 0.12496866E+03</pdfrwt>
<pdfrwt beam="1">  1       -4 0.62561324E-03 0.12496866E+03</pdfrwt>
<totfact> 0.31839555E+03</totfact>
</mgrwt>
</event>
<event>
 5    1  0.3330238E-002  0.1249783E+03  0.7818608E-02  0.1235103E+00
          4   -1    0    0  501    0  0.00000000000E+00  0.00000000000E+00  0.15134233917E+04  0.15134239246E+04  0.12700000000E+01 0. -1.
         -4   -1    0    0    0  501 -0.00000000000E+00 -0.00000000000E+00 -0.24233299432E+01  0.27359510255E+01  0.12700000000E+01 0. -1.
         25    2    1    2    0    0  0.00000000000E+00  0.00000000000E+00  0.15110000618E+04  0.15161598756E+04  0.12497832500E+03 0.  0.
    9000005    1    3    3    0    0 -0.45827736785E+01  0.62091442347E+02  0.69182887316E+03  0.69462546654E+03  0.10000000000E+01 0.  0.
    9000005    1    3    3    0    0  0.45827736785E+01 -0.62091442347E+02  0.81917118861E+03  0.82153440907E+03  0.10000000000E+01 0.  0.
<mgrwt>
<rscale>  0 0.12497833E+03</rscale>
<asrwt>0</asrwt>
<pdfrwt beam="1">  1        4 0.23285864E+00 0.12497833E+03</pdfrwt>
<pdfrwt beam="2">  1       -4 0.39690844E-03 0.12497833E+03</pdfrwt>
<totfact> 0.17623245E+03</totfact>
</mgrwt>
</event>
<event>
 5    1  0.3330238E-002  0.1249963E+03  0.7818608E-02  0.1235075E+00
         -4   -1    0    0    0  501 -0.00000000000E+00  0.00000000000E+00  0.78542481533E+02  0.78552748554E+02  0.12700000000E+01 0.  1.
          4   -1    0    0  501    0  0.00000000000E+00 -0.00000000000E+00 -0.49709662034E+02  0.49725882592E+02  0.12700000000E+01 0.  1.
         25    2    1    2    0    0  0.00000000000E+00  0.00000000000E+00  0.28832819499E+02  0.12827863115E+03  0.12499630286E+03 0.  0.
    9000005    1    3    3    0    0  0.46880899162E+02  0.41025865462E+02  0.19452258357E+02  0.65271208801E+02  0.10000000000E+01 0.  0.
    9000005    1    3    3    0    0 -0.46880899162E+02 -0.41025865462E+02  0.93805611413E+01  0.63007422344E+02  0.10000000000E+01 0.  0.
<mgrwt>
<rscale>  0 0.12499630E+03</rscale>
<asrwt>0</asrwt>
<pdfrwt beam="2">  1        4 0.76496778E-02 0.12499630E+03</pdfrwt>
<pdfrwt beam="1">  1       -4 0.12085496E-01 0.12499630E+03</pdfrwt>
<totfact> 0.10382341E+04</totfact>
</mgrwt>
</event>
<event>
 5    1  0.3330238E-002  0.1249850E+03  0.7818608E-02  0.1235093E+00
          4   -1    0    0  501    0  0.00000000000E+00  0.00000000000E+00  0.27585357984E+04  0.27585360907E+04  0.12700000000E+01 0. -1.
         -4   -1    0    0    0  501 -0.00000000000E+00 -0.00000000000E+00 -0.11305470187E+01  0.17003048437E+01  0.12700000000E+01 0. -1.
         25    2    1    2    0    0  0.00000000000E+00  0.00000000000E+00  0.27574052513E+04  0.27602363955E+04  0.12498495589E+03 0.  0.
    9000005    1    3    3    0    0  0.35791509245E+01 -0.47421622342E+02  0.48361358570E+03  0.48594724082E+03  0.10000000000E+01 0.  0.
    9000005    1    3    3    0    0 -0.35791509245E+01  0.47421622342E+02  0.22737916656E+04  0.22742891547E+04  0.10000000000E+01 0.  0.
<mgrwt>
<rscale>  0 0.12498496E+03</rscale>
<asrwt>0</asrwt>
<pdfrwt beam="1">  1        4 0.42442897E+00 0.12498496E+03</pdfrwt>
<pdfrwt beam="2">  1       -4 0.21778289E-03 0.12498496E+03</pdfrwt>
<totfact> 0.29334551E+02</totfact>
</mgrwt>
</event>
<event>
 5    1  0.3330238E-002  0.1249981E+03  0.7818608E-02  0.1235072E+00
         -4   -1    0    0    0  501 -0.00000000000E+00  0.00000000000E+00  0.20186297684E+03  0.20186697184E+03  0.12700000000E+01 0. -1.
          4   -1    0    0  501    0  0.00000000000E+00 -0.00000000000E+00 -0.19325380612E+02  0.19367065751E+02  0.12700000000E+01 0. -1.
         25    2    1    2    0    0  0.00000000000E+00  0.00000000000E+00  0.18253759623E+03  0.22123403759E+03  0.12499810139E+03 0.  0.
    9000005    1    3    3    0    0  0.88673851114E+00 -0.17954392588E+02  0.19719670709E+03  0.19801688768E+03  0.10000000000E+01 0.  0.
    9000005    1    3    3    0    0 -0.88673851114E+00  0.17954392588E+02 -0.14659110866E+02  0.23217149907E+02  0.10000000000E+01 0.  0.
<mgrwt>
<rscale>  0 0.12499810E+03</rscale>
<asrwt>0</asrwt>
<pdfrwt beam="2">  1        4 0.29766492E-02 0.12499810E+03</pdfrwt>
<pdfrwt beam="1">  1       -4 0.31059358E-01 0.12499810E+03</pdfrwt>
<totfact> 0.86677129E+03</totfact>
</mgrwt>
</event>
<event>
 5    1  0.3330238E-002  0.1249875E+03  0.7818608E-02  0.1235089E+00
         -4   -1    0    0    0  501 -0.00000000000E+00  0.00000000000E+00  0.48984408085E+03  0.48984572719E+03  0.12700000000E+01 0. -1.
          4   -1    0    0  501    0  0.00000000000E+00 -0.00000000000E+00 -0.79206396680E+01  0.80218098176E+01  0.12700000000E+01 0. -1.
         25    2    1    2    0    0  0.00000000000E+00  0.00000000000E+00  0.48192344119E+03  0.49786753701E+03  0.12498752435E+03 0.  0.
    9000005    1    3    3    0    0 -0.24000793879E+02  0.15452270338E+02  0.19549056932E+02  0.34611795567E+02  0.10000000000E+01 0.  0.
    9000005    1    3    3    0    0  0.24000793879E+02 -0.15452270338E+02  0.46237438425E+03  0.46325574144E+03  0.10000000000E+01 0.  0.
<mgrwt>
<rscale>  0 0.12498752E+03</rscale>
<asrwt>0</asrwt>
<pdfrwt beam="2">  1        4 0.12264681E-02 0.12498752E+03</pdfrwt>
<pdfrwt beam="1">  1       -4 0.75368585E-01 0.12498752E+03</pdfrwt>
<totfact> 0.56045548E+03</totfact>
</mgrwt>
</event>
<event>
 5    1  0.3330238E-002  0.1249760E+03  0.7818608E-02  0.1235107E+00
         -4   -1    0    0    0  501 -0.00000000000E+00  0.00000000000E+00  0.98567716689E+01  0.99382517443E+01  0.12700000000E+01 0. -1.
          4   -1    0    0  501    0  0.00000000000E+00 -0.00000000000E+00 -0.39443554473E+03  0.39443758929E+03  0.12700000000E+01 0. -1.
         25    2    1    2    0    0  0.00000000000E+00  0.00000000000E+00 -0.38457877306E+03  0.40437584104E+03  0.12497595018E+03 0.  0.
    9000005    1    3    3    0    0  0.83459337884E+01 -0.30908708323E+02 -0.36589361124E+03  0.36729298606E+03  0.10000000000E+01 0.  0.
    9000005    1    3    3    0    0 -0.83459337884E+01  0.30908708323E+02 -0.18685161820E+02  0.37082854977E+02  0.10000000000E+01 0.  0.
<mgrwt>
<rscale>  0 0.12497595E+03</rscale>
<asrwt>0</asrwt>
<pdfrwt beam="2">  1        4 0.60688804E-01 0.12497595E+03</pdfrwt>
<pdfrwt beam="1">  1       -4 0.15228517E-02 0.12497595E+03</pdfrwt>
<totfact> 0.64163474E+03</totfact>
</mgrwt>
</event>
<event>
 5    1  0.3330238E-002  0.1249985E+03  0.7818608E-02  0.1235072E+00
         -4   -1    0    0    0  501 -0.00000000000E+00  0.00000000000E+00  0.69536947596E+01  0.70687177627E+01  0.12700000000E+01 0.  1.
          4   -1    0    0  501    0  0.00000000000E+00 -0.00000000000E+00 -0.55701466865E+03  0.55701611646E+03  0.12700000000E+01 0.  1.
         25    2    1    2    0    0  0.00000000000E+00  0.00000000000E+00 -0.55006097389E+03  0.56408483422E+03  0.12499850078E+03 0.  0.
    9000005    1    3    3    0    0  0.53327655993E+02  0.18978512481E+02 -0.15553817358E+03  0.16552083335E+03  0.10000000000E+01 0.  0.
    9000005    1    3    3    0    0 -0.53327655993E+02 -0.18978512481E+02 -0.39452280031E+03  0.39856400087E+03  0.10000000000E+01 0.  0.
<mgrwt>
<rscale>  0 0.12499850E+03</rscale>
<asrwt>0</asrwt>
<pdfrwt beam="2">  1        4 0.85703489E-01 0.12499850E+03</pdfrwt>
<pdfrwt beam="1">  1       -4 0.10787589E-02 0.12499850E+03</pdfrwt>
<totfact> 0.51217803E+03</totfact>
</mgrwt>
</event>
<event>
 5    1  0.3330238E-002  0.1250213E+03  0.7818608E-02  0.1235036E+00
          4   -1    0    0  501    0  0.00000000000E+00  0.00000000000E+00  0.49276185963E+02  0.49292549164E+02  0.12700000000E+01 0.  1.
         -4   -1    0    0    0  501 -0.00000000000E+00 -0.00000000000E+00 -0.79265027738E+02  0.79275201181E+02  0.12700000000E+01 0.  1.
         25    2    1    2    0    0  0.00000000000E+00  0.00000000000E+00 -0.29988841775E+02  0.12856775035E+03  0.12502134137E+03 0.  0.
    9000005    1    3    3    0    0 -0.56081360657E+02 -0.16135121640E+02  0.80263554730E+01  0.58914204956E+02  0.10000000000E+01 0.  0.
    9000005    1    3    3    0    0  0.56081360657E+02  0.16135121640E+02 -0.38015197248E+02  0.69653545389E+02  0.10000000000E+01 0.  0.
<mgrwt>
<rscale>  0 0.12502134E+03</rscale>
<asrwt>0</asrwt>
<pdfrwt beam="1">  1        4 0.75829930E-02 0.12502134E+03</pdfrwt>
<pdfrwt beam="2">  1       -4 0.12196661E-01 0.12502134E+03</pdfrwt>
<totfact> 0.10370248E+04</totfact>
</mgrwt>
</event>
<event>
 5    1  0.3330238E-002  0.1250060E+03  0.7818608E-02  0.1235060E+00
          4   -1    0    0  501    0  0.00000000000E+00  0.00000000000E+00  0.59231050548E+02  0.59244664308E+02  0.12700000000E+01 0.  1.
         -4   -1    0    0    0  501 -0.00000000000E+00 -0.00000000000E+00 -0.65928434529E+02  0.65940665598E+02  0.12700000000E+01 0.  1.
         25    2    1    2    0    0  0.00000000000E+00  0.00000000000E+00 -0.66973839812E+01  0.12518532991E+03  0.12500604734E+03 0.  0.
    9000005    1    3    3    0    0  0.12220253793E+02  0.60942162353E+02  0.31680376387E+01  0.62244021540E+02  0.10000000000E+01 0.  0.
    9000005    1    3    3    0    0 -0.12220253793E+02 -0.60942162353E+02 -0.98654216199E+01  0.62941308366E+02  0.10000000000E+01 0.  0.
<mgrwt>
<rscale>  0 0.12500605E+03</rscale>
<asrwt>0</asrwt>
<pdfrwt beam="1">  1        4 0.91144573E-02 0.12500605E+03</pdfrwt>
<pdfrwt beam="2">  1       -4 0.10144824E-01 0.12500605E+03</pdfrwt>
<totfact> 0.10447411E+04</totfact>
</mgrwt>
</event>
<event>
 5    1  0.3330238E-002  0.1249913E+03  0.7818608E-02  0.1235083E+00
          4   -1    0    0  501    0  0.00000000000E+00  0.00000000000E+00  0.34285712572E+03  0.34285947786E+03  0.12700000000E+01 0. -1.
         -4   -1    0    0    0  501 -0.00000000000E+00 -0.00000000000E+00 -0.11353848692E+02  0.11424656674E+02  0.12700000000E+01 0. -1.
         25    2    1    2    0    0  0.00000000000E+00  0.00000000000E+00  0.33150327703E+03  0.35428413453E+03  0.12499130090E+03 0.  0.
    9000005    1    3    3    0    0  0.41918736341E+02 -0.18430842211E+02  0.28626930151E+03  0.28991031266E+03  0.10000000000E+01 0.  0.
    9000005    1    3    3    0    0 -0.41918736341E+02  0.18430842211E+02  0.45233975522E+02  0.64373821873E+02  0.10000000000E+01 0.  0.
<mgrwt>
<rscale>  0 0.12499130E+03</rscale>
<asrwt>0</asrwt>
<pdfrwt beam="1">  1        4 0.52752871E-01 0.12499130E+03</pdfrwt>
<pdfrwt beam="2">  1       -4 0.17523739E-02 0.12499130E+03</pdfrwt>
<totfact> 0.69269140E+03</totfact>
</mgrwt>
</event>
<event>
 5    1  0.3330238E-002  0.1250013E+03  0.7818608E-02  0.1235067E+00
         -4   -1    0    0    0  501 -0.00000000000E+00  0.00000000000E+00  0.15446301793E+03  0.15446823883E+03  0.12700000000E+01 0.  1.
          4   -1    0    0  501    0  0.00000000000E+00 -0.00000000000E+00 -0.25268148324E+02  0.25300043868E+02  0.12700000000E+01 0.  1.
         25    2    1    2    0    0  0.00000000000E+00  0.00000000000E+00  0.12919486961E+03  0.17976828270E+03  0.12500128453E+03 0.  0.
    9000005    1    3    3    0    0  0.12960232151E+02 -0.29173288169E+02  0.14185979460E+03  0.14541062438E+03  0.10000000000E+01 0.  0.
    9000005    1    3    3    0    0 -0.12960232151E+02  0.29173288169E+02 -0.12664924993E+02  0.34357658318E+02  0.10000000000E+01 0.  0.
<mgrwt>
<rscale>  0 0.12500128E+03</rscale>
<asrwt>0</asrwt>
<pdfrwt beam="2">  1        4 0.38902626E-02 0.12500128E+03</pdfrwt>
<pdfrwt beam="1">  1       -4 0.23766396E-01 0.12500128E+03</pdfrwt>
<totfact> 0.93656032E+03</totfact>
</mgrwt>
</event>
<event>
 4    1  0.3330238E-002  0.1251543E+03  0.7818608E-02  0.1234828E+00
         -4   -1    0    0    0  501 -0.00000000000E+00  0.00000000000E+00  0.16285220502E+02  0.16334665800E+02  0.12700000000E+01 0. -1.
          4   -1    0    0  501    0  0.00000000000E+00 -0.00000000000E+00 -0.24004168825E+03  0.24004504785E+03  0.12700000000E+01 0. -1.
    9000005    1    1    2    0    0 -0.39803418763E+02  0.18543102251E+02 -0.20570297774E+02  0.48500473574E+02  0.10000000000E+01 0.  0.
    9000005    1    1    2    0    0  0.39803418763E+02 -0.18543102251E+02 -0.20318616997E+03  0.20787924007E+03  0.10000000000E+01 0.  0.
<mgrwt>
<rscale>  0 0.12515431E+03</rscale>
<asrwt>0</asrwt>
<pdfrwt beam="2">  1        4 0.36933550E-01 0.12515431E+03</pdfrwt>
<pdfrwt beam="1">  1       -4 0.25094806E-02 0.12515431E+03</pdfrwt>
<totfact> 0.81137719E+03</totfact>
</mgrwt>
</event>
<event>
 5    1  0.3330238E-002  0.1250214E+03  0.7818608E-02  0.1235036E+00
          4   -1    0    0  501    0  0.00000000000E+00  0.00000000000E+00  0.64693264199E+02  0.64705728747E+02  0.12700000000E+01 0.  1.
         -4   -1    0    0    0  501 -0.00000000000E+00 -0.00000000000E+00 -0.60376807382E+02  0.60390162855E+02  0.12700000000E+01 0.  1.
         25    2    1    2    0    0  0.00000000000E+00  0.00000000000E+00  0.43164568169E+01  0.12509589160E+03  0.12502139935E+03 0.  0.
    9000005    1    3    3    0    0  0.10486144891E+02  0.41586217654E+01 -0.59354691151E+02  0.60425431164E+02  0.10000000000E+01 0.  0.
    9000005    1    3    3    0    0 -0.10486144891E+02 -0.41586217654E+01  0.63671147968E+02  0.64670460438E+02  0.10000000000E+01 0.  0.
<mgrwt>
<rscale>  0 0.12502140E+03</rscale>
<asrwt>0</asrwt>
<pdfrwt beam="1">  1        4 0.99547960E-02 0.12502140E+03</pdfrwt>
<pdfrwt beam="2">  1       -4 0.92907258E-02 0.12502140E+03</pdfrwt>
<totfact> 0.10445727E+04</totfact>
</mgrwt>
</event>
<event>
 5    1  0.3330238E-002  0.1249994E+03  0.7818608E-02  0.1235070E+00
          4   -1    0    0  501    0  0.00000000000E+00  0.00000000000E+00  0.62982819203E+03  0.62982947246E+03  0.12700000000E+01 0. -1.
         -4   -1    0    0    0  501 -0.00000000000E+00 -0.00000000000E+00 -0.61357143080E+01  0.62657713068E+01  0.12700000000E+01 0. -1.
         25    2    1    2    0    0  0.00000000000E+00  0.00000000000E+00  0.62369247772E+03  0.63609524376E+03  0.12499940949E+03 0.  0.
    9000005    1    3    3    0    0 -0.13354495471E+02  0.15828600216E+02  0.61188297512E+03  0.61223415649E+03  0.10000000000E+01 0.  0.
    9000005    1    3    3    0    0  0.13354495471E+02 -0.15828600216E+02  0.11809502602E+02  0.23861087272E+02  0.10000000000E+01 0.  0.
<mgrwt>
<rscale>  0 0.12499941E+03</rscale>
<asrwt>0</asrwt>
<pdfrwt beam="1">  1        4 0.96906762E-01 0.12499941E+03</pdfrwt>
<pdfrwt beam="2">  1       -4 0.95405878E-03 0.12499941E+03</pdfrwt>
<totfact> 0.46666258E+03</totfact>
</mgrwt>
</event>
<event>
 5    1  0.3330238E-002  0.1250004E+03  0.7818608E-02  0.1235069E+00
          4   -1    0    0  501    0  0.00000000000E+00  0.00000000000E+00  0.79436697954E+02  0.79446849415E+02  0.12700000000E+01 0.  1.
         -4   -1    0    0    0  501 -0.00000000000E+00 -0.00000000000E+00 -0.49153198740E+02  0.49169602870E+02  0.12700000000E+01 0.  1.
         25    2    1    2    0    0  0.00000000000E+00  0.00000000000E+00  0.30283499214E+02  0.12861645228E+03  0.12500040589E+03 0.  0.
    9000005    1    3    3    0    0 -0.36485184996E+02  0.50521743001E+02  0.10353071826E+02  0.63180703829E+02  0.10000000000E+01 0.  0.
    9000005    1    3    3    0    0  0.36485184996E+02 -0.50521743001E+02  0.19930427388E+02  0.65435748456E+02  0.10000000000E+01 0.  0.
<mgrwt>
<rscale>  0 0.12500041E+03</rscale>
<asrwt>0</asrwt>
<pdfrwt beam="1">  1        4 0.12223073E-01 0.12500041E+03</pdfrwt>
<pdfrwt beam="2">  1       -4 0.75640733E-02 0.12500041E+03</pdfrwt>
<totfact> 0.10374101E+04</totfact>
</mgrwt>
</event>
<event>
 5    1  0.3330238E-002  0.1250020E+03  0.7818608E-02  0.1235066E+00
          4   -1    0    0  501    0  0.00000000000E+00  0.00000000000E+00  0.21959568144E+01  0.25367550789E+01  0.12700000000E+01 0. -1.
         -4   -1    0    0    0  501 -0.00000000000E+00 -0.00000000000E+00 -0.16504576427E+04  0.16504581313E+04  0.12700000000E+01 0. -1.
         25    2    1    2    0    0  0.00000000000E+00  0.00000000000E+00 -0.16482616859E+04  0.16529948864E+04  0.12500203722E+03 0.  0.
    9000005    1    3    3    0    0 -0.15118573936E+02  0.59696489980E+02 -0.68347649364E+03  0.68624584484E+03  0.10000000000E+01 0.  0.
    9000005    1    3    3    0    0  0.15118573936E+02 -0.59696489980E+02 -0.96478519227E+03  0.96674904159E+03  0.10000000000E+01 0.  0.
<mgrwt>
<rscale>  0 0.12500204E+03</rscale>
<asrwt>0</asrwt>
<pdfrwt beam="1">  1        4 0.36409367E-03 0.12500204E+03</pdfrwt>
<pdfrwt beam="2">  1       -4 0.25394189E+00 0.12500204E+03</pdfrwt>
<totfact> 0.15106847E+03</totfact>
</mgrwt>
</event>
<event>
 5    1  0.3330238E-002  0.1249878E+03  0.7818608E-02  0.1235088E+00
         -4   -1    0    0    0  501 -0.00000000000E+00  0.00000000000E+00  0.39560772634E+02  0.39581152476E+02  0.12700000000E+01 0. -1.
          4   -1    0    0  501    0  0.00000000000E+00 -0.00000000000E+00 -0.98671355006E+02  0.98679527758E+02  0.12700000000E+01 0. -1.
         25    2    1    2    0    0  0.00000000000E+00  0.00000000000E+00 -0.59110582372E+02  0.13826068023E+03  0.12498781841E+03 0.  0.
    9000005    1    3    3    0    0 -0.46602789562E+02 -0.95020221432E+00 -0.75588959258E+02  0.88811112148E+02  0.10000000000E+01 0.  0.
    9000005    1    3    3    0    0  0.46602789562E+02  0.95020221432E+00  0.16478376886E+02  0.49449568087E+02  0.10000000000E+01 0.  0.
<mgrwt>
<rscale>  0 0.12498782E+03</rscale>
<asrwt>0</asrwt>
<pdfrwt beam="2">  1        4 0.15182405E-01 0.12498782E+03</pdfrwt>
<pdfrwt beam="1">  1       -4 0.60884691E-02 0.12498782E+03</pdfrwt>
<totfact> 0.10172554E+04</totfact>
</mgrwt>
</event>
<event>
 5    1  0.3330238E-002  0.1250019E+03  0.7818608E-02  0.1235066E+00
          4   -1    0    0  501    0  0.00000000000E+00  0.00000000000E+00  0.20273219718E+01  0.23922655323E+01  0.12700000000E+01 0.  1.
         -4   -1    0    0    0  501 -0.00000000000E+00 -0.00000000000E+00 -0.17673883315E+04  0.17673887878E+04  0.12700000000E+01 0.  1.
         25    2    1    2    0    0  0.00000000000E+00  0.00000000000E+00 -0.17653610096E+04  0.17697810534E+04  0.12500193100E+03 0.  0.
    9000005    1    3    3    0    0 -0.46205359028E+02  0.38013674699E+02 -0.11380734748E+04  0.11396456505E+04  0.10000000000E+01 0.  0.
    9000005    1    3    3    0    0  0.46205359028E+02 -0.38013674699E+02 -0.62728753478E+03  0.63013540288E+03  0.10000000000E+01 0.  0.
<mgrwt>
<rscale>  0 0.12500193E+03</rscale>
<asrwt>0</asrwt>
<pdfrwt beam="1">  1        4 0.34000478E-03 0.12500193E+03</pdfrwt>
<pdfrwt beam="2">  1       -4 0.27193287E+00 0.12500193E+03</pdfrwt>
<totfact> 0.13174415E+03</totfact>
</mgrwt>
</event>
<event>
 5    1  0.3330238E-002  0.1250028E+03  0.7818608E-02  0.1235065E+00
          4   -1    0    0  501    0  0.00000000000E+00  0.00000000000E+00  0.58355231870E+03  0.58355370067E+03  0.12700000000E+01 0.  1.
         -4   -1    0    0    0  501 -0.00000000000E+00 -0.00000000000E+00 -0.66325813468E+01  0.67530759897E+01  0.12700000000E+01 0.  1.
         25    2    1    2    0    0  0.00000000000E+00  0.00000000000E+00  0.57691973736E+03  0.59030677666E+03  0.12500282884E+03 0.  0.
    9000005    1    3    3    0    0 -0.79598508335E-01  0.13767713419E+02  0.57632443804E+03  0.57648973465E+03  0.10000000000E+01 0.  0.
    9000005    1    3    3    0    0  0.79598508335E-01 -0.13767713419E+02  0.59529931572E+00  0.13817042013E+02  0.10000000000E+01 0.  0.
<mgrwt>
<rscale>  0 0.12500283E+03</rscale>
<asrwt>0</asrwt>
<pdfrwt beam="1">  1        4 0.89786679E-01 0.12500283E+03</pdfrwt>
<pdfrwt beam="2">  1       -4 0.10297720E-02 0.12500283E+03</pdfrwt>
<totfact> 0.49482167E+03</totfact>
</mgrwt>
</event>
<event>
 5    1  0.3330238E-002  0.1249989E+03  0.7818608E-02  0.1235071E+00
         -4   -1    0    0    0  501 -0.00000000000E+00  0.00000000000E+00  0.18530828622E+02  0.18574297010E+02  0.12700000000E+01 0.  1.
          4   -1    0    0  501    0  0.00000000000E+00 -0.00000000000E+00 -0.21050132805E+03  0.21050515910E+03  0.12700000000E+01 0.  1.
         25    2    1    2    0    0  0.00000000000E+00  0.00000000000E+00 -0.19197049942E+03  0.22907945611E+03  0.12499889825E+03 0.  0.
    9000005    1    3    3    0    0  0.21512938987E+01  0.41919073881E+02 -0.11140312922E+02  0.43438961688E+02  0.10000000000E+01 0.  0.
    9000005    1    3    3    0    0 -0.21512938987E+01 -0.41919073881E+02 -0.18083018650E+03  0.18564049443E+03  0.10000000000E+01 0.  0.
<mgrwt>
<rscale>  0 0.12499890E+03</rscale>
<asrwt>0</asrwt>
<pdfrwt beam="2">  1        4 0.32388457E-01 0.12499890E+03</pdfrwt>
<pdfrwt beam="1">  1       -4 0.28545353E-02 0.12499890E+03</pdfrwt>
<totfact> 0.85453249E+03</totfact>
</mgrwt>
</event>
<event>
 5    1  0.3330238E-002  0.1249963E+03  0.7818608E-02  0.1235075E+00
          4   -1    0    0  501    0  0.00000000000E+00  0.00000000000E+00  0.89293639063E+03  0.89293729377E+03  0.12700000000E+01 0.  1.
         -4   -1    0    0    0  501 -0.00000000000E+00 -0.00000000000E+00 -0.42812511566E+01  0.44656479334E+01  0.12700000000E+01 0.  1.
         25    2    1    2    0    0  0.00000000000E+00  0.00000000000E+00  0.88865513947E+03  0.89740294170E+03  0.12499633143E+03 0.  0.
    9000005    1    3    3    0    0 -0.17896676888E+02  0.49616110432E+02  0.68491589147E+03  0.68694455952E+03  0.10000000000E+01 0.  0.
    9000005    1    3    3    0    0  0.17896676888E+02 -0.49616110432E+02  0.20373924800E+03  0.21045838219E+03  0.10000000000E+01 0.  0.
<mgrwt>
<rscale>  0 0.12499633E+03</rscale>
<asrwt>0</asrwt>
<pdfrwt beam="1">  1        4 0.13738907E+00 0.12499633E+03</pdfrwt>
<pdfrwt beam="2">  1       -4 0.67290792E-03 0.12499633E+03</pdfrwt>
<totfact> 0.34262301E+03</totfact>
</mgrwt>
</event>
<event>
 5    1  0.3330238E-002  0.1250050E+03  0.7818608E-02  0.1235062E+00
         -4   -1    0    0    0  501 -0.00000000000E+00  0.00000000000E+00  0.45741584583E+01  0.47471913382E+01  0.12700000000E+01 0.  1.
          4   -1    0    0  501    0  0.00000000000E+00 -0.00000000000E+00 -0.83802286143E+03  0.83802382375E+03  0.12700000000E+01 0.  1.
         25    2    1    2    0    0  0.00000000000E+00  0.00000000000E+00 -0.83344870297E+03  0.84277101509E+03  0.12500497348E+03 0.  0.
    9000005    1    3    3    0    0  0.37014026607E+02 -0.32922761242E+02 -0.15985757030E+03  0.16736005843E+03  0.10000000000E+01 0.  0.
    9000005    1    3    3    0    0 -0.37014026607E+02  0.32922761242E+02 -0.67359113267E+03  0.67541095667E+03  0.10000000000E+01 0.  0.
<mgrwt>
<rscale>  0 0.12500497E+03</rscale>
<asrwt>0</asrwt>
<pdfrwt beam="2">  1        4 0.12893986E+00 0.12500497E+03</pdfrwt>
<pdfrwt beam="1">  1       -4 0.71710160E-03 0.12500497E+03</pdfrwt>
<totfact> 0.36421056E+03</totfact>
</mgrwt>
</event>
<event>
 5    1  0.3330238E-002  0.1249987E+03  0.7818608E-02  0.1235071E+00
         -4   -1    0    0    0  501 -0.00000000000E+00  0.00000000000E+00  0.34781864353E+02  0.34805042564E+02  0.12700000000E+01 0. -1.
          4   -1    0    0  501    0  0.00000000000E+00 -0.00000000000E+00 -0.11224057406E+03  0.11224775884E+03  0.12700000000E+01 0. -1.
         25    2    1    2    0    0  0.00000000000E+00  0.00000000000E+00 -0.77458709709E+02  0.14705280141E+03  0.12499869876E+03 0.  0.
    9000005    1    3    3    0    0 -0.61052747566E+02 -0.11432584073E+02 -0.46796875856E+02  0.77775893140E+02  0.10000000000E+01 0.  0.
    9000005    1    3    3    0    0  0.61052747566E+02  0.11432584073E+02 -0.30661833853E+02  0.69276908268E+02  0.10000000000E+01 0.  0.
<mgrwt>
<rscale>  0 0.12499870E+03</rscale>
<asrwt>0</asrwt>
<pdfrwt beam="2">  1        4 0.17270116E-01 0.12499870E+03</pdfrwt>
<pdfrwt beam="1">  1       -4 0.53533917E-02 0.12499870E+03</pdfrwt>
<totfact> 0.99897382E+03</totfact>
</mgrwt>
</event>
<event>
 5    1  0.3330238E-002  0.1249999E+03  0.7818608E-02  0.1235069E+00
          4   -1    0    0  501    0  0.00000000000E+00  0.00000000000E+00  0.84644710775E+02  0.84654237709E+02  0.12700000000E+01 0.  1.
         -4   -1    0    0    0  501 -0.00000000000E+00 -0.00000000000E+00 -0.46127864361E+02  0.46145343974E+02  0.12700000000E+01 0.  1.
         25    2    1    2    0    0  0.00000000000E+00  0.00000000000E+00  0.38516846414E+02  0.13079958168E+03  0.12499993244E+03 0.  0.
    9000005    1    3    3    0    0 -0.58330153189E+02 -0.57590893590E+00 -0.41983235797E+01  0.58492429964E+02  0.10000000000E+01 0.  0.
    9000005    1    3    3    0    0  0.58330153189E+02  0.57590893590E+00  0.42715169994E+02  0.72307151720E+02  0.10000000000E+01 0.  0.
<mgrwt>
<rscale>  0 0.12499993E+03</rscale>
<asrwt>0</asrwt>
<pdfrwt beam="1">  1        4 0.13024341E-01 0.12499993E+03</pdfrwt>
<pdfrwt beam="2">  1       -4 0.70986720E-02 0.12499993E+03</pdfrwt>
<totfact> 0.10327404E+04</totfact>
</mgrwt>
</event>
<event>
 5    1  0.3330238E-002  0.1250035E+03  0.7818608E-02  0.1235064E+00
         -4   -1    0    0    0  501 -0.00000000000E+00  0.00000000000E+00  0.73869067726E+02  0.73879984209E+02  0.12700000000E+01 0.  1.
          4   -1    0    0  501    0  0.00000000000E+00 -0.00000000000E+00 -0.52861244571E+02  0.52876498348E+02  0.12700000000E+01 0.  1.
         25    2    1    2    0    0  0.00000000000E+00  0.00000000000E+00  0.21007823155E+02  0.12675648256E+03  0.12500350890E+03 0.  0.
    9000005    1    3    3    0    0 -0.28357582095E+02 -0.26049175293E+02 -0.39407853877E+02  0.55106178810E+02  0.10000000000E+01 0.  0.
    9000005    1    3    3    0    0  0.28357582095E+02  0.26049175293E+02  0.60415677033E+02  0.71650303747E+02  0.10000000000E+01 0.  0.
<mgrwt>
<rscale>  0 0.12500351E+03</rscale>
<asrwt>0</asrwt>
<pdfrwt beam="2">  1        4 0.81345123E-02 0.12500351E+03</pdfrwt>
<pdfrwt beam="1">  1       -4 0.11366485E-01 0.12500351E+03</pdfrwt>
<totfact> 0.10413616E+04</totfact>
</mgrwt>
</event>
<event>
 5    1  0.3330238E-002  0.1250036E+03  0.7818608E-02  0.1235064E+00
         -4   -1    0    0    0  501 -0.00000000000E+00  0.00000000000E+00  0.40312457755E+02  0.40332457776E+02  0.12700000000E+01 0. -1.
          4   -1    0    0  501    0  0.00000000000E+00 -0.00000000000E+00 -0.96856752695E+02  0.96865078551E+02  0.12700000000E+01 0. -1.
         25    2    1    2    0    0  0.00000000000E+00  0.00000000000E+00 -0.56544294940E+02  0.13719753633E+03  0.12500362668E+03 0.  0.
    9000005    1    3    3    0    0 -0.54898919222E+02 -0.29835342555E+02 -0.29588141413E+02  0.69141139052E+02  0.10000000000E+01 0.  0.
    9000005    1    3    3    0    0  0.54898919222E+02  0.29835342555E+02 -0.26956153528E+02  0.68056397275E+02  0.10000000000E+01 0.  0.
<mgrwt>
<rscale>  0 0.12500363E+03</rscale>
<asrwt>0</asrwt>
<pdfrwt beam="2">  1        4 0.14903218E-01 0.12500363E+03</pdfrwt>
<pdfrwt beam="1">  1       -4 0.62040955E-02 0.12500363E+03</pdfrwt>
<totfact> 0.10191124E+04</totfact>
</mgrwt>
</event>
<event>
 5    1  0.3330238E-002  0.1249991E+03  0.7818608E-02  0.1235071E+00
         -4   -1    0    0    0  501 -0.00000000000E+00  0.00000000000E+00  0.77429252471E+02  0.77439667085E+02  0.12700000000E+01 0. -1.
          4   -1    0    0  501    0  0.00000000000E+00 -0.00000000000E+00 -0.50426766629E+02  0.50442756593E+02  0.12700000000E+01 0. -1.
         25    2    1    2    0    0  0.00000000000E+00  0.00000000000E+00  0.27002485841E+02  0.12788242368E+03  0.12499912017E+03 0.  0.
    9000005    1    3    3    0    0  0.30160196964E+02  0.21957145231E+02 -0.37789415743E+02  0.53111144309E+02  0.10000000000E+01 0.  0.
    9000005    1    3    3    0    0 -0.30160196964E+02 -0.21957145231E+02  0.64791901584E+02  0.74771279369E+02  0.10000000000E+01 0.  0.
<mgrwt>
<rscale>  0 0.12499912E+03</rscale>
<asrwt>0</asrwt>
<pdfrwt beam="2">  1        4 0.77599953E-02 0.12499912E+03</pdfrwt>
<pdfrwt beam="1">  1       -4 0.11914224E-01 0.12499912E+03</pdfrwt>
<totfact> 0.10390234E+04</totfact>
</mgrwt>
</event>
<event>
 5    1  0.3330238E-002  0.1250144E+03  0.7818608E-02  0.1235047E+00
          4   -1    0    0  501    0  0.00000000000E+00  0.00000000000E+00  0.16639037681E+03  0.16639522348E+03  0.12700000000E+01 0. -1.
         -4   -1    0    0    0  501 -0.00000000000E+00 -0.00000000000E+00 -0.23459473779E+02  0.23493824933E+02  0.12700000000E+01 0. -1.
         25    2    1    2    0    0  0.00000000000E+00  0.00000000000E+00  0.14293090303E+03  0.18988904841E+03  0.12501442982E+03 0.  0.
    9000005    1    3    3    0    0  0.36032965620E+02  0.47126192357E+02  0.41588330590E+02  0.72455792444E+02  0.10000000000E+01 0.  0.
    9000005    1    3    3    0    0 -0.36032965620E+02 -0.47126192357E+02  0.10134257244E+03  0.11743325596E+03  0.10000000000E+01 0.  0.
<mgrwt>
<rscale>  0 0.12501443E+03</rscale>
<asrwt>0</asrwt>
<pdfrwt beam="1">  1        4 0.25601534E-01 0.12501443E+03</pdfrwt>
<pdfrwt beam="2">  1       -4 0.36121652E-02 0.12501443E+03</pdfrwt>
<totfact> 0.91836936E+03</totfact>
</mgrwt>
</event>
<event>
 5    1  0.3330238E-002  0.1250025E+03  0.7818608E-02  0.1235065E+00
          4   -1    0    0  501    0  0.00000000000E+00  0.00000000000E+00  0.50273969779E+02  0.50290008325E+02  0.12700000000E+01 0.  1.
         -4   -1    0    0    0  501 -0.00000000000E+00 -0.00000000000E+00 -0.77668680655E+02  0.77679063169E+02  0.12700000000E+01 0.  1.
         25    2    1    2    0    0  0.00000000000E+00  0.00000000000E+00 -0.27394710876E+02  0.12796907149E+03  0.12500245228E+03 0.  0.
    9000005    1    3    3    0    0 -0.55040653102E+01 -0.10982162132E+02  0.49030808764E+02  0.50556135415E+02  0.10000000000E+01 0.  0.
    9000005    1    3    3    0    0  0.55040653102E+01  0.10982162132E+02 -0.76425519640E+02  0.77412936079E+02  0.10000000000E+01 0.  0.
<mgrwt>
<rscale>  0 0.12500245E+03</rscale>
<asrwt>0</asrwt>
<pdfrwt beam="1">  1        4 0.77364893E-02 0.12500245E+03</pdfrwt>
<pdfrwt beam="2">  1       -4 0.11951060E-01 0.12500245E+03</pdfrwt>
<totfact> 0.10387580E+04</totfact>
</mgrwt>
</event>
<event>
 5    1  0.3330238E-002  0.1250019E+03  0.7818608E-02  0.1235066E+00
         -4   -1    0    0    0  501 -0.00000000000E+00  0.00000000000E+00  0.31676508039E+02  0.31701956746E+02  0.12700000000E+01 0. -1.
          4   -1    0    0  501    0  0.00000000000E+00 -0.00000000000E+00 -0.12324245566E+03  0.12324899909E+03  0.12700000000E+01 0. -1.
         25    2    1    2    0    0  0.00000000000E+00  0.00000000000E+00 -0.91565947620E+02  0.15495095584E+03  0.12500190379E+03 0.  0.
    9000005    1    3    3    0    0 -0.21493288726E+02  0.20164419760E+02 -0.11409324231E+03  0.11784240843E+03  0.10000000000E+01 0.  0.
    9000005    1    3    3    0    0  0.21493288726E+02 -0.20164419760E+02  0.22527294689E+02  0.37108547405E+02  0.10000000000E+01 0.  0.
<mgrwt>
<rscale>  0 0.12500190E+03</rscale>
<asrwt>0</asrwt>
<pdfrwt beam="2">  1        4 0.18962838E-01 0.12500190E+03</pdfrwt>
<pdfrwt beam="1">  1       -4 0.48757699E-02 0.12500190E+03</pdfrwt>
<totfact> 0.98320918E+03</totfact>
</mgrwt>
</event>
<event>
 5    1  0.3330238E-002  0.1249998E+03  0.7818608E-02  0.1235070E+00
          4   -1    0    0  501    0  0.00000000000E+00  0.00000000000E+00  0.15624988336E+03  0.15625504456E+03  0.12700000000E+01 0.  1.
         -4   -1    0    0    0  501 -0.00000000000E+00 -0.00000000000E+00 -0.24978223688E+02  0.25010488972E+02  0.12700000000E+01 0.  1.
         25    2    1    2    0    0  0.00000000000E+00  0.00000000000E+00  0.13127165967E+03  0.18126553353E+03  0.12499978005E+03 0.  0.
    9000005    1    3    3    0    0 -0.28995267791E+02 -0.52901008714E+02  0.89286414726E+02  0.10776041078E+03  0.10000000000E+01 0.  0.
    9000005    1    3    3    0    0  0.28995267791E+02  0.52901008714E+02  0.41985244949E+02  0.73505122751E+02  0.10000000000E+01 0.  0.
<mgrwt>
<rscale>  0 0.12499978E+03</rscale>
<asrwt>0</asrwt>
<pdfrwt beam="1">  1        4 0.24041323E-01 0.12499978E+03</pdfrwt>
<pdfrwt beam="2">  1       -4 0.38456826E-02 0.12499978E+03</pdfrwt>
<totfact> 0.93390158E+03</totfact>
</mgrwt>
</event>
<event>
 5    1  0.3330238E-002  0.1250014E+03  0.7818608E-02  0.1235067E+00
          4   -1    0    0  501    0  0.00000000000E+00  0.00000000000E+00  0.22067780561E+03  0.22068146000E+03  0.12700000000E+01 0. -1.
         -4   -1    0    0    0  501 -0.00000000000E+00 -0.00000000000E+00 -0.17674969007E+02  0.17720536939E+02  0.12700000000E+01 0. -1.
         25    2    1    2    0    0  0.00000000000E+00  0.00000000000E+00  0.20300283660E+03  0.23840199694E+03  0.12500144190E+03 0.  0.
    9000005    1    3    3    0    0 -0.35839336337E+02  0.45488772848E+02  0.56706566069E+02  0.81057517354E+02  0.10000000000E+01 0.  0.
    9000005    1    3    3    0    0  0.35839336337E+02 -0.45488772848E+02  0.14629627053E+03  0.15734447959E+03  0.10000000000E+01 0.  0.
<mgrwt>
<rscale>  0 0.12500144E+03</rscale>
<asrwt>0</asrwt>
<pdfrwt beam="1">  1        4 0.33954217E-01 0.12500144E+03</pdfrwt>
<pdfrwt beam="2">  1       -4 0.27230124E-02 0.12500144E+03</pdfrwt>
<totfact> 0.84033237E+03</totfact>
</mgrwt>
</event>
<event>
 5    1  0.3330238E-002  0.1249987E+03  0.7818608E-02  0.1235071E+00
          4   -1    0    0  501    0  0.00000000000E+00  0.00000000000E+00  0.21242360869E+01  0.24749300905E+01  0.12700000000E+01 0.  1.
         -4   -1    0    0    0  501 -0.00000000000E+00 -0.00000000000E+00 -0.16982901304E+04  0.16982906053E+04  0.12700000000E+01 0.  1.
         25    2    1    2    0    0  0.00000000000E+00  0.00000000000E+00 -0.16961658943E+04  0.17007655354E+04  0.12499866081E+03 0.  0.
    9000005    1    3    3    0    0 -0.30076542974E+02  0.94554599110E+00 -0.15932885335E+04  0.15935729803E+04  0.10000000000E+01 0.  0.
    9000005    1    3    3    0    0  0.30076542974E+02 -0.94554599110E+00 -0.10287736078E+03  0.10719255504E+03  0.10000000000E+01 0.  0.
<mgrwt>
<rscale>  0 0.12499866E+03</rscale>
<asrwt>0</asrwt>
<pdfrwt beam="1">  1        4 0.35381990E-03 0.12499866E+03</pdfrwt>
<pdfrwt beam="2">  1       -4 0.26130142E+00 0.12499866E+03</pdfrwt>
<totfact> 0.14295676E+03</totfact>
</mgrwt>
</event>
<event>
 5    1  0.3330238E-002  0.1250042E+03  0.7818608E-02  0.1235063E+00
          4   -1    0    0  501    0  0.00000000000E+00  0.00000000000E+00  0.25243017229E+01  0.28257740865E+01  0.12700000000E+01 0. -1.
         -4   -1    0    0    0  501 -0.00000000000E+00 -0.00000000000E+00 -0.14600555286E+04  0.14600560809E+04  0.12700000000E+01 0. -1.
         25    2    1    2    0    0  0.00000000000E+00  0.00000000000E+00 -0.14575312269E+04  0.14628818550E+04  0.12500417773E+03 0.  0.
    9000005    1    3    3    0    0 -0.23750506136E+02  0.23839233330E+02 -0.13450323209E+04  0.13454535815E+04  0.10000000000E+01 0.  0.
    9000005    1    3    3    0    0  0.23750506136E+02 -0.23839233330E+02 -0.11249890592E+03  0.11742827351E+03  0.10000000000E+01 0.  0.
<mgrwt>
<rscale>  0 0.12500418E+03</rscale>
<asrwt>0</asrwt>
<pdfrwt beam="1">  1        4 0.41158795E-03 0.12500418E+03</pdfrwt>
<pdfrwt beam="2">  1       -4 0.22464652E+00 0.12500418E+03</pdfrwt>
<totfact> 0.18668806E+03</totfact>
</mgrwt>
</event>
<event>
 5    1  0.3330238E-002  0.1249999E+03  0.7818608E-02  0.1235069E+00
          4   -1    0    0  501    0  0.00000000000E+00  0.00000000000E+00  0.37643633404E+02  0.37665050589E+02  0.12700000000E+01 0. -1.
         -4   -1    0    0    0  501 -0.00000000000E+00 -0.00000000000E+00 -0.10371421661E+03  0.10372199201E+03  0.12700000000E+01 0. -1.
         25    2    1    2    0    0  0.00000000000E+00  0.00000000000E+00 -0.66070583204E+02  0.14138704260E+03  0.12499989540E+03 0.  0.
    9000005    1    3    3    0    0  0.35743480259E+02 -0.49857818457E+02 -0.19564069157E+02  0.64398379205E+02  0.10000000000E+01 0.  0.
    9000005    1    3    3    0    0 -0.35743480259E+02  0.49857818457E+02 -0.46506514047E+02  0.76988663393E+02  0.10000000000E+01 0.  0.
<mgrwt>
<rscale>  0 0.12499990E+03</rscale>
<asrwt>0</asrwt>
<pdfrwt beam="1">  1        4 0.57935738E-02 0.12499990E+03</pdfrwt>
<pdfrwt beam="2">  1       -4 0.15958279E-01 0.12499990E+03</pdfrwt>
<totfact> 0.10104943E+04</totfact>
</mgrwt>
</event>
<event>
 5    1  0.3330238E-002  0.1249993E+03  0.7818608E-02  0.1235070E+00
         -4   -1    0    0    0  501 -0.00000000000E+00  0.00000000000E+00  0.29756025348E+02  0.29783115091E+02  0.12700000000E+01 0. -1.
          4   -1    0    0  501    0  0.00000000000E+00 -0.00000000000E+00 -0.13118447113E+03  0.13119061844E+03  0.12700000000E+01 0. -1.
         25    2    1    2    0    0  0.00000000000E+00  0.00000000000E+00 -0.10142844578E+03  0.16097373353E+03  0.12499925308E+03 0.  0.
    9000005    1    3    3    0    0 -0.44448088629E+02  0.30336723454E+02 -0.91625951228E+02  0.10626506628E+03  0.10000000000E+01 0.  0.
    9000005    1    3    3    0    0  0.44448088629E+02 -0.30336723454E+02 -0.98024945548E+01  0.54708667249E+02  0.10000000000E+01 0.  0.
<mgrwt>
<rscale>  0 0.12499925E+03</rscale>
<asrwt>0</asrwt>
<pdfrwt beam="2">  1        4 0.20184783E-01 0.12499925E+03</pdfrwt>
<pdfrwt beam="1">  1       -4 0.45804068E-02 0.12499925E+03</pdfrwt>
<totfact> 0.97157016E+03</totfact>
</mgrwt>
</event>
<event>
 5    1  0.3330238E-002  0.1249986E+03  0.7818608E-02  0.1235071E+00
         -4   -1    0    0    0  501 -0.00000000000E+00  0.00000000000E+00  0.11523853785E+03  0.11524553573E+03  0.12700000000E+01 0. -1.
          4   -1    0    0  501    0  0.00000000000E+00 -0.00000000000E+00 -0.33876408585E+02  0.33900205879E+02  0.12700000000E+01 0. -1.
         25    2    1    2    0    0  0.00000000000E+00  0.00000000000E+00  0.81362129268E+02  0.14914574161E+03  0.12499862464E+03 0.  0.
    9000005    1    3    3    0    0 -0.13900943677E+02  0.22220299131E+02  0.10836898976E+03  0.11149805321E+03  0.10000000000E+01 0.  0.
    9000005    1    3    3    0    0  0.13900943677E+02 -0.22220299131E+02 -0.27006860489E+02  0.37647688403E+02  0.10000000000E+01 0.  0.
<mgrwt>
<rscale>  0 0.12499862E+03</rscale>
<asrwt>0</asrwt>
<pdfrwt beam="2">  1        4 0.52141239E-02 0.12499862E+03</pdfrwt>
<pdfrwt beam="1">  1       -4 0.17731375E-01 0.12499862E+03</pdfrwt>
<totfact> 0.99477333E+03</totfact>
</mgrwt>
</event>
<event>
 5    1  0.3330238E-002  0.1250001E+03  0.7818608E-02  0.1235069E+00
          4   -1    0    0  501    0  0.00000000000E+00  0.00000000000E+00  0.28788046978E+03  0.28788327110E+03  0.12700000000E+01 0. -1.
         -4   -1    0    0    0  501 -0.00000000000E+00 -0.00000000000E+00 -0.13536435182E+02  0.13595880900E+02  0.12700000000E+01 0. -1.
         25    2    1    2    0    0  0.00000000000E+00  0.00000000000E+00  0.27434403460E+03  0.30147915200E+03  0.12500011909E+03 0.  0.
    9000005    1    3    3    0    0 -0.39419434680E+02  0.48236807430E+02  0.12521555636E+03  0.13985927561E+03  0.10000000000E+01 0.  0.
    9000005    1    3    3    0    0  0.39419434680E+02 -0.48236807430E+02  0.14912847824E+03  0.16161987639E+03  0.10000000000E+01 0.  0.
<mgrwt>
<rscale>  0 0.12500012E+03</rscale>
<asrwt>0</asrwt>
<pdfrwt beam="1">  1        4 0.44294085E-01 0.12500012E+03</pdfrwt>
<pdfrwt beam="2">  1       -4 0.20873170E-02 0.12500012E+03</pdfrwt>
<totfact> 0.75413475E+03</totfact>
</mgrwt>
</event>
<event>
 5    1  0.3330238E-002  0.1249987E+03  0.7818608E-02  0.1235071E+00
          4   -1    0    0  501    0  0.00000000000E+00  0.00000000000E+00  0.26952198523E+02  0.26982103425E+02  0.12700000000E+01 0.  1.
         -4   -1    0    0    0  501 -0.00000000000E+00 -0.00000000000E+00 -0.14481634514E+03  0.14482191381E+03  0.12700000000E+01 0.  1.
         25    2    1    2    0    0  0.00000000000E+00  0.00000000000E+00 -0.11786414662E+03  0.17180401724E+03  0.12499865311E+03 0.  0.
    9000005    1    3    3    0    0 -0.20705541441E+02  0.51266918280E+02 -0.98960099667E+02  0.11336277027E+03  0.10000000000E+01 0.  0.
    9000005    1    3    3    0    0  0.20705541441E+02 -0.51266918280E+02 -0.18904046951E+02  0.58441246970E+02  0.10000000000E+01 0.  0.
<mgrwt>
<rscale>  0 0.12499865E+03</rscale>
<asrwt>0</asrwt>
<pdfrwt beam="1">  1        4 0.41492209E-02 0.12499865E+03</pdfrwt>
<pdfrwt beam="2">  1       -4 0.22282166E-01 0.12499865E+03</pdfrwt>
<totfact> 0.95116333E+03</totfact>
</mgrwt>
</event>
<event>
 5    1  0.3330238E-002  0.1249981E+03  0.7818608E-02  0.1235072E+00
         -4   -1    0    0    0  501 -0.00000000000E+00  0.00000000000E+00  0.57004982793E+03  0.57005124263E+03  0.12700000000E+01 0.  1.
          4   -1    0    0  501    0  0.00000000000E+00 -0.00000000000E+00 -0.67919799885E+01  0.69096955189E+01  0.12700000000E+01 0.  1.
         25    2    1    2    0    0  0.00000000000E+00  0.00000000000E+00  0.56325784794E+03  0.57696093815E+03  0.12499808351E+03 0.  0.
    9000005    1    3    3    0    0  0.39297730231E+02 -0.50671987849E+01  0.58580214336E+02  0.70729269871E+02  0.10000000000E+01 0.  0.
    9000005    1    3    3    0    0 -0.39297730231E+02  0.50671987849E+01  0.50467763361E+03  0.50623166828E+03  0.10000000000E+01 0.  0.
<mgrwt>
<rscale>  0 0.12499808E+03</rscale>
<asrwt>0</asrwt>
<pdfrwt beam="2">  1        4 0.10540837E-02 0.12499808E+03</pdfrwt>
<pdfrwt beam="1">  1       -4 0.87709147E-01 0.12499808E+03</pdfrwt>
<totfact> 0.50357076E+03</totfact>
</mgrwt>
</event>
<event>
 5    1  0.3330238E-002  0.1250054E+03  0.7818608E-02  0.1235061E+00
          4   -1    0    0  501    0  0.00000000000E+00  0.00000000000E+00  0.42942390754E+03  0.42942578552E+03  0.12700000000E+01 0. -1.
         -4   -1    0    0    0  501 -0.00000000000E+00 -0.00000000000E+00 -0.90510508841E+01  0.91397167411E+01  0.12700000000E+01 0. -1.
         25    2    1    2    0    0  0.00000000000E+00  0.00000000000E+00  0.42037285666E+03  0.43856550226E+03  0.12500544451E+03 0.  0.
    9000005    1    3    3    0    0 -0.54356562773E+02 -0.30835692192E+02  0.20899947789E+03  0.21814503796E+03  0.10000000000E+01 0.  0.
    9000005    1    3    3    0    0  0.54356562773E+02  0.30835692192E+02  0.21137337877E+03  0.22042046430E+03  0.10000000000E+01 0.  0.
<mgrwt>
<rscale>  0 0.12500544E+03</rscale>
<asrwt>0</asrwt>
<pdfrwt beam="1">  1        4 0.66072181E-01 0.12500544E+03</pdfrwt>
<pdfrwt beam="2">  1       -4 0.13994343E-02 0.12500544E+03</pdfrwt>
<totfact> 0.60959865E+03</totfact>
</mgrwt>
</event>
<event>
 5    1  0.3330238E-002  0.1249972E+03  0.7818608E-02  0.1235074E+00
          4   -1    0    0  501    0  0.00000000000E+00  0.00000000000E+00  0.76437720123E+02  0.76448269814E+02  0.12700000000E+01 0.  1.
         -4   -1    0    0    0  501 -0.00000000000E+00 -0.00000000000E+00 -0.51079433996E+02  0.51095219711E+02  0.12700000000E+01 0.  1.
         25    2    1    2    0    0  0.00000000000E+00  0.00000000000E+00  0.25358286128E+02  0.12754348953E+03  0.12499719615E+03 0.  0.
    9000005    1    3    3    0    0 -0.41416075723E+02  0.36940718302E+02  0.41990025074E+02  0.69599354901E+02  0.10000000000E+01 0.  0.
    9000005    1    3    3    0    0  0.41416075723E+02 -0.36940718302E+02 -0.16631738946E+02  0.57944134624E+02  0.10000000000E+01 0.  0.
<mgrwt>
<rscale>  0 0.12499720E+03</rscale>
<asrwt>0</asrwt>
<pdfrwt beam="1">  1        4 0.11761675E-01 0.12499720E+03</pdfrwt>
<pdfrwt beam="2">  1       -4 0.78604003E-02 0.12499720E+03</pdfrwt>
<totfact> 0.10398017E+04</totfact>
</mgrwt>
</event>
<event>
 5    1  0.3330238E-002  0.1249994E+03  0.7818608E-02  0.1235070E+00
         -4   -1    0    0    0  501 -0.00000000000E+00  0.00000000000E+00  0.17387182563E+03  0.17387646375E+03  0.12700000000E+01 0.  1.
          4   -1    0    0  501    0  0.00000000000E+00 -0.00000000000E+00 -0.22443152090E+02  0.22479056380E+02  0.12700000000E+01 0.  1.
         25    2    1    2    0    0  0.00000000000E+00  0.00000000000E+00  0.15142867354E+03  0.19635552013E+03  0.12499938847E+03 0.  0.
    9000005    1    3    3    0    0  0.46285559327E+02  0.27576483711E+02  0.25980157067E+02  0.59822938889E+02  0.10000000000E+01 0.  0.
    9000005    1    3    3    0    0 -0.46285559327E+02 -0.27576483711E+02  0.12544851647E+03  0.13653258124E+03  0.10000000000E+01 0.  0.
<mgrwt>
<rscale>  0 0.12499939E+03</rscale>
<asrwt>0</asrwt>
<pdfrwt beam="2">  1        4 0.34559113E-02 0.12499939E+03</pdfrwt>
<pdfrwt beam="1">  1       -4 0.26752630E-01 0.12499939E+03</pdfrwt>
<totfact> 0.90754326E+03</totfact>
</mgrwt>
</event>
<event>
 5    1  0.3330238E-002  0.1250002E+03  0.7818608E-02  0.1235069E+00
         -4   -1    0    0    0  501 -0.00000000000E+00  0.00000000000E+00  0.10719187206E+03  0.10719939522E+03  0.12700000000E+01 0. -1.
          4   -1    0    0  501    0  0.00000000000E+00 -0.00000000000E+00 -0.36421924326E+02  0.36444059483E+02  0.12700000000E+01 0. -1.
         25    2    1    2    0    0  0.00000000000E+00  0.00000000000E+00  0.70769947735E+02  0.14364345471E+03  0.12500022631E+03 0.  0.
    9000005    1    3    3    0    0 -0.35314114727E+02  0.57088758460E+01 -0.23497789245E+02  0.42811494505E+02  0.10000000000E+01 0.  0.
    9000005    1    3    3    0    0  0.35314114727E+02 -0.57088758460E+01  0.94267736980E+02  0.10083196020E+03  0.10000000000E+01 0.  0.
<mgrwt>
<rscale>  0 0.12500023E+03</rscale>
<asrwt>0</asrwt>
<pdfrwt beam="2">  1        4 0.56056545E-02 0.12500023E+03</pdfrwt>
<pdfrwt beam="1">  1       -4 0.16493338E-01 0.12500023E+03</pdfrwt>
<totfact> 0.10058572E+04</totfact>
</mgrwt>
</event>
<event>
 5    1  0.3330238E-002  0.1250000E+03  0.7818608E-02  0.1235069E+00
          4   -1    0    0  501    0  0.00000000000E+00  0.00000000000E+00  0.81156143819E+02  0.81166080228E+02  0.12700000000E+01 0.  1.
         -4   -1    0    0    0  501 -0.00000000000E+00 -0.00000000000E+00 -0.48111237945E+02  0.48127997222E+02  0.12700000000E+01 0.  1.
         25    2    1    2    0    0  0.00000000000E+00  0.00000000000E+00  0.33044905874E+02  0.12929407745E+03  0.12499997064E+03 0.  0.
    9000005    1    3    3    0    0 -0.22245380168E+02 -0.23974619831E+02 -0.38557286960E+02  0.50569790514E+02  0.10000000000E+01 0.  0.
    9000005    1    3    3    0    0  0.22245380168E+02  0.23974619831E+02  0.71602192834E+02  0.78724286936E+02  0.10000000000E+01 0.  0.
<mgrwt>
<rscale>  0 0.12499997E+03</rscale>
<asrwt>0</asrwt>
<pdfrwt beam="1">  1        4 0.12487614E-01 0.12499997E+03</pdfrwt>
<pdfrwt beam="2">  1       -4 0.74037825E-02 0.12499997E+03</pdfrwt>
<totfact> 0.10359639E+04</totfact>
</mgrwt>
</event>
<event>
 5    1  0.3330238E-002  0.1250242E+03  0.7818608E-02  0.1235031E+00
          4   -1    0    0  501    0  0.00000000000E+00  0.00000000000E+00  0.20954367706E+03  0.20954752563E+03  0.12700000000E+01 0.  1.
         -4   -1    0    0    0  501 -0.00000000000E+00 -0.00000000000E+00 -0.18623280146E+02  0.18666533245E+02  0.12700000000E+01 0.  1.
         25    2    1    2    0    0  0.00000000000E+00  0.00000000000E+00  0.19092039692E+03  0.22821405887E+03  0.12502423248E+03 0.  0.
    9000005    1    3    3    0    0 -0.32377616758E+01  0.61620433592E+02  0.77279430597E+02  0.98897276657E+02  0.10000000000E+01 0.  0.
    9000005    1    3    3    0    0  0.32377616758E+01 -0.61620433592E+02  0.11364096632E+03  0.12931678222E+03  0.10000000000E+01 0.  0.
<mgrwt>
<rscale>  0 0.12502423E+03</rscale>
<asrwt>0</asrwt>
<pdfrwt beam="1">  1        4 0.32241110E-01 0.12502423E+03</pdfrwt>
<pdfrwt beam="2">  1       -4 0.28687434E-02 0.12502423E+03</pdfrwt>
<totfact> 0.85538324E+03</totfact>
</mgrwt>
</event>
<event>
 5    1  0.3330238E-002  0.1249979E+03  0.7818608E-02  0.1235073E+00
          4   -1    0    0  501    0  0.00000000000E+00  0.00000000000E+00  0.14602569748E+02  0.14657692289E+02  0.12700000000E+01 0. -1.
         -4   -1    0    0    0  501 -0.00000000000E+00 -0.00000000000E+00 -0.26693484176E+03  0.26693786289E+03  0.12700000000E+01 0. -1.
         25    2    1    2    0    0  0.00000000000E+00  0.00000000000E+00 -0.25233227201E+03  0.28159555518E+03  0.12499792478E+03 0.  0.
    9000005    1    3    3    0    0  0.61627254259E+01 -0.50194324519E+02 -0.43464344367E+02  0.66690318862E+02  0.10000000000E+01 0.  0.
    9000005    1    3    3    0    0 -0.61627254259E+01  0.50194324519E+02 -0.20886792764E+03  0.21490523632E+03  0.10000000000E+01 0.  0.
<mgrwt>
<rscale>  0 0.12499792E+03</rscale>
<asrwt>0</asrwt>
<pdfrwt beam="1">  1        4 0.22510220E-02 0.12499792E+03</pdfrwt>
<pdfrwt beam="2">  1       -4 0.41071368E-01 0.12499792E+03</pdfrwt>
<totfact> 0.77970619E+03</totfact>
</mgrwt>
</event>
<event>
 5    1  0.3330238E-002  0.1250019E+03  0.7818608E-02  0.1235066E+00
         -4   -1    0    0    0  501 -0.00000000000E+00  0.00000000000E+00  0.36437183688E+03  0.36437405013E+03  0.12700000000E+01 0. -1.
          4   -1    0    0  501    0  0.00000000000E+00 -0.00000000000E+00 -0.10680962352E+02  0.10756200852E+02  0.12700000000E+01 0. -1.
         25    2    1    2    0    0  0.00000000000E+00  0.00000000000E+00  0.35369087453E+03  0.37513025098E+03  0.12500188191E+03 0.  0.
    9000005    1    3    3    0    0  0.16674912064E+02  0.11205498240E+02 -0.74035315427E+00  0.20128686145E+02  0.10000000000E+01 0.  0.
    9000005    1    3    3    0    0 -0.16674912064E+02 -0.11205498240E+02  0.35443122768E+03  0.35500156484E+03  0.10000000000E+01 0.  0.
<mgrwt>
<rscale>  0 0.12500188E+03</rscale>
<asrwt>0</asrwt>
<pdfrwt beam="2">  1        4 0.16491829E-02 0.12500188E+03</pdfrwt>
<pdfrwt beam="1">  1       -4 0.56063162E-01 0.12500188E+03</pdfrwt>
<totfact> 0.67042821E+03</totfact>
</mgrwt>
</event>
<event>
 5    1  0.3330238E-002  0.1249961E+03  0.7818608E-02  0.1235075E+00
         -4   -1    0    0    0  501 -0.00000000000E+00  0.00000000000E+00  0.24039853975E+02  0.24073376979E+02  0.12700000000E+01 0. -1.
          4   -1    0    0  501    0  0.00000000000E+00 -0.00000000000E+00 -0.16233115385E+03  0.16233612170E+03  0.12700000000E+01 0. -1.
         25    2    1    2    0    0  0.00000000000E+00  0.00000000000E+00 -0.13829129987E+03  0.18640949868E+03  0.12499607025E+03 0.  0.
    9000005    1    3    3    0    0 -0.14428562414E+02  0.43645791216E+02 -0.13227399877E+03  0.14003767085E+03  0.10000000000E+01 0.  0.
    9000005    1    3    3    0    0  0.14428562414E+02 -0.43645791216E+02 -0.60173010957E+01  0.46371827834E+02  0.10000000000E+01 0.  0.
<mgrwt>
<rscale>  0 0.12499607E+03</rscale>
<asrwt>0</asrwt>
<pdfrwt beam="2">  1        4 0.24976984E-01 0.12499607E+03</pdfrwt>
<pdfrwt beam="1">  1       -4 0.37014000E-02 0.12499607E+03</pdfrwt>
<totfact> 0.92483974E+03</totfact>
</mgrwt>
</event>
<event>
 5    1  0.3330238E-002  0.1250000E+03  0.7818608E-02  0.1235069E+00
         -4   -1    0    0    0  501 -0.00000000000E+00  0.00000000000E+00  0.13139447590E+01  0.18273890745E+01  0.12700000000E+01 0.  1.
          4   -1    0    0  501    0  0.00000000000E+00 -0.00000000000E+00 -0.24864885141E+04  0.24864888385E+04  0.12700000000E+01 0.  1.
         25    2    1    2    0    0  0.00000000000E+00  0.00000000000E+00 -0.24851745694E+04  0.24883162275E+04  0.12500003191E+03 0.  0.
    9000005    1    3    3    0    0 -0.44364942158E+02 -0.43857754737E+02 -0.13157319162E+04  0.13172103955E+04  0.10000000000E+01 0.  0.
    9000005    1    3    3    0    0  0.44364942158E+02  0.43857754737E+02 -0.11694426532E+04  0.11711058320E+04  0.10000000000E+01 0.  0.
<mgrwt>
<rscale>  0 0.12500003E+03</rscale>
<asrwt>0</asrwt>
<pdfrwt beam="2">  1        4 0.38257307E+00 0.12500003E+03</pdfrwt>
<pdfrwt beam="1">  1       -4 0.24166800E-03 0.12500003E+03</pdfrwt>
<totfact> 0.47619549E+02</totfact>
</mgrwt>
</event>
<event>
 5    1  0.3330238E-002  0.1249892E+03  0.7818608E-02  0.1235086E+00
          4   -1    0    0  501    0  0.00000000000E+00  0.00000000000E+00  0.30366908749E+02  0.30393454015E+02  0.12700000000E+01 0. -1.
         -4   -1    0    0    0  501 -0.00000000000E+00 -0.00000000000E+00 -0.12852692100E+03  0.12853319540E+03  0.12700000000E+01 0. -1.
         25    2    1    2    0    0  0.00000000000E+00  0.00000000000E+00 -0.98160012247E+02  0.15892664942E+03  0.12498916709E+03 0.  0.
    9000005    1    3    3    0    0 -0.11649338469E+02  0.59213392183E+02 -0.28473476967E+02  0.66735835884E+02  0.10000000000E+01 0.  0.
    9000005    1    3    3    0    0  0.11649338469E+02 -0.59213392183E+02 -0.69686535280E+02  0.92190813533E+02  0.10000000000E+01 0.  0.
<mgrwt>
<rscale>  0 0.12498917E+03</rscale>
<asrwt>0</asrwt>
<pdfrwt beam="1">  1        4 0.46743568E-02 0.12498917E+03</pdfrwt>
<pdfrwt beam="2">  1       -4 0.19775897E-01 0.12498917E+03</pdfrwt>
<totfact> 0.97573878E+03</totfact>
</mgrwt>
</event>
<event>
 5    1  0.3330238E-002  0.1250013E+03  0.7818608E-02  0.1235067E+00
         -4   -1    0    0    0  501 -0.00000000000E+00  0.00000000000E+00  0.78384251151E+03  0.78384354035E+03  0.12700000000E+01 0. -1.
          4   -1    0    0  501    0  0.00000000000E+00 -0.00000000000E+00 -0.49016052813E+01  0.50634607073E+01  0.12700000000E+01 0. -1.
         25    2    1    2    0    0  0.00000000000E+00  0.00000000000E+00  0.77894090623E+03  0.78890700106E+03  0.12500128368E+03 0.  0.
    9000005    1    3    3    0    0  0.23571630811E+02  0.84632399724E+01  0.75081478371E+03  0.75123304483E+03  0.10000000000E+01 0.  0.
    9000005    1    3    3    0    0 -0.23571630811E+02 -0.84632399724E+01  0.28126122524E+02  0.37673956232E+02  0.10000000000E+01 0.  0.
<mgrwt>
<rscale>  0 0.12500128E+03</rscale>
<asrwt>0</asrwt>
<pdfrwt beam="2">  1        4 0.76662246E-03 0.12500128E+03</pdfrwt>
<pdfrwt beam="1">  1       -4 0.12060372E+00 0.12500128E+03</pdfrwt>
<totfact> 0.38763673E+03</totfact>
</mgrwt>
</event>
<event>
 5    1  0.3330238E-002  0.1249979E+03  0.7818608E-02  0.1235073E+00
         -4   -1    0    0    0  501 -0.00000000000E+00  0.00000000000E+00  0.48496588282E+01  0.50131916730E+01  0.12700000000E+01 0. -1.
          4   -1    0    0  501    0  0.00000000000E+00 -0.00000000000E+00 -0.79192261988E+03  0.79192363823E+03  0.12700000000E+01 0. -1.
         25    2    1    2    0    0  0.00000000000E+00  0.00000000000E+00 -0.78707296105E+03  0.79693682990E+03  0.12499785929E+03 0.  0.
    9000005    1    3    3    0    0  0.58982647157E+02 -0.78950275677E+01 -0.27192577231E+03  0.27836291019E+03  0.10000000000E+01 0.  0.
    9000005    1    3    3    0    0 -0.58982647157E+02  0.78950275677E+01 -0.51514718875E+03  0.51857391971E+03  0.10000000000E+01 0.  0.
<mgrwt>
<rscale>  0 0.12499786E+03</rscale>
<asrwt>0</asrwt>
<pdfrwt beam="2">  1        4 0.12184681E+00 0.12499786E+03</pdfrwt>
<pdfrwt beam="1">  1       -4 0.75875977E-03 0.12499786E+03</pdfrwt>
<totfact> 0.38403664E+03</totfact>
</mgrwt>
</event>
<event>
 5    1  0.3330238E-002  0.1250459E+03  0.7818608E-02  0.1234998E+00
          4   -1    0    0  501    0  0.00000000000E+00  0.00000000000E+00  0.16901502678E+03  0.16901979818E+03  0.12700000000E+01 0.  1.
         -4   -1    0    0    0  501 -0.00000000000E+00 -0.00000000000E+00 -0.23106293626E+02  0.23141169053E+02  0.12700000000E+01 0.  1.
         25    2    1    2    0    0  0.00000000000E+00  0.00000000000E+00  0.14590873315E+03  0.19216096724E+03  0.12504590724E+03 0.  0.
    9000005    1    3    3    0    0  0.14565271487E+02  0.51251656534E+02  0.12320405272E+03  0.13423530846E+03  0.10000000000E+01 0.  0.
    9000005    1    3    3    0    0 -0.14565271487E+02 -0.51251656534E+02  0.22704680435E+02  0.57925658776E+02  0.10000000000E+01 0.  0.
<mgrwt>
<rscale>  0 0.12504591E+03</rscale>
<asrwt>0</asrwt>
<pdfrwt beam="1">  1        4 0.26005361E-01 0.12504591E+03</pdfrwt>
<pdfrwt beam="2">  1       -4 0.35578642E-02 0.12504591E+03</pdfrwt>
<totfact> 0.91378688E+03</totfact>
</mgrwt>
</event>
<event>
 5    1  0.3330238E-002  0.1249993E+03  0.7818608E-02  0.1235070E+00
          4   -1    0    0  501    0  0.00000000000E+00  0.00000000000E+00  0.44248150847E+02  0.44266372715E+02  0.12700000000E+01 0. -1.
         -4   -1    0    0    0  501 -0.00000000000E+00 -0.00000000000E+00 -0.88238627142E+02  0.88247766090E+02  0.12700000000E+01 0. -1.
         25    2    1    2    0    0  0.00000000000E+00  0.00000000000E+00 -0.43990476295E+02  0.13251413881E+03  0.12499933991E+03 0.  0.
    9000005    1    3    3    0    0  0.23938919679E+02 -0.40891503727E+02  0.21197565349E+02  0.51918433424E+02  0.10000000000E+01 0.  0.
    9000005    1    3    3    0    0 -0.23938919679E+02  0.40891503727E+02 -0.65188041644E+02  0.80595705381E+02  0.10000000000E+01 0.  0.
<mgrwt>
<rscale>  0 0.12499934E+03</rscale>
<asrwt>0</asrwt>
<pdfrwt beam="1">  1        4 0.68095125E-02 0.12499934E+03</pdfrwt>
<pdfrwt beam="2">  1       -4 0.13577278E-01 0.12499934E+03</pdfrwt>
<totfact> 0.10290890E+04</totfact>
</mgrwt>
</event>
<event>
 5    1  0.3330238E-002  0.1250013E+03  0.7818608E-02  0.1235067E+00
          4   -1    0    0  501    0  0.00000000000E+00  0.00000000000E+00  0.94225316112E+02  0.94233874464E+02  0.12700000000E+01 0.  1.
         -4   -1    0    0    0  501 -0.00000000000E+00 -0.00000000000E+00 -0.41437179268E+02  0.41456636691E+02  0.12700000000E+01 0.  1.
         25    2    1    2    0    0  0.00000000000E+00  0.00000000000E+00  0.52788136844E+02  0.13569051115E+03  0.12500130970E+03 0.  0.
    9000005    1    3    3    0    0  0.70083321371E+01 -0.53977440474E+02  0.59722156057E+02  0.80810993828E+02  0.10000000000E+01 0.  0.
    9000005    1    3    3    0    0 -0.70083321371E+01  0.53977440474E+02 -0.69340192127E+01  0.54879517326E+02  0.10000000000E+01 0.  0.
<mgrwt>
<rscale>  0 0.12500131E+03</rscale>
<asrwt>0</asrwt>
<pdfrwt beam="1">  1        4 0.14498357E-01 0.12500131E+03</pdfrwt>
<pdfrwt beam="2">  1       -4 0.63771058E-02 0.12500131E+03</pdfrwt>
<totfact> 0.10223235E+04</totfact>
</mgrwt>
</event>
<event>
 5    1  0.3330238E-002  0.1249902E+03  0.7818608E-02  0.1235085E+00
         -4   -1    0    0    0  501 -0.00000000000E+00  0.00000000000E+00  0.11924447128E+03  0.11925123409E+03  0.12700000000E+01 0.  1.
          4   -1    0    0  501    0  0.00000000000E+00 -0.00000000000E+00 -0.32733203373E+02  0.32757831171E+02  0.12700000000E+01 0.  1.
         25    2    1    2    0    0  0.00000000000E+00  0.00000000000E+00  0.86511267908E+02  0.15200906526E+03  0.12499022540E+03 0.  0.
    9000005    1    3    3    0    0 -0.20521905737E+02 -0.42402099881E+02 -0.66747113093E+01  0.47588217664E+02  0.10000000000E+01 0.  0.
    9000005    1    3    3    0    0  0.20521905737E+02  0.42402099881E+02  0.93185979217E+02  0.10442084759E+03  0.10000000000E+01 0.  0.
<mgrwt>
<rscale>  0 0.12499023E+03</rscale>
<asrwt>0</asrwt>
<pdfrwt beam="2">  1        4 0.50382921E-02 0.12499023E+03</pdfrwt>
<pdfrwt beam="1">  1       -4 0.18347718E-01 0.12499023E+03</pdfrwt>
<totfact> 0.98926474E+03</totfact>
</mgrwt>
</event>
<event>
 5    1  0.3330238E-002  0.1249977E+03  0.7818608E-02  0.1235073E+00
          4   -1    0    0  501    0  0.00000000000E+00  0.00000000000E+00  0.20371147014E+01  0.24005699962E+01  0.12700000000E+01 0.  1.
         -4   -1    0    0    0  501 -0.00000000000E+00 -0.00000000000E+00 -0.17600610538E+04  0.17600615120E+04  0.12700000000E+01 0.  1.
         25    2    1    2    0    0  0.00000000000E+00  0.00000000000E+00 -0.17580239391E+04  0.17624620820E+04  0.12499768002E+03 0.  0.
    9000005    1    3    3    0    0  0.55115257121E+02  0.19812096359E+02 -0.11862792353E+04  0.11877245619E+04  0.10000000000E+01 0.  0.
    9000005    1    3    3    0    0 -0.55115257121E+02 -0.19812096359E+02 -0.57174470380E+03  0.57473752013E+03  0.10000000000E+01 0.  0.
<mgrwt>
<rscale>  0 0.12499768E+03</rscale>
<asrwt>0</asrwt>
<pdfrwt beam="1">  1        4 0.34139702E-03 0.12499768E+03</pdfrwt>
<pdfrwt beam="2">  1       -4 0.27080550E+00 0.12499768E+03</pdfrwt>
<totfact> 0.13291576E+03</totfact>
</mgrwt>
</event>
<event>
 4    1  0.3330238E-002  0.1249384E+03  0.7818608E-02  0.1235166E+00
          4   -1    0    0  501    0  0.00000000000E+00  0.00000000000E+00  0.34562966770E+01  0.36822393620E+01  0.12700000000E+01 0.  1.
         -4   -1    0    0    0  501 -0.00000000000E+00 -0.00000000000E+00 -0.10931069392E+04  0.10931076769E+04  0.12700000000E+01 0.  1.
    9000005    1    1    2    0    0  0.66472730782E+01 -0.14828585734E+02 -0.10742677245E+04  0.10743910913E+04  0.10000000000E+01 0.  0.
    9000005    1    1    2    0    0 -0.66472730782E+01  0.14828585734E+02 -0.15382917986E+02  0.22398824969E+02  0.10000000000E+01 0.  0.
<mgrwt>
<rscale>  0 0.12493838E+03</rscale>
<asrwt>0</asrwt>
<pdfrwt beam="1">  1        4 0.54917578E-03 0.12493838E+03</pdfrwt>
<pdfrwt beam="2">  1       -4 0.16818747E+00 0.12493838E+03</pdfrwt>
<totfact> 0.27614676E+03</totfact>
</mgrwt>
</event>
<event>
 5    1  0.3330238E-002  0.1249983E+03  0.7818608E-02  0.1235072E+00
         -4   -1    0    0    0  501 -0.00000000000E+00  0.00000000000E+00  0.27458321761E+02  0.27487676037E+02  0.12700000000E+01 0.  1.
          4   -1    0    0  501    0  0.00000000000E+00 -0.00000000000E+00 -0.14214907669E+03  0.14215474984E+03  0.12700000000E+01 0.  1.
         25    2    1    2    0    0  0.00000000000E+00  0.00000000000E+00 -0.11469075492E+03  0.16964242588E+03  0.12499833356E+03 0.  0.
    9000005    1    3    3    0    0  0.29043035682E+02 -0.96131041982E+01  0.16607081831E+02  0.34823912200E+02  0.10000000000E+01 0.  0.
    9000005    1    3    3    0    0 -0.29043035682E+02  0.96131041982E+01 -0.13129783676E+03  0.13481851368E+03  0.10000000000E+01 0.  0.
<mgrwt>
<rscale>  0 0.12499833E+03</rscale>
<asrwt>0</asrwt>
<pdfrwt beam="2">  1        4 0.21871783E-01 0.12499833E+03</pdfrwt>
<pdfrwt beam="1">  1       -4 0.42270517E-02 0.12499833E+03</pdfrwt>
<totfact> 0.95518898E+03</totfact>
</mgrwt>
</event>
<event>
 5    1  0.3330238E-002  0.1250086E+03  0.7818608E-02  0.1235056E+00
          4   -1    0    0  501    0  0.00000000000E+00  0.00000000000E+00  0.60496703843E+03  0.60496837148E+03  0.12700000000E+01 0. -1.
         -4   -1    0    0    0  501 -0.00000000000E+00 -0.00000000000E+00 -0.63940547035E+01  0.65189596986E+01  0.12700000000E+01 0. -1.
         25    2    1    2    0    0  0.00000000000E+00  0.00000000000E+00  0.59857298373E+03  0.61148733118E+03  0.12500855707E+03 0.  0.
    9000005    1    3    3    0    0 -0.95254459187E+01  0.42684993293E+02  0.80909965433E+02  0.91979156762E+02  0.10000000000E+01 0.  0.
    9000005    1    3    3    0    0  0.95254459187E+01 -0.42684993293E+02  0.51766301830E+03  0.51950817442E+03  0.10000000000E+01 0.  0.
<mgrwt>
<rscale>  0 0.12500856E+03</rscale>
<asrwt>0</asrwt>
<pdfrwt beam="1">  1        4 0.93081594E-01 0.12500856E+03</pdfrwt>
<pdfrwt beam="2">  1       -4 0.99341100E-03 0.12500856E+03</pdfrwt>
<totfact> 0.48141389E+03</totfact>
</mgrwt>
</event>
<event>
 4    1  0.3330238E-002  0.1252580E+03  0.7818608E-02  0.1234667E+00
          4   -1    0    0  501    0  0.00000000000E+00  0.00000000000E+00  0.34180929517E+03  0.34181165452E+03  0.12700000000E+01 0.  1.
         -4   -1    0    0    0  501 -0.00000000000E+00 -0.00000000000E+00 -0.11437829525E+02  0.11508120796E+02  0.12700000000E+01 0.  1.
    9000005    1    1    2    0    0 -0.20077068571E+02 -0.23341339869E+02  0.31899953168E+03  0.32048339745E+03  0.10000000000E+01 0.  0.
    9000005    1    1    2    0    0  0.20077068571E+02  0.23341339869E+02  0.11371933969E+02  0.32836377868E+02  0.10000000000E+01 0.  0.
<mgrwt>
<rscale>  0 0.12525797E+03</rscale>
<asrwt>0</asrwt>
<pdfrwt beam="1">  1        4 0.52591635E-01 0.12525797E+03</pdfrwt>
<pdfrwt beam="2">  1       -4 0.17652546E-02 0.12525797E+03</pdfrwt>
<totfact> 0.68966456E+03</totfact>
</mgrwt>
</event>
<event>
 5    1  0.3330238E-002  0.1249998E+03  0.7818608E-02  0.1235070E+00
          4   -1    0    0  501    0  0.00000000000E+00  0.00000000000E+00  0.71737053814E+02  0.71748294683E+02  0.12700000000E+01 0. -1.
         -4   -1    0    0    0  501 -0.00000000000E+00 -0.00000000000E+00 -0.54429269736E+02  0.54444084196E+02  0.12700000000E+01 0. -1.
         25    2    1    2    0    0  0.00000000000E+00  0.00000000000E+00  0.17307784079E+02  0.12619237888E+03  0.12499982839E+03 0.  0.
    9000005    1    3    3    0    0 -0.32763001586E+02  0.16278760717E+02 -0.42493324712E+02  0.56081146284E+02  0.10000000000E+01 0.  0.
    9000005    1    3    3    0    0  0.32763001586E+02 -0.16278760717E+02  0.59801108791E+02  0.70111232595E+02  0.10000000000E+01 0.  0.
<mgrwt>
<rscale>  0 0.12499983E+03</rscale>
<asrwt>0</asrwt>
<pdfrwt beam="1">  1        4 0.11038474E-01 0.12499983E+03</pdfrwt>
<pdfrwt beam="2">  1       -4 0.83757381E-02 0.12499983E+03</pdfrwt>
<totfact> 0.10426786E+04</totfact>
</mgrwt>
</event>
<event>
 5    1  0.3330238E-002  0.1250018E+03  0.7818608E-02  0.1235066E+00
          4   -1    0    0  501    0  0.00000000000E+00  0.00000000000E+00  0.55604849269E+01  0.57036736076E+01  0.12700000000E+01 0.  1.
         -4   -1    0    0    0  501 -0.00000000000E+00 -0.00000000000E+00 -0.69344795759E+03  0.69344912055E+03  0.12700000000E+01 0.  1.
         25    2    1    2    0    0  0.00000000000E+00  0.00000000000E+00 -0.68788747267E+03  0.69915279416E+03  0.12500181809E+03 0.  0.
    9000005    1    3    3    0    0  0.10513593328E+02  0.30177115678E+02 -0.43567085122E+02  0.54039660078E+02  0.10000000000E+01 0.  0.
    9000005    1    3    3    0    0 -0.10513593328E+02 -0.30177115678E+02 -0.64432038755E+03  0.64511313408E+03  0.10000000000E+01 0.  0.
<mgrwt>
<rscale>  0 0.12500182E+03</rscale>
<asrwt>0</asrwt>
<pdfrwt beam="1">  1        4 0.86656374E-03 0.12500182E+03</pdfrwt>
<pdfrwt beam="2">  1       -4 0.10669534E+00 0.12500182E+03</pdfrwt>
<totfact> 0.43129756E+03</totfact>
</mgrwt>
</event>
<event>
 5    1  0.3330238E-002  0.1249962E+03  0.7818608E-02  0.1235075E+00
         -4   -1    0    0    0  501 -0.00000000000E+00  0.00000000000E+00  0.22269443017E+03  0.22269805147E+03  0.12700000000E+01 0. -1.
          4   -1    0    0  501    0  0.00000000000E+00 -0.00000000000E+00 -0.17513019976E+02  0.17559008192E+02  0.12700000000E+01 0. -1.
         25    2    1    2    0    0  0.00000000000E+00  0.00000000000E+00  0.20518141019E+03  0.24025705966E+03  0.12499617445E+03 0.  0.
    9000005    1    3    3    0    0  0.42156391792E+01  0.49163547838E+02  0.28891057898E+02  0.57188454046E+02  0.10000000000E+01 0.  0.
    9000005    1    3    3    0    0 -0.42156391792E+01 -0.49163547838E+02  0.17629035230E+03  0.18306860562E+03  0.10000000000E+01 0.  0.
<mgrwt>
<rscale>  0 0.12499617E+03</rscale>
<asrwt>0</asrwt>
<pdfrwt beam="2">  1        4 0.26981269E-02 0.12499617E+03</pdfrwt>
<pdfrwt beam="1">  1       -4 0.34264498E-01 0.12499617E+03</pdfrwt>
<totfact> 0.83766241E+03</totfact>
</mgrwt>
</event>
<event>
 5    1  0.3330238E-002  0.1249998E+03  0.7818608E-02  0.1235070E+00
          4   -1    0    0  501    0  0.00000000000E+00  0.00000000000E+00  0.11136798704E+02  0.11208977891E+02  0.12700000000E+01 0.  1.
         -4   -1    0    0    0  501 -0.00000000000E+00 -0.00000000000E+00 -0.34954430320E+03  0.34954661034E+03  0.12700000000E+01 0.  1.
         25    2    1    2    0    0  0.00000000000E+00  0.00000000000E+00 -0.33840750450E+03  0.36075558823E+03  0.12499982136E+03 0.  0.
    9000005    1    3    3    0    0  0.28704573359E+02  0.26680280639E+02 -0.28719594857E+02  0.48596347964E+02  0.10000000000E+01 0.  0.
    9000005    1    3    3    0    0 -0.28704573359E+02 -0.26680280639E+02 -0.30968790964E+03  0.31215924027E+03  0.10000000000E+01 0.  0.
<mgrwt>
<rscale>  0 0.12499982E+03</rscale>
<asrwt>0</asrwt>
<pdfrwt beam="1">  1        4 0.17190836E-02 0.12499982E+03</pdfrwt>
<pdfrwt beam="2">  1       -4 0.53781768E-01 0.12499982E+03</pdfrwt>
<totfact> 0.68557569E+03</totfact>
</mgrwt>
</event>
<event>
 5    1  0.3330238E-002  0.1249997E+03  0.7818608E-02  0.1235070E+00
          4   -1    0    0  501    0  0.00000000000E+00  0.00000000000E+00  0.44588976347E+02  0.44607058989E+02  0.12700000000E+01 0.  1.
         -4   -1    0    0    0  501 -0.00000000000E+00 -0.00000000000E+00 -0.87564892655E+02  0.87574101912E+02  0.12700000000E+01 0.  1.
         25    2    1    2    0    0  0.00000000000E+00  0.00000000000E+00 -0.42975916308E+02  0.13218116090E+03  0.12499971966E+03 0.  0.
    9000005    1    3    3    0    0 -0.42761600912E+02  0.45566277938E+02 -0.22150264765E+02  0.66305915475E+02  0.10000000000E+01 0.  0.
    9000005    1    3    3    0    0  0.42761600912E+02 -0.45566277938E+02 -0.20825651542E+02  0.65875245426E+02  0.10000000000E+01 0.  0.
<mgrwt>
<rscale>  0 0.12499972E+03</rscale>
<asrwt>0</asrwt>
<pdfrwt beam="1">  1        4 0.68619419E-02 0.12499972E+03</pdfrwt>
<pdfrwt beam="2">  1       -4 0.13473621E-01 0.12499972E+03</pdfrwt>
<totfact> 0.10297898E+04</totfact>
</mgrwt>
</event>
<event>
 5    1  0.3330238E-002  0.1250030E+03  0.7818608E-02  0.1235065E+00
         -4   -1    0    0    0  501 -0.00000000000E+00  0.00000000000E+00  0.59498893853E+02  0.59512446343E+02  0.12700000000E+01 0. -1.
          4   -1    0    0  501    0  0.00000000000E+00 -0.00000000000E+00 -0.65628486417E+02  0.65640773376E+02  0.12700000000E+01 0. -1.
         25    2    1    2    0    0  0.00000000000E+00  0.00000000000E+00 -0.61295925636E+01  0.12515321972E+03  0.12500302597E+03 0.  0.
    9000005    1    3    3    0    0 -0.29872265286E+02 -0.18642712795E+02 -0.54755660026E+02  0.65108258144E+02  0.10000000000E+01 0.  0.
    9000005    1    3    3    0    0  0.29872265286E+02  0.18642712795E+02  0.48626067463E+02  0.60044961575E+02  0.10000000000E+01 0.  0.
<mgrwt>
<rscale>  0 0.12500303E+03</rscale>
<asrwt>0</asrwt>
<pdfrwt beam="2">  1        4 0.10098678E-01 0.12500303E+03</pdfrwt>
<pdfrwt beam="1">  1       -4 0.91556636E-02 0.12500303E+03</pdfrwt>
<totfact> 0.10448821E+04</totfact>
</mgrwt>
</event>
<event>
 5    1  0.3330238E-002  0.1249998E+03  0.7818608E-02  0.1235070E+00
         -4   -1    0    0    0  501 -0.00000000000E+00  0.00000000000E+00  0.10643259775E+03  0.10644017457E+03  0.12700000000E+01 0. -1.
          4   -1    0    0  501    0  0.00000000000E+00 -0.00000000000E+00 -0.36681670314E+02  0.36703648824E+02  0.12700000000E+01 0. -1.
         25    2    1    2    0    0  0.00000000000E+00  0.00000000000E+00  0.69750927432E+02  0.14314382340E+03  0.12499984920E+03 0.  0.
    9000005    1    3    3    0    0 -0.84575626194E+01  0.52361656769E+02 -0.29659979220E+01  0.53132575777E+02  0.10000000000E+01 0.  0.
    9000005    1    3    3    0    0  0.84575626194E+01 -0.52361656769E+02  0.72716925354E+02  0.90011247619E+02  0.10000000000E+01 0.  0.
<mgrwt>
<rscale>  0 0.12499985E+03</rscale>
<asrwt>0</asrwt>
<pdfrwt beam="2">  1        4 0.56456074E-02 0.12499985E+03</pdfrwt>
<pdfrwt beam="1">  1       -4 0.16376519E-01 0.12499985E+03</pdfrwt>
<totfact> 0.10068873E+04</totfact>
</mgrwt>
</event>
<event>
 5    1  0.3330238E-002  0.1249990E+03  0.7818608E-02  0.1235071E+00
          4   -1    0    0  501    0  0.00000000000E+00  0.00000000000E+00  0.24594823472E+02  0.24627591064E+02  0.12700000000E+01 0.  1.
         -4   -1    0    0    0  501 -0.00000000000E+00 -0.00000000000E+00 -0.15868050980E+03  0.15868559194E+03  0.12700000000E+01 0.  1.
         25    2    1    2    0    0  0.00000000000E+00  0.00000000000E+00 -0.13408568633E+03  0.18331318301E+03  0.12499900714E+03 0.  0.
    9000005    1    3    3    0    0  0.20126110293E+01 -0.35874914656E+01  0.24403256886E+02  0.24767713758E+02  0.10000000000E+01 0.  0.
    9000005    1    3    3    0    0 -0.20126110293E+01  0.35874914656E+01 -0.15848894321E+03  0.15854546925E+03  0.10000000000E+01 0.  0.
<mgrwt>
<rscale>  0 0.12499901E+03</rscale>
<asrwt>0</asrwt>
<pdfrwt beam="1">  1        4 0.37867306E-02 0.12499901E+03</pdfrwt>
<pdfrwt beam="2">  1       -4 0.24415297E-01 0.12499901E+03</pdfrwt>
<totfact> 0.93026067E+03</totfact>
</mgrwt>
</event>
<event>
 5    1  0.3330238E-002  0.1250008E+03  0.7818608E-02  0.1235068E+00
          4   -1    0    0  501    0  0.00000000000E+00  0.00000000000E+00  0.93117878730E+02  0.93126538855E+02  0.12700000000E+01 0. -1.
         -4   -1    0    0    0  501 -0.00000000000E+00 -0.00000000000E+00 -0.41929808515E+02  0.41949037440E+02  0.12700000000E+01 0. -1.
         25    2    1    2    0    0  0.00000000000E+00  0.00000000000E+00  0.51188070214E+02  0.13507557629E+03  0.12500077111E+03 0.  0.
    9000005    1    3    3    0    0  0.46931481394E+02 -0.32114198602E+02 -0.24060174974E+01  0.56926923489E+02  0.10000000000E+01 0.  0.
    9000005    1    3    3    0    0 -0.46931481394E+02  0.32114198602E+02  0.53594087712E+02  0.78148652806E+02  0.10000000000E+01 0.  0.
<mgrwt>
<rscale>  0 0.12500077E+03</rscale>
<asrwt>0</asrwt>
<pdfrwt beam="1">  1        4 0.14327973E-01 0.12500077E+03</pdfrwt>
<pdfrwt beam="2">  1       -4 0.64528851E-02 0.12500077E+03</pdfrwt>
<totfact> 0.10236300E+04</totfact>
</mgrwt>
</event>
<event>
 5    1  0.3330238E-002  0.1249995E+03  0.7818608E-02  0.1235070E+00
          4   -1    0    0  501    0  0.00000000000E+00  0.00000000000E+00  0.35179736194E+02  0.35202652438E+02  0.12700000000E+01 0.  1.
         -4   -1    0    0    0  501 -0.00000000000E+00 -0.00000000000E+00 -0.11097340162E+03  0.11098066844E+03  0.12700000000E+01 0.  1.
         25    2    1    2    0    0  0.00000000000E+00  0.00000000000E+00 -0.75793665431E+02  0.14618332088E+03  0.12499953434E+03 0.  0.
    9000005    1    3    3    0    0  0.14617702623E+02  0.57283012960E+02 -0.14211073751E+02  0.60810981088E+02  0.10000000000E+01 0.  0.
    9000005    1    3    3    0    0 -0.14617702623E+02 -0.57283012960E+02 -0.61582591680E+02  0.85372339793E+02  0.10000000000E+01 0.  0.
<mgrwt>
<rscale>  0 0.12499953E+03</rscale>
<asrwt>0</asrwt>
<pdfrwt beam="1">  1        4 0.54145889E-02 0.12499953E+03</pdfrwt>
<pdfrwt beam="2">  1       -4 0.17075153E-01 0.12499953E+03</pdfrwt>
<totfact> 0.10007106E+04</totfact>
</mgrwt>
</event>
<event>
 5    1  0.3330238E-002  0.1249961E+03  0.7818608E-02  0.1235075E+00
          4   -1    0    0  501    0  0.00000000000E+00  0.00000000000E+00  0.99270199920E+02  0.99278323375E+02  0.12700000000E+01 0.  1.
         -4   -1    0    0    0  501 -0.00000000000E+00 -0.00000000000E+00 -0.39327223871E+02  0.39347724679E+02  0.12700000000E+01 0.  1.
         25    2    1    2    0    0  0.00000000000E+00  0.00000000000E+00  0.59942976049E+02  0.13862604805E+03  0.12499608323E+03 0.  0.
    9000005    1    3    3    0    0 -0.51766608978E+02  0.33426250257E+01  0.68614126409E+02  0.86022399932E+02  0.10000000000E+01 0.  0.
    9000005    1    3    3    0    0  0.51766608978E+02 -0.33426250257E+01 -0.86711503608E+01  0.52603648122E+02  0.10000000000E+01 0.  0.
<mgrwt>
<rscale>  0 0.12499608E+03</rscale>
<asrwt>0</asrwt>
<pdfrwt beam="1">  1        4 0.15274541E-01 0.12499608E+03</pdfrwt>
<pdfrwt beam="2">  1       -4 0.60525439E-02 0.12499608E+03</pdfrwt>
<totfact> 0.10163038E+04</totfact>
</mgrwt>
</event>
<event>
 5    1  0.3330238E-002  0.1249983E+03  0.7818608E-02  0.1235072E+00
         -4   -1    0    0    0  501 -0.00000000000E+00  0.00000000000E+00  0.82297129780E+02  0.82306928445E+02  0.12700000000E+01 0. -1.
          4   -1    0    0  501    0  0.00000000000E+00 -0.00000000000E+00 -0.47442815067E+02  0.47459810382E+02  0.12700000000E+01 0. -1.
         25    2    1    2    0    0  0.00000000000E+00  0.00000000000E+00  0.34854314714E+02  0.12976673883E+03  0.12499833300E+03 0.  0.
    9000005    1    3    3    0    0 -0.39985275530E+02 -0.47554937338E+02  0.10474551666E+02  0.63015954781E+02  0.10000000000E+01 0.  0.
    9000005    1    3    3    0    0  0.39985275530E+02  0.47554937338E+02  0.24379763048E+02  0.66750784045E+02  0.10000000000E+01 0.  0.
<mgrwt>
<rscale>  0 0.12499833E+03</rscale>
<asrwt>0</asrwt>
<pdfrwt beam="2">  1        4 0.73009558E-02 0.12499833E+03</pdfrwt>
<pdfrwt beam="1">  1       -4 0.12663158E-01 0.12499833E+03</pdfrwt>
<totfact> 0.10349889E+04</totfact>
</mgrwt>
</event>
<event>
 5    1  0.3330238E-002  0.1250004E+03  0.7818608E-02  0.1235069E+00
         -4   -1    0    0    0  501 -0.00000000000E+00  0.00000000000E+00  0.26023778230E+03  0.26024088117E+03  0.12700000000E+01 0.  1.
          4   -1    0    0  501    0  0.00000000000E+00 -0.00000000000E+00 -0.14980339706E+02  0.15034077215E+02  0.12700000000E+01 0.  1.
         25    2    1    2    0    0  0.00000000000E+00  0.00000000000E+00  0.24525744259E+03  0.27527495839E+03  0.12500035828E+03 0.  0.
    9000005    1    3    3    0    0  0.27552075077E+02  0.55860992267E+02  0.11146355876E+03  0.12768982822E+03  0.10000000000E+01 0.  0.
    9000005    1    3    3    0    0 -0.27552075077E+02 -0.55860992267E+02  0.13379388383E+03  0.14758513017E+03  0.10000000000E+01 0.  0.
<mgrwt>
<rscale>  0 0.12500036E+03</rscale>
<asrwt>0</asrwt>
<pdfrwt beam="2">  1        4 0.23090398E-02 0.12500036E+03</pdfrwt>
<pdfrwt beam="1">  1       -4 0.40040952E-01 0.12500036E+03</pdfrwt>
<totfact> 0.78808184E+03</totfact>
</mgrwt>
</event>
<event>
 5    1  0.3330238E-002  0.1250025E+03  0.7818608E-02  0.1235065E+00
         -4   -1    0    0    0  501 -0.00000000000E+00  0.00000000000E+00  0.13371029106E+02  0.13431206921E+02  0.12700000000E+01 0. -1.
          4   -1    0    0  501    0  0.00000000000E+00 -0.00000000000E+00 -0.29143706404E+03  0.29143983118E+03  0.12700000000E+01 0. -1.
         25    2    1    2    0    0  0.00000000000E+00  0.00000000000E+00 -0.27806603494E+03  0.30487103810E+03  0.12500252032E+03 0.  0.
    9000005    1    3    3    0    0 -0.43590030009E+02 -0.39227299510E+02 -0.86353731725E+02  0.10438792423E+03  0.10000000000E+01 0.  0.
    9000005    1    3    3    0    0  0.43590030009E+02  0.39227299510E+02 -0.19171230321E+03  0.20048311387E+03  0.10000000000E+01 0.  0.
<mgrwt>
<rscale>  0 0.12500252E+03</rscale>
<asrwt>0</asrwt>
<pdfrwt beam="2">  1        4 0.44841309E-01 0.12500252E+03</pdfrwt>
<pdfrwt beam="1">  1       -4 0.20619235E-02 0.12500252E+03</pdfrwt>
<totfact> 0.74987667E+03</totfact>
</mgrwt>
</event>
<event>
 5    1  0.3330238E-002  0.1249951E+03  0.7818608E-02  0.1235077E+00
         -4   -1    0    0    0  501 -0.00000000000E+00  0.00000000000E+00  0.13841855233E+03  0.13842437837E+03  0.12700000000E+01 0.  1.
          4   -1    0    0  501    0  0.00000000000E+00 -0.00000000000E+00 -0.28197655874E+02  0.28226241280E+02  0.12700000000E+01 0.  1.
         25    2    1    2    0    0  0.00000000000E+00  0.00000000000E+00  0.11022089645E+03  0.16665061965E+03  0.12499513197E+03 0.  0.
    9000005    1    3    3    0    0 -0.15914237047E+01 -0.53791829198E+02  0.12762964099E+02  0.55317147165E+02  0.10000000000E+01 0.  0.
    9000005    1    3    3    0    0  0.15914237047E+01  0.53791829198E+02  0.97457932354E+02  0.11133347249E+03  0.10000000000E+01 0.  0.
<mgrwt>
<rscale>  0 0.12499513E+03</rscale>
<asrwt>0</asrwt>
<pdfrwt beam="2">  1        4 0.43407479E-02 0.12499513E+03</pdfrwt>
<pdfrwt beam="1">  1       -4 0.21297809E-01 0.12499513E+03</pdfrwt>
<totfact> 0.96086207E+03</totfact>
</mgrwt>
</event>
<event>
 5    1  0.3330238E-002  0.1250001E+03  0.7818608E-02  0.1235069E+00
          4   -1    0    0  501    0  0.00000000000E+00  0.00000000000E+00  0.28895954934E+03  0.28896234020E+03  0.12700000000E+01 0. -1.
         -4   -1    0    0    0  501 -0.00000000000E+00 -0.00000000000E+00 -0.13485658146E+02  0.13545326708E+02  0.12700000000E+01 0. -1.
         25    2    1    2    0    0  0.00000000000E+00  0.00000000000E+00  0.27547389119E+03  0.30250766691E+03  0.12500009524E+03 0.  0.
    9000005    1    3    3    0    0  0.12001644894E+02  0.18800961790E+02  0.27900998468E+03  0.27990192424E+03  0.10000000000E+01 0.  0.
    9000005    1    3    3    0    0 -0.12001644894E+02 -0.18800961790E+02 -0.35360934842E+01  0.22605742667E+02  0.10000000000E+01 0.  0.
<mgrwt>
<rscale>  0 0.12500010E+03</rscale>
<asrwt>0</asrwt>
<pdfrwt beam="1">  1        4 0.44460119E-01 0.12500010E+03</pdfrwt>
<pdfrwt beam="2">  1       -4 0.20795213E-02 0.12500010E+03</pdfrwt>
<totfact> 0.75285194E+03</totfact>
</mgrwt>
</event>
<event>
 5    1  0.3330238E-002  0.1249940E+03  0.7818608E-02  0.1235079E+00
          4   -1    0    0  501    0  0.00000000000E+00  0.00000000000E+00  0.76709817780E+03  0.76709922909E+03  0.12700000000E+01 0. -1.
         -4   -1    0    0    0  501 -0.00000000000E+00 -0.00000000000E+00 -0.50114871814E+01  0.51699036518E+01  0.12700000000E+01 0. -1.
         25    2    1    2    0    0  0.00000000000E+00  0.00000000000E+00  0.76208669061E+03  0.77226913275E+03  0.12499395738E+03 0.  0.
    9000005    1    3    3    0    0 -0.58127389114E+02 -0.16399199870E+02  0.48011944224E+03  0.48390433552E+03  0.10000000000E+01 0.  0.
    9000005    1    3    3    0    0  0.58127389114E+02  0.16399199870E+02  0.28196724838E+03  0.28836479722E+03  0.10000000000E+01 0.  0.
<mgrwt>
<rscale>  0 0.12499396E+03</rscale>
<asrwt>0</asrwt>
<pdfrwt beam="1">  1        4 0.11802723E+00 0.12499396E+03</pdfrwt>
<pdfrwt beam="2">  1       -4 0.78326574E-03 0.12499396E+03</pdfrwt>
<totfact> 0.39536223E+03</totfact>
</mgrwt>
</event>
<event>
 5    1  0.3330238E-002  0.1250053E+03  0.7818608E-02  0.1235061E+00
          4   -1    0    0  501    0  0.00000000000E+00  0.00000000000E+00  0.14823821111E+02  0.14878123952E+02  0.12700000000E+01 0.  1.
         -4   -1    0    0    0  501 -0.00000000000E+00 -0.00000000000E+00 -0.26299623443E+03  0.26299930081E+03  0.12700000000E+01 0.  1.
         25    2    1    2    0    0  0.00000000000E+00  0.00000000000E+00 -0.24817241332E+03  0.27787742476E+03  0.12500526572E+03 0.  0.
    9000005    1    3    3    0    0  0.39053049322E+02 -0.46384051360E+02 -0.90450303792E+02  0.10889847721E+03  0.10000000000E+01 0.  0.
    9000005    1    3    3    0    0 -0.39053049322E+02  0.46384051360E+02 -0.15772210953E+03  0.16897894755E+03  0.10000000000E+01 0.  0.
<mgrwt>
<rscale>  0 0.12500527E+03</rscale>
<asrwt>0</asrwt>
<pdfrwt beam="1">  1        4 0.22850011E-02 0.12500527E+03</pdfrwt>
<pdfrwt beam="2">  1       -4 0.40465369E-01 0.12500527E+03</pdfrwt>
<totfact> 0.78451205E+03</totfact>
</mgrwt>
</event>
<event>
 5    1  0.3330238E-002  0.1249989E+03  0.7818608E-02  0.1235071E+00
          4   -1    0    0  501    0  0.00000000000E+00  0.00000000000E+00  0.98174777160E+01  0.98992812216E+01  0.12700000000E+01 0.  1.
         -4   -1    0    0    0  501 -0.00000000000E+00 -0.00000000000E+00 -0.39614695787E+03  0.39614899360E+03  0.12700000000E+01 0.  1.
         25    2    1    2    0    0  0.00000000000E+00  0.00000000000E+00 -0.38632948016E+03  0.40604827482E+03  0.12499893699E+03 0.  0.
    9000005    1    3    3    0    0 -0.10750548987E+02  0.61557019384E+02 -0.19506616768E+03  0.20483322659E+03  0.10000000000E+01 0.  0.
    9000005    1    3    3    0    0  0.10750548987E+02 -0.61557019384E+02 -0.19126331247E+03  0.20121504824E+03  0.10000000000E+01 0.  0.
<mgrwt>
<rscale>  0 0.12499894E+03</rscale>
<asrwt>0</asrwt>
<pdfrwt beam="1">  1        4 0.15168307E-02 0.12499894E+03</pdfrwt>
<pdfrwt beam="2">  1       -4 0.60952122E-01 0.12499894E+03</pdfrwt>
<totfact> 0.63970268E+03</totfact>
</mgrwt>
</event>
<event>
 5    1  0.3330238E-002  0.1249550E+03  0.7818608E-02  0.1235140E+00
          4   -1    0    0  501    0  0.00000000000E+00  0.00000000000E+00  0.10668276509E+03  0.10669032415E+03  0.12700000000E+01 0.  1.
         -4   -1    0    0    0  501 -0.00000000000E+00 -0.00000000000E+00 -0.36569326272E+02  0.36591372262E+02  0.12700000000E+01 0.  1.
         25    2    1    2    0    0  0.00000000000E+00  0.00000000000E+00  0.70113438821E+02  0.14328169641E+03  0.12495499279E+03 0.  0.
    9000005    1    3    3    0    0 -0.17355560461E+02 -0.44498891426E+02  0.81224402942E+02  0.94232533927E+02  0.10000000000E+01 0.  0.
    9000005    1    3    3    0    0  0.17355560461E+02  0.44498891426E+02 -0.11110964121E+02  0.49049162487E+02  0.10000000000E+01 0.  0.
<mgrwt>
<rscale>  0 0.12495499E+03</rscale>
<asrwt>0</asrwt>
<pdfrwt beam="1">  1        4 0.16415010E-01 0.12495499E+03</pdfrwt>
<pdfrwt beam="2">  1       -4 0.56283277E-02 0.12495499E+03</pdfrwt>
<totfact> 0.10076228E+04</totfact>
</mgrwt>
</event>
<event>
 5    1  0.3330238E-002  0.1249918E+03  0.7818608E-02  0.1235082E+00
          4   -1    0    0  501    0  0.00000000000E+00  0.00000000000E+00  0.19361343632E+02  0.19402951509E+02  0.12700000000E+01 0.  1.
         -4   -1    0    0    0  501 -0.00000000000E+00 -0.00000000000E+00 -0.20146847483E+03  0.20147247765E+03  0.12700000000E+01 0.  1.
         25    2    1    2    0    0  0.00000000000E+00  0.00000000000E+00 -0.18210713120E+03  0.22087542916E+03  0.12499179162E+03 0.  0.
    9000005    1    3    3    0    0  0.10834852839E+02  0.57572114002E+02 -0.12947753150E+03  0.14211746378E+03  0.10000000000E+01 0.  0.
    9000005    1    3    3    0    0 -0.10834852839E+02 -0.57572114002E+02 -0.52629599694E+02  0.78757965379E+02  0.10000000000E+01 0.  0.
<mgrwt>
<rscale>  0 0.12499179E+03</rscale>
<asrwt>0</asrwt>
<pdfrwt beam="1">  1        4 0.29821769E-02 0.12499179E+03</pdfrwt>
<pdfrwt beam="2">  1       -4 0.30998657E-01 0.12499179E+03</pdfrwt>
<totfact> 0.86745917E+03</totfact>
</mgrwt>
</event>
<event>
 5    1  0.3330238E-002  0.1250015E+03  0.7818608E-02  0.1235067E+00
          4   -1    0    0  501    0  0.00000000000E+00  0.00000000000E+00  0.16285049511E+03  0.16285544712E+03  0.12700000000E+01 0. -1.
         -4   -1    0    0    0  501 -0.00000000000E+00 -0.00000000000E+00 -0.23965176140E+02  0.23998803458E+02  0.12700000000E+01 0. -1.
         25    2    1    2    0    0  0.00000000000E+00  0.00000000000E+00  0.13888531897E+03  0.18685425058E+03  0.12500151653E+03 0.  0.
    9000005    1    3    3    0    0  0.62249100366E+02  0.24785463101E+01  0.62081378735E+02  0.87955621047E+02  0.10000000000E+01 0.  0.
    9000005    1    3    3    0    0 -0.62249100366E+02 -0.24785463101E+01  0.76803940235E+02  0.98898629534E+02  0.10000000000E+01 0.  0.
<mgrwt>
<rscale>  0 0.12500152E+03</rscale>
<asrwt>0</asrwt>
<pdfrwt beam="1">  1        4 0.25056891E-01 0.12500152E+03</pdfrwt>
<pdfrwt beam="2">  1       -4 0.36899177E-02 0.12500152E+03</pdfrwt>
<totfact> 0.92394422E+03</totfact>
</mgrwt>
</event>
<event>
 5    1  0.3330238E-002  0.1250025E+03  0.7818608E-02  0.1235065E+00
         -4   -1    0    0    0  501 -0.00000000000E+00  0.00000000000E+00  0.12052474683E+03  0.12053143780E+03  0.12700000000E+01 0.  1.
          4   -1    0    0  501    0  0.00000000000E+00 -0.00000000000E+00 -0.32391643731E+02  0.32416531024E+02  0.12700000000E+01 0.  1.
         25    2    1    2    0    0  0.00000000000E+00  0.00000000000E+00  0.88133103100E+02  0.15294796883E+03  0.12500254920E+03 0.  0.
    9000005    1    3    3    0    0 -0.59573686374E+01  0.44299989679E+02  0.97504422714E+02  0.10726645224E+03  0.10000000000E+01 0.  0.
    9000005    1    3    3    0    0  0.59573686374E+01 -0.44299989679E+02 -0.93713196148E+01  0.45681516590E+02  0.10000000000E+01 0.  0.
<mgrwt>
<rscale>  0 0.12500255E+03</rscale>
<asrwt>0</asrwt>
<pdfrwt beam="2">  1        4 0.49857588E-02 0.12500255E+03</pdfrwt>
<pdfrwt beam="1">  1       -4 0.18544698E-01 0.12500255E+03</pdfrwt>
<totfact> 0.98713616E+03</totfact>
</mgrwt>
</event>
<event>
 5    1  0.3330238E-002  0.1249987E+03  0.7818608E-02  0.1235071E+00
         -4   -1    0    0    0  501 -0.00000000000E+00  0.00000000000E+00  0.41955157900E+03  0.41955350117E+03  0.12700000000E+01 0.  1.
          4   -1    0    0  501    0  0.00000000000E+00 -0.00000000000E+00 -0.92650861166E+01  0.93517228759E+01  0.12700000000E+01 0.  1.
         25    2    1    2    0    0  0.00000000000E+00  0.00000000000E+00  0.41028649288E+03  0.42890522404E+03  0.12499873987E+03 0.  0.
    9000005    1    3    3    0    0 -0.47789612559E+02 -0.40129597349E+02  0.21649221071E+03  0.22530891893E+03  0.10000000000E+01 0.  0.
    9000005    1    3    3    0    0  0.47789612559E+02  0.40129597349E+02  0.19379428217E+03  0.20359630511E+03  0.10000000000E+01 0.  0.
<mgrwt>
<rscale>  0 0.12499874E+03</rscale>
<asrwt>0</asrwt>
<pdfrwt beam="2">  1        4 0.14322104E-02 0.12499874E+03</pdfrwt>
<pdfrwt beam="1">  1       -4 0.64553195E-01 0.12499874E+03</pdfrwt>
<totfact> 0.61837076E+03</totfact>
</mgrwt>
</event>
<event>
 5    1  0.3330238E-002  0.1250000E+03  0.7818608E-02  0.1235069E+00
          4   -1    0    0  501    0  0.00000000000E+00  0.00000000000E+00  0.12149350988E+02  0.12215548674E+02  0.12700000000E+01 0. -1.
         -4   -1    0    0    0  501 -0.00000000000E+00 -0.00000000000E+00 -0.32057827536E+03  0.32058079096E+03  0.12700000000E+01 0. -1.
         25    2    1    2    0    0  0.00000000000E+00  0.00000000000E+00 -0.30842892437E+03  0.33279633964E+03  0.12500000914E+03 0.  0.
    9000005    1    3    3    0    0 -0.40675651427E+02 -0.22099473546E+02 -0.26598188089E+03  0.26998195553E+03  0.10000000000E+01 0.  0.
    9000005    1    3    3    0    0  0.40675651427E+02  0.22099473546E+02 -0.42447043483E+02  0.62814384105E+02  0.10000000000E+01 0.  0.
<mgrwt>
<rscale>  0 0.12500001E+03</rscale>
<asrwt>0</asrwt>
<pdfrwt beam="1">  1        4 0.18744168E-02 0.12500001E+03</pdfrwt>
<pdfrwt beam="2">  1       -4 0.49325014E-01 0.12500001E+03</pdfrwt>
<totfact> 0.71659568E+03</totfact>
</mgrwt>
</event>
<event>
 5    1  0.3330238E-002  0.1249922E+03  0.7818608E-02  0.1235082E+00
          4   -1    0    0  501    0  0.00000000000E+00  0.00000000000E+00  0.65432073652E+01  0.66653178937E+01  0.12700000000E+01 0.  1.
         -4   -1    0    0    0  501 -0.00000000000E+00 -0.00000000000E+00 -0.59127721411E+03  0.59127857802E+03  0.12700000000E+01 0.  1.
         25    2    1    2    0    0  0.00000000000E+00  0.00000000000E+00 -0.58473400674E+03  0.59794389591E+03  0.12499217582E+03 0.  0.
    9000005    1    3    3    0    0  0.36258967682E+02 -0.50884860961E+02 -0.29658979644E+03  0.30310145029E+03  0.10000000000E+01 0.  0.
    9000005    1    3    3    0    0 -0.36258967682E+02  0.50884860961E+02 -0.28814421030E+03  0.29484244562E+03  0.10000000000E+01 0.  0.
<mgrwt>
<rscale>  0 0.12499218E+03</rscale>
<asrwt>0</asrwt>
<pdfrwt beam="1">  1        4 0.10161458E-02 0.12499218E+03</pdfrwt>
<pdfrwt beam="2">  1       -4 0.90975182E-01 0.12499218E+03</pdfrwt>
<totfact> 0.49006079E+03</totfact>
</mgrwt>
</event>
<event>
 5    1  0.3330238E-002  0.1250372E+03  0.7818608E-02  0.1235011E+00
         -4   -1    0    0    0  501 -0.00000000000E+00  0.00000000000E+00  0.14422532581E+02  0.14478340583E+02  0.12700000000E+01 0. -1.
          4   -1    0    0  501    0  0.00000000000E+00 -0.00000000000E+00 -0.27042429486E+03  0.27042727701E+03  0.12700000000E+01 0. -1.
         25    2    1    2    0    0  0.00000000000E+00  0.00000000000E+00 -0.25600176228E+03  0.28490561759E+03  0.12503722904E+03 0.  0.
    9000005    1    3    3    0    0  0.13247601965E+02 -0.33063824898E+02 -0.10951267191E+02  0.37277952302E+02  0.10000000000E+01 0.  0.
    9000005    1    3    3    0    0 -0.13247601965E+02  0.33063824898E+02 -0.24505049509E+03  0.24762766529E+03  0.10000000000E+01 0.  0.
<mgrwt>
<rscale>  0 0.12503723E+03</rscale>
<asrwt>0</asrwt>
<pdfrwt beam="2">  1        4 0.41608256E-01 0.12503723E+03</pdfrwt>
<pdfrwt beam="1">  1       -4 0.22233737E-02 0.12503723E+03</pdfrwt>
<totfact> 0.77468017E+03</totfact>
</mgrwt>
</event>
<event>
 5    1  0.3330238E-002  0.1249989E+03  0.7818608E-02  0.1235071E+00
          4   -1    0    0  501    0  0.00000000000E+00  0.00000000000E+00  0.50617499992E+02  0.50633429723E+02  0.12700000000E+01 0.  1.
         -4   -1    0    0    0  501 -0.00000000000E+00 -0.00000000000E+00 -0.77137274624E+02  0.77147728654E+02  0.12700000000E+01 0.  1.
         25    2    1    2    0    0  0.00000000000E+00  0.00000000000E+00 -0.26519774631E+02  0.12778115838E+03  0.12499890395E+03 0.  0.
    9000005    1    3    3    0    0  0.20017213418E+01  0.54476739289E+02  0.17972728027E+02  0.57408544352E+02  0.10000000000E+01 0.  0.
    9000005    1    3    3    0    0 -0.20017213418E+01 -0.54476739289E+02 -0.44492502658E+02  0.70372614025E+02  0.10000000000E+01 0.  0.
<mgrwt>
<rscale>  0 0.12499890E+03</rscale>
<asrwt>0</asrwt>
<pdfrwt beam="1">  1        4 0.77893372E-02 0.12499890E+03</pdfrwt>
<pdfrwt beam="2">  1       -4 0.11869303E-01 0.12499890E+03</pdfrwt>
<totfact> 0.10392474E+04</totfact>
</mgrwt>
</event>
<event>
 5    1  0.3330238E-002  0.1250031E+03  0.7818608E-02  0.1235064E+00
          4   -1    0    0  501    0  0.00000000000E+00  0.00000000000E+00  0.28512372613E+02  0.28540642810E+02  0.12700000000E+01 0.  1.
         -4   -1    0    0    0  501 -0.00000000000E+00 -0.00000000000E+00 -0.13690956913E+03  0.13691545939E+03  0.12700000000E+01 0.  1.
         25    2    1    2    0    0  0.00000000000E+00  0.00000000000E+00 -0.10839719652E+03  0.16545610220E+03  0.12500307813E+03 0.  0.
    9000005    1    3    3    0    0  0.19255202948E+02 -0.20383729263E+02 -0.12812209777E+03  0.13115842023E+03  0.10000000000E+01 0.  0.
    9000005    1    3    3    0    0 -0.19255202948E+02  0.20383729263E+02  0.19724901253E+02  0.34297681972E+02  0.10000000000E+01 0.  0.
<mgrwt>
<rscale>  0 0.12500308E+03</rscale>
<asrwt>0</asrwt>
<pdfrwt beam="1">  1        4 0.43891467E-02 0.12500308E+03</pdfrwt>
<pdfrwt beam="2">  1       -4 0.21065638E-01 0.12500308E+03</pdfrwt>
<totfact> 0.96294425E+03</totfact>
</mgrwt>
</event>
<event>
 5    1  0.3330238E-002  0.1250036E+03  0.7818608E-02  0.1235064E+00
          4   -1    0    0  501    0  0.00000000000E+00  0.00000000000E+00  0.97907431083E+03  0.97907513452E+03  0.12700000000E+01 0.  1.
         -4   -1    0    0    0  501 -0.00000000000E+00 -0.00000000000E+00 -0.38880635181E+01  0.40902246786E+01  0.12700000000E+01 0.  1.
         25    2    1    2    0    0  0.00000000000E+00  0.00000000000E+00  0.97518624731E+03  0.98316535919E+03  0.12500362624E+03 0.  0.
    9000005    1    3    3    0    0  0.48266221240E+02 -0.39660173730E+02  0.47415519946E+03  0.47825381406E+03  0.10000000000E+01 0.  0.
    9000005    1    3    3    0    0 -0.48266221240E+02  0.39660173730E+02  0.50103104785E+03  0.50491154513E+03  0.10000000000E+01 0.  0.
<mgrwt>
<rscale>  0 0.12500363E+03</rscale>
<asrwt>0</asrwt>
<pdfrwt beam="1">  1        4 0.15064255E+00 0.12500363E+03</pdfrwt>
<pdfrwt beam="2">  1       -4 0.61377737E-03 0.12500363E+03</pdfrwt>
<totfact> 0.31164456E+03</totfact>
</mgrwt>
</event>
<event>
 5    1  0.3330238E-002  0.1249952E+03  0.7818608E-02  0.1235077E+00
          4   -1    0    0  501    0  0.00000000000E+00  0.00000000000E+00  0.10216413481E+04  0.10216421374E+04  0.12700000000E+01 0. -1.
         -4   -1    0    0    0  501 -0.00000000000E+00 -0.00000000000E+00 -0.37169312772E+01  0.39279101465E+01  0.12700000000E+01 0. -1.
         25    2    1    2    0    0  0.00000000000E+00  0.00000000000E+00  0.10179244168E+04  0.10255700476E+04  0.12499521670E+03 0.  0.
    9000005    1    3    3    0    0 -0.30650568213E+02  0.16018109816E+02  0.81921247580E+02  0.88927655872E+02  0.10000000000E+01 0.  0.
    9000005    1    3    3    0    0  0.30650568213E+02 -0.16018109816E+02  0.93600316921E+03  0.93664239171E+03  0.10000000000E+01 0.  0.
<mgrwt>
<rscale>  0 0.12499522E+03</rscale>
<asrwt>0</asrwt>
<pdfrwt beam="1">  1        4 0.15719185E+00 0.12499522E+03</pdfrwt>
<pdfrwt beam="2">  1       -4 0.58812555E-03 0.12499522E+03</pdfrwt>
<totfact> 0.29773099E+03</totfact>
</mgrwt>
</event>
<event>
 5    1  0.3330238E-002  0.1250044E+03  0.7818608E-02  0.1235062E+00
          4   -1    0    0  501    0  0.00000000000E+00  0.00000000000E+00  0.58693061608E+03  0.58693199009E+03  0.12700000000E+01 0. -1.
         -4   -1    0    0    0  501 -0.00000000000E+00 -0.00000000000E+00 -0.65938778032E+01  0.67150669754E+01  0.12700000000E+01 0. -1.
         25    2    1    2    0    0  0.00000000000E+00  0.00000000000E+00  0.58033673828E+03  0.59364705707E+03  0.12500439420E+03 0.  0.
    9000005    1    3    3    0    0  0.47034291810E+02 -0.35618738248E+02  0.38802626162E+03  0.39248732315E+03  0.10000000000E+01 0.  0.
    9000005    1    3    3    0    0 -0.47034291810E+02  0.35618738248E+02  0.19231047665E+03  0.20115973392E+03  0.10000000000E+01 0.  0.
<mgrwt>
<rscale>  0 0.12500439E+03</rscale>
<asrwt>0</asrwt>
<pdfrwt beam="1">  1        4 0.90306438E-01 0.12500439E+03</pdfrwt>
<pdfrwt beam="2">  1       -4 0.10238708E-02 0.12500439E+03</pdfrwt>
<totfact> 0.49266353E+03</totfact>
</mgrwt>
</event>
<event>
 5    1  0.3330238E-002  0.1249998E+03  0.7818608E-02  0.1235070E+00
         -4   -1    0    0    0  501 -0.00000000000E+00  0.00000000000E+00  0.21710320492E+03  0.21710691948E+03  0.12700000000E+01 0. -1.
          4   -1    0    0  501    0  0.00000000000E+00 -0.00000000000E+00 -0.17966259597E+02  0.18011090581E+02  0.12700000000E+01 0. -1.
         25    2    1    2    0    0  0.00000000000E+00  0.00000000000E+00  0.19913694532E+03  0.23511801006E+03  0.12499982265E+03 0.  0.
    9000005    1    3    3    0    0 -0.24262535913E+02  0.19894988514E+02 -0.20854789302E+01  0.31461570833E+02  0.10000000000E+01 0.  0.
    9000005    1    3    3    0    0  0.24262535913E+02 -0.19894988514E+02  0.20122242425E+03  0.20365643922E+03  0.10000000000E+01 0.  0.
<mgrwt>
<rscale>  0 0.12499982E+03</rscale>
<asrwt>0</asrwt>
<pdfrwt beam="2">  1        4 0.27677745E-02 0.12499982E+03</pdfrwt>
<pdfrwt beam="1">  1       -4 0.33404224E-01 0.12499982E+03</pdfrwt>
<totfact> 0.84530204E+03</totfact>
</mgrwt>
</event>
<event>
 5    1  0.3330238E-002  0.1249940E+03  0.7818608E-02  0.1235079E+00
         -4   -1    0    0    0  501 -0.00000000000E+00  0.00000000000E+00  0.36410060215E+02  0.36432202580E+02  0.12700000000E+01 0.  1.
          4   -1    0    0  501    0  0.00000000000E+00 -0.00000000000E+00 -0.10721606621E+03  0.10722358767E+03  0.12700000000E+01 0.  1.
         25    2    1    2    0    0  0.00000000000E+00  0.00000000000E+00 -0.70806005993E+02  0.14365579025E+03  0.12499398221E+03 0.  0.
    9000005    1    3    3    0    0  0.41804025693E-01 -0.58325467833E+02 -0.61179457626E+02  0.84532762766E+02  0.10000000000E+01 0.  0.
    9000005    1    3    3    0    0 -0.41804025693E-01  0.58325467833E+02 -0.96265483668E+01  0.59123027484E+02  0.10000000000E+01 0.  0.
<mgrwt>
<rscale>  0 0.12499398E+03</rscale>
<asrwt>0</asrwt>
<pdfrwt beam="2">  1        4 0.16497061E-01 0.12499398E+03</pdfrwt>
<pdfrwt beam="1">  1       -4 0.56038296E-02 0.12499398E+03</pdfrwt>
<totfact> 0.10059735E+04</totfact>
</mgrwt>
</event>
<event>
 5    1  0.3330238E-002  0.1250004E+03  0.7818608E-02  0.1235069E+00
         -4   -1    0    0    0  501 -0.00000000000E+00  0.00000000000E+00  0.89949232499E+01  0.90841369580E+01  0.12700000000E+01 0.  1.
          4   -1    0    0  501    0  0.00000000000E+00 -0.00000000000E+00 -0.43204222882E+03  0.43204409541E+03  0.12700000000E+01 0.  1.
         25    2    1    2    0    0  0.00000000000E+00  0.00000000000E+00 -0.42304730557E+03  0.44112823237E+03  0.12500037859E+03 0.  0.
    9000005    1    3    3    0    0 -0.10100376887E+02 -0.42348573204E+02 -0.53312963238E+02  0.68838153046E+02  0.10000000000E+01 0.  0.
    9000005    1    3    3    0    0  0.10100376887E+02  0.42348573204E+02 -0.36973434233E+03  0.37229007933E+03  0.10000000000E+01 0.  0.
<mgrwt>
<rscale>  0 0.12500038E+03</rscale>
<asrwt>0</asrwt>
<pdfrwt beam="2">  1        4 0.66475025E-01 0.12500038E+03</pdfrwt>
<pdfrwt beam="1">  1       -4 0.13908409E-02 0.12500038E+03</pdfrwt>
<totfact> 0.60739577E+03</totfact>
</mgrwt>
</event>
<event>
 5    1  0.3330238E-002  0.1250024E+03  0.7818608E-02  0.1235065E+00
         -4   -1    0    0    0  501 -0.00000000000E+00  0.00000000000E+00  0.60966645835E+01  0.62275371572E+01  0.12700000000E+01 0. -1.
          4   -1    0    0  501    0  0.00000000000E+00 -0.00000000000E+00 -0.63380859048E+03  0.63380986287E+03  0.12700000000E+01 0. -1.
         25    2    1    2    0    0  0.00000000000E+00  0.00000000000E+00 -0.62771192590E+03  0.64003740002E+03  0.12500244604E+03 0.  0.
    9000005    1    3    3    0    0  0.14843659709E+02  0.34226649894E+02 -0.57056157540E+03  0.57178082263E+03  0.10000000000E+01 0.  0.
    9000005    1    3    3    0    0 -0.14843659709E+02 -0.34226649894E+02 -0.57150350495E+02  0.68256577398E+02  0.10000000000E+01 0.  0.
<mgrwt>
<rscale>  0 0.12500245E+03</rscale>
<asrwt>0</asrwt>
<pdfrwt beam="2">  1        4 0.97519127E-01 0.12500245E+03</pdfrwt>
<pdfrwt beam="1">  1       -4 0.94811389E-03 0.12500245E+03</pdfrwt>
<totfact> 0.46431559E+03</totfact>
</mgrwt>
</event>
<event>
 5    1  0.3330238E-002  0.1250007E+03  0.7818608E-02  0.1235068E+00
         -4   -1    0    0    0  501 -0.00000000000E+00  0.00000000000E+00  0.17856880433E+02  0.17901985331E+02  0.12700000000E+01 0. -1.
          4   -1    0    0  501    0  0.00000000000E+00 -0.00000000000E+00 -0.21843289624E+03  0.21843658819E+03  0.12700000000E+01 0. -1.
         25    2    1    2    0    0  0.00000000000E+00  0.00000000000E+00 -0.20057601581E+03  0.23633857352E+03  0.12500073287E+03 0.  0.
    9000005    1    3    3    0    0 -0.20948083347E+02 -0.31073309379E+02 -0.57356822251E+01  0.37924540897E+02  0.10000000000E+01 0.  0.
    9000005    1    3    3    0    0  0.20948083347E+02  0.31073309379E+02 -0.19484033358E+03  0.19841403262E+03  0.10000000000E+01 0.  0.
<mgrwt>
<rscale>  0 0.12500073E+03</rscale>
<asrwt>0</asrwt>
<pdfrwt beam="2">  1        4 0.33608813E-01 0.12500073E+03</pdfrwt>
<pdfrwt beam="1">  1       -4 0.27509661E-02 0.12500073E+03</pdfrwt>
<totfact> 0.84344334E+03</totfact>
</mgrwt>
</event>
<event>
 5    1  0.3330238E-002  0.1249986E+03  0.7818608E-02  0.1235071E+00
          4   -1    0    0  501    0  0.00000000000E+00  0.00000000000E+00  0.16460532188E+02  0.16509452441E+02  0.12700000000E+01 0.  1.
         -4   -1    0    0    0  501 -0.00000000000E+00 -0.00000000000E+00 -0.23690206571E+03  0.23690546984E+03  0.12700000000E+01 0.  1.
         25    2    1    2    0    0  0.00000000000E+00  0.00000000000E+00 -0.22044153352E+03  0.25341492228E+03  0.12499861251E+03 0.  0.
    9000005    1    3    3    0    0  0.22995067101E+02  0.83859863061E+01 -0.22678967067E+03  0.22810886129E+03  0.10000000000E+01 0.  0.
    9000005    1    3    3    0    0 -0.22995067101E+02 -0.83859863061E+01  0.63481371471E+01  0.25306060985E+02  0.10000000000E+01 0.  0.
<mgrwt>
<rscale>  0 0.12499861E+03</rscale>
<asrwt>0</asrwt>
<pdfrwt beam="1">  1        4 0.25364147E-02 0.12499861E+03</pdfrwt>
<pdfrwt beam="2">  1       -4 0.36450494E-01 0.12499861E+03</pdfrwt>
<totfact> 0.81841687E+03</totfact>
</mgrwt>
</event>
<event>
 5    1  0.3330238E-002  0.1250057E+03  0.7818608E-02  0.1235060E+00
          4   -1    0    0  501    0  0.00000000000E+00  0.00000000000E+00  0.17896581743E+02  0.17941586833E+02  0.12700000000E+01 0.  1.
         -4   -1    0    0    0  501 -0.00000000000E+00 -0.00000000000E+00 -0.21796684734E+03  0.21797054718E+03  0.12700000000E+01 0.  1.
         25    2    1    2    0    0  0.00000000000E+00  0.00000000000E+00 -0.20007026559E+03  0.23591213401E+03  0.12500569507E+03 0.  0.
    9000005    1    3    3    0    0  0.42134389651E+02  0.14690440086E+02 -0.18260984061E+03  0.18798529120E+03  0.10000000000E+01 0.  0.
    9000005    1    3    3    0    0 -0.42134389651E+02 -0.14690440086E+02 -0.17460424986E+02  0.47926842811E+02  0.10000000000E+01 0.  0.
<mgrwt>
<rscale>  0 0.12500570E+03</rscale>
<asrwt>0</asrwt>
<pdfrwt beam="1">  1        4 0.27570669E-02 0.12500570E+03</pdfrwt>
<pdfrwt beam="2">  1       -4 0.33537106E-01 0.12500570E+03</pdfrwt>
<totfact> 0.84399255E+03</totfact>
</mgrwt>
</event>
<event>
 5    1  0.3330238E-002  0.1249999E+03  0.7818608E-02  0.1235069E+00
          4   -1    0    0  501    0  0.00000000000E+00  0.00000000000E+00  0.22336324021E+03  0.22336685066E+03  0.12700000000E+01 0. -1.
         -4   -1    0    0    0  501 -0.00000000000E+00 -0.00000000000E+00 -0.17461480740E+02  0.17507604338E+02  0.12700000000E+01 0. -1.
         25    2    1    2    0    0  0.00000000000E+00  0.00000000000E+00  0.20590175947E+03  0.24087445500E+03  0.12499987408E+03 0.  0.
    9000005    1    3    3    0    0 -0.55544471431E+02  0.27843624512E+02  0.90054903157E+02  0.10941362491E+03  0.10000000000E+01 0.  0.
    9000005    1    3    3    0    0  0.55544471431E+02 -0.27843624512E+02  0.11584685631E+03  0.13146083009E+03  0.10000000000E+01 0.  0.
<mgrwt>
<rscale>  0 0.12499987E+03</rscale>
<asrwt>0</asrwt>
<pdfrwt beam="1">  1        4 0.34367401E-01 0.12499987E+03</pdfrwt>
<pdfrwt beam="2">  1       -4 0.26902073E-02 0.12499987E+03</pdfrwt>
<totfact> 0.83667539E+03</totfact>
</mgrwt>
</event>
<event>
 5    1  0.3330238E-002  0.1249998E+03  0.7818608E-02  0.1235070E+00
          4   -1    0    0  501    0  0.00000000000E+00  0.00000000000E+00  0.24107402395E+02  0.24140831598E+02  0.12700000000E+01 0. -1.
         -4   -1    0    0    0  501 -0.00000000000E+00 -0.00000000000E+00 -0.16188667115E+03  0.16189165265E+03  0.12700000000E+01 0. -1.
         25    2    1    2    0    0  0.00000000000E+00  0.00000000000E+00 -0.13777926876E+03  0.18603248425E+03  0.12499983318E+03 0.  0.
    9000005    1    3    3    0    0  0.11713484307E+02  0.59816962685E+02 -0.48377258851E+02  0.77824378658E+02  0.10000000000E+01 0.  0.
    9000005    1    3    3    0    0 -0.11713484307E+02 -0.59816962685E+02 -0.89402009907E+02  0.10820810559E+03  0.10000000000E+01 0.  0.
<mgrwt>
<rscale>  0 0.12499983E+03</rscale>
<asrwt>0</asrwt>
<pdfrwt beam="1">  1        4 0.37117859E-02 0.12499983E+03</pdfrwt>
<pdfrwt beam="2">  1       -4 0.24908596E-01 0.12499983E+03</pdfrwt>
<totfact> 0.92542615E+03</totfact>
</mgrwt>
</event>
<event>
 5    1  0.3330238E-002  0.1250019E+03  0.7818608E-02  0.1235066E+00
          4   -1    0    0  501    0  0.00000000000E+00  0.00000000000E+00  0.22937252445E+02  0.22972384503E+02  0.12700000000E+01 0.  1.
         -4   -1    0    0    0  501 -0.00000000000E+00 -0.00000000000E+00 -0.17013879669E+03  0.17014353658E+03  0.12700000000E+01 0.  1.
         25    2    1    2    0    0  0.00000000000E+00  0.00000000000E+00 -0.14720154424E+03  0.19311592108E+03  0.12500185737E+03 0.  0.
    9000005    1    3    3    0    0  0.41481850622E+02  0.51072799285E+01 -0.14537713502E+03  0.15126909673E+03  0.10000000000E+01 0.  0.
    9000005    1    3    3    0    0 -0.41481850622E+02 -0.51072799285E+01 -0.18244092274E+01  0.41846824352E+02  0.10000000000E+01 0.  0.
<mgrwt>
<rscale>  0 0.12500186E+03</rscale>
<asrwt>0</asrwt>
<pdfrwt beam="1">  1        4 0.35318753E-02 0.12500186E+03</pdfrwt>
<pdfrwt beam="2">  1       -4 0.26178266E-01 0.12500186E+03</pdfrwt>
<totfact> 0.91304167E+03</totfact>
</mgrwt>
</event>
<event>
 5    1  0.3330238E-002  0.1250077E+03  0.7818608E-02  0.1235057E+00
          4   -1    0    0  501    0  0.00000000000E+00  0.00000000000E+00  0.51358368024E+02  0.51374068031E+02  0.12700000000E+01 0.  1.
         -4   -1    0    0    0  501 -0.00000000000E+00 -0.00000000000E+00 -0.76035433105E+02  0.76046038605E+02  0.12700000000E+01 0.  1.
         25    2    1    2    0    0  0.00000000000E+00  0.00000000000E+00 -0.24677065081E+02  0.12742010664E+03  0.12500770390E+03 0.  0.
    9000005    1    3    3    0    0 -0.15619825432E+02 -0.22642038682E+02  0.44861169551E+02  0.52632360727E+02  0.10000000000E+01 0.  0.
    9000005    1    3    3    0    0  0.15619825432E+02  0.22642038682E+02 -0.69538234633E+02  0.74787745908E+02  0.10000000000E+01 0.  0.
<mgrwt>
<rscale>  0 0.12500770E+03</rscale>
<asrwt>0</asrwt>
<pdfrwt beam="1">  1        4 0.79033109E-02 0.12500770E+03</pdfrwt>
<pdfrwt beam="2">  1       -4 0.11699782E-01 0.12500770E+03</pdfrwt>
<totfact> 0.10398223E+04</totfact>
</mgrwt>
</event>
<event>
 5    1  0.3330238E-002  0.1249976E+03  0.7818608E-02  0.1235073E+00
         -4   -1    0    0    0  501 -0.00000000000E+00  0.00000000000E+00  0.10166152299E+02  0.10245172159E+02  0.12700000000E+01 0.  1.
          4   -1    0    0  501    0  0.00000000000E+00 -0.00000000000E+00 -0.38265832856E+03  0.38266043605E+03  0.12700000000E+01 0.  1.
         25    2    1    2    0    0  0.00000000000E+00  0.00000000000E+00 -0.37249217626E+03  0.39290560821E+03  0.12499758232E+03 0.  0.
    9000005    1    3    3    0    0  0.36478262600E+02 -0.49558523317E+02 -0.22044722122E+03  0.22887701549E+03  0.10000000000E+01 0.  0.
    9000005    1    3    3    0    0 -0.36478262600E+02  0.49558523317E+02 -0.15204495504E+03  0.16402859272E+03  0.10000000000E+01 0.  0.
<mgrwt>
<rscale>  0 0.12499758E+03</rscale>
<asrwt>0</asrwt>
<pdfrwt beam="2">  1        4 0.58876742E-01 0.12499758E+03</pdfrwt>
<pdfrwt beam="1">  1       -4 0.15702643E-02 0.12499758E+03</pdfrwt>
<totfact> 0.65252168E+03</totfact>
</mgrwt>
</event>
<event>
 5    1  0.3330238E-002  0.1250057E+03  0.7818608E-02  0.1235060E+00
          4   -1    0    0  501    0  0.00000000000E+00  0.00000000000E+00  0.21466447993E+02  0.21503983107E+02  0.12700000000E+01 0.  1.
         -4   -1    0    0    0  501 -0.00000000000E+00 -0.00000000000E+00 -0.18178784945E+03  0.18179228561E+03  0.12700000000E+01 0.  1.
         25    2    1    2    0    0  0.00000000000E+00  0.00000000000E+00 -0.16032140146E+03  0.20329626872E+03  0.12500568431E+03 0.  0.
    9000005    1    3    3    0    0  0.57601536174E+02 -0.29223243875E+01 -0.41023744163E+02  0.70784352328E+02  0.10000000000E+01 0.  0.
    9000005    1    3    3    0    0 -0.57601536174E+02  0.29223243875E+01 -0.11929765730E+03  0.13251191639E+03  0.10000000000E+01 0.  0.
<mgrwt>
<rscale>  0 0.12500568E+03</rscale>
<asrwt>0</asrwt>
<pdfrwt beam="1">  1        4 0.33057591E-02 0.12500568E+03</pdfrwt>
<pdfrwt beam="2">  1       -4 0.27970589E-01 0.12500568E+03</pdfrwt>
<totfact> 0.89571137E+03</totfact>
</mgrwt>
</event>
<event>
 5    1  0.3330238E-002  0.1249990E+03  0.7818608E-02  0.1235071E+00
         -4   -1    0    0    0  501 -0.00000000000E+00  0.00000000000E+00  0.25643669259E+03  0.25643983740E+03  0.12700000000E+01 0. -1.
          4   -1    0    0  501    0  0.00000000000E+00 -0.00000000000E+00 -0.15202846342E+02  0.15255800107E+02  0.12700000000E+01 0. -1.
         25    2    1    2    0    0  0.00000000000E+00  0.00000000000E+00  0.24123384625E+03  0.27169563751E+03  0.12499900346E+03 0.  0.
    9000005    1    3    3    0    0 -0.15672260612E+01  0.62146255896E+02  0.13446221617E+03  0.14814081441E+03  0.10000000000E+01 0.  0.
    9000005    1    3    3    0    0  0.15672260612E+01 -0.62146255896E+02  0.10677163009E+03  0.12355482310E+03  0.10000000000E+01 0.  0.
<mgrwt>
<rscale>  0 0.12499900E+03</rscale>
<asrwt>0</asrwt>
<pdfrwt beam="2">  1        4 0.23432146E-02 0.12499900E+03</pdfrwt>
<pdfrwt beam="1">  1       -4 0.39456116E-01 0.12499900E+03</pdfrwt>
<totfact> 0.79294002E+03</totfact>
</mgrwt>
</event>
<event>
 5    1  0.3330238E-002  0.1250021E+03  0.7818608E-02  0.1235066E+00
          4   -1    0    0  501    0  0.00000000000E+00  0.00000000000E+00  0.17005180219E+03  0.17005654450E+03  0.12700000000E+01 0. -1.
         -4   -1    0    0    0  501 -0.00000000000E+00 -0.00000000000E+00 -0.22949091142E+02  0.22984205103E+02  0.12700000000E+01 0. -1.
         25    2    1    2    0    0  0.00000000000E+00  0.00000000000E+00  0.14710271105E+03  0.19304074960E+03  0.12500209362E+03 0.  0.
    9000005    1    3    3    0    0  0.58467440334E+02 -0.74241733967E+01  0.10564237757E+03  0.12097467449E+03  0.10000000000E+01 0.  0.
    9000005    1    3    3    0    0 -0.58467440334E+02  0.74241733967E+01  0.41460333473E+02  0.72066075109E+02  0.10000000000E+01 0.  0.
<mgrwt>
<rscale>  0 0.12500209E+03</rscale>
<asrwt>0</asrwt>
<pdfrwt beam="1">  1        4 0.26164881E-01 0.12500209E+03</pdfrwt>
<pdfrwt beam="2">  1       -4 0.35336954E-02 0.12500209E+03</pdfrwt>
<totfact> 0.91316629E+03</totfact>
</mgrwt>
</event>
<event>
 5    1  0.3330238E-002  0.1249907E+03  0.7818608E-02  0.1235084E+00
          4   -1    0    0  501    0  0.00000000000E+00  0.00000000000E+00  0.24136998144E+01  0.27274249383E+01  0.12700000000E+01 0. -1.
         -4   -1    0    0    0  501 -0.00000000000E+00 -0.00000000000E+00 -0.15190689136E+04  0.15190694445E+04  0.12700000000E+01 0. -1.
         25    2    1    2    0    0  0.00000000000E+00  0.00000000000E+00 -0.15166552138E+04  0.15217968695E+04  0.12499069678E+03 0.  0.
    9000005    1    3    3    0    0 -0.15447390673E+02 -0.51245994866E+02 -0.11509487472E+04  0.11521930362E+04  0.10000000000E+01 0.  0.
    9000005    1    3    3    0    0  0.15447390673E+02  0.51245994866E+02 -0.36570646661E+03  0.36960383330E+03  0.10000000000E+01 0.  0.
<mgrwt>
<rscale>  0 0.12499070E+03</rscale>
<asrwt>0</asrwt>
<pdfrwt beam="1">  1        4 0.39551319E-03 0.12499070E+03</pdfrwt>
<pdfrwt beam="2">  1       -4 0.23372637E+00 0.12499070E+03</pdfrwt>
<totfact> 0.17509536E+03</totfact>
</mgrwt>
</event>
<event>
 5    1  0.3330238E-002  0.1250020E+03  0.7818608E-02  0.1235066E+00
          4   -1    0    0  501    0  0.00000000000E+00  0.00000000000E+00  0.16060725456E+02  0.16110859759E+02  0.12700000000E+01 0.  1.
         -4   -1    0    0    0  501 -0.00000000000E+00 -0.00000000000E+00 -0.24279453399E+03  0.24279785550E+03  0.12700000000E+01 0.  1.
         25    2    1    2    0    0  0.00000000000E+00  0.00000000000E+00 -0.22673380854E+03  0.25890871526E+03  0.12500201160E+03 0.  0.
    9000005    1    3    3    0    0 -0.77589522709E+01  0.12228032634E+02  0.12547397505E+02  0.19187582093E+02  0.10000000000E+01 0.  0.
    9000005    1    3    3    0    0  0.77589522709E+01 -0.12228032634E+02 -0.23928120604E+03  0.23972113317E+03  0.10000000000E+01 0.  0.
<mgrwt>
<rscale>  0 0.12500201E+03</rscale>
<asrwt>0</asrwt>
<pdfrwt beam="1">  1        4 0.24749930E-02 0.12500201E+03</pdfrwt>
<pdfrwt beam="2">  1       -4 0.37357115E-01 0.12500201E+03</pdfrwt>
<totfact> 0.81055822E+03</totfact>
</mgrwt>
</event>
<event>
 5    1  0.3330238E-002  0.1250016E+03  0.7818608E-02  0.1235067E+00
          4   -1    0    0  501    0  0.00000000000E+00  0.00000000000E+00  0.72331198080E+02  0.72342346628E+02  0.12700000000E+01 0.  1.
         -4   -1    0    0    0  501 -0.00000000000E+00 -0.00000000000E+00 -0.53983629894E+02  0.53998566616E+02  0.12700000000E+01 0.  1.
         25    2    1    2    0    0  0.00000000000E+00  0.00000000000E+00  0.18347568185E+02  0.12634091324E+03  0.12500157239E+03 0.  0.
    9000005    1    3    3    0    0  0.77468803411E+01 -0.56916591544E+02 -0.15703672449E+02  0.59557685284E+02  0.10000000000E+01 0.  0.
    9000005    1    3    3    0    0 -0.77468803411E+01  0.56916591544E+02  0.34051240634E+02  0.66783227960E+02  0.10000000000E+01 0.  0.
<mgrwt>
<rscale>  0 0.12500157E+03</rscale>
<asrwt>0</asrwt>
<pdfrwt beam="1">  1        4 0.11129883E-01 0.12500157E+03</pdfrwt>
<pdfrwt beam="2">  1       -4 0.83071804E-02 0.12500157E+03</pdfrwt>
<totfact> 0.10423130E+04</totfact>
</mgrwt>
</event>
<event>
 5    1  0.3330238E-002  0.1249985E+03  0.7818608E-02  0.1235072E+00
          4   -1    0    0  501    0  0.00000000000E+00  0.00000000000E+00  0.13054105121E+03  0.13054722881E+03  0.12700000000E+01 0. -1.
         -4   -1    0    0    0  501 -0.00000000000E+00 -0.00000000000E+00 -0.29902443368E+02  0.29929400585E+02  0.12700000000E+01 0. -1.
         25    2    1    2    0    0  0.00000000000E+00  0.00000000000E+00  0.10063860784E+03  0.16047662940E+03  0.12499847677E+03 0.  0.
    9000005    1    3    3    0    0  0.50943128457E+02 -0.20415695918E+02  0.11951254795E+02  0.56176823228E+02  0.10000000000E+01 0.  0.
    9000005    1    3    3    0    0 -0.50943128457E+02  0.20415695918E+02  0.88687353043E+02  0.10429980617E+03  0.10000000000E+01 0.  0.
<mgrwt>
<rscale>  0 0.12499848E+03</rscale>
<asrwt>0</asrwt>
<pdfrwt beam="1">  1        4 0.20085787E-01 0.12499848E+03</pdfrwt>
<pdfrwt beam="2">  1       -4 0.46029248E-02 0.12499848E+03</pdfrwt>
<totfact> 0.97254303E+03</totfact>
</mgrwt>
</event>
<event>
 5    1  0.3330238E-002  0.1249964E+03  0.7818608E-02  0.1235075E+00
          4   -1    0    0  501    0  0.00000000000E+00  0.00000000000E+00  0.49519645960E+02  0.49535928739E+02  0.12700000000E+01 0.  1.
         -4   -1    0    0    0  501 -0.00000000000E+00 -0.00000000000E+00 -0.78843935179E+02  0.78854162950E+02  0.12700000000E+01 0.  1.
         25    2    1    2    0    0  0.00000000000E+00  0.00000000000E+00 -0.29324289219E+02  0.12839009169E+03  0.12499640677E+03 0.  0.
    9000005    1    3    3    0    0 -0.22471214371E+02  0.57506398644E+02 -0.24572098946E+02  0.66458478819E+02  0.10000000000E+01 0.  0.
    9000005    1    3    3    0    0  0.22471214371E+02 -0.57506398644E+02 -0.47521902731E+01  0.61931612870E+02  0.10000000000E+01 0.  0.
<mgrwt>
<rscale>  0 0.12499641E+03</rscale>
<asrwt>0</asrwt>
<pdfrwt beam="1">  1        4 0.76204463E-02 0.12499641E+03</pdfrwt>
<pdfrwt beam="2">  1       -4 0.12131875E-01 0.12499641E+03</pdfrwt>
<totfact> 0.10379914E+04</totfact>
</mgrwt>
</event>
<event>
 5    1  0.3330238E-002  0.1250005E+03  0.7818608E-02  0.1235069E+00
         -4   -1    0    0    0  501 -0.00000000000E+00  0.00000000000E+00  0.39041752294E+02  0.39062402924E+02  0.12700000000E+01 0. -1.
          4   -1    0    0  501    0  0.00000000000E+00 -0.00000000000E+00 -0.10000274173E+03  0.10001080569E+03  0.12700000000E+01 0. -1.
         25    2    1    2    0    0  0.00000000000E+00  0.00000000000E+00 -0.60960989438E+02  0.13907320861E+03  0.12500046048E+03 0.  0.
    9000005    1    3    3    0    0 -0.49304900604E+01 -0.40143484601E+02  0.22521724653E+02  0.46303748979E+02  0.10000000000E+01 0.  0.
    9000005    1    3    3    0    0  0.49304900604E+01  0.40143484601E+02 -0.83482714091E+02  0.92769459631E+02  0.10000000000E+01 0.  0.
<mgrwt>
<rscale>  0 0.12500046E+03</rscale>
<asrwt>0</asrwt>
<pdfrwt beam="2">  1        4 0.15387246E-01 0.12500046E+03</pdfrwt>
<pdfrwt beam="1">  1       -4 0.60086323E-02 0.12500046E+03</pdfrwt>
<totfact> 0.10152725E+04</totfact>
</mgrwt>
</event>
<event>
 5    1  0.3330238E-002  0.1249931E+03  0.7818608E-02  0.1235080E+00
          4   -1    0    0  501    0  0.00000000000E+00  0.00000000000E+00  0.41497413473E+03  0.41497607810E+03  0.12700000000E+01 0.  1.
         -4   -1    0    0    0  501 -0.00000000000E+00 -0.00000000000E+00 -0.93673835637E+01  0.94530828215E+01  0.12700000000E+01 0.  1.
         25    2    1    2    0    0  0.00000000000E+00  0.00000000000E+00  0.40560675117E+03  0.42442916093E+03  0.12499310400E+03 0.  0.
    9000005    1    3    3    0    0 -0.28724281047E+02 -0.27466821935E+02  0.39061620747E+02  0.55734377580E+02  0.10000000000E+01 0.  0.
    9000005    1    3    3    0    0  0.28724281047E+02  0.27466821935E+02  0.36654513042E+03  0.36869478334E+03  0.10000000000E+01 0.  0.
<mgrwt>
<rscale>  0 0.12499310E+03</rscale>
<asrwt>0</asrwt>
<pdfrwt beam="1">  1        4 0.63848931E-01 0.12499310E+03</pdfrwt>
<pdfrwt beam="2">  1       -4 0.14478773E-02 0.12499310E+03</pdfrwt>
<totfact> 0.62253677E+03</totfact>
</mgrwt>
</event>
<event>
 5    1  0.3330238E-002  0.1250005E+03  0.7818608E-02  0.1235069E+00
          4   -1    0    0  501    0  0.00000000000E+00  0.00000000000E+00  0.14698670248E+03  0.14699218893E+03  0.12700000000E+01 0.  1.
         -4   -1    0    0    0  501 -0.00000000000E+00 -0.00000000000E+00 -0.26554573505E+02  0.26584925692E+02  0.12700000000E+01 0.  1.
         25    2    1    2    0    0  0.00000000000E+00  0.00000000000E+00  0.12043212898E+03  0.17357711462E+03  0.12500046812E+03 0.  0.
    9000005    1    3    3    0    0  0.45838477096E+02 -0.90858989816E+01  0.26002280564E+01  0.46813253772E+02  0.10000000000E+01 0.  0.
    9000005    1    3    3    0    0 -0.45838477096E+02  0.90858989816E+01  0.11783190092E+03  0.12676386085E+03  0.10000000000E+01 0.  0.
<mgrwt>
<rscale>  0 0.12500047E+03</rscale>
<asrwt>0</asrwt>
<pdfrwt beam="1">  1        4 0.22616095E-01 0.12500047E+03</pdfrwt>
<pdfrwt beam="2">  1       -4 0.40880759E-02 0.12500047E+03</pdfrwt>
<totfact> 0.94785091E+03</totfact>
</mgrwt>
</event>
<event>
 5    1  0.3330238E-002  0.1249988E+03  0.7818608E-02  0.1235071E+00
          4   -1    0    0  501    0  0.00000000000E+00  0.00000000000E+00  0.25070464616E+01  0.28103704312E+01  0.12700000000E+01 0. -1.
         -4   -1    0    0    0  501 -0.00000000000E+00 -0.00000000000E+00 -0.14688963603E+04  0.14688969093E+04  0.12700000000E+01 0. -1.
         25    2    1    2    0    0  0.00000000000E+00  0.00000000000E+00 -0.14663893138E+04  0.14717072797E+04  0.12499879010E+03 0.  0.
    9000005    1    3    3    0    0  0.41401841605E+02  0.38250558265E+02 -0.41553036577E+03  0.41933721821E+03  0.10000000000E+01 0.  0.
    9000005    1    3    3    0    0 -0.41401841605E+02 -0.38250558265E+02 -0.10508589481E+04  0.10523700615E+04  0.10000000000E+01 0.  0.
<mgrwt>
<rscale>  0 0.12499879E+03</rscale>
<asrwt>0</asrwt>
<pdfrwt beam="1">  1        4 0.40907547E-03 0.12499879E+03</pdfrwt>
<pdfrwt beam="2">  1       -4 0.22600678E+00 0.12499879E+03</pdfrwt>
<totfact> 0.18493045E+03</totfact>
</mgrwt>
</event>
<event>
 5    1  0.3330238E-002  0.1250001E+03  0.7818608E-02  0.1235069E+00
         -4   -1    0    0    0  501 -0.00000000000E+00  0.00000000000E+00  0.63242003970E+01  0.64504581745E+01  0.12700000000E+01 0. -1.
          4   -1    0    0  501    0  0.00000000000E+00 -0.00000000000E+00 -0.61143682656E+03  0.61143814550E+03  0.12700000000E+01 0. -1.
         25    2    1    2    0    0  0.00000000000E+00  0.00000000000E+00 -0.60511262617E+03  0.61788860368E+03  0.12500014484E+03 0.  0.
    9000005    1    3    3    0    0 -0.26405209156E+02 -0.27867147812E+02 -0.58813405089E+02  0.70241224476E+02  0.10000000000E+01 0.  0.
    9000005    1    3    3    0    0  0.26405209156E+02  0.27867147812E+02 -0.54629922108E+03  0.54764737920E+03  0.10000000000E+01 0.  0.
<mgrwt>
<rscale>  0 0.12500014E+03</rscale>
<asrwt>0</asrwt>
<pdfrwt beam="2">  1        4 0.94076972E-01 0.12500014E+03</pdfrwt>
<pdfrwt beam="1">  1       -4 0.98276798E-03 0.12500014E+03</pdfrwt>
<totfact> 0.47757421E+03</totfact>
</mgrwt>
</event>
<event>
 5    1  0.3330238E-002  0.1250004E+03  0.7818608E-02  0.1235069E+00
         -4   -1    0    0    0  501 -0.00000000000E+00  0.00000000000E+00  0.24059139519E+02  0.24092635688E+02  0.12700000000E+01 0.  1.
          4   -1    0    0  501    0  0.00000000000E+00 -0.00000000000E+00 -0.16221256977E+03  0.16221754126E+03  0.12700000000E+01 0.  1.
         25    2    1    2    0    0  0.00000000000E+00  0.00000000000E+00 -0.13815343025E+03  0.18631017694E+03  0.12500044697E+03 0.  0.
    9000005    1    3    3    0    0 -0.17443610079E+02 -0.31385177882E+02 -0.14530941655E+03  0.14968345086E+03  0.10000000000E+01 0.  0.
    9000005    1    3    3    0    0  0.17443610079E+02  0.31385177882E+02  0.71559863044E+01  0.36626726079E+02  0.10000000000E+01 0.  0.
<mgrwt>
<rscale>  0 0.12500045E+03</rscale>
<asrwt>0</asrwt>
<pdfrwt beam="2">  1        4 0.24958738E-01 0.12500045E+03</pdfrwt>
<pdfrwt beam="1">  1       -4 0.37043652E-02 0.12500045E+03</pdfrwt>
<totfact> 0.92492399E+03</totfact>
</mgrwt>
</event>
<event>
 5    1  0.3330238E-002  0.1249987E+03  0.7818608E-02  0.1235071E+00
         -4   -1    0    0    0  501 -0.00000000000E+00  0.00000000000E+00  0.38876350033E+02  0.38897088476E+02  0.12700000000E+01 0. -1.
          4   -1    0    0  501    0  0.00000000000E+00 -0.00000000000E+00 -0.10042518547E+03  0.10043321550E+03  0.12700000000E+01 0. -1.
         25    2    1    2    0    0  0.00000000000E+00  0.00000000000E+00 -0.61548835437E+02  0.13933030398E+03  0.12499869785E+03 0.  0.
    9000005    1    3    3    0    0 -0.53798930818E+01 -0.46612957561E+02  0.15230658441E+02  0.49342517353E+02  0.10000000000E+01 0.  0.
    9000005    1    3    3    0    0  0.53798930818E+01  0.46612957561E+02 -0.76779493877E+02  0.89987786628E+02  0.10000000000E+01 0.  0.
<mgrwt>
<rscale>  0 0.12499870E+03</rscale>
<asrwt>0</asrwt>
<pdfrwt beam="2">  1        4 0.15452241E-01 0.12499870E+03</pdfrwt>
<pdfrwt beam="1">  1       -4 0.59831899E-02 0.12499870E+03</pdfrwt>
<totfact> 0.10147782E+04</totfact>
</mgrwt>
</event>
<event>
 5    1  0.3330238E-002  0.1250035E+03  0.7818608E-02  0.1235064E+00
          4   -1    0    0  501    0  0.00000000000E+00  0.00000000000E+00  0.20450262983E+04  0.20450266926E+04  0.12700000000E+01 0.  1.
         -4   -1    0    0    0  501 -0.00000000000E+00 -0.00000000000E+00 -0.16987048107E+01  0.21209662972E+01  0.12700000000E+01 0.  1.
         25    2    1    2    0    0  0.00000000000E+00  0.00000000000E+00  0.20433275934E+04  0.20471476589E+04  0.12500353277E+03 0.  0.
    9000005    1    3    3    0    0 -0.17916514800E+02  0.26077825773E+02  0.13907925835E+03  0.14263623174E+03  0.10000000000E+01 0.  0.
    9000005    1    3    3    0    0  0.17916514800E+02 -0.26077825773E+02  0.19042483351E+04  0.19045114272E+04  0.10000000000E+01 0.  0.
<mgrwt>
<rscale>  0 0.12500353E+03</rscale>
<asrwt>0</asrwt>
<pdfrwt beam="1">  1        4 0.31465381E+00 0.12500353E+03</pdfrwt>
<pdfrwt beam="2">  1       -4 0.29384944E-03 0.12500353E+03</pdfrwt>
<totfact> 0.92574498E+02</totfact>
</mgrwt>
</event>
<event>
 5    1  0.3330238E-002  0.1249911E+03  0.7818608E-02  0.1235083E+00
          4   -1    0    0  501    0  0.00000000000E+00  0.00000000000E+00  0.18327286376E+03  0.18327726398E+03  0.12700000000E+01 0. -1.
         -4   -1    0    0    0  501 -0.00000000000E+00 -0.00000000000E+00 -0.21287220142E+02  0.21325070723E+02  0.12700000000E+01 0. -1.
         25    2    1    2    0    0  0.00000000000E+00  0.00000000000E+00  0.16198564362E+03  0.20460233470E+03  0.12499106619E+03 0.  0.
    9000005    1    3    3    0    0 -0.24213920692E+02 -0.36605975189E+02  0.15380206216E+03  0.15994494583E+03  0.10000000000E+01 0.  0.
    9000005    1    3    3    0    0  0.24213920692E+02  0.36605975189E+02  0.81835814649E+01  0.44657388867E+02  0.10000000000E+01 0.  0.
<mgrwt>
<rscale>  0 0.12499107E+03</rscale>
<asrwt>0</asrwt>
<pdfrwt beam="1">  1        4 0.28199075E-01 0.12499107E+03</pdfrwt>
<pdfrwt beam="2">  1       -4 0.32782070E-02 0.12499107E+03</pdfrwt>
<totfact> 0.89382908E+03</totfact>
</mgrwt>
</event>
<event>
 5    1  0.3330238E-002  0.1249819E+03  0.7818608E-02  0.1235098E+00
         -4   -1    0    0    0  501 -0.00000000000E+00  0.00000000000E+00  0.10369137686E+03  0.10369915398E+03  0.12700000000E+01 0. -1.
          4   -1    0    0  501    0  0.00000000000E+00 -0.00000000000E+00 -0.37641090451E+02  0.37662509082E+02  0.12700000000E+01 0. -1.
         25    2    1    2    0    0  0.00000000000E+00  0.00000000000E+00  0.66050286414E+02  0.14136166306E+03  0.12498191649E+03 0.  0.
    9000005    1    3    3    0    0  0.12794151612E+02  0.58016314349E+02  0.11135850789E+02  0.60453206853E+02  0.10000000000E+01 0.  0.
    9000005    1    3    3    0    0 -0.12794151612E+02 -0.58016314349E+02  0.54914435625E+02  0.80908456208E+02  0.10000000000E+01 0.  0.
<mgrwt>
<rscale>  0 0.12498192E+03</rscale>
<asrwt>0</asrwt>
<pdfrwt beam="2">  1        4 0.57931830E-02 0.12498192E+03</pdfrwt>
<pdfrwt beam="1">  1       -4 0.15954765E-01 0.12498192E+03</pdfrwt>
<totfact> 0.10109560E+04</totfact>
</mgrwt>
</event>
<event>
 5    1  0.3330238E-002  0.1249986E+03  0.7818608E-02  0.1235072E+00
          4   -1    0    0  501    0  0.00000000000E+00  0.00000000000E+00  0.28182546967E+02  0.28211147682E+02  0.12700000000E+01 0. -1.
         -4   -1    0    0    0  501 -0.00000000000E+00 -0.00000000000E+00 -0.13850031500E+03  0.13850613761E+03  0.12700000000E+01 0. -1.
         25    2    1    2    0    0  0.00000000000E+00  0.00000000000E+00 -0.11031776803E+03  0.16671728529E+03  0.12499857307E+03 0.  0.
    9000005    1    3    3    0    0 -0.12326282075E+02 -0.42518768260E+02  0.36682332910E+01  0.44432407312E+02  0.10000000000E+01 0.  0.
    9000005    1    3    3    0    0  0.12326282075E+02  0.42518768260E+02 -0.11398600132E+03  0.12228487797E+03  0.10000000000E+01 0.  0.
<mgrwt>
<rscale>  0 0.12499857E+03</rscale>
<asrwt>0</asrwt>
<pdfrwt beam="1">  1        4 0.43384245E-02 0.12499857E+03</pdfrwt>
<pdfrwt beam="2">  1       -4 0.21310388E-01 0.12499857E+03</pdfrwt>
<totfact> 0.96066230E+03</totfact>
</mgrwt>
</event>
<event>
 5    1  0.3330238E-002  0.1249993E+03  0.7818608E-02  0.1235070E+00
         -4   -1    0    0    0  501 -0.00000000000E+00  0.00000000000E+00  0.14982616509E+02  0.15036345881E+02  0.12700000000E+01 0. -1.
          4   -1    0    0  501    0  0.00000000000E+00 -0.00000000000E+00 -0.26019388263E+03  0.26019698203E+03  0.12700000000E+01 0. -1.
         25    2    1    2    0    0  0.00000000000E+00  0.00000000000E+00 -0.24521126612E+03  0.27523332791E+03  0.12499927904E+03 0.  0.
    9000005    1    3    3    0    0 -0.28330313861E+02  0.50825257789E+02 -0.17278681680E+03  0.18232415521E+03  0.10000000000E+01 0.  0.
    9000005    1    3    3    0    0  0.28330313861E+02 -0.50825257789E+02 -0.72424449322E+02  0.92909172704E+02  0.10000000000E+01 0.  0.
<mgrwt>
<rscale>  0 0.12499928E+03</rscale>
<asrwt>0</asrwt>
<pdfrwt beam="2">  1        4 0.40034196E-01 0.12499928E+03</pdfrwt>
<pdfrwt beam="1">  1       -4 0.23093896E-02 0.12499928E+03</pdfrwt>
<totfact> 0.78815671E+03</totfact>
</mgrwt>
</event>
<event>
 5    1  0.3330238E-002  0.1249933E+03  0.7818608E-02  0.1235080E+00
          4   -1    0    0  501    0  0.00000000000E+00  0.00000000000E+00  0.17506441233E+03  0.17506901886E+03  0.12700000000E+01 0.  1.
         -4   -1    0    0    0  501 -0.00000000000E+00 -0.00000000000E+00 -0.22287830309E+02  0.22323984408E+02  0.12700000000E+01 0.  1.
         25    2    1    2    0    0  0.00000000000E+00  0.00000000000E+00  0.15277658202E+03  0.19739300327E+03  0.12499325472E+03 0.  0.
    9000005    1    3    3    0    0  0.62198132745E+01  0.14542183600E+02  0.17185876937E+03  0.17258794220E+03  0.10000000000E+01 0.  0.
    9000005    1    3    3    0    0 -0.62198132745E+01 -0.14542183600E+02 -0.19082187347E+02  0.24805061076E+02  0.10000000000E+01 0.  0.
<mgrwt>
<rscale>  0 0.12499325E+03</rscale>
<asrwt>0</asrwt>
<pdfrwt beam="1">  1        4 0.26936123E-01 0.12499325E+03</pdfrwt>
<pdfrwt beam="2">  1       -4 0.34320323E-02 0.12499325E+03</pdfrwt>
<totfact> 0.90590306E+03</totfact>
</mgrwt>
</event>
<event>
 5    1  0.3330238E-002  0.1249978E+03  0.7818608E-02  0.1235073E+00
         -4   -1    0    0    0  501 -0.00000000000E+00  0.00000000000E+00  0.69062436444E+03  0.69062553216E+03  0.12700000000E+01 0. -1.
          4   -1    0    0  501    0  0.00000000000E+00 -0.00000000000E+00 -0.55834389718E+01  0.57260536805E+01  0.12700000000E+01 0. -1.
         25    2    1    2    0    0  0.00000000000E+00  0.00000000000E+00  0.68504092547E+03  0.69635158584E+03  0.12499784607E+03 0.  0.
    9000005    1    3    3    0    0  0.71757893225E+01 -0.94958701702E+01  0.76204278115E+00  0.11968467399E+02  0.10000000000E+01 0.  0.
    9000005    1    3    3    0    0 -0.71757893225E+01  0.94958701702E+01  0.68427888269E+03  0.68438311844E+03  0.10000000000E+01 0.  0.
<mgrwt>
<rscale>  0 0.12499785E+03</rscale>
<asrwt>0</asrwt>
<pdfrwt beam="2">  1        4 0.87005107E-03 0.12499785E+03</pdfrwt>
<pdfrwt beam="1">  1       -4 0.10626093E+00 0.12499785E+03</pdfrwt>
<totfact> 0.43282034E+03</totfact>
</mgrwt>
</event>
<event>
 5    1  0.3330238E-002  0.1250017E+03  0.7818608E-02  0.1235067E+00
         -4   -1    0    0    0  501 -0.00000000000E+00  0.00000000000E+00  0.48873930872E+02  0.48890428704E+02  0.12700000000E+01 0.  1.
          4   -1    0    0  501    0  0.00000000000E+00 -0.00000000000E+00 -0.79892171916E+02  0.79902265509E+02  0.12700000000E+01 0.  1.
         25    2    1    2    0    0  0.00000000000E+00  0.00000000000E+00 -0.31018241044E+02  0.12879269421E+03  0.12500170721E+03 0.  0.
    9000005    1    3    3    0    0  0.79562237380E+01  0.40500783208E+02  0.32836648651E+02  0.52752823918E+02  0.10000000000E+01 0.  0.
    9000005    1    3    3    0    0 -0.79562237380E+01 -0.40500783208E+02 -0.63854889695E+02  0.76039870296E+02  0.10000000000E+01 0.  0.
<mgrwt>
<rscale>  0 0.12500171E+03</rscale>
<asrwt>0</asrwt>
<pdfrwt beam="2">  1        4 0.12293149E-01 0.12500171E+03</pdfrwt>
<pdfrwt beam="1">  1       -4 0.75211118E-02 0.12500171E+03</pdfrwt>
<totfact> 0.10370004E+04</totfact>
</mgrwt>
</event>
<event>
 5    1  0.3330238E-002  0.1250006E+03  0.7818608E-02  0.1235068E+00
          4   -1    0    0  501    0  0.00000000000E+00  0.00000000000E+00  0.24428672489E+02  0.24461662649E+02  0.12700000000E+01 0. -1.
         -4   -1    0    0    0  501 -0.00000000000E+00 -0.00000000000E+00 -0.15976233061E+03  0.15976737834E+03  0.12700000000E+01 0. -1.
         25    2    1    2    0    0  0.00000000000E+00  0.00000000000E+00 -0.13533365812E+03  0.18422904099E+03  0.12500056209E+03 0.  0.
    9000005    1    3    3    0    0 -0.46751617581E+02  0.31473468029E+02 -0.27873748178E+02  0.62882738281E+02  0.10000000000E+01 0.  0.
    9000005    1    3    3    0    0  0.46751617581E+02 -0.31473468029E+02 -0.10745990994E+03  0.12134630270E+03  0.10000000000E+01 0.  0.
<mgrwt>
<rscale>  0 0.12500056E+03</rscale>
<asrwt>0</asrwt>
<pdfrwt beam="1">  1        4 0.37611834E-02 0.12500056E+03</pdfrwt>
<pdfrwt beam="2">  1       -4 0.24581745E-01 0.12500056E+03</pdfrwt>
<totfact> 0.92860084E+03</totfact>
</mgrwt>
</event>
<event>
 5    1  0.3330238E-002  0.1249995E+03  0.7818608E-02  0.1235070E+00
         -4   -1    0    0    0  501 -0.00000000000E+00  0.00000000000E+00  0.17038337639E+02  0.17085603575E+02  0.12700000000E+01 0. -1.
          4   -1    0    0  501    0  0.00000000000E+00 -0.00000000000E+00 -0.22889403373E+03  0.22889755694E+03  0.12700000000E+01 0. -1.
         25    2    1    2    0    0  0.00000000000E+00  0.00000000000E+00 -0.21185569609E+03  0.24598316052E+03  0.12499951718E+03 0.  0.
    9000005    1    3    3    0    0  0.13030613311E+02 -0.27495159762E+02  0.14869955363E+01  0.30479367600E+02  0.10000000000E+01 0.  0.
    9000005    1    3    3    0    0 -0.13030613311E+02  0.27495159762E+02 -0.21334269162E+03  0.21550379292E+03  0.10000000000E+01 0.  0.
<mgrwt>
<rscale>  0 0.12499952E+03</rscale>
<asrwt>0</asrwt>
<pdfrwt beam="2">  1        4 0.35218371E-01 0.12499952E+03</pdfrwt>
<pdfrwt beam="1">  1       -4 0.26251897E-02 0.12499952E+03</pdfrwt>
<totfact> 0.82915167E+03</totfact>
</mgrwt>
</event>
<event>
 5    1  0.3330238E-002  0.1250013E+03  0.7818608E-02  0.1235067E+00
         -4   -1    0    0    0  501 -0.00000000000E+00  0.00000000000E+00  0.56083952653E+02  0.56098330146E+02  0.12700000000E+01 0. -1.
          4   -1    0    0  501    0  0.00000000000E+00 -0.00000000000E+00 -0.69622434126E+02  0.69634016354E+02  0.12700000000E+01 0. -1.
         25    2    1    2    0    0  0.00000000000E+00  0.00000000000E+00 -0.13538481473E+02  0.12573234650E+03  0.12500132990E+03 0.  0.
    9000005    1    3    3    0    0  0.54211853655E+01 -0.62242582229E+02 -0.81205352637E+01  0.63011676587E+02  0.10000000000E+01 0.  0.
    9000005    1    3    3    0    0 -0.54211853655E+01  0.62242582229E+02 -0.54179462091E+01  0.62720669914E+02  0.10000000000E+01 0.  0.
<mgrwt>
<rscale>  0 0.12500133E+03</rscale>
<asrwt>0</asrwt>
<pdfrwt beam="2">  1        4 0.10713141E-01 0.12500133E+03</pdfrwt>
<pdfrwt beam="1">  1       -4 0.86302973E-02 0.12500133E+03</pdfrwt>
<totfact> 0.10436519E+04</totfact>
</mgrwt>
</event>
<event>
 5    1  0.3330238E-002  0.1250004E+03  0.7818608E-02  0.1235069E+00
          4   -1    0    0  501    0  0.00000000000E+00  0.00000000000E+00  0.16637807082E+03  0.16638291785E+03  0.12700000000E+01 0.  1.
         -4   -1    0    0    0  501 -0.00000000000E+00 -0.00000000000E+00 -0.23455920705E+02  0.23490277055E+02  0.12700000000E+01 0.  1.
         25    2    1    2    0    0  0.00000000000E+00  0.00000000000E+00  0.14292215012E+03  0.18987319490E+03  0.12500035659E+03 0.  0.
    9000005    1    3    3    0    0 -0.35063542260E+02  0.49722159715E+02  0.49790843386E+02  0.78624889492E+02  0.10000000000E+01 0.  0.
    9000005    1    3    3    0    0  0.35063542260E+02 -0.49722159715E+02  0.93131306732E+02  0.11124830541E+03  0.10000000000E+01 0.  0.
<mgrwt>
<rscale>  0 0.12500036E+03</rscale>
<asrwt>0</asrwt>
<pdfrwt beam="1">  1        4 0.25599642E-01 0.12500036E+03</pdfrwt>
<pdfrwt beam="2">  1       -4 0.36116188E-02 0.12500036E+03</pdfrwt>
<totfact> 0.91868649E+03</totfact>
</mgrwt>
</event>
<event>
 5    1  0.3330238E-002  0.1250011E+03  0.7818608E-02  0.1235068E+00
          4   -1    0    0  501    0  0.00000000000E+00  0.00000000000E+00  0.16936795254E+03  0.16937271400E+03  0.12700000000E+01 0. -1.
         -4   -1    0    0    0  501 -0.00000000000E+00 -0.00000000000E+00 -0.23041514211E+02  0.23076487539E+02  0.12700000000E+01 0. -1.
         25    2    1    2    0    0  0.00000000000E+00  0.00000000000E+00  0.14632643832E+03  0.19244920154E+03  0.12500107447E+03 0.  0.
    9000005    1    3    3    0    0 -0.39369148349E+01 -0.55381553400E+02  0.11732265185E+03  0.12980069489E+03  0.10000000000E+01 0.  0.
    9000005    1    3    3    0    0  0.39369148349E+01  0.55381553400E+02  0.29003786471E+02  0.62648506647E+02  0.10000000000E+01 0.  0.
<mgrwt>
<rscale>  0 0.12500107E+03</rscale>
<asrwt>0</asrwt>
<pdfrwt beam="1">  1        4 0.26059665E-01 0.12500107E+03</pdfrwt>
<pdfrwt beam="2">  1       -4 0.35479048E-02 0.12500107E+03</pdfrwt>
<totfact> 0.91420699E+03</totfact>
</mgrwt>
</event>
<event>
 5    1  0.3330238E-002  0.1249994E+03  0.7818608E-02  0.1235070E+00
         -4   -1    0    0    0  501 -0.00000000000E+00  0.00000000000E+00  0.50716253499E+02  0.50732152221E+02  0.12700000000E+01 0.  1.
          4   -1    0    0  501    0  0.00000000000E+00 -0.00000000000E+00 -0.76987676703E+02  0.76998151043E+02  0.12700000000E+01 0.  1.
         25    2    1    2    0    0  0.00000000000E+00  0.00000000000E+00 -0.26271423204E+02  0.12773030326E+03  0.12499937078E+03 0.  0.
    9000005    1    3    3    0    0  0.39029788395E+02  0.47980404522E+02 -0.40093442496E+01  0.61988050796E+02  0.10000000000E+01 0.  0.
    9000005    1    3    3    0    0 -0.39029788395E+02 -0.47980404522E+02 -0.22262078954E+02  0.65742252468E+02  0.10000000000E+01 0.  0.
<mgrwt>
<rscale>  0 0.12499937E+03</rscale>
<asrwt>0</asrwt>
<pdfrwt beam="2">  1        4 0.11846287E-01 0.12499937E+03</pdfrwt>
<pdfrwt beam="1">  1       -4 0.78045292E-02 0.12499937E+03</pdfrwt>
<totfact> 0.10393464E+04</totfact>
</mgrwt>
</event>
<event>
 5    1  0.3330238E-002  0.1249935E+03  0.7818608E-02  0.1235079E+00
          4   -1    0    0  501    0  0.00000000000E+00  0.00000000000E+00  0.57177086109E+01  0.58570548707E+01  0.12700000000E+01 0.  1.
         -4   -1    0    0    0  501 -0.00000000000E+00 -0.00000000000E+00 -0.67474992204E+03  0.67475111722E+03  0.12700000000E+01 0.  1.
         25    2    1    2    0    0  0.00000000000E+00  0.00000000000E+00 -0.66903221343E+03  0.68060817209E+03  0.12499352509E+03 0.  0.
    9000005    1    3    3    0    0 -0.20797923337E+02  0.58547925195E+02 -0.29822013738E+03  0.30462544788E+03  0.10000000000E+01 0.  0.
    9000005    1    3    3    0    0  0.20797923337E+02 -0.58547925195E+02 -0.37081207605E+03  0.37598272421E+03  0.10000000000E+01 0.  0.
<mgrwt>
<rscale>  0 0.12499353E+03</rscale>
<asrwt>0</asrwt>
<pdfrwt beam="1">  1        4 0.89045889E-03 0.12499353E+03</pdfrwt>
<pdfrwt beam="2">  1       -4 0.10381843E+00 0.12499353E+03</pdfrwt>
<totfact> 0.44136602E+03</totfact>
</mgrwt>
</event>
<event>
 5    1  0.3330238E-002  0.1250002E+03  0.7818608E-02  0.1235069E+00
          4   -1    0    0  501    0  0.00000000000E+00  0.00000000000E+00  0.35298353315E+03  0.35298581781E+03  0.12700000000E+01 0.  1.
         -4   -1    0    0    0  501 -0.00000000000E+00 -0.00000000000E+00 -0.11027651268E+02  0.11100540189E+02  0.12700000000E+01 0.  1.
         25    2    1    2    0    0  0.00000000000E+00  0.00000000000E+00  0.34195588188E+03  0.36408635800E+03  0.12500020371E+03 0.  0.
    9000005    1    3    3    0    0  0.16156054296E+01  0.43051579056E+02  0.39125749400E+02  0.58205437085E+02  0.10000000000E+01 0.  0.
    9000005    1    3    3    0    0 -0.16156054296E+01 -0.43051579056E+02  0.30283013248E+03  0.30588092091E+03  0.10000000000E+01 0.  0.
<mgrwt>
<rscale>  0 0.12500020E+03</rscale>
<asrwt>0</asrwt>
<pdfrwt beam="1">  1        4 0.54310944E-01 0.12500020E+03</pdfrwt>
<pdfrwt beam="2">  1       -4 0.17023442E-02 0.12500020E+03</pdfrwt>
<totfact> 0.68201875E+03</totfact>
</mgrwt>
</event>
<event>
 5    1  0.3330238E-002  0.1249892E+03  0.7818608E-02  0.1235086E+00
         -4   -1    0    0    0  501 -0.00000000000E+00  0.00000000000E+00  0.32280233766E+01  0.34688665181E+01  0.12700000000E+01 0.  1.
          4   -1    0    0  501    0  0.00000000000E+00 -0.00000000000E+00 -0.11661435078E+04  0.11661441993E+04  0.12700000000E+01 0.  1.
         25    2    1    2    0    0  0.00000000000E+00  0.00000000000E+00 -0.11629154844E+04  0.11696130659E+04  0.12498919931E+03 0.  0.
    9000005    1    3    3    0    0  0.25929379805E+02  0.25154224887E+02 -0.10435134564E+03  0.11043220139E+03  0.10000000000E+01 0.  0.
    9000005    1    3    3    0    0 -0.25929379805E+02 -0.25154224887E+02 -0.10585641388E+04  0.10591808645E+04  0.10000000000E+01 0.  0.
<mgrwt>
<rscale>  0 0.12498920E+03</rscale>
<asrwt>0</asrwt>
<pdfrwt beam="2">  1        4 0.17942495E+00 0.12498920E+03</pdfrwt>
<pdfrwt beam="1">  1       -4 0.51519950E-03 0.12498920E+03</pdfrwt>
<totfact> 0.25528336E+03</totfact>
</mgrwt>
</event>
<event>
 5    1  0.3330238E-002  0.1249975E+03  0.7818608E-02  0.1235073E+00
          4   -1    0    0  501    0  0.00000000000E+00  0.00000000000E+00  0.42288560184E+02  0.42307626055E+02  0.12700000000E+01 0.  1.
         -4   -1    0    0    0  501 -0.00000000000E+00 -0.00000000000E+00 -0.92323436319E+02  0.92332170958E+02  0.12700000000E+01 0.  1.
         25    2    1    2    0    0  0.00000000000E+00  0.00000000000E+00 -0.50034876135E+02  0.13463979701E+03  0.12499754441E+03 0.  0.
    9000005    1    3    3    0    0  0.28121541835E+02  0.54794908239E+02 -0.36406294895E+02  0.71552228421E+02  0.10000000000E+01 0.  0.
    9000005    1    3    3    0    0 -0.28121541835E+02 -0.54794908239E+02 -0.13628581241E+02  0.63087568591E+02  0.10000000000E+01 0.  0.
<mgrwt>
<rscale>  0 0.12499754E+03</rscale>
<asrwt>0</asrwt>
<pdfrwt beam="1">  1        4 0.65080709E-02 0.12499754E+03</pdfrwt>
<pdfrwt beam="2">  1       -4 0.14205744E-01 0.12499754E+03</pdfrwt>
<totfact> 0.10246236E+04</totfact>
</mgrwt>
</event>
<event>
 5    1  0.3330238E-002  0.1249941E+03  0.7818608E-02  0.1235078E+00
         -4   -1    0    0    0  501 -0.00000000000E+00  0.00000000000E+00  0.43466424926E+01  0.45283772986E+01  0.12700000000E+01 0.  1.
          4   -1    0    0  501    0  0.00000000000E+00 -0.00000000000E+00 -0.88001453397E+03  0.88001545037E+03  0.12700000000E+01 0.  1.
         25    2    1    2    0    0  0.00000000000E+00  0.00000000000E+00 -0.87566789147E+03  0.88454382767E+03  0.12499410750E+03 0.  0.
    9000005    1    3    3    0    0 -0.18260322406E+02 -0.41939223326E+02 -0.13655132290E+03  0.14401250506E+03  0.10000000000E+01 0.  0.
    9000005    1    3    3    0    0  0.18260322406E+02  0.41939223326E+02 -0.73911656858E+03  0.74053132261E+03  0.10000000000E+01 0.  0.
<mgrwt>
<rscale>  0 0.12499411E+03</rscale>
<asrwt>0</asrwt>
<pdfrwt beam="2">  1        4 0.13540076E+00 0.12499411E+03</pdfrwt>
<pdfrwt beam="1">  1       -4 0.68276502E-03 0.12499411E+03</pdfrwt>
<totfact> 0.34758409E+03</totfact>
</mgrwt>
</event>
<event>
 5    1  0.3330238E-002  0.1249934E+03  0.7818608E-02  0.1235080E+00
          4   -1    0    0  501    0  0.00000000000E+00  0.00000000000E+00  0.18774736103E+01  0.22666731475E+01  0.12700000000E+01 0.  1.
         -4   -1    0    0    0  501 -0.00000000000E+00 -0.00000000000E+00 -0.18846007905E+04  0.18846012184E+04  0.12700000000E+01 0.  1.
         25    2    1    2    0    0  0.00000000000E+00  0.00000000000E+00 -0.18827233169E+04  0.18868678915E+04  0.12499340883E+03 0.  0.
    9000005    1    3    3    0    0 -0.56807619069E+00  0.38110679513E+02 -0.19384183490E+03  0.19755607700E+03  0.10000000000E+01 0.  0.
    9000005    1    3    3    0    0  0.56807619069E+00 -0.38110679513E+02 -0.16888814820E+04  0.16893118145E+04  0.10000000000E+01 0.  0.
<mgrwt>
<rscale>  0 0.12499341E+03</rscale>
<asrwt>0</asrwt>
<pdfrwt beam="1">  1        4 0.31881494E-03 0.12499341E+03</pdfrwt>
<pdfrwt beam="2">  1       -4 0.28996718E+00 0.12499341E+03</pdfrwt>
<totfact> 0.11412817E+03</totfact>
</mgrwt>
</event>
<event>
 5    1  0.3330238E-002  0.1250096E+03  0.7818608E-02  0.1235054E+00
          4   -1    0    0  501    0  0.00000000000E+00  0.00000000000E+00  0.11321818218E+02  0.11392825275E+02  0.12700000000E+01 0.  1.
         -4   -1    0    0    0  501 -0.00000000000E+00 -0.00000000000E+00 -0.34392188331E+03  0.34392422817E+03  0.12700000000E+01 0.  1.
         25    2    1    2    0    0  0.00000000000E+00  0.00000000000E+00 -0.33260006509E+03  0.35531705344E+03  0.12500962030E+03 0.  0.
    9000005    1    3    3    0    0  0.20905006579E+02 -0.54565602457E+02 -0.22930896648E+03  0.23663902125E+03  0.10000000000E+01 0.  0.
    9000005    1    3    3    0    0 -0.20905006579E+02  0.54565602457E+02 -0.10329109861E+03  0.11867803219E+03  0.10000000000E+01 0.  0.
<mgrwt>
<rscale>  0 0.12500962E+03</rscale>
<asrwt>0</asrwt>
<pdfrwt beam="1">  1        4 0.17474609E-02 0.12500962E+03</pdfrwt>
<pdfrwt beam="2">  1       -4 0.52916693E-01 0.12500962E+03</pdfrwt>
<totfact> 0.69128838E+03</totfact>
</mgrwt>
</event>
<event>
 5    1  0.3330238E-002  0.1249990E+03  0.7818608E-02  0.1235071E+00
         -4   -1    0    0    0  501 -0.00000000000E+00  0.00000000000E+00  0.25080633991E+03  0.25080955532E+03  0.12700000000E+01 0.  1.
          4   -1    0    0  501    0  0.00000000000E+00 -0.00000000000E+00 -0.15545298588E+02  0.15597089734E+02  0.12700000000E+01 0.  1.
         25    2    1    2    0    0  0.00000000000E+00  0.00000000000E+00  0.23526104132E+03  0.26640664505E+03  0.12499897185E+03 0.  0.
    9000005    1    3    3    0    0  0.48414365869E+02  0.32496736400E+02  0.69726825832E+02  0.90900049174E+02  0.10000000000E+01 0.  0.
    9000005    1    3    3    0    0 -0.48414365869E+02 -0.32496736400E+02  0.16553421549E+03  0.17550659588E+03  0.10000000000E+01 0.  0.
<mgrwt>
<rscale>  0 0.12499897E+03</rscale>
<asrwt>0</asrwt>
<pdfrwt beam="2">  1        4 0.23958158E-02 0.12499897E+03</pdfrwt>
<pdfrwt beam="1">  1       -4 0.38589819E-01 0.12499897E+03</pdfrwt>
<totfact> 0.80017134E+03</totfact>
</mgrwt>
</event>
<event>
 5    1  0.3330238E-002  0.1250024E+03  0.7818608E-02  0.1235066E+00
          4   -1    0    0  501    0  0.00000000000E+00  0.00000000000E+00  0.11721994873E+02  0.11790592174E+02  0.12700000000E+01 0. -1.
         -4   -1    0    0    0  501 -0.00000000000E+00 -0.00000000000E+00 -0.33221179034E+03  0.33221421785E+03  0.12700000000E+01 0. -1.
         25    2    1    2    0    0  0.00000000000E+00  0.00000000000E+00 -0.32048979546E+03  0.34400481002E+03  0.12500240126E+03 0.  0.
    9000005    1    3    3    0    0 -0.42672617397E+02  0.98079554619E+01 -0.37534361752E+02  0.57679949532E+02  0.10000000000E+01 0.  0.
    9000005    1    3    3    0    0  0.42672617397E+02 -0.98079554619E+01 -0.28295543371E+03  0.28632486049E+03  0.10000000000E+01 0.  0.
<mgrwt>
<rscale>  0 0.12500240E+03</rscale>
<asrwt>0</asrwt>
<pdfrwt beam="1">  1        4 0.18088475E-02 0.12500240E+03</pdfrwt>
<pdfrwt beam="2">  1       -4 0.51114962E-01 0.12500240E+03</pdfrwt>
<totfact> 0.70385436E+03</totfact>
</mgrwt>
</event>
<event>
 5    1  0.3330238E-002  0.1250004E+03  0.7818608E-02  0.1235069E+00
         -4   -1    0    0    0  501 -0.00000000000E+00  0.00000000000E+00  0.52885588399E+01  0.54389111597E+01  0.12700000000E+01 0. -1.
          4   -1    0    0  501    0  0.00000000000E+00 -0.00000000000E+00 -0.72812403045E+03  0.72812513802E+03  0.12700000000E+01 0. -1.
         25    2    1    2    0    0  0.00000000000E+00  0.00000000000E+00 -0.72283547161E+03  0.73356404918E+03  0.12500038093E+03 0.  0.
    9000005    1    3    3    0    0 -0.24748362747E+01 -0.61803337946E+02 -0.41374167926E+03  0.41834071587E+03  0.10000000000E+01 0.  0.
    9000005    1    3    3    0    0  0.24748362747E+01  0.61803337946E+02 -0.30909379234E+03  0.31522333331E+03  0.10000000000E+01 0.  0.
<mgrwt>
<rscale>  0 0.12500038E+03</rscale>
<asrwt>0</asrwt>
<pdfrwt beam="2">  1        4 0.11203065E+00 0.12500038E+03</pdfrwt>
<pdfrwt beam="1">  1       -4 0.82527577E-03 0.12500038E+03</pdfrwt>
<totfact> 0.41372556E+03</totfact>
</mgrwt>
</event>
<event>
 5    1  0.3330238E-002  0.1249852E+03  0.7818608E-02  0.1235092E+00
          4   -1    0    0  501    0  0.00000000000E+00  0.00000000000E+00  0.32547602239E+02  0.32572370370E+02  0.12700000000E+01 0. -1.
         -4   -1    0    0    0  501 -0.00000000000E+00 -0.00000000000E+00 -0.11991432127E+03  0.11992104630E+03  0.12700000000E+01 0. -1.
         25    2    1    2    0    0  0.00000000000E+00  0.00000000000E+00 -0.87366719028E+02  0.15249341667E+03  0.12498519326E+03 0.  0.
    9000005    1    3    3    0    0 -0.17479474724E+02 -0.49904282771E+02 -0.84302619057E+02  0.99518345321E+02  0.10000000000E+01 0.  0.
    9000005    1    3    3    0    0  0.17479474724E+02  0.49904282771E+02 -0.30640999710E+01  0.52975071346E+02  0.10000000000E+01 0.  0.
<mgrwt>
<rscale>  0 0.12498519E+03</rscale>
<asrwt>0</asrwt>
<pdfrwt beam="1">  1        4 0.50097461E-02 0.12498519E+03</pdfrwt>
<pdfrwt beam="2">  1       -4 0.18450779E-01 0.12498519E+03</pdfrwt>
<totfact> 0.98841900E+03</totfact>
</mgrwt>
</event>
<event>
 5    1  0.3330238E-002  0.1250000E+03  0.7818608E-02  0.1235069E+00
          4   -1    0    0  501    0  0.00000000000E+00  0.00000000000E+00  0.14828927247E+02  0.14883211458E+02  0.12700000000E+01 0.  1.
         -4   -1    0    0    0  501 -0.00000000000E+00 -0.00000000000E+00 -0.26288374130E+03  0.26288680899E+03  0.12700000000E+01 0.  1.
         25    2    1    2    0    0  0.00000000000E+00  0.00000000000E+00 -0.24805481405E+03  0.27777002044E+03  0.12499997394E+03 0.  0.
    9000005    1    3    3    0    0 -0.26037343114E+02 -0.45777189381E+02 -0.19878434083E+03  0.20564461690E+03  0.10000000000E+01 0.  0.
    9000005    1    3    3    0    0  0.26037343114E+02  0.45777189381E+02 -0.49270473224E+02  0.72125403540E+02  0.10000000000E+01 0.  0.
<mgrwt>
<rscale>  0 0.12499997E+03</rscale>
<asrwt>0</asrwt>
<pdfrwt beam="1">  1        4 0.22857853E-02 0.12499997E+03</pdfrwt>
<pdfrwt beam="2">  1       -4 0.40448061E-01 0.12499997E+03</pdfrwt>
<totfact> 0.78474763E+03</totfact>
</mgrwt>
</event>
<event>
 5    1  0.3330238E-002  0.1250051E+03  0.7818608E-02  0.1235061E+00
          4   -1    0    0  501    0  0.00000000000E+00  0.00000000000E+00  0.45063710574E+03  0.45063889532E+03  0.12700000000E+01 0.  1.
         -4   -1    0    0    0  501 -0.00000000000E+00 -0.00000000000E+00 -0.86206545272E+01  0.87137009632E+01  0.12700000000E+01 0.  1.
         25    2    1    2    0    0  0.00000000000E+00  0.00000000000E+00  0.44201645121E+03  0.45935259628E+03  0.12500505815E+03 0.  0.
    9000005    1    3    3    0    0  0.32431526881E+02  0.23242846870E+02  0.44259467860E+02  0.59598107031E+02  0.10000000000E+01 0.  0.
    9000005    1    3    3    0    0 -0.32431526881E+02 -0.23242846870E+02  0.39775698335E+03  0.39975448925E+03  0.10000000000E+01 0.  0.
<mgrwt>
<rscale>  0 0.12500506E+03</rscale>
<asrwt>0</asrwt>
<pdfrwt beam="1">  1        4 0.69336079E-01 0.12500506E+03</pdfrwt>
<pdfrwt beam="2">  1       -4 0.13335497E-02 0.12500506E+03</pdfrwt>
<totfact> 0.59155468E+03</totfact>
</mgrwt>
</event>
<event>
 5    1  0.3330238E-002  0.1249942E+03  0.7818608E-02  0.1235078E+00
          4   -1    0    0  501    0  0.00000000000E+00  0.00000000000E+00  0.10040833631E+02  0.10120831982E+02  0.12700000000E+01 0.  1.
         -4   -1    0    0    0  501 -0.00000000000E+00 -0.00000000000E+00 -0.38737601156E+03  0.38737809338E+03  0.12700000000E+01 0.  1.
         25    2    1    2    0    0  0.00000000000E+00  0.00000000000E+00 -0.37733517793E+03  0.39749892536E+03  0.12499423652E+03 0.  0.
    9000005    1    3    3    0    0 -0.35772193838E+02 -0.49075400507E+02 -0.14183796389E+03  0.15429534273E+03  0.10000000000E+01 0.  0.
    9000005    1    3    3    0    0  0.35772193838E+02  0.49075400507E+02 -0.23549721404E+03  0.24320358263E+03  0.10000000000E+01 0.  0.
<mgrwt>
<rscale>  0 0.12499424E+03</rscale>
<asrwt>0</asrwt>
<pdfrwt beam="1">  1        4 0.15510578E-02 0.12499424E+03</pdfrwt>
<pdfrwt beam="2">  1       -4 0.59602612E-01 0.12499424E+03</pdfrwt>
<totfact> 0.64805021E+03</totfact>
</mgrwt>
</event>
<event>
 5    1  0.3330238E-002  0.1249998E+03  0.7818608E-02  0.1235070E+00
         -4   -1    0    0    0  501 -0.00000000000E+00  0.00000000000E+00  0.27775473869E+03  0.27775764213E+03  0.12700000000E+01 0. -1.
          4   -1    0    0  501    0  0.00000000000E+00 -0.00000000000E+00 -0.14031968758E+02  0.14089323873E+02  0.12700000000E+01 0. -1.
         25    2    1    2    0    0  0.00000000000E+00  0.00000000000E+00  0.26372276993E+03  0.29184696601E+03  0.12499980875E+03 0.  0.
    9000005    1    3    3    0    0  0.11277876097E+02  0.30308363457E+02  0.25671098001E+03  0.25874179145E+03  0.10000000000E+01 0.  0.
    9000005    1    3    3    0    0 -0.11277876097E+02 -0.30308363457E+02  0.70117899223E+01  0.33105174560E+02  0.10000000000E+01 0.  0.
<mgrwt>
<rscale>  0 0.12499981E+03</rscale>
<asrwt>0</asrwt>
<pdfrwt beam="2">  1        4 0.21633997E-02 0.12499981E+03</pdfrwt>
<pdfrwt beam="1">  1       -4 0.42736133E-01 0.12499981E+03</pdfrwt>
<totfact> 0.76633380E+03</totfact>
</mgrwt>
</event>
<event>
 5    1  0.3330238E-002  0.1250002E+03  0.7818608E-02  0.1235069E+00
         -4   -1    0    0    0  501 -0.00000000000E+00  0.00000000000E+00  0.23541605742E+02  0.23575837226E+02  0.12700000000E+01 0. -1.
          4   -1    0    0  501    0  0.00000000000E+00 -0.00000000000E+00 -0.16577307466E+03  0.16577793937E+03  0.12700000000E+01 0. -1.
         25    2    1    2    0    0  0.00000000000E+00  0.00000000000E+00 -0.14223146892E+03  0.18935377660E+03  0.12500024785E+03 0.  0.
    9000005    1    3    3    0    0 -0.88783801408E+01  0.35720636978E+02  0.53864284009E+01  0.37212943325E+02  0.10000000000E+01 0.  0.
    9000005    1    3    3    0    0  0.88783801408E+01 -0.35720636978E+02 -0.14761789732E+03  0.15214083327E+03  0.10000000000E+01 0.  0.
<mgrwt>
<rscale>  0 0.12500025E+03</rscale>
<asrwt>0</asrwt>
<pdfrwt beam="2">  1        4 0.25506557E-01 0.12500025E+03</pdfrwt>
<pdfrwt beam="1">  1       -4 0.36247930E-02 0.12500025E+03</pdfrwt>
<totfact> 0.91959367E+03</totfact>
</mgrwt>
</event>
<event>
 5    1  0.3330238E-002  0.1249973E+03  0.7818608E-02  0.1235073E+00
          4   -1    0    0  501    0  0.00000000000E+00  0.00000000000E+00  0.83657386562E+03  0.83657482961E+03  0.12700000000E+01 0. -1.
         -4   -1    0    0    0  501 -0.00000000000E+00 -0.00000000000E+00 -0.45817993457E+01  0.47545541583E+01  0.12700000000E+01 0. -1.
         25    2    1    2    0    0  0.00000000000E+00  0.00000000000E+00  0.83199206628E+03  0.84132938377E+03  0.12499733457E+03 0.  0.
    9000005    1    3    3    0    0 -0.54114504310E+02 -0.19991161958E+02  0.57768290793E+03  0.58055711885E+03  0.10000000000E+01 0.  0.
    9000005    1    3    3    0    0  0.54114504310E+02  0.19991161958E+02  0.25430915834E+03  0.26077226492E+03  0.10000000000E+01 0.  0.
<mgrwt>
<rscale>  0 0.12499733E+03</rscale>
<asrwt>0</asrwt>
<pdfrwt beam="1">  1        4 0.12871709E+00 0.12499733E+03</pdfrwt>
<pdfrwt beam="2">  1       -4 0.71825489E-03 0.12499733E+03</pdfrwt>
<totfact> 0.36486893E+03</totfact>
</mgrwt>
</event>
<event>
 5    1  0.3330238E-002  0.1249996E+03  0.7818608E-02  0.1235070E+00
         -4   -1    0    0    0  501 -0.00000000000E+00  0.00000000000E+00  0.39615597836E+02  0.39635949489E+02  0.12700000000E+01 0. -1.
          4   -1    0    0  501    0  0.00000000000E+00 -0.00000000000E+00 -0.98553370023E+02  0.98561552559E+02  0.12700000000E+01 0. -1.
         25    2    1    2    0    0  0.00000000000E+00  0.00000000000E+00 -0.58937772187E+02  0.13819750205E+03  0.12499955433E+03 0.  0.
    9000005    1    3    3    0    0  0.51573978125E+02  0.18643275800E+02  0.36576121096E+01  0.54971129501E+02  0.10000000000E+01 0.  0.
    9000005    1    3    3    0    0 -0.51573978125E+02 -0.18643275800E+02 -0.62595384297E+02  0.83226372548E+02  0.10000000000E+01 0.  0.
<mgrwt>
<rscale>  0 0.12499955E+03</rscale>
<asrwt>0</asrwt>
<pdfrwt beam="2">  1        4 0.15164252E-01 0.12499955E+03</pdfrwt>
<pdfrwt beam="1">  1       -4 0.60969023E-02 0.12499955E+03</pdfrwt>
<totfact> 0.10171183E+04</totfact>
</mgrwt>
</event>
<event>
 5    1  0.3330238E-002  0.1250010E+03  0.7818608E-02  0.1235068E+00
         -4   -1    0    0    0  501 -0.00000000000E+00  0.00000000000E+00  0.18468773290E+02  0.18512387389E+02  0.12700000000E+01 0. -1.
          4   -1    0    0  501    0  0.00000000000E+00 -0.00000000000E+00 -0.21121402506E+03  0.21121784319E+03  0.12700000000E+01 0. -1.
         25    2    1    2    0    0  0.00000000000E+00  0.00000000000E+00 -0.19274525177E+03  0.22973023058E+03  0.12500098704E+03 0.  0.
    9000005    1    3    3    0    0 -0.17989487237E+02  0.21235953277E+02  0.64590988806E+01  0.28588587251E+02  0.10000000000E+01 0.  0.
    9000005    1    3    3    0    0  0.17989487237E+02 -0.21235953277E+02 -0.19920435065E+03  0.20114164333E+03  0.10000000000E+01 0.  0.
<mgrwt>
<rscale>  0 0.12500099E+03</rscale>
<asrwt>0</asrwt>
<pdfrwt beam="2">  1        4 0.32498112E-01 0.12500099E+03</pdfrwt>
<pdfrwt beam="1">  1       -4 0.28449985E-02 0.12500099E+03</pdfrwt>
<totfact> 0.85349158E+03</totfact>
</mgrwt>
</event>
<event>
 5    1  0.3330238E-002  0.1250013E+03  0.7818608E-02  0.1235067E+00
          4   -1    0    0  501    0  0.00000000000E+00  0.00000000000E+00  0.17939856290E+02  0.17984753090E+02  0.12700000000E+01 0. -1.
         -4   -1    0    0    0  501 -0.00000000000E+00 -0.00000000000E+00 -0.21742703718E+03  0.21743074620E+03  0.12700000000E+01 0. -1.
         25    2    1    2    0    0  0.00000000000E+00  0.00000000000E+00 -0.19948718089E+03  0.23541549929E+03  0.12500128787E+03 0.  0.
    9000005    1    3    3    0    0 -0.46888277879E+02 -0.37048942807E+02 -0.13417232111E+03  0.14688208372E+03  0.10000000000E+01 0.  0.
    9000005    1    3    3    0    0  0.46888277879E+02  0.37048942807E+02 -0.65314859772E+02  0.88533415571E+02  0.10000000000E+01 0.  0.
<mgrwt>
<rscale>  0 0.12500129E+03</rscale>
<asrwt>0</asrwt>
<pdfrwt beam="1">  1        4 0.27637170E-02 0.12500129E+03</pdfrwt>
<pdfrwt beam="2">  1       -4 0.33454050E-01 0.12500129E+03</pdfrwt>
<totfact> 0.84482494E+03</totfact>
</mgrwt>
</event>
<event>
 5    1  0.3330238E-002  0.1250020E+03  0.7818608E-02  0.1235066E+00
          4   -1    0    0  501    0  0.00000000000E+00  0.00000000000E+00  0.16623544365E+03  0.16624029483E+03  0.12700000000E+01 0.  1.
         -4   -1    0    0    0  501 -0.00000000000E+00 -0.00000000000E+00 -0.23476699103E+02  0.23511025090E+02  0.12700000000E+01 0.  1.
         25    2    1    2    0    0  0.00000000000E+00  0.00000000000E+00  0.14275874455E+03  0.18975131992E+03  0.12500201705E+03 0.  0.
    9000005    1    3    3    0    0 -0.19929708903E+02 -0.54312869423E+02  0.10724675178E+03  0.12186035799E+03  0.10000000000E+01 0.  0.
    9000005    1    3    3    0    0  0.19929708903E+02  0.54312869423E+02  0.35511992770E+02  0.67890961934E+02  0.10000000000E+01 0.  0.
<mgrwt>
<rscale>  0 0.12500202E+03</rscale>
<asrwt>0</asrwt>
<pdfrwt beam="1">  1        4 0.25577697E-01 0.12500202E+03</pdfrwt>
<pdfrwt beam="2">  1       -4 0.36148136E-02 0.12500202E+03</pdfrwt>
<totfact> 0.91886450E+03</totfact>
</mgrwt>
</event>
<event>
 5    1  0.3330238E-002  0.1250004E+03  0.7818608E-02  0.1235069E+00
          4   -1    0    0  501    0  0.00000000000E+00  0.00000000000E+00  0.76389760220E+02  0.76400316534E+02  0.12700000000E+01 0.  1.
         -4   -1    0    0    0  501 -0.00000000000E+00 -0.00000000000E+00 -0.51114124943E+02  0.51129899948E+02  0.12700000000E+01 0.  1.
         25    2    1    2    0    0  0.00000000000E+00  0.00000000000E+00  0.25275635277E+02  0.12753021648E+03  0.12500039351E+03 0.  0.
    9000005    1    3    3    0    0  0.41695039459E+02 -0.41064526061E+02  0.35001831801E+02  0.68197506153E+02  0.10000000000E+01 0.  0.
    9000005    1    3    3    0    0 -0.41695039459E+02  0.41064526061E+02 -0.97261965233E+01  0.59332710328E+02  0.10000000000E+01 0.  0.
<mgrwt>
<rscale>  0 0.12500039E+03</rscale>
<asrwt>0</asrwt>
<pdfrwt beam="1">  1        4 0.11754296E-01 0.12500039E+03</pdfrwt>
<pdfrwt beam="2">  1       -4 0.78657371E-02 0.12500039E+03</pdfrwt>
<totfact> 0.10397554E+04</totfact>
</mgrwt>
</event>
<event>
 5    1  0.3330238E-002  0.1249936E+03  0.7818608E-02  0.1235079E+00
         -4   -1    0    0    0  501 -0.00000000000E+00  0.00000000000E+00  0.23417170117E+03  0.23417514499E+03  0.12700000000E+01 0.  1.
          4   -1    0    0  501    0  0.00000000000E+00 -0.00000000000E+00 -0.16651668458E+02  0.16700028815E+02  0.12700000000E+01 0.  1.
         25    2    1    2    0    0  0.00000000000E+00  0.00000000000E+00  0.21752003271E+03  0.25087517380E+03  0.12499355263E+03 0.  0.
    9000005    1    3    3    0    0 -0.27703812353E+01 -0.11469740976E+00 -0.16537981167E+02  0.16798600797E+02  0.10000000000E+01 0.  0.
    9000005    1    3    3    0    0  0.27703812353E+01  0.11469740976E+00  0.23405801388E+03  0.23407657300E+03  0.10000000000E+01 0.  0.
<mgrwt>
<rscale>  0 0.12499355E+03</rscale>
<asrwt>0</asrwt>
<pdfrwt beam="2">  1        4 0.25657800E-02 0.12499355E+03</pdfrwt>
<pdfrwt beam="1">  1       -4 0.36030401E-01 0.12499355E+03</pdfrwt>
<totfact> 0.82215708E+03</totfact>
</mgrwt>
</event>
<event>
 5    1  0.3330238E-002  0.1250037E+03  0.7818608E-02  0.1235063E+00
          4   -1    0    0  501    0  0.00000000000E+00  0.00000000000E+00  0.43542577146E+01  0.45356874060E+01  0.12700000000E+01 0.  1.
         -4   -1    0    0    0  501 -0.00000000000E+00 -0.00000000000E+00 -0.87867202134E+03  0.87867293914E+03  0.12700000000E+01 0.  1.
         25    2    1    2    0    0  0.00000000000E+00  0.00000000000E+00 -0.87431776362E+03  0.88320862655E+03  0.12500370484E+03 0.  0.
    9000005    1    3    3    0    0  0.36385655755E+02 -0.33687678286E+02 -0.70589779115E+03  0.70763794921E+03  0.10000000000E+01 0.  0.
    9000005    1    3    3    0    0 -0.36385655755E+02  0.33687678286E+02 -0.16841997247E+03  0.17557067734E+03  0.10000000000E+01 0.  0.
<mgrwt>
<rscale>  0 0.12500370E+03</rscale>
<asrwt>0</asrwt>
<pdfrwt beam="1">  1        4 0.68391323E-03 0.12500370E+03</pdfrwt>
<pdfrwt beam="2">  1       -4 0.13519420E+00 0.12500370E+03</pdfrwt>
<totfact> 0.34802778E+03</totfact>
</mgrwt>
</event>
<event>
 5    1  0.3330238E-002  0.1249931E+03  0.7818608E-02  0.1235080E+00
         -4   -1    0    0    0  501 -0.00000000000E+00  0.00000000000E+00  0.22383242040E+02  0.22419242276E+02  0.12700000000E+01 0. -1.
          4   -1    0    0  501    0  0.00000000000E+00 -0.00000000000E+00 -0.17431882016E+03  0.17432344639E+03  0.12700000000E+01 0. -1.
         25    2    1    2    0    0  0.00000000000E+00  0.00000000000E+00 -0.15193557812E+03  0.19674268867E+03  0.12499306239E+03 0.  0.
    9000005    1    3    3    0    0 -0.27395754176E+02  0.39448285334E+02 -0.13889197968E+03  0.14696488214E+03  0.10000000000E+01 0.  0.
    9000005    1    3    3    0    0  0.27395754176E+02 -0.39448285334E+02 -0.13043598442E+02  0.49777806530E+02  0.10000000000E+01 0.  0.
<mgrwt>
<rscale>  0 0.12499306E+03</rscale>
<asrwt>0</asrwt>
<pdfrwt beam="2">  1        4 0.26821404E-01 0.12499306E+03</pdfrwt>
<pdfrwt beam="1">  1       -4 0.34467009E-02 0.12499306E+03</pdfrwt>
<totfact> 0.90701250E+03</totfact>
</mgrwt>
</event>
<event>
 5    1  0.3330238E-002  0.1249965E+03  0.7818608E-02  0.1235075E+00
         -4   -1    0    0    0  501 -0.00000000000E+00  0.00000000000E+00  0.12356970985E+03  0.12357623595E+03  0.12700000000E+01 0. -1.
          4   -1    0    0  501    0  0.00000000000E+00 -0.00000000000E+00 -0.31589814207E+02  0.31615332698E+02  0.12700000000E+01 0. -1.
         25    2    1    2    0    0  0.00000000000E+00  0.00000000000E+00  0.91979895640E+02  0.15519156865E+03  0.12499648706E+03 0.  0.
    9000005    1    3    3    0    0 -0.20421545830E+02 -0.44195171485E+02 -0.26499954111E+01  0.48767562912E+02  0.10000000000E+01 0.  0.
    9000005    1    3    3    0    0  0.20421545830E+02  0.44195171485E+02  0.94629891051E+02  0.10642400574E+03  0.10000000000E+01 0.  0.
<mgrwt>
<rscale>  0 0.12499649E+03</rscale>
<asrwt>0</asrwt>
<pdfrwt beam="2">  1        4 0.48624364E-02 0.12499649E+03</pdfrwt>
<pdfrwt beam="1">  1       -4 0.19013190E-01 0.12499649E+03</pdfrwt>
<totfact> 0.98285669E+03</totfact>
</mgrwt>
</event>
<event>
 5    1  0.3330238E-002  0.1249981E+03  0.7818608E-02  0.1235072E+00
         -4   -1    0    0    0  501 -0.00000000000E+00  0.00000000000E+00  0.53649318805E+02  0.53664348577E+02  0.12700000000E+01 0. -1.
          4   -1    0    0  501    0  0.00000000000E+00 -0.00000000000E+00 -0.72777770016E+02  0.72788850166E+02  0.12700000000E+01 0. -1.
         25    2    1    2    0    0  0.00000000000E+00  0.00000000000E+00 -0.19128451211E+02  0.12645319874E+03  0.12499805529E+03 0.  0.
    9000005    1    3    3    0    0 -0.58737326189E+02 -0.50396434054E+01 -0.30533697378E+02  0.66398630777E+02  0.10000000000E+01 0.  0.
    9000005    1    3    3    0    0  0.58737326189E+02  0.50396434054E+01  0.11405246167E+02  0.60054567966E+02  0.10000000000E+01 0.  0.
<mgrwt>
<rscale>  0 0.12499806E+03</rscale>
<asrwt>0</asrwt>
<pdfrwt beam="2">  1        4 0.11198588E-01 0.12499806E+03</pdfrwt>
<pdfrwt beam="1">  1       -4 0.82557498E-02 0.12499806E+03</pdfrwt>
<totfact> 0.10421506E+04</totfact>
</mgrwt>
</event>
<event>
 5    1  0.3330238E-002  0.1250026E+03  0.7818608E-02  0.1235065E+00
          4   -1    0    0  501    0  0.00000000000E+00  0.00000000000E+00  0.59663005646E+02  0.59676520867E+02  0.12700000000E+01 0.  1.
         -4   -1    0    0    0  501 -0.00000000000E+00 -0.00000000000E+00 -0.65447545790E+02  0.65459866712E+02  0.12700000000E+01 0.  1.
         25    2    1    2    0    0  0.00000000000E+00  0.00000000000E+00 -0.57845401439E+01  0.12513638758E+03  0.12500261834E+03 0.  0.
    9000005    1    3    3    0    0  0.26127607733E+02  0.29874089081E+02 -0.51217115528E+02  0.64802052493E+02  0.10000000000E+01 0.  0.
    9000005    1    3    3    0    0 -0.26127607733E+02 -0.29874089081E+02  0.45432575384E+02  0.60334335086E+02  0.10000000000E+01 0.  0.
<mgrwt>
<rscale>  0 0.12500262E+03</rscale>
<asrwt>0</asrwt>
<pdfrwt beam="1">  1        4 0.91809113E-02 0.12500262E+03</pdfrwt>
<pdfrwt beam="2">  1       -4 0.10070841E-01 0.12500262E+03</pdfrwt>
<totfact> 0.10449283E+04</totfact>
</mgrwt>
</event>
<event>
 4    1  0.3330238E-002  0.1245800E+03  0.7818608E-02  0.1235727E+00
         -4   -1    0    0    0  501 -0.00000000000E+00  0.00000000000E+00  0.36657452814E+02  0.36679445835E+02  0.12700000000E+01 0. -1.
          4   -1    0    0  501    0  0.00000000000E+00 -0.00000000000E+00 -0.10578848706E+03  0.10579611002E+03  0.12700000000E+01 0. -1.
    9000005    1    1    2    0    0 -0.36349950732E+02 -0.19749408331E+02  0.18680890236E+02  0.45401913039E+02  0.10000000000E+01 0.  0.
    9000005    1    1    2    0    0  0.36349950732E+02  0.19749408331E+02 -0.87811924487E+02  0.97073642817E+02  0.10000000000E+01 0.  0.
<mgrwt>
<rscale>  0 0.12458003E+03</rscale>
<asrwt>0</asrwt>
<pdfrwt beam="2">  1        4 0.16277430E-01 0.12458003E+03</pdfrwt>
<pdfrwt beam="1">  1       -4 0.56418863E-02 0.12458003E+03</pdfrwt>
<totfact> 0.10178503E+04</totfact>
</mgrwt>
</event>
<event>
 5    1  0.3330238E-002  0.1250016E+03  0.7818608E-02  0.1235067E+00
          4   -1    0    0  501    0  0.00000000000E+00  0.00000000000E+00  0.51230343834E+02  0.51246083063E+02  0.12700000000E+01 0.  1.
         -4   -1    0    0    0  501 -0.00000000000E+00 -0.00000000000E+00 -0.76218009061E+02  0.76228589160E+02  0.12700000000E+01 0.  1.
         25    2    1    2    0    0  0.00000000000E+00  0.00000000000E+00 -0.24987665227E+02  0.12747467222E+03  0.12500163457E+03 0.  0.
    9000005    1    3    3    0    0  0.44100475720E+01 -0.59077225537E+02  0.77941055558E+01  0.59760481743E+02  0.10000000000E+01 0.  0.
    9000005    1    3    3    0    0 -0.44100475720E+01  0.59077225537E+02 -0.32781770783E+02  0.67714190480E+02  0.10000000000E+01 0.  0.
<mgrwt>
<rscale>  0 0.12500163E+03</rscale>
<asrwt>0</asrwt>
<pdfrwt beam="1">  1        4 0.78836159E-02 0.12500163E+03</pdfrwt>
<pdfrwt beam="2">  1       -4 0.11727872E-01 0.12500163E+03</pdfrwt>
<totfact> 0.10398465E+04</totfact>
</mgrwt>
</event>
<event>
 5    1  0.3330238E-002  0.1249444E+03  0.7818608E-02  0.1235156E+00
          4   -1    0    0  501    0  0.00000000000E+00  0.00000000000E+00  0.22136862832E+03  0.22137227131E+03  0.12700000000E+01 0.  1.
         -4   -1    0    0    0  501 -0.00000000000E+00 -0.00000000000E+00 -0.17603554829E+02  0.17649307142E+02  0.12700000000E+01 0.  1.
         25    2    1    2    0    0  0.00000000000E+00  0.00000000000E+00  0.20376507349E+03  0.23902157845E+03  0.12494442681E+03 0.  0.
    9000005    1    3    3    0    0 -0.10375387188E+02 -0.51099538036E+02  0.36085497357E+02  0.63419039462E+02  0.10000000000E+01 0.  0.
    9000005    1    3    3    0    0  0.10375387188E+02  0.51099538036E+02  0.16767957614E+03  0.17560253899E+03  0.10000000000E+01 0.  0.
<mgrwt>
<rscale>  0 0.12494443E+03</rscale>
<asrwt>0</asrwt>
<pdfrwt beam="1">  1        4 0.34060512E-01 0.12494443E+03</pdfrwt>
<pdfrwt beam="2">  1       -4 0.27120388E-02 0.12494443E+03</pdfrwt>
<totfact> 0.84047393E+03</totfact>
</mgrwt>
</event>
<event>
 5    1  0.3330238E-002  0.1249961E+03  0.7818608E-02  0.1235075E+00
          4   -1    0    0  501    0  0.00000000000E+00  0.00000000000E+00  0.27544860740E+03  0.27545153515E+03  0.12700000000E+01 0.  1.
         -4   -1    0    0    0  501 -0.00000000000E+00 -0.00000000000E+00 -0.14149072469E+02  0.14205954798E+02  0.12700000000E+01 0.  1.
         25    2    1    2    0    0  0.00000000000E+00  0.00000000000E+00  0.26129953493E+03  0.28965748995E+03  0.12499605806E+03 0.  0.
    9000005    1    3    3    0    0 -0.45036309465E+02 -0.26867355383E+02  0.51898633634E+02  0.73787479483E+02  0.10000000000E+01 0.  0.
    9000005    1    3    3    0    0  0.45036309465E+02  0.26867355383E+02  0.20940090129E+03  0.21587001046E+03  0.10000000000E+01 0.  0.
<mgrwt>
<rscale>  0 0.12499606E+03</rscale>
<asrwt>0</asrwt>
<pdfrwt beam="1">  1        4 0.42381305E-01 0.12499606E+03</pdfrwt>
<pdfrwt beam="2">  1       -4 0.21813814E-02 0.12499606E+03</pdfrwt>
<totfact> 0.76921511E+03</totfact>
</mgrwt>
</event>
<event>
 5    1  0.3330238E-002  0.1250026E+03  0.7818608E-02  0.1235065E+00
         -4   -1    0    0    0  501 -0.00000000000E+00  0.00000000000E+00  0.29047229334E+02  0.29074979484E+02  0.12700000000E+01 0.  1.
          4   -1    0    0  501    0  0.00000000000E+00 -0.00000000000E+00 -0.13438991289E+03  0.13439591358E+03  0.12700000000E+01 0.  1.
         25    2    1    2    0    0  0.00000000000E+00  0.00000000000E+00 -0.10534268355E+03  0.16347089306E+03  0.12500260757E+03 0.  0.
    9000005    1    3    3    0    0  0.38506422666E+02  0.22325894408E+02  0.46939284725E+01  0.44768550481E+02  0.10000000000E+01 0.  0.
    9000005    1    3    3    0    0 -0.38506422666E+02 -0.22325894408E+02 -0.11003661202E+03  0.11870234258E+03  0.10000000000E+01 0.  0.
<mgrwt>
<rscale>  0 0.12500261E+03</rscale>
<asrwt>0</asrwt>
<pdfrwt beam="2">  1        4 0.20677967E-01 0.12500261E+03</pdfrwt>
<pdfrwt beam="1">  1       -4 0.44714008E-02 0.12500261E+03</pdfrwt>
<totfact> 0.96672103E+03</totfact>
</mgrwt>
</event>
<event>
 5    1  0.3330238E-002  0.1249565E+03  0.7818608E-02  0.1235137E+00
          4   -1    0    0  501    0  0.00000000000E+00  0.00000000000E+00  0.92816636238E+02  0.92825324468E+02  0.12700000000E+01 0.  1.
         -4   -1    0    0    0  501 -0.00000000000E+00 -0.00000000000E+00 -0.42036099787E+02  0.42055280112E+02  0.12700000000E+01 0.  1.
         25    2    1    2    0    0  0.00000000000E+00  0.00000000000E+00  0.50780536451E+02  0.13488060458E+03  0.12495645085E+03 0.  0.
    9000005    1    3    3    0    0 -0.40035878761E+01  0.80235813142E+01  0.92123644785E+02  0.92564423519E+02  0.10000000000E+01 0.  0.
    9000005    1    3    3    0    0  0.40035878761E+01 -0.80235813142E+01 -0.41343108333E+02  0.42316181062E+02  0.10000000000E+01 0.  0.
<mgrwt>
<rscale>  0 0.12495645E+03</rscale>
<asrwt>0</asrwt>
<pdfrwt beam="1">  1        4 0.14281626E-01 0.12495645E+03</pdfrwt>
<pdfrwt beam="2">  1       -4 0.64692361E-02 0.12495645E+03</pdfrwt>
<totfact> 0.10250652E+04</totfact>
</mgrwt>
</event>
<event>
 5    1  0.3330238E-002  0.1249975E+03  0.7818608E-02  0.1235073E+00
         -4   -1    0    0    0  501 -0.00000000000E+00  0.00000000000E+00  0.16290392199E+02  0.16339821848E+02  0.12700000000E+01 0. -1.
          4   -1    0    0  501    0  0.00000000000E+00 -0.00000000000E+00 -0.23936451553E+03  0.23936788464E+03  0.12700000000E+01 0. -1.
         25    2    1    2    0    0  0.00000000000E+00  0.00000000000E+00 -0.22307412333E+03  0.25570770649E+03  0.12499746660E+03 0.  0.
    9000005    1    3    3    0    0 -0.46808017017E+02 -0.29049484358E+02 -0.17188456375E+03  0.18049976802E+03  0.10000000000E+01 0.  0.
    9000005    1    3    3    0    0  0.46808017017E+02  0.29049484358E+02 -0.51189559584E+02  0.75207938470E+02  0.10000000000E+01 0.  0.
<mgrwt>
<rscale>  0 0.12499747E+03</rscale>
<asrwt>0</asrwt>
<pdfrwt beam="2">  1        4 0.36829369E-01 0.12499747E+03</pdfrwt>
<pdfrwt beam="1">  1       -4 0.25102758E-02 0.12499747E+03</pdfrwt>
<totfact> 0.81516822E+03</totfact>
</mgrwt>
</event>
<event>
 5    1  0.3330238E-002  0.1249977E+03  0.7818608E-02  0.1235073E+00
         -4   -1    0    0    0  501 -0.00000000000E+00  0.00000000000E+00  0.24855245310E+01  0.27911883122E+01  0.12700000000E+01 0.  1.
          4   -1    0    0  501    0  0.00000000000E+00 -0.00000000000E+00 -0.14802006739E+04  0.14802012187E+04  0.12700000000E+01 0.  1.
         25    2    1    2    0    0  0.00000000000E+00  0.00000000000E+00 -0.14777151493E+04  0.14829924070E+04  0.12499766659E+03 0.  0.
    9000005    1    3    3    0    0 -0.31255637805E+02 -0.24673201988E+02 -0.16747506462E+03  0.17214696936E+03  0.10000000000E+01 0.  0.
    9000005    1    3    3    0    0  0.31255637805E+02  0.24673201988E+02 -0.13102400847E+04  0.13108454377E+04  0.10000000000E+01 0.  0.
<mgrwt>
<rscale>  0 0.12499767E+03</rscale>
<asrwt>0</asrwt>
<pdfrwt beam="2">  1        4 0.22774607E+00 0.12499767E+03</pdfrwt>
<pdfrwt beam="1">  1       -4 0.40594408E-03 0.12499767E+03</pdfrwt>
<totfact> 0.18267961E+03</totfact>
</mgrwt>
</event>
<event>
 5    1  0.3330238E-002  0.1250025E+03  0.7818608E-02  0.1235065E+00
          4   -1    0    0  501    0  0.00000000000E+00  0.00000000000E+00  0.35066738360E+01  0.37295658450E+01  0.12700000000E+01 0. -1.
         -4   -1    0    0    0  501 -0.00000000000E+00 -0.00000000000E+00 -0.10794552225E+04  0.10794559696E+04  0.12700000000E+01 0. -1.
         25    2    1    2    0    0  0.00000000000E+00  0.00000000000E+00 -0.10759485487E+04  0.10831855355E+04  0.12500249919E+03 0.  0.
    9000005    1    3    3    0    0 -0.46591650689E+02  0.11379897757E+02 -0.88514109206E+03  0.88644009208E+03  0.10000000000E+01 0.  0.
    9000005    1    3    3    0    0  0.46591650689E+02 -0.11379897757E+02 -0.19080745663E+03  0.19674544338E+03  0.10000000000E+01 0.  0.
<mgrwt>
<rscale>  0 0.12500250E+03</rscale>
<asrwt>0</asrwt>
<pdfrwt beam="1">  1        4 0.55669215E-03 0.12500250E+03</pdfrwt>
<pdfrwt beam="2">  1       -4 0.16608698E+00 0.12500250E+03</pdfrwt>
<totfact> 0.27979307E+03</totfact>
</mgrwt>
</event>
<event>
 5    1  0.3330238E-002  0.1250016E+03  0.7818608E-02  0.1235067E+00
         -4   -1    0    0    0  501 -0.00000000000E+00  0.00000000000E+00  0.15316819639E+03  0.15317346142E+03  0.12700000000E+01 0.  1.
          4   -1    0    0  501    0  0.00000000000E+00 -0.00000000000E+00 -0.25482154363E+02  0.25513782373E+02  0.12700000000E+01 0.  1.
         25    2    1    2    0    0  0.00000000000E+00  0.00000000000E+00  0.12768604202E+03  0.17868724379E+03  0.12500162306E+03 0.  0.
    9000005    1    3    3    0    0  0.59969163890E+02 -0.15837412956E+02  0.74750911226E+02  0.97138164467E+02  0.10000000000E+01 0.  0.
    9000005    1    3    3    0    0 -0.59969163890E+02  0.15837412956E+02  0.52935130796E+02  0.81549079328E+02  0.10000000000E+01 0.  0.
<mgrwt>
<rscale>  0 0.12500162E+03</rscale>
<asrwt>0</asrwt>
<pdfrwt beam="2">  1        4 0.39231694E-02 0.12500162E+03</pdfrwt>
<pdfrwt beam="1">  1       -4 0.23567175E-01 0.12500162E+03</pdfrwt>
<totfact> 0.93850423E+03</totfact>
</mgrwt>
</event>
<event>
 5    1  0.3330238E-002  0.1250013E+03  0.7818608E-02  0.1235067E+00
          4   -1    0    0  501    0  0.00000000000E+00  0.00000000000E+00  0.61612901792E+01  0.62908184421E+01  0.12700000000E+01 0.  1.
         -4   -1    0    0    0  501 -0.00000000000E+00 -0.00000000000E+00 -0.62728639378E+03  0.62728767939E+03  0.12700000000E+01 0.  1.
         25    2    1    2    0    0  0.00000000000E+00  0.00000000000E+00 -0.62112510360E+03  0.63357849783E+03  0.12500127439E+03 0.  0.
    9000005    1    3    3    0    0 -0.29165282247E+02 -0.41492795683E+02 -0.12550301628E+03  0.13536717799E+03  0.10000000000E+01 0.  0.
    9000005    1    3    3    0    0  0.29165282247E+02  0.41492795683E+02 -0.49562208732E+03  0.49821131984E+03  0.10000000000E+01 0.  0.
<mgrwt>
<rscale>  0 0.12500127E+03</rscale>
<asrwt>0</asrwt>
<pdfrwt beam="1">  1        4 0.95795389E-03 0.12500127E+03</pdfrwt>
<pdfrwt beam="2">  1       -4 0.96515612E-01 0.12500127E+03</pdfrwt>
<totfact> 0.46813107E+03</totfact>
</mgrwt>
</event>
<event>
 5    1  0.3330238E-002  0.1249953E+03  0.7818608E-02  0.1235077E+00
         -4   -1    0    0    0  501 -0.00000000000E+00  0.00000000000E+00  0.18729881439E+04  0.18729885745E+04  0.12700000000E+01 0.  1.
          4   -1    0    0  501    0  0.00000000000E+00 -0.00000000000E+00 -0.18915888809E+01  0.22783784791E+01  0.12700000000E+01 0.  1.
         25    2    1    2    0    0  0.00000000000E+00  0.00000000000E+00  0.18710965550E+04  0.18752669530E+04  0.12499530637E+03 0.  0.
    9000005    1    3    3    0    0 -0.41412443201E+02  0.22621331094E+02  0.15501540481E+04  0.15508724280E+04  0.10000000000E+01 0.  0.
    9000005    1    3    3    0    0  0.41412443201E+02 -0.22621331094E+02  0.32094250694E+03  0.32439452498E+03  0.10000000000E+01 0.  0.
<mgrwt>
<rscale>  0 0.12499531E+03</rscale>
<asrwt>0</asrwt>
<pdfrwt beam="2">  1        4 0.32079955E-03 0.12499531E+03</pdfrwt>
<pdfrwt beam="1">  1       -4 0.28818207E+00 0.12499531E+03</pdfrwt>
<totfact> 0.11579620E+03</totfact>
</mgrwt>
</event>
<event>
 5    1  0.3330238E-002  0.1249996E+03  0.7818608E-02  0.1235070E+00
          4   -1    0    0  501    0  0.00000000000E+00  0.00000000000E+00  0.27221840768E+02  0.27251449774E+02  0.12700000000E+01 0.  1.
         -4   -1    0    0    0  501 -0.00000000000E+00 -0.00000000000E+00 -0.14338566011E+03  0.14339128434E+03  0.12700000000E+01 0.  1.
         25    2    1    2    0    0  0.00000000000E+00  0.00000000000E+00 -0.11616381934E+03  0.17064273411E+03  0.12499963913E+03 0.  0.
    9000005    1    3    3    0    0 -0.59547454391E+02  0.18874234768E+02 -0.60482153999E+02  0.86955316197E+02  0.10000000000E+01 0.  0.
    9000005    1    3    3    0    0  0.59547454391E+02 -0.18874234768E+02 -0.55681665343E+02  0.83687417918E+02  0.10000000000E+01 0.  0.
<mgrwt>
<rscale>  0 0.12499964E+03</rscale>
<asrwt>0</asrwt>
<pdfrwt beam="1">  1        4 0.41906859E-02 0.12499964E+03</pdfrwt>
<pdfrwt beam="2">  1       -4 0.22062042E-01 0.12499964E+03</pdfrwt>
<totfact> 0.95329747E+03</totfact>
</mgrwt>
</event>
<event>
 5    1  0.3330238E-002  0.1249908E+03  0.7818608E-02  0.1235084E+00
          4   -1    0    0  501    0  0.00000000000E+00  0.00000000000E+00  0.11535456220E+03  0.11536155304E+03  0.12700000000E+01 0.  1.
         -4   -1    0    0    0  501 -0.00000000000E+00 -0.00000000000E+00 -0.33838064113E+02  0.33861888354E+02  0.12700000000E+01 0.  1.
         25    2    1    2    0    0  0.00000000000E+00  0.00000000000E+00  0.81516498088E+02  0.14922344140E+03  0.12499078367E+03 0.  0.
    9000005    1    3    3    0    0  0.20131389384E+02 -0.34953097702E+02  0.97736041250E+02  0.10573705896E+03  0.10000000000E+01 0.  0.
    9000005    1    3    3    0    0 -0.20131389384E+02  0.34953097702E+02 -0.16219543162E+02  0.43486382442E+02  0.10000000000E+01 0.  0.
<mgrwt>
<rscale>  0 0.12499078E+03</rscale>
<asrwt>0</asrwt>
<pdfrwt beam="1">  1        4 0.17749226E-01 0.12499078E+03</pdfrwt>
<pdfrwt beam="2">  1       -4 0.52082264E-02 0.12499078E+03</pdfrwt>
<totfact> 0.99479353E+03</totfact>
</mgrwt>
</event>
<event>
 5    1  0.3330238E-002  0.1249965E+03  0.7818608E-02  0.1235075E+00
          4   -1    0    0  501    0  0.00000000000E+00  0.00000000000E+00  0.37864090305E+03  0.37864303290E+03  0.12700000000E+01 0.  1.
         -4   -1    0    0    0  501 -0.00000000000E+00 -0.00000000000E+00 -0.10274665647E+02  0.10352857295E+02  0.12700000000E+01 0.  1.
         25    2    1    2    0    0  0.00000000000E+00  0.00000000000E+00  0.36836623741E+03  0.38899589020E+03  0.12499647087E+03 0.  0.
    9000005    1    3    3    0    0 -0.29492861345E+01  0.18320358243E+02 -0.15180712250E+01  0.18645062485E+02  0.10000000000E+01 0.  0.
    9000005    1    3    3    0    0  0.29492861345E+01 -0.18320358243E+02  0.36988430863E+03  0.37035082771E+03  0.10000000000E+01 0.  0.
<mgrwt>
<rscale>  0 0.12499647E+03</rscale>
<asrwt>0</asrwt>
<pdfrwt beam="1">  1        4 0.58258633E-01 0.12499647E+03</pdfrwt>
<pdfrwt beam="2">  1       -4 0.15868962E-02 0.12499647E+03</pdfrwt>
<totfact> 0.65642404E+03</totfact>
</mgrwt>
</event>
<event>
 5    1  0.3330238E-002  0.1250009E+03  0.7818608E-02  0.1235068E+00
          4   -1    0    0  501    0  0.00000000000E+00  0.00000000000E+00  0.11791318755E+03  0.11792002670E+03  0.12700000000E+01 0. -1.
         -4   -1    0    0    0  501 -0.00000000000E+00 -0.00000000000E+00 -0.33108710580E+02  0.33133059266E+02  0.12700000000E+01 0. -1.
         25    2    1    2    0    0  0.00000000000E+00  0.00000000000E+00  0.84804476965E+02  0.15105308597E+03  0.12500094186E+03 0.  0.
    9000005    1    3    3    0    0 -0.46092854403E+02  0.40198515253E+02  0.26887527760E+02  0.66816248058E+02  0.10000000000E+01 0.  0.
    9000005    1    3    3    0    0  0.46092854403E+02 -0.40198515253E+02  0.57916949205E+02  0.84236837908E+02  0.10000000000E+01 0.  0.
<mgrwt>
<rscale>  0 0.12500094E+03</rscale>
<asrwt>0</asrwt>
<pdfrwt beam="1">  1        4 0.18142889E-01 0.12500094E+03</pdfrwt>
<pdfrwt beam="2">  1       -4 0.50960468E-02 0.12500094E+03</pdfrwt>
<totfact> 0.99092094E+03</totfact>
</mgrwt>
</event>
<event>
 5    1  0.3330238E-002  0.1250008E+03  0.7818608E-02  0.1235068E+00
          4   -1    0    0  501    0  0.00000000000E+00  0.00000000000E+00  0.36006535029E+01  0.38180630755E+01  0.12700000000E+01 0.  1.
         -4   -1    0    0    0  501 -0.00000000000E+00 -0.00000000000E+00 -0.10528760820E+04  0.10528768479E+04  0.12700000000E+01 0.  1.
         25    2    1    2    0    0  0.00000000000E+00  0.00000000000E+00 -0.10492754285E+04  0.10566949110E+04  0.12500084055E+03 0.  0.
    9000005    1    3    3    0    0 -0.44709473528E+02 -0.40898502995E+02 -0.39541300535E+03  0.40003008558E+03  0.10000000000E+01 0.  0.
    9000005    1    3    3    0    0  0.44709473528E+02  0.40898502995E+02 -0.65386242310E+03  0.65666482539E+03  0.10000000000E+01 0.  0.
<mgrwt>
<rscale>  0 0.12500084E+03</rscale>
<asrwt>0</asrwt>
<pdfrwt beam="1">  1        4 0.57073026E-03 0.12500084E+03</pdfrwt>
<pdfrwt beam="2">  1       -4 0.16199748E+00 0.12500084E+03</pdfrwt>
<totfact> 0.28786164E+03</totfact>
</mgrwt>
</event>
<event>
 5    1  0.3330238E-002  0.1250005E+03  0.7818608E-02  0.1235069E+00
         -4   -1    0    0    0  501 -0.00000000000E+00  0.00000000000E+00  0.36005205400E+03  0.36005429381E+03  0.12700000000E+01 0.  1.
          4   -1    0    0  501    0  0.00000000000E+00 -0.00000000000E+00 -0.10809761826E+02  0.10884110012E+02  0.12700000000E+01 0.  1.
         25    2    1    2    0    0  0.00000000000E+00  0.00000000000E+00  0.34924229218E+03  0.37093840382E+03  0.12500048314E+03 0.  0.
    9000005    1    3    3    0    0 -0.46333396785E+02 -0.41860282761E+02  0.16722424043E+03  0.17850493976E+03  0.10000000000E+01 0.  0.
    9000005    1    3    3    0    0  0.46333396785E+02  0.41860282761E+02  0.18201805174E+03  0.19243346406E+03  0.10000000000E+01 0.  0.
<mgrwt>
<rscale>  0 0.12500048E+03</rscale>
<asrwt>0</asrwt>
<pdfrwt beam="2">  1        4 0.16689319E-02 0.12500048E+03</pdfrwt>
<pdfrwt beam="1">  1       -4 0.55398508E-01 0.12500048E+03</pdfrwt>
<totfact> 0.67480158E+03</totfact>
</mgrwt>
</event>
<event>
 5    1  0.3330238E-002  0.1250011E+03  0.7818608E-02  0.1235068E+00
          4   -1    0    0  501    0  0.00000000000E+00  0.00000000000E+00  0.19549939088E+02  0.19591146428E+02  0.12700000000E+01 0. -1.
         -4   -1    0    0    0  501 -0.00000000000E+00 -0.00000000000E+00 -0.19955872578E+03  0.19956276690E+03  0.12700000000E+01 0. -1.
         25    2    1    2    0    0  0.00000000000E+00  0.00000000000E+00 -0.18000878669E+03  0.21915391333E+03  0.12500109777E+03 0.  0.
    9000005    1    3    3    0    0  0.15206555315E+02  0.56152057662E+02 -0.49985508865E+02  0.76706218788E+02  0.10000000000E+01 0.  0.
    9000005    1    3    3    0    0 -0.15206555315E+02 -0.56152057662E+02 -0.13002327782E+03  0.14244769454E+03  0.10000000000E+01 0.  0.
<mgrwt>
<rscale>  0 0.12500110E+03</rscale>
<asrwt>0</asrwt>
<pdfrwt beam="1">  1        4 0.30111637E-02 0.12500110E+03</pdfrwt>
<pdfrwt beam="2">  1       -4 0.30704822E-01 0.12500110E+03</pdfrwt>
<totfact> 0.87000276E+03</totfact>
</mgrwt>
</event>
<event>
 5    1  0.3330238E-002  0.1249997E+03  0.7818608E-02  0.1235070E+00
          4   -1    0    0  501    0  0.00000000000E+00  0.00000000000E+00  0.91110803688E+02  0.91119654568E+02  0.12700000000E+01 0.  1.
         -4   -1    0    0    0  501 -0.00000000000E+00 -0.00000000000E+00 -0.42853048281E+02  0.42871863115E+02  0.12700000000E+01 0.  1.
         25    2    1    2    0    0  0.00000000000E+00  0.00000000000E+00  0.48257755407E+02  0.13399151768E+03  0.12499966342E+03 0.  0.
    9000005    1    3    3    0    0  0.15884591761E+02 -0.12269239834E+02  0.87566916975E+02  0.89843304982E+02  0.10000000000E+01 0.  0.
    9000005    1    3    3    0    0 -0.15884591761E+02  0.12269239834E+02 -0.39309161568E+02  0.44148212702E+02  0.10000000000E+01 0.  0.
<mgrwt>
<rscale>  0 0.12499966E+03</rscale>
<asrwt>0</asrwt>
<pdfrwt beam="1">  1        4 0.14019175E-01 0.12499966E+03</pdfrwt>
<pdfrwt beam="2">  1       -4 0.65949049E-02 0.12499966E+03</pdfrwt>
<totfact> 0.10259449E+04</totfact>
</mgrwt>
</event>
<event>
 5    1  0.3330238E-002  0.1250005E+03  0.7818608E-02  0.1235068E+00
         -4   -1    0    0    0  501 -0.00000000000E+00  0.00000000000E+00  0.57119506289E+01  0.58514340112E+01  0.12700000000E+01 0.  1.
          4   -1    0    0  501    0  0.00000000000E+00 -0.00000000000E+00 -0.67548981194E+03  0.67549100581E+03  0.12700000000E+01 0.  1.
         25    2    1    2    0    0  0.00000000000E+00  0.00000000000E+00 -0.66977786131E+03  0.68134243982E+03  0.12500054721E+03 0.  0.
    9000005    1    3    3    0    0 -0.13140928043E+02  0.31598850631E+02 -0.49877849799E+02  0.60497696250E+02  0.10000000000E+01 0.  0.
    9000005    1    3    3    0    0  0.13140928043E+02 -0.31598850631E+02 -0.61990001151E+03  0.62084474357E+03  0.10000000000E+01 0.  0.
<mgrwt>
<rscale>  0 0.12500055E+03</rscale>
<asrwt>0</asrwt>
<pdfrwt beam="2">  1        4 0.10393227E+00 0.12500055E+03</pdfrwt>
<pdfrwt beam="1">  1       -4 0.88958350E-03 0.12500055E+03</pdfrwt>
<totfact> 0.44089569E+03</totfact>
</mgrwt>
</event>
<event>
 5    1  0.3330238E-002  0.1249979E+03  0.7818608E-02  0.1235073E+00
         -4   -1    0    0    0  501 -0.00000000000E+00  0.00000000000E+00  0.26694583794E+03  0.26694885895E+03  0.12700000000E+01 0. -1.
          4   -1    0    0  501    0  0.00000000000E+00 -0.00000000000E+00 -0.14601964706E+02  0.14657089522E+02  0.12700000000E+01 0. -1.
         25    2    1    2    0    0  0.00000000000E+00  0.00000000000E+00  0.25234387324E+03  0.28160594847E+03  0.12499791940E+03 0.  0.
    9000005    1    3    3    0    0  0.40433271757E+02 -0.12215310197E+02  0.22992840447E+03  0.23377795972E+03  0.10000000000E+01 0.  0.
    9000005    1    3    3    0    0 -0.40433271757E+02  0.12215310197E+02  0.22415468767E+02  0.47827988754E+02  0.10000000000E+01 0.  0.
<mgrwt>
<rscale>  0 0.12499792E+03</rscale>
<asrwt>0</asrwt>
<pdfrwt beam="2">  1        4 0.22509291E-02 0.12499792E+03</pdfrwt>
<pdfrwt beam="1">  1       -4 0.41073058E-01 0.12499792E+03</pdfrwt>
<totfact> 0.77969257E+03</totfact>
</mgrwt>
</event>
<event>
 5    1  0.3330238E-002  0.1250118E+03  0.7818608E-02  0.1235051E+00
          4   -1    0    0  501    0  0.00000000000E+00  0.00000000000E+00  0.13697598569E+03  0.13698187310E+03  0.12700000000E+01 0.  1.
         -4   -1    0    0    0  501 -0.00000000000E+00 -0.00000000000E+00 -0.28502499455E+02  0.28530779435E+02  0.12700000000E+01 0.  1.
         25    2    1    2    0    0  0.00000000000E+00  0.00000000000E+00  0.10847348624E+03  0.16551265253E+03  0.12501176317E+03 0.  0.
    9000005    1    3    3    0    0  0.19792650140E+02  0.58246647423E+02  0.68834406347E+02  0.92323325507E+02  0.10000000000E+01 0.  0.
    9000005    1    3    3    0    0 -0.19792650140E+02 -0.58246647423E+02  0.39639079892E+02  0.73189327024E+02  0.10000000000E+01 0.  0.
<mgrwt>
<rscale>  0 0.12501176E+03</rscale>
<asrwt>0</asrwt>
<pdfrwt beam="1">  1        4 0.21075857E-01 0.12501176E+03</pdfrwt>
<pdfrwt beam="2">  1       -4 0.43876281E-02 0.12501176E+03</pdfrwt>
<totfact> 0.96264952E+03</totfact>
</mgrwt>
</event>
<event>
 5    1  0.3330238E-002  0.1250144E+03  0.7818608E-02  0.1235047E+00
         -4   -1    0    0    0  501 -0.00000000000E+00  0.00000000000E+00  0.28853820074E+03  0.28854099568E+03  0.12700000000E+01 0.  1.
          4   -1    0    0  501    0  0.00000000000E+00 -0.00000000000E+00 -0.13508539532E+02  0.13568107468E+02  0.12700000000E+01 0.  1.
         25    2    1    2    0    0  0.00000000000E+00  0.00000000000E+00  0.27502966121E+03  0.30210910314E+03  0.12501438181E+03 0.  0.
    9000005    1    3    3    0    0  0.10248006523E+02 -0.48741688945E+02  0.46278374404E+02  0.67996042653E+02  0.10000000000E+01 0.  0.
    9000005    1    3    3    0    0 -0.10248006523E+02  0.48741688945E+02  0.22875128680E+03  0.23411306049E+03  0.10000000000E+01 0.  0.
<mgrwt>
<rscale>  0 0.12501438E+03</rscale>
<asrwt>0</asrwt>
<pdfrwt beam="2">  1        4 0.20830339E-02 0.12501438E+03</pdfrwt>
<pdfrwt beam="1">  1       -4 0.44395291E-01 0.12501438E+03</pdfrwt>
<totfact> 0.75310990E+03</totfact>
</mgrwt>
</event>
<event>
 5    1  0.3330238E-002  0.1249959E+03  0.7818608E-02  0.1235076E+00
         -4   -1    0    0    0  501 -0.00000000000E+00  0.00000000000E+00  0.13055230355E+02  0.13116857079E+02  0.12700000000E+01 0. -1.
          4   -1    0    0  501    0  0.00000000000E+00 -0.00000000000E+00 -0.29842229926E+03  0.29842500163E+03  0.12700000000E+01 0. -1.
         25    2    1    2    0    0  0.00000000000E+00  0.00000000000E+00 -0.28536706891E+03  0.31154185871E+03  0.12499586277E+03 0.  0.
    9000005    1    3    3    0    0  0.44929264276E+02  0.33919634808E+02 -0.75074628212E+02  0.93842315696E+02  0.10000000000E+01 0.  0.
    9000005    1    3    3    0    0 -0.44929264276E+02 -0.33919634808E+02 -0.21029244069E+03  0.21769954301E+03  0.10000000000E+01 0.  0.
<mgrwt>
<rscale>  0 0.12499586E+03</rscale>
<asrwt>0</asrwt>
<pdfrwt beam="2">  1        4 0.45916066E-01 0.12499586E+03</pdfrwt>
<pdfrwt beam="1">  1       -4 0.20134456E-02 0.12499586E+03</pdfrwt>
<totfact> 0.74180298E+03</totfact>
</mgrwt>
</event>
<event>
 5    1  0.3330238E-002  0.1250054E+03  0.7818608E-02  0.1235061E+00
         -4   -1    0    0    0  501 -0.00000000000E+00  0.00000000000E+00  0.49274617661E+02  0.49290981383E+02  0.12700000000E+01 0.  1.
          4   -1    0    0  501    0  0.00000000000E+00 -0.00000000000E+00 -0.79247344942E+02  0.79257520655E+02  0.12700000000E+01 0.  1.
         25    2    1    2    0    0  0.00000000000E+00  0.00000000000E+00 -0.29972727281E+02  0.12854850204E+03  0.12500541186E+03 0.  0.
    9000005    1    3    3    0    0 -0.24764292546E+02  0.28184389322E+02 -0.66382537986E+02  0.76257926382E+02  0.10000000000E+01 0.  0.
    9000005    1    3    3    0    0  0.24764292546E+02 -0.28184389322E+02  0.36409810705E+02  0.52290575655E+02  0.10000000000E+01 0.  0.
<mgrwt>
<rscale>  0 0.12500541E+03</rscale>
<asrwt>0</asrwt>
<pdfrwt beam="2">  1        4 0.12193941E-01 0.12500541E+03</pdfrwt>
<pdfrwt beam="1">  1       -4 0.75827519E-02 0.12500541E+03</pdfrwt>
<totfact> 0.10374392E+04</totfact>
</mgrwt>
</event>
<event>
 5    1  0.3330238E-002  0.1250008E+03  0.7818608E-02  0.1235068E+00
         -4   -1    0    0    0  501 -0.00000000000E+00  0.00000000000E+00  0.98161870599E+03  0.98161952754E+03  0.12700000000E+01 0. -1.
          4   -1    0    0  501    0  0.00000000000E+00 -0.00000000000E+00 -0.38772779848E+01  0.40799735994E+01  0.12700000000E+01 0. -1.
         25    2    1    2    0    0  0.00000000000E+00  0.00000000000E+00  0.97774142800E+03  0.98569950114E+03  0.12500082604E+03 0.  0.
    9000005    1    3    3    0    0  0.38861569451E+02  0.44105527114E+02  0.32163349266E+03  0.32696272373E+03  0.10000000000E+01 0.  0.
    9000005    1    3    3    0    0 -0.38861569451E+02 -0.44105527114E+02  0.65610793534E+03  0.65873677741E+03  0.10000000000E+01 0.  0.
<mgrwt>
<rscale>  0 0.12500083E+03</rscale>
<asrwt>0</asrwt>
<pdfrwt beam="2">  1        4 0.61215942E-03 0.12500083E+03</pdfrwt>
<pdfrwt beam="1">  1       -4 0.15103393E+00 0.12500083E+03</pdfrwt>
<totfact> 0.31080855E+03</totfact>
</mgrwt>
</event>
<event>
 5    1  0.3330238E-002  0.1250012E+03  0.7818608E-02  0.1235067E+00
          4   -1    0    0  501    0  0.00000000000E+00  0.00000000000E+00  0.16039357814E+02  0.16089558697E+02  0.12700000000E+01 0. -1.
         -4   -1    0    0    0  501 -0.00000000000E+00 -0.00000000000E+00 -0.24311390812E+03  0.24311722527E+03  0.12700000000E+01 0. -1.
         25    2    1    2    0    0  0.00000000000E+00  0.00000000000E+00 -0.22707455031E+03  0.25920678396E+03  0.12500122182E+03 0.  0.
    9000005    1    3    3    0    0 -0.58547902831E+01 -0.28436168013E+02 -0.22829061727E+03  0.23013148449E+03  0.10000000000E+01 0.  0.
    9000005    1    3    3    0    0  0.58547902831E+01  0.28436168013E+02  0.12160669649E+01  0.29075299472E+02  0.10000000000E+01 0.  0.
<mgrwt>
<rscale>  0 0.12500122E+03</rscale>
<asrwt>0</asrwt>
<pdfrwt beam="1">  1        4 0.24717105E-02 0.12500122E+03</pdfrwt>
<pdfrwt beam="2">  1       -4 0.37406254E-01 0.12500122E+03</pdfrwt>
<totfact> 0.81015304E+03</totfact>
</mgrwt>
</event>
<event>
 5    1  0.3330238E-002  0.1249837E+03  0.7818608E-02  0.1235095E+00
          4   -1    0    0  501    0  0.00000000000E+00  0.00000000000E+00  0.33574060792E+02  0.33598072238E+02  0.12700000000E+01 0.  1.
         -4   -1    0    0    0  501 -0.00000000000E+00 -0.00000000000E+00 -0.11624777310E+03  0.11625471023E+03  0.12700000000E+01 0.  1.
         25    2    1    2    0    0  0.00000000000E+00  0.00000000000E+00 -0.82673712306E+02  0.14985278247E+03  0.12498365376E+03 0.  0.
    9000005    1    3    3    0    0 -0.62103826361E+02  0.45320689104E+01 -0.35129486816E+02  0.71501788378E+02  0.10000000000E+01 0.  0.
    9000005    1    3    3    0    0  0.62103826361E+02 -0.45320689104E+01 -0.47544225489E+02  0.78350994088E+02  0.10000000000E+01 0.  0.
<mgrwt>
<rscale>  0 0.12498365E+03</rscale>
<asrwt>0</asrwt>
<pdfrwt beam="1">  1        4 0.51676209E-02 0.12498365E+03</pdfrwt>
<pdfrwt beam="2">  1       -4 0.17886653E-01 0.12498365E+03</pdfrwt>
<totfact> 0.99369604E+03</totfact>
</mgrwt>
</event>
<event>
 5    1  0.3330238E-002  0.1249950E+03  0.7818608E-02  0.1235077E+00
          4   -1    0    0  501    0  0.00000000000E+00  0.00000000000E+00  0.51816058549E+03  0.51816214186E+03  0.12700000000E+01 0.  1.
         -4   -1    0    0    0  501 -0.00000000000E+00 -0.00000000000E+00 -0.74830183268E+01  0.75900239314E+01  0.12700000000E+01 0.  1.
         25    2    1    2    0    0  0.00000000000E+00  0.00000000000E+00  0.51067756717E+03  0.52575216579E+03  0.12499504882E+03 0.  0.
    9000005    1    3    3    0    0 -0.48022594624E+02  0.37521795150E+02  0.19722553819E+03  0.20642908618E+03  0.10000000000E+01 0.  0.
    9000005    1    3    3    0    0  0.48022594624E+02 -0.37521795150E+02  0.31345202898E+03  0.31932307962E+03  0.10000000000E+01 0.  0.
<mgrwt>
<rscale>  0 0.12499505E+03</rscale>
<asrwt>0</asrwt>
<pdfrwt beam="1">  1        4 0.79725370E-01 0.12499505E+03</pdfrwt>
<pdfrwt beam="2">  1       -4 0.11595844E-02 0.12499505E+03</pdfrwt>
<totfact> 0.53926109E+03</totfact>
</mgrwt>
</event>
<event>
 5    1  0.3330238E-002  0.1250029E+03  0.7818608E-02  0.1235065E+00
         -4   -1    0    0    0  501 -0.00000000000E+00  0.00000000000E+00  0.62571275385E+01  0.63847118206E+01  0.12700000000E+01 0.  1.
          4   -1    0    0  501    0  0.00000000000E+00 -0.00000000000E+00 -0.61788776599E+03  0.61788907117E+03  0.12700000000E+01 0.  1.
         25    2    1    2    0    0  0.00000000000E+00  0.00000000000E+00 -0.61163063846E+03  0.62427378299E+03  0.12500287287E+03 0.  0.
    9000005    1    3    3    0    0 -0.24860998358E+02 -0.37859957613E+02 -0.90780848297E+02  0.10145741987E+03  0.10000000000E+01 0.  0.
    9000005    1    3    3    0    0  0.24860998358E+02  0.37859957613E+02 -0.52084979016E+03  0.52281636311E+03  0.10000000000E+01 0.  0.
<mgrwt>
<rscale>  0 0.12500287E+03</rscale>
<asrwt>0</asrwt>
<pdfrwt beam="2">  1        4 0.95069523E-01 0.12500287E+03</pdfrwt>
<pdfrwt beam="1">  1       -4 0.97255007E-03 0.12500287E+03</pdfrwt>
<totfact> 0.47367408E+03</totfact>
</mgrwt>
</event>
<event>
 5    1  0.3330238E-002  0.1249983E+03  0.7818608E-02  0.1235072E+00
         -4   -1    0    0    0  501 -0.00000000000E+00  0.00000000000E+00  0.82310212662E+01  0.83284218844E+01  0.12700000000E+01 0. -1.
          4   -1    0    0  501    0  0.00000000000E+00 -0.00000000000E+00 -0.47167441406E+03  0.47167612381E+03  0.12700000000E+01 0. -1.
         25    2    1    2    0    0  0.00000000000E+00  0.00000000000E+00 -0.46344339279E+03  0.48000454570E+03  0.12499834227E+03 0.  0.
    9000005    1    3    3    0    0  0.30581017511E+02  0.37832095365E+02 -0.81090371344E+02  0.94568041095E+02  0.10000000000E+01 0.  0.
    9000005    1    3    3    0    0 -0.30581017511E+02 -0.37832095365E+02 -0.38235302145E+03  0.38543650460E+03  0.10000000000E+01 0.  0.
<mgrwt>
<rscale>  0 0.12499834E+03</rscale>
<asrwt>0</asrwt>
<pdfrwt beam="2">  1        4 0.72572898E-01 0.12499834E+03</pdfrwt>
<pdfrwt beam="1">  1       -4 0.12739352E-02 0.12499834E+03</pdfrwt>
<totfact> 0.57451948E+03</totfact>
</mgrwt>
</event>
<event>
 5    1  0.3330238E-002  0.1250007E+03  0.7818608E-02  0.1235068E+00
         -4   -1    0    0    0  501 -0.00000000000E+00  0.00000000000E+00  0.15604119907E+02  0.15655716466E+02  0.12700000000E+01 0.  1.
          4   -1    0    0  501    0  0.00000000000E+00 -0.00000000000E+00 -0.24987101231E+03  0.24987423975E+03  0.12700000000E+01 0.  1.
         25    2    1    2    0    0  0.00000000000E+00  0.00000000000E+00 -0.23426689240E+03  0.26552995622E+03  0.12500072309E+03 0.  0.
    9000005    1    3    3    0    0  0.80184670050E+01  0.15225751554E+02  0.10482522410E+02  0.20174305430E+02  0.10000000000E+01 0.  0.
    9000005    1    3    3    0    0 -0.80184670050E+01 -0.15225751554E+02 -0.24474941481E+03  0.24535565079E+03  0.10000000000E+01 0.  0.
<mgrwt>
<rscale>  0 0.12500072E+03</rscale>
<asrwt>0</asrwt>
<pdfrwt beam="2">  1        4 0.38445908E-01 0.12500072E+03</pdfrwt>
<pdfrwt beam="1">  1       -4 0.24048513E-02 0.12500072E+03</pdfrwt>
<totfact> 0.80134932E+03</totfact>
</mgrwt>
</event>
<event>
 5    1  0.3330238E-002  0.1250030E+03  0.7818608E-02  0.1235065E+00
         -4   -1    0    0    0  501 -0.00000000000E+00  0.00000000000E+00  0.38144196319E+03  0.38144407740E+03  0.12700000000E+01 0. -1.
          4   -1    0    0  501    0  0.00000000000E+00 -0.00000000000E+00 -0.10199719183E+02  0.10278480987E+02  0.12700000000E+01 0. -1.
         25    2    1    2    0    0  0.00000000000E+00  0.00000000000E+00  0.37124224401E+03  0.39172255839E+03  0.12500303601E+03 0.  0.
    9000005    1    3    3    0    0  0.32253097553E+02  0.34176964609E+02  0.31471728747E+03  0.31820794812E+03  0.10000000000E+01 0.  0.
    9000005    1    3    3    0    0 -0.32253097553E+02 -0.34176964609E+02  0.56524956540E+02  0.73514610273E+02  0.10000000000E+01 0.  0.
<mgrwt>
<rscale>  0 0.12500304E+03</rscale>
<asrwt>0</asrwt>
<pdfrwt beam="2">  1        4 0.15754089E-02 0.12500304E+03</pdfrwt>
<pdfrwt beam="1">  1       -4 0.58689596E-01 0.12500304E+03</pdfrwt>
<totfact> 0.65361502E+03</totfact>
</mgrwt>
</event>
<event>
 5    1  0.3330238E-002  0.1249890E+03  0.7818608E-02  0.1235086E+00
          4   -1    0    0  501    0  0.00000000000E+00  0.00000000000E+00  0.91481402528E+01  0.92358740834E+01  0.12700000000E+01 0.  1.
         -4   -1    0    0    0  501 -0.00000000000E+00 -0.00000000000E+00 -0.42479816952E+03  0.42480006794E+03  0.12700000000E+01 0.  1.
         25    2    1    2    0    0  0.00000000000E+00  0.00000000000E+00 -0.41565002927E+03  0.43403594203E+03  0.12498900809E+03 0.  0.
    9000005    1    3    3    0    0 -0.43295206120E+02 -0.33448621178E+02 -0.31265349568E+03  0.31740588131E+03  0.10000000000E+01 0.  0.
    9000005    1    3    3    0    0  0.43295206120E+02  0.33448621178E+02 -0.10299653359E+03  0.11663006072E+03  0.10000000000E+01 0.  0.
<mgrwt>
<rscale>  0 0.12498901E+03</rscale>
<asrwt>0</asrwt>
<pdfrwt beam="1">  1        4 0.14143013E-02 0.12498901E+03</pdfrwt>
<pdfrwt beam="2">  1       -4 0.65360444E-01 0.12498901E+03</pdfrwt>
<totfact> 0.61386735E+03</totfact>
</mgrwt>
</event>
<event>
 5    1  0.3330238E-002  0.1249963E+03  0.7818608E-02  0.1235075E+00
          4   -1    0    0  501    0  0.00000000000E+00  0.00000000000E+00  0.93071170587E+01  0.93933661668E+01  0.12700000000E+01 0.  1.
         -4   -1    0    0    0  501 -0.00000000000E+00 -0.00000000000E+00 -0.41765811902E+03  0.41766004990E+03  0.12700000000E+01 0.  1.
         25    2    1    2    0    0  0.00000000000E+00  0.00000000000E+00 -0.40835100196E+03  0.42705341606E+03  0.12499631743E+03 0.  0.
    9000005    1    3    3    0    0  0.13035728596E+02 -0.54168346752E+02 -0.10748837281E+03  0.12107390429E+03  0.10000000000E+01 0.  0.
    9000005    1    3    3    0    0 -0.13035728596E+02  0.54168346752E+02 -0.30086262915E+03  0.30597951178E+03  0.10000000000E+01 0.  0.
<mgrwt>
<rscale>  0 0.12499632E+03</rscale>
<asrwt>0</asrwt>
<pdfrwt beam="1">  1        4 0.14386476E-02 0.12499632E+03</pdfrwt>
<pdfrwt beam="2">  1       -4 0.64261864E-01 0.12499632E+03</pdfrwt>
<totfact> 0.62009034E+03</totfact>
</mgrwt>
</event>
<event>
 5    1  0.3330238E-002  0.1249985E+03  0.7818608E-02  0.1235072E+00
          4   -1    0    0  501    0  0.00000000000E+00  0.00000000000E+00  0.91160436604E+02  0.91169282666E+02  0.12700000000E+01 0.  1.
         -4   -1    0    0    0  501 -0.00000000000E+00 -0.00000000000E+00 -0.42828933298E+02  0.42847758722E+02  0.12700000000E+01 0.  1.
         25    2    1    2    0    0  0.00000000000E+00  0.00000000000E+00  0.48331503306E+02  0.13401704139E+03  0.12499853267E+03 0.  0.
    9000005    1    3    3    0    0 -0.54229964985E+02 -0.18972110847E+02 -0.21909791812E+01  0.57503308444E+02  0.10000000000E+01 0.  0.
    9000005    1    3    3    0    0  0.54229964985E+02  0.18972110847E+02  0.50522482487E+02  0.76513732943E+02  0.10000000000E+01 0.  0.
<mgrwt>
<rscale>  0 0.12499853E+03</rscale>
<asrwt>0</asrwt>
<pdfrwt beam="1">  1        4 0.14026811E-01 0.12499853E+03</pdfrwt>
<pdfrwt beam="2">  1       -4 0.65911953E-02 0.12499853E+03</pdfrwt>
<totfact> 0.10259170E+04</totfact>
</mgrwt>
</event>
<event>
 5    1  0.3330238E-002  0.1249953E+03  0.7818608E-02  0.1235077E+00
          4   -1    0    0  501    0  0.00000000000E+00  0.00000000000E+00  0.82187944274E+03  0.82188042397E+03  0.12700000000E+01 0. -1.
         -4   -1    0    0    0  501 -0.00000000000E+00 -0.00000000000E+00 -0.46666191536E+01  0.48363451412E+01  0.12700000000E+01 0. -1.
         25    2    1    2    0    0  0.00000000000E+00  0.00000000000E+00  0.81721282359E+03  0.82671676911E+03  0.12499526907E+03 0.  0.
    9000005    1    3    3    0    0 -0.61031303253E+02  0.12810449658E+02  0.38212838820E+03  0.38718475262E+03  0.10000000000E+01 0.  0.
    9000005    1    3    3    0    0  0.61031303253E+02 -0.12810449658E+02  0.43508443539E+03  0.43953201649E+03  0.10000000000E+01 0.  0.
<mgrwt>
<rscale>  0 0.12499527E+03</rscale>
<asrwt>0</asrwt>
<pdfrwt beam="1">  1        4 0.12645616E+00 0.12499527E+03</pdfrwt>
<pdfrwt beam="2">  1       -4 0.73107254E-03 0.12499527E+03</pdfrwt>
<totfact> 0.37103302E+03</totfact>
</mgrwt>
</event>
<event>
 5    1  0.3330238E-002  0.1250008E+03  0.7818608E-02  0.1235068E+00
          4   -1    0    0  501    0  0.00000000000E+00  0.00000000000E+00  0.37403375097E+02  0.37424929775E+02  0.12700000000E+01 0.  1.
         -4   -1    0    0    0  501 -0.00000000000E+00 -0.00000000000E+00 -0.10438166498E+03  0.10438939067E+03  0.12700000000E+01 0.  1.
         25    2    1    2    0    0  0.00000000000E+00  0.00000000000E+00 -0.66978289883E+02  0.14181432044E+03  0.12500084067E+03 0.  0.
    9000005    1    3    3    0    0 -0.19639549083E+02 -0.58354192045E+02 -0.21355810780E+02  0.65176639001E+02  0.10000000000E+01 0.  0.
    9000005    1    3    3    0    0  0.19639549083E+02  0.58354192045E+02 -0.45622479103E+02  0.76637681443E+02  0.10000000000E+01 0.  0.
<mgrwt>
<rscale>  0 0.12500084E+03</rscale>
<asrwt>0</asrwt>
<pdfrwt beam="1">  1        4 0.57566178E-02 0.12500084E+03</pdfrwt>
<pdfrwt beam="2">  1       -4 0.16060970E-01 0.12500084E+03</pdfrwt>
<totfact> 0.10095929E+04</totfact>
</mgrwt>
</event>
<event>
 5    1  0.3330238E-002  0.1250003E+03  0.7818608E-02  0.1235069E+00
         -4   -1    0    0    0  501 -0.00000000000E+00  0.00000000000E+00  0.17716907174E+03  0.17717362355E+03  0.12700000000E+01 0. -1.
          4   -1    0    0  501    0  0.00000000000E+00 -0.00000000000E+00 -0.22025140698E+02  0.22061725290E+02  0.12700000000E+01 0. -1.
         25    2    1    2    0    0  0.00000000000E+00  0.00000000000E+00  0.15514393104E+03  0.19923534884E+03  0.12500033955E+03 0.  0.
    9000005    1    3    3    0    0  0.16731277526E+02  0.31759557754E+02  0.15910420153E+03  0.16310656670E+03  0.10000000000E+01 0.  0.
    9000005    1    3    3    0    0 -0.16731277526E+02 -0.31759557754E+02 -0.39602704882E+01  0.36128782137E+02  0.10000000000E+01 0.  0.
<mgrwt>
<rscale>  0 0.12500034E+03</rscale>
<asrwt>0</asrwt>
<pdfrwt beam="2">  1        4 0.33916476E-02 0.12500034E+03</pdfrwt>
<pdfrwt beam="1">  1       -4 0.27259944E-01 0.12500034E+03</pdfrwt>
<totfact> 0.90263946E+03</totfact>
</mgrwt>
</event>
<event>
 5    1  0.3330238E-002  0.1249941E+03  0.7818608E-02  0.1235079E+00
         -4   -1    0    0    0  501 -0.00000000000E+00  0.00000000000E+00  0.26381455428E+03  0.26381761114E+03  0.12700000000E+01 0. -1.
          4   -1    0    0  501    0  0.00000000000E+00 -0.00000000000E+00 -0.14775019548E+02  0.14829501092E+02  0.12700000000E+01 0. -1.
         25    2    1    2    0    0  0.00000000000E+00  0.00000000000E+00  0.24903953473E+03  0.27864711224E+03  0.12499409305E+03 0.  0.
    9000005    1    3    3    0    0  0.54675048118E+02  0.23980469509E+02  0.83386216320E+02  0.10256064000E+03  0.10000000000E+01 0.  0.
    9000005    1    3    3    0    0 -0.54675048118E+02 -0.23980469509E+02  0.16565331841E+03  0.17608647224E+03  0.10000000000E+01 0.  0.
<mgrwt>
<rscale>  0 0.12499409E+03</rscale>
<asrwt>0</asrwt>
<pdfrwt beam="2">  1        4 0.22775061E-02 0.12499409E+03</pdfrwt>
<pdfrwt beam="1">  1       -4 0.40591278E-01 0.12499409E+03</pdfrwt>
<totfact> 0.78368122E+03</totfact>
</mgrwt>
</event>
<event>
 5    1  0.3330238E-002  0.1249982E+03  0.7818608E-02  0.1235072E+00
          4   -1    0    0  501    0  0.00000000000E+00  0.00000000000E+00  0.55821856448E+03  0.55822000916E+03  0.12700000000E+01 0.  1.
         -4   -1    0    0    0  501 -0.00000000000E+00 -0.00000000000E+00 -0.69384157852E+01  0.70536879438E+01  0.12700000000E+01 0.  1.
         25    2    1    2    0    0  0.00000000000E+00  0.00000000000E+00  0.55128014869E+03  0.56527369711E+03  0.12499820117E+03 0.  0.
    9000005    1    3    3    0    0 -0.22379838518E+02  0.57069149500E+02  0.33054266286E+03  0.33618030426E+03  0.10000000000E+01 0.  0.
    9000005    1    3    3    0    0  0.22379838518E+02 -0.57069149500E+02  0.22073748583E+03  0.22909339285E+03  0.10000000000E+01 0.  0.
<mgrwt>
<rscale>  0 0.12499820E+03</rscale>
<asrwt>0</asrwt>
<pdfrwt beam="1">  1        4 0.85888799E-01 0.12499820E+03</pdfrwt>
<pdfrwt beam="2">  1       -4 0.10764263E-02 0.12499820E+03</pdfrwt>
<totfact> 0.51137663E+03</totfact>
</mgrwt>
</event>
