<event>
 5    1  0.1423270E-002  0.1249964E+03  0.7818608E-02  0.1235075E+00
         -4   -1    0    0    0  501 -0.00000000000E+00  0.00000000000E+00  0.10264369650E+02  0.10342639136E+02  0.12700000000E+01 0.  1.
          4   -1    0    0  501    0  0.00000000000E+00 -0.00000000000E+00 -0.37901761137E+03  0.37901973910E+03  0.12700000000E+01 0.  1.
         25    2    1    2    0    0  0.00000000000E+00  0.00000000000E+00 -0.36875324172E+03  0.38936237823E+03  0.12499643318E+03 0.  0.
    9000005    1    3    3    0    0  0.10245956362E+02  0.55320393985E+02 -0.99656882717E+02  0.11444570715E+03  0.10000000000E+01 0.  0.
    9000005    1    3    3    0    0 -0.10245956362E+02 -0.55320393985E+02 -0.26909635900E+03  0.27491667108E+03  0.10000000000E+01 0.  0.
<mgrwt>
<rscale>  0 0.12499643E+03</rscale>
<asrwt>0</asrwt>
<pdfrwt beam="2">  1        4 0.94764406E-01 0.12499643E+03</pdfrwt>
<pdfrwt beam="1">  1       -4 0.25761433E-02 0.12499643E+03</pdfrwt>
<totfact> 0.10792528E+03</totfact>
</mgrwt>
</event>
<event>
 5    1  0.1423270E-002  0.1250034E+03  0.7818608E-02  0.1235064E+00
          4   -1    0    0  501    0  0.00000000000E+00  0.00000000000E+00  0.65136231500E+02  0.65148611297E+02  0.12700000000E+01 0.  1.
         -4   -1    0    0    0  501 -0.00000000000E+00 -0.00000000000E+00 -0.59948890265E+02  0.59962341049E+02  0.12700000000E+01 0.  1.
         25    2    1    2    0    0  0.00000000000E+00  0.00000000000E+00  0.51873412345E+01  0.12511095235E+03  0.12500336751E+03 0.  0.
    9000005    1    3    3    0    0  0.46851013306E+02  0.37377032981E+02  0.20312026113E+02  0.63290113344E+02  0.10000000000E+01 0.  0.
    9000005    1    3    3    0    0 -0.46851013306E+02 -0.37377032981E+02 -0.15124684879E+02  0.61820839002E+02  0.10000000000E+01 0.  0.
<mgrwt>
<rscale>  0 0.12500337E+03</rscale>
<asrwt>0</asrwt>
<pdfrwt beam="1">  1        4 0.16287287E-01 0.12500337E+03</pdfrwt>
<pdfrwt beam="2">  1       -4 0.14990451E-01 0.12500337E+03</pdfrwt>
<totfact> 0.19827477E+03</totfact>
</mgrwt>
</event>
<event>
 5    1  0.1423270E-002  0.1250040E+03  0.7818608E-02  0.1235063E+00
         -4   -1    0    0    0  501 -0.00000000000E+00  0.00000000000E+00  0.23640829425E+02  0.23674917442E+02  0.12700000000E+01 0.  1.
          4   -1    0    0  501    0  0.00000000000E+00 -0.00000000000E+00 -0.16508817630E+03  0.16509306120E+03  0.12700000000E+01 0.  1.
         25    2    1    2    0    0  0.00000000000E+00  0.00000000000E+00 -0.14144734688E+03  0.18876797864E+03  0.12500399122E+03 0.  0.
    9000005    1    3    3    0    0 -0.41105882929E+02  0.31201760972E+02 -0.12394797725E+03  0.13426594715E+03  0.10000000000E+01 0.  0.
    9000005    1    3    3    0    0  0.41105882929E+02 -0.31201760972E+02 -0.17499369626E+02  0.54502031489E+02  0.10000000000E+01 0.  0.
<mgrwt>
<rscale>  0 0.12500399E+03</rscale>
<asrwt>0</asrwt>
<pdfrwt beam="2">  1        4 0.41276912E-01 0.12500399E+03</pdfrwt>
<pdfrwt beam="1">  1       -4 0.59150795E-02 0.12500399E+03</pdfrwt>
<totfact> 0.16780343E+03</totfact>
</mgrwt>
</event>
<event>
 5    1  0.1423270E-002  0.1250013E+03  0.7818608E-02  0.1235067E+00
         -4   -1    0    0    0  501 -0.00000000000E+00  0.00000000000E+00  0.33292543973E+03  0.33292786203E+03  0.12700000000E+01 0.  1.
          4   -1    0    0  501    0  0.00000000000E+00 -0.00000000000E+00 -0.11696504453E+02  0.11765250376E+02  0.12700000000E+01 0.  1.
         25    2    1    2    0    0  0.00000000000E+00  0.00000000000E+00  0.32122893528E+03  0.34469311241E+03  0.12500125153E+03 0.  0.
    9000005    1    3    3    0    0  0.84348864097E+01 -0.35102225033E+02  0.30127527893E+03  0.30343221188E+03  0.10000000000E+01 0.  0.
    9000005    1    3    3    0    0 -0.84348864097E+01  0.35102225033E+02  0.19953656343E+02  0.41260900529E+02  0.10000000000E+01 0.  0.
<mgrwt>
<rscale>  0 0.12500125E+03</rscale>
<asrwt>0</asrwt>
<pdfrwt beam="2">  1        4 0.29330222E-02 0.12500125E+03</pdfrwt>
<pdfrwt beam="1">  1       -4 0.83240255E-01 0.12500125E+03</pdfrwt>
<totfact> 0.11804572E+03</totfact>
</mgrwt>
</event>
<event>
 5    1  0.1423270E-002  0.1249989E+03  0.7818608E-02  0.1235071E+00
          4   -1    0    0  501    0  0.00000000000E+00  0.00000000000E+00  0.37556711748E+03  0.37556926476E+03  0.12700000000E+01 0. -1.
         -4   -1    0    0    0  501 -0.00000000000E+00 -0.00000000000E+00 -0.10359807077E+02  0.10437360906E+02  0.12700000000E+01 0. -1.
         25    2    1    2    0    0  0.00000000000E+00  0.00000000000E+00  0.36520731040E+03  0.38600662566E+03  0.12499894194E+03 0.  0.
    9000005    1    3    3    0    0 -0.36177338850E+02  0.37434522379E+02  0.28935657077E+03  0.29400402779E+03  0.10000000000E+01 0.  0.
    9000005    1    3    3    0    0  0.36177338850E+02 -0.37434522379E+02  0.75850739633E+02  0.92002597870E+02  0.10000000000E+01 0.  0.
<mgrwt>
<rscale>  0 0.12499894E+03</rscale>
<asrwt>0</asrwt>
<pdfrwt beam="1">  1        4 0.93901742E-01 0.12499894E+03</pdfrwt>
<pdfrwt beam="2">  1       -4 0.25999144E-02 0.12499894E+03</pdfrwt>
<totfact> 0.10863494E+03</totfact>
</mgrwt>
</event>
<event>
 5    1  0.1423270E-002  0.1250003E+03  0.7818608E-02  0.1235069E+00
          4   -1    0    0  501    0  0.00000000000E+00  0.00000000000E+00  0.36900150568E+02  0.36921999024E+02  0.12700000000E+01 0. -1.
         -4   -1    0    0    0  501 -0.00000000000E+00 -0.00000000000E+00 -0.10580346564E+03  0.10581108752E+03  0.12700000000E+01 0. -1.
         25    2    1    2    0    0  0.00000000000E+00  0.00000000000E+00 -0.68903315076E+02  0.14273308654E+03  0.12500026866E+03 0.  0.
    9000005    1    3    3    0    0 -0.15543114190E+02 -0.21823410435E+02 -0.98918019662E+02  0.10248719069E+03  0.10000000000E+01 0.  0.
    9000005    1    3    3    0    0  0.15543114190E+02  0.21823410435E+02  0.30014704585E+02  0.40245895854E+02  0.10000000000E+01 0.  0.
<mgrwt>
<rscale>  0 0.12500027E+03</rscale>
<asrwt>0</asrwt>
<pdfrwt beam="1">  1        4 0.92287217E-02 0.12500027E+03</pdfrwt>
<pdfrwt beam="2">  1       -4 0.26454550E-01 0.12500027E+03</pdfrwt>
<totfact> 0.18901266E+03</totfact>
</mgrwt>
</event>
<event>
 5    1  0.1423270E-002  0.1249979E+03  0.7818608E-02  0.1235073E+00
          4   -1    0    0  501    0  0.00000000000E+00  0.00000000000E+00  0.59066696468E+01  0.60416592353E+01  0.12700000000E+01 0. -1.
         -4   -1    0    0    0  501 -0.00000000000E+00 -0.00000000000E+00 -0.65369916873E+03  0.65370040240E+03  0.12700000000E+01 0. -1.
         25    2    1    2    0    0  0.00000000000E+00  0.00000000000E+00 -0.64779249908E+03  0.65974206164E+03  0.12499786407E+03 0.  0.
    9000005    1    3    3    0    0 -0.26649285297E+02 -0.74964035768E+01 -0.61959465174E+03  0.62021360267E+03  0.10000000000E+01 0.  0.
    9000005    1    3    3    0    0  0.26649285297E+02  0.74964035768E+01 -0.28197847349E+02  0.39528458970E+02  0.10000000000E+01 0.  0.
<mgrwt>
<rscale>  0 0.12499786E+03</rscale>
<asrwt>0</asrwt>
<pdfrwt beam="1">  1        4 0.14936975E-02 0.12499786E+03</pdfrwt>
<pdfrwt beam="2">  1       -4 0.16344158E+00 0.12499786E+03</pdfrwt>
<totfact> 0.66410478E+02</totfact>
</mgrwt>
</event>
<event>
 5    1  0.1423270E-002  0.1250068E+03  0.7818608E-02  0.1235059E+00
         -4   -1    0    0    0  501 -0.00000000000E+00  0.00000000000E+00  0.51309793429E+02  0.51325508295E+02  0.12700000000E+01 0. -1.
          4   -1    0    0  501    0  0.00000000000E+00 -0.00000000000E+00 -0.76106256054E+02  0.76116851686E+02  0.12700000000E+01 0. -1.
         25    2    1    2    0    0  0.00000000000E+00  0.00000000000E+00 -0.24796462624E+02  0.12744235998E+03  0.12500676205E+03 0.  0.
    9000005    1    3    3    0    0 -0.10864135157E+02 -0.59294878171E+02 -0.29204587712E+02  0.66991193104E+02  0.10000000000E+01 0.  0.
    9000005    1    3    3    0    0  0.10864135157E+02  0.59294878171E+02  0.44081250877E+01  0.60451166877E+02  0.10000000000E+01 0.  0.
<mgrwt>
<rscale>  0 0.12500676E+03</rscale>
<asrwt>0</asrwt>
<pdfrwt beam="2">  1        4 0.19029853E-01 0.12500676E+03</pdfrwt>
<pdfrwt beam="1">  1       -4 0.12830737E-01 0.12500676E+03</pdfrwt>
<totfact> 0.19699823E+03</totfact>
</mgrwt>
</event>
<event>
 5    1  0.1423270E-002  0.1250019E+03  0.7818608E-02  0.1235066E+00
         -4   -1    0    0    0  501 -0.00000000000E+00  0.00000000000E+00  0.31342037378E+02  0.31367757443E+02  0.12700000000E+01 0.  1.
          4   -1    0    0  501    0  0.00000000000E+00 -0.00000000000E+00 -0.12455669715E+03  0.12456317154E+03  0.12700000000E+01 0.  1.
         25    2    1    2    0    0  0.00000000000E+00  0.00000000000E+00 -0.93214659770E+02  0.15593092898E+03  0.12500192726E+03 0.  0.
    9000005    1    3    3    0    0  0.33233824026E+02 -0.39565073635E+02 -0.27608347826E+01  0.51754268615E+02  0.10000000000E+01 0.  0.
    9000005    1    3    3    0    0 -0.33233824026E+02  0.39565073635E+02 -0.90453824987E+02  0.10417666037E+03  0.10000000000E+01 0.  0.
<mgrwt>
<rscale>  0 0.12500193E+03</rscale>
<asrwt>0</asrwt>
<pdfrwt beam="2">  1        4 0.31143197E-01 0.12500193E+03</pdfrwt>
<pdfrwt beam="1">  1       -4 0.78395340E-02 0.12500193E+03</pdfrwt>
<totfact> 0.18250131E+03</totfact>
</mgrwt>
</event>
<event>
 5    1  0.1423270E-002  0.1250006E+03  0.7818608E-02  0.1235068E+00
         -4   -1    0    0    0  501 -0.00000000000E+00  0.00000000000E+00  0.17374689924E+02  0.17421043308E+02  0.12700000000E+01 0.  1.
          4   -1    0    0  501    0  0.00000000000E+00 -0.00000000000E+00 -0.22447860524E+03  0.22448219775E+03  0.12700000000E+01 0.  1.
         25    2    1    2    0    0  0.00000000000E+00  0.00000000000E+00 -0.20710391531E+03  0.24190324106E+03  0.12500058519E+03 0.  0.
    9000005    1    3    3    0    0 -0.74573920418E+01 -0.56856209389E+02 -0.55480401990E+02  0.79795465079E+02  0.10000000000E+01 0.  0.
    9000005    1    3    3    0    0  0.74573920418E+01  0.56856209389E+02 -0.15162351332E+03  0.16210777598E+03  0.10000000000E+01 0.  0.
<mgrwt>
<rscale>  0 0.12500059E+03</rscale>
<asrwt>0</asrwt>
<pdfrwt beam="2">  1        4 0.56125885E-01 0.12500059E+03</pdfrwt>
<pdfrwt beam="1">  1       -4 0.43499164E-02 0.12500059E+03</pdfrwt>
<totfact> 0.14770909E+03</totfact>
</mgrwt>
</event>
<event>
 5    1  0.1423270E-002  0.1250023E+03  0.7818608E-02  0.1235066E+00
          4   -1    0    0  501    0  0.00000000000E+00  0.00000000000E+00  0.32638645344E+02  0.32663344438E+02  0.12700000000E+01 0. -1.
         -4   -1    0    0    0  501 -0.00000000000E+00 -0.00000000000E+00 -0.11961289319E+03  0.11961963516E+03  0.12700000000E+01 0. -1.
         25    2    1    2    0    0  0.00000000000E+00  0.00000000000E+00 -0.86974247842E+02  0.15228297960E+03  0.12500234433E+03 0.  0.
    9000005    1    3    3    0    0  0.58043989030E+02  0.21700692767E+02 -0.53336946453E+02  0.81767075195E+02  0.10000000000E+01 0.  0.
    9000005    1    3    3    0    0 -0.58043989030E+02 -0.21700692767E+02 -0.33637301389E+02  0.70515904404E+02  0.10000000000E+01 0.  0.
<mgrwt>
<rscale>  0 0.12500234E+03</rscale>
<asrwt>0</asrwt>
<pdfrwt beam="1">  1        4 0.81635918E-02 0.12500234E+03</pdfrwt>
<pdfrwt beam="2">  1       -4 0.29907152E-01 0.12500234E+03</pdfrwt>
<totfact> 0.18426089E+03</totfact>
</mgrwt>
</event>
<event>
 5    1  0.1423270E-002  0.1250018E+03  0.7818608E-02  0.1235067E+00
         -4   -1    0    0    0  501 -0.00000000000E+00  0.00000000000E+00  0.43640771190E+02  0.43659246559E+02  0.12700000000E+01 0.  1.
          4   -1    0    0  501    0  0.00000000000E+00 -0.00000000000E+00 -0.89469804937E+02  0.89478818139E+02  0.12700000000E+01 0.  1.
         25    2    1    2    0    0  0.00000000000E+00  0.00000000000E+00 -0.45829033747E+02  0.13313806470E+03  0.12500177574E+03 0.  0.
    9000005    1    3    3    0    0  0.21198779830E+02  0.56922297589E+02 -0.72673149978E+01  0.61182923242E+02  0.10000000000E+01 0.  0.
    9000005    1    3    3    0    0 -0.21198779830E+02 -0.56922297589E+02 -0.38561718749E+02  0.71955141456E+02  0.10000000000E+01 0.  0.
<mgrwt>
<rscale>  0 0.12500178E+03</rscale>
<asrwt>0</asrwt>
<pdfrwt beam="2">  1        4 0.22370887E-01 0.12500178E+03</pdfrwt>
<pdfrwt beam="1">  1       -4 0.10913629E-01 0.12500178E+03</pdfrwt>
<totfact> 0.19396309E+03</totfact>
</mgrwt>
</event>
<event>
 5    1  0.1423270E-002  0.1250062E+03  0.7818608E-02  0.1235060E+00
         -4   -1    0    0    0  501 -0.00000000000E+00  0.00000000000E+00  0.93605314210E+02  0.93613929243E+02  0.12700000000E+01 0. -1.
          4   -1    0    0  501    0  0.00000000000E+00 -0.00000000000E+00 -0.41715018065E+02  0.41734345953E+02  0.12700000000E+01 0. -1.
         25    2    1    2    0    0  0.00000000000E+00  0.00000000000E+00  0.51890296145E+02  0.13534827520E+03  0.12500621090E+03 0.  0.
    9000005    1    3    3    0    0  0.26849749570E+02  0.35781063437E+02 -0.21305232471E+02  0.49559121091E+02  0.10000000000E+01 0.  0.
    9000005    1    3    3    0    0 -0.26849749570E+02 -0.35781063437E+02  0.73195528617E+02  0.85789154106E+02  0.10000000000E+01 0.  0.
<mgrwt>
<rscale>  0 0.12500621E+03</rscale>
<asrwt>0</asrwt>
<pdfrwt beam="2">  1        4 0.10432247E-01 0.12500621E+03</pdfrwt>
<pdfrwt beam="1">  1       -4 0.23404821E-01 0.12500621E+03</pdfrwt>
<totfact> 0.19278117E+03</totfact>
</mgrwt>
</event>
<event>
 5    1  0.1423270E-002  0.1249993E+03  0.7818608E-02  0.1235070E+00
          4   -1    0    0  501    0  0.00000000000E+00  0.00000000000E+00  0.31113317451E+02  0.31139226432E+02  0.12700000000E+01 0.  1.
         -4   -1    0    0    0  501 -0.00000000000E+00 -0.00000000000E+00 -0.12546628450E+03  0.12547271196E+03  0.12700000000E+01 0.  1.
         25    2    1    2    0    0  0.00000000000E+00  0.00000000000E+00 -0.94352967047E+02  0.15661193839E+03  0.12499926742E+03 0.  0.
    9000005    1    3    3    0    0 -0.33313151254E+02 -0.75368000220E+01  0.18390387584E+02  0.38804326518E+02  0.10000000000E+01 0.  0.
    9000005    1    3    3    0    0  0.33313151254E+02  0.75368000220E+01 -0.11274335463E+03  0.11780761187E+03  0.10000000000E+01 0.  0.
<mgrwt>
<rscale>  0 0.12499927E+03</rscale>
<asrwt>0</asrwt>
<pdfrwt beam="1">  1        4 0.77823717E-02 0.12499927E+03</pdfrwt>
<pdfrwt beam="2">  1       -4 0.31370612E-01 0.12499927E+03</pdfrwt>
<totfact> 0.18218687E+03</totfact>
</mgrwt>
</event>
<event>
 5    1  0.1423270E-002  0.1250017E+03  0.7818608E-02  0.1235067E+00
          4   -1    0    0  501    0  0.00000000000E+00  0.00000000000E+00  0.36637833436E+02  0.36659838228E+02  0.12700000000E+01 0.  1.
         -4   -1    0    0    0  501 -0.00000000000E+00 -0.00000000000E+00 -0.10656309088E+03  0.10657065843E+03  0.12700000000E+01 0.  1.
         25    2    1    2    0    0  0.00000000000E+00  0.00000000000E+00 -0.69925257442E+02  0.14323049665E+03  0.12500173416E+03 0.  0.
    9000005    1    3    3    0    0 -0.50840340022E+02 -0.35680069540E+02 -0.27061327805E+02  0.67757826105E+02  0.10000000000E+01 0.  0.
    9000005    1    3    3    0    0  0.50840340022E+02  0.35680069540E+02 -0.42863929637E+02  0.75472670549E+02  0.10000000000E+01 0.  0.
<mgrwt>
<rscale>  0 0.12500173E+03</rscale>
<asrwt>0</asrwt>
<pdfrwt beam="1">  1        4 0.91631551E-02 0.12500173E+03</pdfrwt>
<pdfrwt beam="2">  1       -4 0.26644469E-01 0.12500173E+03</pdfrwt>
<totfact> 0.18875514E+03</totfact>
</mgrwt>
</event>
<event>
 5    1  0.1423270E-002  0.1249992E+03  0.7818608E-02  0.1235071E+00
         -4   -1    0    0    0  501 -0.00000000000E+00  0.00000000000E+00  0.33845327702E+03  0.33845565977E+03  0.12700000000E+01 0.  1.
          4   -1    0    0  501    0  0.00000000000E+00 -0.00000000000E+00 -0.11503958589E+02  0.11573848246E+02  0.12700000000E+01 0.  1.
         25    2    1    2    0    0  0.00000000000E+00  0.00000000000E+00  0.32694931843E+03  0.35002950801E+03  0.12499919861E+03 0.  0.
    9000005    1    3    3    0    0 -0.35461396109E+02 -0.50738275678E+02  0.18745187914E+03  0.19741096784E+03  0.10000000000E+01 0.  0.
    9000005    1    3    3    0    0  0.35461396109E+02  0.50738275678E+02  0.13949743930E+03  0.15261854017E+03  0.10000000000E+01 0.  0.
<mgrwt>
<rscale>  0 0.12499920E+03</rscale>
<asrwt>0</asrwt>
<pdfrwt beam="2">  1        4 0.28850236E-02 0.12499920E+03</pdfrwt>
<pdfrwt beam="1">  1       -4 0.84622357E-01 0.12499920E+03</pdfrwt>
<totfact> 0.11676829E+03</totfact>
</mgrwt>
</event>
<event>
 5    1  0.1423270E-002  0.1249984E+03  0.7818608E-02  0.1235072E+00
         -4   -1    0    0    0  501 -0.00000000000E+00  0.00000000000E+00  0.21473211589E+03  0.21473587147E+03  0.12700000000E+01 0.  1.
          4   -1    0    0  501    0  0.00000000000E+00 -0.00000000000E+00 -0.18164722203E+02  0.18209064575E+02  0.12700000000E+01 0.  1.
         25    2    1    2    0    0  0.00000000000E+00  0.00000000000E+00  0.19656739369E+03  0.23294493604E+03  0.12499841186E+03 0.  0.
    9000005    1    3    3    0    0 -0.16841828444E+02  0.45767569517E+02  0.17110267277E+03  0.17791976347E+03  0.10000000000E+01 0.  0.
    9000005    1    3    3    0    0  0.16841828444E+02 -0.45767569517E+02  0.25464720916E+02  0.55025172568E+02  0.10000000000E+01 0.  0.
<mgrwt>
<rscale>  0 0.12499841E+03</rscale>
<asrwt>0</asrwt>
<pdfrwt beam="2">  1        4 0.45471929E-02 0.12499841E+03</pdfrwt>
<pdfrwt beam="1">  1       -4 0.53689040E-01 0.12499841E+03</pdfrwt>
<totfact> 0.15083203E+03</totfact>
</mgrwt>
</event>
<event>
 5    1  0.1423270E-002  0.1250019E+03  0.7818608E-02  0.1235066E+00
         -4   -1    0    0    0  501 -0.00000000000E+00  0.00000000000E+00  0.73540844149E+03  0.73540953809E+03  0.12700000000E+01 0. -1.
          4   -1    0    0  501    0  0.00000000000E+00 -0.00000000000E+00 -0.52348067699E+01  0.53866596252E+01  0.12700000000E+01 0. -1.
         25    2    1    2    0    0  0.00000000000E+00  0.00000000000E+00  0.73017363472E+03  0.74079619772E+03  0.12500187883E+03 0.  0.
    9000005    1    3    3    0    0  0.27384896876E+01 -0.41660534297E+01 -0.40834575192E+01  0.65214992340E+01  0.10000000000E+01 0.  0.
    9000005    1    3    3    0    0 -0.27384896876E+01  0.41660534297E+01  0.73425709224E+03  0.73427469848E+03  0.10000000000E+01 0.  0.
<mgrwt>
<rscale>  0 0.12500188E+03</rscale>
<asrwt>0</asrwt>
<pdfrwt beam="2">  1        4 0.13278200E-02 0.12500188E+03</pdfrwt>
<pdfrwt beam="1">  1       -4 0.18387128E+00 0.12500188E+03</pdfrwt>
<totfact> 0.57954003E+02</totfact>
</mgrwt>
</event>
<event>
 5    1  0.1423270E-002  0.1249980E+03  0.7818608E-02  0.1235072E+00
          4   -1    0    0  501    0  0.00000000000E+00  0.00000000000E+00  0.48990170904E+02  0.49006629604E+02  0.12700000000E+01 0.  1.
         -4   -1    0    0    0  501 -0.00000000000E+00 -0.00000000000E+00 -0.79697913280E+02  0.79708031472E+02  0.12700000000E+01 0.  1.
         25    2    1    2    0    0  0.00000000000E+00  0.00000000000E+00 -0.30707742376E+02  0.12871466108E+03  0.12499799412E+03 0.  0.
    9000005    1    3    3    0    0  0.80412208296E+00 -0.10721384947E+02  0.48035675227E+02  0.49234345756E+02  0.10000000000E+01 0.  0.
    9000005    1    3    3    0    0 -0.80412208296E+00  0.10721384947E+02 -0.78743417603E+02  0.79480315320E+02  0.10000000000E+01 0.  0.
<mgrwt>
<rscale>  0 0.12499799E+03</rscale>
<asrwt>0</asrwt>
<pdfrwt beam="1">  1        4 0.12250865E-01 0.12499799E+03</pdfrwt>
<pdfrwt beam="2">  1       -4 0.19927800E-01 0.12499799E+03</pdfrwt>
<totfact> 0.19634657E+03</totfact>
</mgrwt>
</event>
<event>
 5    1  0.1423270E-002  0.1250005E+03  0.7818608E-02  0.1235068E+00
         -4   -1    0    0    0  501 -0.00000000000E+00  0.00000000000E+00  0.35530448539E+03  0.35530675513E+03  0.12700000000E+01 0. -1.
          4   -1    0    0  501    0  0.00000000000E+00 -0.00000000000E+00 -0.10955197315E+02  0.11028565103E+02  0.12700000000E+01 0. -1.
         25    2    1    2    0    0  0.00000000000E+00  0.00000000000E+00  0.34434928807E+03  0.36633532023E+03  0.12500053860E+03 0.  0.
    9000005    1    3    3    0    0 -0.49664455657E+00 -0.31713007189E+02  0.14371683040E+02  0.34835423841E+02  0.10000000000E+01 0.  0.
    9000005    1    3    3    0    0  0.49664455657E+00  0.31713007189E+02  0.32997760504E+03  0.33149989639E+03  0.10000000000E+01 0.  0.
<mgrwt>
<rscale>  0 0.12500054E+03</rscale>
<asrwt>0</asrwt>
<pdfrwt beam="2">  1        4 0.27482542E-02 0.12500054E+03</pdfrwt>
<pdfrwt beam="1">  1       -4 0.88835569E-01 0.12500054E+03</pdfrwt>
<totfact> 0.11297048E+03</totfact>
</mgrwt>
</event>
<event>
 5    1  0.1423270E-002  0.1249911E+03  0.7818608E-02  0.1235083E+00
         -4   -1    0    0    0  501 -0.00000000000E+00  0.00000000000E+00  0.15072075917E+02  0.15125487511E+02  0.12700000000E+01 0.  1.
          4   -1    0    0  501    0  0.00000000000E+00 -0.00000000000E+00 -0.25862096059E+03  0.25862407884E+03  0.12700000000E+01 0.  1.
         25    2    1    2    0    0  0.00000000000E+00  0.00000000000E+00 -0.24354888467E+03  0.27374956635E+03  0.12499106309E+03 0.  0.
    9000005    1    3    3    0    0  0.26196352880E+02  0.44895504154E+02 -0.45815705352E+02  0.69295988732E+02  0.10000000000E+01 0.  0.
    9000005    1    3    3    0    0 -0.26196352880E+02 -0.44895504154E+02 -0.19773317932E+03  0.20445357762E+03  0.10000000000E+01 0.  0.
<mgrwt>
<rscale>  0 0.12499106E+03</rscale>
<asrwt>0</asrwt>
<pdfrwt beam="2">  1        4 0.64662292E-01 0.12499106E+03</pdfrwt>
<pdfrwt beam="1">  1       -4 0.37750860E-02 0.12499106E+03</pdfrwt>
<totfact> 0.13742856E+03</totfact>
</mgrwt>
</event>
<event>
 5    1  0.1423270E-002  0.1249988E+03  0.7818608E-02  0.1235071E+00
          4   -1    0    0  501    0  0.00000000000E+00  0.00000000000E+00  0.50817228630E+02  0.50833095771E+02  0.12700000000E+01 0.  1.
         -4   -1    0    0    0  501 -0.00000000000E+00 -0.00000000000E+00 -0.76833997509E+02  0.76844492797E+02  0.12700000000E+01 0.  1.
         25    2    1    2    0    0  0.00000000000E+00  0.00000000000E+00 -0.26016768879E+02  0.12767758857E+03  0.12499877743E+03 0.  0.
    9000005    1    3    3    0    0  0.61214831489E+02 -0.86426778563E+01 -0.36902648262E+01  0.61940047863E+02  0.10000000000E+01 0.  0.
    9000005    1    3    3    0    0 -0.61214831489E+02  0.86426778563E+01 -0.22326504053E+02  0.65737540705E+02  0.10000000000E+01 0.  0.
<mgrwt>
<rscale>  0 0.12499878E+03</rscale>
<asrwt>0</asrwt>
<pdfrwt beam="1">  1        4 0.12707603E-01 0.12499878E+03</pdfrwt>
<pdfrwt beam="2">  1       -4 0.19211795E-01 0.12499878E+03</pdfrwt>
<totfact> 0.19690657E+03</totfact>
</mgrwt>
</event>
<event>
 5    1  0.1423270E-002  0.1249985E+03  0.7818608E-02  0.1235072E+00
         -4   -1    0    0    0  501 -0.00000000000E+00  0.00000000000E+00  0.80577174109E+03  0.80577274193E+03  0.12700000000E+01 0. -1.
          4   -1    0    0  501    0  0.00000000000E+00 -0.00000000000E+00 -0.47635190655E+01  0.49299101297E+01  0.12700000000E+01 0. -1.
         25    2    1    2    0    0  0.00000000000E+00  0.00000000000E+00  0.80100822202E+03  0.81070265206E+03  0.12499847322E+03 0.  0.
    9000005    1    3    3    0    0  0.57896155617E+01  0.14474417469E+01 -0.29429411594E+01  0.67287174580E+01  0.10000000000E+01 0.  0.
    9000005    1    3    3    0    0 -0.57896155617E+01 -0.14474417469E+01  0.80395116318E+03  0.80397393460E+03  0.10000000000E+01 0.  0.
<mgrwt>
<rscale>  0 0.12499847E+03</rscale>
<asrwt>0</asrwt>
<pdfrwt beam="2">  1        4 0.12118034E-02 0.12499847E+03</pdfrwt>
<pdfrwt beam="1">  1       -4 0.20146392E+00 0.12499847E+03</pdfrwt>
<totfact> 0.51542883E+02</totfact>
</mgrwt>
</event>
<event>
 5    1  0.1423270E-002  0.1250008E+03  0.7818608E-02  0.1235068E+00
         -4   -1    0    0    0  501 -0.00000000000E+00  0.00000000000E+00  0.10010499847E+02  0.10090738684E+02  0.12700000000E+01 0. -1.
          4   -1    0    0  501    0  0.00000000000E+00 -0.00000000000E+00 -0.38858155526E+03  0.38858363062E+03  0.12700000000E+01 0. -1.
         25    2    1    2    0    0  0.00000000000E+00  0.00000000000E+00 -0.37857105541E+03  0.39867436931E+03  0.12500083498E+03 0.  0.
    9000005    1    3    3    0    0  0.28820015169E+02 -0.54181557646E+02 -0.15167420786E+03  0.16362243059E+03  0.10000000000E+01 0.  0.
    9000005    1    3    3    0    0 -0.28820015169E+02  0.54181557646E+02 -0.22689684756E+03  0.23505193872E+03  0.10000000000E+01 0.  0.
<mgrwt>
<rscale>  0 0.12500083E+03</rscale>
<asrwt>0</asrwt>
<pdfrwt beam="2">  1        4 0.97155628E-01 0.12500083E+03</pdfrwt>
<pdfrwt beam="1">  1       -4 0.25129155E-02 0.12500083E+03</pdfrwt>
<totfact> 0.10596359E+03</totfact>
</mgrwt>
</event>
<event>
 5    1  0.1423270E-002  0.1249955E+03  0.7818608E-02  0.1235076E+00
         -4   -1    0    0    0  501 -0.00000000000E+00  0.00000000000E+00  0.25740736263E+03  0.25741049558E+03  0.12700000000E+01 0.  1.
          4   -1    0    0  501    0  0.00000000000E+00 -0.00000000000E+00 -0.15144463693E+02  0.15197620884E+02  0.12700000000E+01 0.  1.
         25    2    1    2    0    0  0.00000000000E+00  0.00000000000E+00  0.24226289894E+03  0.27260811647E+03  0.12499549177E+03 0.  0.
    9000005    1    3    3    0    0 -0.15093717048E+02 -0.21431888813E+02 -0.25844300139E+01  0.26359541554E+02  0.10000000000E+01 0.  0.
    9000005    1    3    3    0    0  0.15093717048E+02  0.21431888813E+02  0.24484732895E+03  0.24624857491E+03  0.10000000000E+01 0.  0.
<mgrwt>
<rscale>  0 0.12499549E+03</rscale>
<asrwt>0</asrwt>
<pdfrwt beam="2">  1        4 0.37931522E-02 0.12499549E+03</pdfrwt>
<pdfrwt beam="1">  1       -4 0.64358876E-01 0.12499549E+03</pdfrwt>
<totfact> 0.13776476E+03</totfact>
</mgrwt>
</event>
<event>
 5    1  0.1423270E-002  0.1250023E+03  0.7818608E-02  0.1235066E+00
          4   -1    0    0  501    0  0.00000000000E+00  0.00000000000E+00  0.26124375872E+03  0.26124684566E+03  0.12700000000E+01 0.  1.
         -4   -1    0    0    0  501 -0.00000000000E+00 -0.00000000000E+00 -0.14922925294E+02  0.14976868809E+02  0.12700000000E+01 0.  1.
         25    2    1    2    0    0  0.00000000000E+00  0.00000000000E+00  0.24632083343E+03  0.27622371447E+03  0.12500234981E+03 0.  0.
    9000005    1    3    3    0    0  0.13674190652E+02  0.34149665985E+02  0.11525179176E+02  0.38561806648E+02  0.10000000000E+01 0.  0.
    9000005    1    3    3    0    0 -0.13674190652E+02 -0.34149665985E+02  0.23479565425E+03  0.23766190783E+03  0.10000000000E+01 0.  0.
<mgrwt>
<rscale>  0 0.12500235E+03</rscale>
<asrwt>0</asrwt>
<pdfrwt beam="1">  1        4 0.65318067E-01 0.12500235E+03</pdfrwt>
<pdfrwt beam="2">  1       -4 0.37378602E-02 0.12500235E+03</pdfrwt>
<totfact> 0.13663871E+03</totfact>
</mgrwt>
</event>
<event>
 5    1  0.1423270E-002  0.1249944E+03  0.7818608E-02  0.1235078E+00
         -4   -1    0    0    0  501 -0.00000000000E+00  0.00000000000E+00  0.12264721747E+03  0.12265379266E+03  0.12700000000E+01 0. -1.
          4   -1    0    0  501    0  0.00000000000E+00 -0.00000000000E+00 -0.31826545292E+02  0.31851874124E+02  0.12700000000E+01 0. -1.
         25    2    1    2    0    0  0.00000000000E+00  0.00000000000E+00  0.90820672178E+02  0.15450566678E+03  0.12499442617E+03 0.  0.
    9000005    1    3    3    0    0 -0.39457951449E+02  0.24315562395E+02  0.97219391377E+02  0.10770694763E+03  0.10000000000E+01 0.  0.
    9000005    1    3    3    0    0  0.39457951449E+02 -0.24315562395E+02 -0.63987191994E+01  0.46798719155E+02  0.10000000000E+01 0.  0.
<mgrwt>
<rscale>  0 0.12499443E+03</rscale>
<asrwt>0</asrwt>
<pdfrwt beam="2">  1        4 0.79606244E-02 0.12499443E+03</pdfrwt>
<pdfrwt beam="1">  1       -4 0.30665792E-01 0.12499443E+03</pdfrwt>
<totfact> 0.18321808E+03</totfact>
</mgrwt>
</event>
<event>
 5    1  0.1423270E-002  0.1249976E+03  0.7818608E-02  0.1235073E+00
         -4   -1    0    0    0  501 -0.00000000000E+00  0.00000000000E+00  0.10629588105E+02  0.10705187681E+02  0.12700000000E+01 0.  1.
          4   -1    0    0  501    0  0.00000000000E+00 -0.00000000000E+00 -0.36609561791E+03  0.36609782074E+03  0.12700000000E+01 0.  1.
         25    2    1    2    0    0  0.00000000000E+00  0.00000000000E+00 -0.35546602980E+03  0.37680300842E+03  0.12499763522E+03 0.  0.
    9000005    1    3    3    0    0  0.32557174603E+02 -0.35082149726E+02 -0.56613304355E+02  0.74140360651E+02  0.10000000000E+01 0.  0.
    9000005    1    3    3    0    0 -0.32557174603E+02  0.35082149726E+02 -0.29885272545E+03  0.30266264777E+03  0.10000000000E+01 0.  0.
<mgrwt>
<rscale>  0 0.12499764E+03</rscale>
<asrwt>0</asrwt>
<pdfrwt beam="2">  1        4 0.91533588E-01 0.12499764E+03</pdfrwt>
<pdfrwt beam="1">  1       -4 0.26671235E-02 0.12499764E+03</pdfrwt>
<totfact> 0.11063761E+03</totfact>
</mgrwt>
</event>
<event>
 5    1  0.1423270E-002  0.1249998E+03  0.7818608E-02  0.1235070E+00
          4   -1    0    0  501    0  0.00000000000E+00  0.00000000000E+00  0.79600929890E+01  0.80607679779E+01  0.12700000000E+01 0. -1.
         -4   -1    0    0    0  501 -0.00000000000E+00 -0.00000000000E+00 -0.48754256525E+03  0.48754421936E+03  0.12700000000E+01 0. -1.
         25    2    1    2    0    0  0.00000000000E+00  0.00000000000E+00 -0.47958247226E+03  0.49560498734E+03  0.12499982309E+03 0.  0.
    9000005    1    3    3    0    0  0.29483458453E+01 -0.60186494578E+02 -0.30543692241E+03  0.31132590712E+03  0.10000000000E+01 0.  0.
    9000005    1    3    3    0    0 -0.29483458453E+01  0.60186494578E+02 -0.17414554985E+03  0.18427908022E+03  0.10000000000E+01 0.  0.
<mgrwt>
<rscale>  0 0.12499982E+03</rscale>
<asrwt>0</asrwt>
<pdfrwt beam="1">  1        4 0.20028160E-02 0.12499982E+03</pdfrwt>
<pdfrwt beam="2">  1       -4 0.12189833E+00 0.12499982E+03</pdfrwt>
<totfact> 0.88310576E+02</totfact>
</mgrwt>
</event>
<event>
 5    1  0.1423270E-002  0.1250008E+03  0.7818608E-02  0.1235068E+00
         -4   -1    0    0    0  501 -0.00000000000E+00  0.00000000000E+00  0.60511280510E+02  0.60524606310E+02  0.12700000000E+01 0. -1.
          4   -1    0    0  501    0  0.00000000000E+00 -0.00000000000E+00 -0.64528222257E+02  0.64540718679E+02  0.12700000000E+01 0. -1.
         25    2    1    2    0    0  0.00000000000E+00  0.00000000000E+00 -0.40169417471E+01  0.12506532499E+03  0.12500079877E+03 0.  0.
    9000005    1    3    3    0    0 -0.46671438304E+02  0.19692525683E+02 -0.38623553153E+02  0.63708693122E+02  0.10000000000E+01 0.  0.
    9000005    1    3    3    0    0  0.46671438304E+02 -0.19692525683E+02  0.34606611406E+02  0.61356631868E+02  0.10000000000E+01 0.  0.
<mgrwt>
<rscale>  0 0.12500080E+03</rscale>
<asrwt>0</asrwt>
<pdfrwt beam="2">  1        4 0.16135283E-01 0.12500080E+03</pdfrwt>
<pdfrwt beam="1">  1       -4 0.15131048E-01 0.12500080E+03</pdfrwt>
<totfact> 0.19831142E+03</totfact>
</mgrwt>
</event>
<event>
 5    1  0.1423270E-002  0.1249975E+03  0.7818608E-02  0.1235073E+00
          4   -1    0    0  501    0  0.00000000000E+00  0.00000000000E+00  0.20388659567E+03  0.20389055102E+03  0.12700000000E+01 0. -1.
         -4   -1    0    0    0  501 -0.00000000000E+00 -0.00000000000E+00 -0.19132967182E+02  0.19175070618E+02  0.12700000000E+01 0. -1.
         25    2    1    2    0    0  0.00000000000E+00  0.00000000000E+00  0.18475362849E+03  0.22306562164E+03  0.12499747324E+03 0.  0.
    9000005    1    3    3    0    0  0.57553015117E+02 -0.21353067123E+02  0.71505149869E+02  0.94245899022E+02  0.10000000000E+01 0.  0.
    9000005    1    3    3    0    0 -0.57553015117E+02  0.21353067123E+02  0.11324847862E+03  0.12881972261E+03  0.10000000000E+01 0.  0.
<mgrwt>
<rscale>  0 0.12499747E+03</rscale>
<asrwt>0</asrwt>
<pdfrwt beam="1">  1        4 0.50977406E-01 0.12499747E+03</pdfrwt>
<pdfrwt beam="2">  1       -4 0.47889992E-02 0.12499747E+03</pdfrwt>
<totfact> 0.15439198E+03</totfact>
</mgrwt>
</event>
<event>
 5    1  0.1423270E-002  0.1250082E+03  0.7818608E-02  0.1235056E+00
         -4   -1    0    0    0  501 -0.00000000000E+00  0.00000000000E+00  0.83293913387E+01  0.84256548750E+01  0.12700000000E+01 0.  1.
          4   -1    0    0  501    0  0.00000000000E+00 -0.00000000000E+00 -0.46624155197E+03  0.46624328165E+03  0.12700000000E+01 0.  1.
         25    2    1    2    0    0  0.00000000000E+00  0.00000000000E+00 -0.45791216063E+03  0.47466893652E+03  0.12500820952E+03 0.  0.
    9000005    1    3    3    0    0 -0.40022415966E+02  0.35222350298E+02 -0.10513588317E+03  0.11788537514E+03  0.10000000000E+01 0.  0.
    9000005    1    3    3    0    0  0.40022415966E+02 -0.35222350298E+02 -0.35277627745E+03  0.35678356139E+03  0.10000000000E+01 0.  0.
<mgrwt>
<rscale>  0 0.12500821E+03</rscale>
<asrwt>0</asrwt>
<pdfrwt beam="2">  1        4 0.11657255E+00 0.12500821E+03</pdfrwt>
<pdfrwt beam="1">  1       -4 0.20945986E-02 0.12500821E+03</pdfrwt>
<totfact> 0.91733261E+02</totfact>
</mgrwt>
</event>
<event>
 5    1  0.1423270E-002  0.1249894E+03  0.7818608E-02  0.1235086E+00
         -4   -1    0    0    0  501 -0.00000000000E+00  0.00000000000E+00  0.19740794208E+02  0.19781603978E+02  0.12700000000E+01 0.  1.
          4   -1    0    0  501    0  0.00000000000E+00 -0.00000000000E+00 -0.19759640896E+03  0.19760049022E+03  0.12700000000E+01 0.  1.
         25    2    1    2    0    0  0.00000000000E+00  0.00000000000E+00 -0.17785561475E+03  0.21738209419E+03  0.12498942026E+03 0.  0.
    9000005    1    3    3    0    0 -0.60130327415E+02 -0.81656775203E+01 -0.62999418466E+02  0.87477204411E+02  0.10000000000E+01 0.  0.
    9000005    1    3    3    0    0  0.60130327415E+02  0.81656775203E+01 -0.11485619629E+03  0.12990488978E+03  0.10000000000E+01 0.  0.
<mgrwt>
<rscale>  0 0.12498942E+03</rscale>
<asrwt>0</asrwt>
<pdfrwt beam="2">  1        4 0.49404707E-01 0.12498942E+03</pdfrwt>
<pdfrwt beam="1">  1       -4 0.49408105E-02 0.12498942E+03</pdfrwt>
<totfact> 0.15652731E+03</totfact>
</mgrwt>
</event>
<event>
 5    1  0.1423270E-002  0.1249968E+03  0.7818608E-02  0.1235074E+00
         -4   -1    0    0    0  501 -0.00000000000E+00  0.00000000000E+00  0.14146034283E+02  0.14202928780E+02  0.12700000000E+01 0. -1.
          4   -1    0    0  501    0  0.00000000000E+00 -0.00000000000E+00 -0.27551076825E+03  0.27551369534E+03  0.12700000000E+01 0. -1.
         25    2    1    2    0    0  0.00000000000E+00  0.00000000000E+00 -0.26136473397E+03  0.28971662412E+03  0.12499679249E+03 0.  0.
    9000005    1    3    3    0    0  0.50323806589E+02 -0.17087834431E+02 -0.54491838201E+02  0.76123846630E+02  0.10000000000E+01 0.  0.
    9000005    1    3    3    0    0 -0.50323806589E+02  0.17087834431E+02 -0.20687289577E+03  0.21359277750E+03  0.10000000000E+01 0.  0.
<mgrwt>
<rscale>  0 0.12499679E+03</rscale>
<asrwt>0</asrwt>
<pdfrwt beam="2">  1        4 0.68885152E-01 0.12499679E+03</pdfrwt>
<pdfrwt beam="1">  1       -4 0.35439872E-02 0.12499679E+03</pdfrwt>
<totfact> 0.13265218E+03</totfact>
</mgrwt>
</event>
<event>
 5    1  0.1423270E-002  0.1250045E+03  0.7818608E-02  0.1235062E+00
         -4   -1    0    0    0  501 -0.00000000000E+00  0.00000000000E+00  0.32980659732E+03  0.32980904253E+03  0.12700000000E+01 0.  1.
          4   -1    0    0  501    0  0.00000000000E+00 -0.00000000000E+00 -0.11808376039E+02  0.11876474421E+02  0.12700000000E+01 0.  1.
         25    2    1    2    0    0  0.00000000000E+00  0.00000000000E+00  0.31799822128E+03  0.34168551696E+03  0.12500449495E+03 0.  0.
    9000005    1    3    3    0    0 -0.51082475451E+02  0.23834217050E+02  0.23275200698E+03  0.23948274667E+03  0.10000000000E+01 0.  0.
    9000005    1    3    3    0    0  0.51082475451E+02 -0.23834217050E+02  0.85246214305E+02  0.10220277029E+03  0.10000000000E+01 0.  0.
<mgrwt>
<rscale>  0 0.12500449E+03</rscale>
<asrwt>0</asrwt>
<pdfrwt beam="2">  1        4 0.29609118E-02 0.12500449E+03</pdfrwt>
<pdfrwt beam="1">  1       -4 0.82460471E-01 0.12500449E+03</pdfrwt>
<totfact> 0.11877028E+03</totfact>
</mgrwt>
</event>
<event>
 5    1  0.1423270E-002  0.1249863E+03  0.7818608E-02  0.1235091E+00
          4   -1    0    0  501    0  0.00000000000E+00  0.00000000000E+00  0.11211141096E+02  0.11282844706E+02  0.12700000000E+01 0.  1.
         -4   -1    0    0    0  501 -0.00000000000E+00 -0.00000000000E+00 -0.34716609653E+03  0.34716841948E+03  0.12700000000E+01 0.  1.
         25    2    1    2    0    0  0.00000000000E+00  0.00000000000E+00 -0.33595495544E+03  0.35845126418E+03  0.12498630610E+03 0.  0.
    9000005    1    3    3    0    0  0.51642502748E+02  0.26907428184E+02 -0.23296216139E+03  0.24013189381E+03  0.10000000000E+01 0.  0.
    9000005    1    3    3    0    0 -0.51642502748E+02 -0.26907428184E+02 -0.10299279404E+03  0.11831937038E+03  0.10000000000E+01 0.  0.
<mgrwt>
<rscale>  0 0.12498631E+03</rscale>
<asrwt>0</asrwt>
<pdfrwt beam="1">  1        4 0.28120397E-02 0.12498631E+03</pdfrwt>
<pdfrwt beam="2">  1       -4 0.86800742E-01 0.12498631E+03</pdfrwt>
<totfact> 0.11481907E+03</totfact>
</mgrwt>
</event>
<event>
 5    1  0.1423270E-002  0.1250010E+03  0.7818608E-02  0.1235068E+00
          4   -1    0    0  501    0  0.00000000000E+00  0.00000000000E+00  0.12190919503E+03  0.12191581002E+03  0.12700000000E+01 0.  1.
         -4   -1    0    0    0  501 -0.00000000000E+00 -0.00000000000E+00 -0.32022710706E+02  0.32047884501E+02  0.12700000000E+01 0.  1.
         25    2    1    2    0    0  0.00000000000E+00  0.00000000000E+00  0.89886484323E+02  0.15396369452E+03  0.12500095666E+03 0.  0.
    9000005    1    3    3    0    0 -0.50130877049E+02  0.26631359073E+02  0.77132250999E+02  0.95774308998E+02  0.10000000000E+01 0.  0.
    9000005    1    3    3    0    0  0.50130877049E+02 -0.26631359073E+02  0.12754233324E+02  0.58189385523E+02  0.10000000000E+01 0.  0.
<mgrwt>
<rscale>  0 0.12500096E+03</rscale>
<asrwt>0</asrwt>
<pdfrwt beam="1">  1        4 0.30481272E-01 0.12500096E+03</pdfrwt>
<pdfrwt beam="2">  1       -4 0.80096514E-02 0.12500096E+03</pdfrwt>
<totfact> 0.18345179E+03</totfact>
</mgrwt>
</event>
<event>
 5    1  0.1423270E-002  0.1250060E+03  0.7818608E-02  0.1235060E+00
          4   -1    0    0  501    0  0.00000000000E+00  0.00000000000E+00  0.71145976453E+02  0.71157310696E+02  0.12700000000E+01 0. -1.
         -4   -1    0    0    0  501 -0.00000000000E+00 -0.00000000000E+00 -0.54886911091E+02  0.54901602063E+02  0.12700000000E+01 0. -1.
         25    2    1    2    0    0  0.00000000000E+00  0.00000000000E+00  0.16259065362E+02  0.12605891276E+03  0.12500596898E+03 0.  0.
    9000005    1    3    3    0    0 -0.34063020195E+02  0.69324040011E+01 -0.44243227144E+02  0.56274423304E+02  0.10000000000E+01 0.  0.
    9000005    1    3    3    0    0  0.34063020195E+02 -0.69324040011E+01  0.60502292506E+02  0.69784489456E+02  0.10000000000E+01 0.  0.
<mgrwt>
<rscale>  0 0.12500597E+03</rscale>
<asrwt>0</asrwt>
<pdfrwt beam="1">  1        4 0.17789747E-01 0.12500597E+03</pdfrwt>
<pdfrwt beam="2">  1       -4 0.13724981E-01 0.12500597E+03</pdfrwt>
<totfact> 0.19774976E+03</totfact>
</mgrwt>
</event>
<event>
 5    1  0.1423270E-002  0.1249979E+03  0.7818608E-02  0.1235073E+00
          4   -1    0    0  501    0  0.00000000000E+00  0.00000000000E+00  0.36428575853E+02  0.36450706970E+02  0.12700000000E+01 0. -1.
         -4   -1    0    0    0  501 -0.00000000000E+00 -0.00000000000E+00 -0.10716834492E+03  0.10717586974E+03  0.12700000000E+01 0. -1.
         25    2    1    2    0    0  0.00000000000E+00  0.00000000000E+00 -0.70739769070E+02  0.14362657671E+03  0.12499791441E+03 0.  0.
    9000005    1    3    3    0    0 -0.46457100537E+02 -0.33818929163E+02 -0.71509764274E+01  0.57914753076E+02  0.10000000000E+01 0.  0.
    9000005    1    3    3    0    0  0.46457100537E+02  0.33818929163E+02 -0.63588792643E+02  0.85711823629E+02  0.10000000000E+01 0.  0.
<mgrwt>
<rscale>  0 0.12499791E+03</rscale>
<asrwt>0</asrwt>
<pdfrwt beam="1">  1        4 0.91108512E-02 0.12499791E+03</pdfrwt>
<pdfrwt beam="2">  1       -4 0.26795793E-01 0.12499791E+03</pdfrwt>
<totfact> 0.18857240E+03</totfact>
</mgrwt>
</event>
<event>
 5    1  0.1423270E-002  0.1250016E+03  0.7818608E-02  0.1235067E+00
         -4   -1    0    0    0  501 -0.00000000000E+00  0.00000000000E+00  0.27104763671E+03  0.27105061200E+03  0.12700000000E+01 0. -1.
          4   -1    0    0  501    0  0.00000000000E+00 -0.00000000000E+00 -0.14380994201E+02  0.14436962776E+02  0.12700000000E+01 0. -1.
         25    2    1    2    0    0  0.00000000000E+00  0.00000000000E+00  0.25666664251E+03  0.28548757478E+03  0.12500155989E+03 0.  0.
    9000005    1    3    3    0    0  0.34966903867E+02 -0.25735567464E+01  0.24647906311E+03  0.24896231866E+03  0.10000000000E+01 0.  0.
    9000005    1    3    3    0    0 -0.34966903867E+02  0.25735567464E+01  0.10187579397E+02  0.36525256116E+02  0.10000000000E+01 0.  0.
<mgrwt>
<rscale>  0 0.12500156E+03</rscale>
<asrwt>0</asrwt>
<pdfrwt beam="2">  1        4 0.36026166E-02 0.12500156E+03</pdfrwt>
<pdfrwt beam="1">  1       -4 0.67769276E-01 0.12500156E+03</pdfrwt>
<totfact> 0.13387289E+03</totfact>
</mgrwt>
</event>
<event>
 5    1  0.1423270E-002  0.1250101E+03  0.7818608E-02  0.1235053E+00
          4   -1    0    0  501    0  0.00000000000E+00  0.00000000000E+00  0.70388434378E+03  0.70388548949E+03  0.12700000000E+01 0. -1.
         -4   -1    0    0    0  501 -0.00000000000E+00 -0.00000000000E+00 -0.54766492409E+01  0.56219735777E+01  0.12700000000E+01 0. -1.
         25    2    1    2    0    0  0.00000000000E+00  0.00000000000E+00  0.69840769454E+03  0.70950746307E+03  0.12501012903E+03 0.  0.
    9000005    1    3    3    0    0  0.10249176427E+02  0.25318772699E+02  0.66824108100E+03  0.66879984166E+03  0.10000000000E+01 0.  0.
    9000005    1    3    3    0    0 -0.10249176427E+02 -0.25318772699E+02  0.30166613536E+02  0.40707621407E+02  0.10000000000E+01 0.  0.
<mgrwt>
<rscale>  0 0.12501013E+03</rscale>
<asrwt>0</asrwt>
<pdfrwt beam="1">  1        4 0.17598942E+00 0.12501013E+03</pdfrwt>
<pdfrwt beam="2">  1       -4 0.13874709E-02 0.12501013E+03</pdfrwt>
<totfact> 0.61066976E+02</totfact>
</mgrwt>
</event>
<event>
 5    1  0.1423270E-002  0.1250134E+03  0.7818608E-02  0.1235048E+00
         -4   -1    0    0    0  501 -0.00000000000E+00  0.00000000000E+00  0.46557222168E+02  0.46574540641E+02  0.12700000000E+01 0. -1.
          4   -1    0    0  501    0  0.00000000000E+00 -0.00000000000E+00 -0.83882441091E+02  0.83892054590E+02  0.12700000000E+01 0. -1.
         25    2    1    2    0    0  0.00000000000E+00  0.00000000000E+00 -0.37325218923E+02  0.13046659523E+03  0.12501344129E+03 0.  0.
    9000005    1    3    3    0    0  0.50286201206E+02  0.36235825744E+02 -0.27034568747E+02  0.67628433417E+02  0.10000000000E+01 0.  0.
    9000005    1    3    3    0    0 -0.50286201206E+02 -0.36235825744E+02 -0.10290650176E+02  0.62838161814E+02  0.10000000000E+01 0.  0.
<mgrwt>
<rscale>  0 0.12501344E+03</rscale>
<asrwt>0</asrwt>
<pdfrwt beam="2">  1        4 0.20973977E-01 0.12501344E+03</pdfrwt>
<pdfrwt beam="1">  1       -4 0.11642672E-01 0.12501344E+03</pdfrwt>
<totfact> 0.19533203E+03</totfact>
</mgrwt>
</event>
<event>
 5    1  0.1423270E-002  0.1249993E+03  0.7818608E-02  0.1235070E+00
          4   -1    0    0  501    0  0.00000000000E+00  0.00000000000E+00  0.51155842214E+02  0.51171604359E+02  0.12700000000E+01 0. -1.
         -4   -1    0    0    0  501 -0.00000000000E+00 -0.00000000000E+00 -0.76326191935E+02  0.76336757039E+02  0.12700000000E+01 0. -1.
         25    2    1    2    0    0  0.00000000000E+00  0.00000000000E+00 -0.25170349721E+02  0.12750836140E+03  0.12499934288E+03 0.  0.
    9000005    1    3    3    0    0  0.30283071766E+02  0.52720491628E+02  0.21510481035E+01  0.60845227266E+02  0.10000000000E+01 0.  0.
    9000005    1    3    3    0    0 -0.30283071766E+02 -0.52720491628E+02 -0.27321397824E+02  0.66663134131E+02  0.10000000000E+01 0.  0.
<mgrwt>
<rscale>  0 0.12499934E+03</rscale>
<asrwt>0</asrwt>
<pdfrwt beam="1">  1        4 0.12792252E-01 0.12499934E+03</pdfrwt>
<pdfrwt beam="2">  1       -4 0.19084839E-01 0.12499934E+03</pdfrwt>
<totfact> 0.19699630E+03</totfact>
</mgrwt>
</event>
<event>
 5    1  0.1423270E-002  0.1250041E+03  0.7818608E-02  0.1235063E+00
          4   -1    0    0  501    0  0.00000000000E+00  0.00000000000E+00  0.27647490526E+02  0.27676644168E+02  0.12700000000E+01 0. -1.
         -4   -1    0    0    0  501 -0.00000000000E+00 -0.00000000000E+00 -0.14119052413E+03  0.14119623580E+03  0.12700000000E+01 0. -1.
         25    2    1    2    0    0  0.00000000000E+00  0.00000000000E+00 -0.11354303360E+03  0.16887287996E+03  0.12500411636E+03 0.  0.
    9000005    1    3    3    0    0  0.45355820845E+02 -0.24804504905E+02 -0.10421030313E+03  0.11633228798E+03  0.10000000000E+01 0.  0.
    9000005    1    3    3    0    0 -0.45355820845E+02  0.24804504905E+02 -0.93327304707E+01  0.52540591985E+02  0.10000000000E+01 0.  0.
<mgrwt>
<rscale>  0 0.12500412E+03</rscale>
<asrwt>0</asrwt>
<pdfrwt beam="1">  1        4 0.69162312E-02 0.12500412E+03</pdfrwt>
<pdfrwt beam="2">  1       -4 0.35301987E-01 0.12500412E+03</pdfrwt>
<totfact> 0.17646319E+03</totfact>
</mgrwt>
</event>
<event>
 5    1  0.1423270E-002  0.1249953E+03  0.7818608E-02  0.1235077E+00
         -4   -1    0    0    0  501 -0.00000000000E+00  0.00000000000E+00  0.29456305107E+03  0.29456578884E+03  0.12700000000E+01 0. -1.
          4   -1    0    0  501    0  0.00000000000E+00 -0.00000000000E+00 -0.13226955880E+02  0.13287786190E+02  0.12700000000E+01 0. -1.
         25    2    1    2    0    0  0.00000000000E+00  0.00000000000E+00  0.28133609519E+03  0.30785357503E+03  0.12499530072E+03 0.  0.
    9000005    1    3    3    0    0 -0.62397736496E+02  0.24468711801E+01  0.14643969850E+03  0.15920128767E+03  0.10000000000E+01 0.  0.
    9000005    1    3    3    0    0  0.62397736496E+02 -0.24468711801E+01  0.13489639670E+03  0.14865228737E+03  0.10000000000E+01 0.  0.
<mgrwt>
<rscale>  0 0.12499530E+03</rscale>
<asrwt>0</asrwt>
<pdfrwt beam="2">  1        4 0.33146850E-02 0.12499530E+03</pdfrwt>
<pdfrwt beam="1">  1       -4 0.73648708E-01 0.12499530E+03</pdfrwt>
<totfact> 0.12755138E+03</totfact>
</mgrwt>
</event>
<event>
 5    1  0.1423270E-002  0.1249986E+03  0.7818608E-02  0.1235072E+00
         -4   -1    0    0    0  501 -0.00000000000E+00  0.00000000000E+00  0.60878066140E+01  0.62188656015E+01  0.12700000000E+01 0.  1.
          4   -1    0    0  501    0  0.00000000000E+00 -0.00000000000E+00 -0.63467193221E+03  0.63467320287E+03  0.12700000000E+01 0.  1.
         25    2    1    2    0    0  0.00000000000E+00  0.00000000000E+00 -0.62858412560E+03  0.64089206847E+03  0.12499856188E+03 0.  0.
    9000005    1    3    3    0    0  0.37768184406E+02  0.48781859792E+02 -0.26326306614E+03  0.27039701846E+03  0.10000000000E+01 0.  0.
    9000005    1    3    3    0    0 -0.37768184406E+02 -0.48781859792E+02 -0.36532105945E+03  0.37049505001E+03  0.10000000000E+01 0.  0.
<mgrwt>
<rscale>  0 0.12499856E+03</rscale>
<asrwt>0</asrwt>
<pdfrwt beam="2">  1        4 0.15868430E+00 0.12499856E+03</pdfrwt>
<pdfrwt beam="1">  1       -4 0.15384950E-02 0.12499856E+03</pdfrwt>
<totfact> 0.68565146E+02</totfact>
</mgrwt>
</event>
<event>
 5    1  0.1423270E-002  0.1250170E+03  0.7818608E-02  0.1235043E+00
          4   -1    0    0  501    0  0.00000000000E+00  0.00000000000E+00  0.43433185513E+03  0.43433371188E+03  0.12700000000E+01 0. -1.
         -4   -1    0    0    0  501 -0.00000000000E+00 -0.00000000000E+00 -0.89494428806E+01  0.90391054797E+01  0.12700000000E+01 0. -1.
         25    2    1    2    0    0  0.00000000000E+00  0.00000000000E+00  0.42538241225E+03  0.44337281736E+03  0.12501703295E+03 0.  0.
    9000005    1    3    3    0    0  0.52470160345E+02  0.61522580315E+01  0.33113295326E+03  0.33532223419E+03  0.10000000000E+01 0.  0.
    9000005    1    3    3    0    0 -0.52470160345E+02 -0.61522580315E+01  0.94249458990E+02  0.10805058318E+03  0.10000000000E+01 0.  0.
<mgrwt>
<rscale>  0 0.12501703E+03</rscale>
<asrwt>0</asrwt>
<pdfrwt beam="1">  1        4 0.10859441E+00 0.12501703E+03</pdfrwt>
<pdfrwt beam="2">  1       -4 0.22488006E-02 0.12501703E+03</pdfrwt>
<totfact> 0.97181472E+02</totfact>
</mgrwt>
</event>
<event>
 5    1  0.1423270E-002  0.1250010E+03  0.7818608E-02  0.1235068E+00
         -4   -1    0    0    0  501 -0.00000000000E+00  0.00000000000E+00  0.11016282547E+03  0.11017014576E+03  0.12700000000E+01 0.  1.
          4   -1    0    0  501    0  0.00000000000E+00 -0.00000000000E+00 -0.35439580502E+02  0.35462328831E+02  0.12700000000E+01 0.  1.
         25    2    1    2    0    0  0.00000000000E+00  0.00000000000E+00  0.74723244971E+02  0.14563247459E+03  0.12500101726E+03 0.  0.
    9000005    1    3    3    0    0 -0.42438099202E+02 -0.43458547276E+02  0.20251797171E+02  0.64037277299E+02  0.10000000000E+01 0.  0.
    9000005    1    3    3    0    0  0.42438099202E+02  0.43458547276E+02  0.54471447801E+02  0.81595197290E+02  0.10000000000E+01 0.  0.
<mgrwt>
<rscale>  0 0.12500102E+03</rscale>
<asrwt>0</asrwt>
<pdfrwt beam="2">  1        4 0.88636538E-02 0.12500102E+03</pdfrwt>
<pdfrwt beam="1">  1       -4 0.27544465E-01 0.12500102E+03</pdfrwt>
<totfact> 0.18755194E+03</totfact>
</mgrwt>
</event>
<event>
 5    1  0.1423270E-002  0.1249995E+03  0.7818608E-02  0.1235070E+00
         -4   -1    0    0    0  501 -0.00000000000E+00  0.00000000000E+00  0.38968835122E+03  0.38969042069E+03  0.12700000000E+01 0. -1.
          4   -1    0    0  501    0  0.00000000000E+00 -0.00000000000E+00 -0.99816224833E+01  0.10062091602E+02  0.12700000000E+01 0. -1.
         25    2    1    2    0    0  0.00000000000E+00  0.00000000000E+00  0.37970672874E+03  0.39975251229E+03  0.12499948494E+03 0.  0.
    9000005    1    3    3    0    0 -0.33920306964E+02 -0.51686538724E+02  0.21901204529E+03  0.22757276088E+03  0.10000000000E+01 0.  0.
    9000005    1    3    3    0    0  0.33920306964E+02  0.51686538724E+02  0.16069468345E+03  0.17217975142E+03  0.10000000000E+01 0.  0.
<mgrwt>
<rscale>  0 0.12499948E+03</rscale>
<asrwt>0</asrwt>
<pdfrwt beam="2">  1        4 0.25057231E-02 0.12499948E+03</pdfrwt>
<pdfrwt beam="1">  1       -4 0.97432399E-01 0.12499948E+03</pdfrwt>
<totfact> 0.10574424E+03</totfact>
</mgrwt>
</event>
<event>
 5    1  0.1423270E-002  0.1250141E+03  0.7818608E-02  0.1235047E+00
          4   -1    0    0  501    0  0.00000000000E+00  0.00000000000E+00  0.62635023318E+02  0.62647897379E+02  0.12700000000E+01 0.  1.
         -4   -1    0    0    0  501 -0.00000000000E+00 -0.00000000000E+00 -0.62353559562E+02  0.62366491725E+02  0.12700000000E+01 0.  1.
         25    2    1    2    0    0  0.00000000000E+00  0.00000000000E+00  0.28146375543E+00  0.12501438910E+03  0.12501407225E+03 0.  0.
    9000005    1    3    3    0    0  0.29785507177E+02 -0.54300990216E+02  0.85285769983E+01  0.62526079373E+02  0.10000000000E+01 0.  0.
    9000005    1    3    3    0    0 -0.29785507177E+02  0.54300990216E+02 -0.82471132429E+01  0.62488309731E+02  0.10000000000E+01 0.  0.
<mgrwt>
<rscale>  0 0.12501407E+03</rscale>
<asrwt>0</asrwt>
<pdfrwt beam="1">  1        4 0.15661982E-01 0.12501407E+03</pdfrwt>
<pdfrwt beam="2">  1       -4 0.15591616E-01 0.12501407E+03</pdfrwt>
<totfact> 0.19827746E+03</totfact>
</mgrwt>
</event>
<event>
 5    1  0.1423270E-002  0.1250008E+03  0.7818608E-02  0.1235068E+00
          4   -1    0    0  501    0  0.00000000000E+00  0.00000000000E+00  0.14107731522E+02  0.14164779867E+02  0.12700000000E+01 0. -1.
         -4   -1    0    0    0  501 -0.00000000000E+00 -0.00000000000E+00 -0.27627340493E+03  0.27627632394E+03  0.12700000000E+01 0. -1.
         25    2    1    2    0    0  0.00000000000E+00  0.00000000000E+00 -0.26216567340E+03  0.29044110381E+03  0.12500077787E+03 0.  0.
    9000005    1    3    3    0    0  0.36455020784E+02  0.44484881986E+02 -0.74290833600E+02  0.93957443679E+02  0.10000000000E+01 0.  0.
    9000005    1    3    3    0    0 -0.36455020784E+02 -0.44484881986E+02 -0.18787483981E+03  0.19648366013E+03  0.10000000000E+01 0.  0.
<mgrwt>
<rscale>  0 0.12500078E+03</rscale>
<asrwt>0</asrwt>
<pdfrwt beam="1">  1        4 0.35344297E-02 0.12500078E+03</pdfrwt>
<pdfrwt beam="2">  1       -4 0.69075830E-01 0.12500078E+03</pdfrwt>
<totfact> 0.13243020E+03</totfact>
</mgrwt>
</event>
<event>
 5    1  0.1423270E-002  0.1250001E+03  0.7818608E-02  0.1235069E+00
         -4   -1    0    0    0  501 -0.00000000000E+00  0.00000000000E+00  0.16506750794E+02  0.16555534476E+02  0.12700000000E+01 0. -1.
          4   -1    0    0  501    0  0.00000000000E+00 -0.00000000000E+00 -0.23624627628E+03  0.23624968985E+03  0.12700000000E+01 0. -1.
         25    2    1    2    0    0  0.00000000000E+00  0.00000000000E+00 -0.21973952549E+03  0.25280522433E+03  0.12500008955E+03 0.  0.
    9000005    1    3    3    0    0  0.90295607642E+01 -0.31385265576E+02 -0.21762404316E+03  0.22006315463E+03  0.10000000000E+01 0.  0.
    9000005    1    3    3    0    0 -0.90295607642E+01  0.31385265576E+02 -0.21154823240E+01  0.32742069701E+02  0.10000000000E+01 0.  0.
<mgrwt>
<rscale>  0 0.12500009E+03</rscale>
<asrwt>0</asrwt>
<pdfrwt beam="2">  1        4 0.59068083E-01 0.12500009E+03</pdfrwt>
<pdfrwt beam="1">  1       -4 0.41332131E-02 0.12500009E+03</pdfrwt>
<totfact> 0.14405104E+03</totfact>
</mgrwt>
</event>
<event>
 4    1  0.1423270E-002  0.1248038E+03  0.7818608E-02  0.1235376E+00
         -4   -1    0    0    0  501 -0.00000000000E+00  0.00000000000E+00  0.36757994979E+02  0.36779927880E+02  0.12700000000E+01 0. -1.
          4   -1    0    0  501    0  0.00000000000E+00 -0.00000000000E+00 -0.10587877425E+03  0.10588639071E+03  0.12700000000E+01 0. -1.
    9000005    1    1    2    0    0  0.68059424147E+01  0.34621018287E+02  0.24264039291E+02  0.42833157275E+02  0.10000000000E+01 0.  0.
    9000005    1    1    2    0    0 -0.68059424147E+01 -0.34621018287E+02 -0.93384818565E+02  0.99833161314E+02  0.10000000000E+01 0.  0.
<mgrwt>
<rscale>  0 0.12480383E+03</rscale>
<asrwt>0</asrwt>
<pdfrwt beam="2">  1        4 0.26473387E-01 0.12480383E+03</pdfrwt>
<pdfrwt beam="1">  1       -4 0.91931926E-02 0.12480383E+03</pdfrwt>
<totfact> 0.18991459E+03</totfact>
</mgrwt>
</event>
<event>
 5    1  0.1423270E-002  0.1249939E+03  0.7818608E-02  0.1235079E+00
          4   -1    0    0  501    0  0.00000000000E+00  0.00000000000E+00  0.28987091094E+03  0.28987369303E+03  0.12700000000E+01 0.  1.
         -4   -1    0    0    0  501 -0.00000000000E+00 -0.00000000000E+00 -0.13441738955E+02  0.13501601614E+02  0.12700000000E+01 0.  1.
         25    2    1    2    0    0  0.00000000000E+00  0.00000000000E+00  0.27642917199E+03  0.30337529464E+03  0.12499392895E+03 0.  0.
    9000005    1    3    3    0    0 -0.74367256761E+01  0.42606997807E+02  0.28746097399E+02  0.51942268593E+02  0.10000000000E+01 0.  0.
    9000005    1    3    3    0    0  0.74367256761E+01 -0.42606997807E+02  0.24768307459E+03  0.25143302605E+03  0.10000000000E+01 0.  0.
<mgrwt>
<rscale>  0 0.12499393E+03</rscale>
<asrwt>0</asrwt>
<pdfrwt beam="1">  1        4 0.72475556E-01 0.12499393E+03</pdfrwt>
<pdfrwt beam="2">  1       -4 0.33682654E-02 0.12499393E+03</pdfrwt>
<totfact> 0.12878773E+03</totfact>
</mgrwt>
</event>
<event>
 5    1  0.1423270E-002  0.1249971E+03  0.7818608E-02  0.1235074E+00
          4   -1    0    0  501    0  0.00000000000E+00  0.00000000000E+00  0.49205872586E+01  0.50818381487E+01  0.12700000000E+01 0. -1.
         -4   -1    0    0    0  501 -0.00000000000E+00 -0.00000000000E+00 -0.78086295415E+03  0.78086398692E+03  0.12700000000E+01 0. -1.
         25    2    1    2    0    0  0.00000000000E+00  0.00000000000E+00 -0.77594236689E+03  0.78594582507E+03  0.12499713277E+03 0.  0.
    9000005    1    3    3    0    0 -0.44871897101E+02 -0.38606630152E+02 -0.51390003922E+03  0.51729895549E+03  0.10000000000E+01 0.  0.
    9000005    1    3    3    0    0  0.44871897101E+02  0.38606630152E+02 -0.26204232768E+03  0.26864686958E+03  0.10000000000E+01 0.  0.
<mgrwt>
<rscale>  0 0.12499713E+03</rscale>
<asrwt>0</asrwt>
<pdfrwt beam="1">  1        4 0.12504349E-02 0.12499713E+03</pdfrwt>
<pdfrwt beam="2">  1       -4 0.19523561E+00 0.12499713E+03</pdfrwt>
<totfact> 0.53737536E+02</totfact>
</mgrwt>
</event>
<event>
 4    1  0.1423270E-002  0.1248591E+03  0.7818608E-02  0.1235290E+00
          4   -1    0    0  501    0  0.00000000000E+00  0.00000000000E+00  0.97216374791E+02  0.97224669850E+02  0.12700000000E+01 0.  1.
         -4   -1    0    0    0  501 -0.00000000000E+00 -0.00000000000E+00 -0.40070359525E+02  0.40090480322E+02  0.12700000000E+01 0.  1.
    9000005    1    1    2    0    0  0.59393762855E+01 -0.52811404154E+02  0.64582846505E+02  0.83643676760E+02  0.10000000000E+01 0.  0.
    9000005    1    1    2    0    0 -0.59393762855E+01  0.52811404154E+02 -0.74368312383E+01  0.53671473412E+02  0.10000000000E+01 0.  0.
<mgrwt>
<rscale>  0 0.12485905E+03</rscale>
<asrwt>0</asrwt>
<pdfrwt beam="1">  1        4 0.24307645E-01 0.12485905E+03</pdfrwt>
<pdfrwt beam="2">  1       -4 0.10021142E-01 0.12485905E+03</pdfrwt>
<totfact> 0.19241738E+03</totfact>
</mgrwt>
</event>
<event>
 5    1  0.1423270E-002  0.1249992E+03  0.7818608E-02  0.1235070E+00
         -4   -1    0    0    0  501 -0.00000000000E+00  0.00000000000E+00  0.17195283205E+03  0.17195752193E+03  0.12700000000E+01 0.  1.
          4   -1    0    0  501    0  0.00000000000E+00 -0.00000000000E+00 -0.22693955890E+02  0.22729464004E+02  0.12700000000E+01 0.  1.
         25    2    1    2    0    0  0.00000000000E+00  0.00000000000E+00  0.14925887616E+03  0.19468698594E+03  0.12499924152E+03 0.  0.
    9000005    1    3    3    0    0  0.36897278295E+02 -0.23054292903E+02  0.14449693028E+03  0.15090815892E+03  0.10000000000E+01 0.  0.
    9000005    1    3    3    0    0 -0.36897278295E+02  0.23054292903E+02  0.47619458778E+01  0.43778827022E+02  0.10000000000E+01 0.  0.
<mgrwt>
<rscale>  0 0.12499924E+03</rscale>
<asrwt>0</asrwt>
<pdfrwt beam="2">  1        4 0.56785138E-02 0.12499924E+03</pdfrwt>
<pdfrwt beam="1">  1       -4 0.42993232E-01 0.12499924E+03</pdfrwt>
<totfact> 0.16537307E+03</totfact>
</mgrwt>
</event>
<event>
 5    1  0.1423270E-002  0.1250027E+03  0.7818608E-02  0.1235065E+00
         -4   -1    0    0    0  501 -0.00000000000E+00  0.00000000000E+00  0.66576824294E+02  0.66588936266E+02  0.12700000000E+01 0.  1.
          4   -1    0    0  501    0  0.00000000000E+00 -0.00000000000E+00 -0.58651070900E+02  0.58664819250E+02  0.12700000000E+01 0.  1.
         25    2    1    2    0    0  0.00000000000E+00  0.00000000000E+00  0.79257533943E+01  0.12525375552E+03  0.12500274279E+03 0.  0.
    9000005    1    3    3    0    0  0.46946855033E+02  0.39957534568E+02 -0.62953400149E+01  0.61977762723E+02  0.10000000000E+01 0.  0.
    9000005    1    3    3    0    0 -0.46946855033E+02 -0.39957534568E+02  0.14221093409E+02  0.63275992794E+02  0.10000000000E+01 0.  0.
<mgrwt>
<rscale>  0 0.12500274E+03</rscale>
<asrwt>0</asrwt>
<pdfrwt beam="2">  1        4 0.14666000E-01 0.12500274E+03</pdfrwt>
<pdfrwt beam="1">  1       -4 0.16647439E-01 0.12500274E+03</pdfrwt>
<totfact> 0.19820028E+03</totfact>
</mgrwt>
</event>
<event>
 5    1  0.1423270E-002  0.1250013E+03  0.7818608E-02  0.1235067E+00
          4   -1    0    0  501    0  0.00000000000E+00  0.00000000000E+00  0.19909752828E+02  0.19950216983E+02  0.12700000000E+01 0.  1.
         -4   -1    0    0    0  501 -0.00000000000E+00 -0.00000000000E+00 -0.19596020558E+03  0.19596432092E+03  0.12700000000E+01 0.  1.
         25    2    1    2    0    0  0.00000000000E+00  0.00000000000E+00 -0.17605045275E+03  0.21591453790E+03  0.12500130304E+03 0.  0.
    9000005    1    3    3    0    0  0.53413445433E+02  0.32378797537E+02 -0.84592828941E+02  0.10515859162E+03  0.10000000000E+01 0.  0.
    9000005    1    3    3    0    0 -0.53413445433E+02 -0.32378797537E+02 -0.91457623813E+02  0.11075594628E+03  0.10000000000E+01 0.  0.
<mgrwt>
<rscale>  0 0.12500130E+03</rscale>
<asrwt>0</asrwt>
<pdfrwt beam="1">  1        4 0.49830112E-02 0.12500130E+03</pdfrwt>
<pdfrwt beam="2">  1       -4 0.48995618E-01 0.12500130E+03</pdfrwt>
<totfact> 0.15703556E+03</totfact>
</mgrwt>
</event>
<event>
 5    1  0.1423270E-002  0.1250085E+03  0.7818608E-02  0.1235056E+00
          4   -1    0    0  501    0  0.00000000000E+00  0.00000000000E+00  0.24619801491E+03  0.24620129051E+03  0.12700000000E+01 0. -1.
         -4   -1    0    0    0  501 -0.00000000000E+00 -0.00000000000E+00 -0.15839645436E+02  0.15890477259E+02  0.12700000000E+01 0. -1.
         25    2    1    2    0    0  0.00000000000E+00  0.00000000000E+00  0.23035836948E+03  0.26209176777E+03  0.12500846508E+03 0.  0.
    9000005    1    3    3    0    0 -0.38328619522E+02  0.31251750177E+02  0.19529052046E+03  0.20145754477E+03  0.10000000000E+01 0.  0.
    9000005    1    3    3    0    0  0.38328619522E+02 -0.31251750177E+02  0.35067849019E+02  0.60634222996E+02  0.10000000000E+01 0.  0.
<mgrwt>
<rscale>  0 0.12500847E+03</rscale>
<asrwt>0</asrwt>
<pdfrwt beam="1">  1        4 0.61556266E-01 0.12500847E+03</pdfrwt>
<pdfrwt beam="2">  1       -4 0.39666749E-02 0.12500847E+03</pdfrwt>
<totfact> 0.14101485E+03</totfact>
</mgrwt>
</event>
<event>
 5    1  0.1423270E-002  0.1249968E+03  0.7818608E-02  0.1235074E+00
          4   -1    0    0  501    0  0.00000000000E+00  0.00000000000E+00  0.16553369607E+03  0.16553856781E+03  0.12700000000E+01 0. -1.
         -4   -1    0    0    0  501 -0.00000000000E+00 -0.00000000000E+00 -0.23574385908E+02  0.23608569862E+02  0.12700000000E+01 0. -1.
         25    2    1    2    0    0  0.00000000000E+00  0.00000000000E+00  0.14195931016E+03  0.18914713768E+03  0.12499677576E+03 0.  0.
    9000005    1    3    3    0    0  0.17233978523E+02 -0.18923839844E+02 -0.15285965251E+02  0.29829221643E+02  0.10000000000E+01 0.  0.
    9000005    1    3    3    0    0 -0.17233978523E+02  0.18923839844E+02  0.15724527541E+03  0.15931791603E+03  0.10000000000E+01 0.  0.
<mgrwt>
<rscale>  0 0.12499678E+03</rscale>
<asrwt>0</asrwt>
<pdfrwt beam="1">  1        4 0.41388305E-01 0.12499678E+03</pdfrwt>
<pdfrwt beam="2">  1       -4 0.58984786E-02 0.12499678E+03</pdfrwt>
<totfact> 0.16767285E+03</totfact>
</mgrwt>
</event>
<event>
 4    1  0.1423270E-002  0.1265422E+03  0.7818608E-02  0.1232679E+00
          4   -1    0    0  501    0  0.00000000000E+00  0.00000000000E+00  0.24780144864E+02  0.24812667722E+02  0.12700000000E+01 0.  1.
         -4   -1    0    0    0  501 -0.00000000000E+00 -0.00000000000E+00 -0.16140900066E+03  0.16141399690E+03  0.12700000000E+01 0.  1.
    9000005    1    1    2    0    0  0.46149542766E+01  0.28529520019E+02  0.14504682714E+02  0.32351462658E+02  0.10000000000E+01 0.  0.
    9000005    1    1    2    0    0 -0.46149542766E+01 -0.28529520019E+02 -0.15113353852E+03  0.15387520196E+03  0.10000000000E+01 0.  0.
<mgrwt>
<rscale>  0 0.12654219E+03</rscale>
<asrwt>0</asrwt>
<pdfrwt beam="1">  1        4 0.61997266E-02 0.12654219E+03</pdfrwt>
<pdfrwt beam="2">  1       -4 0.40356937E-01 0.12654219E+03</pdfrwt>
<totfact> 0.16299328E+03</totfact>
</mgrwt>
</event>
<event>
 5    1  0.1423270E-002  0.1249944E+03  0.7818608E-02  0.1235078E+00
         -4   -1    0    0    0  501 -0.00000000000E+00  0.00000000000E+00  0.26277547260E+02  0.26308219058E+02  0.12700000000E+01 0.  1.
          4   -1    0    0  501    0  0.00000000000E+00 -0.00000000000E+00 -0.14852006504E+03  0.14852549484E+03  0.12700000000E+01 0.  1.
         25    2    1    2    0    0  0.00000000000E+00  0.00000000000E+00 -0.12224251778E+03  0.17483371390E+03  0.12499437733E+03 0.  0.
    9000005    1    3    3    0    0  0.38649046155E+02 -0.99436195719E+01 -0.12838087393E+03  0.13444431238E+03  0.10000000000E+01 0.  0.
    9000005    1    3    3    0    0 -0.38649046155E+02  0.99436195719E+01  0.61383561584E+01  0.40389401521E+02  0.10000000000E+01 0.  0.
<mgrwt>
<rscale>  0 0.12499438E+03</rscale>
<asrwt>0</asrwt>
<pdfrwt beam="2">  1        4 0.37134527E-01 0.12499438E+03</pdfrwt>
<pdfrwt beam="1">  1       -4 0.65738999E-02 0.12499438E+03</pdfrwt>
<totfact> 0.17383472E+03</totfact>
</mgrwt>
</event>
<event>
 5    1  0.1423270E-002  0.1250022E+03  0.7818608E-02  0.1235066E+00
          4   -1    0    0  501    0  0.00000000000E+00  0.00000000000E+00  0.10316145093E+03  0.10316926799E+03  0.12700000000E+01 0.  1.
         -4   -1    0    0    0  501 -0.00000000000E+00 -0.00000000000E+00 -0.37846855719E+02  0.37868157967E+02  0.12700000000E+01 0.  1.
         25    2    1    2    0    0  0.00000000000E+00  0.00000000000E+00  0.65314595213E+02  0.14103742596E+03  0.12500223667E+03 0.  0.
    9000005    1    3    3    0    0 -0.26495448808E+02 -0.28332362453E+01  0.96436056265E+02  0.10005472994E+03  0.10000000000E+01 0.  0.
    9000005    1    3    3    0    0  0.26495448808E+02  0.28332362453E+01 -0.31121461052E+02  0.40982696021E+02  0.10000000000E+01 0.  0.
<mgrwt>
<rscale>  0 0.12500224E+03</rscale>
<asrwt>0</asrwt>
<pdfrwt beam="1">  1        4 0.25794002E-01 0.12500224E+03</pdfrwt>
<pdfrwt beam="2">  1       -4 0.94653539E-02 0.12500224E+03</pdfrwt>
<totfact> 0.18986404E+03</totfact>
</mgrwt>
</event>
<event>
 5    1  0.1423270E-002  0.1250015E+03  0.7818608E-02  0.1235067E+00
         -4   -1    0    0    0  501 -0.00000000000E+00  0.00000000000E+00  0.55229860201E+03  0.55230006218E+03  0.12700000000E+01 0. -1.
          4   -1    0    0  501    0  0.00000000000E+00 -0.00000000000E+00 -0.70143893422E+01  0.71284330567E+01  0.12700000000E+01 0. -1.
         25    2    1    2    0    0  0.00000000000E+00  0.00000000000E+00  0.54528421267E+03  0.55942849524E+03  0.12500147478E+03 0.  0.
    9000005    1    3    3    0    0 -0.11001090704E+01  0.62412789729E+02  0.25938440712E+03  0.26679174878E+03  0.10000000000E+01 0.  0.
    9000005    1    3    3    0    0  0.11001090704E+01 -0.62412789729E+02  0.28589980556E+03  0.29263674646E+03  0.10000000000E+01 0.  0.
<mgrwt>
<rscale>  0 0.12500147E+03</rscale>
<asrwt>0</asrwt>
<pdfrwt beam="2">  1        4 0.17680353E-02 0.12500147E+03</pdfrwt>
<pdfrwt beam="1">  1       -4 0.13808909E+00 0.12500147E+03</pdfrwt>
<totfact> 0.78853923E+02</totfact>
</mgrwt>
</event>
<event>
 5    1  0.1423270E-002  0.1249969E+03  0.7818608E-02  0.1235074E+00
         -4   -1    0    0    0  501 -0.00000000000E+00  0.00000000000E+00  0.11167421791E+02  0.11239404320E+02  0.12700000000E+01 0.  1.
          4   -1    0    0  501    0  0.00000000000E+00 -0.00000000000E+00 -0.34857566144E+03  0.34857797499E+03  0.12700000000E+01 0.  1.
         25    2    1    2    0    0  0.00000000000E+00  0.00000000000E+00 -0.33740823965E+03  0.35981737931E+03  0.12499690505E+03 0.  0.
    9000005    1    3    3    0    0 -0.37239859677E+02  0.10457576818E+02 -0.30998754851E+03  0.31239309899E+03  0.10000000000E+01 0.  0.
    9000005    1    3    3    0    0  0.37239859677E+02 -0.10457576818E+02 -0.27420691131E+02  0.47424280319E+02  0.10000000000E+01 0.  0.
<mgrwt>
<rscale>  0 0.12499691E+03</rscale>
<asrwt>0</asrwt>
<pdfrwt beam="2">  1        4 0.87153166E-01 0.12499691E+03</pdfrwt>
<pdfrwt beam="1">  1       -4 0.28011436E-02 0.12499691E+03</pdfrwt>
<totfact> 0.11447435E+03</totfact>
</mgrwt>
</event>
<event>
 5    1  0.1423270E-002  0.1250014E+03  0.7818608E-02  0.1235067E+00
          4   -1    0    0  501    0  0.00000000000E+00  0.00000000000E+00  0.70302619591E+01  0.71440522963E+01  0.12700000000E+01 0. -1.
         -4   -1    0    0    0  501 -0.00000000000E+00 -0.00000000000E+00 -0.55107087103E+03  0.55107233445E+03  0.12700000000E+01 0. -1.
         25    2    1    2    0    0  0.00000000000E+00  0.00000000000E+00 -0.54404060907E+03  0.55821638674E+03  0.12500140045E+03 0.  0.
    9000005    1    3    3    0    0  0.17662105864E+02 -0.56502228807E+02 -0.18260785828E+03  0.19196635578E+03  0.10000000000E+01 0.  0.
    9000005    1    3    3    0    0 -0.17662105864E+02  0.56502228807E+02 -0.36143275079E+03  0.36625003097E+03  0.10000000000E+01 0.  0.
<mgrwt>
<rscale>  0 0.12500140E+03</rscale>
<asrwt>0</asrwt>
<pdfrwt beam="1">  1        4 0.17719741E-02 0.12500140E+03</pdfrwt>
<pdfrwt beam="2">  1       -4 0.13778198E+00 0.12500140E+03</pdfrwt>
<totfact> 0.79022052E+02</totfact>
</mgrwt>
</event>
<event>
 5    1  0.1423270E-002  0.1249908E+03  0.7818608E-02  0.1235084E+00
          4   -1    0    0  501    0  0.00000000000E+00  0.00000000000E+00  0.36061582892E+02  0.36083939096E+02  0.12700000000E+01 0. -1.
         -4   -1    0    0    0  501 -0.00000000000E+00 -0.00000000000E+00 -0.10824611852E+03  0.10825356841E+03  0.12700000000E+01 0. -1.
         25    2    1    2    0    0  0.00000000000E+00  0.00000000000E+00 -0.72184535623E+02  0.14433750751E+03  0.12499083522E+03 0.  0.
    9000005    1    3    3    0    0 -0.10124412529E+01  0.58560256979E+02 -0.10941584345E+02  0.59590662043E+02  0.10000000000E+01 0.  0.
    9000005    1    3    3    0    0  0.10124412529E+01 -0.58560256979E+02 -0.61242951278E+02  0.84746845463E+02  0.10000000000E+01 0.  0.
<mgrwt>
<rscale>  0 0.12499084E+03</rscale>
<asrwt>0</asrwt>
<pdfrwt beam="1">  1        4 0.90191217E-02 0.12499084E+03</pdfrwt>
<pdfrwt beam="2">  1       -4 0.27065255E-01 0.12499084E+03</pdfrwt>
<totfact> 0.18824617E+03</totfact>
</mgrwt>
</event>
<event>
 5    1  0.1423270E-002  0.1249987E+03  0.7818608E-02  0.1235071E+00
         -4   -1    0    0    0  501 -0.00000000000E+00  0.00000000000E+00  0.54715024795E+02  0.54729761906E+02  0.12700000000E+01 0.  1.
          4   -1    0    0  501    0  0.00000000000E+00 -0.00000000000E+00 -0.71361202416E+02  0.71372502480E+02  0.12700000000E+01 0.  1.
         25    2    1    2    0    0  0.00000000000E+00  0.00000000000E+00 -0.16646177622E+02  0.12610226439E+03  0.12499874341E+03 0.  0.
    9000005    1    3    3    0    0  0.38095144965E+02  0.18340005135E+02 -0.54746462735E+02  0.69179267416E+02  0.10000000000E+01 0.  0.
    9000005    1    3    3    0    0 -0.38095144965E+02 -0.18340005135E+02  0.38100285114E+02  0.56922996970E+02  0.10000000000E+01 0.  0.
<mgrwt>
<rscale>  0 0.12499874E+03</rscale>
<asrwt>0</asrwt>
<pdfrwt beam="2">  1        4 0.17843555E-01 0.12499874E+03</pdfrwt>
<pdfrwt beam="1">  1       -4 0.13682011E-01 0.12499874E+03</pdfrwt>
<totfact> 0.19775976E+03</totfact>
</mgrwt>
</event>
<event>
 5    1  0.1423270E-002  0.1250022E+03  0.7818608E-02  0.1235066E+00
         -4   -1    0    0    0  501 -0.00000000000E+00  0.00000000000E+00  0.12211270428E+02  0.12277134253E+02  0.12700000000E+01 0. -1.
          4   -1    0    0  501    0  0.00000000000E+00 -0.00000000000E+00 -0.31897252487E+03  0.31897505314E+03  0.12700000000E+01 0. -1.
         25    2    1    2    0    0  0.00000000000E+00  0.00000000000E+00 -0.30676125445E+03  0.33125218739E+03  0.12500217767E+03 0.  0.
    9000005    1    3    3    0    0  0.69708798883E+01  0.58953264202E+02 -0.10163451147E+03  0.11770579616E+03  0.10000000000E+01 0.  0.
    9000005    1    3    3    0    0 -0.69708798883E+01 -0.58953264202E+02 -0.20512674297E+03  0.21354639123E+03  0.10000000000E+01 0.  0.
<mgrwt>
<rscale>  0 0.12500218E+03</rscale>
<asrwt>0</asrwt>
<pdfrwt beam="2">  1        4 0.79751653E-01 0.12500218E+03</pdfrwt>
<pdfrwt beam="1">  1       -4 0.30613677E-02 0.12500218E+03</pdfrwt>
<totfact> 0.12137650E+03</totfact>
</mgrwt>
</event>
<event>
 5    1  0.1423270E-002  0.1250000E+03  0.7818608E-02  0.1235069E+00
          4   -1    0    0  501    0  0.00000000000E+00  0.00000000000E+00  0.91545056570E+02  0.91553865470E+02  0.12700000000E+01 0.  1.
         -4   -1    0    0    0  501 -0.00000000000E+00 -0.00000000000E+00 -0.42649958506E+02  0.42668862893E+02  0.12700000000E+01 0.  1.
         25    2    1    2    0    0  0.00000000000E+00  0.00000000000E+00  0.48895098065E+02  0.13422272836E+03  0.12500004078E+03 0.  0.
    9000005    1    3    3    0    0 -0.36124932397E+01  0.53980891062E+02 -0.91373736234E+01  0.54876937816E+02  0.10000000000E+01 0.  0.
    9000005    1    3    3    0    0  0.36124932397E+01 -0.53980891062E+02  0.58032471688E+02  0.79345790547E+02  0.10000000000E+01 0.  0.
<mgrwt>
<rscale>  0 0.12500004E+03</rscale>
<asrwt>0</asrwt>
<pdfrwt beam="1">  1        4 0.22889728E-01 0.12500004E+03</pdfrwt>
<pdfrwt beam="2">  1       -4 0.10665954E-01 0.12500004E+03</pdfrwt>
<totfact> 0.19339909E+03</totfact>
</mgrwt>
</event>
<event>
 5    1  0.1423270E-002  0.1249986E+03  0.7818608E-02  0.1235072E+00
         -4   -1    0    0    0  501 -0.00000000000E+00  0.00000000000E+00  0.12852991488E+02  0.12915583231E+02  0.12700000000E+01 0.  1.
          4   -1    0    0  501    0  0.00000000000E+00 -0.00000000000E+00 -0.30310848731E+03  0.30311114790E+03  0.12700000000E+01 0.  1.
         25    2    1    2    0    0  0.00000000000E+00  0.00000000000E+00 -0.29025549582E+03  0.31602673113E+03  0.12499856772E+03 0.  0.
    9000005    1    3    3    0    0  0.17466802000E+02  0.49150338127E+02 -0.58121086923E+02  0.78101892776E+02  0.10000000000E+01 0.  0.
    9000005    1    3    3    0    0 -0.17466802000E+02 -0.49150338127E+02 -0.23213440890E+03  0.23792483835E+03  0.10000000000E+01 0.  0.
<mgrwt>
<rscale>  0 0.12499857E+03</rscale>
<asrwt>0</asrwt>
<pdfrwt beam="2">  1        4 0.75785255E-01 0.12499857E+03</pdfrwt>
<pdfrwt beam="1">  1       -4 0.32214054E-02 0.12499857E+03</pdfrwt>
<totfact> 0.12533887E+03</totfact>
</mgrwt>
</event>
<event>
 5    1  0.1423270E-002  0.1249988E+03  0.7818608E-02  0.1235071E+00
          4   -1    0    0  501    0  0.00000000000E+00  0.00000000000E+00  0.22048423394E+02  0.22084969417E+02  0.12700000000E+01 0.  1.
         -4   -1    0    0    0  501 -0.00000000000E+00 -0.00000000000E+00 -0.17697782383E+03  0.17698238055E+03  0.12700000000E+01 0.  1.
         25    2    1    2    0    0  0.00000000000E+00  0.00000000000E+00 -0.15492940043E+03  0.19906734997E+03  0.12499876282E+03 0.  0.
    9000005    1    3    3    0    0 -0.48746063468E+02 -0.28346819805E+02 -0.34570497910E+02  0.66150133956E+02  0.10000000000E+01 0.  0.
    9000005    1    3    3    0    0  0.48746063468E+02  0.28346819805E+02 -0.12035890252E+03  0.13291721602E+03  0.10000000000E+01 0.  0.
<mgrwt>
<rscale>  0 0.12499876E+03</rscale>
<asrwt>0</asrwt>
<pdfrwt beam="1">  1        4 0.55172442E-02 0.12499876E+03</pdfrwt>
<pdfrwt beam="2">  1       -4 0.44249589E-01 0.12499876E+03</pdfrwt>
<totfact> 0.16359922E+03</totfact>
</mgrwt>
</event>
<event>
 5    1  0.1423270E-002  0.1249980E+03  0.7818608E-02  0.1235072E+00
         -4   -1    0    0    0  501 -0.00000000000E+00  0.00000000000E+00  0.54197938059E+01  0.55666026352E+01  0.12700000000E+01 0.  1.
          4   -1    0    0  501    0  0.00000000000E+00 -0.00000000000E+00 -0.71093612935E+03  0.71093726370E+03  0.12700000000E+01 0.  1.
         25    2    1    2    0    0  0.00000000000E+00  0.00000000000E+00 -0.70551633554E+03  0.71650386633E+03  0.12499796299E+03 0.  0.
    9000005    1    3    3    0    0  0.58565854279E+02 -0.67311431636E+01 -0.47160200084E+03  0.47527330534E+03  0.10000000000E+01 0.  0.
    9000005    1    3    3    0    0 -0.58565854279E+02  0.67311431636E+01 -0.23391433471E+03  0.24123056099E+03  0.10000000000E+01 0.  0.
<mgrwt>
<rscale>  0 0.12499796E+03</rscale>
<asrwt>0</asrwt>
<pdfrwt beam="2">  1        4 0.17775221E+00 0.12499796E+03</pdfrwt>
<pdfrwt beam="1">  1       -4 0.13734438E-02 0.12499796E+03</pdfrwt>
<totfact> 0.60369782E+02</totfact>
</mgrwt>
</event>
<event>
 5    1  0.1423270E-002  0.1250003E+03  0.7818608E-02  0.1235069E+00
         -4   -1    0    0    0  501 -0.00000000000E+00  0.00000000000E+00  0.51525071703E+02  0.51540720930E+02  0.12700000000E+01 0. -1.
          4   -1    0    0  501    0  0.00000000000E+00 -0.00000000000E+00 -0.75780492299E+02  0.75791133472E+02  0.12700000000E+01 0. -1.
         25    2    1    2    0    0  0.00000000000E+00  0.00000000000E+00 -0.24255420596E+02  0.12733185440E+03  0.12500030287E+03 0.  0.
    9000005    1    3    3    0    0 -0.52267470299E+02 -0.33687126875E+02 -0.18453037953E+02  0.64870837657E+02  0.10000000000E+01 0.  0.
    9000005    1    3    3    0    0  0.52267470299E+02  0.33687126875E+02 -0.58023826433E+01  0.62461016746E+02  0.10000000000E+01 0.  0.
<mgrwt>
<rscale>  0 0.12500030E+03</rscale>
<asrwt>0</asrwt>
<pdfrwt beam="2">  1        4 0.18948409E-01 0.12500030E+03</pdfrwt>
<pdfrwt beam="1">  1       -4 0.12884554E-01 0.12500030E+03</pdfrwt>
<totfact> 0.19708830E+03</totfact>
</mgrwt>
</event>
<event>
 5    1  0.1423270E-002  0.1250057E+03  0.7818608E-02  0.1235060E+00
         -4   -1    0    0    0  501 -0.00000000000E+00  0.00000000000E+00  0.47136810745E+02  0.47153916351E+02  0.12700000000E+01 0. -1.
          4   -1    0    0  501    0  0.00000000000E+00 -0.00000000000E+00 -0.82841034400E+02  0.82850768738E+02  0.12700000000E+01 0. -1.
         25    2    1    2    0    0  0.00000000000E+00  0.00000000000E+00 -0.35704223655E+02  0.13000468509E+03  0.12500570610E+03 0.  0.
    9000005    1    3    3    0    0 -0.41844595765E+02 -0.28224621023E+02  0.20472715284E+02  0.54476889575E+02  0.10000000000E+01 0.  0.
    9000005    1    3    3    0    0  0.41844595765E+02  0.28224621023E+02 -0.56176938939E+02  0.75527795514E+02  0.10000000000E+01 0.  0.
<mgrwt>
<rscale>  0 0.12500571E+03</rscale>
<asrwt>0</asrwt>
<pdfrwt beam="2">  1        4 0.20713613E-01 0.12500571E+03</pdfrwt>
<pdfrwt beam="1">  1       -4 0.11787558E-01 0.12500571E+03</pdfrwt>
<totfact> 0.19561525E+03</totfact>
</mgrwt>
</event>
<event>
 5    1  0.1423270E-002  0.1250033E+03  0.7818608E-02  0.1235064E+00
         -4   -1    0    0    0  501 -0.00000000000E+00  0.00000000000E+00  0.33802674453E+02  0.33826523619E+02  0.12700000000E+01 0.  1.
          4   -1    0    0  501    0  0.00000000000E+00 -0.00000000000E+00 -0.11549831639E+03  0.11550529853E+03  0.12700000000E+01 0.  1.
         25    2    1    2    0    0  0.00000000000E+00  0.00000000000E+00 -0.81695641936E+02  0.14933182215E+03  0.12500326074E+03 0.  0.
    9000005    1    3    3    0    0  0.46280914426E+02 -0.36524623197E+02 -0.65605152884E+02  0.88210017712E+02  0.10000000000E+01 0.  0.
    9000005    1    3    3    0    0 -0.46280914426E+02  0.36524623197E+02 -0.16090489052E+02  0.61121804438E+02  0.10000000000E+01 0.  0.
<mgrwt>
<rscale>  0 0.12500326E+03</rscale>
<asrwt>0</asrwt>
<pdfrwt beam="2">  1        4 0.28878432E-01 0.12500326E+03</pdfrwt>
<pdfrwt beam="1">  1       -4 0.84545228E-02 0.12500326E+03</pdfrwt>
<totfact> 0.18570275E+03</totfact>
</mgrwt>
</event>
<event>
 5    1  0.1423270E-002  0.1249812E+03  0.7818608E-02  0.1235099E+00
          4   -1    0    0  501    0  0.00000000000E+00  0.00000000000E+00  0.73699137464E+02  0.73710079114E+02  0.12700000000E+01 0. -1.
         -4   -1    0    0    0  501 -0.00000000000E+00 -0.00000000000E+00 -0.52964195618E+02  0.52979419754E+02  0.12700000000E+01 0. -1.
         25    2    1    2    0    0  0.00000000000E+00  0.00000000000E+00  0.20734941847E+02  0.12668949887E+03  0.12498116382E+03 0.  0.
    9000005    1    3    3    0    0 -0.46908553985E+02  0.85102332348E+01 -0.30573156608E+02  0.56644103061E+02  0.10000000000E+01 0.  0.
    9000005    1    3    3    0    0  0.46908553985E+02 -0.85102332348E+01  0.51308098454E+02  0.70045395806E+02  0.10000000000E+01 0.  0.
<mgrwt>
<rscale>  0 0.12498116E+03</rscale>
<asrwt>0</asrwt>
<pdfrwt beam="1">  1        4 0.18428055E-01 0.12498116E+03</pdfrwt>
<pdfrwt beam="2">  1       -4 0.13244320E-01 0.12498116E+03</pdfrwt>
<totfact> 0.19752406E+03</totfact>
</mgrwt>
</event>
<event>
 5    1  0.1423270E-002  0.1250011E+03  0.7818608E-02  0.1235068E+00
         -4   -1    0    0    0  501 -0.00000000000E+00  0.00000000000E+00  0.51546857140E+02  0.51562499755E+02  0.12700000000E+01 0. -1.
          4   -1    0    0  501    0  0.00000000000E+00 -0.00000000000E+00 -0.75749461802E+02  0.75760107334E+02  0.12700000000E+01 0. -1.
         25    2    1    2    0    0  0.00000000000E+00  0.00000000000E+00 -0.24202604662E+02  0.12732260709E+03  0.12500112081E+03 0.  0.
    9000005    1    3    3    0    0  0.51881369806E+00 -0.15183322461E+02  0.49642274077E+02  0.51924539710E+02  0.10000000000E+01 0.  0.
    9000005    1    3    3    0    0 -0.51881369806E+00  0.15183322461E+02 -0.73844878738E+02  0.75398067379E+02  0.10000000000E+01 0.  0.
<mgrwt>
<rscale>  0 0.12500112E+03</rscale>
<asrwt>0</asrwt>
<pdfrwt beam="2">  1        4 0.18940651E-01 0.12500112E+03</pdfrwt>
<pdfrwt beam="1">  1       -4 0.12890000E-01 0.12500112E+03</pdfrwt>
<totfact> 0.19708960E+03</totfact>
</mgrwt>
</event>
<event>
 4    1  0.1423270E-002  0.1249265E+03  0.7818608E-02  0.1235184E+00
         -4   -1    0    0    0  501 -0.00000000000E+00  0.00000000000E+00  0.12363189303E+03  0.12363841585E+03  0.12700000000E+01 0.  1.
          4   -1    0    0  501    0  0.00000000000E+00 -0.00000000000E+00 -0.31538549264E+02  0.31564109202E+02  0.12700000000E+01 0.  1.
    9000005    1    1    2    0    0 -0.14181628263E+02 -0.26429862174E+02 -0.22011040749E+02  0.37217497358E+02  0.10000000000E+01 0.  0.
    9000005    1    1    2    0    0  0.14181628263E+02  0.26429862174E+02  0.11410438451E+03  0.11798502769E+03  0.10000000000E+01 0.  0.
<mgrwt>
<rscale>  0 0.12492654E+03</rscale>
<asrwt>0</asrwt>
<pdfrwt beam="2">  1        4 0.78886478E-02 0.12492654E+03</pdfrwt>
<pdfrwt beam="1">  1       -4 0.30911983E-01 0.12492654E+03</pdfrwt>
<totfact> 0.18317171E+03</totfact>
</mgrwt>
</event>
<event>
 5    1  0.1423270E-002  0.1249996E+03  0.7818608E-02  0.1235070E+00
          4   -1    0    0  501    0  0.00000000000E+00  0.00000000000E+00  0.88759361900E+02  0.88768447237E+02  0.12700000000E+01 0.  1.
         -4   -1    0    0    0  501 -0.00000000000E+00 -0.00000000000E+00 -0.43988681826E+02  0.44007011133E+02  0.12700000000E+01 0.  1.
         25    2    1    2    0    0  0.00000000000E+00  0.00000000000E+00  0.44770680073E+02  0.13277545837E+03  0.12499963420E+03 0.  0.
    9000005    1    3    3    0    0 -0.56190204608E+02  0.53961981036E+01  0.50862964813E+02  0.75990125921E+02  0.10000000000E+01 0.  0.
    9000005    1    3    3    0    0  0.56190204608E+02 -0.53961981036E+01 -0.60922847397E+01  0.56785332448E+02  0.10000000000E+01 0.  0.
<mgrwt>
<rscale>  0 0.12499963E+03</rscale>
<asrwt>0</asrwt>
<pdfrwt beam="1">  1        4 0.22193267E-01 0.12499963E+03</pdfrwt>
<pdfrwt beam="2">  1       -4 0.11000597E-01 0.12499963E+03</pdfrwt>
<totfact> 0.19416466E+03</totfact>
</mgrwt>
</event>
<event>
 5    1  0.1423270E-002  0.1249999E+03  0.7818608E-02  0.1235069E+00
          4   -1    0    0  501    0  0.00000000000E+00  0.00000000000E+00  0.72855775138E+02  0.72866843427E+02  0.12700000000E+01 0.  1.
         -4   -1    0    0    0  501 -0.00000000000E+00 -0.00000000000E+00 -0.53593436942E+02  0.53608482381E+02  0.12700000000E+01 0.  1.
         25    2    1    2    0    0  0.00000000000E+00  0.00000000000E+00  0.19262338197E+02  0.12647532581E+03  0.12499988146E+03 0.  0.
    9000005    1    3    3    0    0  0.50080931234E+02 -0.35016844539E+02  0.22860806066E+02  0.65252551894E+02  0.10000000000E+01 0.  0.
    9000005    1    3    3    0    0 -0.50080931234E+02  0.35016844539E+02 -0.35984678692E+01  0.61222773914E+02  0.10000000000E+01 0.  0.
<mgrwt>
<rscale>  0 0.12499988E+03</rscale>
<asrwt>0</asrwt>
<pdfrwt beam="1">  1        4 0.18217208E-01 0.12499988E+03</pdfrwt>
<pdfrwt beam="2">  1       -4 0.13401623E-01 0.12499988E+03</pdfrwt>
<totfact> 0.19755311E+03</totfact>
</mgrwt>
</event>
<event>
 5    1  0.1423270E-002  0.1250029E+03  0.7818608E-02  0.1235065E+00
         -4   -1    0    0    0  501 -0.00000000000E+00  0.00000000000E+00  0.38471197115E+03  0.38471406739E+03  0.12700000000E+01 0. -1.
          4   -1    0    0  501    0  0.00000000000E+00 -0.00000000000E+00 -0.10112330242E+02  0.10191767409E+02  0.12700000000E+01 0. -1.
         25    2    1    2    0    0  0.00000000000E+00  0.00000000000E+00  0.37459964091E+03  0.39490583480E+03  0.12500290952E+03 0.  0.
    9000005    1    3    3    0    0  0.16433479511E+01 -0.62438691811E+02  0.19372857822E+03  0.20355110622E+03  0.10000000000E+01 0.  0.
    9000005    1    3    3    0    0 -0.16433479511E+01  0.62438691811E+02  0.18087106270E+03  0.19135472858E+03  0.10000000000E+01 0.  0.
<mgrwt>
<rscale>  0 0.12500291E+03</rscale>
<asrwt>0</asrwt>
<pdfrwt beam="2">  1        4 0.25382744E-02 0.12500291E+03</pdfrwt>
<pdfrwt beam="1">  1       -4 0.96188180E-01 0.12500291E+03</pdfrwt>
<totfact> 0.10674181E+03</totfact>
</mgrwt>
</event>
<event>
 5    1  0.1423270E-002  0.1250001E+03  0.7818608E-02  0.1235069E+00
         -4   -1    0    0    0  501 -0.00000000000E+00  0.00000000000E+00  0.53616072303E+01  0.55099666145E+01  0.12700000000E+01 0. -1.
          4   -1    0    0  501    0  0.00000000000E+00 -0.00000000000E+00 -0.71846920398E+03  0.71847032643E+03  0.12700000000E+01 0. -1.
         25    2    1    2    0    0  0.00000000000E+00  0.00000000000E+00 -0.71310759674E+03  0.72398029304E+03  0.12500008073E+03 0.  0.
    9000005    1    3    3    0    0  0.53875420699E+02 -0.24757955743E+02 -0.24221261836E+03  0.24936613607E+03  0.10000000000E+01 0.  0.
    9000005    1    3    3    0    0 -0.53875420699E+02  0.24757955743E+02 -0.47089497839E+03  0.47461415697E+03  0.10000000000E+01 0.  0.
<mgrwt>
<rscale>  0 0.12500008E+03</rscale>
<asrwt>0</asrwt>
<pdfrwt beam="2">  1        4 0.17963566E+00 0.12500008E+03</pdfrwt>
<pdfrwt beam="1">  1       -4 0.13590895E-02 0.12500008E+03</pdfrwt>
<totfact> 0.59613755E+02</totfact>
</mgrwt>
</event>
<event>
 5    1  0.1423270E-002  0.1249981E+03  0.7818608E-02  0.1235072E+00
          4   -1    0    0  501    0  0.00000000000E+00  0.00000000000E+00  0.69289152542E+02  0.69300790472E+02  0.12700000000E+01 0.  1.
         -4   -1    0    0    0  501 -0.00000000000E+00 -0.00000000000E+00 -0.56350867220E+02  0.56365176629E+02  0.12700000000E+01 0.  1.
         25    2    1    2    0    0  0.00000000000E+00  0.00000000000E+00  0.12938285322E+02  0.12566596710E+03  0.12499814423E+03 0.  0.
    9000005    1    3    3    0    0  0.39510600189E+02  0.32292709198E+02  0.42734396005E+02  0.66566772466E+02  0.10000000000E+01 0.  0.
    9000005    1    3    3    0    0 -0.39510600189E+02 -0.32292709198E+02 -0.29796110683E+02  0.59099194635E+02  0.10000000000E+01 0.  0.
<mgrwt>
<rscale>  0 0.12499814E+03</rscale>
<asrwt>0</asrwt>
<pdfrwt beam="1">  1        4 0.17325532E-01 0.12499814E+03</pdfrwt>
<pdfrwt beam="2">  1       -4 0.14090960E-01 0.12499814E+03</pdfrwt>
<totfact> 0.19799841E+03</totfact>
</mgrwt>
</event>
<event>
 4    1  0.1423270E-002  0.1210437E+03  0.7818608E-02  0.1241385E+00
          4   -1    0    0  501    0  0.00000000000E+00  0.00000000000E+00  0.53687928337E+01  0.55169589895E+01  0.12700000000E+01 0.  1.
         -4   -1    0    0    0  501 -0.00000000000E+00 -0.00000000000E+00 -0.67282136558E+03  0.67282256419E+03  0.12700000000E+01 0.  1.
    9000005    1    1    2    0    0  0.42956064720E+02  0.35487273657E+02 -0.46602586032E+03  0.46934600517E+03  0.10000000000E+01 0.  0.
    9000005    1    1    2    0    0 -0.42956064720E+02 -0.35487273657E+02 -0.20142671243E+03  0.20899351801E+03  0.10000000000E+01 0.  0.
<mgrwt>
<rscale>  0 0.12104368E+03</rscale>
<asrwt>0</asrwt>
<pdfrwt beam="1">  1        4 0.13608711E-02 0.12104368E+03</pdfrwt>
<pdfrwt beam="2">  1       -4 0.16822373E+00 0.12104368E+03</pdfrwt>
<totfact> 0.70470425E+02</totfact>
</mgrwt>
</event>
<event>
 5    1  0.1423270E-002  0.1250005E+03  0.7818608E-02  0.1235068E+00
          4   -1    0    0  501    0  0.00000000000E+00  0.00000000000E+00  0.63309844643E+02  0.63322581507E+02  0.12700000000E+01 0. -1.
         -4   -1    0    0    0  501 -0.00000000000E+00 -0.00000000000E+00 -0.61675566241E+02  0.61688640536E+02  0.12700000000E+01 0. -1.
         25    2    1    2    0    0  0.00000000000E+00  0.00000000000E+00  0.16342784026E+01  0.12501122204E+03  0.12500053908E+03 0.  0.
    9000005    1    3    3    0    0 -0.14875385442E+02 -0.20586833509E+02  0.57920082765E+02  0.63252120862E+02  0.10000000000E+01 0.  0.
    9000005    1    3    3    0    0  0.14875385442E+02  0.20586833509E+02 -0.56285804362E+02  0.61759101181E+02  0.10000000000E+01 0.  0.
<mgrwt>
<rscale>  0 0.12500054E+03</rscale>
<asrwt>0</asrwt>
<pdfrwt beam="1">  1        4 0.15830688E-01 0.12500054E+03</pdfrwt>
<pdfrwt beam="2">  1       -4 0.15422118E-01 0.12500054E+03</pdfrwt>
<totfact> 0.19834197E+03</totfact>
</mgrwt>
</event>
<event>
 5    1  0.1423270E-002  0.1250202E+03  0.7818608E-02  0.1235038E+00
          4   -1    0    0  501    0  0.00000000000E+00  0.00000000000E+00  0.72741511909E+03  0.72741622774E+03  0.12700000000E+01 0. -1.
         -4   -1    0    0    0  501 -0.00000000000E+00 -0.00000000000E+00 -0.52955863566E+01  0.54457446562E+01  0.12700000000E+01 0. -1.
         25    2    1    2    0    0  0.00000000000E+00  0.00000000000E+00  0.72211953273E+03  0.73286197240E+03  0.12502020249E+03 0.  0.
    9000005    1    3    3    0    0  0.11004508730E+01  0.12146417838E+02  0.72040084967E+03  0.72050477490E+03  0.10000000000E+01 0.  0.
    9000005    1    3    3    0    0 -0.11004508730E+01 -0.12146417838E+02  0.17186830673E+01  0.12357197494E+02  0.10000000000E+01 0.  0.
<mgrwt>
<rscale>  0 0.12502020E+03</rscale>
<asrwt>0</asrwt>
<pdfrwt beam="1">  1        4 0.18187271E+00 0.12502020E+03</pdfrwt>
<pdfrwt beam="2">  1       -4 0.13428048E-02 0.12502020E+03</pdfrwt>
<totfact> 0.58705371E+02</totfact>
</mgrwt>
</event>
<event>
 5    1  0.1423270E-002  0.1249997E+03  0.7818608E-02  0.1235070E+00
         -4   -1    0    0    0  501 -0.00000000000E+00  0.00000000000E+00  0.21327720482E+03  0.21328098601E+03  0.12700000000E+01 0.  1.
          4   -1    0    0  501    0  0.00000000000E+00 -0.00000000000E+00 -0.18289299568E+02  0.18333340631E+02  0.12700000000E+01 0.  1.
         25    2    1    2    0    0  0.00000000000E+00  0.00000000000E+00  0.19498790525E+03  0.23161432664E+03  0.12499965245E+03 0.  0.
    9000005    1    3    3    0    0  0.18907542077E+02 -0.57278088100E+02  0.12776828890E+03  0.14129405569E+03  0.10000000000E+01 0.  0.
    9000005    1    3    3    0    0 -0.18907542077E+02  0.57278088100E+02  0.67219616347E+02  0.90320270956E+02  0.10000000000E+01 0.  0.
<mgrwt>
<rscale>  0 0.12499965E+03</rscale>
<asrwt>0</asrwt>
<pdfrwt beam="2">  1        4 0.45783026E-02 0.12499965E+03</pdfrwt>
<pdfrwt beam="1">  1       -4 0.53325280E-01 0.12499965E+03</pdfrwt>
<totfact> 0.15129920E+03</totfact>
</mgrwt>
</event>
<event>
 5    1  0.1423270E-002  0.1249995E+03  0.7818608E-02  0.1235070E+00
         -4   -1    0    0    0  501 -0.00000000000E+00  0.00000000000E+00  0.17865383386E+02  0.17910466870E+02  0.12700000000E+01 0.  1.
          4   -1    0    0  501    0  0.00000000000E+00 -0.00000000000E+00 -0.21832499769E+03  0.21832869146E+03  0.12700000000E+01 0.  1.
         25    2    1    2    0    0  0.00000000000E+00  0.00000000000E+00 -0.20045961430E+03  0.23623915833E+03  0.12499953185E+03 0.  0.
    9000005    1    3    3    0    0  0.47184998693E+02  0.26832853151E+02 -0.15875007387E+03  0.16777667318E+03  0.10000000000E+01 0.  0.
    9000005    1    3    3    0    0 -0.47184998693E+02 -0.26832853151E+02 -0.41709540429E+02  0.68462485148E+02  0.10000000000E+01 0.  0.
<mgrwt>
<rscale>  0 0.12499953E+03</rscale>
<asrwt>0</asrwt>
<pdfrwt beam="2">  1        4 0.54587338E-01 0.12499953E+03</pdfrwt>
<pdfrwt beam="1">  1       -4 0.44724437E-02 0.12499953E+03</pdfrwt>
<totfact> 0.14967068E+03</totfact>
</mgrwt>
</event>
<event>
 5    1  0.1423270E-002  0.1249987E+03  0.7818608E-02  0.1235071E+00
          4   -1    0    0  501    0  0.00000000000E+00  0.00000000000E+00  0.21604917553E+03  0.21605290821E+03  0.12700000000E+01 0. -1.
         -4   -1    0    0    0  501 -0.00000000000E+00 -0.00000000000E+00 -0.18053814078E+02  0.18098428185E+02  0.12700000000E+01 0. -1.
         25    2    1    2    0    0  0.00000000000E+00  0.00000000000E+00  0.19799536145E+03  0.23415133640E+03  0.12499874071E+03 0.  0.
    9000005    1    3    3    0    0  0.42341504427E+02  0.13986136490E+02  0.16986238199E+02  0.47727846161E+02  0.10000000000E+01 0.  0.
    9000005    1    3    3    0    0 -0.42341504427E+02 -0.13986136490E+02  0.18100912325E+03  0.18642349024E+03  0.10000000000E+01 0.  0.
<mgrwt>
<rscale>  0 0.12499874E+03</rscale>
<asrwt>0</asrwt>
<pdfrwt beam="1">  1        4 0.54018337E-01 0.12499874E+03</pdfrwt>
<pdfrwt beam="2">  1       -4 0.45194969E-02 0.12499874E+03</pdfrwt>
<totfact> 0.15040537E+03</totfact>
</mgrwt>
</event>
<event>
 5    1  0.1423270E-002  0.1249902E+03  0.7818608E-02  0.1235085E+00
         -4   -1    0    0    0  501 -0.00000000000E+00  0.00000000000E+00  0.22701304049E+03  0.22701659291E+03  0.12700000000E+01 0.  1.
          4   -1    0    0  501    0  0.00000000000E+00 -0.00000000000E+00 -0.17177339871E+02  0.17224224367E+02  0.12700000000E+01 0.  1.
         25    2    1    2    0    0  0.00000000000E+00  0.00000000000E+00  0.20983570062E+03  0.24424081727E+03  0.12499022188E+03 0.  0.
    9000005    1    3    3    0    0  0.20435090959E+02  0.27800362663E+02  0.20672118201E+03  0.20958315819E+03  0.10000000000E+01 0.  0.
    9000005    1    3    3    0    0 -0.20435090959E+02 -0.27800362663E+02  0.31145186143E+01  0.34657659079E+02  0.10000000000E+01 0.  0.
<mgrwt>
<rscale>  0 0.12499022E+03</rscale>
<asrwt>0</asrwt>
<pdfrwt beam="2">  1        4 0.43006396E-02 0.12499022E+03</pdfrwt>
<pdfrwt beam="1">  1       -4 0.56759564E-01 0.12499022E+03</pdfrwt>
<totfact> 0.14694767E+03</totfact>
</mgrwt>
</event>
<event>
 5    1  0.1423270E-002  0.1249992E+03  0.7818608E-02  0.1235071E+00
          4   -1    0    0  501    0  0.00000000000E+00  0.00000000000E+00  0.99429150717E+02  0.99437261187E+02  0.12700000000E+01 0.  1.
         -4   -1    0    0    0  501 -0.00000000000E+00 -0.00000000000E+00 -0.39266282980E+02  0.39286815588E+02  0.12700000000E+01 0.  1.
         25    2    1    2    0    0  0.00000000000E+00  0.00000000000E+00  0.60162867737E+02  0.13872407677E+03  0.12499919529E+03 0.  0.
    9000005    1    3    3    0    0 -0.51068197170E+02 -0.15921411592E+02 -0.57729587832E+01  0.53812444308E+02  0.10000000000E+01 0.  0.
    9000005    1    3    3    0    0  0.51068197170E+02  0.15921411592E+02  0.65935826520E+02  0.84911632467E+02  0.10000000000E+01 0.  0.
<mgrwt>
<rscale>  0 0.12499920E+03</rscale>
<asrwt>0</asrwt>
<pdfrwt beam="1">  1        4 0.24860868E-01 0.12499920E+03</pdfrwt>
<pdfrwt beam="2">  1       -4 0.98201512E-02 0.12499920E+03</pdfrwt>
<totfact> 0.19106166E+03</totfact>
</mgrwt>
</event>
<event>
 5    1  0.1423270E-002  0.1249949E+03  0.7818608E-02  0.1235077E+00
         -4   -1    0    0    0  501 -0.00000000000E+00  0.00000000000E+00  0.13464690053E+03  0.13465288976E+03  0.12700000000E+01 0.  1.
          4   -1    0    0  501    0  0.00000000000E+00 -0.00000000000E+00 -0.28988168506E+02  0.29015975141E+02  0.12700000000E+01 0.  1.
         25    2    1    2    0    0  0.00000000000E+00  0.00000000000E+00  0.10565873202E+03  0.16366886490E+03  0.12499491864E+03 0.  0.
    9000005    1    3    3    0    0  0.31101542898E+02 -0.32747292423E+02 -0.37217555514E+01  0.45327062513E+02  0.10000000000E+01 0.  0.
    9000005    1    3    3    0    0 -0.31101542898E+02  0.32747292423E+02  0.10938048757E+03  0.11834180239E+03  0.10000000000E+01 0.  0.
<mgrwt>
<rscale>  0 0.12499492E+03</rscale>
<asrwt>0</asrwt>
<pdfrwt beam="2">  1        4 0.72512667E-02 0.12499492E+03</pdfrwt>
<pdfrwt beam="1">  1       -4 0.33665949E-01 0.12499492E+03</pdfrwt>
<totfact> 0.17888558E+03</totfact>
</mgrwt>
</event>
<event>
 4    1  0.1423270E-002  0.1249010E+03  0.7818608E-02  0.1235224E+00
          4   -1    0    0  501    0  0.00000000000E+00  0.00000000000E+00  0.26682338697E+03  0.26682640936E+03  0.12700000000E+01 0. -1.
         -4   -1    0    0    0  501 -0.00000000000E+00 -0.00000000000E+00 -0.14585949480E+02  0.14641134595E+02  0.12700000000E+01 0. -1.
    9000005    1    1    2    0    0 -0.30947402216E+02  0.25300175399E+02  0.18014702546E+02  0.43856243420E+02  0.10000000000E+01 0.  0.
    9000005    1    1    2    0    0  0.30947402216E+02 -0.25300175399E+02  0.23422273494E+03  0.23761130054E+03  0.10000000000E+01 0.  0.
<mgrwt>
<rscale>  0 0.12490097E+03</rscale>
<asrwt>0</asrwt>
<pdfrwt beam="1">  1        4 0.66713125E-01 0.12490097E+03</pdfrwt>
<pdfrwt beam="2">  1       -4 0.36537632E-02 0.12490097E+03</pdfrwt>
<totfact> 0.13537564E+03</totfact>
</mgrwt>
</event>
<event>
 5    1  0.1423270E-002  0.1250003E+03  0.7818608E-02  0.1235069E+00
          4   -1    0    0  501    0  0.00000000000E+00  0.00000000000E+00  0.68773568556E+02  0.68785293719E+02  0.12700000000E+01 0.  1.
         -4   -1    0    0    0  501 -0.00000000000E+00 -0.00000000000E+00 -0.56775353755E+02  0.56789556205E+02  0.12700000000E+01 0.  1.
         25    2    1    2    0    0  0.00000000000E+00  0.00000000000E+00  0.11998214802E+02  0.12557484992E+03  0.12500034310E+03 0.  0.
    9000005    1    3    3    0    0 -0.62315110547E+02  0.44876515982E+01  0.74053353269E+01  0.62921784865E+02  0.10000000000E+01 0.  0.
    9000005    1    3    3    0    0  0.62315110547E+02 -0.44876515982E+01  0.45928794749E+01  0.62653065058E+02  0.10000000000E+01 0.  0.
<mgrwt>
<rscale>  0 0.12500034E+03</rscale>
<asrwt>0</asrwt>
<pdfrwt beam="1">  1        4 0.17196633E-01 0.12500034E+03</pdfrwt>
<pdfrwt beam="2">  1       -4 0.14197079E-01 0.12500034E+03</pdfrwt>
<totfact> 0.19803753E+03</totfact>
</mgrwt>
</event>
<event>
 5    1  0.1423270E-002  0.1249930E+03  0.7818608E-02  0.1235080E+00
         -4   -1    0    0    0  501 -0.00000000000E+00  0.00000000000E+00  0.27838552516E+03  0.27838842203E+03  0.12700000000E+01 0.  1.
          4   -1    0    0  501    0  0.00000000000E+00 -0.00000000000E+00 -0.13998523416E+02  0.14056015005E+02  0.12700000000E+01 0.  1.
         25    2    1    2    0    0  0.00000000000E+00  0.00000000000E+00  0.26438700175E+03  0.29244443704E+03  0.12499304805E+03 0.  0.
    9000005    1    3    3    0    0 -0.90646880656E+01  0.61347397728E+02  0.11420015667E+03  0.12995517520E+03  0.10000000000E+01 0.  0.
    9000005    1    3    3    0    0  0.90646880656E+01 -0.61347397728E+02  0.15018684508E+03  0.16248926183E+03  0.10000000000E+01 0.  0.
<mgrwt>
<rscale>  0 0.12499305E+03</rscale>
<asrwt>0</asrwt>
<pdfrwt beam="2">  1        4 0.35071796E-02 0.12499305E+03</pdfrwt>
<pdfrwt beam="1">  1       -4 0.69603925E-01 0.12499305E+03</pdfrwt>
<totfact> 0.13187590E+03</totfact>
</mgrwt>
</event>
<event>
 5    1  0.1423270E-002  0.1249892E+03  0.7818608E-02  0.1235086E+00
         -4   -1    0    0    0  501 -0.00000000000E+00  0.00000000000E+00  0.90843689978E+02  0.90852566881E+02  0.12700000000E+01 0. -1.
          4   -1    0    0  501    0  0.00000000000E+00 -0.00000000000E+00 -0.42971873196E+02  0.42990636027E+02  0.12700000000E+01 0. -1.
         25    2    1    2    0    0  0.00000000000E+00  0.00000000000E+00  0.47871816782E+02  0.13384320291E+03  0.12498916802E+03 0.  0.
    9000005    1    3    3    0    0  0.46723108375E+02  0.28610167085E+01  0.68260583734E+02  0.82775247293E+02  0.10000000000E+01 0.  0.
    9000005    1    3    3    0    0 -0.46723108375E+02 -0.28610167085E+01 -0.20388766952E+02  0.51067955614E+02  0.10000000000E+01 0.  0.
<mgrwt>
<rscale>  0 0.12498917E+03</rscale>
<asrwt>0</asrwt>
<pdfrwt beam="2">  1        4 0.10746423E-01 0.12498917E+03</pdfrwt>
<pdfrwt beam="1">  1       -4 0.22714377E-01 0.12498917E+03</pdfrwt>
<totfact> 0.19364795E+03</totfact>
</mgrwt>
</event>
<event>
 5    1  0.1423270E-002  0.1250023E+03  0.7818608E-02  0.1235066E+00
          4   -1    0    0  501    0  0.00000000000E+00  0.00000000000E+00  0.56154414618E+03  0.56154558231E+03  0.12700000000E+01 0. -1.
         -4   -1    0    0    0  501 -0.00000000000E+00 -0.00000000000E+00 -0.68971030749E+01  0.70130543150E+01  0.12700000000E+01 0. -1.
         25    2    1    2    0    0  0.00000000000E+00  0.00000000000E+00  0.55464704311E+03  0.56855863663E+03  0.12500232339E+03 0.  0.
    9000005    1    3    3    0    0 -0.23199569040E+02  0.10767707478E+02  0.53667046574E+03  0.53728051549E+03  0.10000000000E+01 0.  0.
    9000005    1    3    3    0    0  0.23199569040E+02 -0.10767707478E+02  0.17976577371E+02  0.31278121138E+02  0.10000000000E+01 0.  0.
<mgrwt>
<rscale>  0 0.12500232E+03</rscale>
<asrwt>0</asrwt>
<pdfrwt beam="1">  1        4 0.14040069E+00 0.12500232E+03</pdfrwt>
<pdfrwt beam="2">  1       -4 0.17389495E-02 0.12500232E+03</pdfrwt>
<totfact> 0.77602857E+02</totfact>
</mgrwt>
</event>
<event>
 5    1  0.1423270E-002  0.1250000E+03  0.7818608E-02  0.1235069E+00
          4   -1    0    0  501    0  0.00000000000E+00  0.00000000000E+00  0.10397422854E+03  0.10398198450E+03  0.12700000000E+01 0. -1.
         -4   -1    0    0    0  501 -0.00000000000E+00 -0.00000000000E+00 -0.37549538919E+02  0.37571009741E+02  0.12700000000E+01 0. -1.
         25    2    1    2    0    0  0.00000000000E+00  0.00000000000E+00  0.66424689617E+02  0.14155299424E+03  0.12500004315E+03 0.  0.
    9000005    1    3    3    0    0 -0.44439700279E+02 -0.21294200367E+02  0.76732234909E+02  0.91198496721E+02  0.10000000000E+01 0.  0.
    9000005    1    3    3    0    0  0.44439700279E+02  0.21294200367E+02 -0.10307545292E+02  0.50354497516E+02  0.10000000000E+01 0.  0.
<mgrwt>
<rscale>  0 0.12500004E+03</rscale>
<asrwt>0</asrwt>
<pdfrwt beam="1">  1        4 0.25997210E-01 0.12500004E+03</pdfrwt>
<pdfrwt beam="2">  1       -4 0.93910382E-02 0.12500004E+03</pdfrwt>
<totfact> 0.18961154E+03</totfact>
</mgrwt>
</event>
<event>
 5    1  0.1423270E-002  0.1250000E+03  0.7818608E-02  0.1235069E+00
         -4   -1    0    0    0  501 -0.00000000000E+00  0.00000000000E+00  0.64647737052E+02  0.64660210376E+02  0.12700000000E+01 0. -1.
          4   -1    0    0  501    0  0.00000000000E+00 -0.00000000000E+00 -0.60398607717E+02  0.60411958370E+02  0.12700000000E+01 0. -1.
         25    2    1    2    0    0  0.00000000000E+00  0.00000000000E+00  0.42491293348E+01  0.12507216875E+03  0.12499996918E+03 0.  0.
    9000005    1    3    3    0    0 -0.44745381644E+02 -0.38538831961E+02  0.22577930448E+02  0.63230955162E+02  0.10000000000E+01 0.  0.
    9000005    1    3    3    0    0  0.44745381644E+02  0.38538831961E+02 -0.18328801113E+02  0.61841213585E+02  0.10000000000E+01 0.  0.
<mgrwt>
<rscale>  0 0.12499997E+03</rscale>
<asrwt>0</asrwt>
<pdfrwt beam="2">  1        4 0.15102880E-01 0.12499997E+03</pdfrwt>
<pdfrwt beam="1">  1       -4 0.16165162E-01 0.12499997E+03</pdfrwt>
<totfact> 0.19831156E+03</totfact>
</mgrwt>
</event>
<event>
 5    1  0.1423270E-002  0.1249964E+03  0.7818608E-02  0.1235075E+00
          4   -1    0    0  501    0  0.00000000000E+00  0.00000000000E+00  0.25426271706E+03  0.25426588876E+03  0.12700000000E+01 0. -1.
         -4   -1    0    0    0  501 -0.00000000000E+00 -0.00000000000E+00 -0.15332632961E+02  0.15385140023E+02  0.12700000000E+01 0. -1.
         25    2    1    2    0    0  0.00000000000E+00  0.00000000000E+00  0.23893008410E+03  0.26965102878E+03  0.12499636889E+03 0.  0.
    9000005    1    3    3    0    0 -0.53682003858E+02  0.14275465479E+02  0.18122016129E+03  0.18954496382E+03  0.10000000000E+01 0.  0.
    9000005    1    3    3    0    0  0.53682003858E+02 -0.14275465479E+02  0.57709922811E+02  0.80106064962E+02  0.10000000000E+01 0.  0.
<mgrwt>
<rscale>  0 0.12499637E+03</rscale>
<asrwt>0</asrwt>
<pdfrwt beam="1">  1        4 0.63572641E-01 0.12499637E+03</pdfrwt>
<pdfrwt beam="2">  1       -4 0.38401180E-02 0.12499637E+03</pdfrwt>
<totfact> 0.13867560E+03</totfact>
</mgrwt>
</event>
<event>
 5    1  0.1423270E-002  0.1250013E+03  0.7818608E-02  0.1235067E+00
         -4   -1    0    0    0  501 -0.00000000000E+00  0.00000000000E+00  0.45602197270E+01  0.47337621358E+01  0.12700000000E+01 0. -1.
          4   -1    0    0  501    0  0.00000000000E+00 -0.00000000000E+00 -0.84044151008E+03  0.84044246964E+03  0.12700000000E+01 0. -1.
         25    2    1    2    0    0  0.00000000000E+00  0.00000000000E+00 -0.83588129035E+03  0.84517623177E+03  0.12500132474E+03 0.  0.
    9000005    1    3    3    0    0 -0.12821926648E+02 -0.57553233728E+02 -0.27797012001E+03  0.28415693575E+03  0.10000000000E+01 0.  0.
    9000005    1    3    3    0    0  0.12821926648E+02  0.57553233728E+02 -0.55791117035E+03  0.56101929602E+03  0.10000000000E+01 0.  0.
<mgrwt>
<rscale>  0 0.12500132E+03</rscale>
<asrwt>0</asrwt>
<pdfrwt beam="2">  1        4 0.21013167E+00 0.12500132E+03</pdfrwt>
<pdfrwt beam="1">  1       -4 0.11618705E-02 0.12500132E+03</pdfrwt>
<totfact> 0.48626581E+02</totfact>
</mgrwt>
</event>
<event>
 5    1  0.1423270E-002  0.1249998E+03  0.7818608E-02  0.1235070E+00
          4   -1    0    0  501    0  0.00000000000E+00  0.00000000000E+00  0.71774832884E+02  0.71786067837E+02  0.12700000000E+01 0.  1.
         -4   -1    0    0    0  501 -0.00000000000E+00 -0.00000000000E+00 -0.54400622863E+02  0.54415445123E+02  0.12700000000E+01 0.  1.
         25    2    1    2    0    0  0.00000000000E+00  0.00000000000E+00  0.17374210021E+02  0.12620151296E+03  0.12499983480E+03 0.  0.
    9000005    1    3    3    0    0  0.62373278794E+01 -0.23249881551E+02  0.66911070141E+02  0.71116471781E+02  0.10000000000E+01 0.  0.
    9000005    1    3    3    0    0 -0.62373278794E+01  0.23249881551E+02 -0.49536860119E+02  0.55085041179E+02  0.10000000000E+01 0.  0.
<mgrwt>
<rscale>  0 0.12499983E+03</rscale>
<asrwt>0</asrwt>
<pdfrwt beam="1">  1        4 0.17946965E-01 0.12499983E+03</pdfrwt>
<pdfrwt beam="2">  1       -4 0.13603413E-01 0.12499983E+03</pdfrwt>
<totfact> 0.19770111E+03</totfact>
</mgrwt>
</event>
<event>
 5    1  0.1423270E-002  0.1249999E+03  0.7818608E-02  0.1235069E+00
         -4   -1    0    0    0  501 -0.00000000000E+00  0.00000000000E+00  0.19889938676E+04  0.19889942730E+04  0.12700000000E+01 0.  1.
          4   -1    0    0  501    0  0.00000000000E+00 -0.00000000000E+00 -0.17581658586E+01  0.21688815519E+01  0.12700000000E+01 0.  1.
         25    2    1    2    0    0  0.00000000000E+00  0.00000000000E+00  0.19872357017E+04  0.19911631546E+04  0.12499989597E+03 0.  0.
    9000005    1    3    3    0    0  0.39259639068E+02 -0.47915499793E+02  0.86223320459E+03  0.86445607956E+03  0.10000000000E+01 0.  0.
    9000005    1    3    3    0    0 -0.39259639068E+02  0.47915499793E+02  0.11250024971E+04  0.11267070750E+04  0.10000000000E+01 0.  0.
<mgrwt>
<rscale>  0 0.12499990E+03</rscale>
<asrwt>0</asrwt>
<pdfrwt beam="2">  1        4 0.49093151E-03 0.12499990E+03</pdfrwt>
<pdfrwt beam="1">  1       -4 0.49729996E+00 0.12499990E+03</pdfrwt>
<totfact> 0.26415892E+01</totfact>
</mgrwt>
</event>
<event>
 5    1  0.1423270E-002  0.1249929E+03  0.7818608E-02  0.1235080E+00
         -4   -1    0    0    0  501 -0.00000000000E+00  0.00000000000E+00  0.11286077389E+02  0.11357307904E+02  0.12700000000E+01 0. -1.
          4   -1    0    0  501    0  0.00000000000E+00 -0.00000000000E+00 -0.34491216909E+03  0.34491450721E+03  0.12700000000E+01 0. -1.
         25    2    1    2    0    0  0.00000000000E+00  0.00000000000E+00 -0.33362609170E+03  0.35627181512E+03  0.12499294853E+03 0.  0.
    9000005    1    3    3    0    0 -0.32918552965E+02  0.50467127381E+02 -0.11961032090E+03  0.13393353180E+03  0.10000000000E+01 0.  0.
    9000005    1    3    3    0    0  0.32918552965E+02 -0.50467127381E+02 -0.21401577080E+03  0.22233828332E+03  0.10000000000E+01 0.  0.
<mgrwt>
<rscale>  0 0.12499295E+03</rscale>
<asrwt>0</asrwt>
<pdfrwt beam="2">  1        4 0.86237203E-01 0.12499295E+03</pdfrwt>
<pdfrwt beam="1">  1       -4 0.28307166E-02 0.12499295E+03</pdfrwt>
<totfact> 0.11531008E+03</totfact>
</mgrwt>
</event>
<event>
 5    1  0.1423270E-002  0.1249991E+03  0.7818608E-02  0.1235071E+00
         -4   -1    0    0    0  501 -0.00000000000E+00  0.00000000000E+00  0.18516525668E+03  0.18516961193E+03  0.12700000000E+01 0.  1.
          4   -1    0    0  501    0  0.00000000000E+00 -0.00000000000E+00 -0.21071983779E+02  0.21110220282E+02  0.12700000000E+01 0.  1.
         25    2    1    2    0    0  0.00000000000E+00  0.00000000000E+00  0.16409327290E+03  0.20627983221E+03  0.12499906786E+03 0.  0.
    9000005    1    3    3    0    0 -0.42164150206E+02 -0.36851590996E+02  0.12781950616E+03  0.13955171613E+03  0.10000000000E+01 0.  0.
    9000005    1    3    3    0    0  0.42164150206E+02  0.36851590996E+02  0.36273766748E+02  0.66728116080E+02  0.10000000000E+01 0.  0.
<mgrwt>
<rscale>  0 0.12499907E+03</rscale>
<asrwt>0</asrwt>
<pdfrwt beam="2">  1        4 0.52733199E-02 0.12499907E+03</pdfrwt>
<pdfrwt beam="1">  1       -4 0.46296638E-01 0.12499907E+03</pdfrwt>
<totfact> 0.16073984E+03</totfact>
</mgrwt>
</event>
<event>
 5    1  0.1423270E-002  0.1249997E+03  0.7818608E-02  0.1235070E+00
         -4   -1    0    0    0  501 -0.00000000000E+00  0.00000000000E+00  0.81802589975E+01  0.82782568979E+01  0.12700000000E+01 0. -1.
          4   -1    0    0  501    0  0.00000000000E+00 -0.00000000000E+00 -0.47457706512E+03  0.47457876442E+03  0.12700000000E+01 0. -1.
         25    2    1    2    0    0  0.00000000000E+00  0.00000000000E+00 -0.46639680612E+03  0.48285702132E+03  0.12499968910E+03 0.  0.
    9000005    1    3    3    0    0  0.39316339383E+02  0.13960385344E+02 -0.53479069143E+02  0.67835667151E+02  0.10000000000E+01 0.  0.
    9000005    1    3    3    0    0 -0.39316339383E+02 -0.13960385344E+02 -0.41291773698E+03  0.41502135417E+03  0.10000000000E+01 0.  0.
<mgrwt>
<rscale>  0 0.12499969E+03</rscale>
<asrwt>0</asrwt>
<pdfrwt beam="2">  1        4 0.11865664E+00 0.12499969E+03</pdfrwt>
<pdfrwt beam="1">  1       -4 0.20575285E-02 0.12499969E+03</pdfrwt>
<totfact> 0.90397733E+02</totfact>
</mgrwt>
</event>
<event>
 5    1  0.1423270E-002  0.1250134E+03  0.7818608E-02  0.1235048E+00
          4   -1    0    0  501    0  0.00000000000E+00  0.00000000000E+00  0.24309204252E+02  0.24342356323E+02  0.12700000000E+01 0. -1.
         -4   -1    0    0    0  501 -0.00000000000E+00 -0.00000000000E+00 -0.16057934620E+03  0.16058436825E+03  0.12700000000E+01 0. -1.
         25    2    1    2    0    0  0.00000000000E+00  0.00000000000E+00 -0.13627014194E+03  0.18492672457E+03  0.12501336678E+03 0.  0.
    9000005    1    3    3    0    0  0.33035706723E+01  0.44647474543E+02 -0.36257036852E+01  0.44927233272E+02  0.10000000000E+01 0.  0.
    9000005    1    3    3    0    0 -0.33035706723E+01 -0.44647474543E+02 -0.13264443826E+03  0.13999949130E+03  0.10000000000E+01 0.  0.
<mgrwt>
<rscale>  0 0.12501337E+03</rscale>
<asrwt>0</asrwt>
<pdfrwt beam="1">  1        4 0.60820733E-02 0.12501337E+03</pdfrwt>
<pdfrwt beam="2">  1       -4 0.40149605E-01 0.12501337E+03</pdfrwt>
<totfact> 0.16938694E+03</totfact>
</mgrwt>
</event>
<event>
 5    1  0.1423270E-002  0.1249986E+03  0.7818608E-02  0.1235071E+00
          4   -1    0    0  501    0  0.00000000000E+00  0.00000000000E+00  0.23249112480E+02  0.23283773987E+02  0.12700000000E+01 0. -1.
         -4   -1    0    0    0  501 -0.00000000000E+00 -0.00000000000E+00 -0.16785121706E+03  0.16785602154E+03  0.12700000000E+01 0. -1.
         25    2    1    2    0    0  0.00000000000E+00  0.00000000000E+00 -0.14460210458E+03  0.19113979553E+03  0.12499861114E+03 0.  0.
    9000005    1    3    3    0    0  0.43058601494E+02  0.41298184902E+02 -0.43874760923E+02  0.74064687165E+02  0.10000000000E+01 0.  0.
    9000005    1    3    3    0    0 -0.43058601494E+02 -0.41298184902E+02 -0.10072734366E+03  0.11707510837E+03  0.10000000000E+01 0.  0.
<mgrwt>
<rscale>  0 0.12499861E+03</rscale>
<asrwt>0</asrwt>
<pdfrwt beam="1">  1        4 0.58172119E-02 0.12499861E+03</pdfrwt>
<pdfrwt beam="2">  1       -4 0.41967734E-01 0.12499861E+03</pdfrwt>
<totfact> 0.16683612E+03</totfact>
</mgrwt>
</event>
<event>
 5    1  0.1423270E-002  0.1250042E+03  0.7818608E-02  0.1235063E+00
         -4   -1    0    0    0  501 -0.00000000000E+00  0.00000000000E+00  0.26825011700E+03  0.26825312332E+03  0.12700000000E+01 0.  1.
          4   -1    0    0  501    0  0.00000000000E+00 -0.00000000000E+00 -0.14532168013E+02  0.14587556587E+02  0.12700000000E+01 0.  1.
         25    2    1    2    0    0  0.00000000000E+00  0.00000000000E+00  0.25371794899E+03  0.28284067990E+03  0.12500421021E+03 0.  0.
    9000005    1    3    3    0    0 -0.40645887356E+02 -0.47460384810E+02  0.12904902445E+03  0.14338489110E+03  0.10000000000E+01 0.  0.
    9000005    1    3    3    0    0  0.40645887356E+02  0.47460384810E+02  0.12466892454E+03  0.13945578880E+03  0.10000000000E+01 0.  0.
<mgrwt>
<rscale>  0 0.12500421E+03</rscale>
<asrwt>0</asrwt>
<pdfrwt beam="2">  1        4 0.36403414E-02 0.12500421E+03</pdfrwt>
<pdfrwt beam="1">  1       -4 0.67069827E-01 0.12500421E+03</pdfrwt>
<totfact> 0.13464681E+03</totfact>
</mgrwt>
</event>
<event>
 5    1  0.1423270E-002  0.1249870E+03  0.7818608E-02  0.1235090E+00
         -4   -1    0    0    0  501 -0.00000000000E+00  0.00000000000E+00  0.32805867842E+01  0.35178330900E+01  0.12700000000E+01 0. -1.
          4   -1    0    0  501    0  0.00000000000E+00 -0.00000000000E+00 -0.11486881036E+04  0.11486888056E+04  0.12700000000E+01 0. -1.
         25    2    1    2    0    0  0.00000000000E+00  0.00000000000E+00 -0.11454075168E+04  0.11522066387E+04  0.12498703455E+03 0.  0.
    9000005    1    3    3    0    0 -0.36718841024E+02  0.43837841707E+02 -0.80489746054E+03  0.80692685643E+03  0.10000000000E+01 0.  0.
    9000005    1    3    3    0    0  0.36718841024E+02 -0.43837841707E+02 -0.34051005625E+03  0.34527978229E+03  0.10000000000E+01 0.  0.
<mgrwt>
<rscale>  0 0.12498703E+03</rscale>
<asrwt>0</asrwt>
<pdfrwt beam="2">  1        4 0.28720044E+00 0.12498703E+03</pdfrwt>
<pdfrwt beam="1">  1       -4 0.84989418E-03 0.12498703E+03</pdfrwt>
<totfact> 0.27789700E+02</totfact>
</mgrwt>
</event>
<event>
 5    1  0.1423270E-002  0.1250076E+03  0.7818608E-02  0.1235057E+00
          4   -1    0    0  501    0  0.00000000000E+00  0.00000000000E+00  0.58519069831E+03  0.58519207641E+03  0.12700000000E+01 0.  1.
         -4   -1    0    0    0  501 -0.00000000000E+00 -0.00000000000E+00 -0.66141900729E+01  0.67350137580E+01  0.12700000000E+01 0.  1.
         25    2    1    2    0    0  0.00000000000E+00  0.00000000000E+00  0.57857650824E+03  0.59192709017E+03  0.12500761651E+03 0.  0.
    9000005    1    3    3    0    0  0.24489105181E+02  0.56817246127E+02  0.24751961432E+03  0.25513697341E+03  0.10000000000E+01 0.  0.
    9000005    1    3    3    0    0 -0.24489105181E+02 -0.56817246127E+02  0.33105689392E+03  0.33679011676E+03  0.10000000000E+01 0.  0.
<mgrwt>
<rscale>  0 0.12500762E+03</rscale>
<asrwt>0</asrwt>
<pdfrwt beam="1">  1        4 0.14631295E+00 0.12500762E+03</pdfrwt>
<pdfrwt beam="2">  1       -4 0.16688228E-02 0.12500762E+03</pdfrwt>
<totfact> 0.74515261E+02</totfact>
</mgrwt>
</event>
<event>
 5    1  0.1423270E-002  0.1249990E+03  0.7818608E-02  0.1235071E+00
          4   -1    0    0  501    0  0.00000000000E+00  0.00000000000E+00  0.21064276260E+02  0.21102526729E+02  0.12700000000E+01 0. -1.
         -4   -1    0    0    0  501 -0.00000000000E+00 -0.00000000000E+00 -0.18523276128E+03  0.18523711494E+03  0.12700000000E+01 0. -1.
         25    2    1    2    0    0  0.00000000000E+00  0.00000000000E+00 -0.16416848502E+03  0.20633964167E+03  0.12499902500E+03 0.  0.
    9000005    1    3    3    0    0 -0.41173526361E+02 -0.45408657334E+02 -0.62003355957E+02  0.87193013388E+02  0.10000000000E+01 0.  0.
    9000005    1    3    3    0    0  0.41173526361E+02  0.45408657334E+02 -0.10216512906E+03  0.11914662828E+03  0.10000000000E+01 0.  0.
<mgrwt>
<rscale>  0 0.12499902E+03</rscale>
<asrwt>0</asrwt>
<pdfrwt beam="1">  1        4 0.52713951E-02 0.12499902E+03</pdfrwt>
<pdfrwt beam="2">  1       -4 0.46313511E-01 0.12499902E+03</pdfrwt>
<totfact> 0.16071664E+03</totfact>
</mgrwt>
</event>
<event>
 5    1  0.1423270E-002  0.1249993E+03  0.7818608E-02  0.1235070E+00
         -4   -1    0    0    0  501 -0.00000000000E+00  0.00000000000E+00  0.40195203717E+03  0.40195404350E+03  0.12700000000E+01 0. -1.
          4   -1    0    0  501    0  0.00000000000E+00 -0.00000000000E+00 -0.96745596558E+01  0.97575614030E+01  0.12700000000E+01 0. -1.
         25    2    1    2    0    0  0.00000000000E+00  0.00000000000E+00  0.39227747752E+03  0.41171160490E+03  0.12499930498E+03 0.  0.
    9000005    1    3    3    0    0  0.28588343047E+02  0.38820594192E+02  0.65180076294E+02  0.81078814972E+02  0.10000000000E+01 0.  0.
    9000005    1    3    3    0    0 -0.28588343047E+02 -0.38820594192E+02  0.32709740122E+03  0.33063278993E+03  0.10000000000E+01 0.  0.
<mgrwt>
<rscale>  0 0.12499930E+03</rscale>
<asrwt>0</asrwt>
<pdfrwt beam="2">  1        4 0.24292660E-02 0.12499930E+03</pdfrwt>
<pdfrwt beam="1">  1       -4 0.10049863E+00 0.12499930E+03</pdfrwt>
<totfact> 0.10331544E+03</totfact>
</mgrwt>
</event>
<event>
 5    1  0.1423270E-002  0.1249977E+03  0.7818608E-02  0.1235073E+00
         -4   -1    0    0    0  501 -0.00000000000E+00  0.00000000000E+00  0.44105106896E+02  0.44123387838E+02  0.12700000000E+01 0. -1.
          4   -1    0    0  501    0  0.00000000000E+00 -0.00000000000E+00 -0.88522463513E+02  0.88531573161E+02  0.12700000000E+01 0. -1.
         25    2    1    2    0    0  0.00000000000E+00  0.00000000000E+00 -0.44417356617E+02  0.13265496100E+03  0.12499774842E+03 0.  0.
    9000005    1    3    3    0    0  0.51079643731E+02  0.27026760190E+02 -0.47446419176E+02  0.74777927644E+02  0.10000000000E+01 0.  0.
    9000005    1    3    3    0    0 -0.51079643731E+02 -0.27026760190E+02  0.30290625597E+01  0.57877033356E+02  0.10000000000E+01 0.  0.
<mgrwt>
<rscale>  0 0.12499775E+03</rscale>
<asrwt>0</asrwt>
<pdfrwt beam="2">  1        4 0.22134039E-01 0.12499775E+03</pdfrwt>
<pdfrwt beam="1">  1       -4 0.11029701E-01 0.12499775E+03</pdfrwt>
<totfact> 0.19423705E+03</totfact>
</mgrwt>
</event>
<event>
 5    1  0.1423270E-002  0.1250041E+03  0.7818608E-02  0.1235063E+00
          4   -1    0    0  501    0  0.00000000000E+00  0.00000000000E+00  0.24714455590E+02  0.24747064778E+02  0.12700000000E+01 0.  1.
         -4   -1    0    0    0  501 -0.00000000000E+00 -0.00000000000E+00 -0.15792631006E+03  0.15793141647E+03  0.12700000000E+01 0.  1.
         25    2    1    2    0    0  0.00000000000E+00  0.00000000000E+00 -0.13321185447E+03  0.18267848125E+03  0.12500411729E+03 0.  0.
    9000005    1    3    3    0    0  0.30799276177E+02  0.39880282109E+02 -0.12584765040E+02  0.51946208959E+02  0.10000000000E+01 0.  0.
    9000005    1    3    3    0    0 -0.30799276177E+02 -0.39880282109E+02 -0.12062708943E+03  0.13073227229E+03  0.10000000000E+01 0.  0.
<mgrwt>
<rscale>  0 0.12500412E+03</rscale>
<asrwt>0</asrwt>
<pdfrwt beam="1">  1        4 0.61833288E-02 0.12500412E+03</pdfrwt>
<pdfrwt beam="2">  1       -4 0.39486289E-01 0.12500412E+03</pdfrwt>
<totfact> 0.17038274E+03</totfact>
</mgrwt>
</event>
<event>
 5    1  0.1423270E-002  0.1250031E+03  0.7818608E-02  0.1235064E+00
          4   -1    0    0  501    0  0.00000000000E+00  0.00000000000E+00  0.70384410287E+02  0.70395867147E+02  0.12700000000E+01 0.  1.
         -4   -1    0    0    0  501 -0.00000000000E+00 -0.00000000000E+00 -0.55478341253E+02  0.55492875653E+02  0.12700000000E+01 0.  1.
         25    2    1    2    0    0  0.00000000000E+00  0.00000000000E+00  0.14906069034E+02  0.12588874280E+03  0.12500313864E+03 0.  0.
    9000005    1    3    3    0    0 -0.85231417138E+01 -0.92084325479E+01 -0.54201663519E+02  0.55644042834E+02  0.10000000000E+01 0.  0.
    9000005    1    3    3    0    0  0.85231417138E+01  0.92084325479E+01  0.69107732553E+02  0.70244699966E+02  0.10000000000E+01 0.  0.
<mgrwt>
<rscale>  0 0.12500314E+03</rscale>
<asrwt>0</asrwt>
<pdfrwt beam="1">  1        4 0.17599351E-01 0.12500314E+03</pdfrwt>
<pdfrwt beam="2">  1       -4 0.13872834E-01 0.12500314E+03</pdfrwt>
<totfact> 0.19785481E+03</totfact>
</mgrwt>
</event>
<event>
 5    1  0.1423270E-002  0.1250028E+03  0.7818608E-02  0.1235065E+00
          4   -1    0    0  501    0  0.00000000000E+00  0.00000000000E+00  0.38006299636E+03  0.38006511824E+03  0.12700000000E+01 0. -1.
         -4   -1    0    0    0  501 -0.00000000000E+00 -0.00000000000E+00 -0.10236964717E+02  0.10315442143E+02  0.12700000000E+01 0. -1.
         25    2    1    2    0    0  0.00000000000E+00  0.00000000000E+00  0.36982603165E+03  0.39038056039E+03  0.12500275294E+03 0.  0.
    9000005    1    3    3    0    0 -0.13480532660E+02  0.29245990122E+02  0.35217072454E+03  0.35364144543E+03  0.10000000000E+01 0.  0.
    9000005    1    3    3    0    0  0.13480532660E+02 -0.29245990122E+02  0.17655307104E+02  0.36739114959E+02  0.10000000000E+01 0.  0.
<mgrwt>
<rscale>  0 0.12500275E+03</rscale>
<asrwt>0</asrwt>
<pdfrwt beam="1">  1        4 0.95025824E-01 0.12500275E+03</pdfrwt>
<pdfrwt beam="2">  1       -4 0.25693161E-02 0.12500275E+03</pdfrwt>
<totfact> 0.10769388E+03</totfact>
</mgrwt>
</event>
<event>
 5    1  0.1423270E-002  0.1250014E+03  0.7818608E-02  0.1235067E+00
          4   -1    0    0  501    0  0.00000000000E+00  0.00000000000E+00  0.50217948626E+03  0.50218109216E+03  0.12700000000E+01 0.  1.
         -4   -1    0    0    0  501 -0.00000000000E+00 -0.00000000000E+00 -0.77253054719E+01  0.78290002321E+01  0.12700000000E+01 0.  1.
         25    2    1    2    0    0  0.00000000000E+00  0.00000000000E+00  0.49445418079E+03  0.51001009239E+03  0.12500142975E+03 0.  0.
    9000005    1    3    3    0    0  0.16281130384E+02  0.59181279842E+02  0.19932528886E+03  0.20856430632E+03  0.10000000000E+01 0.  0.
    9000005    1    3    3    0    0 -0.16281130384E+02 -0.59181279842E+02  0.29512889192E+03  0.30144578607E+03  0.10000000000E+01 0.  0.
<mgrwt>
<rscale>  0 0.12500143E+03</rscale>
<asrwt>0</asrwt>
<pdfrwt beam="1">  1        4 0.12555804E+00 0.12500143E+03</pdfrwt>
<pdfrwt beam="2">  1       -4 0.19444889E-02 0.12500143E+03</pdfrwt>
<totfact> 0.86033627E+02</totfact>
</mgrwt>
</event>
<event>
 5    1  0.1423270E-002  0.1250015E+03  0.7818608E-02  0.1235067E+00
          4   -1    0    0  501    0  0.00000000000E+00  0.00000000000E+00  0.77312574378E+02  0.77323004707E+02  0.12700000000E+01 0. -1.
         -4   -1    0    0    0  501 -0.00000000000E+00 -0.00000000000E+00 -0.50504767465E+02  0.50520732741E+02  0.12700000000E+01 0. -1.
         25    2    1    2    0    0  0.00000000000E+00  0.00000000000E+00  0.26807806913E+02  0.12784373745E+03  0.12500145076E+03 0.  0.
    9000005    1    3    3    0    0 -0.49824838100E+02 -0.28855511303E+02  0.38250031989E+02  0.69131902704E+02  0.10000000000E+01 0.  0.
    9000005    1    3    3    0    0  0.49824838100E+02  0.28855511303E+02 -0.11442225076E+02  0.58711834744E+02  0.10000000000E+01 0.  0.
<mgrwt>
<rscale>  0 0.12500145E+03</rscale>
<asrwt>0</asrwt>
<pdfrwt beam="1">  1        4 0.19331443E-01 0.12500145E+03</pdfrwt>
<pdfrwt beam="2">  1       -4 0.12629491E-01 0.12500145E+03</pdfrwt>
<totfact> 0.19680374E+03</totfact>
</mgrwt>
</event>
<event>
 5    1  0.1423270E-002  0.1249979E+03  0.7818608E-02  0.1235073E+00
          4   -1    0    0  501    0  0.00000000000E+00  0.00000000000E+00  0.39453545629E+01  0.41447222617E+01  0.12700000000E+01 0.  1.
         -4   -1    0    0    0  501 -0.00000000000E+00 -0.00000000000E+00 -0.96545732491E+03  0.96545816021E+03  0.12700000000E+01 0.  1.
         25    2    1    2    0    0  0.00000000000E+00  0.00000000000E+00 -0.96151197034E+03  0.96960288247E+03  0.12499792231E+03 0.  0.
    9000005    1    3    3    0    0  0.64175118213E+01  0.25328312804E+02 -0.92108941094E+03  0.92146047708E+03  0.10000000000E+01 0.  0.
    9000005    1    3    3    0    0 -0.64175118213E+01 -0.25328312804E+02 -0.40422559405E+02  0.48142405386E+02  0.10000000000E+01 0.  0.
<mgrwt>
<rscale>  0 0.12499792E+03</rscale>
<asrwt>0</asrwt>
<pdfrwt beam="1">  1        4 0.10113673E-02 0.12499792E+03</pdfrwt>
<pdfrwt beam="2">  1       -4 0.24138857E+00 0.12499792E+03</pdfrwt>
<totfact> 0.39193365E+02</totfact>
</mgrwt>
</event>
<event>
 5    1  0.1423270E-002  0.1249952E+03  0.7818608E-02  0.1235077E+00
         -4   -1    0    0    0  501 -0.00000000000E+00  0.00000000000E+00  0.12521420537E+02  0.12585661376E+02  0.12700000000E+01 0.  1.
          4   -1    0    0  501    0  0.00000000000E+00 -0.00000000000E+00 -0.31107757304E+03  0.31108016547E+03  0.12700000000E+01 0.  1.
         25    2    1    2    0    0  0.00000000000E+00  0.00000000000E+00 -0.29855615250E+03  0.32366582684E+03  0.12499516499E+03 0.  0.
    9000005    1    3    3    0    0 -0.54863425165E+00  0.58411105901E+02 -0.20676040686E+03  0.21485582174E+03  0.10000000000E+01 0.  0.
    9000005    1    3    3    0    0  0.54863425165E+00 -0.58411105901E+02 -0.91795745647E+02  0.10881000510E+03  0.10000000000E+01 0.  0.
<mgrwt>
<rscale>  0 0.12499516E+03</rscale>
<asrwt>0</asrwt>
<pdfrwt beam="2">  1        4 0.77777722E-01 0.12499516E+03</pdfrwt>
<pdfrwt beam="1">  1       -4 0.31387103E-02 0.12499516E+03</pdfrwt>
<totfact> 0.12334139E+03</totfact>
</mgrwt>
</event>
<event>
 5    1  0.1423270E-002  0.1249759E+03  0.7818608E-02  0.1235107E+00
          4   -1    0    0  501    0  0.00000000000E+00  0.00000000000E+00  0.15456811270E+02  0.15508897918E+02  0.12700000000E+01 0.  1.
         -4   -1    0    0    0  501 -0.00000000000E+00 -0.00000000000E+00 -0.25214422500E+03  0.25214742334E+03  0.12700000000E+01 0.  1.
         25    2    1    2    0    0  0.00000000000E+00  0.00000000000E+00 -0.23668741373E+03  0.26765632126E+03  0.12497589566E+03 0.  0.
    9000005    1    3    3    0    0 -0.46913685238E+02  0.13605214247E+02 -0.34908169376E+02  0.60046448742E+02  0.10000000000E+01 0.  0.
    9000005    1    3    3    0    0  0.46913685238E+02 -0.13605214247E+02 -0.20177924435E+03  0.20760987252E+03  0.10000000000E+01 0.  0.
<mgrwt>
<rscale>  0 0.12497590E+03</rscale>
<asrwt>0</asrwt>
<pdfrwt beam="1">  1        4 0.38711142E-02 0.12497590E+03</pdfrwt>
<pdfrwt beam="2">  1       -4 0.63042954E-01 0.12497590E+03</pdfrwt>
<totfact> 0.13936270E+03</totfact>
</mgrwt>
</event>
<event>
 5    1  0.1423270E-002  0.1249984E+03  0.7818608E-02  0.1235072E+00
         -4   -1    0    0    0  501 -0.00000000000E+00  0.00000000000E+00  0.37173869991E+01  0.39283413931E+01  0.12700000000E+01 0.  1.
          4   -1    0    0  501    0  0.00000000000E+00 -0.00000000000E+00 -0.10215754523E+04  0.10215762417E+04  0.12700000000E+01 0.  1.
         25    2    1    2    0    0  0.00000000000E+00  0.00000000000E+00 -0.10178580653E+04  0.10255045831E+04  0.12499843552E+03 0.  0.
    9000005    1    3    3    0    0  0.12913583579E+02  0.21165027003E+02 -0.97953731724E+03  0.97985155757E+03  0.10000000000E+01 0.  0.
    9000005    1    3    3    0    0 -0.12913583579E+02 -0.21165027003E+02 -0.38320748054E+02  0.45653025533E+02  0.10000000000E+01 0.  0.
<mgrwt>
<rscale>  0 0.12499844E+03</rscale>
<asrwt>0</asrwt>
<pdfrwt beam="2">  1        4 0.25541940E+00 0.12499844E+03</pdfrwt>
<pdfrwt beam="1">  1       -4 0.95581822E-03 0.12499844E+03</pdfrwt>
<totfact> 0.35421614E+02</totfact>
</mgrwt>
</event>
<event>
 5    1  0.1423270E-002  0.1249970E+03  0.7818608E-02  0.1235074E+00
          4   -1    0    0  501    0  0.00000000000E+00  0.00000000000E+00  0.82862908559E+02  0.82872640328E+02  0.12700000000E+01 0.  1.
         -4   -1    0    0    0  501 -0.00000000000E+00 -0.00000000000E+00 -0.47117831439E+02  0.47134943933E+02  0.12700000000E+01 0.  1.
         25    2    1    2    0    0  0.00000000000E+00  0.00000000000E+00  0.35745077120E+02  0.13000758426E+03  0.12499704567E+03 0.  0.
    9000005    1    3    3    0    0  0.26288900308E+02 -0.48327573415E+02  0.48698474506E+02  0.73479262726E+02  0.10000000000E+01 0.  0.
    9000005    1    3    3    0    0 -0.26288900308E+02  0.48327573415E+02 -0.12953397386E+02  0.56528321534E+02  0.10000000000E+01 0.  0.
<mgrwt>
<rscale>  0 0.12499705E+03</rscale>
<asrwt>0</asrwt>
<pdfrwt beam="1">  1        4 0.20719083E-01 0.12499705E+03</pdfrwt>
<pdfrwt beam="2">  1       -4 0.11782813E-01 0.12499705E+03</pdfrwt>
<totfact> 0.19565324E+03</totfact>
</mgrwt>
</event>
<event>
 5    1  0.1423270E-002  0.1249964E+03  0.7818608E-02  0.1235075E+00
         -4   -1    0    0    0  501 -0.00000000000E+00  0.00000000000E+00  0.17545760441E+02  0.17591663067E+02  0.12700000000E+01 0.  1.
          4   -1    0    0  501    0  0.00000000000E+00 -0.00000000000E+00 -0.22228064084E+03  0.22228426888E+03  0.12700000000E+01 0.  1.
         25    2    1    2    0    0  0.00000000000E+00  0.00000000000E+00 -0.20473488040E+03  0.23987593195E+03  0.12499636585E+03 0.  0.
    9000005    1    3    3    0    0 -0.88161274326E+01 -0.54471341644E+02 -0.15865103982E+03  0.16797619950E+03  0.10000000000E+01 0.  0.
    9000005    1    3    3    0    0  0.88161274326E+01  0.54471341644E+02 -0.46083840582E+02  0.71899732448E+02  0.10000000000E+01 0.  0.
<mgrwt>
<rscale>  0 0.12499637E+03</rscale>
<asrwt>0</asrwt>
<pdfrwt beam="2">  1        4 0.55576343E-01 0.12499637E+03</pdfrwt>
<pdfrwt beam="1">  1       -4 0.43926321E-02 0.12499637E+03</pdfrwt>
<totfact> 0.14841970E+03</totfact>
</mgrwt>
</event>
<event>
 5    1  0.1423270E-002  0.1249982E+03  0.7818608E-02  0.1235072E+00
         -4   -1    0    0    0  501 -0.00000000000E+00  0.00000000000E+00  0.87173108766E+01  0.88093364631E+01  0.12700000000E+01 0.  1.
          4   -1    0    0  501    0  0.00000000000E+00 -0.00000000000E+00 -0.44564401065E+03  0.44564582027E+03  0.12700000000E+01 0.  1.
         25    2    1    2    0    0  0.00000000000E+00  0.00000000000E+00 -0.43692669977E+03  0.45445515673E+03  0.12499819403E+03 0.  0.
    9000005    1    3    3    0    0  0.53389556851E+02  0.14089100565E+02 -0.11208034100E+03  0.12494779060E+03  0.10000000000E+01 0.  0.
    9000005    1    3    3    0    0 -0.53389556851E+02 -0.14089100565E+02 -0.32484635877E+03  0.32950736614E+03  0.10000000000E+01 0.  0.
<mgrwt>
<rscale>  0 0.12499819E+03</rscale>
<asrwt>0</asrwt>
<pdfrwt beam="2">  1        4 0.11142266E+00 0.12499819E+03</pdfrwt>
<pdfrwt beam="1">  1       -4 0.21910586E-02 0.12499819E+03</pdfrwt>
<totfact> 0.95226521E+02</totfact>
</mgrwt>
</event>
<event>
 5    1  0.1423270E-002  0.1249999E+03  0.7818608E-02  0.1235069E+00
         -4   -1    0    0    0  501 -0.00000000000E+00  0.00000000000E+00  0.76292933182E+02  0.76303502891E+02  0.12700000000E+01 0. -1.
          4   -1    0    0  501    0  0.00000000000E+00 -0.00000000000E+00 -0.51178620185E+02  0.51194375317E+02  0.12700000000E+01 0. -1.
         25    2    1    2    0    0  0.00000000000E+00  0.00000000000E+00  0.25114312996E+02  0.12749787821E+03  0.12499992092E+03 0.  0.
    9000005    1    3    3    0    0  0.11933044134E+02 -0.10903766173E+02 -0.49014345130E+02  0.51620690499E+02  0.10000000000E+01 0.  0.
    9000005    1    3    3    0    0 -0.11933044134E+02  0.10903766173E+02  0.74128658126E+02  0.75877187709E+02  0.10000000000E+01 0.  0.
<mgrwt>
<rscale>  0 0.12499992E+03</rscale>
<asrwt>0</asrwt>
<pdfrwt beam="2">  1        4 0.12797946E-01 0.12499992E+03</pdfrwt>
<pdfrwt beam="1">  1       -4 0.19076524E-01 0.12499992E+03</pdfrwt>
<totfact> 0.19699937E+03</totfact>
</mgrwt>
</event>
<event>
 5    1  0.1423270E-002  0.1249999E+03  0.7818608E-02  0.1235069E+00
         -4   -1    0    0    0  501 -0.00000000000E+00  0.00000000000E+00  0.21331590582E+02  0.21369362573E+02  0.12700000000E+01 0. -1.
          4   -1    0    0  501    0  0.00000000000E+00 -0.00000000000E+00 -0.18291808326E+03  0.18292249201E+03  0.12700000000E+01 0. -1.
         25    2    1    2    0    0  0.00000000000E+00  0.00000000000E+00 -0.16158649268E+03  0.20429185459E+03  0.12499986893E+03 0.  0.
    9000005    1    3    3    0    0 -0.14359696534E+02 -0.42091061789E+02 -0.15254384932E+03  0.15889771657E+03  0.10000000000E+01 0.  0.
    9000005    1    3    3    0    0  0.14359696534E+02  0.42091061789E+02 -0.90426433620E+01  0.45394138014E+02  0.10000000000E+01 0.  0.
<mgrwt>
<rscale>  0 0.12499987E+03</rscale>
<asrwt>0</asrwt>
<pdfrwt beam="2">  1        4 0.45734789E-01 0.12499987E+03</pdfrwt>
<pdfrwt beam="1">  1       -4 0.53381708E-02 0.12499987E+03</pdfrwt>
<totfact> 0.16151669E+03</totfact>
</mgrwt>
</event>
<event>
 5    1  0.1423270E-002  0.1249989E+03  0.7818608E-02  0.1235071E+00
          4   -1    0    0  501    0  0.00000000000E+00  0.00000000000E+00  0.12071387690E+03  0.12072055739E+03  0.12700000000E+01 0.  1.
         -4   -1    0    0    0  501 -0.00000000000E+00 -0.00000000000E+00 -0.32338984474E+02  0.32363912261E+02  0.12700000000E+01 0.  1.
         25    2    1    2    0    0  0.00000000000E+00  0.00000000000E+00  0.88374892429E+02  0.15308446965E+03  0.12499893294E+03 0.  0.
    9000005    1    3    3    0    0 -0.22335395516E+02 -0.63045575797E+01 -0.26871439488E+02  0.35520298412E+02  0.10000000000E+01 0.  0.
    9000005    1    3    3    0    0  0.22335395516E+02  0.63045575797E+01  0.11524633192E+03  0.11756417124E+03  0.10000000000E+01 0.  0.
<mgrwt>
<rscale>  0 0.12499893E+03</rscale>
<asrwt>0</asrwt>
<pdfrwt beam="1">  1        4 0.30182420E-01 0.12499893E+03</pdfrwt>
<pdfrwt beam="2">  1       -4 0.80886972E-02 0.12499893E+03</pdfrwt>
<totfact> 0.18388607E+03</totfact>
</mgrwt>
</event>
<event>
 5    1  0.1423270E-002  0.1250012E+03  0.7818608E-02  0.1235067E+00
          4   -1    0    0  501    0  0.00000000000E+00  0.00000000000E+00  0.34100123480E+02  0.34123764760E+02  0.12700000000E+01 0. -1.
         -4   -1    0    0    0  501 -0.00000000000E+00 -0.00000000000E+00 -0.11448768109E+03  0.11449472486E+03  0.12700000000E+01 0. -1.
         25    2    1    2    0    0  0.00000000000E+00  0.00000000000E+00 -0.80387557611E+02  0.14861848962E+03  0.12500118415E+03 0.  0.
    9000005    1    3    3    0    0  0.10879761220E+02  0.55111662154E+02 -0.76407996025E+01  0.56701378538E+02  0.10000000000E+01 0.  0.
    9000005    1    3    3    0    0 -0.10879761220E+02 -0.55111662154E+02 -0.72746758009E+02  0.91917111086E+02  0.10000000000E+01 0.  0.
<mgrwt>
<rscale>  0 0.12500118E+03</rscale>
<asrwt>0</asrwt>
<pdfrwt beam="1">  1        4 0.85288668E-02 0.12500118E+03</pdfrwt>
<pdfrwt beam="2">  1       -4 0.28625755E-01 0.12500118E+03</pdfrwt>
<totfact> 0.18606406E+03</totfact>
</mgrwt>
</event>
<event>
 5    1  0.1423270E-002  0.1250031E+03  0.7818608E-02  0.1235064E+00
          4   -1    0    0  501    0  0.00000000000E+00  0.00000000000E+00  0.23554132472E+03  0.23554474851E+03  0.12700000000E+01 0. -1.
         -4   -1    0    0    0  501 -0.00000000000E+00 -0.00000000000E+00 -0.16557099416E+02  0.16605735186E+02  0.12700000000E+01 0. -1.
         25    2    1    2    0    0  0.00000000000E+00  0.00000000000E+00  0.21898422530E+03  0.25215048369E+03  0.12500310195E+03 0.  0.
    9000005    1    3    3    0    0  0.34098428657E+02  0.44275132211E+02  0.53067531870E+02  0.77072388752E+02  0.10000000000E+01 0.  0.
    9000005    1    3    3    0    0 -0.34098428657E+02 -0.44275132211E+02  0.16591669343E+03  0.17507809494E+03  0.10000000000E+01 0.  0.
<mgrwt>
<rscale>  0 0.12500310E+03</rscale>
<asrwt>0</asrwt>
<pdfrwt beam="1">  1        4 0.58891838E-01 0.12500310E+03</pdfrwt>
<pdfrwt beam="2">  1       -4 0.41457824E-02 0.12500310E+03</pdfrwt>
<totfact> 0.14425693E+03</totfact>
</mgrwt>
</event>
<event>
 5    1  0.1423270E-002  0.1250049E+03  0.7818608E-02  0.1235062E+00
         -4   -1    0    0    0  501 -0.00000000000E+00  0.00000000000E+00  0.17241330171E+02  0.17288041128E+02  0.12700000000E+01 0. -1.
          4   -1    0    0  501    0  0.00000000000E+00 -0.00000000000E+00 -0.22622605710E+03  0.22622962187E+03  0.12700000000E+01 0. -1.
         25    2    1    2    0    0  0.00000000000E+00  0.00000000000E+00 -0.20898472693E+03  0.24351766300E+03  0.12500494431E+03 0.  0.
    9000005    1    3    3    0    0  0.17083744281E+02 -0.56872577900E+02 -0.14242786195E+03  0.15431474426E+03  0.10000000000E+01 0.  0.
    9000005    1    3    3    0    0 -0.17083744281E+02  0.56872577900E+02 -0.66556864975E+02  0.89202918735E+02  0.10000000000E+01 0.  0.
<mgrwt>
<rscale>  0 0.12500494E+03</rscale>
<asrwt>0</asrwt>
<pdfrwt beam="2">  1        4 0.56562789E-01 0.12500494E+03</pdfrwt>
<pdfrwt beam="1">  1       -4 0.43166177E-02 0.12500494E+03</pdfrwt>
<totfact> 0.14714354E+03</totfact>
</mgrwt>
</event>
<event>
 5    1  0.1423270E-002  0.1249924E+03  0.7818608E-02  0.1235081E+00
          4   -1    0    0  501    0  0.00000000000E+00  0.00000000000E+00  0.60414180453E+02  0.60427527666E+02  0.12700000000E+01 0.  1.
         -4   -1    0    0    0  501 -0.00000000000E+00 -0.00000000000E+00 -0.64623281642E+02  0.64635759686E+02  0.12700000000E+01 0.  1.
         25    2    1    2    0    0  0.00000000000E+00  0.00000000000E+00 -0.42091011890E+01  0.12506328735E+03  0.12499243701E+03 0.  0.
    9000005    1    3    3    0    0 -0.39843545540E+02 -0.18690506956E+01  0.46024439286E+02  0.60911825480E+02  0.10000000000E+01 0.  0.
    9000005    1    3    3    0    0  0.39843545540E+02  0.18690506956E+01 -0.50233540475E+02  0.64151461872E+02  0.10000000000E+01 0.  0.
<mgrwt>
<rscale>  0 0.12499244E+03</rscale>
<asrwt>0</asrwt>
<pdfrwt beam="1">  1        4 0.15106773E-01 0.12499244E+03</pdfrwt>
<pdfrwt beam="2">  1       -4 0.16159049E-01 0.12499244E+03</pdfrwt>
<totfact> 0.19835133E+03</totfact>
</mgrwt>
</event>
<event>
 5    1  0.1423270E-002  0.1250018E+03  0.7818608E-02  0.1235066E+00
          4   -1    0    0  501    0  0.00000000000E+00  0.00000000000E+00  0.16645446058E+04  0.16645450903E+04  0.12700000000E+01 0.  1.
         -4   -1    0    0    0  501 -0.00000000000E+00 -0.00000000000E+00 -0.21744668654E+01  0.25181751625E+01  0.12700000000E+01 0.  1.
         25    2    1    2    0    0  0.00000000000E+00  0.00000000000E+00  0.16623701389E+04  0.16670632654E+04  0.12500180874E+03 0.  0.
    9000005    1    3    3    0    0  0.41371732283E+02  0.26038271416E+02  0.13504030817E+04  0.13512879393E+04  0.10000000000E+01 0.  0.
    9000005    1    3    3    0    0 -0.41371732283E+02 -0.26038271416E+02  0.31196705726E+03  0.31577532618E+03  0.10000000000E+01 0.  0.
<mgrwt>
<rscale>  0 0.12500181E+03</rscale>
<asrwt>0</asrwt>
<pdfrwt beam="1">  1        4 0.41617962E+00 0.12500181E+03</pdfrwt>
<pdfrwt beam="2">  1       -4 0.58664019E-03 0.12500181E+03</pdfrwt>
<totfact> 0.78129334E+01</totfact>
</mgrwt>
</event>
<event>
 5    1  0.1423270E-002  0.1250001E+03  0.7818608E-02  0.1235069E+00
          4   -1    0    0  501    0  0.00000000000E+00  0.00000000000E+00  0.11096094161E+03  0.11096820924E+03  0.12700000000E+01 0.  1.
         -4   -1    0    0    0  501 -0.00000000000E+00 -0.00000000000E+00 -0.35183985078E+02  0.35206898556E+02  0.12700000000E+01 0.  1.
         25    2    1    2    0    0  0.00000000000E+00  0.00000000000E+00  0.75776956529E+02  0.14617510780E+03  0.12500006000E+03 0.  0.
    9000005    1    3    3    0    0 -0.35466492472E+01  0.11606635240E+02 -0.33798345488E+02  0.35925212041E+02  0.10000000000E+01 0.  0.
    9000005    1    3    3    0    0  0.35466492472E+01 -0.11606635240E+02  0.10957530202E+03  0.11024989576E+03  0.10000000000E+01 0.  0.
<mgrwt>
<rscale>  0 0.12500006E+03</rscale>
<asrwt>0</asrwt>
<pdfrwt beam="1">  1        4 0.27744008E-01 0.12500006E+03</pdfrwt>
<pdfrwt beam="2">  1       -4 0.87997690E-02 0.12500006E+03</pdfrwt>
<totfact> 0.18728438E+03</totfact>
</mgrwt>
</event>
<event>
 5    1  0.1423270E-002  0.1250023E+03  0.7818608E-02  0.1235066E+00
          4   -1    0    0  501    0  0.00000000000E+00  0.00000000000E+00  0.10060356543E+02  0.10140200874E+02  0.12700000000E+01 0.  1.
         -4   -1    0    0    0  501 -0.00000000000E+00 -0.00000000000E+00 -0.38667985979E+03  0.38668194536E+03  0.12700000000E+01 0.  1.
         25    2    1    2    0    0  0.00000000000E+00  0.00000000000E+00 -0.37661950325E+03  0.39682214623E+03  0.12500226204E+03 0.  0.
    9000005    1    3    3    0    0 -0.35782086196E+02  0.49082391897E+02 -0.23496034149E+03  0.24268663120E+03  0.10000000000E+01 0.  0.
    9000005    1    3    3    0    0  0.35782086196E+02 -0.49082391897E+02 -0.14165916176E+03  0.15413551504E+03  0.10000000000E+01 0.  0.
<mgrwt>
<rscale>  0 0.12500226E+03</rscale>
<asrwt>0</asrwt>
<pdfrwt beam="1">  1        4 0.25253317E-02 0.12500226E+03</pdfrwt>
<pdfrwt beam="2">  1       -4 0.96680157E-01 0.12500226E+03</pdfrwt>
<totfact> 0.10634408E+03</totfact>
</mgrwt>
</event>
<event>
 5    1  0.1423270E-002  0.1250071E+03  0.7818608E-02  0.1235058E+00
          4   -1    0    0  501    0  0.00000000000E+00  0.00000000000E+00  0.12989479594E+02  0.13051416786E+02  0.12700000000E+01 0.  1.
         -4   -1    0    0    0  501 -0.00000000000E+00 -0.00000000000E+00 -0.29997949649E+03  0.29998218483E+03  0.12700000000E+01 0.  1.
         25    2    1    2    0    0  0.00000000000E+00  0.00000000000E+00 -0.28699001690E+03  0.31303360162E+03  0.12500706357E+03 0.  0.
    9000005    1    3    3    0    0 -0.10293792145E+02 -0.41146273085E+01  0.10520001045E+02  0.15315441117E+02  0.10000000000E+01 0.  0.
    9000005    1    3    3    0    0  0.10293792145E+02  0.41146273085E+01 -0.29751001795E+03  0.29771816050E+03  0.10000000000E+01 0.  0.
<mgrwt>
<rscale>  0 0.12500706E+03</rscale>
<asrwt>0</asrwt>
<pdfrwt beam="1">  1        4 0.32554491E-02 0.12500706E+03</pdfrwt>
<pdfrwt beam="2">  1       -4 0.75002930E-01 0.12500706E+03</pdfrwt>
<totfact> 0.12611433E+03</totfact>
</mgrwt>
</event>
<event>
 5    1  0.1423270E-002  0.1249974E+03  0.7818608E-02  0.1235073E+00
         -4   -1    0    0    0  501 -0.00000000000E+00  0.00000000000E+00  0.49579448480E+02  0.49595711625E+02  0.12700000000E+01 0. -1.
          4   -1    0    0  501    0  0.00000000000E+00 -0.00000000000E+00 -0.78750049149E+02  0.78760289112E+02  0.12700000000E+01 0. -1.
         25    2    1    2    0    0  0.00000000000E+00  0.00000000000E+00 -0.29170600669E+02  0.12835600074E+03  0.12499735590E+03 0.  0.
    9000005    1    3    3    0    0 -0.31231663502E+02  0.15370763671E+02 -0.67877836484E+02  0.76289434830E+02  0.10000000000E+01 0.  0.
    9000005    1    3    3    0    0  0.31231663502E+02 -0.15370763671E+02  0.38707235815E+02  0.52066565907E+02  0.10000000000E+01 0.  0.
<mgrwt>
<rscale>  0 0.12499736E+03</rscale>
<asrwt>0</asrwt>
<pdfrwt beam="2">  1        4 0.19690825E-01 0.12499736E+03</pdfrwt>
<pdfrwt beam="1">  1       -4 0.12398175E-01 0.12499736E+03</pdfrwt>
<totfact> 0.19654399E+03</totfact>
</mgrwt>
</event>
<event>
 5    1  0.1423270E-002  0.1250001E+03  0.7818608E-02  0.1235069E+00
          4   -1    0    0  501    0  0.00000000000E+00  0.00000000000E+00  0.57602498664E+03  0.57602638667E+03  0.12700000000E+01 0. -1.
         -4   -1    0    0    0  501 -0.00000000000E+00 -0.00000000000E+00 -0.67205196319E+01  0.68394651928E+01  0.12700000000E+01 0. -1.
         25    2    1    2    0    0  0.00000000000E+00  0.00000000000E+00  0.56930446701E+03  0.58286585186E+03  0.12500010042E+03 0.  0.
    9000005    1    3    3    0    0 -0.48685400775E+02 -0.35319212580E+02  0.36372161269E+03  0.36866261889E+03  0.10000000000E+01 0.  0.
    9000005    1    3    3    0    0  0.48685400775E+02  0.35319212580E+02  0.20558285432E+03  0.21420323297E+03  0.10000000000E+01 0.  0.
<mgrwt>
<rscale>  0 0.12500010E+03</rscale>
<asrwt>0</asrwt>
<pdfrwt beam="1">  1        4 0.14402132E+00 0.12500010E+03</pdfrwt>
<pdfrwt beam="2">  1       -4 0.16951727E-02 0.12500010E+03</pdfrwt>
<totfact> 0.75701750E+02</totfact>
</mgrwt>
</event>
<event>
 5    1  0.1423270E-002  0.1250045E+03  0.7818608E-02  0.1235062E+00
         -4   -1    0    0    0  501 -0.00000000000E+00  0.00000000000E+00  0.71614433070E+03  0.71614545680E+03  0.12700000000E+01 0.  1.
          4   -1    0    0  501    0  0.00000000000E+00 -0.00000000000E+00 -0.53798821127E+01  0.55277510388E+01  0.12700000000E+01 0.  1.
         25    2    1    2    0    0  0.00000000000E+00  0.00000000000E+00  0.71076444859E+03  0.72167320784E+03  0.12500447006E+03 0.  0.
    9000005    1    3    3    0    0 -0.40177576660E+02  0.24384343961E+02  0.59318503937E+03  0.59504480910E+03  0.10000000000E+01 0.  0.
    9000005    1    3    3    0    0  0.40177576660E+02 -0.24384343961E+02  0.11757940922E+03  0.12662839874E+03  0.10000000000E+01 0.  0.
<mgrwt>
<rscale>  0 0.12500447E+03</rscale>
<asrwt>0</asrwt>
<pdfrwt beam="2">  1        4 0.13635950E-02 0.12500447E+03</pdfrwt>
<pdfrwt beam="1">  1       -4 0.17905470E+00 0.12500447E+03</pdfrwt>
<totfact> 0.59839011E+02</totfact>
</mgrwt>
</event>
<event>
 5    1  0.1423270E-002  0.1250011E+03  0.7818608E-02  0.1235068E+00
          4   -1    0    0  501    0  0.00000000000E+00  0.00000000000E+00  0.87416910744E+02  0.87426135589E+02  0.12700000000E+01 0.  1.
         -4   -1    0    0    0  501 -0.00000000000E+00 -0.00000000000E+00 -0.44665449822E+02  0.44683501517E+02  0.12700000000E+01 0.  1.
         25    2    1    2    0    0  0.00000000000E+00  0.00000000000E+00  0.42751460921E+02  0.13210963711E+03  0.12500107522E+03 0.  0.
    9000005    1    3    3    0    0  0.42974569282E+02 -0.12486198021E+02  0.67475029397E+02  0.80972824689E+02  0.10000000000E+01 0.  0.
    9000005    1    3    3    0    0 -0.42974569282E+02  0.12486198021E+02 -0.24723568475E+02  0.51136812417E+02  0.10000000000E+01 0.  0.
<mgrwt>
<rscale>  0 0.12500108E+03</rscale>
<asrwt>0</asrwt>
<pdfrwt beam="1">  1        4 0.21857637E-01 0.12500108E+03</pdfrwt>
<pdfrwt beam="2">  1       -4 0.11169772E-01 0.12500108E+03</pdfrwt>
<totfact> 0.19451138E+03</totfact>
</mgrwt>
</event>
<event>
 5    1  0.1423270E-002  0.1249940E+03  0.7818608E-02  0.1235079E+00
          4   -1    0    0  501    0  0.00000000000E+00  0.00000000000E+00  0.16526588882E+02  0.16575314178E+02  0.12700000000E+01 0. -1.
         -4   -1    0    0    0  501 -0.00000000000E+00 -0.00000000000E+00 -0.23594055438E+03  0.23594397238E+03  0.12700000000E+01 0. -1.
         25    2    1    2    0    0  0.00000000000E+00  0.00000000000E+00 -0.21941396550E+03  0.25251928656E+03  0.12499400716E+03 0.  0.
    9000005    1    3    3    0    0  0.18998129404E+02 -0.86024552021E+01  0.92984023776E+01  0.22855884213E+02  0.10000000000E+01 0.  0.
    9000005    1    3    3    0    0 -0.18998129404E+02  0.86024552021E+01 -0.22871236788E+03  0.22966340235E+03  0.10000000000E+01 0.  0.
<mgrwt>
<rscale>  0 0.12499401E+03</rscale>
<asrwt>0</asrwt>
<pdfrwt beam="1">  1        4 0.41381659E-02 0.12499401E+03</pdfrwt>
<pdfrwt beam="2">  1       -4 0.58991646E-01 0.12499401E+03</pdfrwt>
<totfact> 0.14416543E+03</totfact>
</mgrwt>
</event>
<event>
 5    1  0.1423270E-002  0.1249962E+03  0.7818608E-02  0.1235075E+00
          4   -1    0    0  501    0  0.00000000000E+00  0.00000000000E+00  0.25689929530E+02  0.25721302052E+02  0.12700000000E+01 0.  1.
         -4   -1    0    0    0  501 -0.00000000000E+00 -0.00000000000E+00 -0.15191776896E+03  0.15192307733E+03  0.12700000000E+01 0.  1.
         25    2    1    2    0    0  0.00000000000E+00  0.00000000000E+00 -0.12622783943E+03  0.17764437938E+03  0.12499623226E+03 0.  0.
    9000005    1    3    3    0    0 -0.30010821523E+02  0.48269956240E+02 -0.10002066454E+03  0.11504682272E+03  0.10000000000E+01 0.  0.
    9000005    1    3    3    0    0  0.30010821523E+02 -0.48269956240E+02 -0.26207174888E+02  0.62597556658E+02  0.10000000000E+01 0.  0.
<mgrwt>
<rscale>  0 0.12499623E+03</rscale>
<asrwt>0</asrwt>
<pdfrwt beam="1">  1        4 0.64270679E-02 0.12499623E+03</pdfrwt>
<pdfrwt beam="2">  1       -4 0.37984025E-01 0.12499623E+03</pdfrwt>
<totfact> 0.17259173E+03</totfact>
</mgrwt>
</event>
<event>
 5    1  0.1423270E-002  0.1249953E+03  0.7818608E-02  0.1235077E+00
          4   -1    0    0  501    0  0.00000000000E+00  0.00000000000E+00  0.19962074160E+02  0.20002432471E+02  0.12700000000E+01 0.  1.
         -4   -1    0    0    0  501 -0.00000000000E+00 -0.00000000000E+00 -0.19542870121E+03  0.19543282773E+03  0.12700000000E+01 0.  1.
         25    2    1    2    0    0  0.00000000000E+00  0.00000000000E+00 -0.17546662705E+03  0.21543526020E+03  0.12499525644E+03 0.  0.
    9000005    1    3    3    0    0  0.51091471150E+02 -0.11695738257E+01 -0.25751535825E+02  0.57235023583E+02  0.10000000000E+01 0.  0.
    9000005    1    3    3    0    0 -0.51091471150E+02  0.11695738257E+01 -0.14971509122E+03  0.15820023662E+03  0.10000000000E+01 0.  0.
<mgrwt>
<rscale>  0 0.12499526E+03</rscale>
<asrwt>0</asrwt>
<pdfrwt beam="1">  1        4 0.49960797E-02 0.12499526E+03</pdfrwt>
<pdfrwt beam="2">  1       -4 0.48862730E-01 0.12499526E+03</pdfrwt>
<totfact> 0.15723817E+03</totfact>
</mgrwt>
</event>
<event>
 5    1  0.1423270E-002  0.1249743E+03  0.7818608E-02  0.1235109E+00
         -4   -1    0    0    0  501 -0.00000000000E+00  0.00000000000E+00  0.12955425706E+02  0.13017524927E+02  0.12700000000E+01 0. -1.
          4   -1    0    0  501    0  0.00000000000E+00 -0.00000000000E+00 -0.30060645549E+03  0.30060913822E+03  0.12700000000E+01 0. -1.
         25    2    1    2    0    0  0.00000000000E+00  0.00000000000E+00 -0.28765102978E+03  0.31362666315E+03  0.12497427296E+03 0.  0.
    9000005    1    3    3    0    0  0.28857929418E+02 -0.40475449781E+02 -0.48840554260E+02  0.69695350388E+02  0.10000000000E+01 0.  0.
    9000005    1    3    3    0    0 -0.28857929418E+02  0.40475449781E+02 -0.23881047552E+03  0.24393131276E+03  0.10000000000E+01 0.  0.
<mgrwt>
<rscale>  0 0.12497427E+03</rscale>
<asrwt>0</asrwt>
<pdfrwt beam="2">  1        4 0.75159689E-01 0.12497427E+03</pdfrwt>
<pdfrwt beam="1">  1       -4 0.32469552E-02 0.12497427E+03</pdfrwt>
<totfact> 0.12604981E+03</totfact>
</mgrwt>
</event>
<event>
 5    1  0.1423270E-002  0.1250037E+03  0.7818608E-02  0.1235063E+00
          4   -1    0    0  501    0  0.00000000000E+00  0.00000000000E+00  0.62228314496E+02  0.62241272682E+02  0.12700000000E+01 0.  1.
         -4   -1    0    0    0  501 -0.00000000000E+00 -0.00000000000E+00 -0.62750684511E+02  0.62763534848E+02  0.12700000000E+01 0.  1.
         25    2    1    2    0    0  0.00000000000E+00  0.00000000000E+00 -0.52237001467E+00  0.12500480753E+03  0.12500371608E+03 0.  0.
    9000005    1    3    3    0    0 -0.91791028524E+01  0.44397047986E+02  0.42752310176E+02  0.62322658997E+02  0.10000000000E+01 0.  0.
    9000005    1    3    3    0    0  0.91791028524E+01 -0.44397047986E+02 -0.43274680190E+02  0.62682148533E+02  0.10000000000E+01 0.  0.
<mgrwt>
<rscale>  0 0.12500372E+03</rscale>
<asrwt>0</asrwt>
<pdfrwt beam="1">  1        4 0.15560305E-01 0.12500372E+03</pdfrwt>
<pdfrwt beam="2">  1       -4 0.15690897E-01 0.12500372E+03</pdfrwt>
<totfact> 0.19833070E+03</totfact>
</mgrwt>
</event>
<event>
 5    1  0.1423270E-002  0.1250048E+03  0.7818608E-02  0.1235062E+00
         -4   -1    0    0    0  501 -0.00000000000E+00  0.00000000000E+00  0.56798685961E+02  0.56812882578E+02  0.12700000000E+01 0.  1.
          4   -1    0    0  501    0  0.00000000000E+00 -0.00000000000E+00 -0.68750193796E+02  0.68761922944E+02  0.12700000000E+01 0.  1.
         25    2    1    2    0    0  0.00000000000E+00  0.00000000000E+00 -0.11951507836E+02  0.12557480552E+03  0.12500477288E+03 0.  0.
    9000005    1    3    3    0    0  0.66077664048E+01 -0.61792440794E+02  0.65586412731E+00  0.62156242437E+02  0.10000000000E+01 0.  0.
    9000005    1    3    3    0    0 -0.66077664048E+01  0.61792440794E+02 -0.12607371963E+02  0.63418563086E+02  0.10000000000E+01 0.  0.
<mgrwt>
<rscale>  0 0.12500477E+03</rscale>
<asrwt>0</asrwt>
<pdfrwt beam="2">  1        4 0.17190789E-01 0.12500477E+03</pdfrwt>
<pdfrwt beam="1">  1       -4 0.14202912E-01 0.12500477E+03</pdfrwt>
<totfact> 0.19801703E+03</totfact>
</mgrwt>
</event>
<event>
 5    1  0.1423270E-002  0.1250003E+03  0.7818608E-02  0.1235069E+00
         -4   -1    0    0    0  501 -0.00000000000E+00  0.00000000000E+00  0.33205375954E+03  0.33205618820E+03  0.12700000000E+01 0.  1.
          4   -1    0    0  501    0  0.00000000000E+00 -0.00000000000E+00 -0.11727203516E+02  0.11795770527E+02  0.12700000000E+01 0.  1.
         25    2    1    2    0    0  0.00000000000E+00  0.00000000000E+00  0.32032655602E+03  0.34385195873E+03  0.12500026812E+03 0.  0.
    9000005    1    3    3    0    0  0.61394801163E+02  0.10352231330E+02  0.14540691960E+03  0.15817921030E+03  0.10000000000E+01 0.  0.
    9000005    1    3    3    0    0 -0.61394801163E+02 -0.10352231330E+02  0.17491963642E+03  0.18567274843E+03  0.10000000000E+01 0.  0.
<mgrwt>
<rscale>  0 0.12500027E+03</rscale>
<asrwt>0</asrwt>
<pdfrwt beam="2">  1        4 0.29406753E-02 0.12500027E+03</pdfrwt>
<pdfrwt beam="1">  1       -4 0.83022315E-01 0.12500027E+03</pdfrwt>
<totfact> 0.11825246E+03</totfact>
</mgrwt>
</event>
<event>
 5    1  0.1423270E-002  0.1249999E+03  0.7818608E-02  0.1235069E+00
         -4   -1    0    0    0  501 -0.00000000000E+00  0.00000000000E+00  0.69983659730E+03  0.69983774964E+03  0.12700000000E+01 0. -1.
          4   -1    0    0  501    0  0.00000000000E+00 -0.00000000000E+00 -0.55082377291E+01  0.56527500281E+01  0.12700000000E+01 0. -1.
         25    2    1    2    0    0  0.00000000000E+00  0.00000000000E+00  0.69432835957E+03  0.70549049967E+03  0.12499989687E+03 0.  0.
    9000005    1    3    3    0    0  0.61532764920E+02 -0.10415183562E+01  0.40844114129E+03  0.41305269860E+03  0.10000000000E+01 0.  0.
    9000005    1    3    3    0    0 -0.61532764920E+02  0.10415183562E+01  0.28588721827E+03  0.29243780107E+03  0.10000000000E+01 0.  0.
<mgrwt>
<rscale>  0 0.12499990E+03</rscale>
<asrwt>0</asrwt>
<pdfrwt beam="2">  1        4 0.13952677E-02 0.12499990E+03</pdfrwt>
<pdfrwt beam="1">  1       -4 0.17497734E+00 0.12499990E+03</pdfrwt>
<totfact> 0.61495161E+02</totfact>
</mgrwt>
</event>
<event>
 5    1  0.1423270E-002  0.1250033E+03  0.7818608E-02  0.1235064E+00
          4   -1    0    0  501    0  0.00000000000E+00  0.00000000000E+00  0.24037036847E+02  0.24070563773E+02  0.12700000000E+01 0. -1.
         -4   -1    0    0    0  501 -0.00000000000E+00 -0.00000000000E+00 -0.16236903863E+03  0.16237400532E+03  0.12700000000E+01 0. -1.
         25    2    1    2    0    0  0.00000000000E+00  0.00000000000E+00 -0.13833200178E+03  0.18644456910E+03  0.12500333847E+03 0.  0.
    9000005    1    3    3    0    0 -0.61243550309E+02  0.59303961762E+01 -0.52860195762E+02  0.81124240208E+02  0.10000000000E+01 0.  0.
    9000005    1    3    3    0    0  0.61243550309E+02 -0.59303961762E+01 -0.85471806017E+02  0.10532032889E+03  0.10000000000E+01 0.  0.
<mgrwt>
<rscale>  0 0.12500334E+03</rscale>
<asrwt>0</asrwt>
<pdfrwt beam="1">  1        4 0.60140714E-02 0.12500334E+03</pdfrwt>
<pdfrwt beam="2">  1       -4 0.40597068E-01 0.12500334E+03</pdfrwt>
<totfact> 0.16878304E+03</totfact>
</mgrwt>
</event>
<event>
 5    1  0.1423270E-002  0.1249984E+03  0.7818608E-02  0.1235072E+00
         -4   -1    0    0    0  501 -0.00000000000E+00  0.00000000000E+00  0.21224420076E+02  0.21262382453E+02  0.12700000000E+01 0.  1.
          4   -1    0    0  501    0  0.00000000000E+00 -0.00000000000E+00 -0.18383578246E+03  0.18384016920E+03  0.12700000000E+01 0.  1.
         25    2    1    2    0    0  0.00000000000E+00  0.00000000000E+00 -0.16261136238E+03  0.20510255165E+03  0.12499840607E+03 0.  0.
    9000005    1    3    3    0    0 -0.12971032776E+02  0.24107188131E+02  0.10870268352E+02  0.29471459837E+02  0.10000000000E+01 0.  0.
    9000005    1    3    3    0    0  0.12971032776E+02 -0.24107188131E+02 -0.17348163073E+03  0.17563109181E+03  0.10000000000E+01 0.  0.
<mgrwt>
<rscale>  0 0.12499841E+03</rscale>
<asrwt>0</asrwt>
<pdfrwt beam="2">  1        4 0.45964234E-01 0.12499841E+03</pdfrwt>
<pdfrwt beam="1">  1       -4 0.53113992E-02 0.12499841E+03</pdfrwt>
<totfact> 0.16120341E+03</totfact>
</mgrwt>
</event>
<event>
 5    1  0.1423270E-002  0.1250018E+03  0.7818608E-02  0.1235066E+00
         -4   -1    0    0    0  501 -0.00000000000E+00  0.00000000000E+00  0.70898137102E+02  0.70909510960E+02  0.12700000000E+01 0. -1.
          4   -1    0    0  501    0  0.00000000000E+00 -0.00000000000E+00 -0.55075125161E+02  0.55089765942E+02  0.12700000000E+01 0. -1.
         25    2    1    2    0    0  0.00000000000E+00  0.00000000000E+00  0.15823011941E+02  0.12599927690E+03  0.12500180028E+03 0.  0.
    9000005    1    3    3    0    0 -0.44428108249E+02 -0.43926925845E+02  0.65108488191E+01  0.62823743673E+02  0.10000000000E+01 0.  0.
    9000005    1    3    3    0    0  0.44428108249E+02  0.43926925845E+02  0.93121631221E+01  0.63175533229E+02  0.10000000000E+01 0.  0.
<mgrwt>
<rscale>  0 0.12500180E+03</rscale>
<asrwt>0</asrwt>
<pdfrwt beam="2">  1        4 0.13772033E-01 0.12500180E+03</pdfrwt>
<pdfrwt beam="1">  1       -4 0.17727786E-01 0.12500180E+03</pdfrwt>
<totfact> 0.19780126E+03</totfact>
</mgrwt>
</event>
<event>
 5    1  0.1423270E-002  0.1249943E+03  0.7818608E-02  0.1235078E+00
          4   -1    0    0  501    0  0.00000000000E+00  0.00000000000E+00  0.14279506845E+03  0.14280071595E+03  0.12700000000E+01 0. -1.
         -4   -1    0    0    0  501 -0.00000000000E+00 -0.00000000000E+00 -0.27332208495E+02  0.27361698069E+02  0.12700000000E+01 0. -1.
         25    2    1    2    0    0  0.00000000000E+00  0.00000000000E+00  0.11546285996E+03  0.17016241402E+03  0.12499430032E+03 0.  0.
    9000005    1    3    3    0    0  0.60007676392E+02 -0.10915309308E+02  0.76239365851E+02  0.97639674869E+02  0.10000000000E+01 0.  0.
    9000005    1    3    3    0    0 -0.60007676392E+02  0.10915309308E+02  0.39223494108E+02  0.72522739146E+02  0.10000000000E+01 0.  0.
<mgrwt>
<rscale>  0 0.12499430E+03</rscale>
<asrwt>0</asrwt>
<pdfrwt beam="1">  1        4 0.35703159E-01 0.12499430E+03</pdfrwt>
<pdfrwt beam="2">  1       -4 0.68374444E-02 0.12499430E+03</pdfrwt>
<totfact> 0.17592052E+03</totfact>
</mgrwt>
</event>
<event>
 5    1  0.1423270E-002  0.1249904E+03  0.7818608E-02  0.1235084E+00
          4   -1    0    0  501    0  0.00000000000E+00  0.00000000000E+00  0.11559650536E+02  0.11629205498E+02  0.12700000000E+01 0. -1.
         -4   -1    0    0    0  501 -0.00000000000E+00 -0.00000000000E+00 -0.33678481575E+03  0.33678721029E+03  0.12700000000E+01 0. -1.
         25    2    1    2    0    0  0.00000000000E+00  0.00000000000E+00 -0.32522516521E+03  0.34841641579E+03  0.12499036246E+03 0.  0.
    9000005    1    3    3    0    0  0.61007810876E+02  0.10896511392E+02 -0.18490610959E+03  0.19501783588E+03  0.10000000000E+01 0.  0.
    9000005    1    3    3    0    0 -0.61007810876E+02 -0.10896511392E+02 -0.14031905562E+03  0.15339857991E+03  0.10000000000E+01 0.  0.
<mgrwt>
<rscale>  0 0.12499036E+03</rscale>
<asrwt>0</asrwt>
<pdfrwt beam="1">  1        4 0.28989074E-02 0.12499036E+03</pdfrwt>
<pdfrwt beam="2">  1       -4 0.84205165E-01 0.12499036E+03</pdfrwt>
<totfact> 0.11717764E+03</totfact>
</mgrwt>
</event>
<event>
 5    1  0.1423270E-002  0.1249908E+03  0.7818608E-02  0.1235084E+00
         -4   -1    0    0    0  501 -0.00000000000E+00  0.00000000000E+00  0.77508372576E+02  0.77518776560E+02  0.12700000000E+01 0. -1.
          4   -1    0    0  501    0  0.00000000000E+00 -0.00000000000E+00 -0.50368586632E+02  0.50384595060E+02  0.12700000000E+01 0. -1.
         25    2    1    2    0    0  0.00000000000E+00  0.00000000000E+00  0.27139785944E+02  0.12790337162E+03  0.12499081763E+03 0.  0.
    9000005    1    3    3    0    0 -0.37394177417E+02 -0.44272943274E+02  0.37486679849E+02  0.69026583118E+02  0.10000000000E+01 0.  0.
    9000005    1    3    3    0    0  0.37394177417E+02  0.44272943274E+02 -0.10346893905E+02  0.58876788502E+02  0.10000000000E+01 0.  0.
<mgrwt>
<rscale>  0 0.12499082E+03</rscale>
<asrwt>0</asrwt>
<pdfrwt beam="2">  1        4 0.12595448E-01 0.12499082E+03</pdfrwt>
<pdfrwt beam="1">  1       -4 0.19380395E-01 0.12499082E+03</pdfrwt>
<totfact> 0.19682011E+03</totfact>
</mgrwt>
</event>
<event>
 5    1  0.1423270E-002  0.1250033E+03  0.7818608E-02  0.1235064E+00
          4   -1    0    0  501    0  0.00000000000E+00  0.00000000000E+00  0.80779975659E+02  0.80789958333E+02  0.12700000000E+01 0.  1.
         -4   -1    0    0    0  501 -0.00000000000E+00 -0.00000000000E+00 -0.48337892009E+02  0.48354572730E+02  0.12700000000E+01 0.  1.
         25    2    1    2    0    0  0.00000000000E+00  0.00000000000E+00  0.32442083650E+02  0.12914453106E+03  0.12500328440E+03 0.  0.
    9000005    1    3    3    0    0 -0.57740817177E+02 -0.20039866648E+02  0.27563508681E+01  0.61189833254E+02  0.10000000000E+01 0.  0.
    9000005    1    3    3    0    0  0.57740817177E+02  0.20039866648E+02  0.29685732782E+02  0.67954697809E+02  0.10000000000E+01 0.  0.
<mgrwt>
<rscale>  0 0.12500328E+03</rscale>
<asrwt>0</asrwt>
<pdfrwt beam="1">  1        4 0.20198327E-01 0.12500328E+03</pdfrwt>
<pdfrwt beam="2">  1       -4 0.12087806E-01 0.12500328E+03</pdfrwt>
<totfact> 0.19608981E+03</totfact>
</mgrwt>
</event>
<event>
 5    1  0.1423270E-002  0.1249968E+03  0.7818608E-02  0.1235074E+00
          4   -1    0    0  501    0  0.00000000000E+00  0.00000000000E+00  0.17102637042E+03  0.17103108571E+03  0.12700000000E+01 0.  1.
         -4   -1    0    0    0  501 -0.00000000000E+00 -0.00000000000E+00 -0.22816202903E+02  0.22851521063E+02  0.12700000000E+01 0.  1.
         25    2    1    2    0    0  0.00000000000E+00  0.00000000000E+00  0.14821016752E+03  0.19388260677E+03  0.12499684577E+03 0.  0.
    9000005    1    3    3    0    0 -0.47728930068E+01  0.18591509858E+02 -0.18138144557E+02  0.26427580942E+02  0.10000000000E+01 0.  0.
    9000005    1    3    3    0    0  0.47728930068E+01 -0.18591509858E+02  0.16634831207E+03  0.16745502583E+03  0.10000000000E+01 0.  0.
<mgrwt>
<rscale>  0 0.12499685E+03</rscale>
<asrwt>0</asrwt>
<pdfrwt beam="1">  1        4 0.42761595E-01 0.12499685E+03</pdfrwt>
<pdfrwt beam="2">  1       -4 0.57090551E-02 0.12499685E+03</pdfrwt>
<totfact> 0.16571167E+03</totfact>
</mgrwt>
</event>
<event>
 5    1  0.1423270E-002  0.1249837E+03  0.7818608E-02  0.1235095E+00
         -4   -1    0    0    0  501 -0.00000000000E+00  0.00000000000E+00  0.10730910372E+03  0.10731661867E+03  0.12700000000E+01 0. -1.
          4   -1    0    0  501    0  0.00000000000E+00 -0.00000000000E+00 -0.36372463009E+02  0.36394628249E+02  0.12700000000E+01 0. -1.
         25    2    1    2    0    0  0.00000000000E+00  0.00000000000E+00  0.70936640715E+02  0.14371124692E+03  0.12498366091E+03 0.  0.
    9000005    1    3    3    0    0  0.29987249109E+02  0.11813795136E+02  0.97018916973E+02  0.10223732741E+03  0.10000000000E+01 0.  0.
    9000005    1    3    3    0    0 -0.29987249109E+02 -0.11813795136E+02 -0.26082276258E+02  0.41473919509E+02  0.10000000000E+01 0.  0.
<mgrwt>
<rscale>  0 0.12498366E+03</rscale>
<asrwt>0</asrwt>
<pdfrwt beam="2">  1        4 0.90968258E-02 0.12498366E+03</pdfrwt>
<pdfrwt beam="1">  1       -4 0.26830986E-01 0.12498366E+03</pdfrwt>
<totfact> 0.18859243E+03</totfact>
</mgrwt>
</event>
<event>
 5    1  0.1423270E-002  0.1249997E+03  0.7818608E-02  0.1235070E+00
         -4   -1    0    0    0  501 -0.00000000000E+00  0.00000000000E+00  0.24197839473E+02  0.24231143910E+02  0.12700000000E+01 0. -1.
          4   -1    0    0  501    0  0.00000000000E+00 -0.00000000000E+00 -0.16128219851E+03  0.16128719868E+03  0.12700000000E+01 0. -1.
         25    2    1    2    0    0  0.00000000000E+00  0.00000000000E+00 -0.13708435904E+03  0.18551834259E+03  0.12499973577E+03 0.  0.
    9000005    1    3    3    0    0  0.43802275942E+01 -0.41926150742E+02 -0.13701032568E+03  0.14335207656E+03  0.10000000000E+01 0.  0.
    9000005    1    3    3    0    0 -0.43802275942E+01  0.41926150742E+02 -0.74033356697E-01  0.42166266029E+02  0.10000000000E+01 0.  0.
<mgrwt>
<rscale>  0 0.12499974E+03</rscale>
<asrwt>0</asrwt>
<pdfrwt beam="2">  1        4 0.40325335E-01 0.12499974E+03</pdfrwt>
<pdfrwt beam="1">  1       -4 0.60542484E-02 0.12499974E+03</pdfrwt>
<totfact> 0.16918922E+03</totfact>
</mgrwt>
</event>
<event>
 5    1  0.1423270E-002  0.1250011E+03  0.7818608E-02  0.1235068E+00
          4   -1    0    0  501    0  0.00000000000E+00  0.00000000000E+00  0.19387163738E+03  0.19387579705E+03  0.12700000000E+01 0.  1.
         -4   -1    0    0    0  501 -0.00000000000E+00 -0.00000000000E+00 -0.20124612329E+02  0.20164645333E+02  0.12700000000E+01 0.  1.
         25    2    1    2    0    0  0.00000000000E+00  0.00000000000E+00  0.17374702505E+03  0.21404044238E+03  0.12500112904E+03 0.  0.
    9000005    1    3    3    0    0 -0.60034860150E+02 -0.15616007610E+02  0.73914559809E+02  0.96500809731E+02  0.10000000000E+01 0.  0.
    9000005    1    3    3    0    0  0.60034860150E+02  0.15616007610E+02  0.99832465244E+02  0.11753963265E+03  0.10000000000E+01 0.  0.
<mgrwt>
<rscale>  0 0.12500113E+03</rscale>
<asrwt>0</asrwt>
<pdfrwt beam="1">  1        4 0.48473433E-01 0.12500113E+03</pdfrwt>
<pdfrwt beam="2">  1       -4 0.50366772E-02 0.12500113E+03</pdfrwt>
<totfact> 0.15774450E+03</totfact>
</mgrwt>
</event>
<event>
 5    1  0.1423270E-002  0.1250014E+03  0.7818608E-02  0.1235067E+00
          4   -1    0    0  501    0  0.00000000000E+00  0.00000000000E+00  0.16081277292E+02  0.16131347723E+02  0.12700000000E+01 0.  1.
         -4   -1    0    0    0  501 -0.00000000000E+00 -0.00000000000E+00 -0.24248296845E+03  0.24248629423E+03  0.12700000000E+01 0.  1.
         25    2    1    2    0    0  0.00000000000E+00  0.00000000000E+00 -0.22640169116E+03  0.25861764195E+03  0.12500143587E+03 0.  0.
    9000005    1    3    3    0    0 -0.32889712314E+02  0.31015376795E+02 -0.20246816823E+03  0.20745613011E+03  0.10000000000E+01 0.  0.
    9000005    1    3    3    0    0  0.32889712314E+02 -0.31015376795E+02 -0.23933522924E+02  0.51161511837E+02  0.10000000000E+01 0.  0.
<mgrwt>
<rscale>  0 0.12500144E+03</rscale>
<asrwt>0</asrwt>
<pdfrwt beam="1">  1        4 0.40269946E-02 0.12500144E+03</pdfrwt>
<pdfrwt beam="2">  1       -4 0.60627405E-01 0.12500144E+03</pdfrwt>
<totfact> 0.14215180E+03</totfact>
</mgrwt>
</event>
<event>
 5    1  0.1423270E-002  0.1249965E+03  0.7818608E-02  0.1235075E+00
          4   -1    0    0  501    0  0.00000000000E+00  0.00000000000E+00  0.27286139661E+02  0.27315678970E+02  0.12700000000E+01 0.  1.
         -4   -1    0    0    0  501 -0.00000000000E+00 -0.00000000000E+00 -0.14304096640E+03  0.14304660418E+03  0.12700000000E+01 0.  1.
         25    2    1    2    0    0  0.00000000000E+00  0.00000000000E+00 -0.11575482673E+03  0.17036228315E+03  0.12499651038E+03 0.  0.
    9000005    1    3    3    0    0 -0.24864639597E+02 -0.57083762164E+02 -0.50636424168E+02  0.80261159085E+02  0.10000000000E+01 0.  0.
    9000005    1    3    3    0    0  0.24864639597E+02  0.57083762164E+02 -0.65118402566E+02  0.90101124066E+02  0.10000000000E+01 0.  0.
<mgrwt>
<rscale>  0 0.12499651E+03</rscale>
<asrwt>0</asrwt>
<pdfrwt beam="1">  1        4 0.68259324E-02 0.12499651E+03</pdfrwt>
<pdfrwt beam="2">  1       -4 0.35764637E-01 0.12499651E+03</pdfrwt>
<totfact> 0.17582143E+03</totfact>
</mgrwt>
</event>
<event>
 5    1  0.1423270E-002  0.1249990E+03  0.7818608E-02  0.1235071E+00
         -4   -1    0    0    0  501 -0.00000000000E+00  0.00000000000E+00  0.48712080187E+02  0.48728632816E+02  0.12700000000E+01 0.  1.
          4   -1    0    0  501    0  0.00000000000E+00 -0.00000000000E+00 -0.80154133482E+02  0.80164194091E+02  0.12700000000E+01 0.  1.
         25    2    1    2    0    0  0.00000000000E+00  0.00000000000E+00 -0.31442053295E+02  0.12889282691E+03  0.12499903245E+03 0.  0.
    9000005    1    3    3    0    0  0.52491924016E+01  0.51481191955E+02 -0.51845491705E+02  0.73258597831E+02  0.10000000000E+01 0.  0.
    9000005    1    3    3    0    0 -0.52491924016E+01 -0.51481191955E+02  0.20403438410E+02  0.55634229077E+02  0.10000000000E+01 0.  0.
<mgrwt>
<rscale>  0 0.12499903E+03</rscale>
<asrwt>0</asrwt>
<pdfrwt beam="2">  1        4 0.20041860E-01 0.12499903E+03</pdfrwt>
<pdfrwt beam="1">  1       -4 0.12181347E-01 0.12499903E+03</pdfrwt>
<totfact> 0.19624536E+03</totfact>
</mgrwt>
</event>
<event>
 5    1  0.1423270E-002  0.1250053E+03  0.7818608E-02  0.1235061E+00
          4   -1    0    0  501    0  0.00000000000E+00  0.00000000000E+00  0.23160635199E+03  0.23160983395E+03  0.12700000000E+01 0.  1.
         -4   -1    0    0    0  501 -0.00000000000E+00 -0.00000000000E+00 -0.16839807742E+02  0.16887629342E+02  0.12700000000E+01 0.  1.
         25    2    1    2    0    0  0.00000000000E+00  0.00000000000E+00  0.21476654425E+03  0.24849746330E+03  0.12500528282E+03 0.  0.
    9000005    1    3    3    0    0 -0.50215848836E+01  0.61711347539E+02  0.90506815813E+02  0.10966307691E+03  0.10000000000E+01 0.  0.
    9000005    1    3    3    0    0  0.50215848836E+01 -0.61711347539E+02  0.12425972844E+03  0.13883438638E+03  0.10000000000E+01 0.  0.
<mgrwt>
<rscale>  0 0.12500528E+03</rscale>
<asrwt>0</asrwt>
<pdfrwt beam="1">  1        4 0.57908000E-01 0.12500528E+03</pdfrwt>
<pdfrwt beam="2">  1       -4 0.42163649E-02 0.12500528E+03</pdfrwt>
<totfact> 0.14546337E+03</totfact>
</mgrwt>
</event>
<event>
 5    1  0.1423270E-002  0.1250015E+03  0.7818608E-02  0.1235067E+00
          4   -1    0    0  501    0  0.00000000000E+00  0.00000000000E+00  0.83691373771E+03  0.83691470131E+03  0.12700000000E+01 0. -1.
         -4   -1    0    0    0  501 -0.00000000000E+00 -0.00000000000E+00 -0.45801845825E+01  0.47529980864E+01  0.12700000000E+01 0. -1.
         25    2    1    2    0    0  0.00000000000E+00  0.00000000000E+00  0.83233355312E+03  0.84166769939E+03  0.12500149017E+03 0.  0.
    9000005    1    3    3    0    0  0.31764607074E+02  0.21676655719E+02  0.84491253335E+02  0.92836628310E+02  0.10000000000E+01 0.  0.
    9000005    1    3    3    0    0 -0.31764607074E+02 -0.21676655719E+02  0.74784229979E+03  0.74883107108E+03  0.10000000000E+01 0.  0.
<mgrwt>
<rscale>  0 0.12500149E+03</rscale>
<asrwt>0</asrwt>
<pdfrwt beam="1">  1        4 0.20925018E+00 0.12500149E+03</pdfrwt>
<pdfrwt beam="2">  1       -4 0.11667682E-02 0.12500149E+03</pdfrwt>
<totfact> 0.48915710E+02</totfact>
</mgrwt>
</event>
<event>
 5    1  0.1423270E-002  0.1250020E+03  0.7818608E-02  0.1235066E+00
          4   -1    0    0  501    0  0.00000000000E+00  0.00000000000E+00  0.20396396374E+03  0.20396791759E+03  0.12700000000E+01 0. -1.
         -4   -1    0    0    0  501 -0.00000000000E+00 -0.00000000000E+00 -0.19127088850E+02  0.19169205197E+02  0.12700000000E+01 0. -1.
         25    2    1    2    0    0  0.00000000000E+00  0.00000000000E+00  0.18483687489E+03  0.22313712278E+03  0.12500202096E+03 0.  0.
    9000005    1    3    3    0    0 -0.41045929953E+02 -0.44085056849E+02  0.62702778413E+02  0.86953430201E+02  0.10000000000E+01 0.  0.
    9000005    1    3    3    0    0  0.41045929953E+02  0.44085056849E+02  0.12213409648E+03  0.13618369258E+03  0.10000000000E+01 0.  0.
<mgrwt>
<rscale>  0 0.12500202E+03</rscale>
<asrwt>0</asrwt>
<pdfrwt beam="1">  1        4 0.50996748E-01 0.12500202E+03</pdfrwt>
<pdfrwt beam="2">  1       -4 0.47875311E-02 0.12500202E+03</pdfrwt>
<totfact> 0.15434958E+03</totfact>
</mgrwt>
</event>
<event>
 5    1  0.1423270E-002  0.1249998E+03  0.7818608E-02  0.1235070E+00
          4   -1    0    0  501    0  0.00000000000E+00  0.00000000000E+00  0.39231462367E+03  0.39231667929E+03  0.12700000000E+01 0.  1.
         -4   -1    0    0    0  501 -0.00000000000E+00 -0.00000000000E+00 -0.99143131573E+01  0.99953241758E+01  0.12700000000E+01 0.  1.
         25    2    1    2    0    0  0.00000000000E+00  0.00000000000E+00  0.38240031052E+03  0.40231200346E+03  0.12499980259E+03 0.  0.
    9000005    1    3    3    0    0 -0.19580907831E+02 -0.35523908538E+02  0.38198501445E+02  0.55726883476E+02  0.10000000000E+01 0.  0.
    9000005    1    3    3    0    0  0.19580907831E+02  0.35523908538E+02  0.34420180907E+03  0.34658511999E+03  0.10000000000E+01 0.  0.
<mgrwt>
<rscale>  0 0.12499980E+03</rscale>
<asrwt>0</asrwt>
<pdfrwt beam="1">  1        4 0.98089028E-01 0.12499980E+03</pdfrwt>
<pdfrwt beam="2">  1       -4 0.24889619E-02 0.12499980E+03</pdfrwt>
<totfact> 0.10521779E+03</totfact>
</mgrwt>
</event>
<event>
 5    1  0.1423270E-002  0.1249999E+03  0.7818608E-02  0.1235069E+00
          4   -1    0    0  501    0  0.00000000000E+00  0.00000000000E+00  0.58422193461E+02  0.58435995660E+02  0.12700000000E+01 0.  1.
         -4   -1    0    0    0  501 -0.00000000000E+00 -0.00000000000E+00 -0.66834633863E+02  0.66846699122E+02  0.12700000000E+01 0.  1.
         25    2    1    2    0    0  0.00000000000E+00  0.00000000000E+00 -0.84124404019E+01  0.12528269478E+03  0.12499993783E+03 0.  0.
    9000005    1    3    3    0    0 -0.55201822303E+02 -0.16526422189E+02  0.20032826093E+02  0.61013752034E+02  0.10000000000E+01 0.  0.
    9000005    1    3    3    0    0  0.55201822303E+02  0.16526422189E+02 -0.28445266495E+02  0.64268942748E+02  0.10000000000E+01 0.  0.
<mgrwt>
<rscale>  0 0.12499994E+03</rscale>
<asrwt>0</asrwt>
<pdfrwt beam="1">  1        4 0.14608782E-01 0.12499994E+03</pdfrwt>
<pdfrwt beam="2">  1       -4 0.16711892E-01 0.12499994E+03</pdfrwt>
<totfact> 0.19819761E+03</totfact>
</mgrwt>
</event>
<event>
 5    1  0.1423270E-002  0.1250132E+03  0.7818608E-02  0.1235049E+00
          4   -1    0    0  501    0  0.00000000000E+00  0.00000000000E+00  0.17216686904E+04  0.17216691588E+04  0.12700000000E+01 0. -1.
         -4   -1    0    0    0  501 -0.00000000000E+00 -0.00000000000E+00 -0.20911647802E+01  0.24466037967E+01  0.12700000000E+01 0. -1.
         25    2    1    2    0    0  0.00000000000E+00  0.00000000000E+00  0.17195775256E+04  0.17241157626E+04  0.12501318434E+03 0.  0.
    9000005    1    3    3    0    0  0.41869966454E+02  0.17735066461E+02  0.26845019101E+03  0.27227583758E+03  0.10000000000E+01 0.  0.
    9000005    1    3    3    0    0 -0.41869966454E+02 -0.17735066461E+02  0.14511273346E+04  0.14518399250E+04  0.10000000000E+01 0.  0.
<mgrwt>
<rscale>  0 0.12501318E+03</rscale>
<asrwt>0</asrwt>
<pdfrwt beam="1">  1        4 0.43046174E+00 0.12501318E+03</pdfrwt>
<pdfrwt beam="2">  1       -4 0.56727952E-03 0.12501318E+03</pdfrwt>
<totfact> 0.65625199E+01</totfact>
</mgrwt>
</event>
<event>
 5    1  0.1423270E-002  0.1250456E+03  0.7818608E-02  0.1234998E+00
         -4   -1    0    0    0  501 -0.00000000000E+00  0.00000000000E+00  0.42790396055E+03  0.42790584519E+03  0.12700000000E+01 0.  1.
          4   -1    0    0  501    0  0.00000000000E+00 -0.00000000000E+00 -0.90894049378E+01  0.91777002634E+01  0.12700000000E+01 0.  1.
         25    2    1    2    0    0  0.00000000000E+00  0.00000000000E+00  0.41881455561E+03  0.43708354546E+03  0.12504556658E+03 0.  0.
    9000005    1    3    3    0    0 -0.14909798905E+02  0.36374862714E+02  0.37930881016E+03  0.38134184954E+03  0.10000000000E+01 0.  0.
    9000005    1    3    3    0    0  0.14909798905E+02 -0.36374862714E+02  0.39505745445E+02  0.55741695920E+02  0.10000000000E+01 0.  0.
<mgrwt>
<rscale>  0 0.12504557E+03</rscale>
<asrwt>0</asrwt>
<pdfrwt beam="2">  1        4 0.22836237E-02 0.12504557E+03</pdfrwt>
<pdfrwt beam="1">  1       -4 0.10698726E+00 0.12504557E+03</pdfrwt>
<totfact> 0.98281230E+02</totfact>
</mgrwt>
</event>
<event>
 5    1  0.1423270E-002  0.1249969E+03  0.7818608E-02  0.1235074E+00
          4   -1    0    0  501    0  0.00000000000E+00  0.00000000000E+00  0.10994586953E+03  0.10995320425E+03  0.12700000000E+01 0. -1.
         -4   -1    0    0    0  501 -0.00000000000E+00 -0.00000000000E+00 -0.35507228424E+02  0.35529933441E+02  0.12700000000E+01 0. -1.
         25    2    1    2    0    0  0.00000000000E+00  0.00000000000E+00  0.74438641102E+02  0.14548313770E+03  0.12499692822E+03 0.  0.
    9000005    1    3    3    0    0 -0.59175025879E+02 -0.68123936104E+01  0.15229255460E+02  0.61490020462E+02  0.10000000000E+01 0.  0.
    9000005    1    3    3    0    0  0.59175025879E+02  0.68123936104E+01  0.59209385642E+02  0.83993117233E+02  0.10000000000E+01 0.  0.
<mgrwt>
<rscale>  0 0.12499693E+03</rscale>
<asrwt>0</asrwt>
<pdfrwt beam="1">  1        4 0.27490222E-01 0.12499693E+03</pdfrwt>
<pdfrwt beam="2">  1       -4 0.88805621E-02 0.12499693E+03</pdfrwt>
<totfact> 0.18764470E+03</totfact>
</mgrwt>
</event>
<event>
 5    1  0.1423270E-002  0.1250005E+03  0.7818608E-02  0.1235068E+00
          4   -1    0    0  501    0  0.00000000000E+00  0.00000000000E+00  0.11311762444E+03  0.11312475352E+03  0.12700000000E+01 0.  1.
         -4   -1    0    0    0  501 -0.00000000000E+00 -0.00000000000E+00 -0.34513040495E+02  0.34536399121E+02  0.12700000000E+01 0.  1.
         25    2    1    2    0    0  0.00000000000E+00  0.00000000000E+00  0.78604583945E+02  0.14766115264E+03  0.12500054153E+03 0.  0.
    9000005    1    3    3    0    0 -0.21706819584E+02 -0.18553228421E+02  0.10496591678E+03  0.10878534821E+03  0.10000000000E+01 0.  0.
    9000005    1    3    3    0    0  0.21706819584E+02  0.18553228421E+02 -0.26361332831E+02  0.38875804428E+02  0.10000000000E+01 0.  0.
<mgrwt>
<rscale>  0 0.12500054E+03</rscale>
<asrwt>0</asrwt>
<pdfrwt beam="1">  1        4 0.28283217E-01 0.12500054E+03</pdfrwt>
<pdfrwt beam="2">  1       -4 0.86320712E-02 0.12500054E+03</pdfrwt>
<totfact> 0.18654148E+03</totfact>
</mgrwt>
</event>
<event>
 5    1  0.1423270E-002  0.1250065E+03  0.7818608E-02  0.1235059E+00
          4   -1    0    0  501    0  0.00000000000E+00  0.00000000000E+00  0.53932058294E+02  0.53947009294E+02  0.12700000000E+01 0. -1.
         -4   -1    0    0    0  501 -0.00000000000E+00 -0.00000000000E+00 -0.72406020273E+02  0.72417157302E+02  0.12700000000E+01 0. -1.
         25    2    1    2    0    0  0.00000000000E+00  0.00000000000E+00 -0.18473961979E+02  0.12636416660E+03  0.12500646115E+03 0.  0.
    9000005    1    3    3    0    0 -0.15803241915E+02 -0.60426456321E+02 -0.70796145507E+01  0.62866684506E+02  0.10000000000E+01 0.  0.
    9000005    1    3    3    0    0  0.15803241915E+02  0.60426456321E+02 -0.11394347428E+02  0.63497482091E+02  0.10000000000E+01 0.  0.
<mgrwt>
<rscale>  0 0.12500646E+03</rscale>
<asrwt>0</asrwt>
<pdfrwt beam="1">  1        4 0.13486276E-01 0.12500646E+03</pdfrwt>
<pdfrwt beam="2">  1       -4 0.18104766E-01 0.12500646E+03</pdfrwt>
<totfact> 0.19758268E+03</totfact>
</mgrwt>
</event>
<event>
 5    1  0.1423270E-002  0.1249988E+03  0.7818608E-02  0.1235071E+00
         -4   -1    0    0    0  501 -0.00000000000E+00  0.00000000000E+00  0.33275186549E+03  0.33275428906E+03  0.12700000000E+01 0.  1.
          4   -1    0    0  501    0  0.00000000000E+00 -0.00000000000E+00 -0.11702184929E+02  0.11770897676E+02  0.12700000000E+01 0.  1.
         25    2    1    2    0    0  0.00000000000E+00  0.00000000000E+00  0.32104968057E+03  0.34452518674E+03  0.12499882762E+03 0.  0.
    9000005    1    3    3    0    0  0.16186651151E+02 -0.49947502716E+02  0.25392866471E+03  0.25930200050E+03  0.10000000000E+01 0.  0.
    9000005    1    3    3    0    0 -0.16186651151E+02  0.49947502716E+02  0.67121015856E+02  0.85223186238E+02  0.10000000000E+01 0.  0.
<mgrwt>
<rscale>  0 0.12499883E+03</rscale>
<asrwt>0</asrwt>
<pdfrwt beam="2">  1        4 0.29344384E-02 0.12499883E+03</pdfrwt>
<pdfrwt beam="1">  1       -4 0.83196855E-01 0.12499883E+03</pdfrwt>
<totfact> 0.11809296E+03</totfact>
</mgrwt>
</event>
<event>
 5    1  0.1423270E-002  0.1249972E+03  0.7818608E-02  0.1235074E+00
          4   -1    0    0  501    0  0.00000000000E+00  0.00000000000E+00  0.12278392328E+03  0.12279049115E+03  0.12700000000E+01 0.  1.
         -4   -1    0    0    0  501 -0.00000000000E+00 -0.00000000000E+00 -0.31792509883E+02  0.31817865809E+02  0.12700000000E+01 0.  1.
         25    2    1    2    0    0  0.00000000000E+00  0.00000000000E+00  0.90991413397E+02  0.15460835696E+03  0.12499722688E+03 0.  0.
    9000005    1    3    3    0    0  0.28382320333E+02  0.50076929630E+02  0.75586111270E+02  0.95013237002E+02  0.10000000000E+01 0.  0.
    9000005    1    3    3    0    0 -0.28382320333E+02 -0.50076929630E+02  0.15405302127E+02  0.59595119953E+02  0.10000000000E+01 0.  0.
<mgrwt>
<rscale>  0 0.12499723E+03</rscale>
<asrwt>0</asrwt>
<pdfrwt beam="1">  1        4 0.30699971E-01 0.12499723E+03</pdfrwt>
<pdfrwt beam="2">  1       -4 0.79521180E-02 0.12499723E+03</pdfrwt>
<totfact> 0.18315666E+03</totfact>
</mgrwt>
</event>
<event>
 5    1  0.1423270E-002  0.1249856E+03  0.7818608E-02  0.1235092E+00
          4   -1    0    0  501    0  0.00000000000E+00  0.00000000000E+00  0.38323761216E+01  0.40373266820E+01  0.12700000000E+01 0.  1.
         -4   -1    0    0    0  501 -0.00000000000E+00 -0.00000000000E+00 -0.99229748404E+03  0.99229829675E+03  0.12700000000E+01 0.  1.
         25    2    1    2    0    0  0.00000000000E+00  0.00000000000E+00 -0.98846510792E+03  0.99633562343E+03  0.12498561896E+03 0.  0.
    9000005    1    3    3    0    0  0.22505555785E+02 -0.13911300138E+02 -0.42985870761E+02  0.50485734597E+02  0.10000000000E+01 0.  0.
    9000005    1    3    3    0    0 -0.22505555785E+02  0.13911300138E+02 -0.94547923716E+03  0.94584988884E+03  0.10000000000E+01 0.  0.
<mgrwt>
<rscale>  0 0.12498562E+03</rscale>
<asrwt>0</asrwt>
<pdfrwt beam="1">  1        4 0.98381784E-03 0.12498562E+03</pdfrwt>
<pdfrwt beam="2">  1       -4 0.24809924E+00 0.12498562E+03</pdfrwt>
<totfact> 0.37368972E+02</totfact>
</mgrwt>
</event>
<event>
 5    1  0.1423270E-002  0.1249996E+03  0.7818608E-02  0.1235070E+00
          4   -1    0    0  501    0  0.00000000000E+00  0.00000000000E+00  0.52263528200E+03  0.52263682504E+03  0.12700000000E+01 0.  1.
         -4   -1    0    0    0  501 -0.00000000000E+00 -0.00000000000E+00 -0.74185748566E+01  0.75264967218E+01  0.12700000000E+01 0.  1.
         25    2    1    2    0    0  0.00000000000E+00  0.00000000000E+00  0.51521670714E+03  0.53016332176E+03  0.12499956970E+03 0.  0.
    9000005    1    3    3    0    0  0.24682020062E+02  0.55697827609E+02  0.19856815862E+03  0.20770595498E+03  0.10000000000E+01 0.  0.
    9000005    1    3    3    0    0 -0.24682020062E+02 -0.55697827609E+02  0.31664854852E+03  0.32245736679E+03  0.10000000000E+01 0.  0.
<mgrwt>
<rscale>  0 0.12499957E+03</rscale>
<asrwt>0</asrwt>
<pdfrwt beam="1">  1        4 0.13067247E+00 0.12499957E+03</pdfrwt>
<pdfrwt beam="2">  1       -4 0.18683273E-02 0.12499957E+03</pdfrwt>
<totfact> 0.83001784E+02</totfact>
</mgrwt>
</event>
<event>
 5    1  0.1423270E-002  0.1250016E+03  0.7818608E-02  0.1235067E+00
          4   -1    0    0  501    0  0.00000000000E+00  0.00000000000E+00  0.30850217989E+03  0.30850479396E+03  0.12700000000E+01 0. -1.
         -4   -1    0    0    0  501 -0.00000000000E+00 -0.00000000000E+00 -0.12627789437E+02  0.12691491877E+02  0.12700000000E+01 0. -1.
         25    2    1    2    0    0  0.00000000000E+00  0.00000000000E+00  0.29587439045E+03  0.32119628583E+03  0.12500159643E+03 0.  0.
    9000005    1    3    3    0    0  0.36794947133E+02  0.79628646592E+01  0.19767120042E+02  0.42532509717E+02  0.10000000000E+01 0.  0.
    9000005    1    3    3    0    0 -0.36794947133E+02 -0.79628646592E+01  0.27610727041E+03  0.27866377612E+03  0.10000000000E+01 0.  0.
<mgrwt>
<rscale>  0 0.12500160E+03</rscale>
<asrwt>0</asrwt>
<pdfrwt beam="1">  1        4 0.77133834E-01 0.12500160E+03</pdfrwt>
<pdfrwt beam="2">  1       -4 0.31652369E-02 0.12500160E+03</pdfrwt>
<totfact> 0.12396664E+03</totfact>
</mgrwt>
</event>
<event>
 5    1  0.1423270E-002  0.1249732E+03  0.7818608E-02  0.1235111E+00
         -4   -1    0    0    0  501 -0.00000000000E+00  0.00000000000E+00  0.25572143307E+03  0.25572458667E+03  0.12700000000E+01 0.  1.
          4   -1    0    0  501    0  0.00000000000E+00 -0.00000000000E+00 -0.15239193952E+02  0.15292021851E+02  0.12700000000E+01 0.  1.
         25    2    1    2    0    0  0.00000000000E+00  0.00000000000E+00  0.24048223912E+03  0.27101660853E+03  0.12497317619E+03 0.  0.
    9000005    1    3    3    0    0 -0.44929563208E+02 -0.37444501376E+02  0.16789195688E+03  0.17779051021E+03  0.10000000000E+01 0.  0.
    9000005    1    3    3    0    0  0.44929563208E+02  0.37444501376E+02  0.72590282230E+02  0.93226098318E+02  0.10000000000E+01 0.  0.
<mgrwt>
<rscale>  0 0.12497318E+03</rscale>
<asrwt>0</asrwt>
<pdfrwt beam="2">  1        4 0.38167962E-02 0.12497318E+03</pdfrwt>
<pdfrwt beam="1">  1       -4 0.63937355E-01 0.12497318E+03</pdfrwt>
<totfact> 0.13832619E+03</totfact>
</mgrwt>
</event>
<event>
 5    1  0.1423270E-002  0.1250090E+03  0.7818608E-02  0.1235055E+00
          4   -1    0    0  501    0  0.00000000000E+00  0.00000000000E+00  0.22212675149E+02  0.22248951375E+02  0.12700000000E+01 0.  1.
         -4   -1    0    0    0  501 -0.00000000000E+00 -0.00000000000E+00 -0.17569994585E+03  0.17570453572E+03  0.12700000000E+01 0.  1.
         25    2    1    2    0    0  0.00000000000E+00  0.00000000000E+00 -0.15348727070E+03  0.19795348709E+03  0.12500896282E+03 0.  0.
    9000005    1    3    3    0    0 -0.55269222470E+02  0.28492818810E+02 -0.66818837378E+02  0.91281349161E+02  0.10000000000E+01 0.  0.
    9000005    1    3    3    0    0  0.55269222470E+02 -0.28492818810E+02 -0.86668433324E+02  0.10667213793E+03  0.10000000000E+01 0.  0.
<mgrwt>
<rscale>  0 0.12500896E+03</rscale>
<asrwt>0</asrwt>
<pdfrwt beam="1">  1        4 0.55582776E-02 0.12500896E+03</pdfrwt>
<pdfrwt beam="2">  1       -4 0.43930091E-01 0.12500896E+03</pdfrwt>
<totfact> 0.16400916E+03</totfact>
</mgrwt>
</event>
<event>
 5    1  0.1423270E-002  0.1250028E+03  0.7818608E-02  0.1235065E+00
          4   -1    0    0  501    0  0.00000000000E+00  0.00000000000E+00  0.22407310483E+03  0.22407670385E+03  0.12700000000E+01 0. -1.
         -4   -1    0    0    0  501 -0.00000000000E+00 -0.00000000000E+00 -0.17406834112E+02  0.17453102125E+02  0.12700000000E+01 0. -1.
         25    2    1    2    0    0  0.00000000000E+00  0.00000000000E+00  0.20666627072E+03  0.24152980597E+03  0.12500279885E+03 0.  0.
    9000005    1    3    3    0    0 -0.70888530466E+01 -0.35345249087E+02  0.46986597434E+01  0.36367786211E+02  0.10000000000E+01 0.  0.
    9000005    1    3    3    0    0  0.70888530466E+01  0.35345249087E+02  0.20196761097E+03  0.20516201976E+03  0.10000000000E+01 0.  0.
<mgrwt>
<rscale>  0 0.12500280E+03</rscale>
<asrwt>0</asrwt>
<pdfrwt beam="1">  1        4 0.56024508E-01 0.12500280E+03</pdfrwt>
<pdfrwt beam="2">  1       -4 0.43579420E-02 0.12500280E+03</pdfrwt>
<totfact> 0.14782940E+03</totfact>
</mgrwt>
</event>
<event>
 5    1  0.1423270E-002  0.1249986E+03  0.7818608E-02  0.1235071E+00
         -4   -1    0    0    0  501 -0.00000000000E+00  0.00000000000E+00  0.16611084822E+02  0.16659562988E+02  0.12700000000E+01 0.  1.
          4   -1    0    0  501    0  0.00000000000E+00 -0.00000000000E+00 -0.23476113612E+03  0.23476457129E+03  0.12700000000E+01 0.  1.
         25    2    1    2    0    0  0.00000000000E+00  0.00000000000E+00 -0.21815005130E+03  0.25142413428E+03  0.12499860166E+03 0.  0.
    9000005    1    3    3    0    0 -0.41347702673E+02  0.46496422900E+02 -0.12073650911E+03  0.13583024144E+03  0.10000000000E+01 0.  0.
    9000005    1    3    3    0    0  0.41347702673E+02 -0.46496422900E+02 -0.97413542192E+02  0.11559389284E+03  0.10000000000E+01 0.  0.
<mgrwt>
<rscale>  0 0.12499860E+03</rscale>
<asrwt>0</asrwt>
<pdfrwt beam="2">  1        4 0.58696763E-01 0.12499860E+03</pdfrwt>
<pdfrwt beam="1">  1       -4 0.41592611E-02 0.12499860E+03</pdfrwt>
<totfact> 0.14451198E+03</totfact>
</mgrwt>
</event>
<event>
 5    1  0.1423270E-002  0.1249906E+03  0.7818608E-02  0.1235084E+00
          4   -1    0    0  501    0  0.00000000000E+00  0.00000000000E+00  0.24793060129E+03  0.24793385399E+03  0.12700000000E+01 0. -1.
         -4   -1    0    0    0  501 -0.00000000000E+00 -0.00000000000E+00 -0.15724094195E+02  0.15775298357E+02  0.12700000000E+01 0. -1.
         25    2    1    2    0    0  0.00000000000E+00  0.00000000000E+00  0.23220650709E+03  0.26370915235E+03  0.12499062003E+03 0.  0.
    9000005    1    3    3    0    0  0.48935279068E+02 -0.23261447677E+02  0.50429945656E+02  0.74026589171E+02  0.10000000000E+01 0.  0.
    9000005    1    3    3    0    0 -0.48935279068E+02  0.23261447677E+02  0.18177656144E+03  0.18968256318E+03  0.10000000000E+01 0.  0.
<mgrwt>
<rscale>  0 0.12499062E+03</rscale>
<asrwt>0</asrwt>
<pdfrwt beam="1">  1        4 0.61989457E-01 0.12499062E+03</pdfrwt>
<pdfrwt beam="2">  1       -4 0.39378307E-02 0.12499062E+03</pdfrwt>
<totfact> 0.14055844E+03</totfact>
</mgrwt>
</event>
<event>
 5    1  0.1423270E-002  0.1249988E+03  0.7818608E-02  0.1235071E+00
          4   -1    0    0  501    0  0.00000000000E+00  0.00000000000E+00  0.82268959624E+02  0.82278761644E+02  0.12700000000E+01 0.  1.
         -4   -1    0    0    0  501 -0.00000000000E+00 -0.00000000000E+00 -0.47459448772E+02  0.47476438132E+02  0.12700000000E+01 0.  1.
         25    2    1    2    0    0  0.00000000000E+00  0.00000000000E+00  0.34809510853E+02  0.12975519978E+03  0.12499883929E+03 0.  0.
    9000005    1    3    3    0    0  0.42665496661E+02 -0.32717799209E+02  0.50465969739E+02  0.73746953104E+02  0.10000000000E+01 0.  0.
    9000005    1    3    3    0    0 -0.42665496661E+02  0.32717799209E+02 -0.15656458886E+02  0.56008246672E+02  0.10000000000E+01 0.  0.
<mgrwt>
<rscale>  0 0.12499884E+03</rscale>
<asrwt>0</asrwt>
<pdfrwt beam="1">  1        4 0.20570589E-01 0.12499884E+03</pdfrwt>
<pdfrwt beam="2">  1       -4 0.11868211E-01 0.12499884E+03</pdfrwt>
<totfact> 0.19578082E+03</totfact>
</mgrwt>
</event>
<event>
 5    1  0.1423270E-002  0.1250044E+03  0.7818608E-02  0.1235062E+00
         -4   -1    0    0    0  501 -0.00000000000E+00  0.00000000000E+00  0.21302495175E+02  0.21340318664E+02  0.12700000000E+01 0. -1.
          4   -1    0    0  501    0  0.00000000000E+00 -0.00000000000E+00 -0.18318077368E+03  0.18318517610E+03  0.12700000000E+01 0. -1.
         25    2    1    2    0    0  0.00000000000E+00  0.00000000000E+00 -0.16187827850E+03  0.20452549477E+03  0.12500440376E+03 0.  0.
    9000005    1    3    3    0    0 -0.12227339819E+02  0.58507566864E+02 -0.51087560225E+02  0.78635755412E+02  0.10000000000E+01 0.  0.
    9000005    1    3    3    0    0  0.12227339819E+02 -0.58507566864E+02 -0.11079071828E+03  0.12588973936E+03  0.10000000000E+01 0.  0.
<mgrwt>
<rscale>  0 0.12500440E+03</rscale>
<asrwt>0</asrwt>
<pdfrwt beam="2">  1        4 0.45800467E-01 0.12500440E+03</pdfrwt>
<pdfrwt beam="1">  1       -4 0.53309026E-02 0.12500440E+03</pdfrwt>
<totfact> 0.16140781E+03</totfact>
</mgrwt>
</event>
<event>
 5    1  0.1423270E-002  0.1250007E+03  0.7818608E-02  0.1235068E+00
          4   -1    0    0  501    0  0.00000000000E+00  0.00000000000E+00  0.59653114445E+03  0.59653249635E+03  0.12700000000E+01 0.  1.
         -4   -1    0    0    0  501 -0.00000000000E+00 -0.00000000000E+00 -0.64853957388E+01  0.66085745732E+01  0.12700000000E+01 0.  1.
         25    2    1    2    0    0  0.00000000000E+00  0.00000000000E+00  0.59004574871E+03  0.60314107092E+03  0.12500066344E+03 0.  0.
    9000005    1    3    3    0    0 -0.42579333857E+02  0.42035323472E+01  0.75248989210E+02  0.86568352953E+02  0.10000000000E+01 0.  0.
    9000005    1    3    3    0    0  0.42579333857E+02 -0.42035323472E+01  0.51479675950E+03  0.51657271797E+03  0.10000000000E+01 0.  0.
<mgrwt>
<rscale>  0 0.12500066E+03</rscale>
<asrwt>0</asrwt>
<pdfrwt beam="1">  1        4 0.14914834E+00 0.12500066E+03</pdfrwt>
<pdfrwt beam="2">  1       -4 0.16369154E-02 0.12500066E+03</pdfrwt>
<totfact> 0.73107996E+02</totfact>
</mgrwt>
</event>
<event>
 5    1  0.1423270E-002  0.1249994E+03  0.7818608E-02  0.1235070E+00
          4   -1    0    0  501    0  0.00000000000E+00  0.00000000000E+00  0.35842000409E+01  0.38025504511E+01  0.12700000000E+01 0. -1.
         -4   -1    0    0    0  501 -0.00000000000E+00 -0.00000000000E+00 -0.10574078129E+04  0.10574085756E+04  0.12700000000E+01 0. -1.
         25    2    1    2    0    0  0.00000000000E+00  0.00000000000E+00 -0.10538236129E+04  0.10612111260E+04  0.12499938786E+03 0.  0.
    9000005    1    3    3    0    0  0.57112500452E+02 -0.23626489291E+02 -0.60525828459E+03  0.60840664014E+03  0.10000000000E+01 0.  0.
    9000005    1    3    3    0    0 -0.57112500452E+02  0.23626489291E+02 -0.44856532828E+03  0.45280448589E+03  0.10000000000E+01 0.  0.
<mgrwt>
<rscale>  0 0.12499939E+03</rscale>
<asrwt>0</asrwt>
<pdfrwt beam="1">  1        4 0.92344277E-03 0.12499939E+03</pdfrwt>
<pdfrwt beam="2">  1       -4 0.26437831E+00 0.12499939E+03</pdfrwt>
<totfact> 0.33145589E+02</totfact>
</mgrwt>
</event>
<event>
 5    1  0.1423270E-002  0.1249996E+03  0.7818608E-02  0.1235070E+00
         -4   -1    0    0    0  501 -0.00000000000E+00  0.00000000000E+00  0.25930488520E+02  0.25961570347E+02  0.12700000000E+01 0. -1.
          4   -1    0    0  501    0  0.00000000000E+00 -0.00000000000E+00 -0.15051825664E+03  0.15052361436E+03  0.12700000000E+01 0. -1.
         25    2    1    2    0    0  0.00000000000E+00  0.00000000000E+00 -0.12458776812E+03  0.17648518471E+03  0.12499963383E+03 0.  0.
    9000005    1    3    3    0    0 -0.81425200176E+01  0.17582515729E+02 -0.14617678317E+03  0.14745879909E+03  0.10000000000E+01 0.  0.
    9000005    1    3    3    0    0  0.81425200176E+01 -0.17582515729E+02  0.21589015048E+02  0.29026385623E+02  0.10000000000E+01 0.  0.
<mgrwt>
<rscale>  0 0.12499963E+03</rscale>
<asrwt>0</asrwt>
<pdfrwt beam="2">  1        4 0.37634117E-01 0.12499963E+03</pdfrwt>
<pdfrwt beam="1">  1       -4 0.64871775E-02 0.12499963E+03</pdfrwt>
<totfact> 0.17308590E+03</totfact>
</mgrwt>
</event>
<event>
 5    1  0.1423270E-002  0.1250004E+03  0.7818608E-02  0.1235069E+00
         -4   -1    0    0    0  501 -0.00000000000E+00  0.00000000000E+00  0.31897216668E+02  0.31922489426E+02  0.12700000000E+01 0.  1.
          4   -1    0    0  501    0  0.00000000000E+00 -0.00000000000E+00 -0.12238735836E+03  0.12239394751E+03  0.12700000000E+01 0.  1.
         25    2    1    2    0    0  0.00000000000E+00  0.00000000000E+00 -0.90490141692E+02  0.15431643693E+03  0.12500038786E+03 0.  0.
    9000005    1    3    3    0    0  0.33288214171E+02  0.11207789263E+02  0.18564062429E+02  0.39740963208E+02  0.10000000000E+01 0.  0.
    9000005    1    3    3    0    0 -0.33288214171E+02 -0.11207789263E+02 -0.10905420412E+03  0.11457547372E+03  0.10000000000E+01 0.  0.
<mgrwt>
<rscale>  0 0.12500039E+03</rscale>
<asrwt>0</asrwt>
<pdfrwt beam="2">  1        4 0.30600821E-01 0.12500039E+03</pdfrwt>
<pdfrwt beam="1">  1       -4 0.79782872E-02 0.12500039E+03</pdfrwt>
<totfact> 0.18328393E+03</totfact>
</mgrwt>
</event>
<event>
 5    1  0.1423270E-002  0.1249912E+03  0.7818608E-02  0.1235083E+00
         -4   -1    0    0    0  501 -0.00000000000E+00  0.00000000000E+00  0.15498376786E+02  0.15550324209E+02  0.12700000000E+01 0.  1.
          4   -1    0    0  501    0  0.00000000000E+00 -0.00000000000E+00 -0.25153189465E+03  0.25153510078E+03  0.12700000000E+01 0.  1.
         25    2    1    2    0    0  0.00000000000E+00  0.00000000000E+00 -0.23603351786E+03  0.26708542499E+03  0.12499121045E+03 0.  0.
    9000005    1    3    3    0    0 -0.49641608247E+02  0.76049083293E+01 -0.19747068157E+03  0.20375915680E+03  0.10000000000E+01 0.  0.
    9000005    1    3    3    0    0  0.49641608247E+02 -0.76049083293E+01 -0.38562836289E+02  0.63326268189E+02  0.10000000000E+01 0.  0.
<mgrwt>
<rscale>  0 0.12499121E+03</rscale>
<asrwt>0</asrwt>
<pdfrwt beam="2">  1        4 0.62889855E-01 0.12499121E+03</pdfrwt>
<pdfrwt beam="1">  1       -4 0.38814892E-02 0.12499121E+03</pdfrwt>
<totfact> 0.13949240E+03</totfact>
</mgrwt>
</event>
<event>
 5    1  0.1423270E-002  0.1249980E+03  0.7818608E-02  0.1235072E+00
          4   -1    0    0  501    0  0.00000000000E+00  0.00000000000E+00  0.18781022819E+03  0.18781452211E+03  0.12700000000E+01 0. -1.
         -4   -1    0    0    0  501 -0.00000000000E+00 -0.00000000000E+00 -0.20774341203E+02  0.20813124523E+02  0.12700000000E+01 0. -1.
         25    2    1    2    0    0  0.00000000000E+00  0.00000000000E+00  0.16703588699E+03  0.20862764663E+03  0.12499802957E+03 0.  0.
    9000005    1    3    3    0    0 -0.32964876555E+02  0.70634857293E+01 -0.43023634917E+01  0.34001268337E+02  0.10000000000E+01 0.  0.
    9000005    1    3    3    0    0  0.32964876555E+02 -0.70634857293E+01  0.17133825048E+03  0.17462637829E+03  0.10000000000E+01 0.  0.
<mgrwt>
<rscale>  0 0.12499803E+03</rscale>
<asrwt>0</asrwt>
<pdfrwt beam="1">  1        4 0.46957941E-01 0.12499803E+03</pdfrwt>
<pdfrwt beam="2">  1       -4 0.51989700E-02 0.12499803E+03</pdfrwt>
<totfact> 0.15983037E+03</totfact>
</mgrwt>
</event>
<event>
 5    1  0.1423270E-002  0.1249967E+03  0.7818608E-02  0.1235074E+00
         -4   -1    0    0    0  501 -0.00000000000E+00  0.00000000000E+00  0.17901846865E+03  0.17902297344E+03  0.12700000000E+01 0.  1.
          4   -1    0    0  501    0  0.00000000000E+00 -0.00000000000E+00 -0.21795973526E+02  0.21832942128E+02  0.12700000000E+01 0.  1.
         25    2    1    2    0    0  0.00000000000E+00  0.00000000000E+00  0.15722249513E+03  0.20085591557E+03  0.12499674334E+03 0.  0.
    9000005    1    3    3    0    0 -0.40382532763E+02  0.29427471999E+02  0.13891395598E+03  0.14763066154E+03  0.10000000000E+01 0.  0.
    9000005    1    3    3    0    0  0.40382532763E+02 -0.29427471999E+02  0.18308539148E+02  0.53225254029E+02  0.10000000000E+01 0.  0.
<mgrwt>
<rscale>  0 0.12499674E+03</rscale>
<asrwt>0</asrwt>
<pdfrwt beam="2">  1        4 0.54541776E-02 0.12499674E+03</pdfrwt>
<pdfrwt beam="1">  1       -4 0.44759801E-01 0.12499674E+03</pdfrwt>
<totfact> 0.16289053E+03</totfact>
</mgrwt>
</event>
<event>
 5    1  0.1423270E-002  0.1250072E+03  0.7818608E-02  0.1235058E+00
         -4   -1    0    0    0  501 -0.00000000000E+00  0.00000000000E+00  0.13427236611E+02  0.13487163639E+02  0.12700000000E+01 0.  1.
          4   -1    0    0  501    0  0.00000000000E+00 -0.00000000000E+00 -0.29024433151E+03  0.29024711002E+03  0.12700000000E+01 0.  1.
         25    2    1    2    0    0  0.00000000000E+00  0.00000000000E+00 -0.27681709490E+03  0.30373427365E+03  0.12500721965E+03 0.  0.
    9000005    1    3    3    0    0  0.17116215530E+02  0.40504842358E+02 -0.30508278384E+02  0.53529077504E+02  0.10000000000E+01 0.  0.
    9000005    1    3    3    0    0 -0.17116215530E+02 -0.40504842358E+02 -0.24630881651E+03  0.25020519615E+03  0.10000000000E+01 0.  0.
<mgrwt>
<rscale>  0 0.12500722E+03</rscale>
<asrwt>0</asrwt>
<pdfrwt beam="2">  1        4 0.72568901E-01 0.12500722E+03</pdfrwt>
<pdfrwt beam="1">  1       -4 0.33646483E-02 0.12500722E+03</pdfrwt>
<totfact> 0.12864912E+03</totfact>
</mgrwt>
</event>
<event>
 5    1  0.1423270E-002  0.1250096E+03  0.7818608E-02  0.1235054E+00
          4   -1    0    0  501    0  0.00000000000E+00  0.00000000000E+00  0.13865260738E+02  0.13923302601E+02  0.12700000000E+01 0. -1.
         -4   -1    0    0    0  501 -0.00000000000E+00 -0.00000000000E+00 -0.28112473097E+03  0.28112759961E+03  0.12700000000E+01 0. -1.
         25    2    1    2    0    0  0.00000000000E+00  0.00000000000E+00 -0.26725947023E+03  0.29505090221E+03  0.12500964150E+03 0.  0.
    9000005    1    3    3    0    0 -0.21327608677E+02  0.32499846163E+02 -0.24913004263E+03  0.25214655468E+03  0.10000000000E+01 0.  0.
    9000005    1    3    3    0    0  0.21327608677E+02 -0.32499846163E+02 -0.18129427601E+02  0.42904347538E+02  0.10000000000E+01 0.  0.
<mgrwt>
<rscale>  0 0.12500964E+03</rscale>
<asrwt>0</asrwt>
<pdfrwt beam="1">  1        4 0.34739299E-02 0.12500964E+03</pdfrwt>
<pdfrwt beam="2">  1       -4 0.70288778E-01 0.12500964E+03</pdfrwt>
<totfact> 0.13108011E+03</totfact>
</mgrwt>
</event>
<event>
 5    1  0.1423270E-002  0.1249970E+03  0.7818608E-02  0.1235074E+00
          4   -1    0    0  501    0  0.00000000000E+00  0.00000000000E+00  0.24387559760E+02  0.24420605460E+02  0.12700000000E+01 0.  1.
         -4   -1    0    0    0  501 -0.00000000000E+00 -0.00000000000E+00 -0.16002225193E+03  0.16002729146E+03  0.12700000000E+01 0.  1.
         25    2    1    2    0    0  0.00000000000E+00  0.00000000000E+00 -0.13563469217E+03  0.18444789692E+03  0.12499702780E+03 0.  0.
    9000005    1    3    3    0    0  0.28549052533E+02 -0.43574766182E+01  0.13956782751E+02  0.32090929992E+02  0.10000000000E+01 0.  0.
    9000005    1    3    3    0    0 -0.28549052533E+02  0.43574766182E+01 -0.14959147492E+03  0.15235696693E+03  0.10000000000E+01 0.  0.
<mgrwt>
<rscale>  0 0.12499703E+03</rscale>
<asrwt>0</asrwt>
<pdfrwt beam="1">  1        4 0.61016511E-02 0.12499703E+03</pdfrwt>
<pdfrwt beam="2">  1       -4 0.40010321E-01 0.12499703E+03</pdfrwt>
<totfact> 0.16965483E+03</totfact>
</mgrwt>
</event>
<event>
 5    1  0.1423270E-002  0.1250019E+03  0.7818608E-02  0.1235066E+00
          4   -1    0    0  501    0  0.00000000000E+00  0.00000000000E+00  0.18023152662E+02  0.18067842480E+02  0.12700000000E+01 0. -1.
         -4   -1    0    0    0  501 -0.00000000000E+00 -0.00000000000E+00 -0.21642687650E+03  0.21643060267E+03  0.12700000000E+01 0. -1.
         25    2    1    2    0    0  0.00000000000E+00  0.00000000000E+00 -0.19840372384E+03  0.23449844515E+03  0.12500193256E+03 0.  0.
    9000005    1    3    3    0    0 -0.29337972804E+02  0.52102309493E+02 -0.65123202507E+02  0.88416055145E+02  0.10000000000E+01 0.  0.
    9000005    1    3    3    0    0  0.29337972804E+02 -0.52102309493E+02 -0.13328052133E+03  0.14608239001E+03  0.10000000000E+01 0.  0.
<mgrwt>
<rscale>  0 0.12500193E+03</rscale>
<asrwt>0</asrwt>
<pdfrwt beam="1">  1        4 0.45118408E-02 0.12500193E+03</pdfrwt>
<pdfrwt beam="2">  1       -4 0.54112763E-01 0.12500193E+03</pdfrwt>
<totfact> 0.15027225E+03</totfact>
</mgrwt>
</event>
<event>
 5    1  0.1423270E-002  0.1249929E+03  0.7818608E-02  0.1235080E+00
          4   -1    0    0  501    0  0.00000000000E+00  0.00000000000E+00  0.13036223829E+03  0.13036842436E+03  0.12700000000E+01 0.  1.
         -4   -1    0    0    0  501 -0.00000000000E+00 -0.00000000000E+00 -0.29940842978E+02  0.29967765653E+02  0.12700000000E+01 0.  1.
         25    2    1    2    0    0  0.00000000000E+00  0.00000000000E+00  0.10042139531E+03  0.16033619002E+03  0.12499294857E+03 0.  0.
    9000005    1    3    3    0    0  0.47507932083E+02 -0.35168958338E+02  0.24206673021E+02  0.63881313857E+02  0.10000000000E+01 0.  0.
    9000005    1    3    3    0    0 -0.47507932083E+02  0.35168958338E+02  0.76214722288E+02  0.96454876159E+02  0.10000000000E+01 0.  0.
<mgrwt>
<rscale>  0 0.12499295E+03</rscale>
<asrwt>0</asrwt>
<pdfrwt beam="1">  1        4 0.32594698E-01 0.12499295E+03</pdfrwt>
<pdfrwt beam="2">  1       -4 0.74893494E-02 0.12499295E+03</pdfrwt>
<totfact> 0.18044901E+03</totfact>
</mgrwt>
</event>
<event>
 5    1  0.1423270E-002  0.1250021E+03  0.7818608E-02  0.1235066E+00
          4   -1    0    0  501    0  0.00000000000E+00  0.00000000000E+00  0.69209882020E+03  0.69209998542E+03  0.12700000000E+01 0. -1.
         -4   -1    0    0    0  501 -0.00000000000E+00 -0.00000000000E+00 -0.55716293245E+01  0.57145387679E+01  0.12700000000E+01 0. -1.
         25    2    1    2    0    0  0.00000000000E+00  0.00000000000E+00  0.68652719087E+03  0.69781452419E+03  0.12500210542E+03 0.  0.
    9000005    1    3    3    0    0 -0.25522151526E+02  0.37384142674E+02  0.10273780878E+03  0.11227204325E+03  0.10000000000E+01 0.  0.
    9000005    1    3    3    0    0  0.25522151526E+02 -0.37384142674E+02  0.58378938209E+03  0.58554248094E+03  0.10000000000E+01 0.  0.
<mgrwt>
<rscale>  0 0.12500211E+03</rscale>
<asrwt>0</asrwt>
<pdfrwt beam="1">  1        4 0.17304268E+00 0.12500211E+03</pdfrwt>
<pdfrwt beam="2">  1       -4 0.14109169E-02 0.12500211E+03</pdfrwt>
<totfact> 0.62290416E+02</totfact>
</mgrwt>
</event>
<event>
 5    1  0.1423270E-002  0.1249986E+03  0.7818608E-02  0.1235071E+00
         -4   -1    0    0    0  501 -0.00000000000E+00  0.00000000000E+00  0.21843812086E+02  0.21880699862E+02  0.12700000000E+01 0.  1.
          4   -1    0    0  501    0  0.00000000000E+00 -0.00000000000E+00 -0.17863248615E+03  0.17863700067E+03  0.12700000000E+01 0.  1.
         25    2    1    2    0    0  0.00000000000E+00  0.00000000000E+00 -0.15678867407E+03  0.20051770054E+03  0.12499863964E+03 0.  0.
    9000005    1    3    3    0    0 -0.37376336902E+02 -0.69502647598E+01  0.11672342297E+01  0.38048116592E+02  0.10000000000E+01 0.  0.
    9000005    1    3    3    0    0  0.37376336902E+02  0.69502647598E+01 -0.15795590830E+03  0.16246958394E+03  0.10000000000E+01 0.  0.
<mgrwt>
<rscale>  0 0.12499864E+03</rscale>
<asrwt>0</asrwt>
<pdfrwt beam="2">  1        4 0.44663292E-01 0.12499864E+03</pdfrwt>
<pdfrwt beam="1">  1       -4 0.54661288E-02 0.12499864E+03</pdfrwt>
<totfact> 0.16301846E+03</totfact>
</mgrwt>
</event>
<event>
 5    1  0.1423270E-002  0.1250002E+03  0.7818608E-02  0.1235069E+00
         -4   -1    0    0    0  501 -0.00000000000E+00  0.00000000000E+00  0.99066190605E+02  0.99074330787E+02  0.12700000000E+01 0.  1.
          4   -1    0    0  501    0  0.00000000000E+00 -0.00000000000E+00 -0.39410825296E+02  0.39431282638E+02  0.12700000000E+01 0.  1.
         25    2    1    2    0    0  0.00000000000E+00  0.00000000000E+00  0.59655365309E+02  0.13850561343E+03  0.12500016936E+03 0.  0.
    9000005    1    3    3    0    0  0.58196331064E+02 -0.17374744309E+02  0.13521518622E+02  0.62229624416E+02  0.10000000000E+01 0.  0.
    9000005    1    3    3    0    0 -0.58196331064E+02  0.17374744309E+02  0.46133846687E+02  0.76275989009E+02  0.10000000000E+01 0.  0.
<mgrwt>
<rscale>  0 0.12500017E+03</rscale>
<asrwt>0</asrwt>
<pdfrwt beam="2">  1        4 0.98562811E-02 0.12500017E+03</pdfrwt>
<pdfrwt beam="1">  1       -4 0.24770122E-01 0.12500017E+03</pdfrwt>
<totfact> 0.19116980E+03</totfact>
</mgrwt>
</event>
<event>
 5    1  0.1423270E-002  0.1249994E+03  0.7818608E-02  0.1235070E+00
         -4   -1    0    0    0  501 -0.00000000000E+00  0.00000000000E+00  0.32183923615E+02  0.32208971409E+02  0.12700000000E+01 0.  1.
          4   -1    0    0  501    0  0.00000000000E+00 -0.00000000000E+00 -0.12129595047E+03  0.12130259890E+03  0.12700000000E+01 0.  1.
         25    2    1    2    0    0  0.00000000000E+00  0.00000000000E+00 -0.89112026854E+02  0.15351157031E+03  0.12499939555E+03 0.  0.
    9000005    1    3    3    0    0  0.40014423908E+02 -0.10682300554E+02 -0.10202717296E+03  0.11011725427E+03  0.10000000000E+01 0.  0.
    9000005    1    3    3    0    0 -0.40014423908E+02  0.10682300554E+02  0.12915146104E+02  0.43394316041E+02  0.10000000000E+01 0.  0.
<mgrwt>
<rscale>  0 0.12499940E+03</rscale>
<asrwt>0</asrwt>
<pdfrwt beam="2">  1        4 0.30327949E-01 0.12499940E+03</pdfrwt>
<pdfrwt beam="1">  1       -4 0.80499432E-02 0.12499940E+03</pdfrwt>
<totfact> 0.18367712E+03</totfact>
</mgrwt>
</event>
<event>
 5    1  0.1423270E-002  0.1249997E+03  0.7818608E-02  0.1235070E+00
         -4   -1    0    0    0  501 -0.00000000000E+00  0.00000000000E+00  0.34225982107E+02  0.34249536511E+02  0.12700000000E+01 0.  1.
          4   -1    0    0  501    0  0.00000000000E+00 -0.00000000000E+00 -0.11406420207E+03  0.11407127200E+03  0.12700000000E+01 0.  1.
         25    2    1    2    0    0  0.00000000000E+00  0.00000000000E+00 -0.79838219967E+02  0.14832080851E+03  0.12499968347E+03 0.  0.
    9000005    1    3    3    0    0 -0.45481399084E+02  0.36246854107E+02 -0.12787423259E+02  0.59555942516E+02  0.10000000000E+01 0.  0.
    9000005    1    3    3    0    0  0.45481399084E+02 -0.36246854107E+02 -0.67050796709E+02  0.88764865992E+02  0.10000000000E+01 0.  0.
<mgrwt>
<rscale>  0 0.12499968E+03</rscale>
<asrwt>0</asrwt>
<pdfrwt beam="2">  1        4 0.28519878E-01 0.12499968E+03</pdfrwt>
<pdfrwt beam="1">  1       -4 0.85603238E-02 0.12499968E+03</pdfrwt>
<totfact> 0.18621793E+03</totfact>
</mgrwt>
</event>
<event>
 5    1  0.1423270E-002  0.1250027E+03  0.7818608E-02  0.1235065E+00
         -4   -1    0    0    0  501 -0.00000000000E+00  0.00000000000E+00  0.30350110962E+02  0.30376670907E+02  0.12700000000E+01 0.  1.
          4   -1    0    0  501    0  0.00000000000E+00 -0.00000000000E+00 -0.12862592231E+03  0.12863219189E+03  0.12700000000E+01 0.  1.
         25    2    1    2    0    0  0.00000000000E+00  0.00000000000E+00 -0.98275811345E+02  0.15900886279E+03  0.12500273337E+03 0.  0.
    9000005    1    3    3    0    0 -0.19754918103E+02 -0.51619169234E+02 -0.86237657070E+02  0.10243402227E+03  0.10000000000E+01 0.  0.
    9000005    1    3    3    0    0  0.19754918103E+02  0.51619169234E+02 -0.12038154274E+02  0.56574840521E+02  0.10000000000E+01 0.  0.
<mgrwt>
<rscale>  0 0.12500273E+03</rscale>
<asrwt>0</asrwt>
<pdfrwt beam="2">  1        4 0.32160583E-01 0.12500273E+03</pdfrwt>
<pdfrwt beam="1">  1       -4 0.75916318E-02 0.12500273E+03</pdfrwt>
<totfact> 0.18103348E+03</totfact>
</mgrwt>
</event>
<event>
 5    1  0.1423270E-002  0.1250058E+03  0.7818608E-02  0.1235060E+00
         -4   -1    0    0    0  501 -0.00000000000E+00  0.00000000000E+00  0.17574569771E+03  0.17575028638E+03  0.12700000000E+01 0.  1.
          4   -1    0    0  501    0  0.00000000000E+00 -0.00000000000E+00 -0.22205743792E+02  0.22242031323E+02  0.12700000000E+01 0.  1.
         25    2    1    2    0    0  0.00000000000E+00  0.00000000000E+00  0.15353995391E+03  0.19799231770E+03  0.12500576155E+03 0.  0.
    9000005    1    3    3    0    0  0.53054314745E+02 -0.28413710494E+02  0.50101196886E+02  0.78314935910E+02  0.10000000000E+01 0.  0.
    9000005    1    3    3    0    0 -0.53054314745E+02  0.28413710494E+02  0.10343875703E+03  0.11967738179E+03  0.10000000000E+01 0.  0.
<mgrwt>
<rscale>  0 0.12500576E+03</rscale>
<asrwt>0</asrwt>
<pdfrwt beam="2">  1        4 0.55565456E-02 0.12500576E+03</pdfrwt>
<pdfrwt beam="1">  1       -4 0.43941533E-01 0.12500576E+03</pdfrwt>
<totfact> 0.16400563E+03</totfact>
</mgrwt>
</event>
<event>
 5    1  0.1423270E-002  0.1250003E+03  0.7818608E-02  0.1235069E+00
          4   -1    0    0  501    0  0.00000000000E+00  0.00000000000E+00  0.39408295327E+02  0.39428753982E+02  0.12700000000E+01 0. -1.
         -4   -1    0    0    0  501 -0.00000000000E+00 -0.00000000000E+00 -0.99072685528E+02  0.99080825177E+02  0.12700000000E+01 0. -1.
         25    2    1    2    0    0  0.00000000000E+00  0.00000000000E+00 -0.59664390202E+02  0.13850957916E+03  0.12500025624E+03 0.  0.
    9000005    1    3    3    0    0  0.60682077717E+02 -0.11252823502E+02 -0.18956942143E+02  0.64570165310E+02  0.10000000000E+01 0.  0.
    9000005    1    3    3    0    0 -0.60682077717E+02  0.11252823502E+02 -0.40707448059E+02  0.73939413849E+02  0.10000000000E+01 0.  0.
<mgrwt>
<rscale>  0 0.12500026E+03</rscale>
<asrwt>0</asrwt>
<pdfrwt beam="1">  1        4 0.98556488E-02 0.12500026E+03</pdfrwt>
<pdfrwt beam="2">  1       -4 0.24771746E-01 0.12500026E+03</pdfrwt>
<totfact> 0.19116737E+03</totfact>
</mgrwt>
</event>
<event>
 5    1  0.1423270E-002  0.1249984E+03  0.7818608E-02  0.1235072E+00
          4   -1    0    0  501    0  0.00000000000E+00  0.00000000000E+00  0.18716405381E+02  0.18759443766E+02  0.12700000000E+01 0.  1.
         -4   -1    0    0    0  501 -0.00000000000E+00 -0.00000000000E+00 -0.20841713052E+03  0.20842099989E+03  0.12700000000E+01 0.  1.
         25    2    1    2    0    0  0.00000000000E+00  0.00000000000E+00 -0.18970072514E+03  0.22718044366E+03  0.12499835543E+03 0.  0.
    9000005    1    3    3    0    0 -0.58290892212E+02  0.65365027299E+01 -0.13402482844E+03  0.14630177245E+03  0.10000000000E+01 0.  0.
    9000005    1    3    3    0    0  0.58290892212E+02 -0.65365027299E+01 -0.55675896697E+02  0.80878671205E+02  0.10000000000E+01 0.  0.
<mgrwt>
<rscale>  0 0.12499836E+03</rscale>
<asrwt>0</asrwt>
<pdfrwt beam="1">  1        4 0.46849655E-02 0.12499836E+03</pdfrwt>
<pdfrwt beam="2">  1       -4 0.52110139E-01 0.12499836E+03</pdfrwt>
<totfact> 0.15289167E+03</totfact>
</mgrwt>
</event>
<event>
 5    1  0.1423270E-002  0.1250004E+03  0.7818608E-02  0.1235069E+00
          4   -1    0    0  501    0  0.00000000000E+00  0.00000000000E+00  0.57689703380E+02  0.57703680784E+02  0.12700000000E+01 0. -1.
         -4   -1    0    0    0  501 -0.00000000000E+00 -0.00000000000E+00 -0.67683640802E+02  0.67695554745E+02  0.12700000000E+01 0. -1.
         25    2    1    2    0    0  0.00000000000E+00  0.00000000000E+00 -0.99939374225E+01  0.12539923553E+03  0.12500035794E+03 0.  0.
    9000005    1    3    3    0    0 -0.13666898912E+02 -0.18988037471E+02 -0.63129638862E+02  0.67332614650E+02  0.10000000000E+01 0.  0.
    9000005    1    3    3    0    0  0.13666898912E+02  0.18988037471E+02  0.53135701439E+02  0.58066620879E+02  0.10000000000E+01 0.  0.
<mgrwt>
<rscale>  0 0.12500036E+03</rscale>
<asrwt>0</asrwt>
<pdfrwt beam="1">  1        4 0.14425662E-01 0.12500036E+03</pdfrwt>
<pdfrwt beam="2">  1       -4 0.16924147E-01 0.12500036E+03</pdfrwt>
<totfact> 0.19813253E+03</totfact>
</mgrwt>
</event>
<event>
 5    1  0.1423270E-002  0.1249934E+03  0.7818608E-02  0.1235080E+00
          4   -1    0    0  501    0  0.00000000000E+00  0.00000000000E+00  0.53175034239E+02  0.53190198028E+02  0.12700000000E+01 0. -1.
         -4   -1    0    0    0  501 -0.00000000000E+00 -0.00000000000E+00 -0.73421350283E+02  0.73432333324E+02  0.12700000000E+01 0. -1.
         25    2    1    2    0    0  0.00000000000E+00  0.00000000000E+00 -0.20246316045E+02  0.12662253135E+03  0.12499340836E+03 0.  0.
    9000005    1    3    3    0    0 -0.55217478688E+02  0.21266201909E+02  0.10228906189E+02  0.60057071341E+02  0.10000000000E+01 0.  0.
    9000005    1    3    3    0    0  0.55217478688E+02 -0.21266201909E+02 -0.30475222233E+02  0.66565460011E+02  0.10000000000E+01 0.  0.
<mgrwt>
<rscale>  0 0.12499341E+03</rscale>
<asrwt>0</asrwt>
<pdfrwt beam="1">  1        4 0.13297027E-01 0.12499341E+03</pdfrwt>
<pdfrwt beam="2">  1       -4 0.18358606E-01 0.12499341E+03</pdfrwt>
<totfact> 0.19750361E+03</totfact>
</mgrwt>
</event>
<event>
 5    1  0.1423270E-002  0.1250019E+03  0.7818608E-02  0.1235066E+00
         -4   -1    0    0    0  501 -0.00000000000E+00  0.00000000000E+00  0.16091982616E+03  0.16092483758E+03  0.12700000000E+01 0.  1.
          4   -1    0    0  501    0  0.00000000000E+00 -0.00000000000E+00 -0.24253252367E+02  0.24286480815E+02  0.12700000000E+01 0.  1.
         25    2    1    2    0    0  0.00000000000E+00  0.00000000000E+00  0.13666657379E+03  0.18521131840E+03  0.12500192027E+03 0.  0.
    9000005    1    3    3    0    0 -0.45028086651E+02 -0.43103667055E+02  0.61721110283E+02  0.87726564709E+02  0.10000000000E+01 0.  0.
    9000005    1    3    3    0    0  0.45028086651E+02  0.43103667055E+02  0.74945463506E+02  0.97484753686E+02  0.10000000000E+01 0.  0.
<mgrwt>
<rscale>  0 0.12500192E+03</rscale>
<asrwt>0</asrwt>
<pdfrwt beam="2">  1        4 0.60680933E-02 0.12500192E+03</pdfrwt>
<pdfrwt beam="1">  1       -4 0.40234735E-01 0.12500192E+03</pdfrwt>
<totfact> 0.16931094E+03</totfact>
</mgrwt>
</event>
<event>
 5    1  0.1423270E-002  0.1249975E+03  0.7818608E-02  0.1235073E+00
         -4   -1    0    0    0  501 -0.00000000000E+00  0.00000000000E+00  0.74092544907E+03  0.74092653751E+03  0.12700000000E+01 0.  1.
          4   -1    0    0  501    0  0.00000000000E+00 -0.00000000000E+00 -0.51943168997E+01  0.53473197075E+01  0.12700000000E+01 0.  1.
         25    2    1    2    0    0  0.00000000000E+00  0.00000000000E+00  0.73573113217E+03  0.74627385722E+03  0.12499748443E+03 0.  0.
    9000005    1    3    3    0    0 -0.39066360071E+02  0.16065130320E+02  0.64281273821E+03  0.64419987994E+03  0.10000000000E+01 0.  0.
    9000005    1    3    3    0    0  0.39066360071E+02 -0.16065130320E+02  0.92918393961E+02  0.10207397728E+03  0.10000000000E+01 0.  0.
<mgrwt>
<rscale>  0 0.12499748E+03</rscale>
<asrwt>0</asrwt>
<pdfrwt beam="2">  1        4 0.13178406E-02 0.12499748E+03</pdfrwt>
<pdfrwt beam="1">  1       -4 0.18525063E+00 0.12499748E+03</pdfrwt>
<totfact> 0.57430580E+02</totfact>
</mgrwt>
</event>
<event>
 5    1  0.1423270E-002  0.1250281E+03  0.7818608E-02  0.1235025E+00
         -4   -1    0    0    0  501 -0.00000000000E+00  0.00000000000E+00  0.68877356280E+02  0.68889063778E+02  0.12700000000E+01 0. -1.
          4   -1    0    0  501    0  0.00000000000E+00 -0.00000000000E+00 -0.56715019503E+02  0.56729237059E+02  0.12700000000E+01 0. -1.
         25    2    1    2    0    0  0.00000000000E+00  0.00000000000E+00  0.12162336777E+02  0.12561830084E+03  0.12502813711E+03 0.  0.
    9000005    1    3    3    0    0 -0.57385906540E+02  0.11764425505E+02 -0.15826912470E+02  0.60688014757E+02  0.10000000000E+01 0.  0.
    9000005    1    3    3    0    0  0.57385906540E+02 -0.11764425505E+02  0.27989249247E+02  0.64930286079E+02  0.10000000000E+01 0.  0.
<mgrwt>
<rscale>  0 0.12502814E+03</rscale>
<asrwt>0</asrwt>
<pdfrwt beam="2">  1        4 0.14181996E-01 0.12502814E+03</pdfrwt>
<pdfrwt beam="1">  1       -4 0.17222580E-01 0.12502814E+03</pdfrwt>
<totfact> 0.19788532E+03</totfact>
</mgrwt>
</event>
<event>
 5    1  0.1423270E-002  0.1249994E+03  0.7818608E-02  0.1235070E+00
          4   -1    0    0  501    0  0.00000000000E+00  0.00000000000E+00  0.14735459747E+03  0.14736007022E+03  0.12700000000E+01 0.  1.
         -4   -1    0    0    0  501 -0.00000000000E+00 -0.00000000000E+00 -0.26487742847E+02  0.26518171527E+02  0.12700000000E+01 0.  1.
         25    2    1    2    0    0  0.00000000000E+00  0.00000000000E+00  0.12086685462E+03  0.17387824175E+03  0.12499938563E+03 0.  0.
    9000005    1    3    3    0    0 -0.26551150449E+02 -0.41507124876E+02  0.69662350645E+01  0.49772818251E+02  0.10000000000E+01 0.  0.
    9000005    1    3    3    0    0  0.26551150449E+02  0.41507124876E+02  0.11390061956E+03  0.12410542350E+03  0.10000000000E+01 0.  0.
<mgrwt>
<rscale>  0 0.12499939E+03</rscale>
<asrwt>0</asrwt>
<pdfrwt beam="1">  1        4 0.36843136E-01 0.12499939E+03</pdfrwt>
<pdfrwt beam="2">  1       -4 0.66264236E-02 0.12499939E+03</pdfrwt>
<totfact> 0.17423776E+03</totfact>
</mgrwt>
</event>
<event>
 5    1  0.1423270E-002  0.1249960E+03  0.7818608E-02  0.1235076E+00
          4   -1    0    0  501    0  0.00000000000E+00  0.00000000000E+00  0.87261702510E+01  0.88181033817E+01  0.12700000000E+01 0. -1.
         -4   -1    0    0    0  501 -0.00000000000E+00 -0.00000000000E+00 -0.44518041393E+03  0.44518222544E+03  0.12700000000E+01 0. -1.
         25    2    1    2    0    0  0.00000000000E+00  0.00000000000E+00 -0.43645424368E+03  0.45400032882E+03  0.12499596691E+03 0.  0.
    9000005    1    3    3    0    0 -0.10087550058E+02 -0.41241372443E+02 -0.51687854414E+02  0.66897262732E+02  0.10000000000E+01 0.  0.
    9000005    1    3    3    0    0  0.10087550058E+02  0.41241372443E+02 -0.38476638927E+03  0.38710306609E+03  0.10000000000E+01 0.  0.
<mgrwt>
<rscale>  0 0.12499597E+03</rscale>
<asrwt>0</asrwt>
<pdfrwt beam="1">  1        4 0.21932621E-02 0.12499597E+03</pdfrwt>
<pdfrwt beam="2">  1       -4 0.11130675E+00 0.12499597E+03</pdfrwt>
<totfact> 0.95311947E+02</totfact>
</mgrwt>
</event>
<event>
 5    1  0.1423270E-002  0.1249962E+03  0.7818608E-02  0.1235075E+00
          4   -1    0    0  501    0  0.00000000000E+00  0.00000000000E+00  0.44696379805E+01  0.46465647178E+01  0.12700000000E+01 0.  1.
         -4   -1    0    0    0  501 -0.00000000000E+00 -0.00000000000E+00 -0.85676111099E+03  0.85676205227E+03  0.12700000000E+01 0.  1.
         25    2    1    2    0    0  0.00000000000E+00  0.00000000000E+00 -0.85229147301E+03  0.86140861699E+03  0.12499620175E+03 0.  0.
    9000005    1    3    3    0    0 -0.10779907232E+02 -0.33042463177E+02 -0.68252890801E+02  0.76599398662E+02  0.10000000000E+01 0.  0.
    9000005    1    3    3    0    0  0.10779907232E+02  0.33042463177E+02 -0.78403858221E+03  0.78480921832E+03  0.10000000000E+01 0.  0.
<mgrwt>
<rscale>  0 0.12499620E+03</rscale>
<asrwt>0</asrwt>
<pdfrwt beam="1">  1        4 0.11396459E-02 0.12499620E+03</pdfrwt>
<pdfrwt beam="2">  1       -4 0.21421196E+00 0.12499620E+03</pdfrwt>
<totfact> 0.47306883E+02</totfact>
</mgrwt>
</event>
<event>
 5    1  0.1423270E-002  0.1250003E+03  0.7818608E-02  0.1235069E+00
         -4   -1    0    0    0  501 -0.00000000000E+00  0.00000000000E+00  0.21313436350E+02  0.21351240457E+02  0.12700000000E+01 0.  1.
          4   -1    0    0  501    0  0.00000000000E+00 -0.00000000000E+00 -0.18307497364E+03  0.18307937861E+03  0.12700000000E+01 0.  1.
         25    2    1    2    0    0  0.00000000000E+00  0.00000000000E+00 -0.16176153729E+03  0.20443061907E+03  0.12500033227E+03 0.  0.
    9000005    1    3    3    0    0 -0.24718221884E+02 -0.78635562944E+01 -0.17386307879E+03  0.17579020501E+03  0.10000000000E+01 0.  0.
    9000005    1    3    3    0    0  0.24718221884E+02  0.78635562944E+01  0.12101541503E+02  0.28640414058E+02  0.10000000000E+01 0.  0.
<mgrwt>
<rscale>  0 0.12500033E+03</rscale>
<asrwt>0</asrwt>
<pdfrwt beam="2">  1        4 0.45774015E-01 0.12500033E+03</pdfrwt>
<pdfrwt beam="1">  1       -4 0.53336358E-02 0.12500033E+03</pdfrwt>
<totfact> 0.16146033E+03</totfact>
</mgrwt>
</event>
<event>
 5    1  0.1423270E-002  0.1249971E+03  0.7818608E-02  0.1235074E+00
          4   -1    0    0  501    0  0.00000000000E+00  0.00000000000E+00  0.14210049783E+02  0.14266688994E+02  0.12700000000E+01 0.  1.
         -4   -1    0    0    0  501 -0.00000000000E+00 -0.00000000000E+00 -0.27427589548E+03  0.27427883575E+03  0.12700000000E+01 0.  1.
         25    2    1    2    0    0  0.00000000000E+00  0.00000000000E+00 -0.26006584570E+03  0.28854552475E+03  0.12499710298E+03 0.  0.
    9000005    1    3    3    0    0  0.32877584170E+02  0.14092849995E+02 -0.11749884343E+02  0.37664356411E+02  0.10000000000E+01 0.  0.
    9000005    1    3    3    0    0 -0.32877584170E+02 -0.14092849995E+02 -0.24831596135E+03  0.25088116833E+03  0.10000000000E+01 0.  0.
<mgrwt>
<rscale>  0 0.12499710E+03</rscale>
<asrwt>0</asrwt>
<pdfrwt beam="1">  1        4 0.35599608E-02 0.12499710E+03</pdfrwt>
<pdfrwt beam="2">  1       -4 0.68576404E-01 0.12499710E+03</pdfrwt>
<totfact> 0.13299157E+03</totfact>
</mgrwt>
</event>
<event>
 4    1  0.1423270E-002  0.1250740E+03  0.7818608E-02  0.1234954E+00
          4   -1    0    0  501    0  0.00000000000E+00  0.00000000000E+00  0.41232097859E+03  0.41232293446E+03  0.12700000000E+01 0. -1.
         -4   -1    0    0    0  501 -0.00000000000E+00 -0.00000000000E+00 -0.94405253974E+01  0.95255666382E+01  0.12700000000E+01 0. -1.
    9000005    1    1    2    0    0 -0.45439744830E+02 -0.33725718084E+02  0.11171634267E+03  0.12523472238E+03  0.10000000000E+01 0.  0.
    9000005    1    1    2    0    0  0.45439744830E+02  0.33725718084E+02  0.29116411052E+03  0.29661377872E+03  0.10000000000E+01 0.  0.
<mgrwt>
<rscale>  0 0.12507397E+03</rscale>
<asrwt>0</asrwt>
<pdfrwt beam="1">  1        4 0.10309111E+00 0.12507397E+03</pdfrwt>
<pdfrwt beam="2">  1       -4 0.23710061E-02 0.12507397E+03</pdfrwt>
<totfact> 0.10112798E+03</totfact>
</mgrwt>
</event>
<event>
 5    1  0.1423270E-002  0.1249953E+03  0.7818608E-02  0.1235077E+00
         -4   -1    0    0    0  501 -0.00000000000E+00  0.00000000000E+00  0.31320755669E+02  0.31346493196E+02  0.12700000000E+01 0.  1.
          4   -1    0    0  501    0  0.00000000000E+00 -0.00000000000E+00 -0.12462809503E+03  0.12463456571E+03  0.12700000000E+01 0.  1.
         25    2    1    2    0    0  0.00000000000E+00  0.00000000000E+00 -0.93307339360E+02  0.15598105891E+03  0.12499532455E+03 0.  0.
    9000005    1    3    3    0    0  0.59924808539E+02  0.17038377106E+02 -0.40582583854E+02  0.74358826545E+02  0.10000000000E+01 0.  0.
    9000005    1    3    3    0    0 -0.59924808539E+02 -0.17038377106E+02 -0.52724755506E+02  0.81622232364E+02  0.10000000000E+01 0.  0.
<mgrwt>
<rscale>  0 0.12499532E+03</rscale>
<asrwt>0</asrwt>
<pdfrwt beam="2">  1        4 0.31161049E-01 0.12499532E+03</pdfrwt>
<pdfrwt beam="1">  1       -4 0.78342153E-02 0.12499532E+03</pdfrwt>
<totfact> 0.18250532E+03</totfact>
</mgrwt>
</event>
<event>
 5    1  0.1423270E-002  0.1250062E+03  0.7818608E-02  0.1235060E+00
          4   -1    0    0  501    0  0.00000000000E+00  0.00000000000E+00  0.69770161955E+02  0.69781719664E+02  0.12700000000E+01 0.  1.
         -4   -1    0    0    0  501 -0.00000000000E+00 -0.00000000000E+00 -0.55969531921E+02  0.55983938799E+02  0.12700000000E+01 0.  1.
         25    2    1    2    0    0  0.00000000000E+00  0.00000000000E+00  0.13800630034E+02  0.12576565846E+03  0.12500617368E+03 0.  0.
    9000005    1    3    3    0    0 -0.11945352255E+02  0.51273356780E+02  0.40779636503E+02  0.66600505323E+02  0.10000000000E+01 0.  0.
    9000005    1    3    3    0    0  0.11945352255E+02 -0.51273356780E+02 -0.26979006469E+02  0.59165153140E+02  0.10000000000E+01 0.  0.
<mgrwt>
<rscale>  0 0.12500617E+03</rscale>
<asrwt>0</asrwt>
<pdfrwt beam="1">  1        4 0.17445786E-01 0.12500617E+03</pdfrwt>
<pdfrwt beam="2">  1       -4 0.13995629E-01 0.12500617E+03</pdfrwt>
<totfact> 0.19790730E+03</totfact>
</mgrwt>
</event>
<event>
 5    1  0.1423270E-002  0.1249992E+03  0.7818608E-02  0.1235070E+00
          4   -1    0    0  501    0  0.00000000000E+00  0.00000000000E+00  0.88143858668E+02  0.88153007441E+02  0.12700000000E+01 0. -1.
         -4   -1    0    0    0  501 -0.00000000000E+00 -0.00000000000E+00 -0.44295655292E+02  0.44313857627E+02  0.12700000000E+01 0. -1.
         25    2    1    2    0    0  0.00000000000E+00  0.00000000000E+00  0.43848203376E+02  0.13246686507E+03  0.12499922160E+03 0.  0.
    9000005    1    3    3    0    0  0.53270918466E+00  0.40195120970E+02 -0.28780624468E+02  0.49449528548E+02  0.10000000000E+01 0.  0.
    9000005    1    3    3    0    0 -0.53270918466E+00 -0.40195120970E+02  0.72628827844E+02  0.83017336520E+02  0.10000000000E+01 0.  0.
<mgrwt>
<rscale>  0 0.12499922E+03</rscale>
<asrwt>0</asrwt>
<pdfrwt beam="1">  1        4 0.22039383E-01 0.12499922E+03</pdfrwt>
<pdfrwt beam="2">  1       -4 0.11077333E-01 0.12499922E+03</pdfrwt>
<totfact> 0.19433011E+03</totfact>
</mgrwt>
</event>
<event>
 5    1  0.1423270E-002  0.1250010E+03  0.7818608E-02  0.1235068E+00
         -4   -1    0    0    0  501 -0.00000000000E+00  0.00000000000E+00  0.82492791485E+03  0.82492889245E+03  0.12700000000E+01 0. -1.
          4   -1    0    0  501    0  0.00000000000E+00 -0.00000000000E+00 -0.46491895234E+01  0.48195293572E+01  0.12700000000E+01 0. -1.
         25    2    1    2    0    0  0.00000000000E+00  0.00000000000E+00  0.82027872532E+03  0.82974842181E+03  0.12500102507E+03 0.  0.
    9000005    1    3    3    0    0 -0.11898468650E+01 -0.60740663081E+02  0.31292815944E+03  0.31877245310E+03  0.10000000000E+01 0.  0.
    9000005    1    3    3    0    0  0.11898468650E+01  0.60740663081E+02  0.50735056589E+03  0.51097596871E+03  0.10000000000E+01 0.  0.
<mgrwt>
<rscale>  0 0.12500103E+03</rscale>
<asrwt>0</asrwt>
<pdfrwt beam="2">  1        4 0.11837121E-02 0.12500103E+03</pdfrwt>
<pdfrwt beam="1">  1       -4 0.20625338E+00 0.12500103E+03</pdfrwt>
<totfact> 0.49911252E+02</totfact>
</mgrwt>
</event>
<event>
 5    1  0.1423270E-002  0.1249991E+03  0.7818608E-02  0.1235071E+00
         -4   -1    0    0    0  501 -0.00000000000E+00  0.00000000000E+00  0.10526385852E+03  0.10527151947E+03  0.12700000000E+01 0. -1.
          4   -1    0    0  501    0  0.00000000000E+00 -0.00000000000E+00 -0.37088719282E+02  0.37110456720E+02  0.12700000000E+01 0. -1.
         25    2    1    2    0    0  0.00000000000E+00  0.00000000000E+00  0.68175139242E+02  0.14238197619E+03  0.12499911013E+03 0.  0.
    9000005    1    3    3    0    0 -0.44546124315E+00 -0.82198377699E+01  0.10464915671E+03  0.10497718881E+03  0.10000000000E+01 0.  0.
    9000005    1    3    3    0    0  0.44546124315E+00  0.82198377699E+01 -0.36474017472E+02  0.37404787384E+02  0.10000000000E+01 0.  0.
<mgrwt>
<rscale>  0 0.12499911E+03</rscale>
<asrwt>0</asrwt>
<pdfrwt beam="2">  1        4 0.92758547E-02 0.12499911E+03</pdfrwt>
<pdfrwt beam="1">  1       -4 0.26319639E-01 0.12499911E+03</pdfrwt>
<totfact> 0.18919532E+03</totfact>
</mgrwt>
</event>
<event>
 5    1  0.1423270E-002  0.1250015E+03  0.7818608E-02  0.1235067E+00
          4   -1    0    0  501    0  0.00000000000E+00  0.00000000000E+00  0.44131006743E+01  0.45922061759E+01  0.12700000000E+01 0. -1.
         -4   -1    0    0    0  501 -0.00000000000E+00 -0.00000000000E+00 -0.86738466515E+03  0.86738559489E+03  0.12700000000E+01 0. -1.
         25    2    1    2    0    0  0.00000000000E+00  0.00000000000E+00 -0.86297156447E+03  0.87197780107E+03  0.12500145788E+03 0.  0.
    9000005    1    3    3    0    0  0.39755661928E+02 -0.25649410321E+02 -0.14667931863E+03  0.15412406502E+03  0.10000000000E+01 0.  0.
    9000005    1    3    3    0    0 -0.39755661928E+02  0.25649410321E+02 -0.71629224585E+03  0.71785373605E+03  0.10000000000E+01 0.  0.
<mgrwt>
<rscale>  0 0.12500146E+03</rscale>
<asrwt>0</asrwt>
<pdfrwt beam="1">  1        4 0.11257825E-02 0.12500146E+03</pdfrwt>
<pdfrwt beam="2">  1       -4 0.21686810E+00 0.12500146E+03</pdfrwt>
<totfact> 0.46455165E+02</totfact>
</mgrwt>
</event>
<event>
 5    1  0.1423270E-002  0.1250019E+03  0.7818608E-02  0.1235066E+00
          4   -1    0    0  501    0  0.00000000000E+00  0.00000000000E+00  0.14426645028E+03  0.14427204017E+03  0.12700000000E+01 0.  1.
         -4   -1    0    0    0  501 -0.00000000000E+00 -0.00000000000E+00 -0.27056448924E+02  0.27086238727E+02  0.12700000000E+01 0.  1.
         25    2    1    2    0    0  0.00000000000E+00  0.00000000000E+00  0.11721000135E+03  0.17135827890E+03  0.12500190131E+03 0.  0.
    9000005    1    3    3    0    0  0.61811977554E+02 -0.91946203547E+01  0.58156124915E+02  0.85372105970E+02  0.10000000000E+01 0.  0.
    9000005    1    3    3    0    0 -0.61811977554E+02  0.91946203547E+01  0.59053876437E+02  0.85986172929E+02  0.10000000000E+01 0.  0.
<mgrwt>
<rscale>  0 0.12500190E+03</rscale>
<asrwt>0</asrwt>
<pdfrwt beam="1">  1        4 0.36071034E-01 0.12500190E+03</pdfrwt>
<pdfrwt beam="2">  1       -4 0.67685349E-02 0.12500190E+03</pdfrwt>
<totfact> 0.17535183E+03</totfact>
</mgrwt>
</event>
<event>
 5    1  0.1423270E-002  0.1250003E+03  0.7818608E-02  0.1235069E+00
          4   -1    0    0  501    0  0.00000000000E+00  0.00000000000E+00  0.26736419601E+03  0.26736721229E+03  0.12700000000E+01 0.  1.
         -4   -1    0    0    0  501 -0.00000000000E+00 -0.00000000000E+00 -0.14579594781E+02  0.14634803858E+02  0.12700000000E+01 0.  1.
         25    2    1    2    0    0  0.00000000000E+00  0.00000000000E+00  0.25278460123E+03  0.28200201615E+03  0.12500032997E+03 0.  0.
    9000005    1    3    3    0    0  0.20887508756E+02  0.53859519195E+02  0.18016560779E+03  0.18920301811E+03  0.10000000000E+01 0.  0.
    9000005    1    3    3    0    0 -0.20887508756E+02 -0.53859519195E+02  0.72618993443E+02  0.92798998047E+02  0.10000000000E+01 0.  0.
<mgrwt>
<rscale>  0 0.12500033E+03</rscale>
<asrwt>0</asrwt>
<pdfrwt beam="1">  1        4 0.66848326E-01 0.12500033E+03</pdfrwt>
<pdfrwt beam="2">  1       -4 0.36521769E-02 0.12500033E+03</pdfrwt>
<totfact> 0.13490808E+03</totfact>
</mgrwt>
</event>
<event>
 5    1  0.1423270E-002  0.1250019E+03  0.7818608E-02  0.1235066E+00
          4   -1    0    0  501    0  0.00000000000E+00  0.00000000000E+00  0.50933792992E+03  0.50933951324E+03  0.12700000000E+01 0. -1.
         -4   -1    0    0    0  501 -0.00000000000E+00 -0.00000000000E+00 -0.76153274814E+01  0.77204995077E+01  0.12700000000E+01 0. -1.
         25    2    1    2    0    0  0.00000000000E+00  0.00000000000E+00  0.50172260244E+03  0.51706001275E+03  0.12500194795E+03 0.  0.
    9000005    1    3    3    0    0 -0.12404480241E+01 -0.62125389192E+02  0.22333966215E+03  0.23182473419E+03  0.10000000000E+01 0.  0.
    9000005    1    3    3    0    0  0.12404480241E+01  0.62125389192E+02  0.27838294029E+03  0.28523527856E+03  0.10000000000E+01 0.  0.
<mgrwt>
<rscale>  0 0.12500195E+03</rscale>
<asrwt>0</asrwt>
<pdfrwt beam="1">  1        4 0.12734781E+00 0.12500195E+03</pdfrwt>
<pdfrwt beam="2">  1       -4 0.19171766E-02 0.12500195E+03</pdfrwt>
<totfact> 0.84951980E+02</totfact>
</mgrwt>
</event>
<event>
 5    1  0.1423270E-002  0.1250011E+03  0.7818608E-02  0.1235068E+00
          4   -1    0    0  501    0  0.00000000000E+00  0.00000000000E+00  0.90775384254E+01  0.91659480614E+01  0.12700000000E+01 0.  1.
         -4   -1    0    0    0  501 -0.00000000000E+00 -0.00000000000E+00 -0.42815291891E+03  0.42815480246E+03  0.12700000000E+01 0.  1.
         25    2    1    2    0    0  0.00000000000E+00  0.00000000000E+00 -0.41907538049E+03  0.43732075053E+03  0.12500105724E+03 0.  0.
    9000005    1    3    3    0    0 -0.21666904753E+02 -0.41021858442E+02 -0.35602022112E+03  0.35903153828E+03  0.10000000000E+01 0.  0.
    9000005    1    3    3    0    0  0.21666904753E+02  0.41021858442E+02 -0.63055159369E+02  0.78289212250E+02  0.10000000000E+01 0.  0.
<mgrwt>
<rscale>  0 0.12500106E+03</rscale>
<asrwt>0</asrwt>
<pdfrwt beam="1">  1        4 0.22806727E-02 0.12500106E+03</pdfrwt>
<pdfrwt beam="2">  1       -4 0.10704945E+00 0.12500106E+03</pdfrwt>
<totfact> 0.98336449E+02</totfact>
</mgrwt>
</event>
<event>
 5    1  0.1423270E-002  0.1250031E+03  0.7818608E-02  0.1235064E+00
          4   -1    0    0  501    0  0.00000000000E+00  0.00000000000E+00  0.60306841752E+01  0.61629580252E+01  0.12700000000E+01 0. -1.
         -4   -1    0    0    0  501 -0.00000000000E+00 -0.00000000000E+00 -0.64060207419E+03  0.64060333308E+03  0.12700000000E+01 0. -1.
         25    2    1    2    0    0  0.00000000000E+00  0.00000000000E+00 -0.63457139002E+03  0.64676629111E+03  0.12500314511E+03 0.  0.
    9000005    1    3    3    0    0  0.25973110499E+01 -0.50448587112E+02 -0.50764675896E+03  0.51015491554E+03  0.10000000000E+01 0.  0.
    9000005    1    3    3    0    0 -0.25973110499E+01  0.50448587112E+02 -0.12692463105E+03  0.13661137557E+03  0.10000000000E+01 0.  0.
<mgrwt>
<rscale>  0 0.12500315E+03</rscale>
<asrwt>0</asrwt>
<pdfrwt beam="1">  1        4 0.15243648E-02 0.12500315E+03</pdfrwt>
<pdfrwt beam="2">  1       -4 0.16016698E+00 0.12500315E+03</pdfrwt>
<totfact> 0.67877419E+02</totfact>
</mgrwt>
</event>
<event>
 5    1  0.1423270E-002  0.1250034E+03  0.7818608E-02  0.1235064E+00
          4   -1    0    0  501    0  0.00000000000E+00  0.00000000000E+00  0.23239857714E+03  0.23240204723E+03  0.12700000000E+01 0. -1.
         -4   -1    0    0    0  501 -0.00000000000E+00 -0.00000000000E+00 -0.16781736282E+02  0.16829722893E+02  0.12700000000E+01 0. -1.
         25    2    1    2    0    0  0.00000000000E+00  0.00000000000E+00  0.21561684086E+03  0.24923177012E+03  0.12500341266E+03 0.  0.
    9000005    1    3    3    0    0 -0.24906855164E+02 -0.40819391813E+02  0.27587048771E+02  0.55214304687E+02  0.10000000000E+01 0.  0.
    9000005    1    3    3    0    0  0.24906855164E+02  0.40819391813E+02  0.18802979208E+03  0.19401746543E+03  0.10000000000E+01 0.  0.
<mgrwt>
<rscale>  0 0.12500341E+03</rscale>
<asrwt>0</asrwt>
<pdfrwt beam="1">  1        4 0.58106077E-01 0.12500341E+03</pdfrwt>
<pdfrwt beam="2">  1       -4 0.42018661E-02 0.12500341E+03</pdfrwt>
<totfact> 0.14522438E+03</totfact>
</mgrwt>
</event>
<event>
 5    1  0.1423270E-002  0.1249990E+03  0.7818608E-02  0.1235071E+00
          4   -1    0    0  501    0  0.00000000000E+00  0.00000000000E+00  0.19129757683E+02  0.19171868167E+02  0.12700000000E+01 0. -1.
         -4   -1    0    0    0  501 -0.00000000000E+00 -0.00000000000E+00 -0.20392554981E+03  0.20392950440E+03  0.12700000000E+01 0. -1.
         25    2    1    2    0    0  0.00000000000E+00  0.00000000000E+00 -0.18479579213E+03  0.22310137257E+03  0.12499895061E+03 0.  0.
    9000005    1    3    3    0    0  0.10552442534E+02 -0.26186348321E+02 -0.19190263240E+03  0.19397087205E+03  0.10000000000E+01 0.  0.
    9000005    1    3    3    0    0 -0.10552442534E+02  0.26186348321E+02  0.71068402726E+01  0.29130500519E+02  0.10000000000E+01 0.  0.
<mgrwt>
<rscale>  0 0.12499895E+03</rscale>
<asrwt>0</asrwt>
<pdfrwt beam="1">  1        4 0.47881982E-02 0.12499895E+03</pdfrwt>
<pdfrwt beam="2">  1       -4 0.50987139E-01 0.12499895E+03</pdfrwt>
<totfact> 0.15437362E+03</totfact>
</mgrwt>
</event>
<event>
 5    1  0.1423270E-002  0.1250059E+03  0.7818608E-02  0.1235060E+00
         -4   -1    0    0    0  501 -0.00000000000E+00  0.00000000000E+00  0.38126079912E+02  0.38147226235E+02  0.12700000000E+01 0.  1.
          4   -1    0    0  501    0  0.00000000000E+00 -0.00000000000E+00 -0.10241221930E+03  0.10242009354E+03  0.12700000000E+01 0.  1.
         25    2    1    2    0    0  0.00000000000E+00  0.00000000000E+00 -0.64286139384E+02  0.14056731978E+03  0.12500585455E+03 0.  0.
    9000005    1    3    3    0    0  0.52721357201E+02 -0.33463414224E+02 -0.34959748943E+02  0.71571821570E+02  0.10000000000E+01 0.  0.
    9000005    1    3    3    0    0 -0.52721357201E+02  0.33463414224E+02 -0.29326390441E+02  0.68995498207E+02  0.10000000000E+01 0.  0.
<mgrwt>
<rscale>  0 0.12500585E+03</rscale>
<asrwt>0</asrwt>
<pdfrwt beam="2">  1        4 0.25606682E-01 0.12500585E+03</pdfrwt>
<pdfrwt beam="1">  1       -4 0.95351478E-02 0.12500585E+03</pdfrwt>
<totfact> 0.19008762E+03</totfact>
</mgrwt>
</event>
<event>
 5    1  0.1423270E-002  0.1250021E+03  0.7818608E-02  0.1235066E+00
         -4   -1    0    0    0  501 -0.00000000000E+00  0.00000000000E+00  0.15075406730E+03  0.15075941664E+03  0.12700000000E+01 0.  1.
          4   -1    0    0  501    0  0.00000000000E+00 -0.00000000000E+00 -0.25890900819E+02  0.25922030114E+02  0.12700000000E+01 0.  1.
         25    2    1    2    0    0  0.00000000000E+00  0.00000000000E+00  0.12486316648E+03  0.17668144676E+03  0.12500209312E+03 0.  0.
    9000005    1    3    3    0    0  0.60412421728E+02 -0.14152563421E+02  0.72954273580E+02  0.95777250869E+02  0.10000000000E+01 0.  0.
    9000005    1    3    3    0    0 -0.60412421728E+02  0.14152563421E+02  0.51908892900E+02  0.80904195889E+02  0.10000000000E+01 0.  0.
<mgrwt>
<rscale>  0 0.12500209E+03</rscale>
<asrwt>0</asrwt>
<pdfrwt beam="2">  1        4 0.64772851E-02 0.12500209E+03</pdfrwt>
<pdfrwt beam="1">  1       -4 0.37693076E-01 0.12500209E+03</pdfrwt>
<totfact> 0.17298989E+03</totfact>
</mgrwt>
</event>
<event>
 5    1  0.1423270E-002  0.1249868E+03  0.7818608E-02  0.1235090E+00
         -4   -1    0    0    0  501 -0.00000000000E+00  0.00000000000E+00  0.10060090220E+04  0.10060098236E+04  0.12700000000E+01 0. -1.
          4   -1    0    0  501    0  0.00000000000E+00 -0.00000000000E+00 -0.37774070325E+01  0.39851855527E+01  0.12700000000E+01 0. -1.
         25    2    1    2    0    0  0.00000000000E+00  0.00000000000E+00  0.10022316150E+04  0.10099950092E+04  0.12498683346E+03 0.  0.
    9000005    1    3    3    0    0  0.40702875864E+02  0.43412590796E+02  0.65508654066E+03  0.65778473143E+03  0.10000000000E+01 0.  0.
    9000005    1    3    3    0    0 -0.40702875864E+02 -0.43412590796E+02  0.34714507429E+03  0.35221027775E+03  0.10000000000E+01 0.  0.
<mgrwt>
<rscale>  0 0.12498683E+03</rscale>
<asrwt>0</asrwt>
<pdfrwt beam="2">  1        4 0.97042423E-03 0.12498683E+03</pdfrwt>
<pdfrwt beam="1">  1       -4 0.25152834E+00 0.12498683E+03</pdfrwt>
<totfact> 0.36451713E+02</totfact>
</mgrwt>
</event>
<event>
 5    1  0.1423270E-002  0.1249880E+03  0.7818608E-02  0.1235088E+00
         -4   -1    0    0    0  501 -0.00000000000E+00  0.00000000000E+00  0.87372217543E+01  0.88290398109E+01  0.12700000000E+01 0. -1.
          4   -1    0    0  501    0  0.00000000000E+00 -0.00000000000E+00 -0.44456635958E+03  0.44456817359E+03  0.12700000000E+01 0. -1.
         25    2    1    2    0    0  0.00000000000E+00  0.00000000000E+00 -0.43582913783E+03  0.45339721340E+03  0.12498798239E+03 0.  0.
    9000005    1    3    3    0    0  0.16403442681E+02 -0.49176464688E+02 -0.91361128367E+02  0.10504881431E+03  0.10000000000E+01 0.  0.
    9000005    1    3    3    0    0 -0.16403442681E+02  0.49176464688E+02 -0.34446800946E+03  0.34834839909E+03  0.10000000000E+01 0.  0.
<mgrwt>
<rscale>  0 0.12498798E+03</rscale>
<asrwt>0</asrwt>
<pdfrwt beam="2">  1        4 0.11115322E+00 0.12498798E+03</pdfrwt>
<pdfrwt beam="1">  1       -4 0.21960109E-02 0.12498798E+03</pdfrwt>
<totfact> 0.95436323E+02</totfact>
</mgrwt>
</event>
<event>
 5    1  0.1423270E-002  0.1250004E+03  0.7818608E-02  0.1235069E+00
         -4   -1    0    0    0  501 -0.00000000000E+00  0.00000000000E+00  0.78413482212E+03  0.78413585058E+03  0.12700000000E+01 0.  1.
          4   -1    0    0  501    0  0.00000000000E+00 -0.00000000000E+00 -0.48996444443E+01  0.50615625730E+01  0.12700000000E+01 0.  1.
         25    2    1    2    0    0  0.00000000000E+00  0.00000000000E+00  0.77923517768E+03  0.78919741315E+03  0.12500037918E+03 0.  0.
    9000005    1    3    3    0    0  0.35443876829E+02 -0.13975985937E+02  0.70235729838E+03  0.70339062488E+03  0.10000000000E+01 0.  0.
    9000005    1    3    3    0    0 -0.35443876829E+02  0.13975985937E+02  0.76877879297E+02  0.85806788268E+02  0.10000000000E+01 0.  0.
<mgrwt>
<rscale>  0 0.12500038E+03</rscale>
<asrwt>0</asrwt>
<pdfrwt beam="2">  1        4 0.12452799E-02 0.12500038E+03</pdfrwt>
<pdfrwt beam="1">  1       -4 0.19605400E+00 0.12500038E+03</pdfrwt>
<totfact> 0.53440413E+02</totfact>
</mgrwt>
</event>
<event>
 5    1  0.1423270E-002  0.1249853E+03  0.7818608E-02  0.1235092E+00
          4   -1    0    0  501    0  0.00000000000E+00  0.00000000000E+00  0.19048135206E+02  0.19090425738E+02  0.12700000000E+01 0. -1.
         -4   -1    0    0    0  501 -0.00000000000E+00 -0.00000000000E+00 -0.20475277392E+03  0.20475671253E+03  0.12700000000E+01 0. -1.
         25    2    1    2    0    0  0.00000000000E+00  0.00000000000E+00 -0.18570463871E+03  0.22384713827E+03  0.12498531303E+03 0.  0.
    9000005    1    3    3    0    0  0.57103769193E+02  0.25321749189E+02 -0.90135750731E+02  0.10966989103E+03  0.10000000000E+01 0.  0.
    9000005    1    3    3    0    0 -0.57103769193E+02 -0.25321749189E+02 -0.95568887978E+02  0.11417724724E+03  0.10000000000E+01 0.  0.
<mgrwt>
<rscale>  0 0.12498531E+03</rscale>
<asrwt>0</asrwt>
<pdfrwt beam="1">  1        4 0.47678131E-02 0.12498531E+03</pdfrwt>
<pdfrwt beam="2">  1       -4 0.51193965E-01 0.12498531E+03</pdfrwt>
<totfact> 0.15414910E+03</totfact>
</mgrwt>
</event>
<event>
 5    1  0.1423270E-002  0.1249965E+03  0.7818608E-02  0.1235075E+00
         -4   -1    0    0    0  501 -0.00000000000E+00  0.00000000000E+00  0.35715674418E+03  0.35715900215E+03  0.12700000000E+01 0. -1.
          4   -1    0    0  501    0  0.00000000000E+00 -0.00000000000E+00 -0.10897292216E+02  0.10971047245E+02  0.12700000000E+01 0. -1.
         25    2    1    2    0    0  0.00000000000E+00  0.00000000000E+00  0.34625945197E+03  0.36813004939E+03  0.12499650071E+03 0.  0.
    9000005    1    3    3    0    0 -0.20945056130E+02 -0.43555891031E+02  0.28979601123E+03  0.29380016873E+03  0.10000000000E+01 0.  0.
    9000005    1    3    3    0    0  0.20945056130E+02  0.43555891031E+02  0.56463440737E+02  0.74329880665E+02  0.10000000000E+01 0.  0.
<mgrwt>
<rscale>  0 0.12499650E+03</rscale>
<asrwt>0</asrwt>
<pdfrwt beam="2">  1        4 0.27338246E-02 0.12499650E+03</pdfrwt>
<pdfrwt beam="1">  1       -4 0.89298690E-01 0.12499650E+03</pdfrwt>
<totfact> 0.11257444E+03</totfact>
</mgrwt>
</event>
<event>
 5    1  0.1423270E-002  0.1249906E+03  0.7818608E-02  0.1235084E+00
         -4   -1    0    0    0  501 -0.00000000000E+00  0.00000000000E+00  0.80428760588E+02  0.80438786848E+02  0.12700000000E+01 0. -1.
          4   -1    0    0  501    0  0.00000000000E+00 -0.00000000000E+00 -0.48539172729E+02  0.48555784302E+02  0.12700000000E+01 0. -1.
         25    2    1    2    0    0  0.00000000000E+00  0.00000000000E+00  0.31889587859E+02  0.12899457115E+03  0.12499061394E+03 0.  0.
    9000005    1    3    3    0    0 -0.13489320583E+01 -0.12656324091E+02 -0.47192256816E+02  0.48888764155E+02  0.10000000000E+01 0.  0.
    9000005    1    3    3    0    0  0.13489320583E+01  0.12656324091E+02  0.79081844675E+02  0.80105806996E+02  0.10000000000E+01 0.  0.
<mgrwt>
<rscale>  0 0.12499061E+03</rscale>
<asrwt>0</asrwt>
<pdfrwt beam="2">  1        4 0.12138123E-01 0.12499061E+03</pdfrwt>
<pdfrwt beam="1">  1       -4 0.20110520E-01 0.12499061E+03</pdfrwt>
<totfact> 0.19622888E+03</totfact>
</mgrwt>
</event>
<event>
 5    1  0.1423270E-002  0.1250120E+03  0.7818608E-02  0.1235051E+00
         -4   -1    0    0    0  501 -0.00000000000E+00  0.00000000000E+00  0.54907715130E+02  0.54922400538E+02  0.12700000000E+01 0.  1.
          4   -1    0    0  501    0  0.00000000000E+00 -0.00000000000E+00 -0.71125857813E+02  0.71137195261E+02  0.12700000000E+01 0.  1.
         25    2    1    2    0    0  0.00000000000E+00  0.00000000000E+00 -0.16218142682E+02  0.12605959580E+03  0.12501197359E+03 0.  0.
    9000005    1    3    3    0    0 -0.86025947721E+01  0.49825123816E+02 -0.45151787505E+02  0.67795512499E+02  0.10000000000E+01 0.  0.
    9000005    1    3    3    0    0  0.86025947721E+01 -0.49825123816E+02  0.28933644823E+02  0.58264083300E+02  0.10000000000E+01 0.  0.
<mgrwt>
<rscale>  0 0.12501197E+03</rscale>
<asrwt>0</asrwt>
<pdfrwt beam="2">  1        4 0.17784717E-01 0.12501197E+03</pdfrwt>
<pdfrwt beam="1">  1       -4 0.13730182E-01 0.12501197E+03</pdfrwt>
<totfact> 0.19772161E+03</totfact>
</mgrwt>
</event>
<event>
 5    1  0.1423270E-002  0.1249964E+03  0.7818608E-02  0.1235075E+00
          4   -1    0    0  501    0  0.00000000000E+00  0.00000000000E+00  0.24395581813E+03  0.24395912383E+03  0.12700000000E+01 0. -1.
         -4   -1    0    0    0  501 -0.00000000000E+00 -0.00000000000E+00 -0.15982607379E+02  0.16032985955E+02  0.12700000000E+01 0. -1.
         25    2    1    2    0    0  0.00000000000E+00  0.00000000000E+00  0.22797321075E+03  0.25999210978E+03  0.12499644927E+03 0.  0.
    9000005    1    3    3    0    0 -0.31418685746E+02  0.43837137400E+02  0.17963674967E+03  0.18756116405E+03  0.10000000000E+01 0.  0.
    9000005    1    3    3    0    0  0.31418685746E+02 -0.43837137400E+02  0.48336461081E+02  0.72430945730E+02  0.10000000000E+01 0.  0.
<mgrwt>
<rscale>  0 0.12499645E+03</rscale>
<asrwt>0</asrwt>
<pdfrwt beam="1">  1        4 0.60995664E-01 0.12499645E+03</pdfrwt>
<pdfrwt beam="2">  1       -4 0.40023625E-02 0.12499645E+03</pdfrwt>
<totfact> 0.14172561E+03</totfact>
</mgrwt>
</event>
<event>
 5    1  0.1423270E-002  0.1250004E+03  0.7818608E-02  0.1235069E+00
         -4   -1    0    0    0  501 -0.00000000000E+00  0.00000000000E+00  0.41369997298E+02  0.41389486303E+02  0.12700000000E+01 0.  1.
          4   -1    0    0  501    0  0.00000000000E+00 -0.00000000000E+00 -0.94376844429E+02  0.94385389041E+02  0.12700000000E+01 0.  1.
         25    2    1    2    0    0  0.00000000000E+00  0.00000000000E+00 -0.53006847131E+02  0.13577487534E+03  0.12500036373E+03 0.  0.
    9000005    1    3    3    0    0  0.52867961406E+02  0.47992681290E+00  0.96853400123E+01  0.53759254869E+02  0.10000000000E+01 0.  0.
    9000005    1    3    3    0    0 -0.52867961406E+02 -0.47992681290E+00 -0.62692187144E+02  0.82015620475E+02  0.10000000000E+01 0.  0.
<mgrwt>
<rscale>  0 0.12500036E+03</rscale>
<asrwt>0</asrwt>
<pdfrwt beam="2">  1        4 0.23597715E-01 0.12500036E+03</pdfrwt>
<pdfrwt beam="1">  1       -4 0.10346004E-01 0.12500036E+03</pdfrwt>
<totfact> 0.19258463E+03</totfact>
</mgrwt>
</event>
<event>
 5    1  0.1423270E-002  0.1249984E+03  0.7818608E-02  0.1235072E+00
         -4   -1    0    0    0  501 -0.00000000000E+00  0.00000000000E+00  0.45905150631E+02  0.45922715016E+02  0.12700000000E+01 0.  1.
          4   -1    0    0  501    0  0.00000000000E+00 -0.00000000000E+00 -0.85053182554E+02  0.85062663740E+02  0.12700000000E+01 0.  1.
         25    2    1    2    0    0  0.00000000000E+00  0.00000000000E+00 -0.39148031923E+02  0.13098537876E+03  0.12499840417E+03 0.  0.
    9000005    1    3    3    0    0  0.47905399202E+02  0.37501140231E+02 -0.34536841766E+02  0.69964678449E+02  0.10000000000E+01 0.  0.
    9000005    1    3    3    0    0 -0.47905399202E+02 -0.37501140231E+02 -0.46111901565E+01  0.61020700307E+02  0.10000000000E+01 0.  0.
<mgrwt>
<rscale>  0 0.12499840E+03</rscale>
<asrwt>0</asrwt>
<pdfrwt beam="2">  1        4 0.21266676E-01 0.12499840E+03</pdfrwt>
<pdfrwt beam="1">  1       -4 0.11479668E-01 0.12499840E+03</pdfrwt>
<totfact> 0.19512282E+03</totfact>
</mgrwt>
</event>
<event>
 5    1  0.1423270E-002  0.1250018E+03  0.7818608E-02  0.1235066E+00
         -4   -1    0    0    0  501 -0.00000000000E+00  0.00000000000E+00  0.30120545206E+02  0.30147307400E+02  0.12700000000E+01 0. -1.
          4   -1    0    0  501    0  0.00000000000E+00 -0.00000000000E+00 -0.12960346867E+03  0.12960969096E+03  0.12700000000E+01 0. -1.
         25    2    1    2    0    0  0.00000000000E+00  0.00000000000E+00 -0.99482923467E+02  0.15975699837E+03  0.12500178585E+03 0.  0.
    9000005    1    3    3    0    0  0.37706832487E+02  0.29446511969E+02 -0.10112524367E+03  0.11187590085E+03  0.10000000000E+01 0.  0.
    9000005    1    3    3    0    0 -0.37706832487E+02 -0.29446511969E+02  0.16423202075E+01  0.47881097513E+02  0.10000000000E+01 0.  0.
<mgrwt>
<rscale>  0 0.12500179E+03</rscale>
<asrwt>0</asrwt>
<pdfrwt beam="2">  1        4 0.32404989E-01 0.12500179E+03</pdfrwt>
<pdfrwt beam="1">  1       -4 0.75342597E-02 0.12500179E+03</pdfrwt>
<totfact> 0.18068446E+03</totfact>
</mgrwt>
</event>
<event>
 5    1  0.1423270E-002  0.1249971E+03  0.7818608E-02  0.1235074E+00
         -4   -1    0    0    0  501 -0.00000000000E+00  0.00000000000E+00  0.32751026113E+02  0.32775640520E+02  0.12700000000E+01 0.  1.
          4   -1    0    0  501    0  0.00000000000E+00 -0.00000000000E+00 -0.11919272481E+03  0.11919949055E+03  0.12700000000E+01 0.  1.
         25    2    1    2    0    0  0.00000000000E+00  0.00000000000E+00 -0.86441698699E+02  0.15197513107E+03  0.12499709273E+03 0.  0.
    9000005    1    3    3    0    0 -0.16477858782E+02 -0.38348312333E+02 -0.99766134398E+02  0.10814987037E+03  0.10000000000E+01 0.  0.
    9000005    1    3    3    0    0  0.16477858782E+02  0.38348312333E+02  0.13324435699E+02  0.43825260701E+02  0.10000000000E+01 0.  0.
<mgrwt>
<rscale>  0 0.12499709E+03</rscale>
<asrwt>0</asrwt>
<pdfrwt beam="2">  1        4 0.29802103E-01 0.12499709E+03</pdfrwt>
<pdfrwt beam="1">  1       -4 0.81916793E-02 0.12499709E+03</pdfrwt>
<totfact> 0.18443336E+03</totfact>
</mgrwt>
</event>
<event>
 5    1  0.1423270E-002  0.1250006E+03  0.7818608E-02  0.1235068E+00
         -4   -1    0    0    0  501 -0.00000000000E+00  0.00000000000E+00  0.59257651062E+02  0.59271258712E+02  0.12700000000E+01 0. -1.
          4   -1    0    0  501    0  0.00000000000E+00 -0.00000000000E+00 -0.65893071621E+02  0.65905309252E+02  0.12700000000E+01 0. -1.
         25    2    1    2    0    0  0.00000000000E+00  0.00000000000E+00 -0.66354205587E+01  0.12517656796E+03  0.12500057744E+03 0.  0.
    9000005    1    3    3    0    0  0.22225726088E+02 -0.15515714028E+02  0.53069343948E+02  0.59599291514E+02  0.10000000000E+01 0.  0.
    9000005    1    3    3    0    0 -0.22225726088E+02  0.15515714028E+02 -0.59704764506E+02  0.65577276451E+02  0.10000000000E+01 0.  0.
<mgrwt>
<rscale>  0 0.12500058E+03</rscale>
<asrwt>0</asrwt>
<pdfrwt beam="2">  1        4 0.16476499E-01 0.12500058E+03</pdfrwt>
<pdfrwt beam="1">  1       -4 0.14817643E-01 0.12500058E+03</pdfrwt>
<totfact> 0.19825215E+03</totfact>
</mgrwt>
</event>
<event>
 5    1  0.1423270E-002  0.1249957E+03  0.7818608E-02  0.1235076E+00
         -4   -1    0    0    0  501 -0.00000000000E+00  0.00000000000E+00  0.85025833523E+01  0.85969077965E+01  0.12700000000E+01 0.  1.
          4   -1    0    0  501    0  0.00000000000E+00 -0.00000000000E+00 -0.45675820159E+03  0.45675996718E+03  0.12700000000E+01 0.  1.
         25    2    1    2    0    0  0.00000000000E+00  0.00000000000E+00 -0.44825561824E+03  0.46535687498E+03  0.12499568716E+03 0.  0.
    9000005    1    3    3    0    0  0.33300159106E+01  0.61447631560E+02 -0.18367214657E+03  0.19370946765E+03  0.10000000000E+01 0.  0.
    9000005    1    3    3    0    0 -0.33300159106E+01 -0.61447631560E+02 -0.26458347166E+03  0.27164740733E+03  0.10000000000E+01 0.  0.
<mgrwt>
<rscale>  0 0.12499569E+03</rscale>
<asrwt>0</asrwt>
<pdfrwt beam="2">  1        4 0.11420148E+00 0.12499569E+03</pdfrwt>
<pdfrwt beam="1">  1       -4 0.21376586E-02 0.12499569E+03</pdfrwt>
<totfact> 0.93333009E+02</totfact>
</mgrwt>
</event>
<event>
 5    1  0.1423270E-002  0.1250030E+03  0.7818608E-02  0.1235065E+00
          4   -1    0    0  501    0  0.00000000000E+00  0.00000000000E+00  0.66871007096E+03  0.66871127694E+03  0.12700000000E+01 0. -1.
         -4   -1    0    0    0  501 -0.00000000000E+00 -0.00000000000E+00 -0.57714985074E+01  0.59095765518E+01  0.12700000000E+01 0. -1.
         25    2    1    2    0    0  0.00000000000E+00  0.00000000000E+00  0.66293857245E+03  0.67462085349E+03  0.12500298043E+03 0.  0.
    9000005    1    3    3    0    0 -0.73591268080E+01  0.47907427456E+02  0.11857391047E+03  0.12810171973E+03  0.10000000000E+01 0.  0.
    9000005    1    3    3    0    0  0.73591268080E+01 -0.47907427456E+02  0.54436466198E+03  0.54651913376E+03  0.10000000000E+01 0.  0.
<mgrwt>
<rscale>  0 0.12500298E+03</rscale>
<asrwt>0</asrwt>
<pdfrwt beam="1">  1        4 0.16719494E+00 0.12500298E+03</pdfrwt>
<pdfrwt beam="2">  1       -4 0.14602851E-02 0.12500298E+03</pdfrwt>
<totfact> 0.64758415E+02</totfact>
</mgrwt>
</event>
<event>
 5    1  0.1423270E-002  0.1249977E+03  0.7818608E-02  0.1235073E+00
         -4   -1    0    0    0  501 -0.00000000000E+00  0.00000000000E+00  0.18691199933E+03  0.18691631387E+03  0.12700000000E+01 0.  1.
          4   -1    0    0  501    0  0.00000000000E+00 -0.00000000000E+00 -0.20874263319E+02  0.20912861333E+02  0.12700000000E+01 0.  1.
         25    2    1    2    0    0  0.00000000000E+00  0.00000000000E+00  0.16603773601E+03  0.20782917521E+03  0.12499774513E+03 0.  0.
    9000005    1    3    3    0    0 -0.60531377607E+02  0.26594025906E+01  0.57585607899E+02  0.83595588007E+02  0.10000000000E+01 0.  0.
    9000005    1    3    3    0    0  0.60531377607E+02 -0.26594025906E+01  0.10845212811E+03  0.12423358720E+03  0.10000000000E+01 0.  0.
<mgrwt>
<rscale>  0 0.12499775E+03</rscale>
<asrwt>0</asrwt>
<pdfrwt beam="2">  1        4 0.52239300E-02 0.12499775E+03</pdfrwt>
<pdfrwt beam="1">  1       -4 0.46733363E-01 0.12499775E+03</pdfrwt>
<totfact> 0.16014111E+03</totfact>
</mgrwt>
</event>
<event>
 5    1  0.1423270E-002  0.1250001E+03  0.7818608E-02  0.1235069E+00
         -4   -1    0    0    0  501 -0.00000000000E+00  0.00000000000E+00  0.17456312720E+03  0.17456774696E+03  0.12700000000E+01 0.  1.
          4   -1    0    0  501    0  0.00000000000E+00 -0.00000000000E+00 -0.22354398028E+02  0.22390444640E+02  0.12700000000E+01 0.  1.
         25    2    1    2    0    0  0.00000000000E+00  0.00000000000E+00  0.15220872917E+03  0.19695819160E+03  0.12500012800E+03 0.  0.
    9000005    1    3    3    0    0 -0.21747326291E+02  0.57829714505E+02  0.61320310490E+02  0.87054020924E+02  0.10000000000E+01 0.  0.
    9000005    1    3    3    0    0  0.21747326291E+02 -0.57829714505E+02  0.90888418680E+02  0.10990417067E+03  0.10000000000E+01 0.  0.
<mgrwt>
<rscale>  0 0.12500013E+03</rscale>
<asrwt>0</asrwt>
<pdfrwt beam="2">  1        4 0.55936829E-02 0.12500013E+03</pdfrwt>
<pdfrwt beam="1">  1       -4 0.43645864E-01 0.12500013E+03</pdfrwt>
<totfact> 0.16444520E+03</totfact>
</mgrwt>
</event>
<event>
 5    1  0.1423270E-002  0.1249997E+03  0.7818608E-02  0.1235070E+00
          4   -1    0    0  501    0  0.00000000000E+00  0.00000000000E+00  0.33922283608E+03  0.33922521342E+03  0.12700000000E+01 0.  1.
         -4   -1    0    0    0  501 -0.00000000000E+00 -0.00000000000E+00 -0.11477792330E+02  0.11547840350E+02  0.12700000000E+01 0.  1.
         25    2    1    2    0    0  0.00000000000E+00  0.00000000000E+00  0.32774504375E+03  0.35077305377E+03  0.12499968619E+03 0.  0.
    9000005    1    3    3    0    0  0.13548736801E+02 -0.60479364838E+02  0.14143903554E+03  0.15442578352E+03  0.10000000000E+01 0.  0.
    9000005    1    3    3    0    0 -0.13548736801E+02  0.60479364838E+02  0.18630600821E+03  0.19634727025E+03  0.10000000000E+01 0.  0.
<mgrwt>
<rscale>  0 0.12499969E+03</rscale>
<asrwt>0</asrwt>
<pdfrwt beam="1">  1        4 0.84814760E-01 0.12499969E+03</pdfrwt>
<pdfrwt beam="2">  1       -4 0.28785013E-02 0.12499969E+03</pdfrwt>
<totfact> 0.11658987E+03</totfact>
</mgrwt>
</event>
<event>
 5    1  0.1423270E-002  0.1250008E+03  0.7818608E-02  0.1235068E+00
          4   -1    0    0  501    0  0.00000000000E+00  0.00000000000E+00  0.59242577669E+01  0.60588555098E+01  0.12700000000E+01 0.  1.
         -4   -1    0    0    0  501 -0.00000000000E+00 -0.00000000000E+00 -0.65183174020E+03  0.65183297741E+03  0.12700000000E+01 0.  1.
         25    2    1    2    0    0  0.00000000000E+00  0.00000000000E+00 -0.64590748244E+03  0.65789183292E+03  0.12500075181E+03 0.  0.
    9000005    1    3    3    0    0  0.29484088245E+02 -0.39289053592E+02 -0.11963469749E+03  0.12933059203E+03  0.10000000000E+01 0.  0.
    9000005    1    3    3    0    0 -0.29484088245E+02  0.39289053592E+02 -0.52627278495E+03  0.52856124089E+03  0.10000000000E+01 0.  0.
<mgrwt>
<rscale>  0 0.12500075E+03</rscale>
<asrwt>0</asrwt>
<pdfrwt beam="1">  1        4 0.14980460E-02 0.12500075E+03</pdfrwt>
<pdfrwt beam="2">  1       -4 0.16297467E+00 0.12500075E+03</pdfrwt>
<totfact> 0.66614086E+02</totfact>
</mgrwt>
</event>
<event>
 5    1  0.1423270E-002  0.1250338E+03  0.7818608E-02  0.1235016E+00
          4   -1    0    0  501    0  0.00000000000E+00  0.00000000000E+00  0.60983380809E+02  0.60996603470E+02  0.12700000000E+01 0. -1.
         -4   -1    0    0    0  501 -0.00000000000E+00 -0.00000000000E+00 -0.64062559560E+02  0.64075146800E+02  0.12700000000E+01 0. -1.
         25    2    1    2    0    0  0.00000000000E+00  0.00000000000E+00 -0.30791787519E+01  0.12507175027E+03  0.12503384091E+03 0.  0.
    9000005    1    3    3    0    0 -0.15448354117E+02  0.17984570620E+02  0.56316246529E+02  0.61111505042E+02  0.10000000000E+01 0.  0.
    9000005    1    3    3    0    0  0.15448354117E+02 -0.17984570620E+02 -0.59395425281E+02  0.63960245228E+02  0.10000000000E+01 0.  0.
<mgrwt>
<rscale>  0 0.12503384E+03</rscale>
<asrwt>0</asrwt>
<pdfrwt beam="1">  1        4 0.15249071E-01 0.12503384E+03</pdfrwt>
<pdfrwt beam="2">  1       -4 0.16018866E-01 0.12503384E+03</pdfrwt>
<totfact> 0.19815470E+03</totfact>
</mgrwt>
</event>
<event>
 4    1  0.1423270E-002  0.1251894E+03  0.7818608E-02  0.1234774E+00
          4   -1    0    0  501    0  0.00000000000E+00  0.00000000000E+00  0.11843288283E+03  0.11843969198E+03  0.12700000000E+01 0.  1.
         -4   -1    0    0    0  501 -0.00000000000E+00 -0.00000000000E+00 -0.33062889944E+02  0.33087272349E+02  0.12700000000E+01 0.  1.
    9000005    1    1    2    0    0 -0.56644887551E+02 -0.26220048036E+02  0.48226655529E+02  0.78885641965E+02  0.10000000000E+01 0.  0.
    9000005    1    1    2    0    0  0.56644887551E+02  0.26220048036E+02  0.37143337361E+02  0.72641322365E+02  0.10000000000E+01 0.  0.
<mgrwt>
<rscale>  0 0.12518940E+03</rscale>
<asrwt>0</asrwt>
<pdfrwt beam="1">  1        4 0.29612119E-01 0.12518940E+03</pdfrwt>
<pdfrwt beam="2">  1       -4 0.82696215E-02 0.12518940E+03</pdfrwt>
<totfact> 0.18382822E+03</totfact>
</mgrwt>
</event>
<event>
 5    1  0.1423270E-002  0.1250074E+03  0.7818608E-02  0.1235058E+00
         -4   -1    0    0    0  501 -0.00000000000E+00  0.00000000000E+00  0.39644213518E+02  0.39664550488E+02  0.12700000000E+01 0. -1.
          4   -1    0    0  501    0  0.00000000000E+00 -0.00000000000E+00 -0.98494696975E+02  0.98502884385E+02  0.12700000000E+01 0. -1.
         25    2    1    2    0    0  0.00000000000E+00  0.00000000000E+00 -0.58850483457E+02  0.13816743487E+03  0.12500744240E+03 0.  0.
    9000005    1    3    3    0    0 -0.27464205634E+02  0.35109037533E+02 -0.77840619882E+02  0.89705569567E+02  0.10000000000E+01 0.  0.
    9000005    1    3    3    0    0  0.27464205634E+02 -0.35109037533E+02  0.18990136425E+02  0.48461865307E+02  0.10000000000E+01 0.  0.
<mgrwt>
<rscale>  0 0.12500744E+03</rscale>
<asrwt>0</asrwt>
<pdfrwt beam="2">  1        4 0.24627239E-01 0.12500744E+03</pdfrwt>
<pdfrwt beam="1">  1       -4 0.99146191E-02 0.12500744E+03</pdfrwt>
<totfact> 0.19131168E+03</totfact>
</mgrwt>
</event>
<event>
 5    1  0.1423270E-002  0.1249958E+03  0.7818608E-02  0.1235076E+00
         -4   -1    0    0    0  501 -0.00000000000E+00  0.00000000000E+00  0.61785678507E+03  0.61785809031E+03  0.12700000000E+01 0. -1.
          4   -1    0    0  501    0  0.00000000000E+00 -0.00000000000E+00 -0.62567294069E+01  0.63843216453E+01  0.12700000000E+01 0. -1.
         25    2    1    2    0    0  0.00000000000E+00  0.00000000000E+00  0.61160005566E+03  0.62424241195E+03  0.12499584310E+03 0.  0.
    9000005    1    3    3    0    0 -0.56936814038E+02 -0.11209438735E+02  0.19001237715E+03  0.19867852370E+03  0.10000000000E+01 0.  0.
    9000005    1    3    3    0    0  0.56936814038E+02  0.11209438735E+02  0.42158767851E+03  0.42556388825E+03  0.10000000000E+01 0.  0.
<mgrwt>
<rscale>  0 0.12499584E+03</rscale>
<asrwt>0</asrwt>
<pdfrwt beam="2">  1        4 0.15802944E-02 0.12499584E+03</pdfrwt>
<pdfrwt beam="1">  1       -4 0.15448032E+00 0.12499584E+03</pdfrwt>
<totfact> 0.70540397E+02</totfact>
</mgrwt>
</event>
<event>
 5    1  0.1423270E-002  0.1250011E+03  0.7818608E-02  0.1235068E+00
         -4   -1    0    0    0  501 -0.00000000000E+00  0.00000000000E+00  0.38587465357E+02  0.38608358974E+02  0.12700000000E+01 0.  1.
          4   -1    0    0  501    0  0.00000000000E+00 -0.00000000000E+00 -0.10118051797E+03  0.10118848806E+03  0.12700000000E+01 0.  1.
         25    2    1    2    0    0  0.00000000000E+00  0.00000000000E+00 -0.62593052613E+02  0.13979684704E+03  0.12500107282E+03 0.  0.
    9000005    1    3    3    0    0  0.41667549987E+02  0.43665322447E+02 -0.49415144825E+02  0.78010907214E+02  0.10000000000E+01 0.  0.
    9000005    1    3    3    0    0 -0.41667549987E+02 -0.43665322447E+02 -0.13177907788E+02  0.61785939824E+02  0.10000000000E+01 0.  0.
<mgrwt>
<rscale>  0 0.12500107E+03</rscale>
<asrwt>0</asrwt>
<pdfrwt beam="2">  1        4 0.25298737E-01 0.12500107E+03</pdfrwt>
<pdfrwt beam="1">  1       -4 0.96504745E-02 0.12500107E+03</pdfrwt>
<totfact> 0.19050263E+03</totfact>
</mgrwt>
</event>
<event>
 5    1  0.1423270E-002  0.1249946E+03  0.7818608E-02  0.1235078E+00
         -4   -1    0    0    0  501 -0.00000000000E+00  0.00000000000E+00  0.65418795422E+03  0.65418918697E+03  0.12700000000E+01 0. -1.
          4   -1    0    0  501    0  0.00000000000E+00 -0.00000000000E+00 -0.59018379468E+01  0.60369355762E+01  0.12700000000E+01 0. -1.
         25    2    1    2    0    0  0.00000000000E+00  0.00000000000E+00  0.64828611627E+03  0.66022612254E+03  0.12499457723E+03 0.  0.
    9000005    1    3    3    0    0 -0.53261868604E+02 -0.21843668037E+02  0.19574078488E+03  0.20403290751E+03  0.10000000000E+01 0.  0.
    9000005    1    3    3    0    0  0.53261868604E+02  0.21843668037E+02  0.45254533139E+03  0.45619321503E+03  0.10000000000E+01 0.  0.
<mgrwt>
<rscale>  0 0.12499458E+03</rscale>
<asrwt>0</asrwt>
<pdfrwt beam="2">  1        4 0.14925007E-02 0.12499458E+03</pdfrwt>
<pdfrwt beam="1">  1       -4 0.16356404E+00 0.12499458E+03</pdfrwt>
<totfact> 0.66361020E+02</totfact>
</mgrwt>
</event>
<event>
 5    1  0.1423270E-002  0.1250248E+03  0.7818608E-02  0.1235031E+00
         -4   -1    0    0    0  501 -0.00000000000E+00  0.00000000000E+00  0.23524325252E+03  0.23524668065E+03  0.12700000000E+01 0. -1.
          4   -1    0    0  501    0  0.00000000000E+00 -0.00000000000E+00 -0.16583909461E+02  0.16632466835E+02  0.12700000000E+01 0. -1.
         25    2    1    2    0    0  0.00000000000E+00  0.00000000000E+00  0.21865934306E+03  0.25187914748E+03  0.12502478406E+03 0.  0.
    9000005    1    3    3    0    0 -0.27998931571E+02  0.36627698457E+02  0.24301847905E+02  0.52125888721E+02  0.10000000000E+01 0.  0.
    9000005    1    3    3    0    0  0.27998931571E+02 -0.36627698457E+02  0.19435749515E+03  0.19975325876E+03  0.10000000000E+01 0.  0.
<mgrwt>
<rscale>  0 0.12502478E+03</rscale>
<asrwt>0</asrwt>
<pdfrwt beam="2">  1        4 0.41524757E-02 0.12502478E+03</pdfrwt>
<pdfrwt beam="1">  1       -4 0.58817309E-01 0.12502478E+03</pdfrwt>
<totfact> 0.14427459E+03</totfact>
</mgrwt>
</event>
<event>
 5    1  0.1423270E-002  0.1250011E+03  0.7818608E-02  0.1235068E+00
          4   -1    0    0  501    0  0.00000000000E+00  0.00000000000E+00  0.11274583832E+03  0.11275299091E+03  0.12700000000E+01 0.  1.
         -4   -1    0    0    0  501 -0.00000000000E+00 -0.00000000000E+00 -0.34627220722E+02  0.34650502376E+02  0.12700000000E+01 0.  1.
         25    2    1    2    0    0  0.00000000000E+00  0.00000000000E+00  0.78118617597E+02  0.14740349328E+03  0.12500108566E+03 0.  0.
    9000005    1    3    3    0    0 -0.27601226119E+02  0.48685292870E+02  0.62687346656E+01  0.56323906642E+02  0.10000000000E+01 0.  0.
    9000005    1    3    3    0    0  0.27601226119E+02 -0.48685292870E+02  0.71849882932E+02  0.91079586640E+02  0.10000000000E+01 0.  0.
<mgrwt>
<rscale>  0 0.12500109E+03</rscale>
<asrwt>0</asrwt>
<pdfrwt beam="1">  1        4 0.28190264E-01 0.12500109E+03</pdfrwt>
<pdfrwt beam="2">  1       -4 0.86606095E-02 0.12500109E+03</pdfrwt>
<totfact> 0.18666721E+03</totfact>
</mgrwt>
</event>
<event>
 5    1  0.1423270E-002  0.1249912E+03  0.7818608E-02  0.1235083E+00
          4   -1    0    0  501    0  0.00000000000E+00  0.00000000000E+00  0.10952268925E+02  0.11025656199E+02  0.12700000000E+01 0. -1.
         -4   -1    0    0    0  501 -0.00000000000E+00 -0.00000000000E+00 -0.35534597943E+03  0.35534824890E+03  0.12700000000E+01 0. -1.
         25    2    1    2    0    0  0.00000000000E+00  0.00000000000E+00 -0.34439371050E+03  0.36637390510E+03  0.12499124170E+03 0.  0.
    9000005    1    3    3    0    0 -0.52522320759E+02 -0.33480412531E+02 -0.18690270827E+03  0.19701054428E+03  0.10000000000E+01 0.  0.
    9000005    1    3    3    0    0  0.52522320759E+02  0.33480412531E+02 -0.15749100224E+03  0.16936336082E+03  0.10000000000E+01 0.  0.
<mgrwt>
<rscale>  0 0.12499124E+03</rscale>
<asrwt>0</asrwt>
<pdfrwt beam="1">  1        4 0.27475255E-02 0.12499124E+03</pdfrwt>
<pdfrwt beam="2">  1       -4 0.88845914E-01 0.12499124E+03</pdfrwt>
<totfact> 0.11298570E+03</totfact>
</mgrwt>
</event>
<event>
 5    1  0.1423270E-002  0.1250053E+03  0.7818608E-02  0.1235061E+00
         -4   -1    0    0    0  501 -0.00000000000E+00  0.00000000000E+00  0.11801953621E+03  0.11802636920E+03  0.12700000000E+01 0. -1.
          4   -1    0    0  501    0  0.00000000000E+00 -0.00000000000E+00 -0.33081167423E+02  0.33105536366E+02  0.12700000000E+01 0. -1.
         25    2    1    2    0    0  0.00000000000E+00  0.00000000000E+00  0.84938368783E+02  0.15113190556E+03  0.12500530544E+03 0.  0.
    9000005    1    3    3    0    0 -0.74073230476E+01 -0.36224807077E+02 -0.18444418470E+02  0.41331606008E+02  0.10000000000E+01 0.  0.
    9000005    1    3    3    0    0  0.74073230476E+01  0.36224807077E+02  0.10338278725E+03  0.10980029956E+03  0.10000000000E+01 0.  0.
<mgrwt>
<rscale>  0 0.12500531E+03</rscale>
<asrwt>0</asrwt>
<pdfrwt beam="2">  1        4 0.82741922E-02 0.12500531E+03</pdfrwt>
<pdfrwt beam="1">  1       -4 0.29508784E-01 0.12500531E+03</pdfrwt>
<totfact> 0.18480983E+03</totfact>
</mgrwt>
</event>
<event>
 5    1  0.1423270E-002  0.1249980E+03  0.7818608E-02  0.1235072E+00
          4   -1    0    0  501    0  0.00000000000E+00  0.00000000000E+00  0.28212625380E+02  0.28241195634E+02  0.12700000000E+01 0.  1.
         -4   -1    0    0    0  501 -0.00000000000E+00 -0.00000000000E+00 -0.13835147621E+03  0.13835730508E+03  0.12700000000E+01 0.  1.
         25    2    1    2    0    0  0.00000000000E+00  0.00000000000E+00 -0.11013885083E+03  0.16659850072E+03  0.12499797590E+03 0.  0.
    9000005    1    3    3    0    0  0.42835484953E+02 -0.20616394882E+02 -0.10912974946E+03  0.11903871945E+03  0.10000000000E+01 0.  0.
    9000005    1    3    3    0    0 -0.42835484953E+02  0.20616394882E+02 -0.10091013674E+01  0.47559781272E+02  0.10000000000E+01 0.  0.
<mgrwt>
<rscale>  0 0.12499798E+03</rscale>
<asrwt>0</asrwt>
<pdfrwt beam="1">  1        4 0.70574566E-02 0.12499798E+03</pdfrwt>
<pdfrwt beam="2">  1       -4 0.34592167E-01 0.12499798E+03</pdfrwt>
<totfact> 0.17752404E+03</totfact>
</mgrwt>
</event>
<event>
 5    1  0.1423270E-002  0.1250008E+03  0.7818608E-02  0.1235068E+00
          4   -1    0    0  501    0  0.00000000000E+00  0.00000000000E+00  0.79277723774E+03  0.79277825498E+03  0.12700000000E+01 0.  1.
         -4   -1    0    0    0  501 -0.00000000000E+00 -0.00000000000E+00 -0.48444932474E+01  0.50081947670E+01  0.12700000000E+01 0.  1.
         25    2    1    2    0    0  0.00000000000E+00  0.00000000000E+00  0.78793274449E+03  0.79778644975E+03  0.12500083826E+03 0.  0.
    9000005    1    3    3    0    0  0.22738141534E+02  0.19275107805E+02  0.43421711118E+02  0.52678248430E+02  0.10000000000E+01 0.  0.
    9000005    1    3    3    0    0 -0.22738141534E+02 -0.19275107805E+02  0.74451103337E+03  0.74510820132E+03  0.10000000000E+01 0.  0.
<mgrwt>
<rscale>  0 0.12500084E+03</rscale>
<asrwt>0</asrwt>
<pdfrwt beam="1">  1        4 0.19821493E+00 0.12500084E+03</pdfrwt>
<pdfrwt beam="2">  1       -4 0.12317129E-02 0.12500084E+03</pdfrwt>
<totfact> 0.52673150E+02</totfact>
</mgrwt>
</event>
<event>
 5    1  0.1423270E-002  0.1249670E+03  0.7818608E-02  0.1235121E+00
          4   -1    0    0  501    0  0.00000000000E+00  0.00000000000E+00  0.18156105058E+02  0.18200468425E+02  0.12700000000E+01 0.  1.
         -4   -1    0    0    0  501 -0.00000000000E+00 -0.00000000000E+00 -0.21472577198E+03  0.21472952767E+03  0.12700000000E+01 0.  1.
         25    2    1    2    0    0  0.00000000000E+00  0.00000000000E+00 -0.19656966692E+03  0.23292999609E+03  0.12496699215E+03 0.  0.
    9000005    1    3    3    0    0 -0.61506489108E+02 -0.10896596887E+02 -0.96076836557E+02  0.11460166905E+03  0.10000000000E+01 0.  0.
    9000005    1    3    3    0    0  0.61506489108E+02  0.10896596887E+02 -0.10049283037E+03  0.11832832704E+03  0.10000000000E+01 0.  0.
<mgrwt>
<rscale>  0 0.12496699E+03</rscale>
<asrwt>0</asrwt>
<pdfrwt beam="1">  1        4 0.45450418E-02 0.12496699E+03</pdfrwt>
<pdfrwt beam="2">  1       -4 0.53687450E-01 0.12496699E+03</pdfrwt>
<totfact> 0.15094658E+03</totfact>
</mgrwt>
</event>
<event>
 5    1  0.1423270E-002  0.1250012E+03  0.7818608E-02  0.1235067E+00
          4   -1    0    0  501    0  0.00000000000E+00  0.00000000000E+00  0.71863496437E+02  0.71874717531E+02  0.12700000000E+01 0. -1.
         -4   -1    0    0    0  501 -0.00000000000E+00 -0.00000000000E+00 -0.54334666380E+02  0.54349506627E+02  0.12700000000E+01 0. -1.
         25    2    1    2    0    0  0.00000000000E+00  0.00000000000E+00  0.17528830057E+02  0.12622422416E+03  0.12500117952E+03 0.  0.
    9000005    1    3    3    0    0  0.42782563381E+02  0.80549622167E+01 -0.36508320476E+02  0.56825061458E+02  0.10000000000E+01 0.  0.
    9000005    1    3    3    0    0 -0.42782563381E+02 -0.80549622167E+01  0.54037150533E+02  0.69399162700E+02  0.10000000000E+01 0.  0.
<mgrwt>
<rscale>  0 0.12500118E+03</rscale>
<asrwt>0</asrwt>
<pdfrwt beam="1">  1        4 0.17969132E-01 0.12500118E+03</pdfrwt>
<pdfrwt beam="2">  1       -4 0.13586924E-01 0.12500118E+03</pdfrwt>
<totfact> 0.19768263E+03</totfact>
</mgrwt>
</event>
<event>
 5    1  0.1423270E-002  0.1250060E+03  0.7818608E-02  0.1235060E+00
          4   -1    0    0  501    0  0.00000000000E+00  0.00000000000E+00  0.86630248239E+02  0.86639556843E+02  0.12700000000E+01 0. -1.
         -4   -1    0    0    0  501 -0.00000000000E+00 -0.00000000000E+00 -0.45074748612E+02  0.45092636454E+02  0.12700000000E+01 0. -1.
         25    2    1    2    0    0  0.00000000000E+00  0.00000000000E+00  0.41555499627E+02  0.13173219330E+03  0.12500604466E+03 0.  0.
    9000005    1    3    3    0    0 -0.35450015207E+02 -0.75288233512E+01  0.74431316813E+02  0.82791350283E+02  0.10000000000E+01 0.  0.
    9000005    1    3    3    0    0  0.35450015207E+02  0.75288233512E+01 -0.32875817186E+02  0.48940843014E+02  0.10000000000E+01 0.  0.
<mgrwt>
<rscale>  0 0.12500604E+03</rscale>
<asrwt>0</asrwt>
<pdfrwt beam="1">  1        4 0.21660961E-01 0.12500604E+03</pdfrwt>
<pdfrwt beam="2">  1       -4 0.11272087E-01 0.12500604E+03</pdfrwt>
<totfact> 0.19468959E+03</totfact>
</mgrwt>
</event>
<event>
 5    1  0.1423270E-002  0.1249952E+03  0.7818608E-02  0.1235077E+00
          4   -1    0    0  501    0  0.00000000000E+00  0.00000000000E+00  0.26764924570E+03  0.26765225876E+03  0.12700000000E+01 0. -1.
         -4   -1    0    0    0  501 -0.00000000000E+00 -0.00000000000E+00 -0.14562810389E+02  0.14618082858E+02  0.12700000000E+01 0. -1.
         25    2    1    2    0    0  0.00000000000E+00  0.00000000000E+00  0.25308643531E+03  0.28227034162E+03  0.12499520800E+03 0.  0.
    9000005    1    3    3    0    0  0.46988914541E+02  0.37711338087E+02  0.89104781587E+02  0.10756749143E+03  0.10000000000E+01 0.  0.
    9000005    1    3    3    0    0 -0.46988914541E+02 -0.37711338087E+02  0.16398165372E+03  0.17470285020E+03  0.10000000000E+01 0.  0.
<mgrwt>
<rscale>  0 0.12499521E+03</rscale>
<asrwt>0</asrwt>
<pdfrwt beam="1">  1        4 0.66919597E-01 0.12499521E+03</pdfrwt>
<pdfrwt beam="2">  1       -4 0.36479883E-02 0.12499521E+03</pdfrwt>
<totfact> 0.13484409E+03</totfact>
</mgrwt>
</event>
<event>
 5    1  0.1423270E-002  0.1249976E+03  0.7818608E-02  0.1235073E+00
          4   -1    0    0  501    0  0.00000000000E+00  0.00000000000E+00  0.23643577249E+02  0.23677661310E+02  0.12700000000E+01 0.  1.
         -4   -1    0    0    0  501 -0.00000000000E+00 -0.00000000000E+00 -0.16505214212E+03  0.16505702808E+03  0.12700000000E+01 0.  1.
         25    2    1    2    0    0  0.00000000000E+00  0.00000000000E+00 -0.14140856487E+03  0.18873468939E+03  0.12499760302E+03 0.  0.
    9000005    1    3    3    0    0  0.10426099109E+02 -0.13553062490E+01  0.22305953502E+02  0.24679869515E+02  0.10000000000E+01 0.  0.
    9000005    1    3    3    0    0 -0.10426099109E+02  0.13553062490E+01 -0.16371451838E+03  0.16405481988E+03  0.10000000000E+01 0.  0.
<mgrwt>
<rscale>  0 0.12499760E+03</rscale>
<asrwt>0</asrwt>
<pdfrwt beam="1">  1        4 0.59157661E-02 0.12499760E+03</pdfrwt>
<pdfrwt beam="2">  1       -4 0.41267903E-01 0.12499760E+03</pdfrwt>
<totfact> 0.16784219E+03</totfact>
</mgrwt>
</event>
<event>
 5    1  0.1423270E-002  0.1249992E+03  0.7818608E-02  0.1235071E+00
          4   -1    0    0  501    0  0.00000000000E+00  0.00000000000E+00  0.28043647189E+02  0.28072389418E+02  0.12700000000E+01 0. -1.
         -4   -1    0    0    0  501 -0.00000000000E+00 -0.00000000000E+00 -0.13918698799E+03  0.13919278187E+03  0.12700000000E+01 0. -1.
         25    2    1    2    0    0  0.00000000000E+00  0.00000000000E+00 -0.11114334080E+03  0.16726517129E+03  0.12499918129E+03 0.  0.
    9000005    1    3    3    0    0  0.58324072422E+01  0.56800332831E+02 -0.21589907752E+02  0.61052591270E+02  0.10000000000E+01 0.  0.
    9000005    1    3    3    0    0 -0.58324072422E+01 -0.56800332831E+02 -0.89553433048E+02  0.10621258002E+03  0.10000000000E+01 0.  0.
<mgrwt>
<rscale>  0 0.12499918E+03</rscale>
<asrwt>0</asrwt>
<pdfrwt beam="1">  1        4 0.70152292E-02 0.12499918E+03</pdfrwt>
<pdfrwt beam="2">  1       -4 0.34801062E-01 0.12499918E+03</pdfrwt>
<totfact> 0.17721447E+03</totfact>
</mgrwt>
</event>
<event>
 5    1  0.1423270E-002  0.1250036E+03  0.7818608E-02  0.1235064E+00
         -4   -1    0    0    0  501 -0.00000000000E+00  0.00000000000E+00  0.21691283712E+02  0.21728430433E+02  0.12700000000E+01 0.  1.
          4   -1    0    0  501    0  0.00000000000E+00 -0.00000000000E+00 -0.17990083877E+03  0.17990532146E+03  0.12700000000E+01 0.  1.
         25    2    1    2    0    0  0.00000000000E+00  0.00000000000E+00 -0.15820955506E+03  0.20163375190E+03  0.12500362631E+03 0.  0.
    9000005    1    3    3    0    0 -0.50545191645E+02 -0.92654351719E+01 -0.13647064976E+03  0.14582833378E+03  0.10000000000E+01 0.  0.
    9000005    1    3    3    0    0  0.50545191645E+02  0.92654351719E+01 -0.21738905301E+02  0.55805418116E+02  0.10000000000E+01 0.  0.
<mgrwt>
<rscale>  0 0.12500363E+03</rscale>
<asrwt>0</asrwt>
<pdfrwt beam="2">  1        4 0.44980409E-01 0.12500363E+03</pdfrwt>
<pdfrwt beam="1">  1       -4 0.54280251E-02 0.12500363E+03</pdfrwt>
<totfact> 0.16255469E+03</totfact>
</mgrwt>
</event>
<event>
 5    1  0.1423270E-002  0.1250019E+03  0.7818608E-02  0.1235066E+00
         -4   -1    0    0    0  501 -0.00000000000E+00  0.00000000000E+00  0.20676677871E+03  0.20677067897E+03  0.12700000000E+01 0. -1.
          4   -1    0    0  501    0  0.00000000000E+00 -0.00000000000E+00 -0.18867208682E+02  0.18909903846E+02  0.12700000000E+01 0. -1.
         25    2    1    2    0    0  0.00000000000E+00  0.00000000000E+00  0.18789957003E+03  0.22568058281E+03  0.12500190815E+03 0.  0.
    9000005    1    3    3    0    0 -0.37817756972E+01 -0.61432057753E+02  0.11349251515E+03  0.12911138812E+03  0.10000000000E+01 0.  0.
    9000005    1    3    3    0    0  0.37817756972E+01  0.61432057753E+02  0.74407054883E+02  0.96569194692E+02  0.10000000000E+01 0.  0.
<mgrwt>
<rscale>  0 0.12500191E+03</rscale>
<asrwt>0</asrwt>
<pdfrwt beam="2">  1        4 0.47226266E-02 0.12500191E+03</pdfrwt>
<pdfrwt beam="1">  1       -4 0.51697519E-01 0.12500191E+03</pdfrwt>
<totfact> 0.15342217E+03</totfact>
</mgrwt>
</event>
<event>
 5    1  0.1423270E-002  0.1250012E+03  0.7818608E-02  0.1235067E+00
         -4   -1    0    0    0  501 -0.00000000000E+00  0.00000000000E+00  0.13647226148E+02  0.13706191358E+02  0.12700000000E+01 0. -1.
          4   -1    0    0  501    0  0.00000000000E+00 -0.00000000000E+00 -0.28555832162E+03  0.28556114572E+03  0.12700000000E+01 0. -1.
         25    2    1    2    0    0  0.00000000000E+00  0.00000000000E+00 -0.27191109547E+03  0.29926733708E+03  0.12500118080E+03 0.  0.
    9000005    1    3    3    0    0 -0.21478891717E+02  0.13438739597E+02 -0.27272185258E+03  0.27389806751E+03  0.10000000000E+01 0.  0.
    9000005    1    3    3    0    0  0.21478891717E+02 -0.13438739597E+02  0.81075710925E+00  0.25369269568E+02  0.10000000000E+01 0.  0.
<mgrwt>
<rscale>  0 0.12500118E+03</rscale>
<asrwt>0</asrwt>
<pdfrwt beam="2">  1        4 0.71397285E-01 0.12500118E+03</pdfrwt>
<pdfrwt beam="1">  1       -4 0.34195311E-02 0.12500118E+03</pdfrwt>
<totfact> 0.12991266E+03</totfact>
</mgrwt>
</event>
<event>
 5    1  0.1423270E-002  0.1250017E+03  0.7818608E-02  0.1235067E+00
         -4   -1    0    0    0  501 -0.00000000000E+00  0.00000000000E+00  0.63208757347E+01  0.64471986206E+01  0.12700000000E+01 0. -1.
          4   -1    0    0  501    0  0.00000000000E+00 -0.00000000000E+00 -0.61176781794E+03  0.61176913617E+03  0.12700000000E+01 0. -1.
         25    2    1    2    0    0  0.00000000000E+00  0.00000000000E+00 -0.60544694221E+03  0.61821633479E+03  0.12500174708E+03 0.  0.
    9000005    1    3    3    0    0  0.17171024878E+02 -0.53475241077E+02 -0.16719847483E+03  0.17638246934E+03  0.10000000000E+01 0.  0.
    9000005    1    3    3    0    0 -0.17171024878E+02  0.53475241077E+02 -0.43824846738E+03  0.44183386546E+03  0.10000000000E+01 0.  0.
<mgrwt>
<rscale>  0 0.12500175E+03</rscale>
<asrwt>0</asrwt>
<pdfrwt beam="2">  1        4 0.15295771E+00 0.12500175E+03</pdfrwt>
<pdfrwt beam="1">  1       -4 0.15961762E-02 0.12500175E+03</pdfrwt>
<totfact> 0.71254459E+02</totfact>
</mgrwt>
</event>
<event>
 5    1  0.1423270E-002  0.1250004E+03  0.7818608E-02  0.1235069E+00
          4   -1    0    0  501    0  0.00000000000E+00  0.00000000000E+00  0.11250194467E+03  0.11250911276E+03  0.12700000000E+01 0. -1.
         -4   -1    0    0    0  501 -0.00000000000E+00 -0.00000000000E+00 -0.34701926565E+02  0.34725158133E+02  0.12700000000E+01 0. -1.
         25    2    1    2    0    0  0.00000000000E+00  0.00000000000E+00  0.77800018103E+02  0.14723427089E+03  0.12500035083E+03 0.  0.
    9000005    1    3    3    0    0  0.26428936485E+02  0.14272489886E+02 -0.25647736241E+02  0.39509480199E+02  0.10000000000E+01 0.  0.
    9000005    1    3    3    0    0 -0.26428936485E+02 -0.14272489886E+02  0.10344775434E+03  0.10772479069E+03  0.10000000000E+01 0.  0.
<mgrwt>
<rscale>  0 0.12500035E+03</rscale>
<asrwt>0</asrwt>
<pdfrwt beam="1">  1        4 0.28129286E-01 0.12500035E+03</pdfrwt>
<pdfrwt beam="2">  1       -4 0.86792817E-02 0.12500035E+03</pdfrwt>
<totfact> 0.18675461E+03</totfact>
</mgrwt>
</event>
<event>
 5    1  0.1423270E-002  0.1250006E+03  0.7818608E-02  0.1235068E+00
         -4   -1    0    0    0  501 -0.00000000000E+00  0.00000000000E+00  0.28819514163E+03  0.28819793989E+03  0.12700000000E+01 0.  1.
          4   -1    0    0  501    0  0.00000000000E+00 -0.00000000000E+00 -0.13521691214E+02  0.13581201467E+02  0.12700000000E+01 0.  1.
         25    2    1    2    0    0  0.00000000000E+00  0.00000000000E+00  0.27467345042E+03  0.30177914136E+03  0.12500058319E+03 0.  0.
    9000005    1    3    3    0    0 -0.42217648310E+02 -0.22592770315E+02  0.40390660335E+02  0.62651165525E+02  0.10000000000E+01 0.  0.
    9000005    1    3    3    0    0  0.42217648310E+02  0.22592770315E+02  0.23428279008E+03  0.23912797584E+03  0.10000000000E+01 0.  0.
<mgrwt>
<rscale>  0 0.12500058E+03</rscale>
<asrwt>0</asrwt>
<pdfrwt beam="2">  1        4 0.33882112E-02 0.12500058E+03</pdfrwt>
<pdfrwt beam="1">  1       -4 0.72056577E-01 0.12500058E+03</pdfrwt>
<totfact> 0.12921166E+03</totfact>
</mgrwt>
</event>
<event>
 5    1  0.1423270E-002  0.1250099E+03  0.7818608E-02  0.1235054E+00
          4   -1    0    0  501    0  0.00000000000E+00  0.00000000000E+00  0.34831578750E+03  0.34831810278E+03  0.12700000000E+01 0. -1.
         -4   -1    0    0    0  501 -0.00000000000E+00 -0.00000000000E+00 -0.11178143186E+02  0.11250057115E+02  0.12700000000E+01 0. -1.
         25    2    1    2    0    0  0.00000000000E+00  0.00000000000E+00  0.33713764432E+03  0.35956815989E+03  0.12500988119E+03 0.  0.
    9000005    1    3    3    0    0  0.38460873430E+02 -0.26578906155E+01  0.27085424411E+02  0.47126673795E+02  0.10000000000E+01 0.  0.
    9000005    1    3    3    0    0 -0.38460873430E+02  0.26578906155E+01  0.31005221991E+03  0.31244148610E+03  0.10000000000E+01 0.  0.
<mgrwt>
<rscale>  0 0.12500988E+03</rscale>
<asrwt>0</asrwt>
<pdfrwt beam="1">  1        4 0.87088222E-01 0.12500988E+03</pdfrwt>
<pdfrwt beam="2">  1       -4 0.28038146E-02 0.12500988E+03</pdfrwt>
<totfact> 0.11449813E+03</totfact>
</mgrwt>
</event>
<event>
 5    1  0.1423270E-002  0.1249982E+03  0.7818608E-02  0.1235072E+00
          4   -1    0    0  501    0  0.00000000000E+00  0.00000000000E+00  0.18371261040E+03  0.18371700009E+03  0.12700000000E+01 0.  1.
         -4   -1    0    0    0  501 -0.00000000000E+00 -0.00000000000E+00 -0.21238589580E+02  0.21276526675E+02  0.12700000000E+01 0.  1.
         25    2    1    2    0    0  0.00000000000E+00  0.00000000000E+00  0.16247402082E+03  0.20499352676E+03  0.12499815427E+03 0.  0.
    9000005    1    3    3    0    0  0.39881499898E+02  0.32652318109E+01  0.15995464274E+03  0.16488688094E+03  0.10000000000E+01 0.  0.
    9000005    1    3    3    0    0 -0.39881499898E+02 -0.32652318109E+01  0.25193780828E+01  0.40106645819E+02  0.10000000000E+01 0.  0.
<mgrwt>
<rscale>  0 0.12499815E+03</rscale>
<asrwt>0</asrwt>
<pdfrwt beam="1">  1        4 0.45933443E-01 0.12499815E+03</pdfrwt>
<pdfrwt beam="2">  1       -4 0.53149383E-02 0.12499815E+03</pdfrwt>
<totfact> 0.16124715E+03</totfact>
</mgrwt>
</event>
<event>
 5    1  0.1423270E-002  0.1249971E+03  0.7818608E-02  0.1235074E+00
         -4   -1    0    0    0  501 -0.00000000000E+00  0.00000000000E+00  0.31453588688E+02  0.31479217611E+02  0.12700000000E+01 0. -1.
          4   -1    0    0  501    0  0.00000000000E+00 -0.00000000000E+00 -0.12410571073E+03  0.12411220865E+03  0.12700000000E+01 0. -1.
         25    2    1    2    0    0  0.00000000000E+00  0.00000000000E+00 -0.92652122038E+02  0.15559142626E+03  0.12499710479E+03 0.  0.
    9000005    1    3    3    0    0  0.38161665855E+02 -0.36508867120E+02 -0.87906623033E+02  0.10255625038E+03  0.10000000000E+01 0.  0.
    9000005    1    3    3    0    0 -0.38161665855E+02  0.36508867120E+02 -0.47454990050E+01  0.53035175875E+02  0.10000000000E+01 0.  0.
<mgrwt>
<rscale>  0 0.12499710E+03</rscale>
<asrwt>0</asrwt>
<pdfrwt beam="2">  1        4 0.31030442E-01 0.12499710E+03</pdfrwt>
<pdfrwt beam="1">  1       -4 0.78674133E-02 0.12499710E+03</pdfrwt>
<totfact> 0.18268453E+03</totfact>
</mgrwt>
</event>
<event>
 5    1  0.1423270E-002  0.1250016E+03  0.7818608E-02  0.1235067E+00
          4   -1    0    0  501    0  0.00000000000E+00  0.00000000000E+00  0.18780020161E+02  0.18822913091E+02  0.12700000000E+01 0.  1.
         -4   -1    0    0    0  501 -0.00000000000E+00 -0.00000000000E+00 -0.20772348830E+03  0.20772737059E+03  0.12700000000E+01 0.  1.
         25    2    1    2    0    0  0.00000000000E+00  0.00000000000E+00 -0.18894346814E+03  0.22655028368E+03  0.12500158752E+03 0.  0.
    9000005    1    3    3    0    0 -0.34028468910E+00 -0.37265357479E+02 -0.35537409282E+01  0.37449322240E+02  0.10000000000E+01 0.  0.
    9000005    1    3    3    0    0  0.34028468910E+00  0.37265357479E+02 -0.18538972722E+03  0.18910096144E+03  0.10000000000E+01 0.  0.
<mgrwt>
<rscale>  0 0.12500159E+03</rscale>
<asrwt>0</asrwt>
<pdfrwt beam="1">  1        4 0.47008526E-02 0.12500159E+03</pdfrwt>
<pdfrwt beam="2">  1       -4 0.51936712E-01 0.12500159E+03</pdfrwt>
<totfact> 0.15310806E+03</totfact>
</mgrwt>
</event>
<event>
 5    1  0.1423270E-002  0.1250033E+03  0.7818608E-02  0.1235064E+00
          4   -1    0    0  501    0  0.00000000000E+00  0.00000000000E+00  0.42248124947E+01  0.44115689517E+01  0.12700000000E+01 0.  1.
         -4   -1    0    0    0  501 -0.00000000000E+00 -0.00000000000E+00 -0.90446459814E+03  0.90446548977E+03  0.12700000000E+01 0.  1.
         25    2    1    2    0    0  0.00000000000E+00  0.00000000000E+00 -0.90023978564E+03  0.90887705872E+03  0.12500334482E+03 0.  0.
    9000005    1    3    3    0    0  0.41267630267E+02 -0.18780893787E+02 -0.76282608211E+03  0.76417299797E+03  0.10000000000E+01 0.  0.
    9000005    1    3    3    0    0 -0.41267630267E+02  0.18780893787E+02 -0.13741370353E+03  0.14470406075E+03  0.10000000000E+01 0.  0.
<mgrwt>
<rscale>  0 0.12500334E+03</rscale>
<asrwt>0</asrwt>
<pdfrwt beam="1">  1        4 0.10796622E-02 0.12500334E+03</pdfrwt>
<pdfrwt beam="2">  1       -4 0.22613896E+00 0.12500334E+03</pdfrwt>
<totfact> 0.43598237E+02</totfact>
</mgrwt>
</event>
<event>
 5    1  0.1423270E-002  0.1250013E+03  0.7818608E-02  0.1235067E+00
          4   -1    0    0  501    0  0.00000000000E+00  0.00000000000E+00  0.35431634563E+02  0.35454387990E+02  0.12700000000E+01 0.  1.
         -4   -1    0    0    0  501 -0.00000000000E+00 -0.00000000000E+00 -0.11018799669E+03  0.11019531530E+03  0.12700000000E+01 0.  1.
         25    2    1    2    0    0  0.00000000000E+00  0.00000000000E+00 -0.74756362129E+02  0.14564970329E+03  0.12500128956E+03 0.  0.
    9000005    1    3    3    0    0 -0.21768274866E+02 -0.10364544970E+02 -0.10455645182E+03  0.10730486103E+03  0.10000000000E+01 0.  0.
    9000005    1    3    3    0    0  0.21768274866E+02  0.10364544970E+02  0.29800089689E+02  0.38344842268E+02  0.10000000000E+01 0.  0.
<mgrwt>
<rscale>  0 0.12500129E+03</rscale>
<asrwt>0</asrwt>
<pdfrwt beam="1">  1        4 0.88616679E-02 0.12500129E+03</pdfrwt>
<pdfrwt beam="2">  1       -4 0.27550757E-01 0.12500129E+03</pdfrwt>
<totfact> 0.18754211E+03</totfact>
</mgrwt>
</event>
<event>
 5    1  0.1423270E-002  0.1249968E+03  0.7818608E-02  0.1235074E+00
          4   -1    0    0  501    0  0.00000000000E+00  0.00000000000E+00  0.87232971585E+02  0.87242215879E+02  0.12700000000E+01 0. -1.
         -4   -1    0    0    0  501 -0.00000000000E+00 -0.00000000000E+00 -0.44756618178E+02  0.44774633116E+02  0.12700000000E+01 0. -1.
         25    2    1    2    0    0  0.00000000000E+00  0.00000000000E+00  0.42476353407E+02  0.13201684900E+03  0.12499683124E+03 0.  0.
    9000005    1    3    3    0    0  0.48609434649E+02  0.34800191132E+02  0.40456879007E+02  0.72192032100E+02  0.10000000000E+01 0.  0.
    9000005    1    3    3    0    0 -0.48609434649E+02 -0.34800191132E+02  0.20194744000E+01  0.59824816896E+02  0.10000000000E+01 0.  0.
<mgrwt>
<rscale>  0 0.12499683E+03</rscale>
<asrwt>0</asrwt>
<pdfrwt beam="1">  1        4 0.21811650E-01 0.12499683E+03</pdfrwt>
<pdfrwt beam="2">  1       -4 0.11192562E-01 0.12499683E+03</pdfrwt>
<totfact> 0.19457998E+03</totfact>
</mgrwt>
</event>
<event>
 5    1  0.1423270E-002  0.1250017E+03  0.7818608E-02  0.1235067E+00
          4   -1    0    0  501    0  0.00000000000E+00  0.00000000000E+00  0.78778428295E+01  0.79795556045E+01  0.12700000000E+01 0. -1.
         -4   -1    0    0    0  501 -0.00000000000E+00 -0.00000000000E+00 -0.49258319220E+03  0.49258482938E+03  0.12700000000E+01 0. -1.
         25    2    1    2    0    0  0.00000000000E+00  0.00000000000E+00 -0.48470534937E+03  0.50056438499E+03  0.12500171122E+03 0.  0.
    9000005    1    3    3    0    0 -0.42582307853E+02 -0.88600218579E+01 -0.42204561834E+03  0.42428204874E+03  0.10000000000E+01 0.  0.
    9000005    1    3    3    0    0  0.42582307853E+02  0.88600218579E+01 -0.62659731033E+02  0.76282336242E+02  0.10000000000E+01 0.  0.
<mgrwt>
<rscale>  0 0.12500171E+03</rscale>
<asrwt>0</asrwt>
<pdfrwt beam="1">  1        4 0.19823811E-02 0.12500171E+03</pdfrwt>
<pdfrwt beam="2">  1       -4 0.12315861E+00 0.12500171E+03</pdfrwt>
<totfact> 0.87513941E+02</totfact>
</mgrwt>
</event>
<event>
 5    1  0.1423270E-002  0.1250030E+03  0.7818608E-02  0.1235065E+00
          4   -1    0    0  501    0  0.00000000000E+00  0.00000000000E+00  0.82174016094E+02  0.82183829438E+02  0.12700000000E+01 0.  1.
         -4   -1    0    0    0  501 -0.00000000000E+00 -0.00000000000E+00 -0.47517452685E+02  0.47534421314E+02  0.12700000000E+01 0.  1.
         25    2    1    2    0    0  0.00000000000E+00  0.00000000000E+00  0.34656563409E+02  0.12971825075E+03  0.12500298873E+03 0.  0.
    9000005    1    3    3    0    0 -0.65474715501E+01  0.45302649474E+02  0.61480085305E+02  0.76655073689E+02  0.10000000000E+01 0.  0.
    9000005    1    3    3    0    0  0.65474715501E+01 -0.45302649474E+02 -0.26823521896E+02  0.53063177063E+02  0.10000000000E+01 0.  0.
<mgrwt>
<rscale>  0 0.12500299E+03</rscale>
<asrwt>0</asrwt>
<pdfrwt beam="1">  1        4 0.20546852E-01 0.12500299E+03</pdfrwt>
<pdfrwt beam="2">  1       -4 0.11882711E-01 0.12500299E+03</pdfrwt>
<totfact> 0.19578175E+03</totfact>
</mgrwt>
</event>
<event>
 5    1  0.1423270E-002  0.1250072E+03  0.7818608E-02  0.1235058E+00
         -4   -1    0    0    0  501 -0.00000000000E+00  0.00000000000E+00  0.13289147145E+03  0.13289753980E+03  0.12700000000E+01 0.  1.
          4   -1    0    0  501    0  0.00000000000E+00 -0.00000000000E+00 -0.29377212892E+02  0.29404651627E+02  0.12700000000E+01 0.  1.
         25    2    1    2    0    0  0.00000000000E+00  0.00000000000E+00  0.10351425856E+03  0.16230219142E+03  0.12500719826E+03 0.  0.
    9000005    1    3    3    0    0 -0.18696405085E+02 -0.50812311433E+02  0.11231915401E+02  0.55304633439E+02  0.10000000000E+01 0.  0.
    9000005    1    3    3    0    0  0.18696405085E+02  0.50812311433E+02  0.92282343155E+02  0.10699755798E+03  0.10000000000E+01 0.  0.
<mgrwt>
<rscale>  0 0.12500720E+03</rscale>
<asrwt>0</asrwt>
<pdfrwt beam="2">  1        4 0.73484918E-02 0.12500720E+03</pdfrwt>
<pdfrwt beam="1">  1       -4 0.33227055E-01 0.12500720E+03</pdfrwt>
<totfact> 0.17946943E+03</totfact>
</mgrwt>
</event>
<event>
 5    1  0.1423270E-002  0.1250010E+03  0.7818608E-02  0.1235068E+00
          4   -1    0    0  501    0  0.00000000000E+00  0.00000000000E+00  0.16353888784E+03  0.16354381901E+03  0.12700000000E+01 0.  1.
         -4   -1    0    0    0  501 -0.00000000000E+00 -0.00000000000E+00 -0.23863968654E+02  0.23897738385E+02  0.12700000000E+01 0.  1.
         25    2    1    2    0    0  0.00000000000E+00  0.00000000000E+00  0.13967491919E+03  0.18744155739E+03  0.12500101755E+03 0.  0.
    9000005    1    3    3    0    0 -0.60765347761E+01  0.52358932910E+02  0.12017605445E+03  0.13123134608E+03  0.10000000000E+01 0.  0.
    9000005    1    3    3    0    0  0.60765347761E+01 -0.52358932910E+02  0.19498864740E+02  0.56210211319E+02  0.10000000000E+01 0.  0.
<mgrwt>
<rscale>  0 0.12500102E+03</rscale>
<asrwt>0</asrwt>
<pdfrwt beam="1">  1        4 0.40889559E-01 0.12500102E+03</pdfrwt>
<pdfrwt beam="2">  1       -4 0.59708299E-02 0.12500102E+03</pdfrwt>
<totfact> 0.16837170E+03</totfact>
</mgrwt>
</event>
<event>
 5    1  0.1423270E-002  0.1250000E+03  0.7818608E-02  0.1235069E+00
          4   -1    0    0  501    0  0.00000000000E+00  0.00000000000E+00  0.40648881211E+02  0.40668715786E+02  0.12700000000E+01 0.  1.
         -4   -1    0    0    0  501 -0.00000000000E+00 -0.00000000000E+00 -0.96049834900E+02  0.96058230695E+02  0.12700000000E+01 0.  1.
         25    2    1    2    0    0  0.00000000000E+00  0.00000000000E+00 -0.55400953689E+02  0.13672694648E+03  0.12499996890E+03 0.  0.
    9000005    1    3    3    0    0  0.41009809787E+02  0.47017796419E+02 -0.23791653227E+02  0.66779640925E+02  0.10000000000E+01 0.  0.
    9000005    1    3    3    0    0 -0.41009809787E+02 -0.47017796419E+02 -0.31609300463E+02  0.69947305556E+02  0.10000000000E+01 0.  0.
<mgrwt>
<rscale>  0 0.12499997E+03</rscale>
<asrwt>0</asrwt>
<pdfrwt beam="1">  1        4 0.10165749E-01 0.12499997E+03</pdfrwt>
<pdfrwt beam="2">  1       -4 0.24015987E-01 0.12499997E+03</pdfrwt>
<totfact> 0.19209074E+03</totfact>
</mgrwt>
</event>
<event>
 5    1  0.1423270E-002  0.1249994E+03  0.7818608E-02  0.1235070E+00
          4   -1    0    0  501    0  0.00000000000E+00  0.00000000000E+00  0.65705454869E+02  0.65717727438E+02  0.12700000000E+01 0.  1.
         -4   -1    0    0    0  501 -0.00000000000E+00 -0.00000000000E+00 -0.59425786431E+02  0.59439355590E+02  0.12700000000E+01 0.  1.
         25    2    1    2    0    0  0.00000000000E+00  0.00000000000E+00  0.62796684380E+01  0.12515708303E+03  0.12499944478E+03 0.  0.
    9000005    1    3    3    0    0  0.25516139310E+02 -0.56138165132E+02 -0.70044949718E+01  0.62069556946E+02  0.10000000000E+01 0.  0.
    9000005    1    3    3    0    0 -0.25516139310E+02  0.56138165132E+02  0.13284163410E+02  0.63087526082E+02  0.10000000000E+01 0.  0.
<mgrwt>
<rscale>  0 0.12499944E+03</rscale>
<asrwt>0</asrwt>
<pdfrwt beam="1">  1        4 0.16429594E-01 0.12499944E+03</pdfrwt>
<pdfrwt beam="2">  1       -4 0.14859677E-01 0.12499944E+03</pdfrwt>
<totfact> 0.19826796E+03</totfact>
</mgrwt>
</event>
<event>
 5    1  0.1423270E-002  0.1249927E+03  0.7818608E-02  0.1235081E+00
         -4   -1    0    0    0  501 -0.00000000000E+00  0.00000000000E+00  0.93285280281E+01  0.94145809876E+01  0.12700000000E+01 0. -1.
          4   -1    0    0  501    0  0.00000000000E+00 -0.00000000000E+00 -0.41668427321E+03  0.41668620861E+03  0.12700000000E+01 0. -1.
         25    2    1    2    0    0  0.00000000000E+00  0.00000000000E+00 -0.40735574519E+03  0.42610078959E+03  0.12499271882E+03 0.  0.
    9000005    1    3    3    0    0  0.55115298187E+02 -0.23025289547E+02 -0.14110290774E+03  0.15322823051E+03  0.10000000000E+01 0.  0.
    9000005    1    3    3    0    0 -0.55115298187E+02  0.23025289547E+02 -0.26625283745E+03  0.27287255909E+03  0.10000000000E+01 0.  0.
<mgrwt>
<rscale>  0 0.12499272E+03</rscale>
<asrwt>0</asrwt>
<pdfrwt beam="2">  1        4 0.10418200E+00 0.12499272E+03</pdfrwt>
<pdfrwt beam="1">  1       -4 0.23431320E-02 0.12499272E+03</pdfrwt>
<totfact> 0.10048752E+03</totfact>
</mgrwt>
</event>
<event>
 5    1  0.1423270E-002  0.1250055E+03  0.7818608E-02  0.1235061E+00
         -4   -1    0    0    0  501 -0.00000000000E+00  0.00000000000E+00  0.11458818193E+04  0.11458825231E+04  0.12700000000E+01 0.  1.
          4   -1    0    0  501    0  0.00000000000E+00 -0.00000000000E+00 -0.32902453858E+01  0.35268420292E+01  0.12700000000E+01 0.  1.
         25    2    1    2    0    0  0.00000000000E+00  0.00000000000E+00  0.11425915739E+04  0.11494093651E+04  0.12500553517E+03 0.  0.
    9000005    1    3    3    0    0 -0.94590698328E+01  0.10131065995E+02  0.11316159287E+04  0.11317012515E+04  0.10000000000E+01 0.  0.
    9000005    1    3    3    0    0  0.94590698328E+01 -0.10131065995E+02  0.10975645186E+02  0.17708113608E+02  0.10000000000E+01 0.  0.
<mgrwt>
<rscale>  0 0.12500554E+03</rscale>
<asrwt>0</asrwt>
<pdfrwt beam="2">  1        4 0.85222374E-03 0.12500554E+03</pdfrwt>
<pdfrwt beam="1">  1       -4 0.28650017E+00 0.12500554E+03</pdfrwt>
<totfact> 0.27933662E+02</totfact>
</mgrwt>
</event>
<event>
 5    1  0.1423270E-002  0.1249990E+03  0.7818608E-02  0.1235071E+00
          4   -1    0    0  501    0  0.00000000000E+00  0.00000000000E+00  0.24565502797E+02  0.24598309447E+02  0.12700000000E+01 0. -1.
         -4   -1    0    0    0  501 -0.00000000000E+00 -0.00000000000E+00 -0.15886957020E+03  0.15887464629E+03  0.12700000000E+01 0. -1.
         25    2    1    2    0    0  0.00000000000E+00  0.00000000000E+00 -0.13430406740E+03  0.18347295574E+03  0.12499897187E+03 0.  0.
    9000005    1    3    3    0    0  0.51672030472E+02  0.24853091186E+02 -0.30677653645E+02  0.65036861147E+02  0.10000000000E+01 0.  0.
    9000005    1    3    3    0    0 -0.51672030472E+02 -0.24853091186E+02 -0.10362641376E+03  0.11843609459E+03  0.10000000000E+01 0.  0.
<mgrwt>
<rscale>  0 0.12499897E+03</rscale>
<asrwt>0</asrwt>
<pdfrwt beam="1">  1        4 0.61461115E-02 0.12499897E+03</pdfrwt>
<pdfrwt beam="2">  1       -4 0.39722125E-01 0.12499897E+03</pdfrwt>
<totfact> 0.17006318E+03</totfact>
</mgrwt>
</event>
<event>
 5    1  0.1423270E-002  0.1250000E+03  0.7818608E-02  0.1235069E+00
          4   -1    0    0  501    0  0.00000000000E+00  0.00000000000E+00  0.18623582319E+02  0.18666834718E+02  0.12700000000E+01 0.  1.
         -4   -1    0    0    0  501 -0.00000000000E+00 -0.00000000000E+00 -0.20945896453E+03  0.20946281465E+03  0.12700000000E+01 0.  1.
         25    2    1    2    0    0  0.00000000000E+00  0.00000000000E+00 -0.19083538221E+03  0.22812964937E+03  0.12499997527E+03 0.  0.
    9000005    1    3    3    0    0  0.15264308339E+02  0.16766523986E+02 -0.20169589804E+03  0.20296884175E+03  0.10000000000E+01 0.  0.
    9000005    1    3    3    0    0 -0.15264308339E+02 -0.16766523986E+02  0.10860515834E+02  0.25160807615E+02  0.10000000000E+01 0.  0.
<mgrwt>
<rscale>  0 0.12499998E+03</rscale>
<asrwt>0</asrwt>
<pdfrwt beam="1">  1        4 0.46617841E-02 0.12499998E+03</pdfrwt>
<pdfrwt beam="2">  1       -4 0.52370622E-01 0.12499998E+03</pdfrwt>
<totfact> 0.15254384E+03</totfact>
</mgrwt>
</event>
<event>
 5    1  0.1423270E-002  0.1250032E+03  0.7818608E-02  0.1235064E+00
          4   -1    0    0  501    0  0.00000000000E+00  0.00000000000E+00  0.86549457144E+02  0.86558774437E+02  0.12700000000E+01 0.  1.
         -4   -1    0    0    0  501 -0.00000000000E+00 -0.00000000000E+00 -0.45114799207E+02  0.45132671176E+02  0.12700000000E+01 0.  1.
         25    2    1    2    0    0  0.00000000000E+00  0.00000000000E+00  0.41434657938E+02  0.13169144561E+03  0.12500322384E+03 0.  0.
    9000005    1    3    3    0    0  0.40245486416E+00  0.21800488026E+01 -0.45078527930E+02  0.45144083367E+02  0.10000000000E+01 0.  0.
    9000005    1    3    3    0    0 -0.40245486416E+00 -0.21800488026E+01  0.86513185868E+02  0.86547362246E+02  0.10000000000E+01 0.  0.
<mgrwt>
<rscale>  0 0.12500322E+03</rscale>
<asrwt>0</asrwt>
<pdfrwt beam="1">  1        4 0.21640763E-01 0.12500322E+03</pdfrwt>
<pdfrwt beam="2">  1       -4 0.11282099E-01 0.12500322E+03</pdfrwt>
<totfact> 0.19472411E+03</totfact>
</mgrwt>
</event>
<event>
 5    1  0.1423270E-002  0.1250011E+03  0.7818608E-02  0.1235068E+00
          4   -1    0    0  501    0  0.00000000000E+00  0.00000000000E+00  0.25094732714E+03  0.25095054074E+03  0.12700000000E+01 0.  1.
         -4   -1    0    0    0  501 -0.00000000000E+00 -0.00000000000E+00 -0.15537074205E+02  0.15588892676E+02  0.12700000000E+01 0.  1.
         25    2    1    2    0    0  0.00000000000E+00  0.00000000000E+00  0.23541025293E+03  0.26653943342E+03  0.12500112951E+03 0.  0.
    9000005    1    3    3    0    0 -0.16472806830E+02  0.22582343639E+02  0.23688512947E+03  0.23853066925E+03  0.10000000000E+01 0.  0.
    9000005    1    3    3    0    0  0.16472806830E+02 -0.22582343639E+02 -0.14748765399E+01  0.28008764162E+02  0.10000000000E+01 0.  0.
<mgrwt>
<rscale>  0 0.12500113E+03</rscale>
<asrwt>0</asrwt>
<pdfrwt beam="1">  1        4 0.62743711E-01 0.12500113E+03</pdfrwt>
<pdfrwt beam="2">  1       -4 0.38911476E-02 0.12500113E+03</pdfrwt>
<totfact> 0.13963181E+03</totfact>
</mgrwt>
</event>
<event>
 5    1  0.1423270E-002  0.1249993E+03  0.7818608E-02  0.1235070E+00
          4   -1    0    0  501    0  0.00000000000E+00  0.00000000000E+00  0.59887758909E+01  0.61219552981E+01  0.12700000000E+01 0.  1.
         -4   -1    0    0    0  501 -0.00000000000E+00 -0.00000000000E+00 -0.64494787245E+03  0.64494912286E+03  0.12700000000E+01 0.  1.
         25    2    1    2    0    0  0.00000000000E+00  0.00000000000E+00 -0.63895909656E+03  0.65107107816E+03  0.12499928695E+03 0.  0.
    9000005    1    3    3    0    0 -0.64243514518E+01 -0.61623379253E+02 -0.27700718221E+03  0.28385329337E+03  0.10000000000E+01 0.  0.
    9000005    1    3    3    0    0  0.64243514518E+01  0.61623379253E+02 -0.36195191435E+03  0.36721778479E+03  0.10000000000E+01 0.  0.
<mgrwt>
<rscale>  0 0.12499929E+03</rscale>
<asrwt>0</asrwt>
<pdfrwt beam="1">  1        4 0.15139999E-02 0.12499929E+03</pdfrwt>
<pdfrwt beam="2">  1       -4 0.16125354E+00 0.12499929E+03</pdfrwt>
<totfact> 0.67389677E+02</totfact>
</mgrwt>
</event>
<event>
 5    1  0.1423270E-002  0.1249989E+03  0.7818608E-02  0.1235071E+00
         -4   -1    0    0    0  501 -0.00000000000E+00  0.00000000000E+00  0.15164255675E+03  0.15164787475E+03  0.12700000000E+01 0. -1.
          4   -1    0    0  501    0  0.00000000000E+00 -0.00000000000E+00 -0.25737727454E+02  0.25769041785E+02  0.12700000000E+01 0. -1.
         25    2    1    2    0    0  0.00000000000E+00  0.00000000000E+00  0.12590482929E+03  0.17741691654E+03  0.12499894493E+03 0.  0.
    9000005    1    3    3    0    0 -0.35427778188E+02 -0.51151880389E+02  0.71172595428E+02  0.94541951930E+02  0.10000000000E+01 0.  0.
    9000005    1    3    3    0    0  0.35427778188E+02  0.51151880389E+02  0.54732233864E+02  0.82874964606E+02  0.10000000000E+01 0.  0.
<mgrwt>
<rscale>  0 0.12499894E+03</rscale>
<asrwt>0</asrwt>
<pdfrwt beam="2">  1        4 0.64390110E-02 0.12499894E+03</pdfrwt>
<pdfrwt beam="1">  1       -4 0.37915218E-01 0.12499894E+03</pdfrwt>
<totfact> 0.17268032E+03</totfact>
</mgrwt>
</event>
<event>
 5    1  0.1423270E-002  0.1250021E+03  0.7818608E-02  0.1235066E+00
         -4   -1    0    0    0  501 -0.00000000000E+00  0.00000000000E+00  0.10823047183E+03  0.10823792280E+03  0.12700000000E+01 0.  1.
          4   -1    0    0  501    0  0.00000000000E+00 -0.00000000000E+00 -0.36073301780E+02  0.36095650726E+02  0.12700000000E+01 0.  1.
         25    2    1    2    0    0  0.00000000000E+00  0.00000000000E+00  0.72157170052E+02  0.14433357353E+03  0.12500209301E+03 0.  0.
    9000005    1    3    3    0    0 -0.29469439031E+01 -0.48124986797E+02  0.81984889303E+02  0.95116880240E+02  0.10000000000E+01 0.  0.
    9000005    1    3    3    0    0  0.29469439031E+01  0.48124986797E+02 -0.98277192517E+01  0.49216693289E+02  0.10000000000E+01 0.  0.
<mgrwt>
<rscale>  0 0.12500209E+03</rscale>
<asrwt>0</asrwt>
<pdfrwt beam="2">  1        4 0.90220505E-02 0.12500209E+03</pdfrwt>
<pdfrwt beam="1">  1       -4 0.27061343E-01 0.12500209E+03</pdfrwt>
<totfact> 0.18819876E+03</totfact>
</mgrwt>
</event>
<event>
 5    1  0.1423270E-002  0.1250020E+03  0.7818608E-02  0.1235066E+00
         -4   -1    0    0    0  501 -0.00000000000E+00  0.00000000000E+00  0.29632036117E+02  0.29659239108E+02  0.12700000000E+01 0.  1.
          4   -1    0    0  501    0  0.00000000000E+00 -0.00000000000E+00 -0.13173862158E+03  0.13174474303E+03  0.12700000000E+01 0.  1.
         25    2    1    2    0    0  0.00000000000E+00  0.00000000000E+00 -0.10210658546E+03  0.16140398214E+03  0.12500196260E+03 0.  0.
    9000005    1    3    3    0    0 -0.37793013068E+02  0.38914189406E+02 -0.91117211873E+02  0.10604702859E+03  0.10000000000E+01 0.  0.
    9000005    1    3    3    0    0  0.37793013068E+02 -0.38914189406E+02 -0.10989373591E+02  0.55356953545E+02  0.10000000000E+01 0.  0.
<mgrwt>
<rscale>  0 0.12500196E+03</rscale>
<asrwt>0</asrwt>
<pdfrwt beam="2">  1        4 0.32938819E-01 0.12500196E+03</pdfrwt>
<pdfrwt beam="1">  1       -4 0.74121749E-02 0.12500196E+03</pdfrwt>
<totfact> 0.17991060E+03</totfact>
</mgrwt>
</event>
<event>
 5    1  0.1423270E-002  0.1250008E+03  0.7818608E-02  0.1235068E+00
          4   -1    0    0  501    0  0.00000000000E+00  0.00000000000E+00  0.15819071405E+03  0.15819581193E+03  0.12700000000E+01 0.  1.
         -4   -1    0    0    0  501 -0.00000000000E+00 -0.00000000000E+00 -0.24671780477E+02  0.24704445994E+02  0.12700000000E+01 0.  1.
         25    2    1    2    0    0  0.00000000000E+00  0.00000000000E+00  0.13351893358E+03  0.18290025793E+03  0.12500079490E+03 0.  0.
    9000005    1    3    3    0    0  0.54074508676E+02  0.31190688246E+02  0.70997212453E+02  0.94543723736E+02  0.10000000000E+01 0.  0.
    9000005    1    3    3    0    0 -0.54074508676E+02 -0.31190688246E+02  0.62521721124E+02  0.88356534190E+02  0.10000000000E+01 0.  0.
<mgrwt>
<rscale>  0 0.12500079E+03</rscale>
<asrwt>0</asrwt>
<pdfrwt beam="1">  1        4 0.39552399E-01 0.12500079E+03</pdfrwt>
<pdfrwt beam="2">  1       -4 0.61726656E-02 0.12500079E+03</pdfrwt>
<totfact> 0.17030088E+03</totfact>
</mgrwt>
</event>
<event>
 5    1  0.1423270E-002  0.1250028E+03  0.7818608E-02  0.1235065E+00
          4   -1    0    0  501    0  0.00000000000E+00  0.00000000000E+00  0.56888738226E+02  0.56902912377E+02  0.12700000000E+01 0.  1.
         -4   -1    0    0    0  501 -0.00000000000E+00 -0.00000000000E+00 -0.68639239738E+02  0.68650987843E+02  0.12700000000E+01 0.  1.
         25    2    1    2    0    0  0.00000000000E+00  0.00000000000E+00 -0.11750501511E+02  0.12555390022E+03  0.12500283027E+03 0.  0.
    9000005    1    3    3    0    0  0.19006358559E+02 -0.90480063076E+01  0.53225621361E+02  0.57245740917E+02  0.10000000000E+01 0.  0.
    9000005    1    3    3    0    0 -0.19006358559E+02  0.90480063076E+01 -0.64976122872E+02  0.68308159303E+02  0.10000000000E+01 0.  0.
<mgrwt>
<rscale>  0 0.12500283E+03</rscale>
<asrwt>0</asrwt>
<pdfrwt beam="1">  1        4 0.14225425E-01 0.12500283E+03</pdfrwt>
<pdfrwt beam="2">  1       -4 0.17163050E-01 0.12500283E+03</pdfrwt>
<totfact> 0.19803735E+03</totfact>
</mgrwt>
</event>
<event>
 5    1  0.1423270E-002  0.1250009E+03  0.7818608E-02  0.1235068E+00
          4   -1    0    0  501    0  0.00000000000E+00  0.00000000000E+00  0.58248659827E+01  0.59617081207E+01  0.12700000000E+01 0. -1.
         -4   -1    0    0    0  501 -0.00000000000E+00 -0.00000000000E+00 -0.66270210181E+03  0.66270331872E+03  0.12700000000E+01 0. -1.
         25    2    1    2    0    0  0.00000000000E+00  0.00000000000E+00 -0.65687723582E+03  0.66866502684E+03  0.12500086069E+03 0.  0.
    9000005    1    3    3    0    0 -0.53136630926E+02 -0.32882044980E+02 -0.32438809418E+03  0.33035339573E+03  0.10000000000E+01 0.  0.
    9000005    1    3    3    0    0  0.53136630926E+02  0.32882044980E+02 -0.33248914165E+03  0.33831163111E+03  0.10000000000E+01 0.  0.
<mgrwt>
<rscale>  0 0.12500086E+03</rscale>
<asrwt>0</asrwt>
<pdfrwt beam="1">  1        4 0.14734761E-02 0.12500086E+03</pdfrwt>
<pdfrwt beam="2">  1       -4 0.16569253E+00 0.12500086E+03</pdfrwt>
<totfact> 0.65413973E+02</totfact>
</mgrwt>
</event>
<event>
 5    1  0.1423270E-002  0.1249985E+03  0.7818608E-02  0.1235072E+00
         -4   -1    0    0    0  501 -0.00000000000E+00  0.00000000000E+00  0.38747460223E+02  0.38768267613E+02  0.12700000000E+01 0. -1.
          4   -1    0    0  501    0  0.00000000000E+00 -0.00000000000E+00 -0.10075874655E+03  0.10076675000E+03  0.12700000000E+01 0. -1.
         25    2    1    2    0    0  0.00000000000E+00  0.00000000000E+00 -0.62011286327E+02  0.13953501762E+03  0.12499848603E+03 0.  0.
    9000005    1    3    3    0    0 -0.32773433510E+01 -0.13211237487E+02 -0.99089285840E+02  0.10002481864E+03  0.10000000000E+01 0.  0.
    9000005    1    3    3    0    0  0.32773433510E+01  0.13211237487E+02  0.37077999514E+02  0.39510198978E+02  0.10000000000E+01 0.  0.
<mgrwt>
<rscale>  0 0.12499849E+03</rscale>
<asrwt>0</asrwt>
<pdfrwt beam="2">  1        4 0.25193287E-01 0.12499849E+03</pdfrwt>
<pdfrwt beam="1">  1       -4 0.96904666E-02 0.12499849E+03</pdfrwt>
<totfact> 0.19064828E+03</totfact>
</mgrwt>
</event>
<event>
 5    1  0.1423270E-002  0.1249997E+03  0.7818608E-02  0.1235070E+00
         -4   -1    0    0    0  501 -0.00000000000E+00  0.00000000000E+00  0.58013249665E+03  0.58013388676E+03  0.12700000000E+01 0. -1.
          4   -1    0    0  501    0  0.00000000000E+00 -0.00000000000E+00 -0.66720438350E+01  0.67918384062E+01  0.12700000000E+01 0. -1.
         25    2    1    2    0    0  0.00000000000E+00  0.00000000000E+00  0.57346045281E+03  0.58692572516E+03  0.12499966368E+03 0.  0.
    9000005    1    3    3    0    0  0.59265497479E+02 -0.18573485536E+02  0.31921201119E+03  0.32519944902E+03  0.10000000000E+01 0.  0.
    9000005    1    3    3    0    0 -0.59265497479E+02  0.18573485536E+02  0.25424844162E+03  0.26172627614E+03  0.10000000000E+01 0.  0.
<mgrwt>
<rscale>  0 0.12499966E+03</rscale>
<asrwt>0</asrwt>
<pdfrwt beam="2">  1        4 0.16831593E-02 0.12499966E+03</pdfrwt>
<pdfrwt beam="1">  1       -4 0.14504825E+00 0.12499966E+03</pdfrwt>
<totfact> 0.75173515E+02</totfact>
</mgrwt>
</event>
<event>
 5    1  0.1423270E-002  0.1250019E+03  0.7818608E-02  0.1235066E+00
         -4   -1    0    0    0  501 -0.00000000000E+00  0.00000000000E+00  0.27245716593E+02  0.27275299680E+02  0.12700000000E+01 0. -1.
          4   -1    0    0  501    0  0.00000000000E+00 -0.00000000000E+00 -0.14326528240E+03  0.14327091135E+03  0.12700000000E+01 0. -1.
         25    2    1    2    0    0  0.00000000000E+00  0.00000000000E+00 -0.11601956580E+03  0.17054621104E+03  0.12500188178E+03 0.  0.
    9000005    1    3    3    0    0 -0.23260581223E+02  0.50595420674E+02 -0.96705774235E+02  0.11159730285E+03  0.10000000000E+01 0.  0.
    9000005    1    3    3    0    0  0.23260581223E+02 -0.50595420674E+02 -0.19313791570E+02  0.58948908190E+02  0.10000000000E+01 0.  0.
<mgrwt>
<rscale>  0 0.12500188E+03</rscale>
<asrwt>0</asrwt>
<pdfrwt beam="2">  1        4 0.35820720E-01 0.12500188E+03</pdfrwt>
<pdfrwt beam="1">  1       -4 0.68158311E-02 0.12500188E+03</pdfrwt>
<totfact> 0.17571672E+03</totfact>
</mgrwt>
</event>
<event>
 5    1  0.1423270E-002  0.1250010E+03  0.7818608E-02  0.1235068E+00
          4   -1    0    0  501    0  0.00000000000E+00  0.00000000000E+00  0.39688794734E+03  0.39688997926E+03  0.12700000000E+01 0. -1.
         -4   -1    0    0    0  501 -0.00000000000E+00 -0.00000000000E+00 -0.97993144136E+01  0.98812682879E+01  0.12700000000E+01 0. -1.
         25    2    1    2    0    0  0.00000000000E+00  0.00000000000E+00  0.38708863292E+03  0.40677124755E+03  0.12500095239E+03 0.  0.
    9000005    1    3    3    0    0  0.44037018645E+02 -0.29147339139E+02  0.84810906265E+02  0.99913543684E+02  0.10000000000E+01 0.  0.
    9000005    1    3    3    0    0 -0.44037018645E+02  0.29147339139E+02  0.30227772666E+03  0.30685770387E+03  0.10000000000E+01 0.  0.
<mgrwt>
<rscale>  0 0.12500095E+03</rscale>
<asrwt>0</asrwt>
<pdfrwt beam="1">  1        4 0.99232481E-01 0.12500095E+03</pdfrwt>
<pdfrwt beam="2">  1       -4 0.24603269E-02 0.12500095E+03</pdfrwt>
<totfact> 0.10430813E+03</totfact>
</mgrwt>
</event>
<event>
 5    1  0.1423270E-002  0.1250010E+03  0.7818608E-02  0.1235068E+00
          4   -1    0    0  501    0  0.00000000000E+00  0.00000000000E+00  0.52149446342E+02  0.52164908260E+02  0.12700000000E+01 0.  1.
         -4   -1    0    0    0  501 -0.00000000000E+00 -0.00000000000E+00 -0.74874121815E+02  0.74884891785E+02  0.12700000000E+01 0.  1.
         25    2    1    2    0    0  0.00000000000E+00  0.00000000000E+00 -0.22724675473E+02  0.12704980005E+03  0.12500096326E+03 0.  0.
    9000005    1    3    3    0    0  0.36947505838E+02  0.12981517091E+02  0.38135697493E+02  0.54671467851E+02  0.10000000000E+01 0.  0.
    9000005    1    3    3    0    0 -0.36947505838E+02 -0.12981517091E+02 -0.60860372966E+02  0.72378332194E+02  0.10000000000E+01 0.  0.
<mgrwt>
<rscale>  0 0.12500096E+03</rscale>
<asrwt>0</asrwt>
<pdfrwt beam="1">  1        4 0.13040641E-01 0.12500096E+03</pdfrwt>
<pdfrwt beam="2">  1       -4 0.18721809E-01 0.12500096E+03</pdfrwt>
<totfact> 0.19723852E+03</totfact>
</mgrwt>
</event>
<event>
 5    1  0.1423270E-002  0.1249984E+03  0.7818608E-02  0.1235072E+00
          4   -1    0    0  501    0  0.00000000000E+00  0.00000000000E+00  0.11758868634E+02  0.11827252071E+02  0.12700000000E+01 0. -1.
         -4   -1    0    0    0  501 -0.00000000000E+00 -0.00000000000E+00 -0.33115467698E+03  0.33115711224E+03  0.12700000000E+01 0. -1.
         25    2    1    2    0    0  0.00000000000E+00  0.00000000000E+00 -0.31939580834E+03  0.34298436431E+03  0.12499836707E+03 0.  0.
    9000005    1    3    3    0    0  0.53697275232E+02 -0.19488431970E+02 -0.22921972269E+03  0.23623267686E+03  0.10000000000E+01 0.  0.
    9000005    1    3    3    0    0 -0.53697275232E+02  0.19488431970E+02 -0.90176085654E+02  0.10675168744E+03  0.10000000000E+01 0.  0.
<mgrwt>
<rscale>  0 0.12499837E+03</rscale>
<asrwt>0</asrwt>
<pdfrwt beam="1">  1        4 0.29485706E-02 0.12499837E+03</pdfrwt>
<pdfrwt beam="2">  1       -4 0.82797491E-01 0.12499837E+03</pdfrwt>
<totfact> 0.11846917E+03</totfact>
</mgrwt>
</event>
<event>
 4    1  0.1423270E-002  0.1251026E+03  0.7818608E-02  0.1234909E+00
          4   -1    0    0  501    0  0.00000000000E+00  0.00000000000E+00  0.36088237192E+02  0.36110576894E+02  0.12700000000E+01 0. -1.
         -4   -1    0    0    0  501 -0.00000000000E+00 -0.00000000000E+00 -0.10835979074E+03  0.10836723282E+03  0.12700000000E+01 0. -1.
    9000005    1    1    2    0    0  0.38135140687E+02  0.23471282615E+02 -0.86561295167E+02  0.97463059073E+02  0.10000000000E+01 0.  0.
    9000005    1    1    2    0    0 -0.38135140687E+02 -0.23471282615E+02  0.14289741616E+02  0.47014750646E+02  0.10000000000E+01 0.  0.
<mgrwt>
<rscale>  0 0.12510260E+03</rscale>
<asrwt>0</asrwt>
<pdfrwt beam="1">  1        4 0.90257822E-02 0.12510260E+03</pdfrwt>
<pdfrwt beam="2">  1       -4 0.27093670E-01 0.12510260E+03</pdfrwt>
<totfact> 0.18768649E+03</totfact>
</mgrwt>
</event>
<event>
 5    1  0.1423270E-002  0.1249902E+03  0.7818608E-02  0.1235085E+00
          4   -1    0    0  501    0  0.00000000000E+00  0.00000000000E+00  0.59773507750E+02  0.59786997990E+02  0.12700000000E+01 0.  1.
         -4   -1    0    0    0  501 -0.00000000000E+00 -0.00000000000E+00 -0.65313626055E+02  0.65325972235E+02  0.12700000000E+01 0.  1.
         25    2    1    2    0    0  0.00000000000E+00  0.00000000000E+00 -0.55401183053E+01  0.12511297023E+03  0.12499024925E+03 0.  0.
    9000005    1    3    3    0    0 -0.38704760180E+01  0.49491874633E+01  0.59461438251E+02  0.59800816717E+02  0.10000000000E+01 0.  0.
    9000005    1    3    3    0    0  0.38704760180E+01 -0.49491874633E+01 -0.65001556556E+02  0.65312153508E+02  0.10000000000E+01 0.  0.
<mgrwt>
<rscale>  0 0.12499025E+03</rscale>
<asrwt>0</asrwt>
<pdfrwt beam="1">  1        4 0.14946606E-01 0.12499025E+03</pdfrwt>
<pdfrwt beam="2">  1       -4 0.16331636E-01 0.12499025E+03</pdfrwt>
<totfact> 0.19833455E+03</totfact>
</mgrwt>
</event>
<event>
 5    1  0.1423270E-002  0.1250007E+03  0.7818608E-02  0.1235068E+00
         -4   -1    0    0    0  501 -0.00000000000E+00  0.00000000000E+00  0.13886573470E+03  0.13887154199E+03  0.12700000000E+01 0. -1.
          4   -1    0    0  501    0  0.00000000000E+00 -0.00000000000E+00 -0.28109261578E+02  0.28137936784E+02  0.12700000000E+01 0. -1.
         25    2    1    2    0    0  0.00000000000E+00  0.00000000000E+00  0.11075647312E+03  0.16700947877E+03  0.12500067864E+03 0.  0.
    9000005    1    3    3    0    0  0.43871978802E+02  0.33439076050E+02  0.16143061839E+02  0.57484961308E+02  0.10000000000E+01 0.  0.
    9000005    1    3    3    0    0 -0.43871978802E+02 -0.33439076050E+02  0.94613411284E+02  0.10952451746E+03  0.10000000000E+01 0.  0.
<mgrwt>
<rscale>  0 0.12500068E+03</rscale>
<asrwt>0</asrwt>
<pdfrwt beam="2">  1        4 0.70316258E-02 0.12500068E+03</pdfrwt>
<pdfrwt beam="1">  1       -4 0.34720744E-01 0.12500068E+03</pdfrwt>
<totfact> 0.17732502E+03</totfact>
</mgrwt>
</event>
<event>
 5    1  0.1423270E-002  0.1250041E+03  0.7818608E-02  0.1235063E+00
         -4   -1    0    0    0  501 -0.00000000000E+00  0.00000000000E+00  0.10954514148E+03  0.10955250304E+03  0.12700000000E+01 0. -1.
          4   -1    0    0  501    0  0.00000000000E+00 -0.00000000000E+00 -0.35641301330E+02  0.35663920991E+02  0.12700000000E+01 0. -1.
         25    2    1    2    0    0  0.00000000000E+00  0.00000000000E+00  0.73903840148E+02  0.14521642403E+03  0.12500412881E+03 0.  0.
    9000005    1    3    3    0    0 -0.62375267472E+02 -0.27250404230E+01  0.33790019333E+02  0.70999051008E+02  0.10000000000E+01 0.  0.
    9000005    1    3    3    0    0  0.62375267472E+02  0.27250404230E+01  0.40113820815E+02  0.74217373019E+02  0.10000000000E+01 0.  0.
<mgrwt>
<rscale>  0 0.12500413E+03</rscale>
<asrwt>0</asrwt>
<pdfrwt beam="2">  1        4 0.89140731E-02 0.12500413E+03</pdfrwt>
<pdfrwt beam="1">  1       -4 0.27390033E-01 0.12500413E+03</pdfrwt>
<totfact> 0.18774701E+03</totfact>
</mgrwt>
</event>
<event>
 5    1  0.1423270E-002  0.1250011E+03  0.7818608E-02  0.1235068E+00
         -4   -1    0    0    0  501 -0.00000000000E+00  0.00000000000E+00  0.50897641792E+02  0.50913483872E+02  0.12700000000E+01 0. -1.
          4   -1    0    0  501    0  0.00000000000E+00 -0.00000000000E+00 -0.76715446042E+02  0.76725957547E+02  0.12700000000E+01 0. -1.
         25    2    1    2    0    0  0.00000000000E+00  0.00000000000E+00 -0.25817804250E+02  0.12763944142E+03  0.12500107195E+03 0.  0.
    9000005    1    3    3    0    0 -0.56909090509E+02  0.78914677759E+01 -0.38012291470E+02  0.68897417579E+02  0.10000000000E+01 0.  0.
    9000005    1    3    3    0    0  0.56909090509E+02 -0.78914677759E+01  0.12194487220E+02  0.58742023840E+02  0.10000000000E+01 0.  0.
<mgrwt>
<rscale>  0 0.12500107E+03</rscale>
<asrwt>0</asrwt>
<pdfrwt beam="2">  1        4 0.19182156E-01 0.12500107E+03</pdfrwt>
<pdfrwt beam="1">  1       -4 0.12727705E-01 0.12500107E+03</pdfrwt>
<totfact> 0.19691683E+03</totfact>
</mgrwt>
</event>
<event>
 5    1  0.1423270E-002  0.1249943E+03  0.7818608E-02  0.1235078E+00
         -4   -1    0    0    0  501 -0.00000000000E+00  0.00000000000E+00  0.93998567612E+02  0.94007146606E+02  0.12700000000E+01 0. -1.
          4   -1    0    0  501    0  0.00000000000E+00 -0.00000000000E+00 -0.41532532376E+02  0.41551945147E+02  0.12700000000E+01 0. -1.
         25    2    1    2    0    0  0.00000000000E+00  0.00000000000E+00  0.52466035236E+02  0.13555909175E+03  0.12499432989E+03 0.  0.
    9000005    1    3    3    0    0  0.56827931930E+02  0.22070048361E+02  0.11347198799E+02  0.62018221538E+02  0.10000000000E+01 0.  0.
    9000005    1    3    3    0    0 -0.56827931930E+02 -0.22070048361E+02  0.41118836437E+02  0.73540870216E+02  0.10000000000E+01 0.  0.
<mgrwt>
<rscale>  0 0.12499433E+03</rscale>
<asrwt>0</asrwt>
<pdfrwt beam="2">  1        4 0.10386632E-01 0.12499433E+03</pdfrwt>
<pdfrwt beam="1">  1       -4 0.23503141E-01 0.12499433E+03</pdfrwt>
<totfact> 0.19272442E+03</totfact>
</mgrwt>
</event>
<event>
 5    1  0.1423270E-002  0.1250009E+03  0.7818608E-02  0.1235068E+00
         -4   -1    0    0    0  501 -0.00000000000E+00  0.00000000000E+00  0.14209637495E+03  0.14210205021E+03  0.12700000000E+01 0. -1.
          4   -1    0    0  501    0  0.00000000000E+00 -0.00000000000E+00 -0.27469642878E+02  0.27498985070E+02  0.12700000000E+01 0. -1.
         25    2    1    2    0    0  0.00000000000E+00  0.00000000000E+00  0.11462673207E+03  0.16960103528E+03  0.12500089385E+03 0.  0.
    9000005    1    3    3    0    0 -0.76663717103E+01  0.62003492712E+02  0.55347411232E+02  0.83471805382E+02  0.10000000000E+01 0.  0.
    9000005    1    3    3    0    0  0.76663717103E+01 -0.62003492712E+02  0.59279320841E+02  0.86129229899E+02  0.10000000000E+01 0.  0.
<mgrwt>
<rscale>  0 0.12500089E+03</rscale>
<asrwt>0</asrwt>
<pdfrwt beam="2">  1        4 0.68717881E-02 0.12500089E+03</pdfrwt>
<pdfrwt beam="1">  1       -4 0.35528470E-01 0.12500089E+03</pdfrwt>
<totfact> 0.17614692E+03</totfact>
</mgrwt>
</event>
<event>
 5    1  0.1423270E-002  0.1250002E+03  0.7818608E-02  0.1235069E+00
          4   -1    0    0  501    0  0.00000000000E+00  0.00000000000E+00  0.72260338215E+02  0.72271497694E+02  0.12700000000E+01 0.  1.
         -4   -1    0    0    0  501 -0.00000000000E+00 -0.00000000000E+00 -0.54035381452E+02  0.54050303872E+02  0.12700000000E+01 0.  1.
         25    2    1    2    0    0  0.00000000000E+00  0.00000000000E+00  0.18224956763E+02  0.12632180157E+03  0.12500019401E+03 0.  0.
    9000005    1    3    3    0    0  0.17562237692E+02  0.25242267214E+02 -0.45865451067E+02  0.55229012742E+02  0.10000000000E+01 0.  0.
    9000005    1    3    3    0    0 -0.17562237692E+02 -0.25242267214E+02  0.64090407831E+02  0.71092788824E+02  0.10000000000E+01 0.  0.
<mgrwt>
<rscale>  0 0.12500019E+03</rscale>
<asrwt>0</asrwt>
<pdfrwt beam="1">  1        4 0.18068345E-01 0.12500019E+03</pdfrwt>
<pdfrwt beam="2">  1       -4 0.13512106E-01 0.12500019E+03</pdfrwt>
<totfact> 0.19763451E+03</totfact>
</mgrwt>
</event>
<event>
 5    1  0.1423270E-002  0.1250025E+03  0.7818608E-02  0.1235065E+00
         -4   -1    0    0    0  501 -0.00000000000E+00  0.00000000000E+00  0.40345630095E+03  0.40345829980E+03  0.12700000000E+01 0. -1.
          4   -1    0    0  501    0  0.00000000000E+00 -0.00000000000E+00 -0.96386717316E+01  0.97219798780E+01  0.12700000000E+01 0. -1.
         25    2    1    2    0    0  0.00000000000E+00  0.00000000000E+00  0.39381762922E+03  0.41318027967E+03  0.12500247370E+03 0.  0.
    9000005    1    3    3    0    0 -0.22398196457E+02  0.29664063872E+02  0.36296144301E+03  0.36486113112E+03  0.10000000000E+01 0.  0.
    9000005    1    3    3    0    0  0.22398196457E+02 -0.29664063872E+02  0.30856186207E+02  0.48319148556E+02  0.10000000000E+01 0.  0.
<mgrwt>
<rscale>  0 0.12500247E+03</rscale>
<asrwt>0</asrwt>
<pdfrwt beam="2">  1        4 0.24203313E-02 0.12500247E+03</pdfrwt>
<pdfrwt beam="1">  1       -4 0.10087474E+00 0.12500247E+03</pdfrwt>
<totfact> 0.10301222E+03</totfact>
</mgrwt>
</event>
<event>
 5    1  0.1423270E-002  0.1249677E+03  0.7818608E-02  0.1235120E+00
         -4   -1    0    0    0  501 -0.00000000000E+00  0.00000000000E+00  0.70982698537E+01  0.72109870972E+01  0.12700000000E+01 0. -1.
          4   -1    0    0  501    0  0.00000000000E+00 -0.00000000000E+00 -0.54557999049E+03  0.54558146864E+03  0.12700000000E+01 0. -1.
         25    2    1    2    0    0  0.00000000000E+00  0.00000000000E+00 -0.53848172063E+03  0.55279245573E+03  0.12496773848E+03 0.  0.
    9000005    1    3    3    0    0 -0.61664022074E+02  0.95847984511E+01 -0.28244770097E+03  0.28926116878E+03  0.10000000000E+01 0.  0.
    9000005    1    3    3    0    0  0.61664022074E+02 -0.95847984511E+01 -0.25603401966E+03  0.26353128696E+03  0.10000000000E+01 0.  0.
<mgrwt>
<rscale>  0 0.12496774E+03</rscale>
<asrwt>0</asrwt>
<pdfrwt beam="2">  1        4 0.13640913E+00 0.12496774E+03</pdfrwt>
<pdfrwt beam="1">  1       -4 0.17888437E-02 0.12496774E+03</pdfrwt>
<totfact> 0.79837418E+02</totfact>
</mgrwt>
</event>
<event>
 5    1  0.1423270E-002  0.1250007E+03  0.7818608E-02  0.1235068E+00
          4   -1    0    0  501    0  0.00000000000E+00  0.00000000000E+00  0.69125469508E+02  0.69137134991E+02  0.12700000000E+01 0.  1.
         -4   -1    0    0    0  501 -0.00000000000E+00 -0.00000000000E+00 -0.56486655140E+02  0.56500930160E+02  0.12700000000E+01 0.  1.
         25    2    1    2    0    0  0.00000000000E+00  0.00000000000E+00  0.12638814368E+02  0.12563806515E+03  0.12500073514E+03 0.  0.
    9000005    1    3    3    0    0 -0.87002661672E+01 -0.42552693852E+02  0.51480329458E+02  0.67362086566E+02  0.10000000000E+01 0.  0.
    9000005    1    3    3    0    0  0.87002661672E+01  0.42552693852E+02 -0.38841515090E+02  0.58275978584E+02  0.10000000000E+01 0.  0.
<mgrwt>
<rscale>  0 0.12500074E+03</rscale>
<asrwt>0</asrwt>
<pdfrwt beam="1">  1        4 0.17284610E-01 0.12500074E+03</pdfrwt>
<pdfrwt beam="2">  1       -4 0.14124906E-01 0.12500074E+03</pdfrwt>
<totfact> 0.19800151E+03</totfact>
</mgrwt>
</event>
<event>
 5    1  0.1423270E-002  0.1250012E+03  0.7818608E-02  0.1235067E+00
          4   -1    0    0  501    0  0.00000000000E+00  0.00000000000E+00  0.58230111494E+02  0.58243959211E+02  0.12700000000E+01 0. -1.
         -4   -1    0    0    0  501 -0.00000000000E+00 -0.00000000000E+00 -0.67056412325E+02  0.67068437688E+02  0.12700000000E+01 0. -1.
         25    2    1    2    0    0  0.00000000000E+00  0.00000000000E+00 -0.88263008306E+01  0.12531239690E+03  0.12500117292E+03 0.  0.
    9000005    1    3    3    0    0  0.10528757872E+02  0.24261443292E+02 -0.61174356013E+02  0.66654138705E+02  0.10000000000E+01 0.  0.
    9000005    1    3    3    0    0 -0.10528757872E+02 -0.24261443292E+02  0.52348055182E+02  0.58658258194E+02  0.10000000000E+01 0.  0.
<mgrwt>
<rscale>  0 0.12500117E+03</rscale>
<asrwt>0</asrwt>
<pdfrwt beam="1">  1        4 0.14560762E-01 0.12500117E+03</pdfrwt>
<pdfrwt beam="2">  1       -4 0.16767337E-01 0.12500117E+03</pdfrwt>
<totfact> 0.19817579E+03</totfact>
</mgrwt>
</event>
<event>
 5    1  0.1423270E-002  0.1249990E+03  0.7818608E-02  0.1235071E+00
         -4   -1    0    0    0  501 -0.00000000000E+00  0.00000000000E+00  0.41853708827E+02  0.41872972698E+02  0.12700000000E+01 0. -1.
          4   -1    0    0  501    0  0.00000000000E+00 -0.00000000000E+00 -0.93284490394E+02  0.93293135053E+02  0.12700000000E+01 0. -1.
         25    2    1    2    0    0  0.00000000000E+00  0.00000000000E+00 -0.51430781567E+02  0.13516610775E+03  0.12499900556E+03 0.  0.
    9000005    1    3    3    0    0 -0.60943433277E+02  0.11051532043E+02 -0.16736419482E+02  0.64166550142E+02  0.10000000000E+01 0.  0.
    9000005    1    3    3    0    0  0.60943433277E+02 -0.11051532043E+02 -0.34694362086E+02  0.70999557609E+02  0.10000000000E+01 0.  0.
<mgrwt>
<rscale>  0 0.12499901E+03</rscale>
<asrwt>0</asrwt>
<pdfrwt beam="2">  1        4 0.23324611E-01 0.12499901E+03</pdfrwt>
<pdfrwt beam="1">  1       -4 0.10466916E-01 0.12499901E+03</pdfrwt>
<totfact> 0.19290888E+03</totfact>
</mgrwt>
</event>
<event>
 5    1  0.1423270E-002  0.1250029E+03  0.7818608E-02  0.1235065E+00
          4   -1    0    0  501    0  0.00000000000E+00  0.00000000000E+00  0.13941279772E+03  0.13941858222E+03  0.12700000000E+01 0.  1.
         -4   -1    0    0    0  501 -0.00000000000E+00 -0.00000000000E+00 -0.27999841864E+02  0.28028629015E+02  0.12700000000E+01 0.  1.
         25    2    1    2    0    0  0.00000000000E+00  0.00000000000E+00  0.11141295585E+03  0.16744721123E+03  0.12500288724E+03 0.  0.
    9000005    1    3    3    0    0  0.46831386961E+02  0.89427149110E+01  0.15868081655E+01  0.47714451844E+02  0.10000000000E+01 0.  0.
    9000005    1    3    3    0    0 -0.46831386961E+02 -0.89427149110E+01  0.10982614769E+03  0.11973275939E+03  0.10000000000E+01 0.  0.
<mgrwt>
<rscale>  0 0.12500289E+03</rscale>
<asrwt>0</asrwt>
<pdfrwt beam="1">  1        4 0.34857520E-01 0.12500289E+03</pdfrwt>
<pdfrwt beam="2">  1       -4 0.70042820E-02 0.12500289E+03</pdfrwt>
<totfact> 0.17711620E+03</totfact>
</mgrwt>
</event>
<event>
 5    1  0.1423270E-002  0.1249988E+03  0.7818608E-02  0.1235071E+00
          4   -1    0    0  501    0  0.00000000000E+00  0.00000000000E+00  0.53336564191E+02  0.53351682071E+02  0.12700000000E+01 0.  1.
         -4   -1    0    0    0  501 -0.00000000000E+00 -0.00000000000E+00 -0.73205369050E+02  0.73216384490E+02  0.12700000000E+01 0.  1.
         25    2    1    2    0    0  0.00000000000E+00  0.00000000000E+00 -0.19868804859E+02  0.12656806656E+03  0.12499882426E+03 0.  0.
    9000005    1    3    3    0    0  0.19642739267E+02  0.59005818033E+02 -0.16147620009E+02  0.64259391528E+02  0.10000000000E+01 0.  0.
    9000005    1    3    3    0    0 -0.19642739267E+02 -0.59005818033E+02 -0.37211848497E+01  0.62308675032E+02  0.10000000000E+01 0.  0.
<mgrwt>
<rscale>  0 0.12499882E+03</rscale>
<asrwt>0</asrwt>
<pdfrwt beam="1">  1        4 0.13337408E-01 0.12499882E+03</pdfrwt>
<pdfrwt beam="2">  1       -4 0.18304609E-01 0.12499882E+03</pdfrwt>
<totfact> 0.19750797E+03</totfact>
</mgrwt>
</event>
<event>
 5    1  0.1423270E-002  0.1250050E+03  0.7818608E-02  0.1235062E+00
          4   -1    0    0  501    0  0.00000000000E+00  0.00000000000E+00  0.12291710453E+02  0.12357145539E+02  0.12700000000E+01 0. -1.
         -4   -1    0    0    0  501 -0.00000000000E+00 -0.00000000000E+00 -0.31691022979E+03  0.31691277451E+03  0.12700000000E+01 0. -1.
         25    2    1    2    0    0  0.00000000000E+00  0.00000000000E+00 -0.30461851934E+03  0.32926992005E+03  0.12500495160E+03 0.  0.
    9000005    1    3    3    0    0 -0.98702748909E+01  0.61707319870E+02 -0.15385378848E+03  0.16606385484E+03  0.10000000000E+01 0.  0.
    9000005    1    3    3    0    0  0.98702748909E+01 -0.61707319870E+02 -0.15076473085E+03  0.16320606521E+03  0.10000000000E+01 0.  0.
<mgrwt>
<rscale>  0 0.12500495E+03</rscale>
<asrwt>0</asrwt>
<pdfrwt beam="1">  1        4 0.30814261E-02 0.12500495E+03</pdfrwt>
<pdfrwt beam="2">  1       -4 0.79236028E-01 0.12500495E+03</pdfrwt>
<totfact> 0.12187250E+03</totfact>
</mgrwt>
</event>
<event>
 5    1  0.1423270E-002  0.1249991E+03  0.7818608E-02  0.1235071E+00
         -4   -1    0    0    0  501 -0.00000000000E+00  0.00000000000E+00  0.57072866561E+01  0.58468813033E+01  0.12700000000E+01 0.  1.
          4   -1    0    0  501    0  0.00000000000E+00 -0.00000000000E+00 -0.67601328318E+03  0.67601447613E+03  0.12700000000E+01 0.  1.
         25    2    1    2    0    0  0.00000000000E+00  0.00000000000E+00 -0.67030599653E+03  0.68186135743E+03  0.12499912713E+03 0.  0.
    9000005    1    3    3    0    0  0.61366341222E+02 -0.10579720130E+02 -0.30657982587E+03  0.31284172986E+03  0.10000000000E+01 0.  0.
    9000005    1    3    3    0    0 -0.61366341222E+02  0.10579720130E+02 -0.36372617066E+03  0.36901962757E+03  0.10000000000E+01 0.  0.
<mgrwt>
<rscale>  0 0.12499913E+03</rscale>
<asrwt>0</asrwt>
<pdfrwt beam="2">  1        4 0.16902065E+00 0.12499913E+03</pdfrwt>
<pdfrwt beam="1">  1       -4 0.14444224E-02 0.12499913E+03</pdfrwt>
<totfact> 0.63981367E+02</totfact>
</mgrwt>
</event>
<event>
 5    1  0.1423270E-002  0.1249809E+03  0.7818608E-02  0.1235099E+00
          4   -1    0    0  501    0  0.00000000000E+00  0.00000000000E+00  0.35121745383E+01  0.37347382756E+01  0.12700000000E+01 0.  1.
         -4   -1    0    0    0  501 -0.00000000000E+00 -0.00000000000E+00 -0.10774924062E+04  0.10774931546E+04  0.12700000000E+01 0.  1.
         25    2    1    2    0    0  0.00000000000E+00  0.00000000000E+00 -0.10739802317E+04  0.10812278929E+04  0.12498087230E+03 0.  0.
    9000005    1    3    3    0    0 -0.13750686336E+02  0.48462015705E+02 -0.85677918314E+03  0.85825941125E+03  0.10000000000E+01 0.  0.
    9000005    1    3    3    0    0  0.13750686336E+02 -0.48462015705E+02 -0.21720104851E+03  0.22296848166E+03  0.10000000000E+01 0.  0.
<mgrwt>
<rscale>  0 0.12498087E+03</rscale>
<asrwt>0</asrwt>
<pdfrwt beam="1">  1        4 0.90596135E-03 0.12498087E+03</pdfrwt>
<pdfrwt beam="2">  1       -4 0.26939992E+00 0.12498087E+03</pdfrwt>
<totfact> 0.31925857E+02</totfact>
</mgrwt>
</event>
<event>
 5    1  0.1423270E-002  0.1249979E+03  0.7818608E-02  0.1235073E+00
         -4   -1    0    0    0  501 -0.00000000000E+00  0.00000000000E+00  0.18920318377E+03  0.18920744607E+03  0.12700000000E+01 0.  1.
          4   -1    0    0  501    0  0.00000000000E+00 -0.00000000000E+00 -0.20621060655E+02  0.20660131717E+02  0.12700000000E+01 0.  1.
         25    2    1    2    0    0  0.00000000000E+00  0.00000000000E+00  0.16858212312E+03  0.20986757779E+03  0.12499787187E+03 0.  0.
    9000005    1    3    3    0    0 -0.53307630245E+02 -0.15934288334E+02  0.36521156498E+02  0.66561248929E+02  0.10000000000E+01 0.  0.
    9000005    1    3    3    0    0  0.53307630245E+02  0.15934288334E+02  0.13206096662E+03  0.14330632886E+03  0.10000000000E+01 0.  0.
<mgrwt>
<rscale>  0 0.12499787E+03</rscale>
<asrwt>0</asrwt>
<pdfrwt beam="2">  1        4 0.51606819E-02 0.12499787E+03</pdfrwt>
<pdfrwt beam="1">  1       -4 0.47306212E-01 0.12499787E+03</pdfrwt>
<totfact> 0.15935191E+03</totfact>
</mgrwt>
</event>
<event>
 5    1  0.1423270E-002  0.1249944E+03  0.7818608E-02  0.1235078E+00
          4   -1    0    0  501    0  0.00000000000E+00  0.00000000000E+00  0.38216860277E+02  0.38237956397E+02  0.12700000000E+01 0.  1.
         -4   -1    0    0    0  501 -0.00000000000E+00 -0.00000000000E+00 -0.10215032779E+03  0.10215822222E+03  0.12700000000E+01 0.  1.
         25    2    1    2    0    0  0.00000000000E+00  0.00000000000E+00 -0.63933467513E+02  0.14039617862E+03  0.12499439468E+03 0.  0.
    9000005    1    3    3    0    0  0.17816440672E+02 -0.39215834863E+01  0.35164753352E+02  0.39627821711E+02  0.10000000000E+01 0.  0.
    9000005    1    3    3    0    0 -0.17816440672E+02  0.39215834863E+01 -0.99098220865E+02  0.10076835691E+03  0.10000000000E+01 0.  0.
<mgrwt>
<rscale>  0 0.12499439E+03</rscale>
<asrwt>0</asrwt>
<pdfrwt beam="1">  1        4 0.95578391E-02 0.12499439E+03</pdfrwt>
<pdfrwt beam="2">  1       -4 0.25541205E-01 0.12499439E+03</pdfrwt>
<totfact> 0.19022579E+03</totfact>
</mgrwt>
</event>
<event>
 5    1  0.1423270E-002  0.1249877E+03  0.7818608E-02  0.1235088E+00
         -4   -1    0    0    0  501 -0.00000000000E+00  0.00000000000E+00  0.12226027812E+03  0.12226687411E+03  0.12700000000E+01 0.  1.
          4   -1    0    0  501    0  0.00000000000E+00 -0.00000000000E+00 -0.31923914558E+02  0.31949166198E+02  0.12700000000E+01 0.  1.
         25    2    1    2    0    0  0.00000000000E+00  0.00000000000E+00  0.90336363557E+02  0.15421604031E+03  0.12498771343E+03 0.  0.
    9000005    1    3    3    0    0  0.24946466432E+02  0.20214805225E+01 -0.25475171677E+02  0.35726697901E+02  0.10000000000E+01 0.  0.
    9000005    1    3    3    0    0 -0.24946466432E+02 -0.20214805225E+01  0.11581153523E+03  0.11848934241E+03  0.10000000000E+01 0.  0.
<mgrwt>
<rscale>  0 0.12498771E+03</rscale>
<asrwt>0</asrwt>
<pdfrwt beam="2">  1        4 0.79849597E-02 0.12498771E+03</pdfrwt>
<pdfrwt beam="1">  1       -4 0.30569050E-01 0.12498771E+03</pdfrwt>
<totfact> 0.18338642E+03</totfact>
</mgrwt>
</event>
<event>
 5    1  0.1423270E-002  0.1250029E+03  0.7818608E-02  0.1235065E+00
          4   -1    0    0  501    0  0.00000000000E+00  0.00000000000E+00  0.48382516698E+02  0.48399182039E+02  0.12700000000E+01 0. -1.
         -4   -1    0    0    0  501 -0.00000000000E+00 -0.00000000000E+00 -0.80704929295E+02  0.80714921250E+02  0.12700000000E+01 0. -1.
         25    2    1    2    0    0  0.00000000000E+00  0.00000000000E+00 -0.32322412597E+02  0.12911410329E+03  0.12500285322E+03 0.  0.
    9000005    1    3    3    0    0  0.14072339307E+02 -0.59033507607E+02 -0.75617044719E+00  0.60700556404E+02  0.10000000000E+01 0.  0.
    9000005    1    3    3    0    0 -0.14072339307E+02  0.59033507607E+02 -0.31566242150E+02  0.68413546885E+02  0.10000000000E+01 0.  0.
<mgrwt>
<rscale>  0 0.12500285E+03</rscale>
<asrwt>0</asrwt>
<pdfrwt beam="1">  1        4 0.12098961E-01 0.12500285E+03</pdfrwt>
<pdfrwt beam="2">  1       -4 0.20179564E-01 0.12500285E+03</pdfrwt>
<totfact> 0.19610822E+03</totfact>
</mgrwt>
</event>
<event>
 5    1  0.1423270E-002  0.1250000E+03  0.7818608E-02  0.1235069E+00
          4   -1    0    0  501    0  0.00000000000E+00  0.00000000000E+00  0.31328831096E+02  0.31354561994E+02  0.12700000000E+01 0.  1.
         -4   -1    0    0    0  501 -0.00000000000E+00 -0.00000000000E+00 -0.12460530866E+03  0.12461178053E+03  0.12700000000E+01 0.  1.
         25    2    1    2    0    0  0.00000000000E+00  0.00000000000E+00 -0.93276477562E+02  0.15596634252E+03  0.12499999493E+03 0.  0.
    9000005    1    3    3    0    0  0.35433508235E+02  0.34973475786E+02  0.48854110734E+00  0.49798756880E+02  0.10000000000E+01 0.  0.
    9000005    1    3    3    0    0 -0.35433508235E+02 -0.34973475786E+02 -0.93765018670E+02  0.10616758564E+03  0.10000000000E+01 0.  0.
<mgrwt>
<rscale>  0 0.12499999E+03</rscale>
<asrwt>0</asrwt>
<pdfrwt beam="1">  1        4 0.78362334E-02 0.12499999E+03</pdfrwt>
<pdfrwt beam="2">  1       -4 0.31155351E-01 0.12499999E+03</pdfrwt>
<totfact> 0.18249255E+03</totfact>
</mgrwt>
</event>
<event>
 5    1  0.1423270E-002  0.1249949E+03  0.7818608E-02  0.1235077E+00
         -4   -1    0    0    0  501 -0.00000000000E+00  0.00000000000E+00  0.67065175409E+02  0.67077199201E+02  0.12700000000E+01 0. -1.
          4   -1    0    0  501    0  0.00000000000E+00 -0.00000000000E+00 -0.58216648395E+02  0.58230499314E+02  0.12700000000E+01 0. -1.
         25    2    1    2    0    0  0.00000000000E+00  0.00000000000E+00  0.88485270134E+01  0.12530769851E+03  0.12499489140E+03 0.  0.
    9000005    1    3    3    0    0  0.46440522299E+02 -0.17141972101E+02 -0.33807264838E+02  0.59954153107E+02  0.10000000000E+01 0.  0.
    9000005    1    3    3    0    0 -0.46440522299E+02  0.17141972101E+02  0.42655791852E+02  0.65353545408E+02  0.10000000000E+01 0.  0.
<mgrwt>
<rscale>  0 0.12499489E+03</rscale>
<asrwt>0</asrwt>
<pdfrwt beam="2">  1        4 0.14557396E-01 0.12499489E+03</pdfrwt>
<pdfrwt beam="1">  1       -4 0.16769528E-01 0.12499489E+03</pdfrwt>
<totfact> 0.19820746E+03</totfact>
</mgrwt>
</event>
<event>
 5    1  0.1423270E-002  0.1249990E+03  0.7818608E-02  0.1235071E+00
         -4   -1    0    0    0  501 -0.00000000000E+00  0.00000000000E+00  0.25251659455E+02  0.25283575800E+02  0.12700000000E+01 0.  1.
          4   -1    0    0  501    0  0.00000000000E+00 -0.00000000000E+00 -0.15455804599E+03  0.15456326368E+03  0.12700000000E+01 0.  1.
         25    2    1    2    0    0  0.00000000000E+00  0.00000000000E+00 -0.12930638653E+03  0.17984683948E+03  0.12499897629E+03 0.  0.
    9000005    1    3    3    0    0 -0.14017878204E+02  0.57712553236E+02 -0.36681973372E+02  0.69812655592E+02  0.10000000000E+01 0.  0.
    9000005    1    3    3    0    0  0.14017878204E+02 -0.57712553236E+02 -0.92624413160E+02  0.11003418389E+03  0.10000000000E+01 0.  0.
<mgrwt>
<rscale>  0 0.12499898E+03</rscale>
<asrwt>0</asrwt>
<pdfrwt beam="2">  1        4 0.38644151E-01 0.12499898E+03</pdfrwt>
<pdfrwt beam="1">  1       -4 0.63175571E-02 0.12499898E+03</pdfrwt>
<totfact> 0.17162253E+03</totfact>
</mgrwt>
</event>
<event>
 5    1  0.1423270E-002  0.1250000E+03  0.7818608E-02  0.1235069E+00
         -4   -1    0    0    0  501 -0.00000000000E+00  0.00000000000E+00  0.44219634601E+03  0.44219816974E+03  0.12700000000E+01 0. -1.
          4   -1    0    0  501    0  0.00000000000E+00 -0.00000000000E+00 -0.87862433540E+01  0.88775544085E+01  0.12700000000E+01 0. -1.
         25    2    1    2    0    0  0.00000000000E+00  0.00000000000E+00  0.43341010265E+03  0.45107572415E+03  0.12499996734E+03 0.  0.
    9000005    1    3    3    0    0 -0.55315600136E+02 -0.27865733845E+02  0.18674422199E+03  0.19675039819E+03  0.10000000000E+01 0.  0.
    9000005    1    3    3    0    0  0.55315600136E+02  0.27865733845E+02  0.24666588067E+03  0.25432532596E+03  0.10000000000E+01 0.  0.
<mgrwt>
<rscale>  0 0.12499997E+03</rscale>
<asrwt>0</asrwt>
<pdfrwt beam="2">  1        4 0.22082027E-02 0.12499997E+03</pdfrwt>
<pdfrwt beam="1">  1       -4 0.11056073E+00 0.12499997E+03</pdfrwt>
<totfact> 0.95824210E+02</totfact>
</mgrwt>
</event>
<event>
 5    1  0.1423270E-002  0.1249997E+03  0.7818608E-02  0.1235070E+00
          4   -1    0    0  501    0  0.00000000000E+00  0.00000000000E+00  0.17148688142E+02  0.17195650758E+02  0.12700000000E+01 0. -1.
         -4   -1    0    0    0  501 -0.00000000000E+00 -0.00000000000E+00 -0.22742581969E+03  0.22742936565E+03  0.12700000000E+01 0. -1.
         25    2    1    2    0    0  0.00000000000E+00  0.00000000000E+00 -0.21027713155E+03  0.24462501641E+03  0.12499970641E+03 0.  0.
    9000005    1    3    3    0    0 -0.47807653726E+02 -0.26778601879E+02 -0.16393235489E+03  0.17285104065E+03  0.10000000000E+01 0.  0.
    9000005    1    3    3    0    0  0.47807653726E+02  0.26778601879E+02 -0.46344776659E+02  0.71773975764E+02  0.10000000000E+01 0.  0.
<mgrwt>
<rscale>  0 0.12499971E+03</rscale>
<asrwt>0</asrwt>
<pdfrwt beam="1">  1        4 0.42934863E-02 0.12499971E+03</pdfrwt>
<pdfrwt beam="2">  1       -4 0.56862759E-01 0.12499971E+03</pdfrwt>
<totfact> 0.14678534E+03</totfact>
</mgrwt>
</event>
<event>
 5    1  0.1423270E-002  0.1249989E+03  0.7818608E-02  0.1235071E+00
          4   -1    0    0  501    0  0.00000000000E+00  0.00000000000E+00  0.15139206071E+03  0.15139738751E+03  0.12700000000E+01 0.  1.
         -4   -1    0    0    0  501 -0.00000000000E+00 -0.00000000000E+00 -0.25780329554E+02  0.25811592201E+02  0.12700000000E+01 0.  1.
         25    2    1    2    0    0  0.00000000000E+00  0.00000000000E+00  0.12561173115E+03  0.17720897971E+03  0.12499886194E+03 0.  0.
    9000005    1    3    3    0    0  0.55625569427E+02 -0.18836913883E+02  0.93084159346E+02  0.11006677073E+03  0.10000000000E+01 0.  0.
    9000005    1    3    3    0    0 -0.55625569427E+02  0.18836913883E+02  0.32527571808E+02  0.67142208979E+02  0.10000000000E+01 0.  0.
<mgrwt>
<rscale>  0 0.12499886E+03</rscale>
<asrwt>0</asrwt>
<pdfrwt beam="1">  1        4 0.37852588E-01 0.12499886E+03</pdfrwt>
<pdfrwt beam="2">  1       -4 0.64496562E-02 0.12499886E+03</pdfrwt>
<totfact> 0.17277165E+03</totfact>
</mgrwt>
</event>
<event>
 5    1  0.1423270E-002  0.1250003E+03  0.7818608E-02  0.1235069E+00
         -4   -1    0    0    0  501 -0.00000000000E+00  0.00000000000E+00  0.33094900702E+03  0.33095144379E+03  0.12700000000E+01 0. -1.
          4   -1    0    0  501    0  0.00000000000E+00 -0.00000000000E+00 -0.11766577347E+02  0.11834916243E+02  0.12700000000E+01 0. -1.
         25    2    1    2    0    0  0.00000000000E+00  0.00000000000E+00  0.31918242967E+03  0.34278636003E+03  0.12500026085E+03 0.  0.
    9000005    1    3    3    0    0  0.32594053266E+02 -0.35222064221E+02  0.49820989739E+02  0.69181624257E+02  0.10000000000E+01 0.  0.
    9000005    1    3    3    0    0 -0.32594053266E+02  0.35222064221E+02  0.26936143993E+03  0.27360473577E+03  0.10000000000E+01 0.  0.
<mgrwt>
<rscale>  0 0.12500026E+03</rscale>
<asrwt>0</asrwt>
<pdfrwt beam="2">  1        4 0.29504913E-02 0.12500026E+03</pdfrwt>
<pdfrwt beam="1">  1       -4 0.82746099E-01 0.12500026E+03</pdfrwt>
<totfact> 0.11851237E+03</totfact>
</mgrwt>
</event>
<event>
 5    1  0.1423270E-002  0.1250129E+03  0.7818608E-02  0.1235049E+00
          4   -1    0    0  501    0  0.00000000000E+00  0.00000000000E+00  0.76545616919E+02  0.76556151742E+02  0.12700000000E+01 0.  1.
         -4   -1    0    0    0  501 -0.00000000000E+00 -0.00000000000E+00 -0.51020256327E+02  0.51036060346E+02  0.12700000000E+01 0.  1.
         25    2    1    2    0    0  0.00000000000E+00  0.00000000000E+00  0.25525360593E+02  0.12759221209E+03  0.12501291354E+03 0.  0.
    9000005    1    3    3    0    0  0.14006460326E+02 -0.50519656896E+02  0.47488790669E+02  0.70743211002E+02  0.10000000000E+01 0.  0.
    9000005    1    3    3    0    0 -0.14006460326E+02  0.50519656896E+02 -0.21963430076E+02  0.56849001086E+02  0.10000000000E+01 0.  0.
<mgrwt>
<rscale>  0 0.12501291E+03</rscale>
<asrwt>0</asrwt>
<pdfrwt beam="1">  1        4 0.19139696E-01 0.12501291E+03</pdfrwt>
<pdfrwt beam="2">  1       -4 0.12758357E-01 0.12501291E+03</pdfrwt>
<totfact> 0.19688817E+03</totfact>
</mgrwt>
</event>
<event>
 5    1  0.1423270E-002  0.1250002E+03  0.7818608E-02  0.1235069E+00
         -4   -1    0    0    0  501 -0.00000000000E+00  0.00000000000E+00  0.16113352261E+02  0.16163323331E+02  0.12700000000E+01 0.  1.
          4   -1    0    0  501    0  0.00000000000E+00 -0.00000000000E+00 -0.24199704368E+03  0.24200037613E+03  0.12700000000E+01 0.  1.
         25    2    1    2    0    0  0.00000000000E+00  0.00000000000E+00 -0.22588369141E+03  0.25816369946E+03  0.12500021469E+03 0.  0.
    9000005    1    3    3    0    0  0.30932994391E+02 -0.48534839026E+02 -0.16322611792E+03  0.17307872865E+03  0.10000000000E+01 0.  0.
    9000005    1    3    3    0    0 -0.30932994391E+02  0.48534839026E+02 -0.62657573495E+02  0.85084970809E+02  0.10000000000E+01 0.  0.
<mgrwt>
<rscale>  0 0.12500021E+03</rscale>
<asrwt>0</asrwt>
<pdfrwt beam="2">  1        4 0.60505912E-01 0.12500021E+03</pdfrwt>
<pdfrwt beam="1">  1       -4 0.40350018E-02 0.12500021E+03</pdfrwt>
<totfact> 0.14230238E+03</totfact>
</mgrwt>
</event>
<event>
 5    1  0.1423270E-002  0.1250011E+03  0.7818608E-02  0.1235068E+00
         -4   -1    0    0    0  501 -0.00000000000E+00  0.00000000000E+00  0.10233830012E+04  0.10233837892E+04  0.12700000000E+01 0. -1.
          4   -1    0    0  501    0  0.00000000000E+00 -0.00000000000E+00 -0.37106136264E+01  0.39219323661E+01  0.12700000000E+01 0. -1.
         25    2    1    2    0    0  0.00000000000E+00  0.00000000000E+00  0.10196723876E+04  0.10273057216E+04  0.12500107052E+03 0.  0.
    9000005    1    3    3    0    0 -0.17775898349E+02  0.59897229966E+02  0.49925972310E+03  0.50315497794E+03  0.10000000000E+01 0.  0.
    9000005    1    3    3    0    0  0.17775898349E+02 -0.59897229966E+02  0.52041266447E+03  0.52415074364E+03  0.10000000000E+01 0.  0.
<mgrwt>
<rscale>  0 0.12500107E+03</rscale>
<asrwt>0</asrwt>
<pdfrwt beam="2">  1        4 0.95416704E-03 0.12500107E+03</pdfrwt>
<pdfrwt beam="1">  1       -4 0.25587219E+00 0.12500107E+03</pdfrwt>
<totfact> 0.35302036E+02</totfact>
</mgrwt>
</event>
<event>
 5    1  0.1423270E-002  0.1249830E+03  0.7818608E-02  0.1235096E+00
         -4   -1    0    0    0  501 -0.00000000000E+00  0.00000000000E+00  0.23550905286E+02  0.23585123273E+02  0.12700000000E+01 0. -1.
          4   -1    0    0  501    0  0.00000000000E+00 -0.00000000000E+00 -0.16566205818E+03  0.16566692615E+03  0.12700000000E+01 0. -1.
         25    2    1    2    0    0  0.00000000000E+00  0.00000000000E+00 -0.14211115289E+03  0.18925204942E+03  0.12498303258E+03 0.  0.
    9000005    1    3    3    0    0  0.48315261677E+02 -0.38498747863E+02 -0.85233700690E+02  0.10527251223E+03  0.10000000000E+01 0.  0.
    9000005    1    3    3    0    0 -0.48315261677E+02  0.38498747863E+02 -0.56877452202E+02  0.83979537192E+02  0.10000000000E+01 0.  0.
<mgrwt>
<rscale>  0 0.12498303E+03</rscale>
<asrwt>0</asrwt>
<pdfrwt beam="2">  1        4 0.41420397E-01 0.12498303E+03</pdfrwt>
<pdfrwt beam="1">  1       -4 0.58926125E-02 0.12498303E+03</pdfrwt>
<totfact> 0.16768235E+03</totfact>
</mgrwt>
</event>
<event>
 5    1  0.1423270E-002  0.1249945E+03  0.7818608E-02  0.1235078E+00
          4   -1    0    0  501    0  0.00000000000E+00  0.00000000000E+00  0.36414126207E+02  0.36436266102E+02  0.12700000000E+01 0. -1.
         -4   -1    0    0    0  501 -0.00000000000E+00 -0.00000000000E+00 -0.10720498457E+03  0.10721250681E+03  0.12700000000E+01 0. -1.
         25    2    1    2    0    0  0.00000000000E+00  0.00000000000E+00 -0.70790858363E+02  0.14364877291E+03  0.12499449721E+03 0.  0.
    9000005    1    3    3    0    0 -0.59610503451E+01  0.60800180916E+02 -0.20292203178E+02  0.64381438555E+02  0.10000000000E+01 0.  0.
    9000005    1    3    3    0    0  0.59610503451E+01 -0.60800180916E+02 -0.50498655185E+02  0.79267334358E+02  0.10000000000E+01 0.  0.
<mgrwt>
<rscale>  0 0.12499450E+03</rscale>
<asrwt>0</asrwt>
<pdfrwt beam="1">  1        4 0.91072396E-02 0.12499450E+03</pdfrwt>
<pdfrwt beam="2">  1       -4 0.26804953E-01 0.12499450E+03</pdfrwt>
<totfact> 0.18857625E+03</totfact>
</mgrwt>
</event>
<event>
 5    1  0.1423270E-002  0.1249991E+03  0.7818608E-02  0.1235071E+00
         -4   -1    0    0    0  501 -0.00000000000E+00  0.00000000000E+00  0.12853246225E+03  0.12853873639E+03  0.12700000000E+01 0.  1.
          4   -1    0    0  501    0  0.00000000000E+00 -0.00000000000E+00 -0.30370406939E+02  0.30396949150E+02  0.12700000000E+01 0.  1.
         25    2    1    2    0    0  0.00000000000E+00  0.00000000000E+00  0.98162055313E+02  0.15893568554E+03  0.12499905214E+03 0.  0.
    9000005    1    3    3    0    0  0.95408390134E+01 -0.31726575747E+02 -0.18291269108E+02  0.37857281245E+02  0.10000000000E+01 0.  0.
    9000005    1    3    3    0    0 -0.95408390134E+01  0.31726575747E+02  0.11645332442E+03  0.12107840429E+03  0.10000000000E+01 0.  0.
<mgrwt>
<rscale>  0 0.12499905E+03</rscale>
<asrwt>0</asrwt>
<pdfrwt beam="2">  1        4 0.75967039E-02 0.12499905E+03</pdfrwt>
<pdfrwt beam="1">  1       -4 0.32137217E-01 0.12499905E+03</pdfrwt>
<totfact> 0.18108357E+03</totfact>
</mgrwt>
</event>
<event>
 5    1  0.1423270E-002  0.1250103E+03  0.7818608E-02  0.1235053E+00
         -4   -1    0    0    0  501 -0.00000000000E+00  0.00000000000E+00  0.31546335573E+02  0.31571889207E+02  0.12700000000E+01 0.  1.
          4   -1    0    0  501    0  0.00000000000E+00 -0.00000000000E+00 -0.12376720097E+03  0.12377371666E+03  0.12700000000E+01 0.  1.
         25    2    1    2    0    0  0.00000000000E+00  0.00000000000E+00 -0.92220865397E+02  0.15534560587E+03  0.12501027657E+03 0.  0.
    9000005    1    3    3    0    0 -0.12969551925E+02 -0.24250131350E+02 -0.11585043136E+03  0.11907392911E+03  0.10000000000E+01 0.  0.
    9000005    1    3    3    0    0  0.12969551925E+02  0.24250131350E+02  0.23629565959E+02  0.36271676761E+02  0.10000000000E+01 0.  0.
<mgrwt>
<rscale>  0 0.12501028E+03</rscale>
<asrwt>0</asrwt>
<pdfrwt beam="2">  1        4 0.30945808E-01 0.12501028E+03</pdfrwt>
<pdfrwt beam="1">  1       -4 0.78905929E-02 0.12501028E+03</pdfrwt>
<totfact> 0.18274654E+03</totfact>
</mgrwt>
</event>
<event>
 5    1  0.1423270E-002  0.1250006E+03  0.7818608E-02  0.1235068E+00
          4   -1    0    0  501    0  0.00000000000E+00  0.00000000000E+00  0.54985362767E+03  0.54985509433E+03  0.12700000000E+01 0. -1.
         -4   -1    0    0    0  501 -0.00000000000E+00 -0.00000000000E+00 -0.70459898774E+01  0.71595302467E+01  0.12700000000E+01 0. -1.
         25    2    1    2    0    0  0.00000000000E+00  0.00000000000E+00  0.54280763779E+03  0.55701462458E+03  0.12500064139E+03 0.  0.
    9000005    1    3    3    0    0  0.33561733171E+01 -0.19973979031E+02  0.79636059432E+01  0.21786297466E+02  0.10000000000E+01 0.  0.
    9000005    1    3    3    0    0 -0.33561733171E+01  0.19973979031E+02  0.53484403185E+03  0.53522832711E+03  0.10000000000E+01 0.  0.
<mgrwt>
<rscale>  0 0.12500064E+03</rscale>
<asrwt>0</asrwt>
<pdfrwt beam="1">  1        4 0.13747779E+00 0.12500064E+03</pdfrwt>
<pdfrwt beam="2">  1       -4 0.17758733E-02 0.12500064E+03</pdfrwt>
<totfact> 0.79190285E+02</totfact>
</mgrwt>
</event>
<event>
 5    1  0.1423270E-002  0.1250025E+03  0.7818608E-02  0.1235065E+00
         -4   -1    0    0    0  501 -0.00000000000E+00  0.00000000000E+00  0.18742560205E+02  0.18785538668E+02  0.12700000000E+01 0.  1.
          4   -1    0    0  501    0  0.00000000000E+00 -0.00000000000E+00 -0.20814064790E+03  0.20814452241E+03  0.12700000000E+01 0.  1.
         25    2    1    2    0    0  0.00000000000E+00  0.00000000000E+00 -0.18939808770E+03  0.22693006108E+03  0.12500246796E+03 0.  0.
    9000005    1    3    3    0    0  0.13715359899E+02 -0.41084219960E+02 -0.17648055533E+03  0.18172069403E+03  0.10000000000E+01 0.  0.
    9000005    1    3    3    0    0 -0.13715359899E+02  0.41084219960E+02 -0.12917532367E+02  0.45209367053E+02  0.10000000000E+01 0.  0.
<mgrwt>
<rscale>  0 0.12500247E+03</rscale>
<asrwt>0</asrwt>
<pdfrwt beam="2">  1        4 0.52041011E-01 0.12500247E+03</pdfrwt>
<pdfrwt beam="1">  1       -4 0.46914973E-02 0.12500247E+03</pdfrwt>
<totfact> 0.15296761E+03</totfact>
</mgrwt>
</event>
<event>
 5    1  0.1423270E-002  0.1249970E+03  0.7818608E-02  0.1235074E+00
         -4   -1    0    0    0  501 -0.00000000000E+00  0.00000000000E+00  0.10942581386E+03  0.10943318344E+03  0.12700000000E+01 0.  1.
          4   -1    0    0  501    0  0.00000000000E+00 -0.00000000000E+00 -0.35676097536E+02  0.35698695150E+02  0.12700000000E+01 0.  1.
         25    2    1    2    0    0  0.00000000000E+00  0.00000000000E+00  0.73749716321E+02  0.14513187859E+03  0.12499696607E+03 0.  0.
    9000005    1    3    3    0    0  0.18690267714E+02  0.51929257815E+02  0.28433041364E+01  0.55272581836E+02  0.10000000000E+01 0.  0.
    9000005    1    3    3    0    0 -0.18690267714E+02 -0.51929257815E+02  0.70906412185E+02  0.89859296755E+02  0.10000000000E+01 0.  0.
<mgrwt>
<rscale>  0 0.12499697E+03</rscale>
<asrwt>0</asrwt>
<pdfrwt beam="2">  1        4 0.89227704E-02 0.12499697E+03</pdfrwt>
<pdfrwt beam="1">  1       -4 0.27360199E-01 0.12499697E+03</pdfrwt>
<totfact> 0.18782073E+03</totfact>
</mgrwt>
</event>
<event>
 5    1  0.1423270E-002  0.1250011E+03  0.7818608E-02  0.1235068E+00
          4   -1    0    0  501    0  0.00000000000E+00  0.00000000000E+00  0.25939284578E+02  0.25970355878E+02  0.12700000000E+01 0. -1.
         -4   -1    0    0    0  501 -0.00000000000E+00 -0.00000000000E+00 -0.15047078702E+03  0.15047614644E+03  0.12700000000E+01 0. -1.
         25    2    1    2    0    0  0.00000000000E+00  0.00000000000E+00 -0.12453150245E+03  0.17644650232E+03  0.12500109231E+03 0.  0.
    9000005    1    3    3    0    0  0.48119183750E+02  0.33370838878E+01 -0.11835151871E+03  0.12780717489E+03  0.10000000000E+01 0.  0.
    9000005    1    3    3    0    0 -0.48119183750E+02 -0.33370838878E+01 -0.61799837408E+01  0.48639327428E+02  0.10000000000E+01 0.  0.
<mgrwt>
<rscale>  0 0.12500109E+03</rscale>
<asrwt>0</asrwt>
<pdfrwt beam="1">  1        4 0.64893754E-02 0.12500109E+03</pdfrwt>
<pdfrwt beam="2">  1       -4 0.37622248E-01 0.12500109E+03</pdfrwt>
<totfact> 0.17309704E+03</totfact>
</mgrwt>
</event>
<event>
 5    1  0.1423270E-002  0.1250004E+03  0.7818608E-02  0.1235069E+00
         -4   -1    0    0    0  501 -0.00000000000E+00  0.00000000000E+00  0.53731150306E+03  0.53731300395E+03  0.12700000000E+01 0. -1.
          4   -1    0    0  501    0  0.00000000000E+00 -0.00000000000E+00 -0.72130472142E+01  0.73239982328E+01  0.12700000000E+01 0. -1.
         25    2    1    2    0    0  0.00000000000E+00  0.00000000000E+00  0.53009845584E+03  0.54463700219E+03  0.12500036505E+03 0.  0.
    9000005    1    3    3    0    0 -0.17221698017E+01 -0.62582672499E+01  0.53586013026E+03  0.53590037412E+03  0.10000000000E+01 0.  0.
    9000005    1    3    3    0    0  0.17221698017E+01  0.62582672499E+01 -0.57616744210E+01  0.87366280641E+01  0.10000000000E+01 0.  0.
<mgrwt>
<rscale>  0 0.12500037E+03</rscale>
<asrwt>0</asrwt>
<pdfrwt beam="2">  1        4 0.18173184E-02 0.12500037E+03</pdfrwt>
<pdfrwt beam="1">  1       -4 0.13434193E+00 0.12500037E+03</pdfrwt>
<totfact> 0.80918258E+02</totfact>
</mgrwt>
</event>
<event>
 5    1  0.1423270E-002  0.1249995E+03  0.7818608E-02  0.1235070E+00
          4   -1    0    0  501    0  0.00000000000E+00  0.00000000000E+00  0.59900395718E+02  0.59913857389E+02  0.12700000000E+01 0.  1.
         -4   -1    0    0    0  501 -0.00000000000E+00 -0.00000000000E+00 -0.65184972600E+02  0.65197343142E+02  0.12700000000E+01 0.  1.
         25    2    1    2    0    0  0.00000000000E+00  0.00000000000E+00 -0.52845768815E+01  0.12511120053E+03  0.12499954298E+03 0.  0.
    9000005    1    3    3    0    0  0.23375786366E+02 -0.45369017740E+02  0.33451625145E+02  0.61031028041E+02  0.10000000000E+01 0.  0.
    9000005    1    3    3    0    0 -0.23375786366E+02  0.45369017740E+02 -0.38736202027E+02  0.64080172490E+02  0.10000000000E+01 0.  0.
<mgrwt>
<rscale>  0 0.12499954E+03</rscale>
<asrwt>0</asrwt>
<pdfrwt beam="1">  1        4 0.14978328E-01 0.12499954E+03</pdfrwt>
<pdfrwt beam="2">  1       -4 0.16299472E-01 0.12499954E+03</pdfrwt>
<totfact> 0.19829238E+03</totfact>
</mgrwt>
</event>
<event>
 5    1  0.1423270E-002  0.1249986E+03  0.7818608E-02  0.1235071E+00
          4   -1    0    0  501    0  0.00000000000E+00  0.00000000000E+00  0.24830567086E+03  0.24830891865E+03  0.12700000000E+01 0. -1.
         -4   -1    0    0    0  501 -0.00000000000E+00 -0.00000000000E+00 -0.15702287569E+02  0.15753562610E+02  0.12700000000E+01 0. -1.
         25    2    1    2    0    0  0.00000000000E+00  0.00000000000E+00  0.23260338329E+03  0.26406248126E+03  0.12499864036E+03 0.  0.
    9000005    1    3    3    0    0 -0.59687120386E+02  0.18419117692E+02  0.12016754271E+03  0.13543653332E+03  0.10000000000E+01 0.  0.
    9000005    1    3    3    0    0  0.59687120386E+02 -0.18419117692E+02  0.11243584059E+03  0.12862594795E+03  0.10000000000E+01 0.  0.
<mgrwt>
<rscale>  0 0.12499864E+03</rscale>
<asrwt>0</asrwt>
<pdfrwt beam="1">  1        4 0.62083232E-01 0.12499864E+03</pdfrwt>
<pdfrwt beam="2">  1       -4 0.39323873E-02 0.12499864E+03</pdfrwt>
<totfact> 0.14042062E+03</totfact>
</mgrwt>
</event>
<event>
 5    1  0.1423270E-002  0.1249949E+03  0.7818608E-02  0.1235077E+00
          4   -1    0    0  501    0  0.00000000000E+00  0.00000000000E+00  0.48633040305E+03  0.48633206128E+03  0.12700000000E+01 0.  1.
         -4   -1    0    0    0  501 -0.00000000000E+00 -0.00000000000E+00 -0.79795417844E+01  0.80799744485E+01  0.12700000000E+01 0.  1.
         25    2    1    2    0    0  0.00000000000E+00  0.00000000000E+00  0.47835086126E+03  0.49441203573E+03  0.12499485830E+03 0.  0.
    9000005    1    3    3    0    0 -0.43126230485E+02 -0.44333627754E+02  0.27446254665E+03  0.28134681768E+03  0.10000000000E+01 0.  0.
    9000005    1    3    3    0    0  0.43126230485E+02  0.44333627754E+02  0.20388831461E+03  0.21306521805E+03  0.10000000000E+01 0.  0.
<mgrwt>
<rscale>  0 0.12499486E+03</rscale>
<asrwt>0</asrwt>
<pdfrwt beam="1">  1        4 0.12159534E+00 0.12499486E+03</pdfrwt>
<pdfrwt beam="2">  1       -4 0.20076471E-02 0.12499486E+03</pdfrwt>
<totfact> 0.88512812E+02</totfact>
</mgrwt>
</event>
<event>
 5    1  0.1423270E-002  0.1249998E+03  0.7818608E-02  0.1235070E+00
          4   -1    0    0  501    0  0.00000000000E+00  0.00000000000E+00  0.24152379718E+02  0.24185746754E+02  0.12700000000E+01 0. -1.
         -4   -1    0    0    0  501 -0.00000000000E+00 -0.00000000000E+00 -0.16158558212E+03  0.16159057290E+03  0.12700000000E+01 0. -1.
         25    2    1    2    0    0  0.00000000000E+00  0.00000000000E+00 -0.13743320241E+03  0.18577631965E+03  0.12499982328E+03 0.  0.
    9000005    1    3    3    0    0 -0.41026769554E+00  0.61089218818E+02 -0.88274729489E+02  0.10735682951E+03  0.10000000000E+01 0.  0.
    9000005    1    3    3    0    0  0.41026769554E+00 -0.61089218818E+02 -0.49158472918E+02  0.78419490148E+02  0.10000000000E+01 0.  0.
<mgrwt>
<rscale>  0 0.12499982E+03</rscale>
<asrwt>0</asrwt>
<pdfrwt beam="1">  1        4 0.60428901E-02 0.12499982E+03</pdfrwt>
<pdfrwt beam="2">  1       -4 0.40401187E-01 0.12499982E+03</pdfrwt>
<totfact> 0.16907952E+03</totfact>
</mgrwt>
</event>
<event>
 5    1  0.1423270E-002  0.1249983E+03  0.7818608E-02  0.1235072E+00
         -4   -1    0    0    0  501 -0.00000000000E+00  0.00000000000E+00  0.41334508040E+03  0.41334703142E+03  0.12700000000E+01 0. -1.
          4   -1    0    0  501    0  0.00000000000E+00 -0.00000000000E+00 -0.94054217626E+01  0.94907775515E+01  0.12700000000E+01 0. -1.
         25    2    1    2    0    0  0.00000000000E+00  0.00000000000E+00  0.40393965863E+03  0.42283780898E+03  0.12499825952E+03 0.  0.
    9000005    1    3    3    0    0 -0.35914780065E+02  0.65818649168E+01  0.37352389357E+03  0.37530559740E+03  0.10000000000E+01 0.  0.
    9000005    1    3    3    0    0  0.35914780065E+02 -0.65818649168E+01  0.30415765065E+02  0.47532211576E+02  0.10000000000E+01 0.  0.
<mgrwt>
<rscale>  0 0.12499826E+03</rscale>
<asrwt>0</asrwt>
<pdfrwt beam="2">  1        4 0.23622690E-02 0.12499826E+03</pdfrwt>
<pdfrwt beam="1">  1       -4 0.10334717E+00 0.12499826E+03</pdfrwt>
<totfact> 0.10110879E+03</totfact>
</mgrwt>
</event>
<event>
 5    1  0.1423270E-002  0.1250018E+03  0.7818608E-02  0.1235067E+00
          4   -1    0    0  501    0  0.00000000000E+00  0.00000000000E+00  0.11332125019E+03  0.11332836646E+03  0.12700000000E+01 0.  1.
         -4   -1    0    0    0  501 -0.00000000000E+00 -0.00000000000E+00 -0.34451662058E+02  0.34475062271E+02  0.12700000000E+01 0.  1.
         25    2    1    2    0    0  0.00000000000E+00  0.00000000000E+00  0.78869588130E+02  0.14780342873E+03  0.12500176644E+03 0.  0.
    9000005    1    3    3    0    0  0.12968252733E+02 -0.51254456607E+02  0.78831709707E+02  0.94924355971E+02  0.10000000000E+01 0.  0.
    9000005    1    3    3    0    0 -0.12968252733E+02  0.51254456607E+02  0.37878422599E-01  0.52879072759E+02  0.10000000000E+01 0.  0.
<mgrwt>
<rscale>  0 0.12500177E+03</rscale>
<asrwt>0</asrwt>
<pdfrwt beam="1">  1        4 0.28334127E-01 0.12500177E+03</pdfrwt>
<pdfrwt beam="2">  1       -4 0.86167301E-02 0.12500177E+03</pdfrwt>
<totfact> 0.18646550E+03</totfact>
</mgrwt>
</event>
<event>
 5    1  0.1423270E-002  0.1250007E+03  0.7818608E-02  0.1235068E+00
         -4   -1    0    0    0  501 -0.00000000000E+00  0.00000000000E+00  0.47320474872E+01  0.48995074672E+01  0.12700000000E+01 0. -1.
          4   -1    0    0  501    0  0.00000000000E+00 -0.00000000000E+00 -0.81097662136E+03  0.81097761578E+03  0.12700000000E+01 0. -1.
         25    2    1    2    0    0  0.00000000000E+00  0.00000000000E+00 -0.80624457387E+03  0.81587712324E+03  0.12500066934E+03 0.  0.
    9000005    1    3    3    0    0 -0.48231351448E+02 -0.39257121760E+02 -0.44330802135E+03  0.44764984828E+03  0.10000000000E+01 0.  0.
    9000005    1    3    3    0    0  0.48231351448E+02  0.39257121760E+02 -0.36293655252E+03  0.36822727496E+03  0.10000000000E+01 0.  0.
<mgrwt>
<rscale>  0 0.12500067E+03</rscale>
<asrwt>0</asrwt>
<pdfrwt beam="2">  1        4 0.20276475E+00 0.12500067E+03</pdfrwt>
<pdfrwt beam="1">  1       -4 0.12040714E-02 0.12500067E+03</pdfrwt>
<totfact> 0.51093149E+02</totfact>
</mgrwt>
</event>
<event>
 5    1  0.1423270E-002  0.1250044E+03  0.7818608E-02  0.1235062E+00
          4   -1    0    0  501    0  0.00000000000E+00  0.00000000000E+00  0.25016604499E+02  0.25048820345E+02  0.12700000000E+01 0. -1.
         -4   -1    0    0    0  501 -0.00000000000E+00 -0.00000000000E+00 -0.15602198639E+03  0.15602715513E+03  0.12700000000E+01 0. -1.
         25    2    1    2    0    0  0.00000000000E+00  0.00000000000E+00 -0.13100538189E+03  0.18107597547E+03  0.12500439516E+03 0.  0.
    9000005    1    3    3    0    0 -0.60258498785E+02 -0.22881774960E+01 -0.41735661224E+02  0.73342946832E+02  0.10000000000E+01 0.  0.
    9000005    1    3    3    0    0  0.60258498785E+02  0.22881774960E+01 -0.89269720665E+02  0.10773302864E+03  0.10000000000E+01 0.  0.
<mgrwt>
<rscale>  0 0.12500440E+03</rscale>
<asrwt>0</asrwt>
<pdfrwt beam="1">  1        4 0.62588246E-02 0.12500440E+03</pdfrwt>
<pdfrwt beam="2">  1       -4 0.39010167E-01 0.12500440E+03</pdfrwt>
<totfact> 0.17107000E+03</totfact>
</mgrwt>
</event>
<event>
 5    1  0.1423270E-002  0.1250002E+03  0.7818608E-02  0.1235069E+00
         -4   -1    0    0    0  501 -0.00000000000E+00  0.00000000000E+00  0.70773227101E+03  0.70773341049E+03  0.12700000000E+01 0.  1.
          4   -1    0    0  501    0  0.00000000000E+00 -0.00000000000E+00 -0.54451913688E+01  0.55913333868E+01  0.12700000000E+01 0.  1.
         25    2    1    2    0    0  0.00000000000E+00  0.00000000000E+00  0.70228707964E+03  0.71332474388E+03  0.12500019200E+03 0.  0.
    9000005    1    3    3    0    0  0.26057817834E+02  0.92559915735E+00  0.67523537490E+03  0.67573935665E+03  0.10000000000E+01 0.  0.
    9000005    1    3    3    0    0 -0.26057817834E+02 -0.92559915735E+00  0.27051704737E+02  0.37585387231E+02  0.10000000000E+01 0.  0.
<mgrwt>
<rscale>  0 0.12500019E+03</rscale>
<asrwt>0</asrwt>
<pdfrwt beam="2">  1        4 0.13797081E-02 0.12500019E+03</pdfrwt>
<pdfrwt beam="1">  1       -4 0.17695146E+00 0.12500019E+03</pdfrwt>
<totfact> 0.60689981E+02</totfact>
</mgrwt>
</event>
<event>
 5    1  0.1423270E-002  0.1250132E+03  0.7818608E-02  0.1235049E+00
          4   -1    0    0  501    0  0.00000000000E+00  0.00000000000E+00  0.84562553466E+01  0.85510908361E+01  0.12700000000E+01 0. -1.
         -4   -1    0    0    0  501 -0.00000000000E+00 -0.00000000000E+00 -0.45936147157E+03  0.45936322716E+03  0.12700000000E+01 0. -1.
         25    2    1    2    0    0  0.00000000000E+00  0.00000000000E+00 -0.45090521623E+03  0.46791431799E+03  0.12501317916E+03 0.  0.
    9000005    1    3    3    0    0  0.19705868985E+02  0.26611417014E+02 -0.27057198638E+02  0.42773599171E+02  0.10000000000E+01 0.  0.
    9000005    1    3    3    0    0 -0.19705868985E+02 -0.26611417014E+02 -0.42384801759E+03  0.42514071882E+03  0.10000000000E+01 0.  0.
<mgrwt>
<rscale>  0 0.12501318E+03</rscale>
<asrwt>0</asrwt>
<pdfrwt beam="1">  1        4 0.21261393E-02 0.12501318E+03</pdfrwt>
<pdfrwt beam="2">  1       -4 0.11485236E+00 0.12501318E+03</pdfrwt>
<totfact> 0.92859616E+02</totfact>
</mgrwt>
</event>
<event>
 5    1  0.1423270E-002  0.1249995E+03  0.7818608E-02  0.1235070E+00
          4   -1    0    0  501    0  0.00000000000E+00  0.00000000000E+00  0.46188202329E+02  0.46205659116E+02  0.12700000000E+01 0.  1.
         -4   -1    0    0    0  501 -0.00000000000E+00 -0.00000000000E+00 -0.84533645954E+02  0.84543185404E+02  0.12700000000E+01 0.  1.
         25    2    1    2    0    0  0.00000000000E+00  0.00000000000E+00 -0.38345443625E+02  0.13074884452E+03  0.12499954918E+03 0.  0.
    9000005    1    3    3    0    0  0.46954333887E+02  0.25056736029E+02 -0.53430796541E+02  0.75421479104E+02  0.10000000000E+01 0.  0.
    9000005    1    3    3    0    0 -0.46954333887E+02 -0.25056736029E+02  0.15085352915E+02  0.55327365416E+02  0.10000000000E+01 0.  0.
<mgrwt>
<rscale>  0 0.12499955E+03</rscale>
<asrwt>0</asrwt>
<pdfrwt beam="1">  1        4 0.11550425E-01 0.12499955E+03</pdfrwt>
<pdfrwt beam="2">  1       -4 0.21136786E-01 0.12499955E+03</pdfrwt>
<totfact> 0.19524415E+03</totfact>
</mgrwt>
</event>
<event>
 5    1  0.1423270E-002  0.1250008E+03  0.7818608E-02  0.1235068E+00
         -4   -1    0    0    0  501 -0.00000000000E+00  0.00000000000E+00  0.31482266589E+03  0.31482522748E+03  0.12700000000E+01 0. -1.
          4   -1    0    0  501    0  0.00000000000E+00 -0.00000000000E+00 -0.12372826588E+02  0.12437834931E+02  0.12700000000E+01 0. -1.
         25    2    1    2    0    0  0.00000000000E+00  0.00000000000E+00  0.30244983931E+03  0.32726306241E+03  0.12500082690E+03 0.  0.
    9000005    1    3    3    0    0 -0.16991769348E+01 -0.63042220898E+01 -0.11490225668E+02  0.13253516677E+02  0.10000000000E+01 0.  0.
    9000005    1    3    3    0    0  0.16991769348E+01  0.63042220898E+01  0.31394006497E+03  0.31400954574E+03  0.10000000000E+01 0.  0.
<mgrwt>
<rscale>  0 0.12500083E+03</rscale>
<asrwt>0</asrwt>
<pdfrwt beam="2">  1        4 0.31016530E-02 0.12500083E+03</pdfrwt>
<pdfrwt beam="1">  1       -4 0.78714109E-01 0.12500083E+03</pdfrwt>
<totfact> 0.12239719E+03</totfact>
</mgrwt>
</event>
<event>
 5    1  0.1423270E-002  0.1250019E+03  0.7818608E-02  0.1235066E+00
          4   -1    0    0  501    0  0.00000000000E+00  0.00000000000E+00  0.28418606749E+03  0.28418890523E+03  0.12700000000E+01 0.  1.
         -4   -1    0    0    0  501 -0.00000000000E+00 -0.00000000000E+00 -0.13713574166E+02  0.13772255313E+02  0.12700000000E+01 0.  1.
         25    2    1    2    0    0  0.00000000000E+00  0.00000000000E+00  0.27047249332E+03  0.29796116054E+03  0.12500193417E+03 0.  0.
    9000005    1    3    3    0    0 -0.23181866685E+02 -0.55581861116E+02  0.17502458628E+03  0.18509821185E+03  0.10000000000E+01 0.  0.
    9000005    1    3    3    0    0  0.23181866685E+02  0.55581861116E+02  0.95447907038E+02  0.11286294869E+03  0.10000000000E+01 0.  0.
<mgrwt>
<rscale>  0 0.12500193E+03</rscale>
<asrwt>0</asrwt>
<pdfrwt beam="1">  1        4 0.71054207E-01 0.12500193E+03</pdfrwt>
<pdfrwt beam="2">  1       -4 0.34360834E-02 0.12500193E+03</pdfrwt>
<totfact> 0.13027814E+03</totfact>
</mgrwt>
</event>
<event>
 5    1  0.1423270E-002  0.1249931E+03  0.7818608E-02  0.1235080E+00
         -4   -1    0    0    0  501 -0.00000000000E+00  0.00000000000E+00  0.12181366652E+03  0.12182028670E+03  0.12700000000E+01 0. -1.
          4   -1    0    0  501    0  0.00000000000E+00 -0.00000000000E+00 -0.32043814943E+02  0.32068972171E+02  0.12700000000E+01 0. -1.
         25    2    1    2    0    0  0.00000000000E+00  0.00000000000E+00  0.89769851581E+02  0.15388925887E+03  0.12499311078E+03 0.  0.
    9000005    1    3    3    0    0  0.49706542602E+02 -0.21555440435E+01  0.91433253802E+02  0.10409815872E+03  0.10000000000E+01 0.  0.
    9000005    1    3    3    0    0 -0.49706542602E+02  0.21555440435E+01 -0.16634022219E+01  0.49791100154E+02  0.10000000000E+01 0.  0.
<mgrwt>
<rscale>  0 0.12499311E+03</rscale>
<asrwt>0</asrwt>
<pdfrwt beam="2">  1        4 0.80149260E-02 0.12499311E+03</pdfrwt>
<pdfrwt beam="1">  1       -4 0.30457389E-01 0.12499311E+03</pdfrwt>
<totfact> 0.18352125E+03</totfact>
</mgrwt>
</event>
<event>
 5    1  0.1423270E-002  0.1250049E+03  0.7818608E-02  0.1235062E+00
         -4   -1    0    0    0  501 -0.00000000000E+00  0.00000000000E+00  0.78925970746E+02  0.78936187887E+02  0.12700000000E+01 0.  1.
          4   -1    0    0  501    0  0.00000000000E+00 -0.00000000000E+00 -0.49474930752E+02  0.49491228242E+02  0.12700000000E+01 0.  1.
         25    2    1    2    0    0  0.00000000000E+00  0.00000000000E+00  0.29451039994E+02  0.12842741613E+03  0.12500494973E+03 0.  0.
    9000005    1    3    3    0    0  0.20601618673E+02 -0.53526994109E+02 -0.10773214443E+02  0.58366325392E+02  0.10000000000E+01 0.  0.
    9000005    1    3    3    0    0 -0.20601618673E+02  0.53526994109E+02  0.40224254437E+02  0.70061090737E+02  0.10000000000E+01 0.  0.
<mgrwt>
<rscale>  0 0.12500495E+03</rscale>
<asrwt>0</asrwt>
<pdfrwt beam="2">  1        4 0.12372047E-01 0.12500495E+03</pdfrwt>
<pdfrwt beam="1">  1       -4 0.19734807E-01 0.12500495E+03</pdfrwt>
<totfact> 0.19647040E+03</totfact>
</mgrwt>
</event>
<event>
 5    1  0.1423270E-002  0.1249979E+03  0.7818608E-02  0.1235073E+00
          4   -1    0    0  501    0  0.00000000000E+00  0.00000000000E+00  0.96776605367E+02  0.96784938117E+02  0.12700000000E+01 0.  1.
         -4   -1    0    0    0  501 -0.00000000000E+00 -0.00000000000E+00 -0.40342182667E+02  0.40362167959E+02  0.12700000000E+01 0.  1.
         25    2    1    2    0    0  0.00000000000E+00  0.00000000000E+00  0.56434422700E+02  0.13714710608E+03  0.12499793854E+03 0.  0.
    9000005    1    3    3    0    0 -0.28361743147E+02 -0.46465588304E+02  0.61886650584E+02  0.82428131674E+02  0.10000000000E+01 0.  0.
    9000005    1    3    3    0    0  0.28361743147E+02  0.46465588304E+02 -0.54522278838E+01  0.54718974402E+02  0.10000000000E+01 0.  0.
<mgrwt>
<rscale>  0 0.12499794E+03</rscale>
<asrwt>0</asrwt>
<pdfrwt beam="1">  1        4 0.24197691E-01 0.12499794E+03</pdfrwt>
<pdfrwt beam="2">  1       -4 0.10089085E-01 0.12499794E+03</pdfrwt>
<totfact> 0.19188179E+03</totfact>
</mgrwt>
</event>
<event>
 5    1  0.1423270E-002  0.1250012E+03  0.7818608E-02  0.1235067E+00
         -4   -1    0    0    0  501 -0.00000000000E+00  0.00000000000E+00  0.29440874908E+02  0.29468254365E+02  0.12700000000E+01 0. -1.
          4   -1    0    0  501    0  0.00000000000E+00 -0.00000000000E+00 -0.13259154665E+03  0.13259762872E+03  0.12700000000E+01 0. -1.
         25    2    1    2    0    0  0.00000000000E+00  0.00000000000E+00 -0.10315067174E+03  0.16206588308E+03  0.12500115751E+03 0.  0.
    9000005    1    3    3    0    0 -0.12244844547E+02 -0.23384919890E+02  0.21864336234E+02  0.34290521944E+02  0.10000000000E+01 0.  0.
    9000005    1    3    3    0    0  0.12244844547E+02  0.23384919890E+02 -0.12501500797E+03  0.12777536114E+03  0.10000000000E+01 0.  0.
<mgrwt>
<rscale>  0 0.12500116E+03</rscale>
<asrwt>0</asrwt>
<pdfrwt beam="2">  1        4 0.33152068E-01 0.12500116E+03</pdfrwt>
<pdfrwt beam="1">  1       -4 0.73644018E-02 0.12500116E+03</pdfrwt>
<totfact> 0.17960479E+03</totfact>
</mgrwt>
</event>
<event>
 5    1  0.1423270E-002  0.1249978E+03  0.7818608E-02  0.1235073E+00
         -4   -1    0    0    0  501 -0.00000000000E+00  0.00000000000E+00  0.94014459595E+02  0.94023037139E+02  0.12700000000E+01 0. -1.
          4   -1    0    0  501    0  0.00000000000E+00 -0.00000000000E+00 -0.41527825023E+02  0.41547239995E+02  0.12700000000E+01 0. -1.
         25    2    1    2    0    0  0.00000000000E+00  0.00000000000E+00  0.52486634571E+02  0.13557027713E+03  0.12499781291E+03 0.  0.
    9000005    1    3    3    0    0 -0.43581708611E+02  0.21092247397E+02  0.69092717995E+02  0.84374474255E+02  0.10000000000E+01 0.  0.
    9000005    1    3    3    0    0  0.43581708611E+02 -0.21092247397E+02 -0.16606083424E+02  0.51195802879E+02  0.10000000000E+01 0.  0.
<mgrwt>
<rscale>  0 0.12499781E+03</rscale>
<asrwt>0</asrwt>
<pdfrwt beam="2">  1        4 0.10385455E-01 0.12499781E+03</pdfrwt>
<pdfrwt beam="1">  1       -4 0.23507114E-01 0.12499781E+03</pdfrwt>
<totfact> 0.19270292E+03</totfact>
</mgrwt>
</event>
<event>
 5    1  0.1423270E-002  0.1249990E+03  0.7818608E-02  0.1235071E+00
         -4   -1    0    0    0  501 -0.00000000000E+00  0.00000000000E+00  0.20604524853E+02  0.20643627211E+02  0.12700000000E+01 0.  1.
          4   -1    0    0  501    0  0.00000000000E+00 -0.00000000000E+00 -0.18935822809E+03  0.18936248690E+03  0.12700000000E+01 0.  1.
         25    2    1    2    0    0  0.00000000000E+00  0.00000000000E+00 -0.16875370323E+03  0.21000611411E+03  0.12499902243E+03 0.  0.
    9000005    1    3    3    0    0  0.11316383527E+02  0.84176320403E+00 -0.18762100217E+03  0.18796651179E+03  0.10000000000E+01 0.  0.
    9000005    1    3    3    0    0 -0.11316383527E+02 -0.84176320403E+00  0.18867298931E+02  0.22039602319E+02  0.10000000000E+01 0.  0.
<mgrwt>
<rscale>  0 0.12499902E+03</rscale>
<asrwt>0</asrwt>
<pdfrwt beam="2">  1        4 0.47344972E-01 0.12499902E+03</pdfrwt>
<pdfrwt beam="1">  1       -4 0.51565519E-02 0.12499902E+03</pdfrwt>
<totfact> 0.15929431E+03</totfact>
</mgrwt>
</event>
<event>
 5    1  0.1423270E-002  0.1249997E+03  0.7818608E-02  0.1235070E+00
         -4   -1    0    0    0  501 -0.00000000000E+00  0.00000000000E+00  0.43243917425E+02  0.43262562272E+02  0.12700000000E+01 0. -1.
          4   -1    0    0  501    0  0.00000000000E+00 -0.00000000000E+00 -0.90287622061E+02  0.90296553630E+02  0.12700000000E+01 0. -1.
         25    2    1    2    0    0  0.00000000000E+00  0.00000000000E+00 -0.47043704635E+02  0.13355911590E+03  0.12499970918E+03 0.  0.
    9000005    1    3    3    0    0 -0.14782478010E+02 -0.35467066367E+02 -0.76179344874E+02  0.85327176434E+02  0.10000000000E+01 0.  0.
    9000005    1    3    3    0    0  0.14782478010E+02  0.35467066367E+02  0.29135640238E+02  0.48231939468E+02  0.10000000000E+01 0.  0.
<mgrwt>
<rscale>  0 0.12499971E+03</rscale>
<asrwt>0</asrwt>
<pdfrwt beam="2">  1        4 0.22575352E-01 0.12499971E+03</pdfrwt>
<pdfrwt beam="1">  1       -4 0.10814427E-01 0.12499971E+03</pdfrwt>
<totfact> 0.19375009E+03</totfact>
</mgrwt>
</event>
<event>
 5    1  0.1423270E-002  0.1250065E+03  0.7818608E-02  0.1235059E+00
         -4   -1    0    0    0  501 -0.00000000000E+00  0.00000000000E+00  0.13187818264E+02  0.13248828271E+02  0.12700000000E+01 0.  1.
          4   -1    0    0  501    0  0.00000000000E+00 -0.00000000000E+00 -0.29548623838E+03  0.29548896759E+03  0.12700000000E+01 0.  1.
         25    2    1    2    0    0  0.00000000000E+00  0.00000000000E+00 -0.28229842011E+03  0.30873779586E+03  0.12500651422E+03 0.  0.
    9000005    1    3    3    0    0  0.48504702978E+02  0.38428264955E+02 -0.11958716786E+03  0.13465336414E+03  0.10000000000E+01 0.  0.
    9000005    1    3    3    0    0 -0.48504702978E+02 -0.38428264955E+02 -0.16271125225E+03  0.17408443172E+03  0.10000000000E+01 0.  0.
<mgrwt>
<rscale>  0 0.12500651E+03</rscale>
<asrwt>0</asrwt>
<pdfrwt beam="2">  1        4 0.73879505E-01 0.12500651E+03</pdfrwt>
<pdfrwt beam="1">  1       -4 0.33049229E-02 0.12500651E+03</pdfrwt>
<totfact> 0.12727753E+03</totfact>
</mgrwt>
</event>
<event>
 5    1  0.1423270E-002  0.1249981E+03  0.7818608E-02  0.1235072E+00
         -4   -1    0    0    0  501 -0.00000000000E+00  0.00000000000E+00  0.18380142224E+02  0.18423966136E+02  0.12700000000E+01 0. -1.
          4   -1    0    0  501    0  0.00000000000E+00 -0.00000000000E+00 -0.21222034314E+03  0.21222414317E+03  0.12700000000E+01 0. -1.
         25    2    1    2    0    0  0.00000000000E+00  0.00000000000E+00 -0.19384020092E+03  0.23064810931E+03  0.12499810732E+03 0.  0.
    9000005    1    3    3    0    0  0.54935320797E+02  0.28353304479E+02 -0.11376441370E+03  0.12948027328E+03  0.10000000000E+01 0.  0.
    9000005    1    3    3    0    0 -0.54935320797E+02 -0.28353304479E+02 -0.80075787224E+02  0.10116783602E+03  0.10000000000E+01 0.  0.
<mgrwt>
<rscale>  0 0.12499811E+03</rscale>
<asrwt>0</asrwt>
<pdfrwt beam="2">  1        4 0.53061031E-01 0.12499811E+03</pdfrwt>
<pdfrwt beam="1">  1       -4 0.46009892E-02 0.12499811E+03</pdfrwt>
<totfact> 0.15164843E+03</totfact>
</mgrwt>
</event>
<event>
 5    1  0.1423270E-002  0.1250014E+03  0.7818608E-02  0.1235067E+00
          4   -1    0    0  501    0  0.00000000000E+00  0.00000000000E+00  0.63453554307E+01  0.64712004715E+01  0.12700000000E+01 0.  1.
         -4   -1    0    0    0  501 -0.00000000000E+00 -0.00000000000E+00 -0.60945026013E+03  0.60945158337E+03  0.12700000000E+01 0.  1.
         25    2    1    2    0    0  0.00000000000E+00  0.00000000000E+00 -0.60310490470E+03  0.61592278385E+03  0.12500139832E+03 0.  0.
    9000005    1    3    3    0    0  0.17829401697E+02 -0.19880571141E+02 -0.23160093834E+02  0.35362616138E+02  0.10000000000E+01 0.  0.
    9000005    1    3    3    0    0 -0.17829401697E+02  0.19880571141E+02 -0.57994481087E+03  0.58056016771E+03  0.10000000000E+01 0.  0.
<mgrwt>
<rscale>  0 0.12500140E+03</rscale>
<asrwt>0</asrwt>
<pdfrwt beam="1">  1        4 0.16022370E-02 0.12500140E+03</pdfrwt>
<pdfrwt beam="2">  1       -4 0.15237826E+00 0.12500140E+03</pdfrwt>
<totfact> 0.71532809E+02</totfact>
</mgrwt>
</event>
<event>
 5    1  0.1423270E-002  0.1250015E+03  0.7818608E-02  0.1235067E+00
          4   -1    0    0  501    0  0.00000000000E+00  0.00000000000E+00  0.11527799095E+02  0.11597545084E+02  0.12700000000E+01 0. -1.
         -4   -1    0    0    0  501 -0.00000000000E+00 -0.00000000000E+00 -0.33777007584E+03  0.33777246341E+03  0.12700000000E+01 0. -1.
         25    2    1    2    0    0  0.00000000000E+00  0.00000000000E+00 -0.32624227675E+03  0.34937000849E+03  0.12500151877E+03 0.  0.
    9000005    1    3    3    0    0  0.13510240636E+02  0.55710134834E+02 -0.23266927897E+03  0.23962916997E+03  0.10000000000E+01 0.  0.
    9000005    1    3    3    0    0 -0.13510240636E+02 -0.55710134834E+02 -0.93572997782E+02  0.10974083852E+03  0.10000000000E+01 0.  0.
<mgrwt>
<rscale>  0 0.12500152E+03</rscale>
<asrwt>0</asrwt>
<pdfrwt beam="1">  1        4 0.28909676E-02 0.12500152E+03</pdfrwt>
<pdfrwt beam="2">  1       -4 0.84451503E-01 0.12500152E+03</pdfrwt>
<totfact> 0.11691958E+03</totfact>
</mgrwt>
</event>
<event>
 5    1  0.1423270E-002  0.1250145E+03  0.7818608E-02  0.1235047E+00
          4   -1    0    0  501    0  0.00000000000E+00  0.00000000000E+00  0.30233690066E+03  0.30233956804E+03  0.12700000000E+01 0. -1.
         -4   -1    0    0    0  501 -0.00000000000E+00 -0.00000000000E+00 -0.12889259619E+02  0.12951676090E+02  0.12700000000E+01 0. -1.
         25    2    1    2    0    0  0.00000000000E+00  0.00000000000E+00  0.28944764104E+03  0.31529124413E+03  0.12501452603E+03 0.  0.
    9000005    1    3    3    0    0  0.22502309529E+02  0.67871006119E+01 -0.13310617722E+01  0.23562478527E+02  0.10000000000E+01 0.  0.
    9000005    1    3    3    0    0 -0.22502309529E+02 -0.67871006119E+01  0.29077870282E+03  0.29172876560E+03  0.10000000000E+01 0.  0.
<mgrwt>
<rscale>  0 0.12501453E+03</rscale>
<asrwt>0</asrwt>
<pdfrwt beam="1">  1        4 0.75592363E-01 0.12501453E+03</pdfrwt>
<pdfrwt beam="2">  1       -4 0.32304503E-02 0.12501453E+03</pdfrwt>
<totfact> 0.12548886E+03</totfact>
</mgrwt>
</event>
<event>
 5    1  0.1423270E-002  0.1249983E+03  0.7818608E-02  0.1235072E+00
         -4   -1    0    0    0  501 -0.00000000000E+00  0.00000000000E+00  0.73400776563E+02  0.73411762682E+02  0.12700000000E+01 0. -1.
          4   -1    0    0  501    0  0.00000000000E+00 -0.00000000000E+00 -0.53194065112E+02  0.53209223478E+02  0.12700000000E+01 0. -1.
         25    2    1    2    0    0  0.00000000000E+00  0.00000000000E+00  0.20206711451E+02  0.12662098616E+03  0.12499825178E+03 0.  0.
    9000005    1    3    3    0    0 -0.47063889662E+02 -0.22263485793E+02 -0.24906397828E+02  0.57723488828E+02  0.10000000000E+01 0.  0.
    9000005    1    3    3    0    0  0.47063889662E+02  0.22263485793E+02  0.45113109279E+02  0.68897497332E+02  0.10000000000E+01 0.  0.
<mgrwt>
<rscale>  0 0.12499825E+03</rscale>
<asrwt>0</asrwt>
<pdfrwt beam="2">  1        4 0.13301784E-01 0.12499825E+03</pdfrwt>
<pdfrwt beam="1">  1       -4 0.18353462E-01 0.12499825E+03</pdfrwt>
<totfact> 0.19748207E+03</totfact>
</mgrwt>
</event>
<event>
 5    1  0.1423270E-002  0.1249997E+03  0.7818608E-02  0.1235070E+00
         -4   -1    0    0    0  501 -0.00000000000E+00  0.00000000000E+00  0.53572222553E+02  0.53587273948E+02  0.12700000000E+01 0. -1.
          4   -1    0    0  501    0  0.00000000000E+00 -0.00000000000E+00 -0.72884399686E+02  0.72895463628E+02  0.12700000000E+01 0. -1.
         25    2    1    2    0    0  0.00000000000E+00  0.00000000000E+00 -0.19312177133E+02  0.12648273758E+03  0.12499969088E+03 0.  0.
    9000005    1    3    3    0    0 -0.46750860303E+02 -0.28942989287E+02  0.20392896000E+02  0.58653301486E+02  0.10000000000E+01 0.  0.
    9000005    1    3    3    0    0  0.46750860303E+02  0.28942989287E+02 -0.39705073133E+02  0.67829436091E+02  0.10000000000E+01 0.  0.
<mgrwt>
<rscale>  0 0.12499969E+03</rscale>
<asrwt>0</asrwt>
<pdfrwt beam="2">  1        4 0.18224364E-01 0.12499969E+03</pdfrwt>
<pdfrwt beam="1">  1       -4 0.13396320E-01 0.12499969E+03</pdfrwt>
<totfact> 0.19754999E+03</totfact>
</mgrwt>
</event>
<event>
 5    1  0.1423270E-002  0.1250023E+03  0.7818608E-02  0.1235066E+00
          4   -1    0    0  501    0  0.00000000000E+00  0.00000000000E+00  0.22761990445E+02  0.22797392593E+02  0.12700000000E+01 0. -1.
         -4   -1    0    0    0  501 -0.00000000000E+00 -0.00000000000E+00 -0.17144795924E+03  0.17145266294E+03  0.12700000000E+01 0. -1.
         25    2    1    2    0    0  0.00000000000E+00  0.00000000000E+00 -0.14868596880E+03  0.19425005553E+03  0.12500226700E+03 0.  0.
    9000005    1    3    3    0    0  0.49741231191E+02 -0.37661452631E+02 -0.68779721515E+02  0.92866706555E+02  0.10000000000E+01 0.  0.
    9000005    1    3    3    0    0 -0.49741231191E+02  0.37661452631E+02 -0.79906247280E+02  0.10138334897E+03  0.10000000000E+01 0.  0.
<mgrwt>
<rscale>  0 0.12500227E+03</rscale>
<asrwt>0</asrwt>
<pdfrwt beam="1">  1        4 0.56955113E-02 0.12500227E+03</pdfrwt>
<pdfrwt beam="2">  1       -4 0.42866999E-01 0.12500227E+03</pdfrwt>
<totfact> 0.16554029E+03</totfact>
</mgrwt>
</event>
<event>
 5    1  0.1423270E-002  0.1249993E+03  0.7818608E-02  0.1235070E+00
          4   -1    0    0  501    0  0.00000000000E+00  0.00000000000E+00  0.17845362467E+03  0.17845814371E+03  0.12700000000E+01 0.  1.
         -4   -1    0    0    0  501 -0.00000000000E+00 -0.00000000000E+00 -0.21865981663E+02  0.21902832102E+02  0.12700000000E+01 0.  1.
         25    2    1    2    0    0  0.00000000000E+00  0.00000000000E+00  0.15658764300E+03  0.20036097581E+03  0.12499932275E+03 0.  0.
    9000005    1    3    3    0    0  0.54078973160E+02  0.30624929814E+02  0.88778530008E+02  0.10837457753E+03  0.10000000000E+01 0.  0.
    9000005    1    3    3    0    0 -0.54078973160E+02 -0.30624929814E+02  0.67809112997E+02  0.91986398285E+02  0.10000000000E+01 0.  0.
<mgrwt>
<rscale>  0 0.12499932E+03</rscale>
<asrwt>0</asrwt>
<pdfrwt beam="1">  1        4 0.44618578E-01 0.12499932E+03</pdfrwt>
<pdfrwt beam="2">  1       -4 0.54716666E-02 0.12499932E+03</pdfrwt>
<totfact> 0.16307852E+03</totfact>
</mgrwt>
</event>
<event>
 5    1  0.1423270E-002  0.1250027E+03  0.7818608E-02  0.1235065E+00
          4   -1    0    0  501    0  0.00000000000E+00  0.00000000000E+00  0.10961859936E+03  0.10962595598E+03  0.12700000000E+01 0. -1.
         -4   -1    0    0    0  501 -0.00000000000E+00 -0.00000000000E+00 -0.35616591243E+02  0.35639226587E+02  0.12700000000E+01 0. -1.
         25    2    1    2    0    0  0.00000000000E+00  0.00000000000E+00  0.74002008117E+02  0.14526518257E+03  0.12500270422E+03 0.  0.
    9000005    1    3    3    0    0 -0.61862683405E+02 -0.71149972073E+01  0.43128705249E+02  0.75754207803E+02  0.10000000000E+01 0.  0.
    9000005    1    3    3    0    0  0.61862683405E+02  0.71149972073E+01  0.30873302868E+02  0.69510974769E+02  0.10000000000E+01 0.  0.
<mgrwt>
<rscale>  0 0.12500270E+03</rscale>
<asrwt>0</asrwt>
<pdfrwt beam="1">  1        4 0.27408399E-01 0.12500270E+03</pdfrwt>
<pdfrwt beam="2">  1       -4 0.89078968E-02 0.12500270E+03</pdfrwt>
<totfact> 0.18772881E+03</totfact>
</mgrwt>
</event>
<event>
 5    1  0.1423270E-002  0.1250007E+03  0.7818608E-02  0.1235068E+00
         -4   -1    0    0    0  501 -0.00000000000E+00  0.00000000000E+00  0.74059539733E+02  0.74070428144E+02  0.12700000000E+01 0.  1.
          4   -1    0    0  501    0  0.00000000000E+00 -0.00000000000E+00 -0.52722870478E+02  0.52738164278E+02  0.12700000000E+01 0.  1.
         25    2    1    2    0    0  0.00000000000E+00  0.00000000000E+00  0.21336669256E+02  0.12680859242E+03  0.12500066263E+03 0.  0.
    9000005    1    3    3    0    0 -0.12693433195E+02  0.44068937921E+02 -0.32396762783E+02  0.56158211996E+02  0.10000000000E+01 0.  0.
    9000005    1    3    3    0    0  0.12693433195E+02 -0.44068937921E+02  0.53733432039E+02  0.70650380426E+02  0.10000000000E+01 0.  0.
<mgrwt>
<rscale>  0 0.12500066E+03</rscale>
<asrwt>0</asrwt>
<pdfrwt beam="2">  1        4 0.13183990E-01 0.12500066E+03</pdfrwt>
<pdfrwt beam="1">  1       -4 0.18518158E-01 0.12500066E+03</pdfrwt>
<totfact> 0.19736982E+03</totfact>
</mgrwt>
</event>
<event>
 5    1  0.1423270E-002  0.1250056E+03  0.7818608E-02  0.1235060E+00
         -4   -1    0    0    0  501 -0.00000000000E+00  0.00000000000E+00  0.21884857702E+02  0.21921676410E+02  0.12700000000E+01 0. -1.
          4   -1    0    0  501    0  0.00000000000E+00 -0.00000000000E+00 -0.17831798039E+03  0.17832250287E+03  0.12700000000E+01 0. -1.
         25    2    1    2    0    0  0.00000000000E+00  0.00000000000E+00 -0.15643312268E+03  0.20024417928E+03  0.12500563772E+03 0.  0.
    9000005    1    3    3    0    0  0.48027466749E+02  0.39986662493E+02 -0.78501434626E+02  0.10034463602E+03  0.10000000000E+01 0.  0.
    9000005    1    3    3    0    0 -0.48027466749E+02 -0.39986662493E+02 -0.77931688058E+02  0.99899543258E+02  0.10000000000E+01 0.  0.
<mgrwt>
<rscale>  0 0.12500564E+03</rscale>
<asrwt>0</asrwt>
<pdfrwt beam="2">  1        4 0.44584658E-01 0.12500564E+03</pdfrwt>
<pdfrwt beam="1">  1       -4 0.54763826E-02 0.12500564E+03</pdfrwt>
<totfact> 0.16310143E+03</totfact>
</mgrwt>
</event>
<event>
 5    1  0.1423270E-002  0.1249981E+03  0.7818608E-02  0.1235072E+00
          4   -1    0    0  501    0  0.00000000000E+00  0.00000000000E+00  0.56469516150E+03  0.56469658961E+03  0.12700000000E+01 0.  1.
         -4   -1    0    0    0  501 -0.00000000000E+00 -0.00000000000E+00 -0.68575015098E+01  0.69741111948E+01  0.12700000000E+01 0.  1.
         25    2    1    2    0    0  0.00000000000E+00  0.00000000000E+00  0.55783765999E+03  0.57167070081E+03  0.12499814103E+03 0.  0.
    9000005    1    3    3    0    0  0.62015890043E+02  0.71607473553E+01  0.26607497495E+03  0.27330228542E+03  0.10000000000E+01 0.  0.
    9000005    1    3    3    0    0 -0.62015890043E+02 -0.71607473553E+01  0.29176268504E+03  0.29836841539E+03  0.10000000000E+01 0.  0.
<mgrwt>
<rscale>  0 0.12499814E+03</rscale>
<asrwt>0</asrwt>
<pdfrwt beam="1">  1        4 0.14118852E+00 0.12499814E+03</pdfrwt>
<pdfrwt beam="2">  1       -4 0.17291304E-02 0.12499814E+03</pdfrwt>
<totfact> 0.77190341E+02</totfact>
</mgrwt>
</event>
<event>
 5    1  0.1423270E-002  0.1250010E+03  0.7818608E-02  0.1235068E+00
         -4   -1    0    0    0  501 -0.00000000000E+00  0.00000000000E+00  0.63019499326E+01  0.64286447213E+01  0.12700000000E+01 0. -1.
          4   -1    0    0  501    0  0.00000000000E+00 -0.00000000000E+00 -0.61356183506E+03  0.61356314943E+03  0.12700000000E+01 0. -1.
         25    2    1    2    0    0  0.00000000000E+00  0.00000000000E+00 -0.60725988512E+03  0.61999179415E+03  0.12500102693E+03 0.  0.
    9000005    1    3    3    0    0 -0.40114193675E+02 -0.18734755878E+02 -0.84878133988E+02  0.95736290096E+02  0.10000000000E+01 0.  0.
    9000005    1    3    3    0    0  0.40114193675E+02  0.18734755878E+02 -0.52238175114E+03  0.52425550405E+03  0.10000000000E+01 0.  0.
<mgrwt>
<rscale>  0 0.12500103E+03</rscale>
<asrwt>0</asrwt>
<pdfrwt beam="2">  1        4 0.15340626E+00 0.12500103E+03</pdfrwt>
<pdfrwt beam="1">  1       -4 0.15914907E-02 0.12500103E+03</pdfrwt>
<totfact> 0.71041521E+02</totfact>
</mgrwt>
</event>
<event>
 5    1  0.1423270E-002  0.1250024E+03  0.7818608E-02  0.1235066E+00
         -4   -1    0    0    0  501 -0.00000000000E+00  0.00000000000E+00  0.25866995230E+02  0.25898153259E+02  0.12700000000E+01 0.  1.
          4   -1    0    0  501    0  0.00000000000E+00 -0.00000000000E+00 -0.15089399959E+03  0.15089934397E+03  0.12700000000E+01 0.  1.
         25    2    1    2    0    0  0.00000000000E+00  0.00000000000E+00 -0.12502700436E+03  0.17679749723E+03  0.12500241281E+03 0.  0.
    9000005    1    3    3    0    0  0.36133769303E+02 -0.50987701829E+02 -0.62621034638E+02  0.88474793026E+02  0.10000000000E+01 0.  0.
    9000005    1    3    3    0    0 -0.36133769303E+02  0.50987701829E+02 -0.62405969717E+02  0.88322704205E+02  0.10000000000E+01 0.  0.
<mgrwt>
<rscale>  0 0.12500241E+03</rscale>
<asrwt>0</asrwt>
<pdfrwt beam="2">  1        4 0.37728060E-01 0.12500241E+03</pdfrwt>
<pdfrwt beam="1">  1       -4 0.64713120E-02 0.12500241E+03</pdfrwt>
<totfact> 0.17293771E+03</totfact>
</mgrwt>
</event>
<event>
 5    1  0.1423270E-002  0.1250051E+03  0.7818608E-02  0.1235061E+00
         -4   -1    0    0    0  501 -0.00000000000E+00  0.00000000000E+00  0.90031835031E+03  0.90031924605E+03  0.12700000000E+01 0.  1.
          4   -1    0    0  501    0  0.00000000000E+00 -0.00000000000E+00 -0.42452548038E+01  0.44311497773E+01  0.12700000000E+01 0.  1.
         25    2    1    2    0    0  0.00000000000E+00  0.00000000000E+00  0.89607309551E+03  0.90475039583E+03  0.12500514492E+03 0.  0.
    9000005    1    3    3    0    0 -0.29687010045E+02  0.54941331124E+02  0.46532108053E+03  0.46949395781E+03  0.10000000000E+01 0.  0.
    9000005    1    3    3    0    0  0.29687010045E+02 -0.54941331124E+02  0.43075201498E+03  0.43525643802E+03  0.10000000000E+01 0.  0.
<mgrwt>
<rscale>  0 0.12500514E+03</rscale>
<asrwt>0</asrwt>
<pdfrwt beam="2">  1        4 0.10846625E-02 0.12500514E+03</pdfrwt>
<pdfrwt beam="1">  1       -4 0.22510294E+00 0.12500514E+03</pdfrwt>
<totfact> 0.43908220E+02</totfact>
</mgrwt>
</event>
<event>
 5    1  0.1423270E-002  0.1250009E+03  0.7818608E-02  0.1235068E+00
         -4   -1    0    0    0  501 -0.00000000000E+00  0.00000000000E+00  0.14702534724E+04  0.14702540209E+04  0.12700000000E+01 0.  1.
          4   -1    0    0  501    0  0.00000000000E+00 -0.00000000000E+00 -0.25045453993E+01  0.28081395366E+01  0.12700000000E+01 0.  1.
         25    2    1    2    0    0  0.00000000000E+00  0.00000000000E+00  0.14677489270E+04  0.14730621604E+04  0.12500086332E+03 0.  0.
    9000005    1    3    3    0    0  0.24312402025E+02  0.50037462551E+02  0.10693607455E+04  0.10708072864E+04  0.10000000000E+01 0.  0.
    9000005    1    3    3    0    0 -0.24312402025E+02 -0.50037462551E+02  0.39838818153E+03  0.40225487410E+03  0.10000000000E+01 0.  0.
<mgrwt>
<rscale>  0 0.12500086E+03</rscale>
<asrwt>0</asrwt>
<pdfrwt beam="2">  1        4 0.66415411E-03 0.12500086E+03</pdfrwt>
<pdfrwt beam="1">  1       -4 0.36760142E+00 0.12500086E+03</pdfrwt>
<totfact> 0.13400311E+02</totfact>
</mgrwt>
</event>
<event>
 5    1  0.1423270E-002  0.1249811E+03  0.7818608E-02  0.1235099E+00
          4   -1    0    0  501    0  0.00000000000E+00  0.00000000000E+00  0.31311861543E+02  0.31337606374E+02  0.12700000000E+01 0. -1.
         -4   -1    0    0    0  501 -0.00000000000E+00 -0.00000000000E+00 -0.12463510790E+03  0.12464157822E+03  0.12700000000E+01 0. -1.
         25    2    1    2    0    0  0.00000000000E+00  0.00000000000E+00 -0.93323246356E+02  0.15597918459E+03  0.12498110944E+03 0.  0.
    9000005    1    3    3    0    0  0.14564299285E+02 -0.34978291428E+02  0.15344727822E+02  0.40890834631E+02  0.10000000000E+01 0.  0.
    9000005    1    3    3    0    0 -0.14564299285E+02  0.34978291428E+02 -0.10866797418E+03  0.11508834996E+03  0.10000000000E+01 0.  0.
<mgrwt>
<rscale>  0 0.12498111E+03</rscale>
<asrwt>0</asrwt>
<pdfrwt beam="1">  1        4 0.78319926E-02 0.12498111E+03</pdfrwt>
<pdfrwt beam="2">  1       -4 0.31162803E-01 0.12498111E+03</pdfrwt>
<totfact> 0.18256656E+03</totfact>
</mgrwt>
</event>
<event>
 5    1  0.1423270E-002  0.1250025E+03  0.7818608E-02  0.1235065E+00
          4   -1    0    0  501    0  0.00000000000E+00  0.00000000000E+00  0.58320310613E+03  0.58320448892E+03  0.12700000000E+01 0. -1.
         -4   -1    0    0    0  501 -0.00000000000E+00 -0.00000000000E+00 -0.66365888307E+01  0.67570120104E+01  0.12700000000E+01 0. -1.
         25    2    1    2    0    0  0.00000000000E+00  0.00000000000E+00  0.57656651730E+03  0.58996150093E+03  0.12500249483E+03 0.  0.
    9000005    1    3    3    0    0 -0.50096780271E+02  0.51055688781E+00  0.11197877581E+03  0.12267923335E+03  0.10000000000E+01 0.  0.
    9000005    1    3    3    0    0  0.50096780271E+02 -0.51055688781E+00  0.46458774149E+03  0.46728226759E+03  0.10000000000E+01 0.  0.
<mgrwt>
<rscale>  0 0.12500249E+03</rscale>
<asrwt>0</asrwt>
<pdfrwt beam="1">  1        4 0.14581601E+00 0.12500249E+03</pdfrwt>
<pdfrwt beam="2">  1       -4 0.16743729E-02 0.12500249E+03</pdfrwt>
<totfact> 0.74776408E+02</totfact>
</mgrwt>
</event>
<event>
 5    1  0.1423270E-002  0.1249992E+03  0.7818608E-02  0.1235071E+00
         -4   -1    0    0    0  501 -0.00000000000E+00  0.00000000000E+00  0.66579276872E+02  0.66591388398E+02  0.12700000000E+01 0. -1.
          4   -1    0    0  501    0  0.00000000000E+00 -0.00000000000E+00 -0.58645540782E+02  0.58659290429E+02  0.12700000000E+01 0. -1.
         25    2    1    2    0    0  0.00000000000E+00  0.00000000000E+00  0.79337360895E+01  0.12525067883E+03  0.12499915351E+03 0.  0.
    9000005    1    3    3    0    0  0.74219683978E+01 -0.60450715559E+02 -0.10054948355E+02  0.61737157474E+02  0.10000000000E+01 0.  0.
    9000005    1    3    3    0    0 -0.74219683978E+01  0.60450715559E+02  0.17988684445E+02  0.63513521353E+02  0.10000000000E+01 0.  0.
<mgrwt>
<rscale>  0 0.12499915E+03</rscale>
<asrwt>0</asrwt>
<pdfrwt beam="2">  1        4 0.14664618E-01 0.12499915E+03</pdfrwt>
<pdfrwt beam="1">  1       -4 0.16648052E-01 0.12499915E+03</pdfrwt>
<totfact> 0.19821859E+03</totfact>
</mgrwt>
</event>
<event>
 5    1  0.1423270E-002  0.1249997E+03  0.7818608E-02  0.1235070E+00
          4   -1    0    0  501    0  0.00000000000E+00  0.00000000000E+00  0.22656680383E+03  0.22657036324E+03  0.12700000000E+01 0. -1.
         -4   -1    0    0    0  501 -0.00000000000E+00 -0.00000000000E+00 -0.17213892319E+02  0.17260677529E+02  0.12700000000E+01 0. -1.
         25    2    1    2    0    0  0.00000000000E+00  0.00000000000E+00  0.20935291151E+03  0.24383104077E+03  0.12499973953E+03 0.  0.
    9000005    1    3    3    0    0  0.27004577638E+02 -0.34423694976E+02  0.19171568746E+03  0.19664725476E+03  0.10000000000E+01 0.  0.
    9000005    1    3    3    0    0 -0.27004577638E+02  0.34423694976E+02  0.17637224053E+02  0.47183786002E+02  0.10000000000E+01 0.  0.
<mgrwt>
<rscale>  0 0.12499974E+03</rscale>
<asrwt>0</asrwt>
<pdfrwt beam="1">  1        4 0.56647993E-01 0.12499974E+03</pdfrwt>
<pdfrwt beam="2">  1       -4 0.43097662E-02 0.12499974E+03</pdfrwt>
<totfact> 0.14705462E+03</totfact>
</mgrwt>
</event>
<event>
 5    1  0.1423270E-002  0.1249987E+03  0.7818608E-02  0.1235071E+00
          4   -1    0    0  501    0  0.00000000000E+00  0.00000000000E+00  0.13185649659E+03  0.13186261257E+03  0.12700000000E+01 0.  1.
         -4   -1    0    0    0  501 -0.00000000000E+00 -0.00000000000E+00 -0.29603973353E+02  0.29631202106E+02  0.12700000000E+01 0.  1.
         25    2    1    2    0    0  0.00000000000E+00  0.00000000000E+00  0.10225252324E+03  0.16149381467E+03  0.12499869467E+03 0.  0.
    9000005    1    3    3    0    0  0.36392009717E+02 -0.12843657867E+01 -0.14486438721E+02  0.39203123262E+02  0.10000000000E+01 0.  0.
    9000005    1    3    3    0    0 -0.36392009717E+02  0.12843657867E+01  0.11673896196E+03  0.12229069141E+03  0.10000000000E+01 0.  0.
<mgrwt>
<rscale>  0 0.12499869E+03</rscale>
<asrwt>0</asrwt>
<pdfrwt beam="1">  1        4 0.32968292E-01 0.12499869E+03</pdfrwt>
<pdfrwt beam="2">  1       -4 0.74051615E-02 0.12499869E+03</pdfrwt>
<totfact> 0.17988225E+03</totfact>
</mgrwt>
</event>
<event>
 5    1  0.1423270E-002  0.1249989E+03  0.7818608E-02  0.1235071E+00
          4   -1    0    0  501    0  0.00000000000E+00  0.00000000000E+00  0.24572813141E+03  0.24573141326E+03  0.12700000000E+01 0. -1.
         -4   -1    0    0    0  501 -0.00000000000E+00 -0.00000000000E+00 -0.15867592425E+02  0.15918335006E+02  0.12700000000E+01 0. -1.
         25    2    1    2    0    0  0.00000000000E+00  0.00000000000E+00  0.22986053898E+03  0.26164974827E+03  0.12499889355E+03 0.  0.
    9000005    1    3    3    0    0  0.10522501891E+02  0.56336427033E+02  0.16707887588E+03  0.17663767102E+03  0.10000000000E+01 0.  0.
    9000005    1    3    3    0    0 -0.10522501891E+02 -0.56336427033E+02  0.62781663098E+02  0.85012077249E+02  0.10000000000E+01 0.  0.
<mgrwt>
<rscale>  0 0.12499889E+03</rscale>
<asrwt>0</asrwt>
<pdfrwt beam="1">  1        4 0.61438785E-01 0.12499889E+03</pdfrwt>
<pdfrwt beam="2">  1       -4 0.39736512E-02 0.12499889E+03</pdfrwt>
<totfact> 0.14118688E+03</totfact>
</mgrwt>
</event>
<event>
 5    1  0.1423270E-002  0.1249903E+03  0.7818608E-02  0.1235084E+00
         -4   -1    0    0    0  501 -0.00000000000E+00  0.00000000000E+00  0.73424312840E+02  0.73435295437E+02  0.12700000000E+01 0. -1.
          4   -1    0    0  501    0  0.00000000000E+00 -0.00000000000E+00 -0.53170237809E+02  0.53185402966E+02  0.12700000000E+01 0. -1.
         25    2    1    2    0    0  0.00000000000E+00  0.00000000000E+00  0.20254075031E+02  0.12662069840E+03  0.12499029446E+03 0.  0.
    9000005    1    3    3    0    0 -0.54137887676E+02  0.22821726075E+02 -0.11432042670E+02  0.59861788001E+02  0.10000000000E+01 0.  0.
    9000005    1    3    3    0    0  0.54137887676E+02 -0.22821726075E+02  0.31686117701E+02  0.66758910402E+02  0.10000000000E+01 0.  0.
<mgrwt>
<rscale>  0 0.12499029E+03</rscale>
<asrwt>0</asrwt>
<pdfrwt beam="2">  1        4 0.13295828E-01 0.12499029E+03</pdfrwt>
<pdfrwt beam="1">  1       -4 0.18359347E-01 0.12499029E+03</pdfrwt>
<totfact> 0.19751899E+03</totfact>
</mgrwt>
</event>
<event>
 5    1  0.1423270E-002  0.1249970E+03  0.7818608E-02  0.1235074E+00
         -4   -1    0    0    0  501 -0.00000000000E+00  0.00000000000E+00  0.11326590936E+03  0.11327302910E+03  0.12700000000E+01 0.  1.
          4   -1    0    0  501    0  0.00000000000E+00 -0.00000000000E+00 -0.34465854810E+02  0.34489245393E+02  0.12700000000E+01 0.  1.
         25    2    1    2    0    0  0.00000000000E+00  0.00000000000E+00  0.78800054545E+02  0.14776227450E+03  0.12499696464E+03 0.  0.
    9000005    1    3    3    0    0 -0.82590472782E+01 -0.61434492348E+02  0.30043167634E+02  0.68891223196E+02  0.10000000000E+01 0.  0.
    9000005    1    3    3    0    0  0.82590472782E+01  0.61434492348E+02  0.48756886911E+02  0.78871051300E+02  0.10000000000E+01 0.  0.
<mgrwt>
<rscale>  0 0.12499696E+03</rscale>
<asrwt>0</asrwt>
<pdfrwt beam="2">  1        4 0.86202775E-02 0.12499696E+03</pdfrwt>
<pdfrwt beam="1">  1       -4 0.28320291E-01 0.12499696E+03</pdfrwt>
<totfact> 0.18650678E+03</totfact>
</mgrwt>
</event>
<event>
 5    1  0.1423270E-002  0.1249965E+03  0.7818608E-02  0.1235075E+00
          4   -1    0    0  501    0  0.00000000000E+00  0.00000000000E+00  0.10402232037E+03  0.10403007275E+03  0.12700000000E+01 0. -1.
         -4   -1    0    0    0  501 -0.00000000000E+00 -0.00000000000E+00 -0.37530070063E+02  0.37551552018E+02  0.12700000000E+01 0. -1.
         25    2    1    2    0    0  0.00000000000E+00  0.00000000000E+00  0.66492250308E+02  0.14158162476E+03  0.12499654843E+03 0.  0.
    9000005    1    3    3    0    0  0.46159300653E+02 -0.34717197814E+02  0.62257425054E+01  0.58100987346E+02  0.10000000000E+01 0.  0.
    9000005    1    3    3    0    0 -0.46159300653E+02  0.34717197814E+02  0.60266507803E+02  0.83480637417E+02  0.10000000000E+01 0.  0.
<mgrwt>
<rscale>  0 0.12499655E+03</rscale>
<asrwt>0</asrwt>
<pdfrwt beam="1">  1        4 0.26009234E-01 0.12499655E+03</pdfrwt>
<pdfrwt beam="2">  1       -4 0.93861719E-02 0.12499655E+03</pdfrwt>
<totfact> 0.18961245E+03</totfact>
</mgrwt>
</event>
<event>
 5    1  0.1423270E-002  0.1250017E+03  0.7818608E-02  0.1235067E+00
         -4   -1    0    0    0  501 -0.00000000000E+00  0.00000000000E+00  0.43346443587E+02  0.43365044352E+02  0.12700000000E+01 0.  1.
          4   -1    0    0  501    0  0.00000000000E+00 -0.00000000000E+00 -0.90077011480E+02  0.90085963930E+02  0.12700000000E+01 0.  1.
         25    2    1    2    0    0  0.00000000000E+00  0.00000000000E+00 -0.46730567893E+02  0.13345100828E+03  0.12500170253E+03 0.  0.
    9000005    1    3    3    0    0  0.32050070163E+02 -0.41287464575E+02 -0.59937097237E+02  0.79531863763E+02  0.10000000000E+01 0.  0.
    9000005    1    3    3    0    0 -0.32050070163E+02  0.41287464575E+02  0.13206529344E+02  0.53919144520E+02  0.10000000000E+01 0.  0.
<mgrwt>
<rscale>  0 0.12500170E+03</rscale>
<asrwt>0</asrwt>
<pdfrwt beam="2">  1        4 0.22522697E-01 0.12500170E+03</pdfrwt>
<pdfrwt beam="1">  1       -4 0.10840055E-01 0.12500170E+03</pdfrwt>
<totfact> 0.19379812E+03</totfact>
</mgrwt>
</event>
<event>
 5    1  0.1423270E-002  0.1250001E+03  0.7818608E-02  0.1235069E+00
          4   -1    0    0  501    0  0.00000000000E+00  0.00000000000E+00  0.87834129566E+03  0.87834221381E+03  0.12700000000E+01 0.  1.
         -4   -1    0    0    0  501 -0.00000000000E+00 -0.00000000000E+00 -0.43557070126E+01  0.45370787496E+01  0.12700000000E+01 0.  1.
         25    2    1    2    0    0  0.00000000000E+00  0.00000000000E+00  0.87398558865E+03  0.88287929256E+03  0.12500014427E+03 0.  0.
    9000005    1    3    3    0    0 -0.89351167128E-01  0.48397977409E+02  0.71621797484E+03  0.71785204582E+03  0.10000000000E+01 0.  0.
    9000005    1    3    3    0    0  0.89351167128E-01 -0.48397977409E+02  0.15776761381E+03  0.16502724674E+03  0.10000000000E+01 0.  0.
<mgrwt>
<rscale>  0 0.12500014E+03</rscale>
<asrwt>0</asrwt>
<pdfrwt beam="1">  1        4 0.21960817E+00 0.12500014E+03</pdfrwt>
<pdfrwt beam="2">  1       -4 0.11117127E-02 0.12500014E+03</pdfrwt>
<totfact> 0.45597125E+02</totfact>
</mgrwt>
</event>
<event>
 5    1  0.1423270E-002  0.1249876E+03  0.7818608E-02  0.1235089E+00
         -4   -1    0    0    0  501 -0.00000000000E+00  0.00000000000E+00  0.64207929055E+03  0.64208054655E+03  0.12700000000E+01 0. -1.
          4   -1    0    0  501    0  0.00000000000E+00 -0.00000000000E+00 -0.60149759248E+01  0.61475877689E+01  0.12700000000E+01 0. -1.
         25    2    1    2    0    0  0.00000000000E+00  0.00000000000E+00  0.63606431463E+03  0.64822813432E+03  0.12498760650E+03 0.  0.
    9000005    1    3    3    0    0 -0.44818422819E+02 -0.20621345502E+02  0.51691623466E+03  0.51926614041E+03  0.10000000000E+01 0.  0.
    9000005    1    3    3    0    0  0.44818422819E+02  0.20621345502E+02  0.11914807996E+03  0.12896199391E+03  0.10000000000E+01 0.  0.
<mgrwt>
<rscale>  0 0.12498761E+03</rscale>
<asrwt>0</asrwt>
<pdfrwt beam="2">  1        4 0.15204775E-02 0.12498761E+03</pdfrwt>
<pdfrwt beam="1">  1       -4 0.16053656E+00 0.12498761E+03</pdfrwt>
<totfact> 0.67732996E+02</totfact>
</mgrwt>
</event>
<event>
 5    1  0.1423270E-002  0.1249981E+03  0.7818608E-02  0.1235072E+00
          4   -1    0    0  501    0  0.00000000000E+00  0.00000000000E+00  0.51176543642E+02  0.51192299413E+02  0.12700000000E+01 0. -1.
         -4   -1    0    0    0  501 -0.00000000000E+00 -0.00000000000E+00 -0.76293823379E+02  0.76304392965E+02  0.12700000000E+01 0. -1.
         25    2    1    2    0    0  0.00000000000E+00  0.00000000000E+00 -0.25117279737E+02  0.12749669238E+03  0.12499811529E+03 0.  0.
    9000005    1    3    3    0    0  0.11884875097E+02 -0.48804168019E+02  0.25360195954E+02  0.56278207247E+02  0.10000000000E+01 0.  0.
    9000005    1    3    3    0    0 -0.11884875097E+02  0.48804168019E+02 -0.50477475691E+02  0.71218485130E+02  0.10000000000E+01 0.  0.
<mgrwt>
<rscale>  0 0.12499812E+03</rscale>
<asrwt>0</asrwt>
<pdfrwt beam="1">  1        4 0.12797427E-01 0.12499812E+03</pdfrwt>
<pdfrwt beam="2">  1       -4 0.19076746E-01 0.12499812E+03</pdfrwt>
<totfact> 0.19700832E+03</totfact>
</mgrwt>
</event>
<event>
 5    1  0.1423270E-002  0.1250031E+03  0.7818608E-02  0.1235064E+00
         -4   -1    0    0    0  501 -0.00000000000E+00  0.00000000000E+00  0.12138433469E+03  0.12139097828E+03  0.12700000000E+01 0. -1.
          4   -1    0    0  501    0  0.00000000000E+00 -0.00000000000E+00 -0.32162399098E+02  0.32187463643E+02  0.12700000000E+01 0. -1.
         25    2    1    2    0    0  0.00000000000E+00  0.00000000000E+00  0.89221935594E+02  0.15357844193E+03  0.12500313609E+03 0.  0.
    9000005    1    3    3    0    0  0.90216411798E+01  0.57905498223E+02  0.17947042874E+02  0.61298720068E+02  0.10000000000E+01 0.  0.
    9000005    1    3    3    0    0 -0.90216411798E+01 -0.57905498223E+02  0.71274892720E+02  0.92279721858E+02  0.10000000000E+01 0.  0.
<mgrwt>
<rscale>  0 0.12500314E+03</rscale>
<asrwt>0</asrwt>
<pdfrwt beam="2">  1        4 0.80445633E-02 0.12500314E+03</pdfrwt>
<pdfrwt beam="1">  1       -4 0.30350047E-01 0.12500314E+03</pdfrwt>
<totfact> 0.18362877E+03</totfact>
</mgrwt>
</event>
<event>
 5    1  0.1423270E-002  0.1250001E+03  0.7818608E-02  0.1235069E+00
         -4   -1    0    0    0  501 -0.00000000000E+00  0.00000000000E+00  0.52911549093E+02  0.52926788373E+02  0.12700000000E+01 0. -1.
          4   -1    0    0  501    0  0.00000000000E+00 -0.00000000000E+00 -0.73794765888E+02  0.73805693361E+02  0.12700000000E+01 0. -1.
         25    2    1    2    0    0  0.00000000000E+00  0.00000000000E+00 -0.20883216795E+02  0.12673248173E+03  0.12500005273E+03 0.  0.
    9000005    1    3    3    0    0  0.30095271647E+02  0.50321890924E+02 -0.32356812850E+02  0.66977469491E+02  0.10000000000E+01 0.  0.
    9000005    1    3    3    0    0 -0.30095271647E+02 -0.50321890924E+02  0.11473596055E+02  0.59755012242E+02  0.10000000000E+01 0.  0.
<mgrwt>
<rscale>  0 0.12500005E+03</rscale>
<asrwt>0</asrwt>
<pdfrwt beam="2">  1        4 0.18451962E-01 0.12500005E+03</pdfrwt>
<pdfrwt beam="1">  1       -4 0.13231158E-01 0.12500005E+03</pdfrwt>
<totfact> 0.19741365E+03</totfact>
</mgrwt>
</event>
<event>
 5    1  0.1423270E-002  0.1250018E+03  0.7818608E-02  0.1235066E+00
         -4   -1    0    0    0  501 -0.00000000000E+00  0.00000000000E+00  0.11310437344E+02  0.11381515405E+02  0.12700000000E+01 0.  1.
          4   -1    0    0  501    0  0.00000000000E+00 -0.00000000000E+00 -0.34422268678E+03  0.34422502959E+03  0.12700000000E+01 0.  1.
         25    2    1    2    0    0  0.00000000000E+00  0.00000000000E+00 -0.33291224944E+03  0.35560654499E+03  0.12500179605E+03 0.  0.
    9000005    1    3    3    0    0 -0.60227549844E+02 -0.80629468583E+01 -0.12493811299E+03  0.13893488025E+03  0.10000000000E+01 0.  0.
    9000005    1    3    3    0    0  0.60227549844E+02  0.80629468583E+01 -0.20797413645E+03  0.21667166475E+03  0.10000000000E+01 0.  0.
<mgrwt>
<rscale>  0 0.12500180E+03</rscale>
<asrwt>0</asrwt>
<pdfrwt beam="2">  1        4 0.86064815E-01 0.12500180E+03</pdfrwt>
<pdfrwt beam="1">  1       -4 0.28367881E-02 0.12500180E+03</pdfrwt>
<totfact> 0.11544262E+03</totfact>
</mgrwt>
</event>
<event>
 5    1  0.1423270E-002  0.1250006E+03  0.7818608E-02  0.1235068E+00
          4   -1    0    0  501    0  0.00000000000E+00  0.00000000000E+00  0.16522095524E+03  0.16522583621E+03  0.12700000000E+01 0.  1.
         -4   -1    0    0    0  501 -0.00000000000E+00 -0.00000000000E+00 -0.23620506794E+02  0.23654624098E+02  0.12700000000E+01 0.  1.
         25    2    1    2    0    0  0.00000000000E+00  0.00000000000E+00  0.14160044845E+03  0.18888046031E+03  0.12500056514E+03 0.  0.
    9000005    1    3    3    0    0 -0.39605030240E+02  0.48207037332E+02  0.65392389762E+02  0.90386069211E+02  0.10000000000E+01 0.  0.
    9000005    1    3    3    0    0  0.39605030240E+02 -0.48207037332E+02  0.76208058684E+02  0.98494391094E+02  0.10000000000E+01 0.  0.
<mgrwt>
<rscale>  0 0.12500057E+03</rscale>
<asrwt>0</asrwt>
<pdfrwt beam="1">  1        4 0.41310113E-01 0.12500057E+03</pdfrwt>
<pdfrwt beam="2">  1       -4 0.59100016E-02 0.12500057E+03</pdfrwt>
<totfact> 0.16776966E+03</totfact>
</mgrwt>
</event>
<event>
 5    1  0.1423270E-002  0.1250009E+03  0.7818608E-02  0.1235068E+00
         -4   -1    0    0    0  501 -0.00000000000E+00  0.00000000000E+00  0.28272325367E+02  0.28300835353E+02  0.12700000000E+01 0. -1.
          4   -1    0    0  501    0  0.00000000000E+00 -0.00000000000E+00 -0.13806604355E+03  0.13807188447E+03  0.12700000000E+01 0. -1.
         25    2    1    2    0    0  0.00000000000E+00  0.00000000000E+00 -0.10979371818E+03  0.16637271982E+03  0.12500088539E+03 0.  0.
    9000005    1    3    3    0    0 -0.51814387353E+02 -0.22667301228E+02 -0.19512813716E+02  0.59835501008E+02  0.10000000000E+01 0.  0.
    9000005    1    3    3    0    0  0.51814387353E+02  0.22667301228E+02 -0.90280904465E+02  0.10653721881E+03  0.10000000000E+01 0.  0.
<mgrwt>
<rscale>  0 0.12500089E+03</rscale>
<asrwt>0</asrwt>
<pdfrwt beam="2">  1        4 0.34520803E-01 0.12500089E+03</pdfrwt>
<pdfrwt beam="1">  1       -4 0.70723756E-02 0.12500089E+03</pdfrwt>
<totfact> 0.17761539E+03</totfact>
</mgrwt>
</event>
<event>
 5    1  0.1423270E-002  0.1249962E+03  0.7818608E-02  0.1235075E+00
         -4   -1    0    0    0  501 -0.00000000000E+00  0.00000000000E+00  0.14398141088E+03  0.14398701185E+03  0.12700000000E+01 0.  1.
          4   -1    0    0  501    0  0.00000000000E+00 -0.00000000000E+00 -0.27107595750E+02  0.27137329407E+02  0.12700000000E+01 0.  1.
         25    2    1    2    0    0  0.00000000000E+00  0.00000000000E+00  0.11687381513E+03  0.17112434125E+03  0.12499620596E+03 0.  0.
    9000005    1    3    3    0    0 -0.32919762564E+02 -0.25546081871E+02  0.12219197054E+03  0.12910534741E+03  0.10000000000E+01 0.  0.
    9000005    1    3    3    0    0  0.32919762564E+02  0.25546081871E+02 -0.53181554060E+01  0.42018993838E+02  0.10000000000E+01 0.  0.
<mgrwt>
<rscale>  0 0.12499621E+03</rscale>
<asrwt>0</asrwt>
<pdfrwt beam="2">  1        4 0.67813159E-02 0.12499621E+03</pdfrwt>
<pdfrwt beam="1">  1       -4 0.35999769E-01 0.12499621E+03</pdfrwt>
<totfact> 0.17547999E+03</totfact>
</mgrwt>
</event>
<event>
 5    1  0.1423270E-002  0.1250004E+03  0.7818608E-02  0.1235069E+00
         -4   -1    0    0    0  501 -0.00000000000E+00  0.00000000000E+00  0.21951216079E+03  0.21951583459E+03  0.12700000000E+01 0. -1.
          4   -1    0    0  501    0  0.00000000000E+00 -0.00000000000E+00 -0.17768782202E+02  0.17814110164E+02  0.12700000000E+01 0. -1.
         25    2    1    2    0    0  0.00000000000E+00  0.00000000000E+00  0.20174337859E+03  0.23732994475E+03  0.12500044748E+03 0.  0.
    9000005    1    3    3    0    0 -0.24927572251E+01  0.55606636357E+02  0.46936945283E+02  0.72817502553E+02  0.10000000000E+01 0.  0.
    9000005    1    3    3    0    0  0.24927572251E+01 -0.55606636357E+02  0.15480643330E+03  0.16451244220E+03  0.10000000000E+01 0.  0.
<mgrwt>
<rscale>  0 0.12500045E+03</rscale>
<asrwt>0</asrwt>
<pdfrwt beam="2">  1        4 0.44483207E-02 0.12500045E+03</pdfrwt>
<pdfrwt beam="1">  1       -4 0.54884166E-01 0.12500045E+03</pdfrwt>
<totfact> 0.14928731E+03</totfact>
</mgrwt>
</event>
<event>
 5    1  0.1423270E-002  0.1250011E+03  0.7818608E-02  0.1235068E+00
          4   -1    0    0  501    0  0.00000000000E+00  0.00000000000E+00  0.99890398145E+02  0.99898471167E+02  0.12700000000E+01 0.  1.
         -4   -1    0    0    0  501 -0.00000000000E+00 -0.00000000000E+00 -0.39086050198E+02  0.39106677436E+02  0.12700000000E+01 0.  1.
         25    2    1    2    0    0  0.00000000000E+00  0.00000000000E+00  0.60804347947E+02  0.13900514860E+03  0.12500105043E+03 0.  0.
    9000005    1    3    3    0    0 -0.42482418922E+02  0.19926439191E+02  0.76299552301E+02  0.89579241891E+02  0.10000000000E+01 0.  0.
    9000005    1    3    3    0    0  0.42482418922E+02 -0.19926439191E+02 -0.15495204354E+02  0.49425906712E+02  0.10000000000E+01 0.  0.
<mgrwt>
<rscale>  0 0.12500105E+03</rscale>
<asrwt>0</asrwt>
<pdfrwt beam="1">  1        4 0.24976187E-01 0.12500105E+03</pdfrwt>
<pdfrwt beam="2">  1       -4 0.97751001E-02 0.12500105E+03</pdfrwt>
<totfact> 0.19090885E+03</totfact>
</mgrwt>
</event>
<event>
 5    1  0.1423270E-002  0.1250021E+03  0.7818608E-02  0.1235066E+00
         -4   -1    0    0    0  501 -0.00000000000E+00  0.00000000000E+00  0.34851603111E+03  0.34851834506E+03  0.12700000000E+01 0. -1.
          4   -1    0    0  501    0  0.00000000000E+00 -0.00000000000E+00 -0.11170286681E+02  0.11242250866E+02  0.12700000000E+01 0. -1.
         25    2    1    2    0    0  0.00000000000E+00  0.00000000000E+00  0.33734574443E+03  0.35976059593E+03  0.12500214036E+03 0.  0.
    9000005    1    3    3    0    0 -0.31241513991E+02  0.31289328967E+02  0.41571530187E+02  0.60697993589E+02  0.10000000000E+01 0.  0.
    9000005    1    3    3    0    0  0.31241513991E+02 -0.31289328967E+02  0.29577421425E+03  0.29906260234E+03  0.10000000000E+01 0.  0.
<mgrwt>
<rscale>  0 0.12500214E+03</rscale>
<asrwt>0</asrwt>
<pdfrwt beam="2">  1        4 0.28018563E-02 0.12500214E+03</pdfrwt>
<pdfrwt beam="1">  1       -4 0.87138296E-01 0.12500214E+03</pdfrwt>
<totfact> 0.11447378E+03</totfact>
</mgrwt>
</event>
<event>
 5    1  0.1423270E-002  0.1249902E+03  0.7818608E-02  0.1235085E+00
         -4   -1    0    0    0  501 -0.00000000000E+00  0.00000000000E+00  0.16474008682E+02  0.16522889035E+02  0.12700000000E+01 0.  1.
          4   -1    0    0  501    0  0.00000000000E+00 -0.00000000000E+00 -0.23667683575E+03  0.23668024311E+03  0.12700000000E+01 0.  1.
         25    2    1    2    0    0  0.00000000000E+00  0.00000000000E+00 -0.22020282707E+03  0.25320313215E+03  0.12499016394E+03 0.  0.
    9000005    1    3    3    0    0 -0.53530533819E+01 -0.51049992008E+02 -0.18229095862E+03  0.18938255056E+03  0.10000000000E+01 0.  0.
    9000005    1    3    3    0    0  0.53530533819E+01  0.51049992008E+02 -0.37911868451E+02  0.63820581586E+02  0.10000000000E+01 0.  0.
<mgrwt>
<rscale>  0 0.12499016E+03</rscale>
<asrwt>0</asrwt>
<pdfrwt beam="2">  1        4 0.59175734E-01 0.12499016E+03</pdfrwt>
<pdfrwt beam="1">  1       -4 0.41250389E-02 0.12499016E+03</pdfrwt>
<totfact> 0.14395293E+03</totfact>
</mgrwt>
</event>
<event>
 5    1  0.1423270E-002  0.1250036E+03  0.7818608E-02  0.1235064E+00
         -4   -1    0    0    0  501 -0.00000000000E+00  0.00000000000E+00  0.72447257298E+01  0.73551989028E+01  0.12700000000E+01 0.  1.
          4   -1    0    0  501    0  0.00000000000E+00 -0.00000000000E+00 -0.53502531368E+03  0.53502682099E+03  0.12700000000E+01 0.  1.
         25    2    1    2    0    0  0.00000000000E+00  0.00000000000E+00 -0.52778058795E+03  0.54238201989E+03  0.12500362589E+03 0.  0.
    9000005    1    3    3    0    0  0.11050604970E+02 -0.48021384203E+01  0.21784954172E+01  0.12285041551E+02  0.10000000000E+01 0.  0.
    9000005    1    3    3    0    0 -0.11050604970E+02  0.48021384203E+01 -0.52995908336E+03  0.53009697834E+03  0.10000000000E+01 0.  0.
<mgrwt>
<rscale>  0 0.12500363E+03</rscale>
<asrwt>0</asrwt>
<pdfrwt beam="2">  1        4 0.13377019E+00 0.12500363E+03</pdfrwt>
<pdfrwt beam="1">  1       -4 0.18251808E-02 0.12500363E+03</pdfrwt>
<totfact> 0.81231622E+02</totfact>
</mgrwt>
</event>
<event>
 5    1  0.1423270E-002  0.1249993E+03  0.7818608E-02  0.1235070E+00
          4   -1    0    0  501    0  0.00000000000E+00  0.00000000000E+00  0.22801066363E+03  0.22801420050E+03  0.12700000000E+01 0.  1.
         -4   -1    0    0    0  501 -0.00000000000E+00 -0.00000000000E+00 -0.17104462251E+02  0.17151545962E+02  0.12700000000E+01 0.  1.
         25    2    1    2    0    0  0.00000000000E+00  0.00000000000E+00  0.21090620138E+03  0.24516574646E+03  0.12499926983E+03 0.  0.
    9000005    1    3    3    0    0 -0.48684400232E+02  0.14821311526E+02  0.17658673619E+03  0.18377627023E+03  0.10000000000E+01 0.  0.
    9000005    1    3    3    0    0  0.48684400232E+02 -0.14821311526E+02  0.34319465193E+02  0.61389476235E+02  0.10000000000E+01 0.  0.
<mgrwt>
<rscale>  0 0.12499927E+03</rscale>
<asrwt>0</asrwt>
<pdfrwt beam="1">  1        4 0.57008994E-01 0.12499927E+03</pdfrwt>
<pdfrwt beam="2">  1       -4 0.42824431E-02 0.12499927E+03</pdfrwt>
<totfact> 0.14660376E+03</totfact>
</mgrwt>
</event>
<event>
 5    1  0.1423270E-002  0.1249980E+03  0.7818608E-02  0.1235072E+00
         -4   -1    0    0    0  501 -0.00000000000E+00  0.00000000000E+00  0.17171646732E+02  0.17218546730E+02  0.12700000000E+01 0. -1.
          4   -1    0    0  501    0  0.00000000000E+00 -0.00000000000E+00 -0.22711632914E+03  0.22711987994E+03  0.12700000000E+01 0. -1.
         25    2    1    2    0    0  0.00000000000E+00  0.00000000000E+00 -0.20994468241E+03  0.24433842667E+03  0.12499798828E+03 0.  0.
    9000005    1    3    3    0    0  0.48714383988E+02  0.18791094443E+02 -0.37855368483E+02  0.64499808997E+02  0.10000000000E+01 0.  0.
    9000005    1    3    3    0    0 -0.48714383988E+02 -0.18791094443E+02 -0.17208931393E+03  0.17983861767E+03  0.10000000000E+01 0.  0.
<mgrwt>
<rscale>  0 0.12499799E+03</rscale>
<asrwt>0</asrwt>
<pdfrwt beam="2">  1        4 0.56785379E-01 0.12499799E+03</pdfrwt>
<pdfrwt beam="1">  1       -4 0.42992188E-02 0.12499799E+03</pdfrwt>
<totfact> 0.14688830E+03</totfact>
</mgrwt>
</event>
<event>
 5    1  0.1423270E-002  0.1250031E+03  0.7818608E-02  0.1235064E+00
         -4   -1    0    0    0  501 -0.00000000000E+00  0.00000000000E+00  0.87417622680E+02  0.87426847450E+02  0.12700000000E+01 0.  1.
          4   -1    0    0  501    0  0.00000000000E+00 -0.00000000000E+00 -0.44666522156E+02  0.44684573418E+02  0.12700000000E+01 0.  1.
         25    2    1    2    0    0  0.00000000000E+00  0.00000000000E+00  0.42751100524E+02  0.13211142087E+03  0.12500308367E+03 0.  0.
    9000005    1    3    3    0    0  0.40512524575E+02  0.17468186241E+02  0.68153517996E+02  0.81193005815E+02  0.10000000000E+01 0.  0.
    9000005    1    3    3    0    0 -0.40512524575E+02 -0.17468186241E+02 -0.25402417472E+02  0.50918415052E+02  0.10000000000E+01 0.  0.
<mgrwt>
<rscale>  0 0.12500308E+03</rscale>
<asrwt>0</asrwt>
<pdfrwt beam="2">  1        4 0.11170040E-01 0.12500308E+03</pdfrwt>
<pdfrwt beam="1">  1       -4 0.21857815E-01 0.12500308E+03</pdfrwt>
<totfact> 0.19450131E+03</totfact>
</mgrwt>
</event>
<event>
 5    1  0.1423270E-002  0.1249990E+03  0.7818608E-02  0.1235071E+00
          4   -1    0    0  501    0  0.00000000000E+00  0.00000000000E+00  0.63409512775E+02  0.63422229623E+02  0.12700000000E+01 0. -1.
         -4   -1    0    0    0  501 -0.00000000000E+00 -0.00000000000E+00 -0.61577089193E+02  0.61590184392E+02  0.12700000000E+01 0. -1.
         25    2    1    2    0    0  0.00000000000E+00  0.00000000000E+00  0.18324235824E+01  0.12501241402E+03  0.12499898352E+03 0.  0.
    9000005    1    3    3    0    0 -0.29286528422E+02 -0.19403390856E+02 -0.50771002745E+02  0.61748579283E+02  0.10000000000E+01 0.  0.
    9000005    1    3    3    0    0  0.29286528422E+02  0.19403390856E+02  0.52603426327E+02  0.63263834733E+02  0.10000000000E+01 0.  0.
<mgrwt>
<rscale>  0 0.12499898E+03</rscale>
<asrwt>0</asrwt>
<pdfrwt beam="1">  1        4 0.15855605E-01 0.12499898E+03</pdfrwt>
<pdfrwt beam="2">  1       -4 0.15397499E-01 0.12499898E+03</pdfrwt>
<totfact> 0.19834854E+03</totfact>
</mgrwt>
</event>
<event>
 5    1  0.1423270E-002  0.1249983E+03  0.7818608E-02  0.1235072E+00
         -4   -1    0    0    0  501 -0.00000000000E+00  0.00000000000E+00  0.49383348821E+02  0.49399676525E+02  0.12700000000E+01 0.  1.
          4   -1    0    0  501    0  0.00000000000E+00 -0.00000000000E+00 -0.79063835873E+02  0.79074035200E+02  0.12700000000E+01 0.  1.
         25    2    1    2    0    0  0.00000000000E+00  0.00000000000E+00 -0.29680487052E+02  0.12847371173E+03  0.12499825316E+03 0.  0.
    9000005    1    3    3    0    0 -0.10822960244E+02  0.44689046774E+02 -0.58335831106E+02  0.74285372455E+02  0.10000000000E+01 0.  0.
    9000005    1    3    3    0    0  0.10822960244E+02 -0.44689046774E+02  0.28655344054E+02  0.54188339270E+02  0.10000000000E+01 0.  0.
<mgrwt>
<rscale>  0 0.12499825E+03</rscale>
<asrwt>0</asrwt>
<pdfrwt beam="2">  1        4 0.19769275E-01 0.12499825E+03</pdfrwt>
<pdfrwt beam="1">  1       -4 0.12349153E-01 0.12499825E+03</pdfrwt>
<totfact> 0.19647600E+03</totfact>
</mgrwt>
</event>
<event>
 5    1  0.1423270E-002  0.1250020E+03  0.7818608E-02  0.1235066E+00
         -4   -1    0    0    0  501 -0.00000000000E+00  0.00000000000E+00  0.54694554219E+01  0.56149659494E+01  0.12700000000E+01 0.  1.
          4   -1    0    0  501    0  0.00000000000E+00 -0.00000000000E+00 -0.70469406753E+03  0.70469521192E+03  0.12700000000E+01 0.  1.
         25    2    1    2    0    0  0.00000000000E+00  0.00000000000E+00 -0.69922461210E+03  0.71031017787E+03  0.12500196245E+03 0.  0.
    9000005    1    3    3    0    0 -0.48301884534E+02 -0.31750000694E+02 -0.21463449048E+03  0.22228382554E+03  0.10000000000E+01 0.  0.
    9000005    1    3    3    0    0  0.48301884534E+02  0.31750000694E+02 -0.48459012162E+03  0.48802635233E+03  0.10000000000E+01 0.  0.
<mgrwt>
<rscale>  0 0.12500196E+03</rscale>
<asrwt>0</asrwt>
<pdfrwt beam="2">  1        4 0.17619154E+00 0.12500196E+03</pdfrwt>
<pdfrwt beam="1">  1       -4 0.13856981E-02 0.12500196E+03</pdfrwt>
<totfact> 0.60996006E+02</totfact>
</mgrwt>
</event>
<event>
 5    1  0.1423270E-002  0.1249980E+03  0.7818608E-02  0.1235072E+00
          4   -1    0    0  501    0  0.00000000000E+00  0.00000000000E+00  0.76770611233E+01  0.77813988132E+01  0.12700000000E+01 0. -1.
         -4   -1    0    0    0  501 -0.00000000000E+00 -0.00000000000E+00 -0.50526506457E+03  0.50526666066E+03  0.12700000000E+01 0. -1.
         25    2    1    2    0    0  0.00000000000E+00  0.00000000000E+00 -0.49758800345E+03  0.51304805948E+03  0.12499796061E+03 0.  0.
    9000005    1    3    3    0    0 -0.17693283131E+02 -0.52245040710E+02 -0.36933678576E+03  0.37343440905E+03  0.10000000000E+01 0.  0.
    9000005    1    3    3    0    0  0.17693283131E+02  0.52245040710E+02 -0.12825121769E+03  0.13961365043E+03  0.10000000000E+01 0.  0.
<mgrwt>
<rscale>  0 0.12499796E+03</rscale>
<asrwt>0</asrwt>
<pdfrwt beam="1">  1        4 0.19325087E-02 0.12499796E+03</pdfrwt>
<pdfrwt beam="2">  1       -4 0.12632940E+00 0.12499796E+03</pdfrwt>
<totfact> 0.85572205E+02</totfact>
</mgrwt>
</event>
<event>
 5    1  0.1423270E-002  0.1250008E+03  0.7818608E-02  0.1235068E+00
          4   -1    0    0  501    0  0.00000000000E+00  0.00000000000E+00  0.26115487692E+02  0.26146349600E+02  0.12700000000E+01 0.  1.
         -4   -1    0    0    0  501 -0.00000000000E+00 -0.00000000000E+00 -0.14945591433E+03  0.14946131014E+03  0.12700000000E+01 0.  1.
         25    2    1    2    0    0  0.00000000000E+00  0.00000000000E+00 -0.12334042664E+03  0.17560765974E+03  0.12500075726E+03 0.  0.
    9000005    1    3    3    0    0  0.18342264076E+02 -0.58663515336E+02 -0.77530163969E+02  0.98943281773E+02  0.10000000000E+01 0.  0.
    9000005    1    3    3    0    0 -0.18342264076E+02  0.58663515336E+02 -0.45810262670E+02  0.76664377966E+02  0.10000000000E+01 0.  0.
<mgrwt>
<rscale>  0 0.12500076E+03</rscale>
<asrwt>0</asrwt>
<pdfrwt beam="1">  1        4 0.65334046E-02 0.12500076E+03</pdfrwt>
<pdfrwt beam="2">  1       -4 0.37368508E-01 0.12500076E+03</pdfrwt>
<totfact> 0.17346740E+03</totfact>
</mgrwt>
</event>
<event>
 5    1  0.1423270E-002  0.1250008E+03  0.7818608E-02  0.1235068E+00
         -4   -1    0    0    0  501 -0.00000000000E+00  0.00000000000E+00  0.27934121973E+02  0.27962976780E+02  0.12700000000E+01 0. -1.
          4   -1    0    0  501    0  0.00000000000E+00 -0.00000000000E+00 -0.13973573301E+03  0.13974150414E+03  0.12700000000E+01 0. -1.
         25    2    1    2    0    0  0.00000000000E+00  0.00000000000E+00 -0.11180161103E+03  0.16770448092E+03  0.12500077076E+03 0.  0.
    9000005    1    3    3    0    0 -0.16965055717E+02 -0.12070283763E+02 -0.13495208555E+03  0.13655244509E+03  0.10000000000E+01 0.  0.
    9000005    1    3    3    0    0  0.16965055717E+02  0.12070283763E+02  0.23150474520E+02  0.31152035826E+02  0.10000000000E+01 0.  0.
<mgrwt>
<rscale>  0 0.12500077E+03</rscale>
<asrwt>0</asrwt>
<pdfrwt beam="2">  1        4 0.34938260E-01 0.12500077E+03</pdfrwt>
<pdfrwt beam="1">  1       -4 0.69878591E-02 0.12500077E+03</pdfrwt>
<totfact> 0.17700768E+03</totfact>
</mgrwt>
</event>
<event>
 5    1  0.1423270E-002  0.1249999E+03  0.7818608E-02  0.1235069E+00
         -4   -1    0    0    0  501 -0.00000000000E+00  0.00000000000E+00  0.56053134989E+01  0.57473854422E+01  0.12700000000E+01 0.  1.
          4   -1    0    0  501    0  0.00000000000E+00 -0.00000000000E+00 -0.68801833178E+03  0.68801950392E+03  0.12700000000E+01 0.  1.
         25    2    1    2    0    0  0.00000000000E+00  0.00000000000E+00 -0.68241301828E+03  0.69376688936E+03  0.12499987699E+03 0.  0.
    9000005    1    3    3    0    0 -0.71230308514E+01  0.56949859214E+02 -0.47842168611E+03  0.48185302092E+03  0.10000000000E+01 0.  0.
    9000005    1    3    3    0    0  0.71230308514E+01 -0.56949859214E+02 -0.20399133218E+03  0.21191386844E+03  0.10000000000E+01 0.  0.
<mgrwt>
<rscale>  0 0.12499988E+03</rscale>
<asrwt>0</asrwt>
<pdfrwt beam="2">  1        4 0.17202220E+00 0.12499988E+03</pdfrwt>
<pdfrwt beam="1">  1       -4 0.14192362E-02 0.12499988E+03</pdfrwt>
<totfact> 0.62716777E+02</totfact>
</mgrwt>
</event>
<event>
 5    1  0.1423270E-002  0.1250001E+03  0.7818608E-02  0.1235069E+00
         -4   -1    0    0    0  501 -0.00000000000E+00  0.00000000000E+00  0.51323044071E+03  0.51323201203E+03  0.12700000000E+01 0.  1.
          4   -1    0    0  501    0  0.00000000000E+00 -0.00000000000E+00 -0.75565482929E+01  0.76625271355E+01  0.12700000000E+01 0.  1.
         25    2    1    2    0    0  0.00000000000E+00  0.00000000000E+00  0.50567389242E+03  0.52089453916E+03  0.12500014184E+03 0.  0.
    9000005    1    3    3    0    0  0.53012203837E+02  0.32572899250E+02  0.27712516467E+03  0.28402578125E+03  0.10000000000E+01 0.  0.
    9000005    1    3    3    0    0 -0.53012203837E+02 -0.32572899250E+02  0.22854872775E+03  0.23686875791E+03  0.10000000000E+01 0.  0.
<mgrwt>
<rscale>  0 0.12500014E+03</rscale>
<asrwt>0</asrwt>
<pdfrwt beam="2">  1        4 0.19025808E-02 0.12500014E+03</pdfrwt>
<pdfrwt beam="1">  1       -4 0.12832105E+00 0.12500014E+03</pdfrwt>
<totfact> 0.84376266E+02</totfact>
</mgrwt>
</event>
<event>
 5    1  0.1423270E-002  0.1249995E+03  0.7818608E-02  0.1235070E+00
          4   -1    0    0  501    0  0.00000000000E+00  0.00000000000E+00  0.32567257984E+02  0.32592011177E+02  0.12700000000E+01 0.  1.
         -4   -1    0    0    0  501 -0.00000000000E+00 -0.00000000000E+00 -0.11986934971E+03  0.11987607727E+03  0.12700000000E+01 0.  1.
         25    2    1    2    0    0  0.00000000000E+00  0.00000000000E+00 -0.87302091729E+02  0.15246808844E+03  0.12499945109E+03 0.  0.
    9000005    1    3    3    0    0 -0.54651189979E+02 -0.30047886617E+02 -0.38835328490E+02  0.73476600324E+02  0.10000000000E+01 0.  0.
    9000005    1    3    3    0    0  0.54651189979E+02  0.30047886617E+02 -0.48466763239E+02  0.78991488118E+02  0.10000000000E+01 0.  0.
<mgrwt>
<rscale>  0 0.12499945E+03</rscale>
<asrwt>0</asrwt>
<pdfrwt beam="1">  1        4 0.81457499E-02 0.12499945E+03</pdfrwt>
<pdfrwt beam="2">  1       -4 0.29971271E-01 0.12499945E+03</pdfrwt>
<totfact> 0.18418322E+03</totfact>
</mgrwt>
</event>
<event>
 5    1  0.1423270E-002  0.1250001E+03  0.7818608E-02  0.1235069E+00
          4   -1    0    0  501    0  0.00000000000E+00  0.00000000000E+00  0.22336736667E+03  0.22337097706E+03  0.12700000000E+01 0.  1.
         -4   -1    0    0    0  501 -0.00000000000E+00 -0.00000000000E+00 -0.17461233629E+02  0.17507357877E+02  0.12700000000E+01 0.  1.
         25    2    1    2    0    0  0.00000000000E+00  0.00000000000E+00  0.20590613304E+03  0.24087833494E+03  0.12500014647E+03 0.  0.
    9000005    1    3    3    0    0 -0.51379009984E+02  0.33124422632E+02  0.12794718338E+03  0.14180448434E+03  0.10000000000E+01 0.  0.
    9000005    1    3    3    0    0  0.51379009984E+02 -0.33124422632E+02  0.77958949659E+02  0.99073850605E+02  0.10000000000E+01 0.  0.
<mgrwt>
<rscale>  0 0.12500015E+03</rscale>
<asrwt>0</asrwt>
<pdfrwt beam="1">  1        4 0.55848059E-01 0.12500015E+03</pdfrwt>
<pdfrwt beam="2">  1       -4 0.43715252E-02 0.12500015E+03</pdfrwt>
<totfact> 0.14806189E+03</totfact>
</mgrwt>
</event>
<event>
 5    1  0.1423270E-002  0.1250004E+03  0.7818608E-02  0.1235069E+00
          4   -1    0    0  501    0  0.00000000000E+00  0.00000000000E+00  0.16954791575E+02  0.17002289768E+02  0.12700000000E+01 0.  1.
         -4   -1    0    0    0  501 -0.00000000000E+00 -0.00000000000E+00 -0.23002190647E+03  0.23002541242E+03  0.12700000000E+01 0.  1.
         25    2    1    2    0    0  0.00000000000E+00  0.00000000000E+00 -0.21306711490E+03  0.24702770219E+03  0.12500036078E+03 0.  0.
    9000005    1    3    3    0    0 -0.77644010203E+01 -0.46658785695E+02 -0.25823962166E+02  0.53899955730E+02  0.10000000000E+01 0.  0.
    9000005    1    3    3    0    0  0.77644010203E+01  0.46658785695E+02 -0.18724315273E+03  0.19312774646E+03  0.10000000000E+01 0.  0.
<mgrwt>
<rscale>  0 0.12500036E+03</rscale>
<asrwt>0</asrwt>
<pdfrwt beam="1">  1        4 0.42450741E-02 0.12500036E+03</pdfrwt>
<pdfrwt beam="2">  1       -4 0.57511842E-01 0.12500036E+03</pdfrwt>
<totfact> 0.14597250E+03</totfact>
</mgrwt>
</event>
<event>
 5    1  0.1423270E-002  0.1250005E+03  0.7818608E-02  0.1235068E+00
          4   -1    0    0  501    0  0.00000000000E+00  0.00000000000E+00  0.38114288391E+02  0.38135441253E+02  0.12700000000E+01 0.  1.
         -4   -1    0    0    0  501 -0.00000000000E+00 -0.00000000000E+00 -0.10243517544E+03  0.10244304793E+03  0.12700000000E+01 0.  1.
         25    2    1    2    0    0  0.00000000000E+00  0.00000000000E+00 -0.64320887053E+02  0.14057848918E+03  0.12500054043E+03 0.  0.
    9000005    1    3    3    0    0  0.16528038926E+02 -0.56086933996E+02 -0.73583987698E+01  0.58941210272E+02  0.10000000000E+01 0.  0.
    9000005    1    3    3    0    0 -0.16528038926E+02  0.56086933996E+02 -0.56962488284E+02  0.81637278907E+02  0.10000000000E+01 0.  0.
<mgrwt>
<rscale>  0 0.12500054E+03</rscale>
<asrwt>0</asrwt>
<pdfrwt beam="1">  1        4 0.95322005E-02 0.12500054E+03</pdfrwt>
<pdfrwt beam="2">  1       -4 0.25612421E-01 0.12500054E+03</pdfrwt>
<totfact> 0.19010547E+03</totfact>
</mgrwt>
</event>
<event>
 5    1  0.1423270E-002  0.1249999E+03  0.7818608E-02  0.1235069E+00
          4   -1    0    0  501    0  0.00000000000E+00  0.00000000000E+00  0.23487093538E+02  0.23521404355E+02  0.12700000000E+01 0.  1.
         -4   -1    0    0    0  501 -0.00000000000E+00 -0.00000000000E+00 -0.16615635279E+03  0.16616120628E+03  0.12700000000E+01 0.  1.
         25    2    1    2    0    0  0.00000000000E+00  0.00000000000E+00 -0.14266925925E+03  0.18968261063E+03  0.12499990097E+03 0.  0.
    9000005    1    3    3    0    0 -0.59142080031E+02 -0.48575791051E+01 -0.41603906681E+02  0.72479422985E+02  0.10000000000E+01 0.  0.
    9000005    1    3    3    0    0  0.59142080031E+02  0.48575791051E+01 -0.10106535257E+03  0.11720318765E+03  0.10000000000E+01 0.  0.
<mgrwt>
<rscale>  0 0.12499990E+03</rscale>
<asrwt>0</asrwt>
<pdfrwt beam="1">  1        4 0.58766694E-02 0.12499990E+03</pdfrwt>
<pdfrwt beam="2">  1       -4 0.41543980E-01 0.12499990E+03</pdfrwt>
<totfact> 0.16743715E+03</totfact>
</mgrwt>
</event>
<event>
 5    1  0.1423270E-002  0.1250003E+03  0.7818608E-02  0.1235069E+00
         -4   -1    0    0    0  501 -0.00000000000E+00  0.00000000000E+00  0.12023816987E+03  0.12024487679E+03  0.12700000000E+01 0.  1.
          4   -1    0    0  501    0  0.00000000000E+00 -0.00000000000E+00 -0.32467711639E+02  0.32492540668E+02  0.12700000000E+01 0.  1.
         25    2    1    2    0    0  0.00000000000E+00  0.00000000000E+00  0.87770458235E+02  0.15273741746E+03  0.12500026141E+03 0.  0.
    9000005    1    3    3    0    0 -0.65805488250E+01 -0.20852895693E+02  0.11541702740E+03  0.11747441038E+03  0.10000000000E+01 0.  0.
    9000005    1    3    3    0    0  0.65805488250E+01  0.20852895693E+02 -0.27646569162E+02  0.35263007077E+02  0.10000000000E+01 0.  0.
<mgrwt>
<rscale>  0 0.12500026E+03</rscale>
<asrwt>0</asrwt>
<pdfrwt beam="2">  1        4 0.81208700E-02 0.12500026E+03</pdfrwt>
<pdfrwt beam="1">  1       -4 0.30063484E-01 0.12500026E+03</pdfrwt>
<totfact> 0.18404884E+03</totfact>
</mgrwt>
</event>
<event>
 5    1  0.1423270E-002  0.1249995E+03  0.7818608E-02  0.1235070E+00
         -4   -1    0    0    0  501 -0.00000000000E+00  0.00000000000E+00  0.85612904158E+02  0.85622323365E+02  0.12700000000E+01 0. -1.
          4   -1    0    0  501    0  0.00000000000E+00 -0.00000000000E+00 -0.45605769350E+02  0.45623448992E+02  0.12700000000E+01 0. -1.
         25    2    1    2    0    0  0.00000000000E+00  0.00000000000E+00  0.40007134808E+02  0.13124577236E+03  0.12499952770E+03 0.  0.
    9000005    1    3    3    0    0 -0.57899804203E+02 -0.18047371145E+01  0.44618058512E+02  0.73126025109E+02  0.10000000000E+01 0.  0.
    9000005    1    3    3    0    0  0.57899804203E+02  0.18047371145E+01 -0.46109237035E+01  0.58119747248E+02  0.10000000000E+01 0.  0.
<mgrwt>
<rscale>  0 0.12499953E+03</rscale>
<asrwt>0</asrwt>
<pdfrwt beam="2">  1        4 0.11404830E-01 0.12499953E+03</pdfrwt>
<pdfrwt beam="1">  1       -4 0.21406613E-01 0.12499953E+03</pdfrwt>
<totfact> 0.19497858E+03</totfact>
</mgrwt>
</event>
<event>
 5    1  0.1423270E-002  0.1249998E+03  0.7818608E-02  0.1235070E+00
         -4   -1    0    0    0  501 -0.00000000000E+00  0.00000000000E+00  0.42210621696E+01  0.44079775226E+01  0.12700000000E+01 0. -1.
          4   -1    0    0  501    0  0.00000000000E+00 -0.00000000000E+00 -0.90518263574E+03  0.90518352666E+03  0.12700000000E+01 0. -1.
         25    2    1    2    0    0  0.00000000000E+00  0.00000000000E+00 -0.90096157357E+03  0.90959150418E+03  0.12499978976E+03 0.  0.
    9000005    1    3    3    0    0  0.31274703246E+02  0.49293014925E+02 -0.61275846156E+03  0.61553378510E+03  0.10000000000E+01 0.  0.
    9000005    1    3    3    0    0 -0.31274703246E+02 -0.49293014925E+02 -0.28820311201E+03  0.29405771909E+03  0.10000000000E+01 0.  0.
<mgrwt>
<rscale>  0 0.12499979E+03</rscale>
<asrwt>0</asrwt>
<pdfrwt beam="2">  1        4 0.22631849E+00 0.12499979E+03</pdfrwt>
<pdfrwt beam="1">  1       -4 0.10787444E-02 0.12499979E+03</pdfrwt>
<totfact> 0.43547906E+02</totfact>
</mgrwt>
</event>
<event>
 5    1  0.1423270E-002  0.1250091E+03  0.7818608E-02  0.1235055E+00
          4   -1    0    0  501    0  0.00000000000E+00  0.00000000000E+00  0.12219738020E+03  0.12220397959E+03  0.12700000000E+01 0.  1.
         -4   -1    0    0    0  501 -0.00000000000E+00 -0.00000000000E+00 -0.31951304407E+02  0.31976534417E+02  0.12700000000E+01 0.  1.
         25    2    1    2    0    0  0.00000000000E+00  0.00000000000E+00  0.90246075795E+02  0.15418051401E+03  0.12500910648E+03 0.  0.
    9000005    1    3    3    0    0  0.56725970915E+02 -0.22678173238E+02  0.28868764240E+02  0.67576185645E+02  0.10000000000E+01 0.  0.
    9000005    1    3    3    0    0 -0.56725970915E+02  0.22678173238E+02  0.61377311555E+02  0.86604328364E+02  0.10000000000E+01 0.  0.
<mgrwt>
<rscale>  0 0.12500911E+03</rscale>
<asrwt>0</asrwt>
<pdfrwt beam="1">  1        4 0.30553323E-01 0.12500911E+03</pdfrwt>
<pdfrwt beam="2">  1       -4 0.79918049E-02 0.12500911E+03</pdfrwt>
<totfact> 0.18331234E+03</totfact>
</mgrwt>
</event>
<event>
 5    1  0.1423270E-002  0.1249984E+03  0.7818608E-02  0.1235072E+00
          4   -1    0    0  501    0  0.00000000000E+00  0.00000000000E+00  0.37844383053E+02  0.37865686692E+02  0.12700000000E+01 0.  1.
         -4   -1    0    0    0  501 -0.00000000000E+00 -0.00000000000E+00 -0.10316189907E+03  0.10316971609E+03  0.12700000000E+01 0.  1.
         25    2    1    2    0    0  0.00000000000E+00  0.00000000000E+00 -0.65317516014E+02  0.14103540279E+03  0.12499842775E+03 0.  0.
    9000005    1    3    3    0    0  0.17457360430E+02 -0.49465327569E+02 -0.70980589799E+02  0.88265634269E+02  0.10000000000E+01 0.  0.
    9000005    1    3    3    0    0 -0.17457360430E+02  0.49465327569E+02  0.56630737853E+01  0.52769768518E+02  0.10000000000E+01 0.  0.
<mgrwt>
<rscale>  0 0.12499843E+03</rscale>
<asrwt>0</asrwt>
<pdfrwt beam="1">  1        4 0.94647360E-02 0.12499843E+03</pdfrwt>
<pdfrwt beam="2">  1       -4 0.25794114E-01 0.12499843E+03</pdfrwt>
<totfact> 0.18988194E+03</totfact>
</mgrwt>
</event>
<event>
 5    1  0.1423270E-002  0.1249732E+03  0.7818608E-02  0.1235111E+00
         -4   -1    0    0    0  501 -0.00000000000E+00  0.00000000000E+00  0.73569912611E+01  0.74658034006E+01  0.12700000000E+01 0. -1.
          4   -1    0    0  501    0  0.00000000000E+00 -0.00000000000E+00 -0.52672461439E+03  0.52672614545E+03  0.12700000000E+01 0. -1.
         25    2    1    2    0    0  0.00000000000E+00  0.00000000000E+00 -0.51936762313E+03  0.53419194885E+03  0.12497323820E+03 0.  0.
    9000005    1    3    3    0    0 -0.12074819456E+02  0.19499495179E+02 -0.11267018614E+02  0.25572979600E+02  0.10000000000E+01 0.  0.
    9000005    1    3    3    0    0  0.12074819456E+02 -0.19499495179E+02 -0.50810060451E+03  0.50861896925E+03  0.10000000000E+01 0.  0.
<mgrwt>
<rscale>  0 0.12497324E+03</rscale>
<asrwt>0</asrwt>
<pdfrwt beam="2">  1        4 0.13169482E+00 0.12497324E+03</pdfrwt>
<pdfrwt beam="1">  1       -4 0.18530425E-02 0.12497324E+03</pdfrwt>
<totfact> 0.82463619E+02</totfact>
</mgrwt>
</event>
<event>
 5    1  0.1423270E-002  0.1249983E+03  0.7818608E-02  0.1235072E+00
          4   -1    0    0  501    0  0.00000000000E+00  0.00000000000E+00  0.60477157552E+02  0.60490490869E+02  0.12700000000E+01 0.  1.
         -4   -1    0    0    0  501 -0.00000000000E+00 -0.00000000000E+00 -0.64562055552E+02  0.64574545427E+02  0.12700000000E+01 0.  1.
         25    2    1    2    0    0  0.00000000000E+00  0.00000000000E+00 -0.40848979998E+01  0.12506503630E+03  0.12499830764E+03 0.  0.
    9000005    1    3    3    0    0  0.43605945977E+02 -0.44251336747E+02  0.47054006978E+01  0.62312118598E+02  0.10000000000E+01 0.  0.
    9000005    1    3    3    0    0 -0.43605945977E+02  0.44251336747E+02 -0.87902986976E+01  0.62752917698E+02  0.10000000000E+01 0.  0.
<mgrwt>
<rscale>  0 0.12499831E+03</rscale>
<asrwt>0</asrwt>
<pdfrwt beam="1">  1        4 0.15122517E-01 0.12499831E+03</pdfrwt>
<pdfrwt beam="2">  1       -4 0.16143742E-01 0.12499831E+03</pdfrwt>
<totfact> 0.19832314E+03</totfact>
</mgrwt>
</event>
<event>
 5    1  0.1423270E-002  0.1249994E+03  0.7818608E-02  0.1235070E+00
         -4   -1    0    0    0  501 -0.00000000000E+00  0.00000000000E+00  0.21008148469E+03  0.21008532340E+03  0.12700000000E+01 0. -1.
          4   -1    0    0  501    0  0.00000000000E+00 -0.00000000000E+00 -0.18568096739E+02  0.18611478085E+02  0.12700000000E+01 0. -1.
         25    2    1    2    0    0  0.00000000000E+00  0.00000000000E+00  0.19151338795E+03  0.22869680148E+03  0.12499939698E+03 0.  0.
    9000005    1    3    3    0    0 -0.31747424240E+02 -0.21194211980E+02  0.52317192281E+01  0.38541723539E+02  0.10000000000E+01 0.  0.
    9000005    1    3    3    0    0  0.31747424240E+02  0.21194211980E+02  0.18628166872E+03  0.19015507794E+03  0.10000000000E+01 0.  0.
<mgrwt>
<rscale>  0 0.12499940E+03</rscale>
<asrwt>0</asrwt>
<pdfrwt beam="2">  1        4 0.46479266E-02 0.12499940E+03</pdfrwt>
<pdfrwt beam="1">  1       -4 0.52526274E-01 0.12499940E+03</pdfrwt>
<totfact> 0.15234201E+03</totfact>
</mgrwt>
</event>
<event>
 5    1  0.1423270E-002  0.1249969E+03  0.7818608E-02  0.1235074E+00
          4   -1    0    0  501    0  0.00000000000E+00  0.00000000000E+00  0.25469464035E+03  0.25469780667E+03  0.12700000000E+01 0. -1.
         -4   -1    0    0    0  501 -0.00000000000E+00 -0.00000000000E+00 -0.15306672839E+02  0.15359268648E+02  0.12700000000E+01 0. -1.
         25    2    1    2    0    0  0.00000000000E+00  0.00000000000E+00  0.23938796751E+03  0.27005707532E+03  0.12499689973E+03 0.  0.
    9000005    1    3    3    0    0 -0.39040207252E+02  0.17804760766E+01  0.22504512966E+03  0.22841545101E+03  0.10000000000E+01 0.  0.
    9000005    1    3    3    0    0  0.39040207252E+02 -0.17804760766E+01  0.14342837850E+02  0.41641624307E+02  0.10000000000E+01 0.  0.
<mgrwt>
<rscale>  0 0.12499690E+03</rscale>
<asrwt>0</asrwt>
<pdfrwt beam="1">  1        4 0.63680630E-01 0.12499690E+03</pdfrwt>
<pdfrwt beam="2">  1       -4 0.38336385E-02 0.12499690E+03</pdfrwt>
<totfact> 0.13854791E+03</totfact>
</mgrwt>
</event>
<event>
 5    1  0.1423270E-002  0.1250011E+03  0.7818608E-02  0.1235068E+00
         -4   -1    0    0    0  501 -0.00000000000E+00  0.00000000000E+00  0.43070681302E+03  0.43070868541E+03  0.12700000000E+01 0. -1.
          4   -1    0    0  501    0  0.00000000000E+00 -0.00000000000E+00 -0.90231874486E+01  0.91121244357E+01  0.12700000000E+01 0. -1.
         25    2    1    2    0    0  0.00000000000E+00  0.00000000000E+00  0.42168362558E+03  0.43982080984E+03  0.12500105877E+03 0.  0.
    9000005    1    3    3    0    0  0.10502778665E+02  0.33764758759E+02  0.39213862338E+03  0.39373095794E+03  0.10000000000E+01 0.  0.
    9000005    1    3    3    0    0 -0.10502778665E+02 -0.33764758759E+02  0.29545002195E+02  0.46089851903E+02  0.10000000000E+01 0.  0.
<mgrwt>
<rscale>  0 0.12500106E+03</rscale>
<asrwt>0</asrwt>
<pdfrwt beam="2">  1        4 0.22671480E-02 0.12500106E+03</pdfrwt>
<pdfrwt beam="1">  1       -4 0.10768805E+00 0.12500106E+03</pdfrwt>
<totfact> 0.97871331E+02</totfact>
</mgrwt>
</event>
<event>
 5    1  0.1423270E-002  0.1249935E+03  0.7818608E-02  0.1235079E+00
         -4   -1    0    0    0  501 -0.00000000000E+00  0.00000000000E+00  0.11529956258E+02  0.11599689277E+02  0.12700000000E+01 0. -1.
          4   -1    0    0  501    0  0.00000000000E+00 -0.00000000000E+00 -0.33766394106E+03  0.33766632938E+03  0.12700000000E+01 0. -1.
         25    2    1    2    0    0  0.00000000000E+00  0.00000000000E+00 -0.32613398481E+03  0.34926601865E+03  0.12499350279E+03 0.  0.
    9000005    1    3    3    0    0 -0.16059393494E+02  0.58652491500E+02 -0.12288139114E+03  0.13710891717E+03  0.10000000000E+01 0.  0.
    9000005    1    3    3    0    0  0.16059393494E+02 -0.58652491500E+02 -0.20325259367E+03  0.21215710149E+03  0.10000000000E+01 0.  0.
<mgrwt>
<rscale>  0 0.12499350E+03</rscale>
<asrwt>0</asrwt>
<pdfrwt beam="2">  1        4 0.84424968E-01 0.12499350E+03</pdfrwt>
<pdfrwt beam="1">  1       -4 0.28915053E-02 0.12499350E+03</pdfrwt>
<totfact> 0.11696584E+03</totfact>
</mgrwt>
</event>
<event>
 5    1  0.1423270E-002  0.1249894E+03  0.7818608E-02  0.1235086E+00
         -4   -1    0    0    0  501 -0.00000000000E+00  0.00000000000E+00  0.71838344951E+02  0.71849569973E+02  0.12700000000E+01 0.  1.
          4   -1    0    0  501    0  0.00000000000E+00 -0.00000000000E+00 -0.54343426826E+02  0.54358264681E+02  0.12700000000E+01 0.  1.
         25    2    1    2    0    0  0.00000000000E+00  0.00000000000E+00  0.17494918125E+02  0.12620783465E+03  0.12498938102E+03 0.  0.
    9000005    1    3    3    0    0 -0.48706366096E+02 -0.34956870449E+02 -0.90394098267E+01  0.60638303241E+02  0.10000000000E+01 0.  0.
    9000005    1    3    3    0    0  0.48706366096E+02  0.34956870449E+02  0.26534327952E+02  0.65569531413E+02  0.10000000000E+01 0.  0.
<mgrwt>
<rscale>  0 0.12498938E+03</rscale>
<asrwt>0</asrwt>
<pdfrwt beam="2">  1        4 0.13589115E-01 0.12498938E+03</pdfrwt>
<pdfrwt beam="1">  1       -4 0.17962844E-01 0.12498938E+03</pdfrwt>
<totfact> 0.19774604E+03</totfact>
</mgrwt>
</event>
<event>
 5    1  0.1423270E-002  0.1249992E+03  0.7818608E-02  0.1235071E+00
         -4   -1    0    0    0  501 -0.00000000000E+00  0.00000000000E+00  0.67469681660E+03  0.67469801188E+03  0.12700000000E+01 0.  1.
          4   -1    0    0  501    0  0.00000000000E+00 -0.00000000000E+00 -0.57187005089E+01  0.58580231742E+01  0.12700000000E+01 0.  1.
         25    2    1    2    0    0  0.00000000000E+00  0.00000000000E+00  0.66897811609E+03  0.68055603505E+03  0.12499918814E+03 0.  0.
    9000005    1    3    3    0    0  0.59227017191E+02 -0.19715240289E+02  0.35051933564E+03  0.35603558098E+03  0.10000000000E+01 0.  0.
    9000005    1    3    3    0    0 -0.59227017191E+02  0.19715240289E+02  0.31845878045E+03  0.32452045407E+03  0.10000000000E+01 0.  0.
<mgrwt>
<rscale>  0 0.12499919E+03</rscale>
<asrwt>0</asrwt>
<pdfrwt beam="2">  1        4 0.14472399E-02 0.12499919E+03</pdfrwt>
<pdfrwt beam="1">  1       -4 0.16869177E+00 0.12499919E+03</pdfrwt>
<totfact> 0.64121470E+02</totfact>
</mgrwt>
</event>
<event>
 5    1  0.1423270E-002  0.1249901E+03  0.7818608E-02  0.1235085E+00
          4   -1    0    0  501    0  0.00000000000E+00  0.00000000000E+00  0.23682151098E+02  0.23716179723E+02  0.12700000000E+01 0. -1.
         -4   -1    0    0    0  501 -0.00000000000E+00 -0.00000000000E+00 -0.16476386481E+03  0.16476875932E+03  0.12700000000E+01 0. -1.
         25    2    1    2    0    0  0.00000000000E+00  0.00000000000E+00 -0.14108171371E+03  0.18848493904E+03  0.12499008881E+03 0.  0.
    9000005    1    3    3    0    0  0.27538408708E+02  0.29612370295E+02  0.12971258431E+01  0.40471458636E+02  0.10000000000E+01 0.  0.
    9000005    1    3    3    0    0 -0.27538408708E+02 -0.29612370295E+02 -0.14237883956E+03  0.14801348041E+03  0.10000000000E+01 0.  0.
<mgrwt>
<rscale>  0 0.12499009E+03</rscale>
<asrwt>0</asrwt>
<pdfrwt beam="1">  1        4 0.59254036E-02 0.12499009E+03</pdfrwt>
<pdfrwt beam="2">  1       -4 0.41195828E-01 0.12499009E+03</pdfrwt>
<totfact> 0.16797603E+03</totfact>
</mgrwt>
</event>
<event>
 5    1  0.1423270E-002  0.1250006E+03  0.7818608E-02  0.1235068E+00
         -4   -1    0    0    0  501 -0.00000000000E+00  0.00000000000E+00  0.41051563947E+02  0.41071204054E+02  0.12700000000E+01 0. -1.
          4   -1    0    0  501    0  0.00000000000E+00 -0.00000000000E+00 -0.95108919274E+02  0.95117398122E+02  0.12700000000E+01 0. -1.
         25    2    1    2    0    0  0.00000000000E+00  0.00000000000E+00 -0.54057355328E+02  0.13618860218E+03  0.12500055079E+03 0.  0.
    9000005    1    3    3    0    0 -0.37482596055E+02  0.36436530370E+02  0.10281365865E+02  0.53284821821E+02  0.10000000000E+01 0.  0.
    9000005    1    3    3    0    0  0.37482596055E+02 -0.36436530370E+02 -0.64338721193E+02  0.82903780355E+02  0.10000000000E+01 0.  0.
<mgrwt>
<rscale>  0 0.12500055E+03</rscale>
<asrwt>0</asrwt>
<pdfrwt beam="2">  1        4 0.23780744E-01 0.12500055E+03</pdfrwt>
<pdfrwt beam="1">  1       -4 0.10266406E-01 0.12500055E+03</pdfrwt>
<totfact> 0.19236812E+03</totfact>
</mgrwt>
</event>
<event>
 5    1  0.1423270E-002  0.1249952E+03  0.7818608E-02  0.1235077E+00
         -4   -1    0    0    0  501 -0.00000000000E+00  0.00000000000E+00  0.14822386182E+03  0.14822930247E+03  0.12700000000E+01 0.  1.
          4   -1    0    0  501    0  0.00000000000E+00 -0.00000000000E+00 -0.26330475255E+02  0.26361085469E+02  0.12700000000E+01 0.  1.
         25    2    1    2    0    0  0.00000000000E+00  0.00000000000E+00  0.12189338656E+03  0.17459038794E+03  0.12499522341E+03 0.  0.
    9000005    1    3    3    0    0  0.38882778493E+02 -0.36444678882E+02  0.15366677412E+02  0.55472694696E+02  0.10000000000E+01 0.  0.
    9000005    1    3    3    0    0 -0.38882778493E+02  0.36444678882E+02  0.10652670915E+03  0.11911769325E+03  0.10000000000E+01 0.  0.
<mgrwt>
<rscale>  0 0.12499522E+03</rscale>
<asrwt>0</asrwt>
<pdfrwt beam="2">  1        4 0.65871253E-02 0.12499522E+03</pdfrwt>
<pdfrwt beam="1">  1       -4 0.37060471E-01 0.12499522E+03</pdfrwt>
<totfact> 0.17393894E+03</totfact>
</mgrwt>
</event>
<event>
 5    1  0.1423270E-002  0.1249988E+03  0.7818608E-02  0.1235071E+00
         -4   -1    0    0    0  501 -0.00000000000E+00  0.00000000000E+00  0.18229359439E+02  0.18273544964E+02  0.12700000000E+01 0. -1.
          4   -1    0    0  501    0  0.00000000000E+00 -0.00000000000E+00 -0.21397394472E+03  0.21397771360E+03  0.12700000000E+01 0. -1.
         25    2    1    2    0    0  0.00000000000E+00  0.00000000000E+00 -0.19574458528E+03  0.23225125856E+03  0.12499881775E+03 0.  0.
    9000005    1    3    3    0    0  0.47193013411E+02 -0.27186237532E+02 -0.15480512429E+03  0.16410941024E+03  0.10000000000E+01 0.  0.
    9000005    1    3    3    0    0 -0.47193013411E+02  0.27186237532E+02 -0.40939460991E+02  0.68141848318E+02  0.10000000000E+01 0.  0.
<mgrwt>
<rscale>  0 0.12499882E+03</rscale>
<asrwt>0</asrwt>
<pdfrwt beam="2">  1        4 0.53499473E-01 0.12499882E+03</pdfrwt>
<pdfrwt beam="1">  1       -4 0.45633348E-02 0.12499882E+03</pdfrwt>
<totfact> 0.15107614E+03</totfact>
</mgrwt>
</event>
<event>
 5    1  0.1423270E-002  0.1250014E+03  0.7818608E-02  0.1235067E+00
          4   -1    0    0  501    0  0.00000000000E+00  0.00000000000E+00  0.93285598268E+02  0.93294242824E+02  0.12700000000E+01 0.  1.
         -4   -1    0    0    0  501 -0.00000000000E+00 -0.00000000000E+00 -0.41854795885E+02  0.41874059256E+02  0.12700000000E+01 0.  1.
         25    2    1    2    0    0  0.00000000000E+00  0.00000000000E+00  0.51430802383E+02  0.13516830208E+03  0.12500136981E+03 0.  0.
    9000005    1    3    3    0    0  0.56144029583E+02  0.20973732490E+02  0.65758984587E+01  0.60301674545E+02  0.10000000000E+01 0.  0.
    9000005    1    3    3    0    0 -0.56144029583E+02 -0.20973732490E+02  0.44854903924E+02  0.74866627535E+02  0.10000000000E+01 0.  0.
<mgrwt>
<rscale>  0 0.12500137E+03</rscale>
<asrwt>0</asrwt>
<pdfrwt beam="1">  1        4 0.23324888E-01 0.12500137E+03</pdfrwt>
<pdfrwt beam="2">  1       -4 0.10467188E-01 0.12500137E+03</pdfrwt>
<totfact> 0.19289709E+03</totfact>
</mgrwt>
</event>
<event>
 5    1  0.1423270E-002  0.1250033E+03  0.7818608E-02  0.1235064E+00
         -4   -1    0    0    0  501 -0.00000000000E+00  0.00000000000E+00  0.57199523302E+02  0.57213620459E+02  0.12700000000E+01 0.  1.
          4   -1    0    0  501    0  0.00000000000E+00 -0.00000000000E+00 -0.68266800720E+02  0.68278612907E+02  0.12700000000E+01 0.  1.
         25    2    1    2    0    0  0.00000000000E+00  0.00000000000E+00 -0.11067277418E+02  0.12549223337E+03  0.12500326398E+03 0.  0.
    9000005    1    3    3    0    0  0.73015827067E+01  0.38788325468E+02  0.43107996388E+02  0.58456365395E+02  0.10000000000E+01 0.  0.
    9000005    1    3    3    0    0 -0.73015827067E+01 -0.38788325468E+02 -0.54175273806E+02  0.67035867971E+02  0.10000000000E+01 0.  0.
<mgrwt>
<rscale>  0 0.12500326E+03</rscale>
<asrwt>0</asrwt>
<pdfrwt beam="2">  1        4 0.17069939E-01 0.12500326E+03</pdfrwt>
<pdfrwt beam="1">  1       -4 0.14303120E-01 0.12500326E+03</pdfrwt>
<totfact> 0.19806871E+03</totfact>
</mgrwt>
</event>
<event>
 5    1  0.1423270E-002  0.1250049E+03  0.7818608E-02  0.1235062E+00
          4   -1    0    0  501    0  0.00000000000E+00  0.00000000000E+00  0.28782654414E+02  0.28810659401E+02  0.12700000000E+01 0.  1.
         -4   -1    0    0    0  501 -0.00000000000E+00 -0.00000000000E+00 -0.13562915467E+03  0.13563510053E+03  0.12700000000E+01 0.  1.
         25    2    1    2    0    0  0.00000000000E+00  0.00000000000E+00 -0.10684650026E+03  0.16444575993E+03  0.12500493328E+03 0.  0.
    9000005    1    3    3    0    0 -0.58056741857E+02 -0.21900150355E+02 -0.63210929672E+02  0.88582297840E+02  0.10000000000E+01 0.  0.
    9000005    1    3    3    0    0  0.58056741857E+02  0.21900150355E+02 -0.43635570584E+02  0.75863462093E+02  0.10000000000E+01 0.  0.
<mgrwt>
<rscale>  0 0.12500493E+03</rscale>
<asrwt>0</asrwt>
<pdfrwt beam="1">  1        4 0.71999078E-02 0.12500493E+03</pdfrwt>
<pdfrwt beam="2">  1       -4 0.33911531E-01 0.12500493E+03</pdfrwt>
<totfact> 0.17848470E+03</totfact>
</mgrwt>
</event>
<event>
 5    1  0.1423270E-002  0.1250014E+03  0.7818608E-02  0.1235067E+00
          4   -1    0    0  501    0  0.00000000000E+00  0.00000000000E+00  0.95988337845E+01  0.96824847029E+01  0.12700000000E+01 0.  1.
         -4   -1    0    0    0  501 -0.00000000000E+00 -0.00000000000E+00 -0.40510921860E+03  0.40511120930E+03  0.12700000000E+01 0.  1.
         25    2    1    2    0    0  0.00000000000E+00  0.00000000000E+00 -0.39551038482E+03  0.41479369400E+03  0.12500137632E+03 0.  0.
    9000005    1    3    3    0    0 -0.21960117420E+02  0.51131291928E+02 -0.10339131698E+03  0.11741984584E+03  0.10000000000E+01 0.  0.
    9000005    1    3    3    0    0  0.21960117420E+02 -0.51131291928E+02 -0.29211906784E+03  0.29737384815E+03  0.10000000000E+01 0.  0.
<mgrwt>
<rscale>  0 0.12500138E+03</rscale>
<asrwt>0</asrwt>
<pdfrwt beam="1">  1        4 0.24104150E-02 0.12500138E+03</pdfrwt>
<pdfrwt beam="2">  1       -4 0.10128795E+00 0.12500138E+03</pdfrwt>
<totfact> 0.10269137E+03</totfact>
</mgrwt>
</event>
<event>
 5    1  0.1423270E-002  0.1250058E+03  0.7818608E-02  0.1235060E+00
         -4   -1    0    0    0  501 -0.00000000000E+00  0.00000000000E+00  0.10440731229E+02  0.10517688368E+02  0.12700000000E+01 0. -1.
          4   -1    0    0  501    0  0.00000000000E+00 -0.00000000000E+00 -0.37271840862E+03  0.37272057231E+03  0.12700000000E+01 0. -1.
         25    2    1    2    0    0  0.00000000000E+00  0.00000000000E+00 -0.36227767739E+03  0.38323826068E+03  0.12500579552E+03 0.  0.
    9000005    1    3    3    0    0  0.14276905407E+02  0.28162640624E+02 -0.34648125731E+03  0.34791841863E+03  0.10000000000E+01 0.  0.
    9000005    1    3    3    0    0 -0.14276905407E+02 -0.28162640624E+02 -0.15796420077E+02  0.35319842046E+02  0.10000000000E+01 0.  0.
<mgrwt>
<rscale>  0 0.12500580E+03</rscale>
<asrwt>0</asrwt>
<pdfrwt beam="2">  1        4 0.93189448E-01 0.12500580E+03</pdfrwt>
<pdfrwt beam="1">  1       -4 0.26200742E-02 0.12500580E+03</pdfrwt>
<totfact> 0.10921370E+03</totfact>
</mgrwt>
</event>
<event>
 5    1  0.1423270E-002  0.1250065E+03  0.7818608E-02  0.1235059E+00
          4   -1    0    0  501    0  0.00000000000E+00  0.00000000000E+00  0.18166942526E+04  0.18166946965E+04  0.12700000000E+01 0. -1.
         -4   -1    0    0    0  501 -0.00000000000E+00 -0.00000000000E+00 -0.19624260724E+01  0.23375234950E+01  0.12700000000E+01 0. -1.
         25    2    1    2    0    0  0.00000000000E+00  0.00000000000E+00  0.18147318265E+04  0.18190322200E+04  0.12500646066E+03 0.  0.
    9000005    1    3    3    0    0 -0.55786592803E+02 -0.13854614128E+02  0.12642664813E+04  0.12655729256E+04  0.10000000000E+01 0.  0.
    9000005    1    3    3    0    0  0.55786592803E+02  0.13854614128E+02  0.55046534523E+03  0.55345929441E+03  0.10000000000E+01 0.  0.
<mgrwt>
<rscale>  0 0.12500646E+03</rscale>
<asrwt>0</asrwt>
<pdfrwt beam="1">  1        4 0.45422044E+00 0.12500646E+03</pdfrwt>
<pdfrwt beam="2">  1       -4 0.53754927E-03 0.12500646E+03</pdfrwt>
<totfact> 0.48346745E+01</totfact>
</mgrwt>
</event>
<event>
 5    1  0.1423270E-002  0.1249957E+03  0.7818608E-02  0.1235076E+00
         -4   -1    0    0    0  501 -0.00000000000E+00  0.00000000000E+00  0.25506904130E+02  0.25538501489E+02  0.12700000000E+01 0.  1.
          4   -1    0    0  501    0  0.00000000000E+00 -0.00000000000E+00 -0.15300518664E+03  0.15301045729E+03  0.12700000000E+01 0.  1.
         25    2    1    2    0    0  0.00000000000E+00  0.00000000000E+00 -0.12749828251E+03  0.17854895878E+03  0.12499567447E+03 0.  0.
    9000005    1    3    3    0    0 -0.22679192476E+02 -0.31559520124E+02 -0.13364985326E+03  0.13918919627E+03  0.10000000000E+01 0.  0.
    9000005    1    3    3    0    0  0.22679192476E+02  0.31559520124E+02  0.61515707485E+01  0.39359762506E+02  0.10000000000E+01 0.  0.
<mgrwt>
<rscale>  0 0.12499567E+03</rscale>
<asrwt>0</asrwt>
<pdfrwt beam="2">  1        4 0.38255903E-01 0.12499567E+03</pdfrwt>
<pdfrwt beam="1">  1       -4 0.63813350E-02 0.12499567E+03</pdfrwt>
<totfact> 0.17219934E+03</totfact>
</mgrwt>
</event>
<event>
 5    1  0.1423270E-002  0.1250038E+03  0.7818608E-02  0.1235063E+00
         -4   -1    0    0    0  501 -0.00000000000E+00  0.00000000000E+00  0.67116915091E+01  0.68307907970E+01  0.12700000000E+01 0. -1.
          4   -1    0    0  501    0  0.00000000000E+00 -0.00000000000E+00 -0.57680390087E+03  0.57680529901E+03  0.12700000000E+01 0. -1.
         25    2    1    2    0    0  0.00000000000E+00  0.00000000000E+00 -0.57009220936E+03  0.58363608980E+03  0.12500383252E+03 0.  0.
    9000005    1    3    3    0    0 -0.75748633468E+01 -0.98640806130E+01  0.89816336181E+00  0.12509409998E+02  0.10000000000E+01 0.  0.
    9000005    1    3    3    0    0  0.75748633468E+01  0.98640806130E+01 -0.57099037272E+03  0.57112667981E+03  0.10000000000E+01 0.  0.
<mgrwt>
<rscale>  0 0.12500383E+03</rscale>
<asrwt>0</asrwt>
<pdfrwt beam="2">  1        4 0.14421587E+00 0.12500383E+03</pdfrwt>
<pdfrwt beam="1">  1       -4 0.16929870E-02 0.12500383E+03</pdfrwt>
<totfact> 0.75594716E+02</totfact>
</mgrwt>
</event>
<event>
 5    1  0.1423270E-002  0.1249989E+03  0.7818608E-02  0.1235071E+00
          4   -1    0    0  501    0  0.00000000000E+00  0.00000000000E+00  0.40699907762E+03  0.40700105907E+03  0.12700000000E+01 0.  1.
         -4   -1    0    0    0  501 -0.00000000000E+00 -0.00000000000E+00 -0.95534906126E+01  0.96375351043E+01  0.12700000000E+01 0.  1.
         25    2    1    2    0    0  0.00000000000E+00  0.00000000000E+00  0.39744558701E+03  0.41663859417E+03  0.12499889409E+03 0.  0.
    9000005    1    3    3    0    0  0.30898950915E+02  0.44950560141E+02  0.30036344660E+03  0.30527773924E+03  0.10000000000E+01 0.  0.
    9000005    1    3    3    0    0 -0.30898950915E+02 -0.44950560141E+02  0.97082140411E+02  0.11136085493E+03  0.10000000000E+01 0.  0.
<mgrwt>
<rscale>  0 0.12499889E+03</rscale>
<asrwt>0</asrwt>
<pdfrwt beam="1">  1        4 0.10176052E+00 0.12499889E+03</pdfrwt>
<pdfrwt beam="2">  1       -4 0.23991259E-02 0.12499889E+03</pdfrwt>
<totfact> 0.10232913E+03</totfact>
</mgrwt>
</event>
<event>
 5    1  0.1423270E-002  0.1250042E+03  0.7818608E-02  0.1235063E+00
          4   -1    0    0  501    0  0.00000000000E+00  0.00000000000E+00  0.61757404154E+02  0.61770461127E+02  0.12700000000E+01 0.  1.
         -4   -1    0    0    0  501 -0.00000000000E+00 -0.00000000000E+00 -0.63229641186E+02  0.63242394202E+02  0.12700000000E+01 0.  1.
         25    2    1    2    0    0  0.00000000000E+00  0.00000000000E+00 -0.14722370312E+01  0.12501285533E+03  0.12500418599E+03 0.  0.
    9000005    1    3    3    0    0  0.49980662014E+02 -0.34995010589E+02 -0.14257199938E+02  0.62665661183E+02  0.10000000000E+01 0.  0.
    9000005    1    3    3    0    0 -0.49980662014E+02  0.34995010589E+02  0.12784962907E+02  0.62347194147E+02  0.10000000000E+01 0.  0.
<mgrwt>
<rscale>  0 0.12500419E+03</rscale>
<asrwt>0</asrwt>
<pdfrwt beam="1">  1        4 0.15442577E-01 0.12500419E+03</pdfrwt>
<pdfrwt beam="2">  1       -4 0.15810637E-01 0.12500419E+03</pdfrwt>
<totfact> 0.19832416E+03</totfact>
</mgrwt>
</event>
<event>
 5    1  0.1423270E-002  0.1250027E+03  0.7818608E-02  0.1235065E+00
         -4   -1    0    0    0  501 -0.00000000000E+00  0.00000000000E+00  0.42935139055E+02  0.42953917931E+02  0.12700000000E+01 0. -1.
          4   -1    0    0  501    0  0.00000000000E+00 -0.00000000000E+00 -0.90941051560E+02  0.90949918960E+02  0.12700000000E+01 0. -1.
         25    2    1    2    0    0  0.00000000000E+00  0.00000000000E+00 -0.48005912505E+02  0.13390383689E+03  0.12500267957E+03 0.  0.
    9000005    1    3    3    0    0 -0.87809197603E+01 -0.59560877285E+02 -0.60521602832E+01  0.60516372156E+02  0.10000000000E+01 0.  0.
    9000005    1    3    3    0    0  0.87809197603E+01  0.59560877285E+02 -0.41953752222E+02  0.73387464735E+02  0.10000000000E+01 0.  0.
<mgrwt>
<rscale>  0 0.12500268E+03</rscale>
<asrwt>0</asrwt>
<pdfrwt beam="2">  1        4 0.22738718E-01 0.12500268E+03</pdfrwt>
<pdfrwt beam="1">  1       -4 0.10737241E-01 0.12500268E+03</pdfrwt>
<totfact> 0.19355497E+03</totfact>
</mgrwt>
</event>
<event>
 4    1  0.1423270E-002  0.1250672E+03  0.7818608E-02  0.1234964E+00
          4   -1    0    0  501    0  0.00000000000E+00  0.00000000000E+00  0.74351539418E+02  0.74362385073E+02  0.12700000000E+01 0. -1.
         -4   -1    0    0    0  501 -0.00000000000E+00 -0.00000000000E+00 -0.52571734823E+02  0.52587072578E+02  0.12700000000E+01 0. -1.
    9000005    1    1    2    0    0  0.52026578796E+02  0.26368760908E+02 -0.11974078831E+02  0.59552120171E+02  0.10000000000E+01 0.  0.
    9000005    1    1    2    0    0 -0.52026578796E+02 -0.26368760908E+02  0.33753883426E+02  0.67397337480E+02  0.10000000000E+01 0.  0.
<mgrwt>
<rscale>  0 0.12506720E+03</rscale>
<asrwt>0</asrwt>
<pdfrwt beam="1">  1        4 0.18591158E-01 0.12506720E+03</pdfrwt>
<pdfrwt beam="2">  1       -4 0.13146207E-01 0.12506720E+03</pdfrwt>
<totfact> 0.19698724E+03</totfact>
</mgrwt>
</event>
<event>
 5    1  0.1423270E-002  0.1250142E+03  0.7818608E-02  0.1235047E+00
         -4   -1    0    0    0  501 -0.00000000000E+00  0.00000000000E+00  0.33926114333E+03  0.33926352040E+03  0.12700000000E+01 0. -1.
          4   -1    0    0  501    0  0.00000000000E+00 -0.00000000000E+00 -0.11479176721E+02  0.11549216345E+02  0.12700000000E+01 0. -1.
         25    2    1    2    0    0  0.00000000000E+00  0.00000000000E+00  0.32778196661E+03  0.35081273675E+03  0.12501423370E+03 0.  0.
    9000005    1    3    3    0    0 -0.53424288473E+02 -0.30003355212E+02  0.12931866474E+03  0.14310371404E+03  0.10000000000E+01 0.  0.
    9000005    1    3    3    0    0  0.53424288473E+02  0.30003355212E+02  0.19846330187E+03  0.20770902270E+03  0.10000000000E+01 0.  0.
<mgrwt>
<rscale>  0 0.12501423E+03</rscale>
<asrwt>0</asrwt>
<pdfrwt beam="2">  1        4 0.28788463E-02 0.12501423E+03</pdfrwt>
<pdfrwt beam="1">  1       -4 0.84824337E-01 0.12501423E+03</pdfrwt>
<totfact> 0.11654171E+03</totfact>
</mgrwt>
</event>
<event>
 5    1  0.1423270E-002  0.1249996E+03  0.7818608E-02  0.1235070E+00
         -4   -1    0    0    0  501 -0.00000000000E+00  0.00000000000E+00  0.31641798915E+03  0.31642053783E+03  0.12700000000E+01 0.  1.
          4   -1    0    0  501    0  0.00000000000E+00 -0.00000000000E+00 -0.12309870599E+02  0.12375209661E+02  0.12700000000E+01 0.  1.
         25    2    1    2    0    0  0.00000000000E+00  0.00000000000E+00  0.30410811856E+03  0.32879574749E+03  0.12499958319E+03 0.  0.
    9000005    1    3    3    0    0 -0.46300975143E+02 -0.18443707713E+02  0.25121860465E+03  0.25611664916E+03  0.10000000000E+01 0.  0.
    9000005    1    3    3    0    0  0.46300975143E+02  0.18443707713E+02  0.52889513903E+02  0.72679098331E+02  0.10000000000E+01 0.  0.
<mgrwt>
<rscale>  0 0.12499958E+03</rscale>
<asrwt>0</asrwt>
<pdfrwt beam="2">  1        4 0.30859538E-02 0.12499958E+03</pdfrwt>
<pdfrwt beam="1">  1       -4 0.79112977E-01 0.12499958E+03</pdfrwt>
<totfact> 0.12200841E+03</totfact>
</mgrwt>
</event>
<event>
 5    1  0.1423270E-002  0.1249948E+03  0.7818608E-02  0.1235077E+00
          4   -1    0    0  501    0  0.00000000000E+00  0.00000000000E+00  0.23529751196E+02  0.23563999901E+02  0.12700000000E+01 0.  1.
         -4   -1    0    0    0  501 -0.00000000000E+00 -0.00000000000E+00 -0.16584189430E+03  0.16584675699E+03  0.12700000000E+01 0.  1.
         25    2    1    2    0    0  0.00000000000E+00  0.00000000000E+00 -0.14231214310E+03  0.18941075689E+03  0.12499475490E+03 0.  0.
    9000005    1    3    3    0    0  0.52578435392E+02  0.32407592458E+02 -0.85546171209E+02  0.10551725606E+03  0.10000000000E+01 0.  0.
    9000005    1    3    3    0    0 -0.52578435392E+02 -0.32407592458E+02 -0.56765971891E+02  0.83893500833E+02  0.10000000000E+01 0.  0.
<mgrwt>
<rscale>  0 0.12499475E+03</rscale>
<asrwt>0</asrwt>
<pdfrwt beam="1">  1        4 0.58873272E-02 0.12499475E+03</pdfrwt>
<pdfrwt beam="2">  1       -4 0.41465359E-01 0.12499475E+03</pdfrwt>
<totfact> 0.16757056E+03</totfact>
</mgrwt>
</event>
<event>
 5    1  0.1423270E-002  0.1249987E+03  0.7818608E-02  0.1235071E+00
         -4   -1    0    0    0  501 -0.00000000000E+00  0.00000000000E+00  0.10611393798E+03  0.10612153756E+03  0.12700000000E+01 0.  1.
          4   -1    0    0  501    0  0.00000000000E+00 -0.00000000000E+00 -0.36791218394E+02  0.36813131501E+02  0.12700000000E+01 0.  1.
         25    2    1    2    0    0  0.00000000000E+00  0.00000000000E+00  0.69322719590E+02  0.14293466906E+03  0.12499872067E+03 0.  0.
    9000005    1    3    3    0    0  0.24336130626E+02 -0.34767139025E+02 -0.17791878347E+02  0.46027732347E+02  0.10000000000E+01 0.  0.
    9000005    1    3    3    0    0 -0.24336130626E+02  0.34767139025E+02  0.87114597937E+02  0.96906936716E+02  0.10000000000E+01 0.  0.
<mgrwt>
<rscale>  0 0.12499872E+03</rscale>
<asrwt>0</asrwt>
<pdfrwt beam="2">  1        4 0.92014937E-02 0.12499872E+03</pdfrwt>
<pdfrwt beam="1">  1       -4 0.26532173E-01 0.12499872E+03</pdfrwt>
<totfact> 0.18891765E+03</totfact>
</mgrwt>
</event>
<event>
 5    1  0.1423270E-002  0.1249936E+03  0.7818608E-02  0.1235079E+00
          4   -1    0    0  501    0  0.00000000000E+00  0.00000000000E+00  0.10694668172E+02  0.10769810923E+02  0.12700000000E+01 0. -1.
         -4   -1    0    0    0  501 -0.00000000000E+00 -0.00000000000E+00 -0.36385991762E+03  0.36386213399E+03  0.12700000000E+01 0. -1.
         25    2    1    2    0    0  0.00000000000E+00  0.00000000000E+00 -0.35316524945E+03  0.37463194491E+03  0.12499360276E+03 0.  0.
    9000005    1    3    3    0    0  0.54920335738E+02  0.12218294107E+02 -0.25807806405E+03  0.26414166111E+03  0.10000000000E+01 0.  0.
    9000005    1    3    3    0    0 -0.54920335738E+02 -0.12218294107E+02 -0.95087185400E+02  0.11049028381E+03  0.10000000000E+01 0.  0.
<mgrwt>
<rscale>  0 0.12499360E+03</rscale>
<asrwt>0</asrwt>
<pdfrwt beam="1">  1        4 0.26833381E-02 0.12499360E+03</pdfrwt>
<pdfrwt beam="2">  1       -4 0.90974608E-01 0.12499360E+03</pdfrwt>
<totfact> 0.11112733E+03</totfact>
</mgrwt>
</event>
<event>
 5    1  0.1423270E-002  0.1249990E+03  0.7818608E-02  0.1235071E+00
          4   -1    0    0  501    0  0.00000000000E+00  0.00000000000E+00  0.16723674208E+03  0.16724156422E+03  0.12700000000E+01 0.  1.
         -4   -1    0    0    0  501 -0.00000000000E+00 -0.00000000000E+00 -0.23334816525E+02  0.23369350917E+02  0.12700000000E+01 0.  1.
         25    2    1    2    0    0  0.00000000000E+00  0.00000000000E+00  0.14390192556E+03  0.19061091513E+03  0.12499902715E+03 0.  0.
    9000005    1    3    3    0    0  0.17981246946E+02  0.32397430309E+02 -0.47845108949E+01  0.37373925094E+02  0.10000000000E+01 0.  0.
    9000005    1    3    3    0    0 -0.17981246946E+02 -0.32397430309E+02  0.14868643645E+03  0.15323699004E+03  0.10000000000E+01 0.  0.
<mgrwt>
<rscale>  0 0.12499903E+03</rscale>
<asrwt>0</asrwt>
<pdfrwt beam="1">  1        4 0.41814105E-01 0.12499903E+03</pdfrwt>
<pdfrwt beam="2">  1       -4 0.58386238E-02 0.12499903E+03</pdfrwt>
<totfact> 0.16705405E+03</totfact>
</mgrwt>
</event>
<event>
 5    1  0.1423270E-002  0.1250026E+03  0.7818608E-02  0.1235065E+00
         -4   -1    0    0    0  501 -0.00000000000E+00  0.00000000000E+00  0.18899055856E+03  0.18899482566E+03  0.12700000000E+01 0. -1.
          4   -1    0    0  501    0  0.00000000000E+00 -0.00000000000E+00 -0.20645854818E+02  0.20684879046E+02  0.12700000000E+01 0. -1.
         25    2    1    2    0    0  0.00000000000E+00  0.00000000000E+00  0.16834470375E+03  0.20967970471E+03  0.12500255712E+03 0.  0.
    9000005    1    3    3    0    0 -0.26874487371E+01  0.16640671319E+02 -0.16768806017E+02  0.23797629670E+02  0.10000000000E+01 0.  0.
    9000005    1    3    3    0    0  0.26874487371E+01 -0.16640671319E+02  0.18511350976E+03  0.18588207504E+03  0.10000000000E+01 0.  0.
<mgrwt>
<rscale>  0 0.12500256E+03</rscale>
<asrwt>0</asrwt>
<pdfrwt beam="2">  1        4 0.51668751E-02 0.12500256E+03</pdfrwt>
<pdfrwt beam="1">  1       -4 0.47253051E-01 0.12500256E+03</pdfrwt>
<totfact> 0.15940710E+03</totfact>
</mgrwt>
</event>
<event>
 5    1  0.1423270E-002  0.1249934E+03  0.7818608E-02  0.1235080E+00
         -4   -1    0    0    0  501 -0.00000000000E+00  0.00000000000E+00  0.10443067875E+02  0.10520007921E+02  0.12700000000E+01 0. -1.
          4   -1    0    0  501    0  0.00000000000E+00 -0.00000000000E+00 -0.37256193465E+03  0.37256409925E+03  0.12700000000E+01 0. -1.
         25    2    1    2    0    0  0.00000000000E+00  0.00000000000E+00 -0.36211886677E+03  0.38308410717E+03  0.12499343780E+03 0.  0.
    9000005    1    3    3    0    0  0.27392240416E+02  0.37077861026E+01 -0.35282025746E+03  0.35390283496E+03  0.10000000000E+01 0.  0.
    9000005    1    3    3    0    0 -0.27392240416E+02 -0.37077861026E+01 -0.92986093057E+01  0.29181272210E+02  0.10000000000E+01 0.  0.
<mgrwt>
<rscale>  0 0.12499344E+03</rscale>
<asrwt>0</asrwt>
<pdfrwt beam="2">  1        4 0.93150328E-01 0.12499344E+03</pdfrwt>
<pdfrwt beam="1">  1       -4 0.26206563E-02 0.12499344E+03</pdfrwt>
<totfact> 0.10927779E+03</totfact>
</mgrwt>
</event>
<event>
 5    1  0.1423270E-002  0.1249985E+03  0.7818608E-02  0.1235072E+00
          4   -1    0    0  501    0  0.00000000000E+00  0.00000000000E+00  0.40958813507E+02  0.40978498068E+02  0.12700000000E+01 0. -1.
         -4   -1    0    0    0  501 -0.00000000000E+00 -0.00000000000E+00 -0.95321125990E+02  0.95329585964E+02  0.12700000000E+01 0. -1.
         25    2    1    2    0    0  0.00000000000E+00  0.00000000000E+00 -0.54362312483E+02  0.13630808403E+03  0.12499853101E+03 0.  0.
    9000005    1    3    3    0    0 -0.61599024183E+01  0.62032401602E+02 -0.22403552701E+02  0.66248640891E+02  0.10000000000E+01 0.  0.
    9000005    1    3    3    0    0  0.61599024183E+01 -0.62032401602E+02 -0.31958759781E+02  0.70059443140E+02  0.10000000000E+01 0.  0.
<mgrwt>
<rscale>  0 0.12499853E+03</rscale>
<asrwt>0</asrwt>
<pdfrwt beam="1">  1        4 0.10243222E-01 0.12499853E+03</pdfrwt>
<pdfrwt beam="2">  1       -4 0.23833799E-01 0.12499853E+03</pdfrwt>
<totfact> 0.19231498E+03</totfact>
</mgrwt>
</event>
<event>
 5    1  0.1423270E-002  0.1250002E+03  0.7818608E-02  0.1235069E+00
          4   -1    0    0  501    0  0.00000000000E+00  0.00000000000E+00  0.15055982948E+03  0.15056518573E+03  0.12700000000E+01 0. -1.
         -4   -1    0    0    0  501 -0.00000000000E+00 -0.00000000000E+00 -0.25923555721E+02  0.25954645851E+02  0.12700000000E+01 0. -1.
         25    2    1    2    0    0  0.00000000000E+00  0.00000000000E+00  0.12463627376E+03  0.17651983158E+03  0.12500020081E+03 0.  0.
    9000005    1    3    3    0    0  0.12870769214E+02 -0.56587913400E+02  0.29581260049E+02  0.65145219235E+02  0.10000000000E+01 0.  0.
    9000005    1    3    3    0    0 -0.12870769214E+02  0.56587913400E+02  0.95055013709E+02  0.11137461234E+03  0.10000000000E+01 0.  0.
<mgrwt>
<rscale>  0 0.12500020E+03</rscale>
<asrwt>0</asrwt>
<pdfrwt beam="1">  1        4 0.37644513E-01 0.12500020E+03</pdfrwt>
<pdfrwt beam="2">  1       -4 0.64854448E-02 0.12500020E+03</pdfrwt>
<totfact> 0.17306841E+03</totfact>
</mgrwt>
</event>
<event>
 5    1  0.1423270E-002  0.1250037E+03  0.7818608E-02  0.1235063E+00
         -4   -1    0    0    0  501 -0.00000000000E+00  0.00000000000E+00  0.19729477523E+02  0.19770310653E+02  0.12700000000E+01 0.  1.
          4   -1    0    0  501    0  0.00000000000E+00 -0.00000000000E+00 -0.19775480284E+03  0.19775888082E+03  0.12700000000E+01 0.  1.
         25    2    1    2    0    0  0.00000000000E+00  0.00000000000E+00 -0.17802532531E+03  0.21752919148E+03  0.12500373071E+03 0.  0.
    9000005    1    3    3    0    0 -0.26037078356E+02 -0.55302163714E+02 -0.11165003833E+03  0.12729096519E+03  0.10000000000E+01 0.  0.
    9000005    1    3    3    0    0  0.26037078356E+02  0.55302163714E+02 -0.66375286987E+02  0.90238226287E+02  0.10000000000E+01 0.  0.
<mgrwt>
<rscale>  0 0.12500373E+03</rscale>
<asrwt>0</asrwt>
<pdfrwt beam="2">  1        4 0.49444309E-01 0.12500373E+03</pdfrwt>
<pdfrwt beam="1">  1       -4 0.49379839E-02 0.12500373E+03</pdfrwt>
<totfact> 0.15642055E+03</totfact>
</mgrwt>
</event>
<event>
 5    1  0.1423270E-002  0.1249966E+03  0.7818608E-02  0.1235075E+00
         -4   -1    0    0    0  501 -0.00000000000E+00  0.00000000000E+00  0.63977863408E+02  0.63990467307E+02  0.12700000000E+01 0. -1.
          4   -1    0    0  501    0  0.00000000000E+00 -0.00000000000E+00 -0.61027756061E+02  0.61040969110E+02  0.12700000000E+01 0. -1.
         25    2    1    2    0    0  0.00000000000E+00  0.00000000000E+00  0.29501073463E+01  0.12503143642E+03  0.12499662779E+03 0.  0.
    9000005    1    3    3    0    0  0.27039872157E+02 -0.28776964110E+02  0.49921700165E+02  0.63658813192E+02  0.10000000000E+01 0.  0.
    9000005    1    3    3    0    0 -0.27039872157E+02  0.28776964110E+02 -0.46971592818E+02  0.61372623225E+02  0.10000000000E+01 0.  0.
<mgrwt>
<rscale>  0 0.12499663E+03</rscale>
<asrwt>0</asrwt>
<pdfrwt beam="2">  1        4 0.15260166E-01 0.12499663E+03</pdfrwt>
<pdfrwt beam="1">  1       -4 0.15997693E-01 0.12499663E+03</pdfrwt>
<totfact> 0.19834916E+03</totfact>
</mgrwt>
</event>
<event>
 5    1  0.1423270E-002  0.1249980E+03  0.7818608E-02  0.1235072E+00
          4   -1    0    0  501    0  0.00000000000E+00  0.00000000000E+00  0.31506089888E+03  0.31506345853E+03  0.12700000000E+01 0. -1.
         -4   -1    0    0    0  501 -0.00000000000E+00 -0.00000000000E+00 -0.12362855266E+02  0.12427915768E+02  0.12700000000E+01 0. -1.
         25    2    1    2    0    0  0.00000000000E+00  0.00000000000E+00  0.30269804361E+03  0.32749137430E+03  0.12499797852E+03 0.  0.
    9000005    1    3    3    0    0  0.18651156661E+02 -0.59271081851E+02  0.13393124854E+03  0.14764655812E+03  0.10000000000E+01 0.  0.
    9000005    1    3    3    0    0 -0.18651156661E+02  0.59271081851E+02  0.16876679507E+03  0.17984481618E+03  0.10000000000E+01 0.  0.
<mgrwt>
<rscale>  0 0.12499798E+03</rscale>
<asrwt>0</asrwt>
<pdfrwt beam="1">  1        4 0.78773677E-01 0.12499798E+03</pdfrwt>
<pdfrwt beam="2">  1       -4 0.30991663E-02 0.12499798E+03</pdfrwt>
<totfact> 0.12234661E+03</totfact>
</mgrwt>
</event>
<event>
 5    1  0.1423270E-002  0.1250018E+03  0.7818608E-02  0.1235066E+00
         -4   -1    0    0    0  501 -0.00000000000E+00  0.00000000000E+00  0.31178761220E+03  0.31179019873E+03  0.12700000000E+01 0.  1.
          4   -1    0    0  501    0  0.00000000000E+00 -0.00000000000E+00 -0.12494093059E+02  0.12558473688E+02  0.12700000000E+01 0.  1.
         25    2    1    2    0    0  0.00000000000E+00  0.00000000000E+00  0.29929351915E+03  0.32434867242E+03  0.12500180277E+03 0.  0.
    9000005    1    3    3    0    0  0.45553478218E+02  0.40634636607E+02  0.11492459549E+03  0.13013437562E+03  0.10000000000E+01 0.  0.
    9000005    1    3    3    0    0 -0.45553478218E+02 -0.40634636607E+02  0.18436892366E+03  0.19421429680E+03  0.10000000000E+01 0.  0.
<mgrwt>
<rscale>  0 0.12500180E+03</rscale>
<asrwt>0</asrwt>
<pdfrwt beam="2">  1        4 0.31318942E-02 0.12500180E+03</pdfrwt>
<pdfrwt beam="1">  1       -4 0.77955273E-01 0.12500180E+03</pdfrwt>
<totfact> 0.12314563E+03</totfact>
</mgrwt>
</event>
<event>
 5    1  0.1423270E-002  0.1249991E+03  0.7818608E-02  0.1235071E+00
         -4   -1    0    0    0  501 -0.00000000000E+00  0.00000000000E+00  0.10099288074E+03  0.10100086564E+03  0.12700000000E+01 0. -1.
          4   -1    0    0  501    0  0.00000000000E+00 -0.00000000000E+00 -0.38657943494E+02  0.38678799040E+02  0.12700000000E+01 0. -1.
         25    2    1    2    0    0  0.00000000000E+00  0.00000000000E+00  0.62334937248E+02  0.13967966468E+03  0.12499905729E+03 0.  0.
    9000005    1    3    3    0    0 -0.71830427137E+01 -0.60265069383E+02  0.47806396764E+02  0.77265297915E+02  0.10000000000E+01 0.  0.
    9000005    1    3    3    0    0  0.71830427137E+01  0.60265069383E+02  0.14528540483E+02  0.62414366767E+02  0.10000000000E+01 0.  0.
<mgrwt>
<rscale>  0 0.12499906E+03</rscale>
<asrwt>0</asrwt>
<pdfrwt beam="2">  1        4 0.96680911E-02 0.12499906E+03</pdfrwt>
<pdfrwt beam="1">  1       -4 0.25251825E-01 0.12499906E+03</pdfrwt>
<totfact> 0.19057161E+03</totfact>
</mgrwt>
</event>
<event>
 5    1  0.1423270E-002  0.1250083E+03  0.7818608E-02  0.1235056E+00
          4   -1    0    0  501    0  0.00000000000E+00  0.00000000000E+00  0.65077317494E+02  0.65089708497E+02  0.12700000000E+01 0.  1.
         -4   -1    0    0    0  501 -0.00000000000E+00 -0.00000000000E+00 -0.60007900526E+02  0.60021338085E+02  0.12700000000E+01 0.  1.
         25    2    1    2    0    0  0.00000000000E+00  0.00000000000E+00  0.50694169681E+01  0.12511104658E+03  0.12500829968E+03 0.  0.
    9000005    1    3    3    0    0 -0.22553440497E+01 -0.22061242896E+02  0.61012038160E+02  0.64924986063E+02  0.10000000000E+01 0.  0.
    9000005    1    3    3    0    0  0.22553440497E+01  0.22061242896E+02 -0.55942621192E+02  0.60186060518E+02  0.10000000000E+01 0.  0.
<mgrwt>
<rscale>  0 0.12500830E+03</rscale>
<asrwt>0</asrwt>
<pdfrwt beam="1">  1        4 0.16272558E-01 0.12500830E+03</pdfrwt>
<pdfrwt beam="2">  1       -4 0.15005204E-01 0.12500830E+03</pdfrwt>
<totfact> 0.19825184E+03</totfact>
</mgrwt>
</event>
<event>
 5    1  0.1423270E-002  0.1250003E+03  0.7818608E-02  0.1235069E+00
         -4   -1    0    0    0  501 -0.00000000000E+00  0.00000000000E+00  0.85487963767E+01  0.86426164725E+01  0.12700000000E+01 0. -1.
          4   -1    0    0  501    0  0.00000000000E+00 -0.00000000000E+00 -0.45434975809E+03  0.45435153304E+03  0.12700000000E+01 0. -1.
         25    2    1    2    0    0  0.00000000000E+00  0.00000000000E+00 -0.44580096172E+03  0.46299414952E+03  0.12500034008E+03 0.  0.
    9000005    1    3    3    0    0  0.35614674431E+02 -0.44087556466E+02 -0.12538376978E+03  0.13760162570E+03  0.10000000000E+01 0.  0.
    9000005    1    3    3    0    0 -0.35614674431E+02  0.44087556466E+02 -0.32041719193E+03  0.32539252382E+03  0.10000000000E+01 0.  0.
<mgrwt>
<rscale>  0 0.12500034E+03</rscale>
<asrwt>0</asrwt>
<pdfrwt beam="2">  1        4 0.11359931E+00 0.12500034E+03</pdfrwt>
<pdfrwt beam="1">  1       -4 0.21491500E-02 0.12500034E+03</pdfrwt>
<totfact> 0.93729345E+02</totfact>
</mgrwt>
</event>
<event>
 5    1  0.1423270E-002  0.1249974E+03  0.7818608E-02  0.1235073E+00
          4   -1    0    0  501    0  0.00000000000E+00  0.00000000000E+00  0.43154029316E+03  0.43154216193E+03  0.12700000000E+01 0. -1.
         -4   -1    0    0    0  501 -0.00000000000E+00 -0.00000000000E+00 -0.90050550874E+01  0.90941694028E+01  0.12700000000E+01 0. -1.
         25    2    1    2    0    0  0.00000000000E+00  0.00000000000E+00  0.42253523808E+03  0.44063633133E+03  0.12499739627E+03 0.  0.
    9000005    1    3    3    0    0 -0.77177186670E+01  0.62693929143E+01 -0.62158296472E+01  0.11768815027E+02  0.10000000000E+01 0.  0.
    9000005    1    3    3    0    0  0.77177186670E+01 -0.62693929143E+01  0.42875106772E+03  0.42886751631E+03  0.10000000000E+01 0.  0.
<mgrwt>
<rscale>  0 0.12499740E+03</rscale>
<asrwt>0</asrwt>
<pdfrwt beam="1">  1        4 0.10789644E+00 0.12499740E+03</pdfrwt>
<pdfrwt beam="2">  1       -4 0.22626368E-02 0.12499740E+03</pdfrwt>
<totfact> 0.97728548E+02</totfact>
</mgrwt>
</event>
<event>
 5    1  0.1423270E-002  0.1250003E+03  0.7818608E-02  0.1235069E+00
         -4   -1    0    0    0  501 -0.00000000000E+00  0.00000000000E+00  0.28398080779E+02  0.28426464640E+02  0.12700000000E+01 0.  1.
          4   -1    0    0  501    0  0.00000000000E+00 -0.00000000000E+00 -0.13745387963E+03  0.13745974657E+03  0.12700000000E+01 0.  1.
         25    2    1    2    0    0  0.00000000000E+00  0.00000000000E+00 -0.10905579885E+03  0.16588621121E+03  0.12500027122E+03 0.  0.
    9000005    1    3    3    0    0 -0.22975278014E+02  0.17649102002E+02  0.18953806219E+02  0.34635256192E+02  0.10000000000E+01 0.  0.
    9000005    1    3    3    0    0  0.22975278014E+02 -0.17649102002E+02 -0.12800960507E+03  0.13125095502E+03  0.10000000000E+01 0.  0.
<mgrwt>
<rscale>  0 0.12500027E+03</rscale>
<asrwt>0</asrwt>
<pdfrwt beam="2">  1        4 0.34367749E-01 0.12500027E+03</pdfrwt>
<pdfrwt beam="1">  1       -4 0.71038019E-02 0.12500027E+03</pdfrwt>
<totfact> 0.17784096E+03</totfact>
</mgrwt>
</event>
<event>
 5    1  0.1423270E-002  0.1250011E+03  0.7818608E-02  0.1235068E+00
         -4   -1    0    0    0  501 -0.00000000000E+00  0.00000000000E+00  0.10364445637E+03  0.10365223700E+03  0.12700000000E+01 0. -1.
          4   -1    0    0  501    0  0.00000000000E+00 -0.00000000000E+00 -0.37669681686E+02  0.37691084069E+02  0.12700000000E+01 0. -1.
         25    2    1    2    0    0  0.00000000000E+00  0.00000000000E+00  0.65974774682E+02  0.14134332107E+03  0.12500105406E+03 0.  0.
    9000005    1    3    3    0    0 -0.14132648637E+02  0.27382734073E+02  0.94462160447E+02  0.99366219808E+02  0.10000000000E+01 0.  0.
    9000005    1    3    3    0    0  0.14132648637E+02 -0.27382734073E+02 -0.28487385765E+02  0.41977101263E+02  0.10000000000E+01 0.  0.
<mgrwt>
<rscale>  0 0.12500105E+03</rscale>
<asrwt>0</asrwt>
<pdfrwt beam="2">  1        4 0.94210684E-02 0.12500105E+03</pdfrwt>
<pdfrwt beam="1">  1       -4 0.25914762E-01 0.12500105E+03</pdfrwt>
<totfact> 0.18971364E+03</totfact>
</mgrwt>
</event>
<event>
 5    1  0.1423270E-002  0.1250060E+03  0.7818608E-02  0.1235060E+00
         -4   -1    0    0    0  501 -0.00000000000E+00  0.00000000000E+00  0.13488539263E+03  0.13489137127E+03  0.12700000000E+01 0. -1.
          4   -1    0    0  501    0  0.00000000000E+00 -0.00000000000E+00 -0.28942016956E+02  0.28969867889E+02  0.12700000000E+01 0. -1.
         25    2    1    2    0    0  0.00000000000E+00  0.00000000000E+00  0.10594337567E+03  0.16386123916E+03  0.12500602726E+03 0.  0.
    9000005    1    3    3    0    0  0.46444753389E+02  0.16746364571E+02  0.27468212282E+01  0.49458071844E+02  0.10000000000E+01 0.  0.
    9000005    1    3    3    0    0 -0.46444753389E+02 -0.16746364571E+02  0.10319655444E+03  0.11440316732E+03  0.10000000000E+01 0.  0.
<mgrwt>
<rscale>  0 0.12500603E+03</rscale>
<asrwt>0</asrwt>
<pdfrwt beam="2">  1        4 0.72397330E-02 0.12500603E+03</pdfrwt>
<pdfrwt beam="1">  1       -4 0.33725577E-01 0.12500603E+03</pdfrwt>
<totfact> 0.17875036E+03</totfact>
</mgrwt>
</event>
<event>
 5    1  0.1423270E-002  0.1250082E+03  0.7818608E-02  0.1235056E+00
         -4   -1    0    0    0  501 -0.00000000000E+00  0.00000000000E+00  0.32316230782E+03  0.32316480331E+03  0.12700000000E+01 0. -1.
          4   -1    0    0  501    0  0.00000000000E+00 -0.00000000000E+00 -0.12053263140E+02  0.12119985657E+02  0.12700000000E+01 0. -1.
         25    2    1    2    0    0  0.00000000000E+00  0.00000000000E+00  0.31110904468E+03  0.33528478896E+03  0.12500820784E+03 0.  0.
    9000005    1    3    3    0    0  0.30827133074E+02  0.54361091830E+02  0.15403121953E+03  0.16622892958E+03  0.10000000000E+01 0.  0.
    9000005    1    3    3    0    0 -0.30827133074E+02 -0.54361091830E+02  0.15707782515E+03  0.16905585939E+03  0.10000000000E+01 0.  0.
<mgrwt>
<rscale>  0 0.12500821E+03</rscale>
<asrwt>0</asrwt>
<pdfrwt beam="2">  1        4 0.30219680E-02 0.12500821E+03</pdfrwt>
<pdfrwt beam="1">  1       -4 0.80799229E-01 0.12500821E+03</pdfrwt>
<totfact> 0.12034486E+03</totfact>
</mgrwt>
</event>
<event>
 5    1  0.1423270E-002  0.1249779E+03  0.7818608E-02  0.1235104E+00
         -4   -1    0    0    0  501 -0.00000000000E+00  0.00000000000E+00  0.49706688738E+02  0.49722910266E+02  0.12700000000E+01 0.  1.
          4   -1    0    0  501    0  0.00000000000E+00 -0.00000000000E+00 -0.78524080556E+02  0.78534349983E+02  0.12700000000E+01 0.  1.
         25    2    1    2    0    0  0.00000000000E+00  0.00000000000E+00 -0.28817391818E+02  0.12825726025E+03  0.12497792899E+03 0.  0.
    9000005    1    3    3    0    0 -0.43317481657E+02  0.42231182229E+02 -0.30438859484E+02  0.67730356091E+02  0.10000000000E+01 0.  0.
    9000005    1    3    3    0    0  0.43317481657E+02 -0.42231182229E+02  0.16214676658E+01  0.60526904158E+02  0.10000000000E+01 0.  0.
<mgrwt>
<rscale>  0 0.12497793E+03</rscale>
<asrwt>0</asrwt>
<pdfrwt beam="2">  1        4 0.19634331E-01 0.12497793E+03</pdfrwt>
<pdfrwt beam="1">  1       -4 0.12429984E-01 0.12497793E+03</pdfrwt>
<totfact> 0.19668679E+03</totfact>
</mgrwt>
</event>
<event>
 5    1  0.1423270E-002  0.1249983E+03  0.7818608E-02  0.1235072E+00
         -4   -1    0    0    0  501 -0.00000000000E+00  0.00000000000E+00  0.49930884476E+03  0.49931045989E+03  0.12700000000E+01 0.  1.
          4   -1    0    0  501    0  0.00000000000E+00 -0.00000000000E+00 -0.77699201793E+01  0.78730273461E+01  0.12700000000E+01 0.  1.
         25    2    1    2    0    0  0.00000000000E+00  0.00000000000E+00  0.49153892458E+03  0.50718348723E+03  0.12499830138E+03 0.  0.
    9000005    1    3    3    0    0  0.43241691186E+01 -0.60953019200E+02  0.29885558055E+03  0.30504036948E+03  0.10000000000E+01 0.  0.
    9000005    1    3    3    0    0 -0.43241691186E+01  0.60953019200E+02  0.19268334403E+03  0.20214311775E+03  0.10000000000E+01 0.  0.
<mgrwt>
<rscale>  0 0.12499830E+03</rscale>
<asrwt>0</asrwt>
<pdfrwt beam="2">  1        4 0.19555702E-02 0.12499830E+03</pdfrwt>
<pdfrwt beam="1">  1       -4 0.12484031E+00 0.12499830E+03</pdfrwt>
<totfact> 0.86478899E+02</totfact>
</mgrwt>
</event>
<event>
 5    1  0.1423270E-002  0.1250056E+03  0.7818608E-02  0.1235061E+00
         -4   -1    0    0    0  501 -0.00000000000E+00  0.00000000000E+00  0.94531117350E+02  0.94539648018E+02  0.12700000000E+01 0. -1.
          4   -1    0    0  501    0  0.00000000000E+00 -0.00000000000E+00 -0.41305921109E+02  0.41325440333E+02  0.12700000000E+01 0. -1.
         25    2    1    2    0    0  0.00000000000E+00  0.00000000000E+00  0.53225196241E+02  0.13586508835E+03  0.12500560275E+03 0.  0.
    9000005    1    3    3    0    0 -0.51228326249E+02  0.18923420467E+02  0.59635677977E+02  0.80869347347E+02  0.10000000000E+01 0.  0.
    9000005    1    3    3    0    0  0.51228326249E+02 -0.18923420467E+02 -0.64104817369E+01  0.54995741004E+02  0.10000000000E+01 0.  0.
<mgrwt>
<rscale>  0 0.12500560E+03</rscale>
<asrwt>0</asrwt>
<pdfrwt beam="2">  1        4 0.10329987E-01 0.12500560E+03</pdfrwt>
<pdfrwt beam="1">  1       -4 0.23636285E-01 0.12500560E+03</pdfrwt>
<totfact> 0.19251404E+03</totfact>
</mgrwt>
</event>
<event>
 5    1  0.1423270E-002  0.1249894E+03  0.7818608E-02  0.1235086E+00
          4   -1    0    0  501    0  0.00000000000E+00  0.00000000000E+00  0.94645591886E+01  0.95493864010E+01  0.12700000000E+01 0. -1.
         -4   -1    0    0    0  501 -0.00000000000E+00 -0.00000000000E+00 -0.41072738577E+03  0.41072934923E+03  0.12700000000E+01 0. -1.
         25    2    1    2    0    0  0.00000000000E+00  0.00000000000E+00 -0.40126282658E+03  0.42027873564E+03  0.12498943807E+03 0.  0.
    9000005    1    3    3    0    0 -0.42313915242E+02  0.18804421773E+02 -0.34171747644E+03  0.34484185855E+03  0.10000000000E+01 0.  0.
    9000005    1    3    3    0    0  0.42313915242E+02 -0.18804421773E+02 -0.59545350143E+02  0.75436877089E+02  0.10000000000E+01 0.  0.
<mgrwt>
<rscale>  0 0.12498944E+03</rscale>
<asrwt>0</asrwt>
<pdfrwt beam="1">  1        4 0.23769900E-02 0.12498944E+03</pdfrwt>
<pdfrwt beam="2">  1       -4 0.10269264E+00 0.12498944E+03</pdfrwt>
<totfact> 0.10163084E+03</totfact>
</mgrwt>
</event>
<event>
 5    1  0.1423270E-002  0.1249982E+03  0.7818608E-02  0.1235072E+00
         -4   -1    0    0    0  501 -0.00000000000E+00  0.00000000000E+00  0.78191877185E+02  0.78202190236E+02  0.12700000000E+01 0.  1.
          4   -1    0    0  501    0  0.00000000000E+00 -0.00000000000E+00 -0.49934091687E+02  0.49950239365E+02  0.12700000000E+01 0.  1.
         25    2    1    2    0    0  0.00000000000E+00  0.00000000000E+00  0.28257785498E+02  0.12815242960E+03  0.12499817107E+03 0.  0.
    9000005    1    3    3    0    0 -0.21693639825E+02 -0.53624702122E+02 -0.10109024237E+02  0.58731721050E+02  0.10000000000E+01 0.  0.
    9000005    1    3    3    0    0  0.21693639825E+02  0.53624702122E+02  0.38366809736E+02  0.69420708551E+02  0.10000000000E+01 0.  0.
<mgrwt>
<rscale>  0 0.12499817E+03</rscale>
<asrwt>0</asrwt>
<pdfrwt beam="2">  1        4 0.12486831E-01 0.12499817E+03</pdfrwt>
<pdfrwt beam="1">  1       -4 0.19551277E-01 0.12499817E+03</pdfrwt>
<totfact> 0.19665084E+03</totfact>
</mgrwt>
</event>
<event>
 5    1  0.1423270E-002  0.1249984E+03  0.7818608E-02  0.1235072E+00
         -4   -1    0    0    0  501 -0.00000000000E+00  0.00000000000E+00  0.29753805356E+02  0.29780897119E+02  0.12700000000E+01 0.  1.
          4   -1    0    0  501    0  0.00000000000E+00 -0.00000000000E+00 -0.13119252104E+03  0.13119866797E+03  0.12700000000E+01 0.  1.
         25    2    1    2    0    0  0.00000000000E+00  0.00000000000E+00 -0.10143871569E+03  0.16097956509E+03  0.12499842934E+03 0.  0.
    9000005    1    3    3    0    0  0.25192184474E+01 -0.35854706830E+02  0.15115558597E+02  0.39004955777E+02  0.10000000000E+01 0.  0.
    9000005    1    3    3    0    0 -0.25192184474E+01  0.35854706830E+02 -0.11655427428E+03  0.12197460931E+03  0.10000000000E+01 0.  0.
<mgrwt>
<rscale>  0 0.12499843E+03</rscale>
<asrwt>0</asrwt>
<pdfrwt beam="2">  1        4 0.32802284E-01 0.12499843E+03</pdfrwt>
<pdfrwt beam="1">  1       -4 0.74426065E-02 0.12499843E+03</pdfrwt>
<totfact> 0.18012409E+03</totfact>
</mgrwt>
</event>
<event>
 5    1  0.1423270E-002  0.1249893E+03  0.7818608E-02  0.1235086E+00
         -4   -1    0    0    0  501 -0.00000000000E+00  0.00000000000E+00  0.52745270934E+01  0.54252682937E+01  0.12700000000E+01 0. -1.
          4   -1    0    0  501    0  0.00000000000E+00 -0.00000000000E+00 -0.72987805068E+03  0.72987915559E+03  0.12700000000E+01 0. -1.
         25    2    1    2    0    0  0.00000000000E+00  0.00000000000E+00 -0.72460352358E+03  0.73530442388E+03  0.12498931710E+03 0.  0.
    9000005    1    3    3    0    0  0.42261819020E+02  0.36008625392E+02 -0.19364500419E+03  0.20144991958E+03  0.10000000000E+01 0.  0.
    9000005    1    3    3    0    0 -0.42261819020E+02 -0.36008625392E+02 -0.53095851939E+03  0.53385450430E+03  0.10000000000E+01 0.  0.
<mgrwt>
<rscale>  0 0.12498932E+03</rscale>
<asrwt>0</asrwt>
<pdfrwt beam="2">  1        4 0.18248815E+00 0.12498932E+03</pdfrwt>
<pdfrwt beam="1">  1       -4 0.13376150E-02 0.12498932E+03</pdfrwt>
<totfact> 0.58506467E+02</totfact>
</mgrwt>
</event>
<event>
 5    1  0.1423270E-002  0.1249969E+03  0.7818608E-02  0.1235074E+00
          4   -1    0    0  501    0  0.00000000000E+00  0.00000000000E+00  0.23216839935E+02  0.23251549552E+02  0.12700000000E+01 0. -1.
         -4   -1    0    0    0  501 -0.00000000000E+00 -0.00000000000E+00 -0.16807955125E+03  0.16808434920E+03  0.12700000000E+01 0. -1.
         25    2    1    2    0    0  0.00000000000E+00  0.00000000000E+00 -0.14486271131E+03  0.19133589876E+03  0.12499688406E+03 0.  0.
    9000005    1    3    3    0    0  0.24253198281E+00  0.58336215753E+02 -0.10672378417E+03  0.12163115965E+03  0.10000000000E+01 0.  0.
    9000005    1    3    3    0    0 -0.24253198281E+00 -0.58336215753E+02 -0.38138927137E+02  0.69704739102E+02  0.10000000000E+01 0.  0.
<mgrwt>
<rscale>  0 0.12499688E+03</rscale>
<asrwt>0</asrwt>
<pdfrwt beam="1">  1        4 0.58091489E-02 0.12499688E+03</pdfrwt>
<pdfrwt beam="2">  1       -4 0.42024823E-01 0.12499688E+03</pdfrwt>
<totfact> 0.16676150E+03</totfact>
</mgrwt>
</event>
<event>
 5    1  0.1423270E-002  0.1249994E+03  0.7818608E-02  0.1235070E+00
          4   -1    0    0  501    0  0.00000000000E+00  0.00000000000E+00  0.30064227212E+03  0.30064495454E+03  0.12700000000E+01 0. -1.
         -4   -1    0    0    0  501 -0.00000000000E+00 -0.00000000000E+00 -0.12959106948E+02  0.13021188613E+02  0.12700000000E+01 0. -1.
         25    2    1    2    0    0  0.00000000000E+00  0.00000000000E+00  0.28768316518E+03  0.31366614315E+03  0.12499938333E+03 0.  0.
    9000005    1    3    3    0    0 -0.71027371575E+01  0.85185174053E+01  0.29816501416E+03  0.29837290373E+03  0.10000000000E+01 0.  0.
    9000005    1    3    3    0    0  0.71027371575E+01 -0.85185174053E+01 -0.10481848979E+02  0.15293239419E+02  0.10000000000E+01 0.  0.
<mgrwt>
<rscale>  0 0.12499938E+03</rscale>
<asrwt>0</asrwt>
<pdfrwt beam="1">  1        4 0.75168663E-01 0.12499938E+03</pdfrwt>
<pdfrwt beam="2">  1       -4 0.32478723E-02 0.12499938E+03</pdfrwt>
<totfact> 0.12596677E+03</totfact>
</mgrwt>
</event>
<event>
 5    1  0.1423270E-002  0.1250016E+03  0.7818608E-02  0.1235067E+00
         -4   -1    0    0    0  501 -0.00000000000E+00  0.00000000000E+00  0.20148405861E+02  0.20188391683E+02  0.12700000000E+01 0.  1.
          4   -1    0    0  501    0  0.00000000000E+00 -0.00000000000E+00 -0.19364469100E+03  0.19364885554E+03  0.12700000000E+01 0.  1.
         25    2    1    2    0    0  0.00000000000E+00  0.00000000000E+00 -0.17349628513E+03  0.21383724722E+03  0.12500162936E+03 0.  0.
    9000005    1    3    3    0    0  0.55633143702E+02 -0.24025647527E+02 -0.11286458721E+03  0.12810813192E+03  0.10000000000E+01 0.  0.
    9000005    1    3    3    0    0 -0.55633143702E+02  0.24025647527E+02 -0.60631697921E+02  0.85729115300E+02  0.10000000000E+01 0.  0.
<mgrwt>
<rscale>  0 0.12500163E+03</rscale>
<asrwt>0</asrwt>
<pdfrwt beam="2">  1        4 0.48416686E-01 0.12500163E+03</pdfrwt>
<pdfrwt beam="1">  1       -4 0.50426208E-02 0.12500163E+03</pdfrwt>
<totfact> 0.15781979E+03</totfact>
</mgrwt>
</event>
<event>
 5    1  0.1423270E-002  0.1250026E+03  0.7818608E-02  0.1235065E+00
          4   -1    0    0  501    0  0.00000000000E+00  0.00000000000E+00  0.70288748032E+02  0.70300220483E+02  0.12700000000E+01 0. -1.
         -4   -1    0    0    0  501 -0.00000000000E+00 -0.00000000000E+00 -0.55553400886E+02  0.55567915653E+02  0.12700000000E+01 0. -1.
         25    2    1    2    0    0  0.00000000000E+00  0.00000000000E+00  0.14735347146E+02  0.12586813614E+03  0.12500262893E+03 0.  0.
    9000005    1    3    3    0    0  0.57870869609E+02  0.23420662343E+02  0.10188738691E+02  0.63264329365E+02  0.10000000000E+01 0.  0.
    9000005    1    3    3    0    0 -0.57870869609E+02 -0.23420662343E+02  0.45466084549E+01  0.62603806771E+02  0.10000000000E+01 0.  0.
<mgrwt>
<rscale>  0 0.12500263E+03</rscale>
<asrwt>0</asrwt>
<pdfrwt beam="1">  1        4 0.17575435E-01 0.12500263E+03</pdfrwt>
<pdfrwt beam="2">  1       -4 0.13891599E-01 0.12500263E+03</pdfrwt>
<totfact> 0.19786831E+03</totfact>
</mgrwt>
</event>
<event>
 5    1  0.1423270E-002  0.1250114E+03  0.7818608E-02  0.1235051E+00
          4   -1    0    0  501    0  0.00000000000E+00  0.00000000000E+00  0.27230380606E+03  0.27230676762E+03  0.12700000000E+01 0.  1.
         -4   -1    0    0    0  501 -0.00000000000E+00 -0.00000000000E+00 -0.14316655837E+02  0.14372874951E+02  0.12700000000E+01 0.  1.
         25    2    1    2    0    0  0.00000000000E+00  0.00000000000E+00  0.25798715022E+03  0.28667964257E+03  0.12501139063E+03 0.  0.
    9000005    1    3    3    0    0  0.21465925961E+02  0.32388663678E+02  0.16738933362E+02  0.42320248136E+02  0.10000000000E+01 0.  0.
    9000005    1    3    3    0    0 -0.21465925961E+02 -0.32388663678E+02  0.24124821686E+03  0.24435939444E+03  0.10000000000E+01 0.  0.
<mgrwt>
<rscale>  0 0.12501139E+03</rscale>
<asrwt>0</asrwt>
<pdfrwt beam="1">  1        4 0.68083344E-01 0.12501139E+03</pdfrwt>
<pdfrwt beam="2">  1       -4 0.35865618E-02 0.12501139E+03</pdfrwt>
<totfact> 0.13349283E+03</totfact>
</mgrwt>
</event>
<event>
 5    1  0.1423270E-002  0.1250009E+03  0.7818608E-02  0.1235068E+00
         -4   -1    0    0    0  501 -0.00000000000E+00  0.00000000000E+00  0.40534666637E+02  0.40554557073E+02  0.12700000000E+01 0.  1.
          4   -1    0    0  501    0  0.00000000000E+00 -0.00000000000E+00 -0.96321792521E+02  0.96330164613E+02  0.12700000000E+01 0.  1.
         25    2    1    2    0    0  0.00000000000E+00  0.00000000000E+00 -0.55787125883E+02  0.13688472169E+03  0.12500089446E+03 0.  0.
    9000005    1    3    3    0    0  0.25968600565E+02 -0.50409108829E+02  0.86864098383E+00  0.56720375575E+02  0.10000000000E+01 0.  0.
    9000005    1    3    3    0    0 -0.25968600565E+02  0.50409108829E+02 -0.56655766867E+02  0.80164346112E+02  0.10000000000E+01 0.  0.
<mgrwt>
<rscale>  0 0.12500089E+03</rscale>
<asrwt>0</asrwt>
<pdfrwt beam="2">  1        4 0.24083980E-01 0.12500089E+03</pdfrwt>
<pdfrwt beam="1">  1       -4 0.10137200E-01 0.12500089E+03</pdfrwt>
<totfact> 0.19200467E+03</totfact>
</mgrwt>
</event>
<event>
 5    1  0.1423270E-002  0.1249795E+03  0.7818608E-02  0.1235101E+00
          4   -1    0    0  501    0  0.00000000000E+00  0.00000000000E+00  0.15278027872E+03  0.15278555713E+03  0.12700000000E+01 0. -1.
         -4   -1    0    0    0  501 -0.00000000000E+00 -0.00000000000E+00 -0.25537879613E+02  0.25569438694E+02  0.12700000000E+01 0. -1.
         25    2    1    2    0    0  0.00000000000E+00  0.00000000000E+00  0.12724239911E+03  0.17835499582E+03  0.12497950393E+03 0.  0.
    9000005    1    3    3    0    0 -0.35479610501E+02 -0.14670267339E+02 -0.67257248573E+01  0.38990446008E+02  0.10000000000E+01 0.  0.
    9000005    1    3    3    0    0  0.35479610501E+02  0.14670267339E+02  0.13396812397E+03  0.13936454981E+03  0.10000000000E+01 0.  0.
<mgrwt>
<rscale>  0 0.12497950E+03</rscale>
<asrwt>0</asrwt>
<pdfrwt beam="1">  1        4 0.38199674E-01 0.12497950E+03</pdfrwt>
<pdfrwt beam="2">  1       -4 0.63890747E-02 0.12497950E+03</pdfrwt>
<totfact> 0.17234845E+03</totfact>
</mgrwt>
</event>
<event>
 5    1  0.1423270E-002  0.1250014E+03  0.7818608E-02  0.1235067E+00
         -4   -1    0    0    0  501 -0.00000000000E+00  0.00000000000E+00  0.14559440218E+03  0.14559994110E+03  0.12700000000E+01 0. -1.
          4   -1    0    0  501    0  0.00000000000E+00 -0.00000000000E+00 -0.26809191290E+02  0.26839255534E+02  0.12700000000E+01 0. -1.
         25    2    1    2    0    0  0.00000000000E+00  0.00000000000E+00  0.11878521089E+03  0.17243919663E+03  0.12500140082E+03 0.  0.
    9000005    1    3    3    0    0  0.37646569507E+02 -0.43241476105E+02  0.93693267789E+02  0.10984770312E+03  0.10000000000E+01 0.  0.
    9000005    1    3    3    0    0 -0.37646569507E+02  0.43241476105E+02  0.25091943104E+02  0.62591493512E+02  0.10000000000E+01 0.  0.
<mgrwt>
<rscale>  0 0.12500140E+03</rscale>
<asrwt>0</asrwt>
<pdfrwt beam="2">  1        4 0.67067483E-02 0.12500140E+03</pdfrwt>
<pdfrwt beam="1">  1       -4 0.36403051E-01 0.12500140E+03</pdfrwt>
<totfact> 0.17487018E+03</totfact>
</mgrwt>
</event>
<event>
 5    1  0.1423270E-002  0.1250215E+03  0.7818608E-02  0.1235036E+00
          4   -1    0    0  501    0  0.00000000000E+00  0.00000000000E+00  0.72328027421E+01  0.73434552839E+01  0.12700000000E+01 0. -1.
         -4   -1    0    0    0  501 -0.00000000000E+00 -0.00000000000E+00 -0.53604756822E+03  0.53604907266E+03  0.12700000000E+01 0. -1.
         25    2    1    2    0    0  0.00000000000E+00  0.00000000000E+00 -0.52881476548E+03  0.54339252794E+03  0.12502153108E+03 0.  0.
    9000005    1    3    3    0    0  0.35301029612E+02 -0.48561756158E+02 -0.33996324091E+03  0.34522516134E+03  0.10000000000E+01 0.  0.
    9000005    1    3    3    0    0 -0.35301029612E+02  0.48561756158E+02 -0.18885152457E+03  0.19816736660E+03  0.10000000000E+01 0.  0.
<mgrwt>
<rscale>  0 0.12502153E+03</rscale>
<asrwt>0</asrwt>
<pdfrwt beam="1">  1        4 0.18222221E-02 0.12502153E+03</pdfrwt>
<pdfrwt beam="2">  1       -4 0.13402578E+00 0.12502153E+03</pdfrwt>
<totfact> 0.81055441E+02</totfact>
</mgrwt>
</event>
<event>
 5    1  0.1423270E-002  0.1250089E+03  0.7818608E-02  0.1235055E+00
          4   -1    0    0  501    0  0.00000000000E+00  0.00000000000E+00  0.16972510522E+02  0.17019959267E+02  0.12700000000E+01 0.  1.
         -4   -1    0    0    0  501 -0.00000000000E+00 -0.00000000000E+00 -0.22981372824E+03  0.22981723736E+03  0.12700000000E+01 0.  1.
         25    2    1    2    0    0  0.00000000000E+00  0.00000000000E+00 -0.21284121772E+03  0.24683719663E+03  0.12500887040E+03 0.  0.
    9000005    1    3    3    0    0 -0.41252874736E+02 -0.16905537062E+02 -0.19290098582E+03  0.19798835114E+03  0.10000000000E+01 0.  0.
    9000005    1    3    3    0    0  0.41252874736E+02  0.16905537062E+02 -0.19940231903E+02  0.48848845490E+02  0.10000000000E+01 0.  0.
<mgrwt>
<rscale>  0 0.12500887E+03</rscale>
<asrwt>0</asrwt>
<pdfrwt beam="1">  1        4 0.42494981E-02 0.12500887E+03</pdfrwt>
<pdfrwt beam="2">  1       -4 0.57459792E-01 0.12500887E+03</pdfrwt>
<totfact> 0.14600792E+03</totfact>
</mgrwt>
</event>
<event>
 5    1  0.1423270E-002  0.1249989E+03  0.7818608E-02  0.1235071E+00
          4   -1    0    0  501    0  0.00000000000E+00  0.00000000000E+00  0.29886526499E+03  0.29886796335E+03  0.12700000000E+01 0.  1.
         -4   -1    0    0    0  501 -0.00000000000E+00 -0.00000000000E+00 -0.13036417919E+02  0.13098133155E+02  0.12700000000E+01 0.  1.
         25    2    1    2    0    0  0.00000000000E+00  0.00000000000E+00  0.28582884707E+03  0.31196609651E+03  0.12499886220E+03 0.  0.
    9000005    1    3    3    0    0  0.34658158038E+02 -0.14019707810E+02  0.17941333948E+02  0.41480496495E+02  0.10000000000E+01 0.  0.
    9000005    1    3    3    0    0 -0.34658158038E+02  0.14019707810E+02  0.26788751313E+03  0.27048560001E+03  0.10000000000E+01 0.  0.
<mgrwt>
<rscale>  0 0.12499886E+03</rscale>
<asrwt>0</asrwt>
<pdfrwt beam="1">  1        4 0.74724362E-01 0.12499886E+03</pdfrwt>
<pdfrwt beam="2">  1       -4 0.32671564E-02 0.12499886E+03</pdfrwt>
<totfact> 0.12642519E+03</totfact>
</mgrwt>
</event>
<event>
 4    1  0.1423270E-002  0.1250657E+03  0.7818608E-02  0.1234967E+00
          4   -1    0    0  501    0  0.00000000000E+00  0.00000000000E+00  0.55536762944E+02  0.55551282058E+02  0.12700000000E+01 0. -1.
         -4   -1    0    0    0  501 -0.00000000000E+00 -0.00000000000E+00 -0.70380760839E+02  0.70392218294E+02  0.12700000000E+01 0. -1.
    9000005    1    1    2    0    0  0.59544573850E+02  0.25587951467E+01  0.11611766532E+02  0.60728385699E+02  0.10000000000E+01 0.  0.
    9000005    1    1    2    0    0 -0.59544573850E+02 -0.25587951467E+01 -0.26455764428E+02  0.65215114652E+02  0.10000000000E+01 0.  0.
<mgrwt>
<rscale>  0 0.12506567E+03</rscale>
<asrwt>0</asrwt>
<pdfrwt beam="1">  1        4 0.13887438E-01 0.12506567E+03</pdfrwt>
<pdfrwt beam="2">  1       -4 0.17598437E-01 0.12506567E+03</pdfrwt>
<totfact> 0.19753613E+03</totfact>
</mgrwt>
</event>
<event>
 5    1  0.1423270E-002  0.1249987E+03  0.7818608E-02  0.1235071E+00
          4   -1    0    0  501    0  0.00000000000E+00  0.00000000000E+00  0.21258823053E+02  0.21296724105E+02  0.12700000000E+01 0.  1.
         -4   -1    0    0    0  501 -0.00000000000E+00 -0.00000000000E+00 -0.18353957005E+03  0.18354396388E+03  0.12700000000E+01 0.  1.
         25    2    1    2    0    0  0.00000000000E+00  0.00000000000E+00 -0.16228074700E+03  0.20484068798E+03  0.12499866642E+03 0.  0.
    9000005    1    3    3    0    0 -0.18957432273E+02  0.56230475035E+02 -0.11324953787E+03  0.12785815730E+03  0.10000000000E+01 0.  0.
    9000005    1    3    3    0    0  0.18957432273E+02 -0.56230475035E+02 -0.49031209133E+02  0.76982530681E+02  0.10000000000E+01 0.  0.
<mgrwt>
<rscale>  0 0.12499867E+03</rscale>
<asrwt>0</asrwt>
<pdfrwt beam="1">  1        4 0.53199932E-02 0.12499867E+03</pdfrwt>
<pdfrwt beam="2">  1       -4 0.45890175E-01 0.12499867E+03</pdfrwt>
<totfact> 0.16130528E+03</totfact>
</mgrwt>
</event>
<event>
 5    1  0.1423270E-002  0.1249947E+03  0.7818608E-02  0.1235078E+00
          4   -1    0    0  501    0  0.00000000000E+00  0.00000000000E+00  0.76706847876E+02  0.76717360558E+02  0.12700000000E+01 0. -1.
         -4   -1    0    0    0  501 -0.00000000000E+00 -0.00000000000E+00 -0.50898164451E+02  0.50914006368E+02  0.12700000000E+01 0. -1.
         25    2    1    2    0    0  0.00000000000E+00  0.00000000000E+00  0.25808683425E+02  0.12763136693E+03  0.12499471062E+03 0.  0.
    9000005    1    3    3    0    0  0.15512293470E+02 -0.64783670169E+01  0.74359611281E+02  0.76242719507E+02  0.10000000000E+01 0.  0.
    9000005    1    3    3    0    0 -0.15512293470E+02  0.64783670169E+01 -0.48550927856E+02  0.51388647419E+02  0.10000000000E+01 0.  0.
<mgrwt>
<rscale>  0 0.12499471E+03</rscale>
<asrwt>0</asrwt>
<pdfrwt beam="1">  1        4 0.19180006E-01 0.12499471E+03</pdfrwt>
<pdfrwt beam="2">  1       -4 0.12727835E-01 0.12499471E+03</pdfrwt>
<totfact> 0.19695047E+03</totfact>
</mgrwt>
</event>
<event>
 5    1  0.1423270E-002  0.1249993E+03  0.7818608E-02  0.1235070E+00
          4   -1    0    0  501    0  0.00000000000E+00  0.00000000000E+00  0.23067913106E+03  0.23068262701E+03  0.12700000000E+01 0.  1.
         -4   -1    0    0    0  501 -0.00000000000E+00 -0.00000000000E+00 -0.16906063894E+02  0.16953698604E+02  0.12700000000E+01 0.  1.
         25    2    1    2    0    0  0.00000000000E+00  0.00000000000E+00  0.21377306717E+03  0.24763632562E+03  0.12499930208E+03 0.  0.
    9000005    1    3    3    0    0  0.51159411684E+01  0.50716931737E+02  0.17850346462E+03  0.18564177035E+03  0.10000000000E+01 0.  0.
    9000005    1    3    3    0    0 -0.51159411684E+01 -0.50716931737E+02  0.35269602548E+02  0.61994555267E+02  0.10000000000E+01 0.  0.
<mgrwt>
<rscale>  0 0.12499930E+03</rscale>
<asrwt>0</asrwt>
<pdfrwt beam="1">  1        4 0.57676174E-01 0.12499930E+03</pdfrwt>
<pdfrwt beam="2">  1       -4 0.42329073E-02 0.12499930E+03</pdfrwt>
<totfact> 0.14577179E+03</totfact>
</mgrwt>
</event>
<event>
 5    1  0.1423270E-002  0.1249992E+03  0.7818608E-02  0.1235071E+00
         -4   -1    0    0    0  501 -0.00000000000E+00  0.00000000000E+00  0.88201078151E+02  0.88210220989E+02  0.12700000000E+01 0.  1.
          4   -1    0    0  501    0  0.00000000000E+00 -0.00000000000E+00 -0.44266875606E+02  0.44285089770E+02  0.12700000000E+01 0.  1.
         25    2    1    2    0    0  0.00000000000E+00  0.00000000000E+00  0.43934202545E+02  0.13249531076E+03  0.12499917288E+03 0.  0.
    9000005    1    3    3    0    0  0.34643713893E+02  0.31297205224E+02  0.65997274061E+02  0.80847647774E+02  0.10000000000E+01 0.  0.
    9000005    1    3    3    0    0 -0.34643713893E+02 -0.31297205224E+02 -0.22063071516E+02  0.51647662985E+02  0.10000000000E+01 0.  0.
<mgrwt>
<rscale>  0 0.12499917E+03</rscale>
<asrwt>0</asrwt>
<pdfrwt beam="2">  1        4 0.11070139E-01 0.12499917E+03</pdfrwt>
<pdfrwt beam="1">  1       -4 0.22053689E-01 0.12499917E+03</pdfrwt>
<totfact> 0.19431524E+03</totfact>
</mgrwt>
</event>
<event>
 5    1  0.1423270E-002  0.1249985E+03  0.7818608E-02  0.1235072E+00
          4   -1    0    0  501    0  0.00000000000E+00  0.00000000000E+00  0.36051761115E+02  0.36074123406E+02  0.12700000000E+01 0. -1.
         -4   -1    0    0    0  501 -0.00000000000E+00 -0.00000000000E+00 -0.10828883392E+03  0.10829628088E+03  0.12700000000E+01 0. -1.
         25    2    1    2    0    0  0.00000000000E+00  0.00000000000E+00 -0.72237072804E+02  0.14437040428E+03  0.12499847577E+03 0.  0.
    9000005    1    3    3    0    0  0.43475882280E+02  0.22999155136E+02 -0.80641994595E+02  0.94462928015E+02  0.10000000000E+01 0.  0.
    9000005    1    3    3    0    0 -0.43475882280E+02 -0.22999155136E+02  0.84049217909E+01  0.49907476267E+02  0.10000000000E+01 0.  0.
<mgrwt>
<rscale>  0 0.12499848E+03</rscale>
<asrwt>0</asrwt>
<pdfrwt beam="1">  1        4 0.90166667E-02 0.12499848E+03</pdfrwt>
<pdfrwt beam="2">  1       -4 0.27075934E-01 0.12499848E+03</pdfrwt>
<totfact> 0.18819615E+03</totfact>
</mgrwt>
</event>
<event>
 5    1  0.1423270E-002  0.1249984E+03  0.7818608E-02  0.1235072E+00
          4   -1    0    0  501    0  0.00000000000E+00  0.00000000000E+00  0.12411404202E+03  0.12412053951E+03  0.12700000000E+01 0.  1.
         -4   -1    0    0    0  501 -0.00000000000E+00 -0.00000000000E+00 -0.31452139766E+02  0.31477769868E+02  0.12700000000E+01 0.  1.
         25    2    1    2    0    0  0.00000000000E+00  0.00000000000E+00  0.92661902256E+02  0.15559830937E+03  0.12499842299E+03 0.  0.
    9000005    1    3    3    0    0  0.41346581035E+02  0.40753794712E+02  0.17545593359E+02  0.60656898973E+02  0.10000000000E+01 0.  0.
    9000005    1    3    3    0    0 -0.41346581035E+02 -0.40753794712E+02  0.75116308897E+02  0.94941410401E+02  0.10000000000E+01 0.  0.
<mgrwt>
<rscale>  0 0.12499842E+03</rscale>
<asrwt>0</asrwt>
<pdfrwt beam="1">  1        4 0.31032526E-01 0.12499842E+03</pdfrwt>
<pdfrwt beam="2">  1       -4 0.78670510E-02 0.12499842E+03</pdfrwt>
<totfact> 0.18267563E+03</totfact>
</mgrwt>
</event>
<event>
 5    1  0.1423270E-002  0.1250002E+03  0.7818608E-02  0.1235069E+00
         -4   -1    0    0    0  501 -0.00000000000E+00  0.00000000000E+00  0.12644152254E+02  0.12707772669E+02  0.12700000000E+01 0. -1.
          4   -1    0    0  501    0  0.00000000000E+00 -0.00000000000E+00 -0.30809818448E+03  0.30810080197E+03  0.12700000000E+01 0. -1.
         25    2    1    2    0    0  0.00000000000E+00  0.00000000000E+00 -0.29545403222E+03  0.32080857464E+03  0.12500022563E+03 0.  0.
    9000005    1    3    3    0    0  0.42857148908E+02 -0.31420591421E+02 -0.23211941204E+03  0.23812687841E+03  0.10000000000E+01 0.  0.
    9000005    1    3    3    0    0 -0.42857148908E+02  0.31420591421E+02 -0.63334620186E+02  0.82681696232E+02  0.10000000000E+01 0.  0.
<mgrwt>
<rscale>  0 0.12500023E+03</rscale>
<asrwt>0</asrwt>
<pdfrwt beam="2">  1        4 0.77032801E-01 0.12500023E+03</pdfrwt>
<pdfrwt beam="1">  1       -4 0.31693188E-02 0.12500023E+03</pdfrwt>
<totfact> 0.12407203E+03</totfact>
</mgrwt>
</event>
<event>
 5    1  0.1423270E-002  0.1249979E+03  0.7818608E-02  0.1235073E+00
         -4   -1    0    0    0  501 -0.00000000000E+00  0.00000000000E+00  0.60951031780E+02  0.60964261457E+02  0.12700000000E+01 0.  1.
          4   -1    0    0  501    0  0.00000000000E+00 -0.00000000000E+00 -0.64059682226E+02  0.64072270031E+02  0.12700000000E+01 0.  1.
         25    2    1    2    0    0  0.00000000000E+00  0.00000000000E+00 -0.31086504465E+01  0.12503653149E+03  0.12499788198E+03 0.  0.
    9000005    1    3    3    0    0  0.10139774431E+02 -0.61120522025E+02 -0.97167739325E+01  0.62721200035E+02  0.10000000000E+01 0.  0.
    9000005    1    3    3    0    0 -0.10139774431E+02  0.61120522025E+02  0.66081234859E+01  0.62315331454E+02  0.10000000000E+01 0.  0.
<mgrwt>
<rscale>  0 0.12499788E+03</rscale>
<asrwt>0</asrwt>
<pdfrwt beam="2">  1        4 0.16018148E-01 0.12499788E+03</pdfrwt>
<pdfrwt beam="1">  1       -4 0.15240985E-01 0.12499788E+03</pdfrwt>
<totfact> 0.19834057E+03</totfact>
</mgrwt>
</event>
<event>
 5    1  0.1423270E-002  0.1249976E+03  0.7818608E-02  0.1235073E+00
         -4   -1    0    0    0  501 -0.00000000000E+00  0.00000000000E+00  0.56418490491E+02  0.56432782754E+02  0.12700000000E+01 0.  1.
          4   -1    0    0  501    0  0.00000000000E+00 -0.00000000000E+00 -0.69205498613E+02  0.69217150608E+02  0.12700000000E+01 0.  1.
         25    2    1    2    0    0  0.00000000000E+00  0.00000000000E+00 -0.12787008122E+02  0.12564993336E+03  0.12499759269E+03 0.  0.
    9000005    1    3    3    0    0  0.21535650312E+02  0.39711748425E+02  0.37009283379E+02  0.58407998198E+02  0.10000000000E+01 0.  0.
    9000005    1    3    3    0    0 -0.21535650312E+02 -0.39711748425E+02 -0.49796291501E+02  0.67241935164E+02  0.10000000000E+01 0.  0.
<mgrwt>
<rscale>  0 0.12499759E+03</rscale>
<asrwt>0</asrwt>
<pdfrwt beam="2">  1        4 0.17304618E-01 0.12499759E+03</pdfrwt>
<pdfrwt beam="1">  1       -4 0.14107866E-01 0.12499759E+03</pdfrwt>
<totfact> 0.19800964E+03</totfact>
</mgrwt>
</event>
<event>
 5    1  0.1423270E-002  0.1249991E+03  0.7818608E-02  0.1235071E+00
         -4   -1    0    0    0  501 -0.00000000000E+00  0.00000000000E+00  0.15630001422E+03  0.15630517376E+03  0.12700000000E+01 0. -1.
          4   -1    0    0  501    0  0.00000000000E+00 -0.00000000000E+00 -0.24969947266E+02  0.25002223231E+02  0.12700000000E+01 0. -1.
         25    2    1    2    0    0  0.00000000000E+00  0.00000000000E+00  0.13133006695E+03  0.18130739699E+03  0.12499914287E+03 0.  0.
    9000005    1    3    3    0    0  0.30533092927E+02  0.54249781414E+02  0.57735346188E+02  0.84909827150E+02  0.10000000000E+01 0.  0.
    9000005    1    3    3    0    0 -0.30533092927E+02 -0.54249781414E+02  0.73594720763E+02  0.96397569841E+02  0.10000000000E+01 0.  0.
<mgrwt>
<rscale>  0 0.12499914E+03</rscale>
<asrwt>0</asrwt>
<pdfrwt beam="2">  1        4 0.62471663E-02 0.12499914E+03</pdfrwt>
<pdfrwt beam="1">  1       -4 0.39079683E-01 0.12499914E+03</pdfrwt>
<totfact> 0.17099114E+03</totfact>
</mgrwt>
</event>
<event>
 5    1  0.1423270E-002  0.1249997E+03  0.7818608E-02  0.1235070E+00
          4   -1    0    0  501    0  0.00000000000E+00  0.00000000000E+00  0.17912644073E+02  0.17957608908E+02  0.12700000000E+01 0.  1.
         -4   -1    0    0    0  501 -0.00000000000E+00 -0.00000000000E+00 -0.21775105429E+03  0.21775475780E+03  0.12700000000E+01 0.  1.
         25    2    1    2    0    0  0.00000000000E+00  0.00000000000E+00 -0.19983841022E+03  0.23571236671E+03  0.12499971848E+03 0.  0.
    9000005    1    3    3    0    0  0.61949444850E+02 -0.38063437113E+01 -0.11364868292E+03  0.12949612001E+03  0.10000000000E+01 0.  0.
    9000005    1    3    3    0    0 -0.61949444850E+02  0.38063437113E+01 -0.86189727303E+02  0.10621624670E+03  0.10000000000E+01 0.  0.
<mgrwt>
<rscale>  0 0.12499972E+03</rscale>
<asrwt>0</asrwt>
<pdfrwt beam="1">  1        4 0.44842452E-02 0.12499972E+03</pdfrwt>
<pdfrwt beam="2">  1       -4 0.54443839E-01 0.12499972E+03</pdfrwt>
<totfact> 0.14985420E+03</totfact>
</mgrwt>
</event>
<event>
 5    1  0.1423270E-002  0.1250004E+03  0.7818608E-02  0.1235069E+00
          4   -1    0    0  501    0  0.00000000000E+00  0.00000000000E+00  0.37021642517E+02  0.37043419316E+02  0.12700000000E+01 0.  1.
         -4   -1    0    0    0  501 -0.00000000000E+00 -0.00000000000E+00 -0.10545669660E+03  0.10546434353E+03  0.12700000000E+01 0.  1.
         25    2    1    2    0    0  0.00000000000E+00  0.00000000000E+00 -0.68435054079E+02  0.14250776285E+03  0.12500042338E+03 0.  0.
    9000005    1    3    3    0    0 -0.14345652153E+02  0.21428902538E+02 -0.99113592381E+02  0.10241825909E+03  0.10000000000E+01 0.  0.
    9000005    1    3    3    0    0  0.14345652153E+02 -0.21428902538E+02  0.30678538302E+02  0.40089503764E+02  0.10000000000E+01 0.  0.
<mgrwt>
<rscale>  0 0.12500042E+03</rscale>
<asrwt>0</asrwt>
<pdfrwt beam="1">  1        4 0.92590888E-02 0.12500042E+03</pdfrwt>
<pdfrwt beam="2">  1       -4 0.26367851E-01 0.12500042E+03</pdfrwt>
<totfact> 0.18912589E+03</totfact>
</mgrwt>
</event>
<event>
 5    1  0.1423270E-002  0.1250008E+03  0.7818608E-02  0.1235068E+00
          4   -1    0    0  501    0  0.00000000000E+00  0.00000000000E+00  0.37823707062E+03  0.37823920274E+03  0.12700000000E+01 0.  1.
         -4   -1    0    0    0  501 -0.00000000000E+00 -0.00000000000E+00 -0.10286430185E+02  0.10364533079E+02  0.12700000000E+01 0.  1.
         25    2    1    2    0    0  0.00000000000E+00  0.00000000000E+00  0.36795064043E+03  0.38860373582E+03  0.12500075879E+03 0.  0.
    9000005    1    3    3    0    0  0.28168911694E+02  0.53163519356E+02  0.13145112796E+03  0.14456917520E+03  0.10000000000E+01 0.  0.
    9000005    1    3    3    0    0 -0.28168911694E+02 -0.53163519356E+02  0.23649951247E+03  0.24403456062E+03  0.10000000000E+01 0.  0.
<mgrwt>
<rscale>  0 0.12500076E+03</rscale>
<asrwt>0</asrwt>
<pdfrwt beam="1">  1        4 0.94569289E-01 0.12500076E+03</pdfrwt>
<pdfrwt beam="2">  1       -4 0.25816371E-02 0.12500076E+03</pdfrwt>
<totfact> 0.10807584E+03</totfact>
</mgrwt>
</event>
<event>
 5    1  0.1423270E-002  0.1250165E+03  0.7818608E-02  0.1235043E+00
          4   -1    0    0  501    0  0.00000000000E+00  0.00000000000E+00  0.64509670392E+02  0.64522170407E+02  0.12700000000E+01 0.  1.
         -4   -1    0    0    0  501 -0.00000000000E+00 -0.00000000000E+00 -0.60543928233E+02  0.60557246849E+02  0.12700000000E+01 0.  1.
         25    2    1    2    0    0  0.00000000000E+00  0.00000000000E+00  0.39657421584E+01  0.12507941726E+03  0.12501653295E+03 0.  0.
    9000005    1    3    3    0    0 -0.57895482603E+02  0.11834979251E+02 -0.18382458897E+02  0.61894009684E+02  0.10000000000E+01 0.  0.
    9000005    1    3    3    0    0  0.57895482603E+02 -0.11834979251E+02  0.22348201055E+02  0.63185407572E+02  0.10000000000E+01 0.  0.
<mgrwt>
<rscale>  0 0.12501653E+03</rscale>
<asrwt>0</asrwt>
<pdfrwt beam="1">  1        4 0.16130645E-01 0.12501653E+03</pdfrwt>
<pdfrwt beam="2">  1       -4 0.15139209E-01 0.12501653E+03</pdfrwt>
<totfact> 0.19823080E+03</totfact>
</mgrwt>
</event>
<event>
 5    1  0.1423270E-002  0.1250118E+03  0.7818608E-02  0.1235051E+00
          4   -1    0    0  501    0  0.00000000000E+00  0.00000000000E+00  0.33188056976E+02  0.33212347491E+02  0.12700000000E+01 0.  1.
         -4   -1    0    0    0  501 -0.00000000000E+00 -0.00000000000E+00 -0.11765199556E+03  0.11765884990E+03  0.12700000000E+01 0.  1.
         25    2    1    2    0    0  0.00000000000E+00  0.00000000000E+00 -0.84463938583E+02  0.15087119739E+03  0.12501184456E+03 0.  0.
    9000005    1    3    3    0    0  0.17016156247E+02  0.55312152950E+02 -0.70714941014E+02  0.91381544745E+02  0.10000000000E+01 0.  0.
    9000005    1    3    3    0    0 -0.17016156247E+02 -0.55312152950E+02 -0.13748997570E+02  0.59489652643E+02  0.10000000000E+01 0.  0.
<mgrwt>
<rscale>  0 0.12501184E+03</rscale>
<asrwt>0</asrwt>
<pdfrwt beam="1">  1        4 0.83009076E-02 0.12501184E+03</pdfrwt>
<pdfrwt beam="2">  1       -4 0.29416891E-01 0.12501184E+03</pdfrwt>
<totfact> 0.18490930E+03</totfact>
</mgrwt>
</event>
<event>
 5    1  0.1423270E-002  0.1249959E+03  0.7818608E-02  0.1235076E+00
         -4   -1    0    0    0  501 -0.00000000000E+00  0.00000000000E+00  0.40765129972E+02  0.40784908013E+02  0.12700000000E+01 0. -1.
          4   -1    0    0  501    0  0.00000000000E+00 -0.00000000000E+00 -0.95769824251E+02  0.95778244592E+02  0.12700000000E+01 0. -1.
         25    2    1    2    0    0  0.00000000000E+00  0.00000000000E+00 -0.55004694279E+02  0.13656315261E+03  0.12499591296E+03 0.  0.
    9000005    1    3    3    0    0 -0.12592168244E+02  0.29799086686E+02  0.30909742052E+02  0.44754445837E+02  0.10000000000E+01 0.  0.
    9000005    1    3    3    0    0  0.12592168244E+02 -0.29799086686E+02 -0.85914436331E+02  0.91808706769E+02  0.10000000000E+01 0.  0.
<mgrwt>
<rscale>  0 0.12499591E+03</rscale>
<asrwt>0</asrwt>
<pdfrwt beam="2">  1        4 0.23945980E-01 0.12499591E+03</pdfrwt>
<pdfrwt beam="1">  1       -4 0.10194807E-01 0.12499591E+03</pdfrwt>
<totfact> 0.19219404E+03</totfact>
</mgrwt>
</event>
<event>
 5    1  0.1423270E-002  0.1249983E+03  0.7818608E-02  0.1235072E+00
         -4   -1    0    0    0  501 -0.00000000000E+00  0.00000000000E+00  0.38762164006E+03  0.38762372056E+03  0.12700000000E+01 0.  1.
          4   -1    0    0  501    0  0.00000000000E+00 -0.00000000000E+00 -0.10035083678E+02  0.10115127504E+02  0.12700000000E+01 0.  1.
         25    2    1    2    0    0  0.00000000000E+00  0.00000000000E+00  0.37758655638E+03  0.39773884807E+03  0.12499833479E+03 0.  0.
    9000005    1    3    3    0    0  0.19079768061E+02  0.74619391320E+01  0.93867906756E+00  0.20532881027E+02  0.10000000000E+01 0.  0.
    9000005    1    3    3    0    0 -0.19079768061E+02 -0.74619391320E+01  0.37664787732E+03  0.37720596704E+03  0.10000000000E+01 0.  0.
<mgrwt>
<rscale>  0 0.12499833E+03</rscale>
<asrwt>0</asrwt>
<pdfrwt beam="2">  1        4 0.25190367E-02 0.12499833E+03</pdfrwt>
<pdfrwt beam="1">  1       -4 0.96915666E-01 0.12499833E+03</pdfrwt>
<totfact> 0.10616328E+03</totfact>
</mgrwt>
</event>
<event>
 5    1  0.1423270E-002  0.1249978E+03  0.7818608E-02  0.1235073E+00
          4   -1    0    0  501    0  0.00000000000E+00  0.00000000000E+00  0.62633643461E+02  0.62646517806E+02  0.12700000000E+01 0.  1.
         -4   -1    0    0    0  501 -0.00000000000E+00 -0.00000000000E+00 -0.62338679612E+02  0.62351614861E+02  0.12700000000E+01 0.  1.
         25    2    1    2    0    0  0.00000000000E+00  0.00000000000E+00  0.29496384842E+00  0.12499813267E+03  0.12499778465E+03 0.  0.
    9000005    1    3    3    0    0  0.54045968081E+02  0.86600844101E+01 -0.30004680126E+02  0.62427914889E+02  0.10000000000E+01 0.  0.
    9000005    1    3    3    0    0 -0.54045968081E+02 -0.86600844101E+01  0.30299643975E+02  0.62570217779E+02  0.10000000000E+01 0.  0.
<mgrwt>
<rscale>  0 0.12499778E+03</rscale>
<asrwt>0</asrwt>
<pdfrwt beam="1">  1        4 0.15661637E-01 0.12499778E+03</pdfrwt>
<pdfrwt beam="2">  1       -4 0.15587896E-01 0.12499778E+03</pdfrwt>
<totfact> 0.19836185E+03</totfact>
</mgrwt>
</event>
<event>
 5    1  0.1423270E-002  0.1249984E+03  0.7818608E-02  0.1235072E+00
          4   -1    0    0  501    0  0.00000000000E+00  0.00000000000E+00  0.69417730618E+02  0.69429346995E+02  0.12700000000E+01 0. -1.
         -4   -1    0    0    0  501 -0.00000000000E+00 -0.00000000000E+00 -0.56246757439E+02  0.56261093328E+02  0.12700000000E+01 0. -1.
         25    2    1    2    0    0  0.00000000000E+00  0.00000000000E+00  0.13170973178E+02  0.12569044032E+03  0.12499844901E+03 0.  0.
    9000005    1    3    3    0    0 -0.29706875235E+02 -0.32143796955E+02  0.51435446361E+02  0.67545001749E+02  0.10000000000E+01 0.  0.
    9000005    1    3    3    0    0  0.29706875235E+02  0.32143796955E+02 -0.38264473183E+02  0.58145438573E+02  0.10000000000E+01 0.  0.
<mgrwt>
<rscale>  0 0.12499845E+03</rscale>
<asrwt>0</asrwt>
<pdfrwt beam="1">  1        4 0.17357677E-01 0.12499845E+03</pdfrwt>
<pdfrwt beam="2">  1       -4 0.14064933E-01 0.12499845E+03</pdfrwt>
<totfact> 0.19798376E+03</totfact>
</mgrwt>
</event>
<event>
 5    1  0.1423270E-002  0.1249935E+03  0.7818608E-02  0.1235079E+00
         -4   -1    0    0    0  501 -0.00000000000E+00  0.00000000000E+00  0.11372345777E+03  0.11373054888E+03  0.12700000000E+01 0. -1.
          4   -1    0    0  501    0  0.00000000000E+00 -0.00000000000E+00 -0.34325201127E+02  0.34348687492E+02  0.12700000000E+01 0. -1.
         25    2    1    2    0    0  0.00000000000E+00  0.00000000000E+00  0.79398256647E+02  0.14807923637E+03  0.12499350817E+03 0.  0.
    9000005    1    3    3    0    0 -0.57573205618E+02 -0.13151802958E+02  0.15501152520E+02  0.61064962586E+02  0.10000000000E+01 0.  0.
    9000005    1    3    3    0    0  0.57573205618E+02  0.13151802958E+02  0.63897104127E+02  0.87014273783E+02  0.10000000000E+01 0.  0.
<mgrwt>
<rscale>  0 0.12499351E+03</rscale>
<asrwt>0</asrwt>
<pdfrwt beam="2">  1        4 0.85851226E-02 0.12499351E+03</pdfrwt>
<pdfrwt beam="1">  1       -4 0.28434686E-01 0.12499351E+03</pdfrwt>
<totfact> 0.18636446E+03</totfact>
</mgrwt>
</event>
<event>
 5    1  0.1423270E-002  0.1250017E+03  0.7818608E-02  0.1235067E+00
         -4   -1    0    0    0  501 -0.00000000000E+00  0.00000000000E+00  0.11425590507E+03  0.11426296313E+03  0.12700000000E+01 0. -1.
          4   -1    0    0  501    0  0.00000000000E+00 -0.00000000000E+00 -0.34169650294E+02  0.34193243502E+02  0.12700000000E+01 0. -1.
         25    2    1    2    0    0  0.00000000000E+00  0.00000000000E+00  0.80086254777E+02  0.14845620663E+03  0.12500174832E+03 0.  0.
    9000005    1    3    3    0    0  0.19846285886E+02  0.32834861736E+02  0.98627947799E+02  0.10583229798E+03  0.10000000000E+01 0.  0.
    9000005    1    3    3    0    0 -0.19846285886E+02 -0.32834861736E+02 -0.18541693022E+02  0.42623908653E+02  0.10000000000E+01 0.  0.
<mgrwt>
<rscale>  0 0.12500175E+03</rscale>
<asrwt>0</asrwt>
<pdfrwt beam="2">  1        4 0.85462441E-02 0.12500175E+03</pdfrwt>
<pdfrwt beam="1">  1       -4 0.28567807E-01 0.12500175E+03</pdfrwt>
<totfact> 0.18614193E+03</totfact>
</mgrwt>
</event>
<event>
 5    1  0.1423270E-002  0.1249974E+03  0.7818608E-02  0.1235073E+00
          4   -1    0    0  501    0  0.00000000000E+00  0.00000000000E+00  0.41404392177E+02  0.41423865000E+02  0.12700000000E+01 0.  1.
         -4   -1    0    0    0  501 -0.00000000000E+00 -0.00000000000E+00 -0.94294045881E+02  0.94302597996E+02  0.12700000000E+01 0.  1.
         25    2    1    2    0    0  0.00000000000E+00  0.00000000000E+00 -0.52889653704E+02  0.13572646300E+03  0.12499742913E+03 0.  0.
    9000005    1    3    3    0    0  0.81039721197E+01  0.98246499791E+01  0.39985601520E+02  0.41976736894E+02  0.10000000000E+01 0.  0.
    9000005    1    3    3    0    0 -0.81039721197E+01 -0.98246499791E+01 -0.92875255224E+02  0.93749726102E+02  0.10000000000E+01 0.  0.
<mgrwt>
<rscale>  0 0.12499743E+03</rscale>
<asrwt>0</asrwt>
<pdfrwt beam="1">  1        4 0.10354601E-01 0.12499743E+03</pdfrwt>
<pdfrwt beam="2">  1       -4 0.23577014E-01 0.12499743E+03</pdfrwt>
<totfact> 0.19262309E+03</totfact>
</mgrwt>
</event>
<event>
 5    1  0.1423270E-002  0.1250028E+03  0.7818608E-02  0.1235065E+00
          4   -1    0    0  501    0  0.00000000000E+00  0.00000000000E+00  0.10195362898E+03  0.10196153864E+03  0.12700000000E+01 0.  1.
         -4   -1    0    0    0  501 -0.00000000000E+00 -0.00000000000E+00 -0.38295807920E+02  0.38316860574E+02  0.12700000000E+01 0.  1.
         25    2    1    2    0    0  0.00000000000E+00  0.00000000000E+00  0.63657821059E+02  0.14027839922E+03  0.12500284439E+03 0.  0.
    9000005    1    3    3    0    0 -0.44157636629E+02 -0.44180286768E+02  0.29689897457E+02  0.69168523351E+02  0.10000000000E+01 0.  0.
    9000005    1    3    3    0    0  0.44157636629E+02  0.44180286768E+02  0.33967923602E+02  0.71109875864E+02  0.10000000000E+01 0.  0.
<mgrwt>
<rscale>  0 0.12500284E+03</rscale>
<asrwt>0</asrwt>
<pdfrwt beam="1">  1        4 0.25492027E-01 0.12500284E+03</pdfrwt>
<pdfrwt beam="2">  1       -4 0.95775723E-02 0.12500284E+03</pdfrwt>
<totfact> 0.19024847E+03</totfact>
</mgrwt>
</event>
<event>
 5    1  0.1423270E-002  0.1249912E+03  0.7818608E-02  0.1235083E+00
          4   -1    0    0  501    0  0.00000000000E+00  0.00000000000E+00  0.39975862935E+02  0.39996031271E+02  0.12700000000E+01 0. -1.
         -4   -1    0    0    0  501 -0.00000000000E+00 -0.00000000000E+00 -0.97652499320E+02  0.97660757336E+02  0.12700000000E+01 0. -1.
         25    2    1    2    0    0  0.00000000000E+00  0.00000000000E+00 -0.57676636385E+02  0.13765678861E+03  0.12499118795E+03 0.  0.
    9000005    1    3    3    0    0 -0.72368819399E+01  0.30336554727E+02 -0.88473386483E+02  0.93814812950E+02  0.10000000000E+01 0.  0.
    9000005    1    3    3    0    0  0.72368819399E+01 -0.30336554727E+02  0.30796750099E+02  0.43841975658E+02  0.10000000000E+01 0.  0.
<mgrwt>
<rscale>  0 0.12499119E+03</rscale>
<asrwt>0</asrwt>
<pdfrwt beam="1">  1        4 0.99975192E-02 0.12499119E+03</pdfrwt>
<pdfrwt beam="2">  1       -4 0.24416678E-01 0.12499119E+03</pdfrwt>
<totfact> 0.19164805E+03</totfact>
</mgrwt>
</event>
<event>
 5    1  0.1423270E-002  0.1249913E+03  0.7818608E-02  0.1235083E+00
          4   -1    0    0  501    0  0.00000000000E+00  0.00000000000E+00  0.37883582782E+03  0.37883795657E+03  0.12700000000E+01 0. -1.
         -4   -1    0    0    0  501 -0.00000000000E+00 -0.00000000000E+00 -0.10268477475E+02  0.10346715887E+02  0.12700000000E+01 0. -1.
         25    2    1    2    0    0  0.00000000000E+00  0.00000000000E+00  0.36856735034E+03  0.38918467246E+03  0.12499126984E+03 0.  0.
    9000005    1    3    3    0    0  0.31689687602E+02 -0.49931638470E+02  0.12144413189E+03  0.13508176039E+03  0.10000000000E+01 0.  0.
    9000005    1    3    3    0    0 -0.31689687602E+02  0.49931638470E+02  0.24712321845E+03  0.25410291206E+03  0.10000000000E+01 0.  0.
<mgrwt>
<rscale>  0 0.12499127E+03</rscale>
<asrwt>0</asrwt>
<pdfrwt beam="1">  1        4 0.94719000E-01 0.12499127E+03</pdfrwt>
<pdfrwt beam="2">  1       -4 0.25771653E-02 0.12499127E+03</pdfrwt>
<totfact> 0.10797569E+03</totfact>
</mgrwt>
</event>
<event>
 5    1  0.1423270E-002  0.1250018E+03  0.7818608E-02  0.1235066E+00
         -4   -1    0    0    0  501 -0.00000000000E+00  0.00000000000E+00  0.24133539276E+02  0.24166932325E+02  0.12700000000E+01 0. -1.
          4   -1    0    0  501    0  0.00000000000E+00 -0.00000000000E+00 -0.16171667308E+03  0.16172165981E+03  0.12700000000E+01 0. -1.
         25    2    1    2    0    0  0.00000000000E+00  0.00000000000E+00 -0.13758313380E+03  0.18588859213E+03  0.12500179990E+03 0.  0.
    9000005    1    3    3    0    0 -0.12256817071E+02  0.27656570508E+02  0.12527054265E+02  0.32757328120E+02  0.10000000000E+01 0.  0.
    9000005    1    3    3    0    0  0.12256817071E+02 -0.27656570508E+02 -0.15011018806E+03  0.15313126401E+03  0.10000000000E+01 0.  0.
<mgrwt>
<rscale>  0 0.12500180E+03</rscale>
<asrwt>0</asrwt>
<pdfrwt beam="2">  1        4 0.40433963E-01 0.12500180E+03</pdfrwt>
<pdfrwt beam="1">  1       -4 0.60381828E-02 0.12500180E+03</pdfrwt>
<totfact> 0.16902423E+03</totfact>
</mgrwt>
</event>
<event>
 5    1  0.1423270E-002  0.1250006E+03  0.7818608E-02  0.1235068E+00
         -4   -1    0    0    0  501 -0.00000000000E+00  0.00000000000E+00  0.75679938938E+03  0.75680045499E+03  0.12700000000E+01 0.  1.
          4   -1    0    0  501    0  0.00000000000E+00 -0.00000000000E+00 -0.50823801953E+01  0.52386533049E+01  0.12700000000E+01 0.  1.
         25    2    1    2    0    0  0.00000000000E+00  0.00000000000E+00  0.75171700919E+03  0.76203910829E+03  0.12500056266E+03 0.  0.
    9000005    1    3    3    0    0  0.32075614613E+02  0.14858039967E+02  0.69002007740E+03  0.69092569327E+03  0.10000000000E+01 0.  0.
    9000005    1    3    3    0    0 -0.32075614613E+02 -0.14858039967E+02  0.61696931791E+02  0.71113415027E+02  0.10000000000E+01 0.  0.
<mgrwt>
<rscale>  0 0.12500056E+03</rscale>
<asrwt>0</asrwt>
<pdfrwt beam="2">  1        4 0.12902624E-02 0.12500056E+03</pdfrwt>
<pdfrwt beam="1">  1       -4 0.18921951E+00 0.12500056E+03</pdfrwt>
<totfact> 0.55931681E+02</totfact>
</mgrwt>
</event>
<event>
 5    1  0.1423270E-002  0.1250050E+03  0.7818608E-02  0.1235061E+00
         -4   -1    0    0    0  501 -0.00000000000E+00  0.00000000000E+00  0.45009628874E+02  0.45027542586E+02  0.12700000000E+01 0. -1.
          4   -1    0    0  501    0  0.00000000000E+00 -0.00000000000E+00 -0.86754092572E+02  0.86763387889E+02  0.12700000000E+01 0. -1.
         25    2    1    2    0    0  0.00000000000E+00  0.00000000000E+00 -0.41744463698E+02  0.13179093048E+03  0.12500499632E+03 0.  0.
    9000005    1    3    3    0    0  0.40491039342E+02  0.31480388797E+01  0.29204964574E+02  0.50033632404E+02  0.10000000000E+01 0.  0.
    9000005    1    3    3    0    0 -0.40491039342E+02 -0.31480388797E+01 -0.70949428272E+02  0.81757298071E+02  0.10000000000E+01 0.  0.
<mgrwt>
<rscale>  0 0.12500500E+03</rscale>
<asrwt>0</asrwt>
<pdfrwt beam="2">  1        4 0.21691924E-01 0.12500500E+03</pdfrwt>
<pdfrwt beam="1">  1       -4 0.11255808E-01 0.12500500E+03</pdfrwt>
<totfact> 0.19466309E+03</totfact>
</mgrwt>
</event>
<event>
 5    1  0.1423270E-002  0.1249988E+03  0.7818608E-02  0.1235071E+00
         -4   -1    0    0    0  501 -0.00000000000E+00  0.00000000000E+00  0.44490974388E+02  0.44509096846E+02  0.12700000000E+01 0.  1.
          4   -1    0    0  501    0  0.00000000000E+00 -0.00000000000E+00 -0.87756379200E+02  0.87765568364E+02  0.12700000000E+01 0.  1.
         25    2    1    2    0    0  0.00000000000E+00  0.00000000000E+00 -0.43265404811E+02  0.13227466521E+03  0.12499876721E+03 0.  0.
    9000005    1    3    3    0    0  0.46690319943E+01  0.19697662754E+02 -0.84195741889E+02  0.86600927997E+02  0.10000000000E+01 0.  0.
    9000005    1    3    3    0    0 -0.46690319943E+01 -0.19697662754E+02  0.40930337077E+02  0.45673737213E+02  0.10000000000E+01 0.  0.
<mgrwt>
<rscale>  0 0.12499877E+03</rscale>
<asrwt>0</asrwt>
<pdfrwt beam="2">  1        4 0.21942508E-01 0.12499877E+03</pdfrwt>
<pdfrwt beam="1">  1       -4 0.11126158E-01 0.12499877E+03</pdfrwt>
<totfact> 0.19443418E+03</totfact>
</mgrwt>
</event>
<event>
 5    1  0.1423270E-002  0.1250014E+03  0.7818608E-02  0.1235067E+00
          4   -1    0    0  501    0  0.00000000000E+00  0.00000000000E+00  0.61438627967E+02  0.61451752672E+02  0.12700000000E+01 0.  1.
         -4   -1    0    0    0  501 -0.00000000000E+00 -0.00000000000E+00 -0.63554848705E+02  0.63567536478E+02  0.12700000000E+01 0.  1.
         25    2    1    2    0    0  0.00000000000E+00  0.00000000000E+00 -0.21162207378E+01  0.12501928915E+03  0.12500137707E+03 0.  0.
    9000005    1    3    3    0    0  0.44635227041E+02  0.29656101649E+02  0.31095341005E+02  0.61965378158E+02  0.10000000000E+01 0.  0.
    9000005    1    3    3    0    0 -0.44635227041E+02 -0.29656101649E+02 -0.33211561743E+02  0.63053910992E+02  0.10000000000E+01 0.  0.
<mgrwt>
<rscale>  0 0.12500138E+03</rscale>
<asrwt>0</asrwt>
<pdfrwt beam="1">  1        4 0.15362884E-01 0.12500138E+03</pdfrwt>
<pdfrwt beam="2">  1       -4 0.15891939E-01 0.12500138E+03</pdfrwt>
<totfact> 0.19833370E+03</totfact>
</mgrwt>
</event>
<event>
 5    1  0.1423270E-002  0.1250008E+03  0.7818608E-02  0.1235068E+00
         -4   -1    0    0    0  501 -0.00000000000E+00  0.00000000000E+00  0.41292811233E+03  0.41293006532E+03  0.12700000000E+01 0. -1.
          4   -1    0    0  501    0  0.00000000000E+00 -0.00000000000E+00 -0.94153933301E+01  0.95006595329E+01  0.12700000000E+01 0. -1.
         25    2    1    2    0    0  0.00000000000E+00  0.00000000000E+00  0.40351271900E+03  0.42243072486E+03  0.12500081165E+03 0.  0.
    9000005    1    3    3    0    0 -0.59428356766E+02  0.19308508002E+02  0.20468820962E+03  0.21401591349E+03  0.10000000000E+01 0.  0.
    9000005    1    3    3    0    0  0.59428356766E+02 -0.19308508002E+02  0.19882450937E+03  0.20841481137E+03  0.10000000000E+01 0.  0.
<mgrwt>
<rscale>  0 0.12500081E+03</rscale>
<asrwt>0</asrwt>
<pdfrwt beam="2">  1        4 0.23647509E-02 0.12500081E+03</pdfrwt>
<pdfrwt beam="1">  1       -4 0.10324292E+00 0.12500081E+03</pdfrwt>
<totfact> 0.10118245E+03</totfact>
</mgrwt>
</event>
<event>
 5    1  0.1423270E-002  0.1250032E+03  0.7818608E-02  0.1235064E+00
         -4   -1    0    0    0  501 -0.00000000000E+00  0.00000000000E+00  0.33683896314E+02  0.33707829519E+02  0.12700000000E+01 0.  1.
          4   -1    0    0  501    0  0.00000000000E+00 -0.00000000000E+00 -0.11590514048E+03  0.11591209811E+03  0.12700000000E+01 0.  1.
         25    2    1    2    0    0  0.00000000000E+00  0.00000000000E+00 -0.82221244164E+02  0.14961992763E+03  0.12500315897E+03 0.  0.
    9000005    1    3    3    0    0 -0.60589623690E+02 -0.10037886635E+02 -0.27276597177E+02  0.67207696141E+02  0.10000000000E+01 0.  0.
    9000005    1    3    3    0    0  0.60589623690E+02  0.10037886635E+02 -0.54944646986E+02  0.82412231492E+02  0.10000000000E+01 0.  0.
<mgrwt>
<rscale>  0 0.12500316E+03</rscale>
<asrwt>0</asrwt>
<pdfrwt beam="2">  1        4 0.28980146E-01 0.12500316E+03</pdfrwt>
<pdfrwt beam="1">  1       -4 0.84248357E-02 0.12500316E+03</pdfrwt>
<totfact> 0.18556121E+03</totfact>
</mgrwt>
</event>
<event>
 5    1  0.1423270E-002  0.1250033E+03  0.7818608E-02  0.1235064E+00
         -4   -1    0    0    0  501 -0.00000000000E+00  0.00000000000E+00  0.75271360593E+02  0.75282073732E+02  0.12700000000E+01 0. -1.
          4   -1    0    0  501    0  0.00000000000E+00 -0.00000000000E+00 -0.51876101326E+02  0.51891644691E+02  0.12700000000E+01 0. -1.
         25    2    1    2    0    0  0.00000000000E+00  0.00000000000E+00  0.23395259267E+02  0.12717371842E+03  0.12500326596E+03 0.  0.
    9000005    1    3    3    0    0  0.25218423233E+02  0.42242987642E+02  0.50902630392E+02  0.70799128922E+02  0.10000000000E+01 0.  0.
    9000005    1    3    3    0    0 -0.25218423233E+02 -0.42242987642E+02 -0.27507371125E+02  0.56374589502E+02  0.10000000000E+01 0.  0.
<mgrwt>
<rscale>  0 0.12500327E+03</rscale>
<asrwt>0</asrwt>
<pdfrwt beam="2">  1        4 0.12972307E-01 0.12500327E+03</pdfrwt>
<pdfrwt beam="1">  1       -4 0.18821122E-01 0.12500327E+03</pdfrwt>
<totfact> 0.19716071E+03</totfact>
</mgrwt>
</event>
<event>
 5    1  0.1423270E-002  0.1249953E+03  0.7818608E-02  0.1235077E+00
         -4   -1    0    0    0  501 -0.00000000000E+00  0.00000000000E+00  0.44874274157E+03  0.44874453870E+03  0.12700000000E+01 0. -1.
          4   -1    0    0  501    0  0.00000000000E+00 -0.00000000000E+00 -0.86560698575E+01  0.87487396451E+01  0.12700000000E+01 0. -1.
         25    2    1    2    0    0  0.00000000000E+00  0.00000000000E+00  0.44008667172E+03  0.45749327835E+03  0.12499528435E+03 0.  0.
    9000005    1    3    3    0    0  0.50643672509E+02  0.36177347272E+02  0.19954253198E+03  0.20902584551E+03  0.10000000000E+01 0.  0.
    9000005    1    3    3    0    0 -0.50643672509E+02 -0.36177347272E+02  0.24054413974E+03  0.24846743284E+03  0.10000000000E+01 0.  0.
<mgrwt>
<rscale>  0 0.12499528E+03</rscale>
<asrwt>0</asrwt>
<pdfrwt beam="2">  1        4 0.21758261E-02 0.12499528E+03</pdfrwt>
<pdfrwt beam="1">  1       -4 0.11219748E+00 0.12499528E+03</pdfrwt>
<totfact> 0.94697212E+02</totfact>
</mgrwt>
</event>
<event>
 5    1  0.1423270E-002  0.1250022E+03  0.7818608E-02  0.1235066E+00
          4   -1    0    0  501    0  0.00000000000E+00  0.00000000000E+00  0.31247695810E+02  0.31273493464E+02  0.12700000000E+01 0. -1.
         -4   -1    0    0    0  501 -0.00000000000E+00 -0.00000000000E+00 -0.12493308098E+03  0.12493953586E+03  0.12700000000E+01 0. -1.
         25    2    1    2    0    0  0.00000000000E+00  0.00000000000E+00 -0.93685385165E+02  0.15621302933E+03  0.12500223653E+03 0.  0.
    9000005    1    3    3    0    0 -0.42068584419E+02 -0.45946227894E+02 -0.53036897079E+02  0.81821354819E+02  0.10000000000E+01 0.  0.
    9000005    1    3    3    0    0  0.42068584419E+02  0.45946227894E+02 -0.40648488086E+02  0.74391674509E+02  0.10000000000E+01 0.  0.
<mgrwt>
<rscale>  0 0.12500224E+03</rscale>
<asrwt>0</asrwt>
<pdfrwt beam="1">  1        4 0.78159558E-02 0.12500224E+03</pdfrwt>
<pdfrwt beam="2">  1       -4 0.31237301E-01 0.12500224E+03</pdfrwt>
<totfact> 0.18236496E+03</totfact>
</mgrwt>
</event>
<event>
 5    1  0.1423270E-002  0.1250018E+03  0.7818608E-02  0.1235066E+00
          4   -1    0    0  501    0  0.00000000000E+00  0.00000000000E+00  0.18551455339E+03  0.18551890044E+03  0.12700000000E+01 0. -1.
         -4   -1    0    0    0  501 -0.00000000000E+00 -0.00000000000E+00 -0.21033154436E+02  0.21071461400E+02  0.12700000000E+01 0. -1.
         25    2    1    2    0    0  0.00000000000E+00  0.00000000000E+00  0.16448139896E+03  0.20659036184E+03  0.12500178800E+03 0.  0.
    9000005    1    3    3    0    0  0.35445614825E+02  0.51451606528E+02  0.84397029347E+02  0.10501198973E+03  0.10000000000E+01 0.  0.
    9000005    1    3    3    0    0 -0.35445614825E+02 -0.51451606528E+02  0.80084369611E+02  0.10157837211E+03  0.10000000000E+01 0.  0.
<mgrwt>
<rscale>  0 0.12500179E+03</rscale>
<asrwt>0</asrwt>
<pdfrwt beam="1">  1        4 0.46383970E-01 0.12500179E+03</pdfrwt>
<pdfrwt beam="2">  1       -4 0.52636204E-02 0.12500179E+03</pdfrwt>
<totfact> 0.16060847E+03</totfact>
</mgrwt>
</event>
<event>
 5    1  0.1423270E-002  0.1249984E+03  0.7818608E-02  0.1235072E+00
         -4   -1    0    0    0  501 -0.00000000000E+00  0.00000000000E+00  0.29258418617E+02  0.29285968654E+02  0.12700000000E+01 0.  1.
          4   -1    0    0  501    0  0.00000000000E+00 -0.00000000000E+00 -0.13341166004E+03  0.13341770472E+03  0.12700000000E+01 0.  1.
         25    2    1    2    0    0  0.00000000000E+00  0.00000000000E+00 -0.10415324142E+03  0.16270367338E+03  0.12499835052E+03 0.  0.
    9000005    1    3    3    0    0 -0.11008024402E+02  0.41537621667E+02  0.69813702860E+01  0.43546413700E+02  0.10000000000E+01 0.  0.
    9000005    1    3    3    0    0  0.11008024402E+02 -0.41537621667E+02 -0.11113461171E+03  0.11915725968E+03  0.10000000000E+01 0.  0.
<mgrwt>
<rscale>  0 0.12499835E+03</rscale>
<asrwt>0</asrwt>
<pdfrwt beam="2">  1        4 0.33357113E-01 0.12499835E+03</pdfrwt>
<pdfrwt beam="1">  1       -4 0.73188043E-02 0.12499835E+03</pdfrwt>
<totfact> 0.17931940E+03</totfact>
</mgrwt>
</event>
<event>
 5    1  0.1423270E-002  0.1250148E+03  0.7818608E-02  0.1235046E+00
         -4   -1    0    0    0  501 -0.00000000000E+00  0.00000000000E+00  0.64427469579E+03  0.64427594751E+03  0.12700000000E+01 0.  1.
          4   -1    0    0  501    0  0.00000000000E+00 -0.00000000000E+00 -0.59966909657E+01  0.61296984051E+01  0.12700000000E+01 0.  1.
         25    2    1    2    0    0  0.00000000000E+00  0.00000000000E+00  0.63827800483E+03  0.65040564592E+03  0.12501477029E+03 0.  0.
    9000005    1    3    3    0    0 -0.16814575710E+02  0.59530836523E+02  0.36553373277E+03  0.37073246451E+03  0.10000000000E+01 0.  0.
    9000005    1    3    3    0    0  0.16814575710E+02 -0.59530836523E+02  0.27274427206E+03  0.27967318140E+03  0.10000000000E+01 0.  0.
<mgrwt>
<rscale>  0 0.12501477E+03</rscale>
<asrwt>0</asrwt>
<pdfrwt beam="2">  1        4 0.15159551E-02 0.12501477E+03</pdfrwt>
<pdfrwt beam="1">  1       -4 0.16108546E+00 0.12501477E+03</pdfrwt>
<totfact> 0.67441983E+02</totfact>
</mgrwt>
</event>
<event>
 5    1  0.1423270E-002  0.1249983E+03  0.7818608E-02  0.1235072E+00
          4   -1    0    0  501    0  0.00000000000E+00  0.00000000000E+00  0.10087190275E+03  0.10087989722E+03  0.12700000000E+01 0.  1.
         -4   -1    0    0    0  501 -0.00000000000E+00 -0.00000000000E+00 -0.38703888088E+02  0.38724718891E+02  0.12700000000E+01 0.  1.
         25    2    1    2    0    0  0.00000000000E+00  0.00000000000E+00  0.62168014660E+02  0.13960461612E+03  0.12499834717E+03 0.  0.
    9000005    1    3    3    0    0 -0.85120828403E+01 -0.60118995949E+02  0.47589151041E+02  0.77152294360E+02  0.10000000000E+01 0.  0.
    9000005    1    3    3    0    0  0.85120828403E+01  0.60118995949E+02  0.14578863619E+02  0.62452321756E+02  0.10000000000E+01 0.  0.
<mgrwt>
<rscale>  0 0.12499835E+03</rscale>
<asrwt>0</asrwt>
<pdfrwt beam="1">  1        4 0.25221579E-01 0.12499835E+03</pdfrwt>
<pdfrwt beam="2">  1       -4 0.96795753E-02 0.12499835E+03</pdfrwt>
<totfact> 0.19061322E+03</totfact>
</mgrwt>
</event>
<event>
 5    1  0.1423270E-002  0.1250002E+03  0.7818608E-02  0.1235069E+00
         -4   -1    0    0    0  501 -0.00000000000E+00  0.00000000000E+00  0.46587277829E+02  0.46604585134E+02  0.12700000000E+01 0.  1.
          4   -1    0    0  501    0  0.00000000000E+00 -0.00000000000E+00 -0.83810615436E+02  0.83820237173E+02  0.12700000000E+01 0.  1.
         25    2    1    2    0    0  0.00000000000E+00  0.00000000000E+00 -0.37223337607E+02  0.13042482231E+03  0.12500022964E+03 0.  0.
    9000005    1    3    3    0    0 -0.50223980334E+02  0.26558159255E+02 -0.45769669041E+02  0.72963323853E+02  0.10000000000E+01 0.  0.
    9000005    1    3    3    0    0  0.50223980334E+02 -0.26558159255E+02  0.85463314338E+01  0.57461498454E+02  0.10000000000E+01 0.  0.
<mgrwt>
<rscale>  0 0.12500023E+03</rscale>
<asrwt>0</asrwt>
<pdfrwt beam="2">  1        4 0.20956020E-01 0.12500023E+03</pdfrwt>
<pdfrwt beam="1">  1       -4 0.11650186E-01 0.12500023E+03</pdfrwt>
<totfact> 0.19541467E+03</totfact>
</mgrwt>
</event>
<event>
 5    1  0.1423270E-002  0.1250015E+03  0.7818608E-02  0.1235067E+00
          4   -1    0    0  501    0  0.00000000000E+00  0.00000000000E+00  0.10821452825E+02  0.10895721235E+02  0.12700000000E+01 0.  1.
         -4   -1    0    0    0  501 -0.00000000000E+00 -0.00000000000E+00 -0.35967161437E+03  0.35967385654E+03  0.12700000000E+01 0.  1.
         25    2    1    2    0    0  0.00000000000E+00  0.00000000000E+00 -0.34885016154E+03  0.37056957778E+03  0.12500150706E+03 0.  0.
    9000005    1    3    3    0    0  0.48334730989E+02  0.37803776257E+02 -0.20949831626E+03  0.21830235050E+03  0.10000000000E+01 0.  0.
    9000005    1    3    3    0    0 -0.48334730989E+02 -0.37803776257E+02 -0.13935184528E+03  0.15226722728E+03  0.10000000000E+01 0.  0.
<mgrwt>
<rscale>  0 0.12500151E+03</rscale>
<asrwt>0</asrwt>
<pdfrwt beam="1">  1        4 0.27149282E-02 0.12500151E+03</pdfrwt>
<pdfrwt beam="2">  1       -4 0.89927428E-01 0.12500151E+03</pdfrwt>
<totfact> 0.11201268E+03</totfact>
</mgrwt>
</event>
<event>
 5    1  0.1423270E-002  0.1249972E+03  0.7818608E-02  0.1235074E+00
         -4   -1    0    0    0  501 -0.00000000000E+00  0.00000000000E+00  0.30373343718E+03  0.30373609229E+03  0.12700000000E+01 0. -1.
          4   -1    0    0  501    0  0.00000000000E+00 -0.00000000000E+00 -0.12826139367E+02  0.12888861512E+02  0.12700000000E+01 0. -1.
         25    2    1    2    0    0  0.00000000000E+00  0.00000000000E+00  0.29090729781E+03  0.31662495381E+03  0.12499722177E+03 0.  0.
    9000005    1    3    3    0    0 -0.48537465373E+02 -0.25232556843E+02  0.68935697916E+02  0.88009646726E+02  0.10000000000E+01 0.  0.
    9000005    1    3    3    0    0  0.48537465373E+02  0.25232556843E+02  0.22197159990E+03  0.22861530708E+03  0.10000000000E+01 0.  0.
<mgrwt>
<rscale>  0 0.12499722E+03</rscale>
<asrwt>0</asrwt>
<pdfrwt beam="2">  1        4 0.32147068E-02 0.12499722E+03</pdfrwt>
<pdfrwt beam="1">  1       -4 0.75941536E-01 0.12499722E+03</pdfrwt>
<totfact> 0.12518373E+03</totfact>
</mgrwt>
</event>
<event>
 5    1  0.1423270E-002  0.1250065E+03  0.7818608E-02  0.1235059E+00
         -4   -1    0    0    0  501 -0.00000000000E+00  0.00000000000E+00  0.39733485403E+02  0.39753776704E+02  0.12700000000E+01 0. -1.
          4   -1    0    0  501    0  0.00000000000E+00 -0.00000000000E+00 -0.98272076965E+02  0.98280282921E+02  0.12700000000E+01 0. -1.
         25    2    1    2    0    0  0.00000000000E+00  0.00000000000E+00 -0.58538591563E+02  0.13803405963E+03  0.12500653949E+03 0.  0.
    9000005    1    3    3    0    0  0.48728938779E+02 -0.37222383852E+02 -0.42595268630E+02  0.74668415303E+02  0.10000000000E+01 0.  0.
    9000005    1    3    3    0    0 -0.48728938779E+02  0.37222383852E+02 -0.15943322933E+02  0.63365644322E+02  0.10000000000E+01 0.  0.
<mgrwt>
<rscale>  0 0.12500654E+03</rscale>
<asrwt>0</asrwt>
<pdfrwt beam="2">  1        4 0.24571581E-01 0.12500654E+03</pdfrwt>
<pdfrwt beam="1">  1       -4 0.99369337E-02 0.12500654E+03</pdfrwt>
<totfact> 0.19138453E+03</totfact>
</mgrwt>
</event>
<event>
 5    1  0.1423270E-002  0.1249995E+03  0.7818608E-02  0.1235070E+00
         -4   -1    0    0    0  501 -0.00000000000E+00  0.00000000000E+00  0.30149175089E+03  0.30149442575E+03  0.12700000000E+01 0. -1.
          4   -1    0    0  501    0  0.00000000000E+00 -0.00000000000E+00 -0.12922438001E+02  0.12984694987E+02  0.12700000000E+01 0. -1.
         25    2    1    2    0    0  0.00000000000E+00  0.00000000000E+00  0.28856931289E+03  0.31447912074E+03  0.12499947614E+03 0.  0.
    9000005    1    3    3    0    0 -0.57350095853E+02 -0.68586658050E+01  0.84264915045E+02  0.10216482124E+03  0.10000000000E+01 0.  0.
    9000005    1    3    3    0    0  0.57350095853E+02  0.68586658050E+01  0.20430439785E+03  0.21231429950E+03  0.10000000000E+01 0.  0.
<mgrwt>
<rscale>  0 0.12499948E+03</rscale>
<asrwt>0</asrwt>
<pdfrwt beam="2">  1        4 0.32387260E-02 0.12499948E+03</pdfrwt>
<pdfrwt beam="1">  1       -4 0.75381054E-01 0.12499948E+03</pdfrwt>
<totfact> 0.12574890E+03</totfact>
</mgrwt>
</event>
<event>
 5    1  0.1423270E-002  0.1249995E+03  0.7818608E-02  0.1235070E+00
          4   -1    0    0  501    0  0.00000000000E+00  0.00000000000E+00  0.44582086211E+03  0.44582267101E+03  0.12700000000E+01 0.  1.
         -4   -1    0    0    0  501 -0.00000000000E+00 -0.00000000000E+00 -0.87139974532E+01  0.88060576658E+01  0.12700000000E+01 0.  1.
         25    2    1    2    0    0  0.00000000000E+00  0.00000000000E+00  0.43710686465E+03  0.45462872868E+03  0.12499947925E+03 0.  0.
    9000005    1    3    3    0    0 -0.35790960159E+02  0.26788371201E+02  0.37736398389E+03  0.38000419208E+03  0.10000000000E+01 0.  0.
    9000005    1    3    3    0    0  0.35790960159E+02 -0.26788371201E+02  0.59742880760E+02  0.74624536596E+02  0.10000000000E+01 0.  0.
<mgrwt>
<rscale>  0 0.12499948E+03</rscale>
<asrwt>0</asrwt>
<pdfrwt beam="1">  1        4 0.11146694E+00 0.12499948E+03</pdfrwt>
<pdfrwt beam="2">  1       -4 0.21902332E-02 0.12499948E+03</pdfrwt>
<totfact> 0.95192965E+02</totfact>
</mgrwt>
</event>
<event>
 5    1  0.1423270E-002  0.1249965E+03  0.7818608E-02  0.1235075E+00
         -4   -1    0    0    0  501 -0.00000000000E+00  0.00000000000E+00  0.23237193181E+02  0.23271872442E+02  0.12700000000E+01 0.  1.
          4   -1    0    0  501    0  0.00000000000E+00 -0.00000000000E+00 -0.16793155800E+03  0.16793636019E+03  0.12700000000E+01 0.  1.
         25    2    1    2    0    0  0.00000000000E+00  0.00000000000E+00 -0.14469436482E+03  0.19120823263E+03  0.12499651601E+03 0.  0.
    9000005    1    3    3    0    0 -0.30951411916E+02  0.42660414152E+02 -0.12370374609E+03  0.13446753374E+03  0.10000000000E+01 0.  0.
    9000005    1    3    3    0    0  0.30951411916E+02 -0.42660414152E+02 -0.20990618734E+02  0.56740698885E+02  0.10000000000E+01 0.  0.
<mgrwt>
<rscale>  0 0.12499652E+03</rscale>
<asrwt>0</asrwt>
<pdfrwt beam="2">  1        4 0.41987821E-01 0.12499652E+03</pdfrwt>
<pdfrwt beam="1">  1       -4 0.58142340E-02 0.12499652E+03</pdfrwt>
<totfact> 0.16681583E+03</totfact>
</mgrwt>
</event>
<event>
 5    1  0.1423270E-002  0.1250003E+03  0.7818608E-02  0.1235069E+00
         -4   -1    0    0    0  501 -0.00000000000E+00  0.00000000000E+00  0.40650843134E+03  0.40651041518E+03  0.12700000000E+01 0.  1.
          4   -1    0    0  501    0  0.00000000000E+00 -0.00000000000E+00 -0.95653343728E+01  0.96492757067E+01  0.12700000000E+01 0.  1.
         25    2    1    2    0    0  0.00000000000E+00  0.00000000000E+00  0.39694309697E+03  0.41615969089E+03  0.12500026436E+03 0.  0.
    9000005    1    3    3    0    0  0.32162907529E+02 -0.43909975794E+02  0.30069305265E+03  0.30558116844E+03  0.10000000000E+01 0.  0.
    9000005    1    3    3    0    0 -0.32162907529E+02  0.43909975794E+02  0.96250044320E+02  0.11057852245E+03  0.10000000000E+01 0.  0.
<mgrwt>
<rscale>  0 0.12500026E+03</rscale>
<asrwt>0</asrwt>
<pdfrwt beam="2">  1        4 0.24020743E-02 0.12500026E+03</pdfrwt>
<pdfrwt beam="1">  1       -4 0.10163785E+00 0.12500026E+03</pdfrwt>
<totfact> 0.10242127E+03</totfact>
</mgrwt>
</event>
<event>
 5    1  0.1423270E-002  0.1249998E+03  0.7818608E-02  0.1235070E+00
         -4   -1    0    0    0  501 -0.00000000000E+00  0.00000000000E+00  0.24167021952E+02  0.24200368799E+02  0.12700000000E+01 0.  1.
          4   -1    0    0  501    0  0.00000000000E+00 -0.00000000000E+00 -0.16148772688E+03  0.16149272068E+03  0.12700000000E+01 0.  1.
         25    2    1    2    0    0  0.00000000000E+00  0.00000000000E+00 -0.13732070493E+03  0.18569308948E+03  0.12499978991E+03 0.  0.
    9000005    1    3    3    0    0  0.43023218119E+02 -0.40616053838E+02 -0.98540750538E+02  0.11494320616E+03  0.10000000000E+01 0.  0.
    9000005    1    3    3    0    0 -0.43023218119E+02  0.40616053838E+02 -0.38779954391E+02  0.70749883316E+02  0.10000000000E+01 0.  0.
<mgrwt>
<rscale>  0 0.12499979E+03</rscale>
<asrwt>0</asrwt>
<pdfrwt beam="2">  1        4 0.40376721E-01 0.12499979E+03</pdfrwt>
<pdfrwt beam="1">  1       -4 0.60465485E-02 0.12499979E+03</pdfrwt>
<totfact> 0.16911492E+03</totfact>
</mgrwt>
</event>
<event>
 5    1  0.1423270E-002  0.1250034E+03  0.7818608E-02  0.1235064E+00
         -4   -1    0    0    0  501 -0.00000000000E+00  0.00000000000E+00  0.40202949863E+02  0.40223004335E+02  0.12700000000E+01 0. -1.
          4   -1    0    0  501    0  0.00000000000E+00 -0.00000000000E+00 -0.97120163772E+02  0.97128467048E+02  0.12700000000E+01 0. -1.
         25    2    1    2    0    0  0.00000000000E+00  0.00000000000E+00 -0.56917213908E+02  0.13735147138E+03  0.12500342976E+03 0.  0.
    9000005    1    3    3    0    0 -0.35467308578E+02  0.29164654071E+02 -0.75036546235E+02  0.87977214640E+02  0.10000000000E+01 0.  0.
    9000005    1    3    3    0    0  0.35467308578E+02 -0.29164654071E+02  0.18119332327E+02  0.49374256742E+02  0.10000000000E+01 0.  0.
<mgrwt>
<rscale>  0 0.12500343E+03</rscale>
<asrwt>0</asrwt>
<pdfrwt beam="2">  1        4 0.24283585E-01 0.12500343E+03</pdfrwt>
<pdfrwt beam="1">  1       -4 0.10054282E-01 0.12500343E+03</pdfrwt>
<totfact> 0.19175133E+03</totfact>
</mgrwt>
</event>
<event>
 5    1  0.1423270E-002  0.1249626E+03  0.7818608E-02  0.1235128E+00
         -4   -1    0    0    0  501 -0.00000000000E+00  0.00000000000E+00  0.61815609529E+02  0.61828654211E+02  0.12700000000E+01 0. -1.
          4   -1    0    0  501    0  0.00000000000E+00 -0.00000000000E+00 -0.63128071707E+02  0.63140845239E+02  0.12700000000E+01 0. -1.
         25    2    1    2    0    0  0.00000000000E+00  0.00000000000E+00 -0.13124621778E+01  0.12496949945E+03  0.12496260735E+03 0.  0.
    9000005    1    3    3    0    0 -0.61286972658E+02  0.67243900361E+01 -0.10736611923E+02  0.62590616505E+02  0.10000000000E+01 0.  0.
    9000005    1    3    3    0    0  0.61286972658E+02 -0.67243900361E+01  0.94241497448E+01  0.62378882944E+02  0.10000000000E+01 0.  0.
<mgrwt>
<rscale>  0 0.12496261E+03</rscale>
<asrwt>0</asrwt>
<pdfrwt beam="2">  1        4 0.15785245E-01 0.12496261E+03</pdfrwt>
<pdfrwt beam="1">  1       -4 0.15457130E-01 0.12496261E+03</pdfrwt>
<totfact> 0.19854076E+03</totfact>
</mgrwt>
</event>
<event>
 5    1  0.1423270E-002  0.1250006E+03  0.7818608E-02  0.1235068E+00
         -4   -1    0    0    0  501 -0.00000000000E+00  0.00000000000E+00  0.46313960548E+03  0.46314134675E+03  0.12700000000E+01 0.  1.
          4   -1    0    0  501    0  0.00000000000E+00 -0.00000000000E+00 -0.83847826653E+01  0.84804174628E+01  0.12700000000E+01 0.  1.
         25    2    1    2    0    0  0.00000000000E+00  0.00000000000E+00  0.45475482282E+03  0.47162176421E+03  0.12500055840E+03 0.  0.
    9000005    1    3    3    0    0  0.75735527397E+01  0.30975558131E+02  0.24602772951E+02  0.40288215889E+02  0.10000000000E+01 0.  0.
    9000005    1    3    3    0    0 -0.75735527397E+01 -0.30975558131E+02  0.43015204987E+03  0.43133354832E+03  0.10000000000E+01 0.  0.
<mgrwt>
<rscale>  0 0.12500056E+03</rscale>
<asrwt>0</asrwt>
<pdfrwt beam="2">  1        4 0.21083679E-02 0.12500056E+03</pdfrwt>
<pdfrwt beam="1">  1       -4 0.11579706E+00 0.12500056E+03</pdfrwt>
<totfact> 0.92259317E+02</totfact>
</mgrwt>
</event>
<event>
 5    1  0.1423270E-002  0.1249998E+03  0.7818608E-02  0.1235070E+00
          4   -1    0    0  501    0  0.00000000000E+00  0.00000000000E+00  0.10966626733E+03  0.10967362076E+03  0.12700000000E+01 0.  1.
         -4   -1    0    0    0  501 -0.00000000000E+00 -0.00000000000E+00 -0.35599449559E+02  0.35622095796E+02  0.12700000000E+01 0.  1.
         25    2    1    2    0    0  0.00000000000E+00  0.00000000000E+00  0.74066817771E+02  0.14529571655E+03  0.12499980702E+03 0.  0.
    9000005    1    3    3    0    0 -0.37691641321E+02 -0.14778879105E+02 -0.18300203820E+02  0.44440663281E+02  0.10000000000E+01 0.  0.
    9000005    1    3    3    0    0  0.37691641321E+02  0.14778879105E+02  0.92367021591E+02  0.10085505327E+03  0.10000000000E+01 0.  0.
<mgrwt>
<rscale>  0 0.12499981E+03</rscale>
<asrwt>0</asrwt>
<pdfrwt beam="1">  1        4 0.27420316E-01 0.12499981E+03</pdfrwt>
<pdfrwt beam="2">  1       -4 0.89036125E-02 0.12499981E+03</pdfrwt>
<totfact> 0.18772618E+03</totfact>
</mgrwt>
</event>
<event>
 5    1  0.1423270E-002  0.1249938E+03  0.7818608E-02  0.1235079E+00
          4   -1    0    0  501    0  0.00000000000E+00  0.00000000000E+00  0.63655716559E+02  0.63668384231E+02  0.12700000000E+01 0.  1.
         -4   -1    0    0    0  501 -0.00000000000E+00 -0.00000000000E+00 -0.61333876827E+02  0.61347023943E+02  0.12700000000E+01 0.  1.
         25    2    1    2    0    0  0.00000000000E+00  0.00000000000E+00  0.23218397319E+01  0.12501540817E+03  0.12499384521E+03 0.  0.
    9000005    1    3    3    0    0  0.39508883779E+02  0.14791620452E+02 -0.44946071839E+02  0.61651385280E+02  0.10000000000E+01 0.  0.
    9000005    1    3    3    0    0 -0.39508883779E+02 -0.14791620452E+02  0.47267911571E+02  0.63364022895E+02  0.10000000000E+01 0.  0.
<mgrwt>
<rscale>  0 0.12499385E+03</rscale>
<asrwt>0</asrwt>
<pdfrwt beam="1">  1        4 0.15917156E-01 0.12499385E+03</pdfrwt>
<pdfrwt beam="2">  1       -4 0.15336696E-01 0.12499385E+03</pdfrwt>
<totfact> 0.19837076E+03</totfact>
</mgrwt>
</event>
<event>
 5    1  0.1423270E-002  0.1249926E+03  0.7818608E-02  0.1235081E+00
          4   -1    0    0  501    0  0.00000000000E+00  0.00000000000E+00  0.78770457975E+02  0.78780695285E+02  0.12700000000E+01 0.  1.
         -4   -1    0    0    0  501 -0.00000000000E+00 -0.00000000000E+00 -0.49562803262E+02  0.49579071867E+02  0.12700000000E+01 0.  1.
         25    2    1    2    0    0  0.00000000000E+00  0.00000000000E+00  0.29207654713E+02  0.12835976715E+03  0.12499257070E+03 0.  0.
    9000005    1    3    3    0    0  0.51750410135E+02  0.34962592570E+02  0.12474852412E+02  0.63695445450E+02  0.10000000000E+01 0.  0.
    9000005    1    3    3    0    0 -0.51750410135E+02 -0.34962592570E+02  0.16732802301E+02  0.64664321702E+02  0.10000000000E+01 0.  0.
<mgrwt>
<rscale>  0 0.12499257E+03</rscale>
<asrwt>0</asrwt>
<pdfrwt beam="1">  1        4 0.19695928E-01 0.12499257E+03</pdfrwt>
<pdfrwt beam="2">  1       -4 0.12394014E-01 0.12499257E+03</pdfrwt>
<totfact> 0.19656390E+03</totfact>
</mgrwt>
</event>
<event>
 5    1  0.1423270E-002  0.1249987E+03  0.7818608E-02  0.1235071E+00
         -4   -1    0    0    0  501 -0.00000000000E+00  0.00000000000E+00  0.64779205668E+03  0.64779330160E+03  0.12700000000E+01 0. -1.
          4   -1    0    0  501    0  0.00000000000E+00 -0.00000000000E+00 -0.59618338743E+01  0.60956019510E+01  0.12700000000E+01 0. -1.
         25    2    1    2    0    0  0.00000000000E+00  0.00000000000E+00  0.64183022281E+03  0.65388890356E+03  0.12499865311E+03 0.  0.
    9000005    1    3    3    0    0 -0.12564060383E+02 -0.27875080333E+02  0.35814552850E+02  0.47101570173E+02  0.10000000000E+01 0.  0.
    9000005    1    3    3    0    0  0.12564060383E+02  0.27875080333E+02  0.60601566996E+03  0.60678733338E+03  0.10000000000E+01 0.  0.
<mgrwt>
<rscale>  0 0.12499865E+03</rscale>
<asrwt>0</asrwt>
<pdfrwt beam="2">  1        4 0.15073351E-02 0.12499865E+03</pdfrwt>
<pdfrwt beam="1">  1       -4 0.16196489E+00 0.12499865E+03</pdfrwt>
<totfact> 0.67069724E+02</totfact>
</mgrwt>
</event>
<event>
 5    1  0.1423270E-002  0.1250014E+03  0.7818608E-02  0.1235067E+00
          4   -1    0    0  501    0  0.00000000000E+00  0.00000000000E+00  0.18747260135E+03  0.18747690299E+03  0.12700000000E+01 0. -1.
         -4   -1    0    0    0  501 -0.00000000000E+00 -0.00000000000E+00 -0.20812960519E+02  0.20851672009E+02  0.12700000000E+01 0. -1.
         25    2    1    2    0    0  0.00000000000E+00  0.00000000000E+00  0.16665964083E+03  0.20832857500E+03  0.12500143712E+03 0.  0.
    9000005    1    3    3    0    0  0.59193656547E+02  0.81533603256E+01  0.11383257790E+03  0.12856602215E+03  0.10000000000E+01 0.  0.
    9000005    1    3    3    0    0 -0.59193656547E+02 -0.81533603256E+01  0.52827062929E+02  0.79762552854E+02  0.10000000000E+01 0.  0.
<mgrwt>
<rscale>  0 0.12500144E+03</rscale>
<asrwt>0</asrwt>
<pdfrwt beam="1">  1        4 0.46873526E-01 0.12500144E+03</pdfrwt>
<pdfrwt beam="2">  1       -4 0.52086168E-02 0.12500144E+03</pdfrwt>
<totfact> 0.15993366E+03</totfact>
</mgrwt>
</event>
<event>
 5    1  0.1423270E-002  0.1249952E+03  0.7818608E-02  0.1235077E+00
          4   -1    0    0  501    0  0.00000000000E+00  0.00000000000E+00  0.76661559287E+02  0.76672078179E+02  0.12700000000E+01 0.  1.
         -4   -1    0    0    0  501 -0.00000000000E+00 -0.00000000000E+00 -0.50928636107E+02  0.50944468549E+02  0.12700000000E+01 0.  1.
         25    2    1    2    0    0  0.00000000000E+00  0.00000000000E+00  0.25732923180E+02  0.12761654673E+03  0.12499519856E+03 0.  0.
    9000005    1    3    3    0    0 -0.57350843765E+02  0.16254902789E+02  0.32010938639E+02  0.67668614126E+02  0.10000000000E+01 0.  0.
    9000005    1    3    3    0    0  0.57350843765E+02 -0.16254902789E+02 -0.62780154593E+01  0.59947932602E+02  0.10000000000E+01 0.  0.
<mgrwt>
<rscale>  0 0.12499520E+03</rscale>
<asrwt>0</asrwt>
<pdfrwt beam="1">  1        4 0.19168684E-01 0.12499520E+03</pdfrwt>
<pdfrwt beam="2">  1       -4 0.12735453E-01 0.12499520E+03</pdfrwt>
<totfact> 0.19695631E+03</totfact>
</mgrwt>
</event>
<event>
 5    1  0.1423270E-002  0.1249950E+03  0.7818608E-02  0.1235077E+00
          4   -1    0    0  501    0  0.00000000000E+00  0.00000000000E+00  0.80978786786E+02  0.80988744954E+02  0.12700000000E+01 0. -1.
         -4   -1    0    0    0  501 -0.00000000000E+00 -0.00000000000E+00 -0.48212827225E+02  0.48229551201E+02  0.12700000000E+01 0. -1.
         25    2    1    2    0    0  0.00000000000E+00  0.00000000000E+00  0.32765959561E+02  0.12921829615E+03  0.12499503972E+03 0.  0.
    9000005    1    3    3    0    0  0.50616439671E+01  0.18501304685E+02  0.77865276083E+02  0.80199250209E+02  0.10000000000E+01 0.  0.
    9000005    1    3    3    0    0 -0.50616439671E+01 -0.18501304685E+02 -0.45099316522E+02  0.49019045946E+02  0.10000000000E+01 0.  0.
<mgrwt>
<rscale>  0 0.12499504E+03</rscale>
<asrwt>0</asrwt>
<pdfrwt beam="1">  1        4 0.20248032E-01 0.12499504E+03</pdfrwt>
<pdfrwt beam="2">  1       -4 0.12056542E-01 0.12499504E+03</pdfrwt>
<totfact> 0.19608770E+03</totfact>
</mgrwt>
</event>
<event>
 5    1  0.1423270E-002  0.1249674E+03  0.7818608E-02  0.1235120E+00
          4   -1    0    0  501    0  0.00000000000E+00  0.00000000000E+00  0.53814268184E+03  0.53814418042E+03  0.12700000000E+01 0.  1.
         -4   -1    0    0    0  501 -0.00000000000E+00 -0.00000000000E+00 -0.71978768801E+01  0.73090581870E+01  0.12700000000E+01 0.  1.
         25    2    1    2    0    0  0.00000000000E+00  0.00000000000E+00  0.53094480496E+03  0.54545323861E+03  0.12496739411E+03 0.  0.
    9000005    1    3    3    0    0  0.27934846765E+02  0.41608035775E+02  0.42829789652E+03  0.43122114103E+03  0.10000000000E+01 0.  0.
    9000005    1    3    3    0    0 -0.27934846765E+02 -0.41608035775E+02  0.10264690844E+03  0.11423209758E+03  0.10000000000E+01 0.  0.
<mgrwt>
<rscale>  0 0.12496739E+03</rscale>
<asrwt>0</asrwt>
<pdfrwt beam="1">  1        4 0.13454975E+00 0.12496739E+03</pdfrwt>
<pdfrwt beam="2">  1       -4 0.18135543E-02 0.12496739E+03</pdfrwt>
<totfact> 0.80863514E+02</totfact>
</mgrwt>
</event>
<event>
 5    1  0.1423270E-002  0.1249992E+03  0.7818608E-02  0.1235071E+00
         -4   -1    0    0    0  501 -0.00000000000E+00  0.00000000000E+00  0.10144331813E+03  0.10145126758E+03  0.12700000000E+01 0. -1.
          4   -1    0    0  501    0  0.00000000000E+00 -0.00000000000E+00 -0.38486310241E+02  0.38507258744E+02  0.12700000000E+01 0. -1.
         25    2    1    2    0    0  0.00000000000E+00  0.00000000000E+00  0.62957007888E+02  0.13995852632E+03  0.12499921699E+03 0.  0.
    9000005    1    3    3    0    0  0.28987124411E+02  0.11616745328E+02 -0.29128916168E+02  0.42716459484E+02  0.10000000000E+01 0.  0.
    9000005    1    3    3    0    0 -0.28987124411E+02 -0.11616745328E+02  0.92085924056E+02  0.97242066838E+02  0.10000000000E+01 0.  0.
<mgrwt>
<rscale>  0 0.12499922E+03</rscale>
<asrwt>0</asrwt>
<pdfrwt beam="2">  1        4 0.96251899E-02 0.12499922E+03</pdfrwt>
<pdfrwt beam="1">  1       -4 0.25364441E-01 0.12499922E+03</pdfrwt>
<totfact> 0.19042812E+03</totfact>
</mgrwt>
</event>
<event>
 5    1  0.1423270E-002  0.1250027E+03  0.7818608E-02  0.1235065E+00
         -4   -1    0    0    0  501 -0.00000000000E+00  0.00000000000E+00  0.20581096318E+03  0.20581488154E+03  0.12700000000E+01 0.  1.
          4   -1    0    0  501    0  0.00000000000E+00 -0.00000000000E+00 -0.18955252854E+02  0.18997750150E+02  0.12700000000E+01 0.  1.
         25    2    1    2    0    0  0.00000000000E+00  0.00000000000E+00  0.18685571033E+03  0.22481263169E+03  0.12500265152E+03 0.  0.
    9000005    1    3    3    0    0 -0.26138488002E+02  0.26502779720E+02  0.18370635494E+03  0.18744237176E+03  0.10000000000E+01 0.  0.
    9000005    1    3    3    0    0  0.26138488002E+02 -0.26502779720E+02  0.31493553886E+01  0.37370259931E+02  0.10000000000E+01 0.  0.
<mgrwt>
<rscale>  0 0.12500265E+03</rscale>
<asrwt>0</asrwt>
<pdfrwt beam="2">  1        4 0.47446151E-02 0.12500265E+03</pdfrwt>
<pdfrwt beam="1">  1       -4 0.51458543E-01 0.12500265E+03</pdfrwt>
<totfact> 0.15373516E+03</totfact>
</mgrwt>
</event>
<event>
 5    1  0.1423270E-002  0.1249983E+03  0.7818608E-02  0.1235072E+00
          4   -1    0    0  501    0  0.00000000000E+00  0.00000000000E+00  0.25898945155E+02  0.25930064792E+02  0.12700000000E+01 0.  1.
         -4   -1    0    0    0  501 -0.00000000000E+00 -0.00000000000E+00 -0.15069814808E+03  0.15070349941E+03  0.12700000000E+01 0.  1.
         25    2    1    2    0    0  0.00000000000E+00  0.00000000000E+00 -0.12479920292E+03  0.17663356420E+03  0.12499829980E+03 0.  0.
    9000005    1    3    3    0    0 -0.58679409028E+02  0.69421945628E+01 -0.91140452211E+02  0.10862342813E+03  0.10000000000E+01 0.  0.
    9000005    1    3    3    0    0  0.58679409028E+02 -0.69421945628E+01 -0.33658750713E+02  0.68010136074E+02  0.10000000000E+01 0.  0.
<mgrwt>
<rscale>  0 0.12499830E+03</rscale>
<asrwt>0</asrwt>
<pdfrwt beam="1">  1        4 0.64792956E-02 0.12499830E+03</pdfrwt>
<pdfrwt beam="2">  1       -4 0.37679093E-01 0.12499830E+03</pdfrwt>
<totfact> 0.17302612E+03</totfact>
</mgrwt>
</event>
<event>
 5    1  0.1423270E-002  0.1249995E+03  0.7818608E-02  0.1235070E+00
         -4   -1    0    0    0  501 -0.00000000000E+00  0.00000000000E+00  0.19759019592E+02  0.19799791798E+02  0.12700000000E+01 0. -1.
          4   -1    0    0  501    0  0.00000000000E+00 -0.00000000000E+00 -0.19744644740E+03  0.19745053176E+03  0.12700000000E+01 0. -1.
         25    2    1    2    0    0  0.00000000000E+00  0.00000000000E+00 -0.17768742781E+03  0.21725032356E+03  0.12499952433E+03 0.  0.
    9000005    1    3    3    0    0 -0.53087655943E+02  0.25436909134E+02 -0.12529572597E+03  0.13843899200E+03  0.10000000000E+01 0.  0.
    9000005    1    3    3    0    0  0.53087655943E+02 -0.25436909134E+02 -0.52391701838E+02  0.78811331554E+02  0.10000000000E+01 0.  0.
<mgrwt>
<rscale>  0 0.12499952E+03</rscale>
<asrwt>0</asrwt>
<pdfrwt beam="2">  1        4 0.49367213E-01 0.12499952E+03</pdfrwt>
<pdfrwt beam="1">  1       -4 0.49453626E-02 0.12499952E+03</pdfrwt>
<totfact> 0.15654018E+03</totfact>
</mgrwt>
</event>
<event>
 5    1  0.1423270E-002  0.1249997E+03  0.7818608E-02  0.1235070E+00
          4   -1    0    0  501    0  0.00000000000E+00  0.00000000000E+00  0.10311785604E+03  0.10312567641E+03  0.12700000000E+01 0.  1.
         -4   -1    0    0    0  501 -0.00000000000E+00 -0.00000000000E+00 -0.37861318700E+02  0.37882612816E+02  0.12700000000E+01 0.  1.
         25    2    1    2    0    0  0.00000000000E+00  0.00000000000E+00  0.65256537344E+02  0.14100828923E+03  0.12499968786E+03 0.  0.
    9000005    1    3    3    0    0  0.56328571520E+02 -0.21867522539E+02  0.50611473204E+02  0.78826503991E+02  0.10000000000E+01 0.  0.
    9000005    1    3    3    0    0 -0.56328571520E+02  0.21867522539E+02  0.14645064140E+02  0.62181785236E+02  0.10000000000E+01 0.  0.
<mgrwt>
<rscale>  0 0.12499969E+03</rscale>
<asrwt>0</asrwt>
<pdfrwt beam="1">  1        4 0.25783103E-01 0.12499969E+03</pdfrwt>
<pdfrwt beam="2">  1       -4 0.94689691E-02 0.12499969E+03</pdfrwt>
<totfact> 0.18989016E+03</totfact>
</mgrwt>
</event>
<event>
 5    1  0.1423270E-002  0.1250074E+03  0.7818608E-02  0.1235058E+00
          4   -1    0    0  501    0  0.00000000000E+00  0.00000000000E+00  0.27850931710E+02  0.27879872616E+02  0.12700000000E+01 0. -1.
         -4   -1    0    0    0  501 -0.00000000000E+00 -0.00000000000E+00 -0.14016753119E+03  0.14017328455E+03  0.12700000000E+01 0. -1.
         25    2    1    2    0    0  0.00000000000E+00  0.00000000000E+00 -0.11231659949E+03  0.16805315717E+03  0.12500738024E+03 0.  0.
    9000005    1    3    3    0    0 -0.11747197435E+02  0.50082800491E+02 -0.84495926889E+01  0.52140954816E+02  0.10000000000E+01 0.  0.
    9000005    1    3    3    0    0  0.11747197435E+02 -0.50082800491E+02 -0.10386700680E+03  0.11591220235E+03  0.10000000000E+01 0.  0.
<mgrwt>
<rscale>  0 0.12500738E+03</rscale>
<asrwt>0</asrwt>
<pdfrwt beam="1">  1        4 0.69670701E-02 0.12500738E+03</pdfrwt>
<pdfrwt beam="2">  1       -4 0.35046218E-01 0.12500738E+03</pdfrwt>
<totfact> 0.17682187E+03</totfact>
</mgrwt>
</event>
<event>
 5    1  0.1423270E-002  0.1250019E+03  0.7818608E-02  0.1235066E+00
          4   -1    0    0  501    0  0.00000000000E+00  0.00000000000E+00  0.12416065608E+02  0.12480848736E+02  0.12700000000E+01 0.  1.
         -4   -1    0    0    0  501 -0.00000000000E+00 -0.00000000000E+00 -0.31373745921E+03  0.31374002966E+03  0.12700000000E+01 0.  1.
         25    2    1    2    0    0  0.00000000000E+00  0.00000000000E+00 -0.30132139360E+03  0.32622087840E+03  0.12500191703E+03 0.  0.
    9000005    1    3    3    0    0  0.62388367904E+02 -0.14754973519E+01 -0.15927053099E+03  0.17106310995E+03  0.10000000000E+01 0.  0.
    9000005    1    3    3    0    0 -0.62388367904E+02  0.14754973519E+01 -0.14205086261E+03  0.15515776845E+03  0.10000000000E+01 0.  0.
<mgrwt>
<rscale>  0 0.12500192E+03</rscale>
<asrwt>0</asrwt>
<pdfrwt beam="1">  1        4 0.31124366E-02 0.12500192E+03</pdfrwt>
<pdfrwt beam="2">  1       -4 0.78442758E-01 0.12500192E+03</pdfrwt>
<totfact> 0.12266198E+03</totfact>
</mgrwt>
</event>
<event>
 5    1  0.1423270E-002  0.1249975E+03  0.7818608E-02  0.1235073E+00
          4   -1    0    0  501    0  0.00000000000E+00  0.00000000000E+00  0.83106130025E+02  0.83115833316E+02  0.12700000000E+01 0.  1.
         -4   -1    0    0    0  501 -0.00000000000E+00 -0.00000000000E+00 -0.46980237972E+02  0.46997400565E+02  0.12700000000E+01 0.  1.
         25    2    1    2    0    0  0.00000000000E+00  0.00000000000E+00  0.36125892054E+02  0.13011323388E+03  0.12499749419E+03 0.  0.
    9000005    1    3    3    0    0  0.56101403749E+01 -0.60163138411E+02  0.14727652018E+01  0.60450359270E+02  0.10000000000E+01 0.  0.
    9000005    1    3    3    0    0 -0.56101403749E+01  0.60163138411E+02  0.34653126852E+02  0.69662874611E+02  0.10000000000E+01 0.  0.
<mgrwt>
<rscale>  0 0.12499749E+03</rscale>
<asrwt>0</asrwt>
<pdfrwt beam="1">  1        4 0.20779891E-01 0.12499749E+03</pdfrwt>
<pdfrwt beam="2">  1       -4 0.11748418E-01 0.12499749E+03</pdfrwt>
<totfact> 0.19559441E+03</totfact>
</mgrwt>
</event>
<event>
 5    1  0.1423270E-002  0.1249939E+03  0.7818608E-02  0.1235079E+00
          4   -1    0    0  501    0  0.00000000000E+00  0.00000000000E+00  0.20221897996E+02  0.20261738784E+02  0.12700000000E+01 0.  1.
         -4   -1    0    0    0  501 -0.00000000000E+00 -0.00000000000E+00 -0.19291835583E+03  0.19292253605E+03  0.12700000000E+01 0.  1.
         25    2    1    2    0    0  0.00000000000E+00  0.00000000000E+00 -0.17269645783E+03  0.21318427483E+03  0.12499387380E+03 0.  0.
    9000005    1    3    3    0    0  0.38498856363E+02  0.47266920029E+02 -0.62929022982E+02  0.87620691642E+02  0.10000000000E+01 0.  0.
    9000005    1    3    3    0    0 -0.38498856363E+02 -0.47266920029E+02 -0.10976743485E+03  0.12556358319E+03  0.10000000000E+01 0.  0.
<mgrwt>
<rscale>  0 0.12499387E+03</rscale>
<asrwt>0</asrwt>
<pdfrwt beam="1">  1        4 0.50609777E-02 0.12499387E+03</pdfrwt>
<pdfrwt beam="2">  1       -4 0.48235086E-01 0.12499387E+03</pdfrwt>
<totfact> 0.15809627E+03</totfact>
</mgrwt>
</event>
<event>
 5    1  0.1423270E-002  0.1250014E+03  0.7818608E-02  0.1235067E+00
         -4   -1    0    0    0  501 -0.00000000000E+00  0.00000000000E+00  0.31269324236E+03  0.31269582140E+03  0.12700000000E+01 0.  1.
          4   -1    0    0  501    0  0.00000000000E+00 -0.00000000000E+00 -0.12457646184E+02  0.12522214199E+02  0.12700000000E+01 0.  1.
         25    2    1    2    0    0  0.00000000000E+00  0.00000000000E+00  0.30023559618E+03  0.32521803559E+03  0.12500142985E+03 0.  0.
    9000005    1    3    3    0    0 -0.37263182773E+02  0.29995188172E+02  0.25474047610E+03  0.25919484228E+03  0.10000000000E+01 0.  0.
    9000005    1    3    3    0    0  0.37263182773E+02 -0.29995188172E+02  0.45495120079E+02  0.66023193310E+02  0.10000000000E+01 0.  0.
<mgrwt>
<rscale>  0 0.12500143E+03</rscale>
<asrwt>0</asrwt>
<pdfrwt beam="2">  1        4 0.31228048E-02 0.12500143E+03</pdfrwt>
<pdfrwt beam="1">  1       -4 0.78181707E-01 0.12500143E+03</pdfrwt>
<totfact> 0.12292187E+03</totfact>
</mgrwt>
</event>
<event>
 5    1  0.1423270E-002  0.1250312E+03  0.7818608E-02  0.1235020E+00
          4   -1    0    0  501    0  0.00000000000E+00  0.00000000000E+00  0.16006640580E+03  0.16007144394E+03  0.12700000000E+01 0.  1.
         -4   -1    0    0    0  501 -0.00000000000E+00 -0.00000000000E+00 -0.24394191034E+02  0.24427227763E+02  0.12700000000E+01 0.  1.
         25    2    1    2    0    0  0.00000000000E+00  0.00000000000E+00  0.13567221477E+03  0.18449867171E+03  0.12503123610E+03 0.  0.
    9000005    1    3    3    0    0 -0.28301680620E+02 -0.19275698832E+02 -0.93300314545E+01  0.35504748673E+02  0.10000000000E+01 0.  0.
    9000005    1    3    3    0    0  0.28301680620E+02  0.19275698832E+02  0.14500224622E+03  0.14899392303E+03  0.10000000000E+01 0.  0.
<mgrwt>
<rscale>  0 0.12503124E+03</rscale>
<asrwt>0</asrwt>
<pdfrwt beam="1">  1        4 0.40021360E-01 0.12503124E+03</pdfrwt>
<pdfrwt beam="2">  1       -4 0.61033072E-02 0.12503124E+03</pdfrwt>
<totfact> 0.16949885E+03</totfact>
</mgrwt>
</event>
<event>
 5    1  0.1423270E-002  0.1250001E+03  0.7818608E-02  0.1235069E+00
          4   -1    0    0  501    0  0.00000000000E+00  0.00000000000E+00  0.68393102187E+02  0.68404892565E+02  0.12700000000E+01 0.  1.
         -4   -1    0    0    0  501 -0.00000000000E+00 -0.00000000000E+00 -0.57091031530E+02  0.57105155470E+02  0.12700000000E+01 0.  1.
         25    2    1    2    0    0  0.00000000000E+00  0.00000000000E+00  0.11302070657E+02  0.12551004803E+03  0.12500014143E+03 0.  0.
    9000005    1    3    3    0    0  0.50802154660E+02  0.56200447083E+01  0.41753444639E+02  0.66006014574E+02  0.10000000000E+01 0.  0.
    9000005    1    3    3    0    0 -0.50802154660E+02 -0.56200447083E+01 -0.30451373982E+02  0.59504033461E+02  0.10000000000E+01 0.  0.
<mgrwt>
<rscale>  0 0.12500014E+03</rscale>
<asrwt>0</asrwt>
<pdfrwt beam="1">  1        4 0.17101515E-01 0.12500014E+03</pdfrwt>
<pdfrwt beam="2">  1       -4 0.14275997E-01 0.12500014E+03</pdfrwt>
<totfact> 0.19807354E+03</totfact>
</mgrwt>
</event>
<event>
 5    1  0.1423270E-002  0.1250005E+03  0.7818608E-02  0.1235068E+00
          4   -1    0    0  501    0  0.00000000000E+00  0.00000000000E+00  0.44976407503E+02  0.44994334442E+02  0.12700000000E+01 0.  1.
         -4   -1    0    0    0  501 -0.00000000000E+00 -0.00000000000E+00 -0.86811959044E+02  0.86821248166E+02  0.12700000000E+01 0.  1.
         25    2    1    2    0    0  0.00000000000E+00  0.00000000000E+00 -0.41835551541E+02  0.13181558261E+03  0.12500053778E+03 0.  0.
    9000005    1    3    3    0    0  0.35148475479E+02 -0.23272366136E+02  0.27730533328E+02  0.50467819774E+02  0.10000000000E+01 0.  0.
    9000005    1    3    3    0    0 -0.35148475479E+02  0.23272366136E+02 -0.69566084869E+02  0.81347762834E+02  0.10000000000E+01 0.  0.
<mgrwt>
<rscale>  0 0.12500054E+03</rscale>
<asrwt>0</asrwt>
<pdfrwt beam="1">  1        4 0.11247504E-01 0.12500054E+03</pdfrwt>
<pdfrwt beam="2">  1       -4 0.21706392E-01 0.12500054E+03</pdfrwt>
<totfact> 0.19467022E+03</totfact>
</mgrwt>
</event>
<event>
 5    1  0.1423270E-002  0.1250001E+03  0.7818608E-02  0.1235069E+00
         -4   -1    0    0    0  501 -0.00000000000E+00  0.00000000000E+00  0.23239898604E+03  0.23240245613E+03  0.12700000000E+01 0. -1.
          4   -1    0    0  501    0  0.00000000000E+00 -0.00000000000E+00 -0.16780821569E+02  0.16828810788E+02  0.12700000000E+01 0. -1.
         25    2    1    2    0    0  0.00000000000E+00  0.00000000000E+00  0.21561816447E+03  0.24923126691E+03  0.12500012623E+03 0.  0.
    9000005    1    3    3    0    0 -0.45548623897E+02 -0.35189651487E+02  0.59285635761E+02  0.82636404316E+02  0.10000000000E+01 0.  0.
    9000005    1    3    3    0    0  0.45548623897E+02  0.35189651487E+02  0.15633252871E+03  0.16659486260E+03  0.10000000000E+01 0.  0.
<mgrwt>
<rscale>  0 0.12500013E+03</rscale>
<asrwt>0</asrwt>
<pdfrwt beam="2">  1        4 0.42016379E-02 0.12500013E+03</pdfrwt>
<pdfrwt beam="1">  1       -4 0.58106178E-01 0.12500013E+03</pdfrwt>
<totfact> 0.14523553E+03</totfact>
</mgrwt>
</event>
<event>
 5    1  0.1423270E-002  0.1249996E+03  0.7818608E-02  0.1235070E+00
          4   -1    0    0  501    0  0.00000000000E+00  0.00000000000E+00  0.33383745063E+02  0.33407893295E+02  0.12700000000E+01 0. -1.
         -4   -1    0    0    0  501 -0.00000000000E+00 -0.00000000000E+00 -0.11693984986E+03  0.11694674594E+03  0.12700000000E+01 0. -1.
         25    2    1    2    0    0  0.00000000000E+00  0.00000000000E+00 -0.83556104797E+02  0.15035463923E+03  0.12499957956E+03 0.  0.
    9000005    1    3    3    0    0 -0.24468791881E+02 -0.35896499130E+02 -0.95811510127E+02  0.10520516099E+03  0.10000000000E+01 0.  0.
    9000005    1    3    3    0    0  0.24468791881E+02  0.35896499130E+02  0.12255405330E+02  0.45149478244E+02  0.10000000000E+01 0.  0.
<mgrwt>
<rscale>  0 0.12499958E+03</rscale>
<asrwt>0</asrwt>
<pdfrwt beam="1">  1        4 0.83498171E-02 0.12499958E+03</pdfrwt>
<pdfrwt beam="2">  1       -4 0.29238842E-01 0.12499958E+03</pdfrwt>
<totfact> 0.18521538E+03</totfact>
</mgrwt>
</event>
<event>
 5    1  0.1423270E-002  0.1249942E+03  0.7818608E-02  0.1235078E+00
         -4   -1    0    0    0  501 -0.00000000000E+00  0.00000000000E+00  0.12236028799E+02  0.12301760068E+02  0.12700000000E+01 0. -1.
          4   -1    0    0  501    0  0.00000000000E+00 -0.00000000000E+00 -0.31829007591E+03  0.31829260960E+03  0.12700000000E+01 0. -1.
         25    2    1    2    0    0  0.00000000000E+00  0.00000000000E+00 -0.30605404711E+03  0.33059436967E+03  0.12499422987E+03 0.  0.
    9000005    1    3    3    0    0 -0.52305691565E+02 -0.13300346514E+02 -0.69719493112E+02  0.88173648599E+02  0.10000000000E+01 0.  0.
    9000005    1    3    3    0    0  0.52305691565E+02  0.13300346514E+02 -0.23633455400E+03  0.24242072107E+03  0.10000000000E+01 0.  0.
<mgrwt>
<rscale>  0 0.12499423E+03</rscale>
<asrwt>0</asrwt>
<pdfrwt beam="2">  1        4 0.79581025E-01 0.12499423E+03</pdfrwt>
<pdfrwt beam="1">  1       -4 0.30675414E-02 0.12499423E+03</pdfrwt>
<totfact> 0.12156540E+03</totfact>
</mgrwt>
</event>
<event>
 5    1  0.1423270E-002  0.1249982E+03  0.7818608E-02  0.1235072E+00
          4   -1    0    0  501    0  0.00000000000E+00  0.00000000000E+00  0.23218110055E+02  0.23252817776E+02  0.12700000000E+01 0.  1.
         -4   -1    0    0    0  501 -0.00000000000E+00 -0.00000000000E+00 -0.16807402915E+03  0.16807882726E+03  0.12700000000E+01 0.  1.
         25    2    1    2    0    0  0.00000000000E+00  0.00000000000E+00 -0.14485591909E+03  0.19133164504E+03  0.12499824438E+03 0.  0.
    9000005    1    3    3    0    0 -0.18950923023E+02  0.58516679156E+02 -0.89321022906E+02  0.10845544871E+03  0.10000000000E+01 0.  0.
    9000005    1    3    3    0    0  0.18950923023E+02 -0.58516679156E+02 -0.55534896188E+02  0.82876196326E+02  0.10000000000E+01 0.  0.
<mgrwt>
<rscale>  0 0.12499824E+03</rscale>
<asrwt>0</asrwt>
<pdfrwt beam="1">  1        4 0.58094662E-02 0.12499824E+03</pdfrwt>
<pdfrwt beam="2">  1       -4 0.42023442E-01 0.12499824E+03</pdfrwt>
<totfact> 0.16675801E+03</totfact>
</mgrwt>
</event>
<event>
 5    1  0.1423270E-002  0.1249956E+03  0.7818608E-02  0.1235076E+00
         -4   -1    0    0    0  501 -0.00000000000E+00  0.00000000000E+00  0.76893387875E+01  0.77935121087E+01  0.12700000000E+01 0. -1.
          4   -1    0    0  501    0  0.00000000000E+00 -0.00000000000E+00 -0.50445041711E+03  0.50445201578E+03  0.12700000000E+01 0. -1.
         25    2    1    2    0    0  0.00000000000E+00  0.00000000000E+00 -0.49676107832E+03  0.51224552789E+03  0.12499564754E+03 0.  0.
    9000005    1    3    3    0    0  0.19497455854E+02  0.32721410078E+02 -0.45139765016E+03  0.45300295808E+03  0.10000000000E+01 0.  0.
    9000005    1    3    3    0    0 -0.19497455854E+02 -0.32721410078E+02 -0.45363428163E+02  0.59242569804E+02  0.10000000000E+01 0.  0.
<mgrwt>
<rscale>  0 0.12499565E+03</rscale>
<asrwt>0</asrwt>
<pdfrwt beam="2">  1        4 0.12612571E+00 0.12499565E+03</pdfrwt>
<pdfrwt beam="1">  1       -4 0.19355579E-02 0.12499565E+03</pdfrwt>
<totfact> 0.85700022E+02</totfact>
</mgrwt>
</event>
<event>
 5    1  0.1423270E-002  0.1249918E+03  0.7818608E-02  0.1235082E+00
         -4   -1    0    0    0  501 -0.00000000000E+00  0.00000000000E+00  0.98267688636E+02  0.98275894959E+02  0.12700000000E+01 0.  1.
          4   -1    0    0  501    0  0.00000000000E+00 -0.00000000000E+00 -0.39725878471E+02  0.39746173656E+02  0.12700000000E+01 0.  1.
         25    2    1    2    0    0  0.00000000000E+00  0.00000000000E+00  0.58541810165E+02  0.13802206861E+03  0.12499179128E+03 0.  0.
    9000005    1    3    3    0    0  0.35871535373E+02  0.32038469742E+02  0.73323473245E+02  0.87695851225E+02  0.10000000000E+01 0.  0.
    9000005    1    3    3    0    0 -0.35871535373E+02 -0.32038469742E+02 -0.14781663080E+02  0.50326217390E+02  0.10000000000E+01 0.  0.
<mgrwt>
<rscale>  0 0.12499179E+03</rscale>
<asrwt>0</asrwt>
<pdfrwt beam="2">  1        4 0.99350324E-02 0.12499179E+03</pdfrwt>
<pdfrwt beam="1">  1       -4 0.24570485E-01 0.12499179E+03</pdfrwt>
<totfact> 0.19145657E+03</totfact>
</mgrwt>
</event>
<event>
 5    1  0.1423270E-002  0.1250011E+03  0.7818608E-02  0.1235068E+00
          4   -1    0    0  501    0  0.00000000000E+00  0.00000000000E+00  0.52863340434E+01  0.54367478899E+01  0.12700000000E+01 0.  1.
         -4   -1    0    0    0  501 -0.00000000000E+00 -0.00000000000E+00 -0.72843072624E+03  0.72843183334E+03  0.12700000000E+01 0.  1.
         25    2    1    2    0    0  0.00000000000E+00  0.00000000000E+00 -0.72314439220E+03  0.73386858123E+03  0.12500113023E+03 0.  0.
    9000005    1    3    3    0    0  0.36550579771E+02 -0.50605057684E+02 -0.37869257205E+03  0.38380448261E+03  0.10000000000E+01 0.  0.
    9000005    1    3    3    0    0 -0.36550579771E+02  0.50605057684E+02 -0.34445182014E+03  0.35006409862E+03  0.10000000000E+01 0.  0.
<mgrwt>
<rscale>  0 0.12500113E+03</rscale>
<asrwt>0</asrwt>
<pdfrwt beam="1">  1        4 0.13405261E-02 0.12500113E+03</pdfrwt>
<pdfrwt beam="2">  1       -4 0.18212628E+00 0.12500113E+03</pdfrwt>
<totfact> 0.58631790E+02</totfact>
</mgrwt>
</event>
<event>
 5    1  0.1423270E-002  0.1249993E+03  0.7818608E-02  0.1235070E+00
          4   -1    0    0  501    0  0.00000000000E+00  0.00000000000E+00  0.44107077879E+03  0.44107260718E+03  0.12700000000E+01 0. -1.
         -4   -1    0    0    0  501 -0.00000000000E+00 -0.00000000000E+00 -0.88087954004E+01  0.88998750781E+01  0.12700000000E+01 0. -1.
         25    2    1    2    0    0  0.00000000000E+00  0.00000000000E+00  0.43226198339E+03  0.44997248226E+03  0.12499925001E+03 0.  0.
    9000005    1    3    3    0    0 -0.13831950647E+02  0.55719283685E+02  0.12727773377E+03  0.13963016489E+03  0.10000000000E+01 0.  0.
    9000005    1    3    3    0    0  0.13831950647E+02 -0.55719283685E+02  0.30498424962E+03  0.31034231737E+03  0.10000000000E+01 0.  0.
<mgrwt>
<rscale>  0 0.12499925E+03</rscale>
<asrwt>0</asrwt>
<pdfrwt beam="1">  1        4 0.11027930E+00 0.12499925E+03</pdfrwt>
<pdfrwt beam="2">  1       -4 0.22138125E-02 0.12499925E+03</pdfrwt>
<totfact> 0.96023533E+02</totfact>
</mgrwt>
</event>
<event>
 5    1  0.1423270E-002  0.1249986E+03  0.7818608E-02  0.1235071E+00
         -4   -1    0    0    0  501 -0.00000000000E+00  0.00000000000E+00  0.48406971351E+02  0.48423628276E+02  0.12700000000E+01 0.  1.
          4   -1    0    0  501    0  0.00000000000E+00 -0.00000000000E+00 -0.80658714081E+02  0.80668711761E+02  0.12700000000E+01 0.  1.
         25    2    1    2    0    0  0.00000000000E+00  0.00000000000E+00 -0.32251742730E+02  0.12909234004E+03  0.12499862938E+03 0.  0.
    9000005    1    3    3    0    0 -0.17883763022E+02 -0.59148351148E+02 -0.65036602599E+01  0.62142208041E+02  0.10000000000E+01 0.  0.
    9000005    1    3    3    0    0  0.17883763022E+02  0.59148351148E+02 -0.25748082470E+02  0.66950131996E+02  0.10000000000E+01 0.  0.
<mgrwt>
<rscale>  0 0.12499863E+03</rscale>
<asrwt>0</asrwt>
<pdfrwt beam="2">  1        4 0.20168010E-01 0.12499863E+03</pdfrwt>
<pdfrwt beam="1">  1       -4 0.12105075E-01 0.12499863E+03</pdfrwt>
<totfact> 0.19613932E+03</totfact>
</mgrwt>
</event>
<event>
 5    1  0.1423270E-002  0.1249964E+03  0.7818608E-02  0.1235075E+00
         -4   -1    0    0    0  501 -0.00000000000E+00  0.00000000000E+00  0.67053729512E+01  0.68245825084E+01  0.12700000000E+01 0.  1.
          4   -1    0    0  501    0  0.00000000000E+00 -0.00000000000E+00 -0.57726891149E+03  0.57727030850E+03  0.12700000000E+01 0.  1.
         25    2    1    2    0    0  0.00000000000E+00  0.00000000000E+00 -0.57056353854E+03  0.58409489101E+03  0.12499636070E+03 0.  0.
    9000005    1    3    3    0    0  0.18537011994E+02  0.31858787980E+02 -0.49477858862E+02  0.61706253353E+02  0.10000000000E+01 0.  0.
    9000005    1    3    3    0    0 -0.18537011994E+02 -0.31858787980E+02 -0.52108567968E+03  0.52238863765E+03  0.10000000000E+01 0.  0.
<mgrwt>
<rscale>  0 0.12499636E+03</rscale>
<asrwt>0</asrwt>
<pdfrwt beam="2">  1        4 0.14433214E+00 0.12499636E+03</pdfrwt>
<pdfrwt beam="1">  1       -4 0.16914210E-02 0.12499636E+03</pdfrwt>
<totfact> 0.75547570E+02</totfact>
</mgrwt>
</event>
<event>
 5    1  0.1423270E-002  0.1250081E+03  0.7818608E-02  0.1235057E+00
          4   -1    0    0  501    0  0.00000000000E+00  0.00000000000E+00  0.15852504138E+04  0.15852509225E+04  0.12700000000E+01 0.  1.
         -4   -1    0    0    0  501 -0.00000000000E+00 -0.00000000000E+00 -0.23002796121E+01  0.26275818339E+01  0.12700000000E+01 0.  1.
         25    2    1    2    0    0  0.00000000000E+00  0.00000000000E+00  0.15829501342E+04  0.15878785043E+04  0.12500806880E+03 0.  0.
    9000005    1    3    3    0    0  0.46730599487E+02  0.41343298710E+02  0.83680796441E+03  0.83913144773E+03  0.10000000000E+01 0.  0.
    9000005    1    3    3    0    0 -0.46730599487E+02 -0.41343298710E+02  0.74614216975E+03  0.74874705659E+03  0.10000000000E+01 0.  0.
<mgrwt>
<rscale>  0 0.12500807E+03</rscale>
<asrwt>0</asrwt>
<pdfrwt beam="1">  1        4 0.39635362E+00 0.12500807E+03</pdfrwt>
<pdfrwt beam="2">  1       -4 0.61604621E-03 0.12500807E+03</pdfrwt>
<totfact> 0.98311473E+01</totfact>
</mgrwt>
</event>
<event>
 5    1  0.1423270E-002  0.1249900E+03  0.7818608E-02  0.1235085E+00
         -4   -1    0    0    0  501 -0.00000000000E+00  0.00000000000E+00  0.10557782539E+03  0.10558546355E+03  0.12700000000E+01 0. -1.
          4   -1    0    0  501    0  0.00000000000E+00 -0.00000000000E+00 -0.36972957114E+02  0.36994762572E+02  0.12700000000E+01 0. -1.
         25    2    1    2    0    0  0.00000000000E+00  0.00000000000E+00  0.68604868272E+02  0.14258022612E+03  0.12498997132E+03 0.  0.
    9000005    1    3    3    0    0  0.12495029009E+02  0.57305213835E+02  0.97141408922E+01  0.59459043180E+02  0.10000000000E+01 0.  0.
    9000005    1    3    3    0    0 -0.12495029009E+02 -0.57305213835E+02  0.58890727380E+02  0.83121182943E+02  0.10000000000E+01 0.  0.
<mgrwt>
<rscale>  0 0.12498997E+03</rscale>
<asrwt>0</asrwt>
<pdfrwt beam="2">  1        4 0.92469198E-02 0.12498997E+03</pdfrwt>
<pdfrwt beam="1">  1       -4 0.26398137E-01 0.12498997E+03</pdfrwt>
<totfact> 0.18913532E+03</totfact>
</mgrwt>
</event>
<event>
 5    1  0.1423270E-002  0.1249965E+03  0.7818608E-02  0.1235075E+00
         -4   -1    0    0    0  501 -0.00000000000E+00  0.00000000000E+00  0.37732915024E+02  0.37754281561E+02  0.12700000000E+01 0. -1.
          4   -1    0    0  501    0  0.00000000000E+00 -0.00000000000E+00 -0.10346329221E+03  0.10347108647E+03  0.12700000000E+01 0. -1.
         25    2    1    2    0    0  0.00000000000E+00  0.00000000000E+00 -0.65730377187E+02  0.14122536803E+03  0.12499648831E+03 0.  0.
    9000005    1    3    3    0    0  0.10363897863E+02 -0.13950099620E+02 -0.10068364959E+03  0.10217736027E+03  0.10000000000E+01 0.  0.
    9000005    1    3    3    0    0 -0.10363897863E+02  0.13950099620E+02  0.34953272400E+02  0.39048007757E+02  0.10000000000E+01 0.  0.
<mgrwt>
<rscale>  0 0.12499649E+03</rscale>
<asrwt>0</asrwt>
<pdfrwt beam="2">  1        4 0.25869468E-01 0.12499649E+03</pdfrwt>
<pdfrwt beam="1">  1       -4 0.94368741E-02 0.12499649E+03</pdfrwt>
<totfact> 0.18979383E+03</totfact>
</mgrwt>
</event>
<event>
 5    1  0.1423270E-002  0.1250202E+03  0.7818608E-02  0.1235038E+00
          4   -1    0    0  501    0  0.00000000000E+00  0.00000000000E+00  0.13278405321E+03  0.13279012647E+03  0.12700000000E+01 0. -1.
         -4   -1    0    0    0  501 -0.00000000000E+00 -0.00000000000E+00 -0.29407131520E+02  0.29434542365E+02  0.12700000000E+01 0. -1.
         25    2    1    2    0    0  0.00000000000E+00  0.00000000000E+00  0.10337692169E+03  0.16222466883E+03  0.12502021932E+03 0.  0.
    9000005    1    3    3    0    0  0.13322370745E+02 -0.34595376238E+02  0.11698416795E+03  0.12272172248E+03  0.10000000000E+01 0.  0.
    9000005    1    3    3    0    0 -0.13322370745E+02  0.34595376238E+02 -0.13607246258E+02  0.39502946346E+02  0.10000000000E+01 0.  0.
<mgrwt>
<rscale>  0 0.12502022E+03</rscale>
<asrwt>0</asrwt>
<pdfrwt beam="1">  1        4 0.33200198E-01 0.12502022E+03</pdfrwt>
<pdfrwt beam="2">  1       -4 0.73559686E-02 0.12502022E+03</pdfrwt>
<totfact> 0.17945126E+03</totfact>
</mgrwt>
</event>
<event>
 5    1  0.1423270E-002  0.1249955E+03  0.7818608E-02  0.1235076E+00
          4   -1    0    0  501    0  0.00000000000E+00  0.00000000000E+00  0.15443445953E+03  0.15443968140E+03  0.12700000000E+01 0.  1.
         -4   -1    0    0    0  501 -0.00000000000E+00 -0.00000000000E+00 -0.25270478605E+02  0.25302371211E+02  0.12700000000E+01 0.  1.
         25    2    1    2    0    0  0.00000000000E+00  0.00000000000E+00  0.12916398093E+03  0.17974205261E+03  0.12499548595E+03 0.  0.
    9000005    1    3    3    0    0  0.13988746587E+02  0.38648730549E+02 -0.31037174994E+01  0.41231571234E+02  0.10000000000E+01 0.  0.
    9000005    1    3    3    0    0 -0.13988746587E+02 -0.38648730549E+02  0.13226769843E+03  0.13851048138E+03  0.10000000000E+01 0.  0.
<mgrwt>
<rscale>  0 0.12499549E+03</rscale>
<asrwt>0</asrwt>
<pdfrwt beam="1">  1        4 0.38613253E-01 0.12499549E+03</pdfrwt>
<pdfrwt beam="2">  1       -4 0.63222591E-02 0.12499549E+03</pdfrwt>
<totfact> 0.17168181E+03</totfact>
</mgrwt>
</event>
<event>
 5    1  0.1423270E-002  0.1250008E+03  0.7818608E-02  0.1235068E+00
         -4   -1    0    0    0  501 -0.00000000000E+00  0.00000000000E+00  0.14246829975E+03  0.14247396019E+03  0.12700000000E+01 0.  1.
          4   -1    0    0  501    0  0.00000000000E+00 -0.00000000000E+00 -0.27397825327E+02  0.27427244351E+02  0.12700000000E+01 0.  1.
         25    2    1    2    0    0  0.00000000000E+00  0.00000000000E+00  0.11507047442E+03  0.16990120454E+03  0.12500082088E+03 0.  0.
    9000005    1    3    3    0    0 -0.60390472961E+01  0.29614330496E+02  0.13188019430E+03  0.13530286144E+03  0.10000000000E+01 0.  0.
    9000005    1    3    3    0    0  0.60390472961E+01 -0.29614330496E+02 -0.16809719886E+02  0.34598343105E+02  0.10000000000E+01 0.  0.
<mgrwt>
<rscale>  0 0.12500082E+03</rscale>
<asrwt>0</asrwt>
<pdfrwt beam="2">  1        4 0.68538413E-02 0.12500082E+03</pdfrwt>
<pdfrwt beam="1">  1       -4 0.35621460E-01 0.12500082E+03</pdfrwt>
<totfact> 0.17601169E+03</totfact>
</mgrwt>
</event>
<event>
 5    1  0.1423270E-002  0.1249951E+03  0.7818608E-02  0.1235077E+00
          4   -1    0    0  501    0  0.00000000000E+00  0.00000000000E+00  0.30540584943E+02  0.30566979384E+02  0.12700000000E+01 0.  1.
         -4   -1    0    0    0  501 -0.00000000000E+00 -0.00000000000E+00 -0.12780882400E+03  0.12781513366E+03  0.12700000000E+01 0.  1.
         25    2    1    2    0    0  0.00000000000E+00  0.00000000000E+00 -0.97268239061E+02  0.15838211305E+03  0.12499513352E+03 0.  0.
    9000005    1    3    3    0    0  0.29301789658E+02  0.50027836305E+02 -0.19092153328E+02  0.61048256332E+02  0.10000000000E+01 0.  0.
    9000005    1    3    3    0    0 -0.29301789658E+02 -0.50027836305E+02 -0.78176085733E+02  0.97333856715E+02  0.10000000000E+01 0.  0.
<mgrwt>
<rscale>  0 0.12499513E+03</rscale>
<asrwt>0</asrwt>
<pdfrwt beam="1">  1        4 0.76392346E-02 0.12499513E+03</pdfrwt>
<pdfrwt beam="2">  1       -4 0.31956293E-01 0.12499513E+03</pdfrwt>
<totfact> 0.18136213E+03</totfact>
</mgrwt>
</event>
<event>
 5    1  0.1423270E-002  0.1249996E+03  0.7818608E-02  0.1235070E+00
          4   -1    0    0  501    0  0.00000000000E+00  0.00000000000E+00  0.33250347538E+02  0.33274592581E+02  0.12700000000E+01 0. -1.
         -4   -1    0    0    0  501 -0.00000000000E+00 -0.00000000000E+00 -0.11740876136E+03  0.11741562990E+03  0.12700000000E+01 0. -1.
         25    2    1    2    0    0  0.00000000000E+00  0.00000000000E+00 -0.84158413822E+02  0.15069022248E+03  0.12499961813E+03 0.  0.
    9000005    1    3    3    0    0  0.45338702637E+02  0.37965746333E+02 -0.17721915265E+02  0.61741899324E+02  0.10000000000E+01 0.  0.
    9000005    1    3    3    0    0 -0.45338702637E+02 -0.37965746333E+02 -0.66436498557E+02  0.88948323155E+02  0.10000000000E+01 0.  0.
<mgrwt>
<rscale>  0 0.12499962E+03</rscale>
<asrwt>0</asrwt>
<pdfrwt beam="1">  1        4 0.83164764E-02 0.12499962E+03</pdfrwt>
<pdfrwt beam="2">  1       -4 0.29356079E-01 0.12499962E+03</pdfrwt>
<totfact> 0.18505059E+03</totfact>
</mgrwt>
</event>
<event>
 5    1  0.1423270E-002  0.1250003E+03  0.7818608E-02  0.1235069E+00
          4   -1    0    0  501    0  0.00000000000E+00  0.00000000000E+00  0.14513818860E+02  0.14569277192E+02  0.12700000000E+01 0.  1.
         -4   -1    0    0    0  501 -0.00000000000E+00 -0.00000000000E+00 -0.26857124757E+03  0.26857425029E+03  0.12700000000E+01 0.  1.
         25    2    1    2    0    0  0.00000000000E+00  0.00000000000E+00 -0.25405742871E+03  0.28314352748E+03  0.12500032030E+03 0.  0.
    9000005    1    3    3    0    0  0.58618775855E+02  0.11824307278E+02 -0.85924343024E+02  0.10468986508E+03  0.10000000000E+01 0.  0.
    9000005    1    3    3    0    0 -0.58618775855E+02 -0.11824307278E+02 -0.16813308568E+03  0.17845366241E+03  0.10000000000E+01 0.  0.
<mgrwt>
<rscale>  0 0.12500032E+03</rscale>
<asrwt>0</asrwt>
<pdfrwt beam="1">  1        4 0.36357632E-02 0.12500032E+03</pdfrwt>
<pdfrwt beam="2">  1       -4 0.67150103E-01 0.12500032E+03</pdfrwt>
<totfact> 0.13456900E+03</totfact>
</mgrwt>
</event>
<event>
 5    1  0.1423270E-002  0.1249936E+03  0.7818608E-02  0.1235079E+00
          4   -1    0    0  501    0  0.00000000000E+00  0.00000000000E+00  0.91714280572E+01  0.92589412250E+01  0.12700000000E+01 0. -1.
         -4   -1    0    0    0  501 -0.00000000000E+00 -0.00000000000E+00 -0.42376075221E+03  0.42376265528E+03  0.12700000000E+01 0. -1.
         25    2    1    2    0    0  0.00000000000E+00  0.00000000000E+00 -0.41458932415E+03  0.43302159650E+03  0.12499358120E+03 0.  0.
    9000005    1    3    3    0    0  0.88562168400E+01  0.32487000187E+02 -0.38965944608E+03  0.39111292702E+03  0.10000000000E+01 0.  0.
    9000005    1    3    3    0    0 -0.88562168400E+01 -0.32487000187E+02 -0.24929878065E+02  0.41908669488E+02  0.10000000000E+01 0.  0.
<mgrwt>
<rscale>  0 0.12499358E+03</rscale>
<asrwt>0</asrwt>
<pdfrwt beam="1">  1        4 0.23040355E-02 0.12499358E+03</pdfrwt>
<pdfrwt beam="2">  1       -4 0.10595130E+00 0.12499358E+03</pdfrwt>
<totfact> 0.99161518E+02</totfact>
</mgrwt>
</event>
<event>
 5    1  0.1423270E-002  0.1250024E+03  0.7818608E-02  0.1235066E+00
          4   -1    0    0  501    0  0.00000000000E+00  0.00000000000E+00  0.18119683902E+03  0.18120128965E+03  0.12700000000E+01 0.  1.
         -4   -1    0    0    0  501 -0.00000000000E+00 -0.00000000000E+00 -0.21535451462E+02  0.21572866515E+02  0.12700000000E+01 0.  1.
         25    2    1    2    0    0  0.00000000000E+00  0.00000000000E+00  0.15966138756E+03  0.20277415617E+03  0.12500239890E+03 0.  0.
    9000005    1    3    3    0    0  0.44564654062E+02  0.35471236337E+02  0.38119264377E+02  0.68544112188E+02  0.10000000000E+01 0.  0.
    9000005    1    3    3    0    0 -0.44564654062E+02 -0.35471236337E+02  0.12154212318E+03  0.13423004398E+03  0.10000000000E+01 0.  0.
<mgrwt>
<rscale>  0 0.12500240E+03</rscale>
<asrwt>0</asrwt>
<pdfrwt beam="1">  1        4 0.45304443E-01 0.12500240E+03</pdfrwt>
<pdfrwt beam="2">  1       -4 0.53890961E-02 0.12500240E+03</pdfrwt>
<totfact> 0.16210660E+03</totfact>
</mgrwt>
</event>
<event>
 5    1  0.1423270E-002  0.1250005E+03  0.7818608E-02  0.1235068E+00
         -4   -1    0    0    0  501 -0.00000000000E+00  0.00000000000E+00  0.26201616964E+03  0.26201924748E+03  0.12700000000E+01 0. -1.
          4   -1    0    0  501    0  0.00000000000E+00 -0.00000000000E+00 -0.14878333006E+02  0.14932437612E+02  0.12700000000E+01 0. -1.
         25    2    1    2    0    0  0.00000000000E+00  0.00000000000E+00  0.24713783663E+03  0.27695168510E+03  0.12500050233E+03 0.  0.
    9000005    1    3    3    0    0  0.61630621831E+02  0.56699877415E+01  0.10440693742E+03  0.12137664887E+03  0.10000000000E+01 0.  0.
    9000005    1    3    3    0    0 -0.61630621831E+02 -0.56699877415E+01  0.14273089921E+03  0.15557503623E+03  0.10000000000E+01 0.  0.
<mgrwt>
<rscale>  0 0.12500050E+03</rscale>
<asrwt>0</asrwt>
<pdfrwt beam="2">  1        4 0.37267310E-02 0.12500050E+03</pdfrwt>
<pdfrwt beam="1">  1       -4 0.65511192E-01 0.12500050E+03</pdfrwt>
<totfact> 0.13642378E+03</totfact>
</mgrwt>
</event>
<event>
 5    1  0.1423270E-002  0.1250042E+03  0.7818608E-02  0.1235063E+00
         -4   -1    0    0    0  501 -0.00000000000E+00  0.00000000000E+00  0.59579756693E+02  0.59593290794E+02  0.12700000000E+01 0. -1.
          4   -1    0    0  501    0  0.00000000000E+00 -0.00000000000E+00 -0.65540699901E+02  0.65553003315E+02  0.12700000000E+01 0. -1.
         25    2    1    2    0    0  0.00000000000E+00  0.00000000000E+00 -0.59609432081E+01  0.12514629411E+03  0.12500424827E+03 0.  0.
    9000005    1    3    3    0    0  0.15475179455E+02  0.86736612589E+01  0.57010921424E+02  0.59715649041E+02  0.10000000000E+01 0.  0.
    9000005    1    3    3    0    0 -0.15475179455E+02 -0.86736612589E+01 -0.62971864632E+02  0.65430645068E+02  0.10000000000E+01 0.  0.
<mgrwt>
<rscale>  0 0.12500425E+03</rscale>
<asrwt>0</asrwt>
<pdfrwt beam="2">  1        4 0.16388405E-01 0.12500425E+03</pdfrwt>
<pdfrwt beam="1">  1       -4 0.14898169E-01 0.12500425E+03</pdfrwt>
<totfact> 0.19825153E+03</totfact>
</mgrwt>
</event>
<event>
 5    1  0.1423270E-002  0.1249962E+03  0.7818608E-02  0.1235075E+00
         -4   -1    0    0    0  501 -0.00000000000E+00  0.00000000000E+00  0.10135426964E+03  0.10136222607E+03  0.12700000000E+01 0. -1.
          4   -1    0    0  501    0  0.00000000000E+00 -0.00000000000E+00 -0.38518293394E+02  0.38539224512E+02  0.12700000000E+01 0. -1.
         25    2    1    2    0    0  0.00000000000E+00  0.00000000000E+00  0.62835976244E+02  0.13990145058E+03  0.12499622380E+03 0.  0.
    9000005    1    3    3    0    0 -0.23049770714E+02 -0.25009136084E+02 -0.27257220416E+02  0.43597074242E+02  0.10000000000E+01 0.  0.
    9000005    1    3    3    0    0  0.23049770714E+02  0.25009136084E+02  0.90093196659E+02  0.96304376339E+02  0.10000000000E+01 0.  0.
<mgrwt>
<rscale>  0 0.12499622E+03</rscale>
<asrwt>0</asrwt>
<pdfrwt beam="2">  1        4 0.96331844E-02 0.12499622E+03</pdfrwt>
<pdfrwt beam="1">  1       -4 0.25342178E-01 0.12499622E+03</pdfrwt>
<totfact> 0.19047062E+03</totfact>
</mgrwt>
</event>
<event>
 5    1  0.1423270E-002  0.1250014E+03  0.7818608E-02  0.1235067E+00
          4   -1    0    0  501    0  0.00000000000E+00  0.00000000000E+00  0.12743915264E+03  0.12744548060E+03  0.12700000000E+01 0.  1.
         -4   -1    0    0    0  501 -0.00000000000E+00 -0.00000000000E+00 -0.30632313596E+02  0.30658629066E+02  0.12700000000E+01 0.  1.
         25    2    1    2    0    0  0.00000000000E+00  0.00000000000E+00  0.96806839047E+02  0.15810410967E+03  0.12500138163E+03 0.  0.
    9000005    1    3    3    0    0 -0.29338003703E+02 -0.90774812940E+00 -0.21377383945E+02  0.36325404503E+02  0.10000000000E+01 0.  0.
    9000005    1    3    3    0    0  0.29338003703E+02  0.90774812940E+00  0.11818422299E+03  0.12177870517E+03  0.10000000000E+01 0.  0.
<mgrwt>
<rscale>  0 0.12500138E+03</rscale>
<asrwt>0</asrwt>
<pdfrwt beam="1">  1        4 0.31863868E-01 0.12500138E+03</pdfrwt>
<pdfrwt beam="2">  1       -4 0.76621589E-02 0.12500138E+03</pdfrwt>
<totfact> 0.18146761E+03</totfact>
</mgrwt>
</event>
<event>
 5    1  0.1423270E-002  0.1249984E+03  0.7818608E-02  0.1235072E+00
         -4   -1    0    0    0  501 -0.00000000000E+00  0.00000000000E+00  0.38746276267E+03  0.38746484402E+03  0.12700000000E+01 0. -1.
          4   -1    0    0  501    0  0.00000000000E+00 -0.00000000000E+00 -0.10039247970E+02  0.10119258856E+02  0.12700000000E+01 0. -1.
         25    2    1    2    0    0  0.00000000000E+00  0.00000000000E+00  0.37742351470E+03  0.39758410288E+03  0.12499843765E+03 0.  0.
    9000005    1    3    3    0    0 -0.45425536128E+02  0.17601544520E+02  0.64221956214E+02  0.80614845792E+02  0.10000000000E+01 0.  0.
    9000005    1    3    3    0    0  0.45425536128E+02 -0.17601544520E+02  0.31320155849E+03  0.31696925709E+03  0.10000000000E+01 0.  0.
<mgrwt>
<rscale>  0 0.12499844E+03</rscale>
<asrwt>0</asrwt>
<pdfrwt beam="2">  1        4 0.25200735E-02 0.12499844E+03</pdfrwt>
<pdfrwt beam="1">  1       -4 0.96875951E-01 0.12499844E+03</pdfrwt>
<totfact> 0.10619511E+03</totfact>
</mgrwt>
</event>
<event>
 4    1  0.1423270E-002  0.1246600E+03  0.7818608E-02  0.1235602E+00
         -4   -1    0    0    0  501 -0.00000000000E+00  0.00000000000E+00  0.15092392313E+02  0.15145732262E+02  0.12700000000E+01 0.  1.
          4   -1    0    0  501    0  0.00000000000E+00 -0.00000000000E+00 -0.25690718473E+03  0.25691032378E+03  0.12700000000E+01 0.  1.
    9000005    1    1    2    0    0 -0.51272573074E+02 -0.12439603739E+02 -0.19330226882E+03  0.20037561634E+03  0.10000000000E+01 0.  0.
    9000005    1    1    2    0    0  0.51272573074E+02  0.12439603739E+02 -0.48512523590E+02  0.71680439701E+02  0.10000000000E+01 0.  0.
<mgrwt>
<rscale>  0 0.12465995E+03</rscale>
<asrwt>0</asrwt>
<pdfrwt beam="2">  1        4 0.64233842E-01 0.12465995E+03</pdfrwt>
<pdfrwt beam="1">  1       -4 0.37801588E-02 0.12465995E+03</pdfrwt>
<totfact> 0.13900262E+03</totfact>
</mgrwt>
</event>
<event>
 5    1  0.1423270E-002  0.1249988E+03  0.7818608E-02  0.1235071E+00
         -4   -1    0    0    0  501 -0.00000000000E+00  0.00000000000E+00  0.92082346926E+02  0.92091104431E+02  0.12700000000E+01 0.  1.
          4   -1    0    0  501    0  0.00000000000E+00 -0.00000000000E+00 -0.42400195738E+02  0.42419211433E+02  0.12700000000E+01 0.  1.
         25    2    1    2    0    0  0.00000000000E+00  0.00000000000E+00  0.49682151188E+02  0.13451031586E+03  0.12499883570E+03 0.  0.
    9000005    1    3    3    0    0 -0.50507866597E+02  0.21723646234E+02 -0.71211527455E+01  0.55449726873E+02  0.10000000000E+01 0.  0.
    9000005    1    3    3    0    0  0.50507866597E+02 -0.21723646234E+02  0.56803303934E+02  0.79060588991E+02  0.10000000000E+01 0.  0.
<mgrwt>
<rscale>  0 0.12499884E+03</rscale>
<asrwt>0</asrwt>
<pdfrwt beam="2">  1        4 0.10603521E-01 0.12499884E+03</pdfrwt>
<pdfrwt beam="1">  1       -4 0.23024058E-01 0.12499884E+03</pdfrwt>
<totfact> 0.19325342E+03</totfact>
</mgrwt>
</event>
<event>
 5    1  0.1423270E-002  0.1250032E+03  0.7818608E-02  0.1235064E+00
          4   -1    0    0  501    0  0.00000000000E+00  0.00000000000E+00  0.86878605722E+01  0.87801948339E+01  0.12700000000E+01 0. -1.
         -4   -1    0    0    0  501 -0.00000000000E+00 -0.00000000000E+00 -0.44717477553E+03  0.44717657896E+03  0.12700000000E+01 0. -1.
         25    2    1    2    0    0  0.00000000000E+00  0.00000000000E+00 -0.43848691496E+03  0.45595677380E+03  0.12500321988E+03 0.  0.
    9000005    1    3    3    0    0 -0.19692715258E+02 -0.44009704589E+02 -0.74219374799E+02  0.88510862202E+02  0.10000000000E+01 0.  0.
    9000005    1    3    3    0    0  0.19692715258E+02  0.44009704589E+02 -0.36426754016E+03  0.36744591159E+03  0.10000000000E+01 0.  0.
<mgrwt>
<rscale>  0 0.12500322E+03</rscale>
<asrwt>0</asrwt>
<pdfrwt beam="1">  1        4 0.21837339E-02 0.12500322E+03</pdfrwt>
<pdfrwt beam="2">  1       -4 0.11180538E+00 0.12500322E+03</pdfrwt>
<totfact> 0.94950366E+02</totfact>
</mgrwt>
</event>
<event>
 5    1  0.1423270E-002  0.1250000E+03  0.7818608E-02  0.1235069E+00
         -4   -1    0    0    0  501 -0.00000000000E+00  0.00000000000E+00  0.23824222863E+02  0.23858048852E+02  0.12700000000E+01 0.  1.
          4   -1    0    0  501    0  0.00000000000E+00 -0.00000000000E+00 -0.16380866369E+03  0.16381358673E+03  0.12700000000E+01 0.  1.
         25    2    1    2    0    0  0.00000000000E+00  0.00000000000E+00 -0.13998444082E+03  0.18767163559E+03  0.12499999652E+03 0.  0.
    9000005    1    3    3    0    0 -0.52996785403E+02 -0.32388698333E+02 -0.59637888767E+02  0.86112512559E+02  0.10000000000E+01 0.  0.
    9000005    1    3    3    0    0  0.52996785403E+02  0.32388698333E+02 -0.80346552055E+02  0.10155912303E+03  0.10000000000E+01 0.  0.
<mgrwt>
<rscale>  0 0.12500000E+03</rscale>
<asrwt>0</asrwt>
<pdfrwt beam="2">  1        4 0.40957006E-01 0.12500000E+03</pdfrwt>
<pdfrwt beam="1">  1       -4 0.59608998E-02 0.12500000E+03</pdfrwt>
<totfact> 0.16827891E+03</totfact>
</mgrwt>
</event>
<event>
 5    1  0.1423270E-002  0.1250007E+03  0.7818608E-02  0.1235068E+00
         -4   -1    0    0    0  501 -0.00000000000E+00  0.00000000000E+00  0.54958276778E+02  0.54972948679E+02  0.12700000000E+01 0.  1.
          4   -1    0    0  501    0  0.00000000000E+00 -0.00000000000E+00 -0.71047591297E+02  0.71058941233E+02  0.12700000000E+01 0.  1.
         25    2    1    2    0    0  0.00000000000E+00  0.00000000000E+00 -0.16089314519E+02  0.12603188991E+03  0.12500068493E+03 0.  0.
    9000005    1    3    3    0    0 -0.46324532276E+01  0.59619923751E+02  0.10251611102E+02  0.60680231222E+02  0.10000000000E+01 0.  0.
    9000005    1    3    3    0    0  0.46324532276E+01 -0.59619923751E+02 -0.26340925621E+02  0.65351658690E+02  0.10000000000E+01 0.  0.
<mgrwt>
<rscale>  0 0.12500068E+03</rscale>
<asrwt>0</asrwt>
<pdfrwt beam="2">  1        4 0.17765151E-01 0.12500068E+03</pdfrwt>
<pdfrwt beam="1">  1       -4 0.13742822E-01 0.12500068E+03</pdfrwt>
<totfact> 0.19778880E+03</totfact>
</mgrwt>
</event>
<event>
 5    1  0.1423270E-002  0.1249979E+03  0.7818608E-02  0.1235073E+00
         -4   -1    0    0    0  501 -0.00000000000E+00  0.00000000000E+00  0.36961654403E+02  0.36983466525E+02  0.12700000000E+01 0.  1.
          4   -1    0    0  501    0  0.00000000000E+00 -0.00000000000E+00 -0.10562354686E+03  0.10563118172E+03  0.12700000000E+01 0.  1.
         25    2    1    2    0    0  0.00000000000E+00  0.00000000000E+00 -0.68661892454E+02  0.14261464824E+03  0.12499792965E+03 0.  0.
    9000005    1    3    3    0    0 -0.19055862609E+01 -0.61364736631E+02 -0.21032385751E+02  0.64904725646E+02  0.10000000000E+01 0.  0.
    9000005    1    3    3    0    0  0.19055862609E+01  0.61364736631E+02 -0.47629506704E+02  0.77709922595E+02  0.10000000000E+01 0.  0.
<mgrwt>
<rscale>  0 0.12499793E+03</rscale>
<asrwt>0</asrwt>
<pdfrwt beam="2">  1        4 0.26409567E-01 0.12499793E+03</pdfrwt>
<pdfrwt beam="1">  1       -4 0.92440947E-02 0.12499793E+03</pdfrwt>
<totfact> 0.18908283E+03</totfact>
</mgrwt>
</event>
<event>
 5    1  0.1423270E-002  0.1250011E+03  0.7818608E-02  0.1235068E+00
          4   -1    0    0  501    0  0.00000000000E+00  0.00000000000E+00  0.54246208051E+02  0.54261072492E+02  0.12700000000E+01 0. -1.
         -4   -1    0    0    0  501 -0.00000000000E+00 -0.00000000000E+00 -0.71980560162E+02  0.71991763010E+02  0.12700000000E+01 0. -1.
         25    2    1    2    0    0  0.00000000000E+00  0.00000000000E+00 -0.17734352111E+02  0.12625283550E+03  0.12500108490E+03 0.  0.
    9000005    1    3    3    0    0  0.19711223213E+02  0.52677022928E+02  0.18643733175E+02  0.59262043939E+02  0.10000000000E+01 0.  0.
    9000005    1    3    3    0    0 -0.19711223213E+02 -0.52677022928E+02 -0.36378085286E+02  0.66990791563E+02  0.10000000000E+01 0.  0.
<mgrwt>
<rscale>  0 0.12500108E+03</rscale>
<asrwt>0</asrwt>
<pdfrwt beam="1">  1        4 0.13564810E-01 0.12500108E+03</pdfrwt>
<pdfrwt beam="2">  1       -4 0.17998398E-01 0.12500108E+03</pdfrwt>
<totfact> 0.19766762E+03</totfact>
</mgrwt>
</event>
<event>
 4    1  0.1423270E-002  0.1249286E+03  0.7818608E-02  0.1235181E+00
          4   -1    0    0  501    0  0.00000000000E+00  0.00000000000E+00  0.71583867558E+02  0.71595132478E+02  0.12700000000E+01 0.  1.
         -4   -1    0    0    0  501 -0.00000000000E+00 -0.00000000000E+00 -0.54483617399E+02  0.54498417086E+02  0.12700000000E+01 0.  1.
    9000005    1    1    2    0    0 -0.57675846681E+02  0.18214258156E+02 -0.71684225810E+01  0.60915094786E+02  0.10000000000E+01 0.  0.
    9000005    1    1    2    0    0  0.57675846681E+02 -0.18214258156E+02  0.24268672740E+02  0.65178454777E+02  0.10000000000E+01 0.  0.
<mgrwt>
<rscale>  0 0.12492864E+03</rscale>
<asrwt>0</asrwt>
<pdfrwt beam="1">  1        4 0.17899225E-01 0.12492864E+03</pdfrwt>
<pdfrwt beam="2">  1       -4 0.13624163E-01 0.12492864E+03</pdfrwt>
<totfact> 0.19808912E+03</totfact>
</mgrwt>
</event>
<event>
 5    1  0.1423270E-002  0.1250055E+03  0.7818608E-02  0.1235061E+00
         -4   -1    0    0    0  501 -0.00000000000E+00  0.00000000000E+00  0.36180336240E+01  0.38344578893E+01  0.12700000000E+01 0. -1.
          4   -1    0    0  501    0  0.00000000000E+00 -0.00000000000E+00 -0.10481823037E+04  0.10481830730E+04  0.12700000000E+01 0. -1.
         25    2    1    2    0    0  0.00000000000E+00  0.00000000000E+00 -0.10445642700E+04  0.10520175309E+04  0.12500548446E+03 0.  0.
    9000005    1    3    3    0    0  0.46167627569E+02 -0.34426775666E+02 -0.72651680155E+03  0.72879648439E+03  0.10000000000E+01 0.  0.
    9000005    1    3    3    0    0 -0.46167627569E+02  0.34426775666E+02 -0.31804746849E+03  0.32322104655E+03  0.10000000000E+01 0.  0.
<mgrwt>
<rscale>  0 0.12500548E+03</rscale>
<asrwt>0</asrwt>
<pdfrwt beam="2">  1        4 0.26207172E+00 0.12500548E+03</pdfrwt>
<pdfrwt beam="1">  1       -4 0.93166120E-03 0.12500548E+03</pdfrwt>
<totfact> 0.33716974E+02</totfact>
</mgrwt>
</event>
<event>
 4    1  0.1423270E-002  0.1251120E+03  0.7818608E-02  0.1234894E+00
          4   -1    0    0  501    0  0.00000000000E+00  0.00000000000E+00  0.16158996213E+03  0.16159495278E+03  0.12700000000E+01 0.  1.
         -4   -1    0    0    0  501 -0.00000000000E+00 -0.00000000000E+00 -0.24195155341E+02  0.24228463467E+02  0.12700000000E+01 0.  1.
    9000005    1    1    2    0    0 -0.55111379263E+02 -0.88716804538E+01  0.26785747835E+02  0.61922912766E+02  0.10000000000E+01 0.  0.
    9000005    1    1    2    0    0  0.55111379263E+02  0.88716804538E+01  0.11060905896E+03  0.12390050348E+03  0.10000000000E+01 0.  0.
<mgrwt>
<rscale>  0 0.12511199E+03</rscale>
<asrwt>0</asrwt>
<pdfrwt beam="1">  1        4 0.40402278E-01 0.12511199E+03</pdfrwt>
<pdfrwt beam="2">  1       -4 0.60535762E-02 0.12511199E+03</pdfrwt>
<totfact> 0.16862115E+03</totfact>
</mgrwt>
</event>
<event>
 5    1  0.1423270E-002  0.1249998E+03  0.7818608E-02  0.1235070E+00
         -4   -1    0    0    0  501 -0.00000000000E+00  0.00000000000E+00  0.75664490854E+02  0.75675148339E+02  0.12700000000E+01 0.  1.
          4   -1    0    0  501    0  0.00000000000E+00 -0.00000000000E+00 -0.51603656233E+02  0.51619281636E+02  0.12700000000E+01 0.  1.
         25    2    1    2    0    0  0.00000000000E+00  0.00000000000E+00  0.24060834621E+02  0.12729442997E+03  0.12499979256E+03 0.  0.
    9000005    1    3    3    0    0 -0.46891578035E+02 -0.37613236307E+02 -0.53611845866E+01  0.60359903381E+02  0.10000000000E+01 0.  0.
    9000005    1    3    3    0    0  0.46891578035E+02  0.37613236307E+02  0.29422019207E+02  0.66934526593E+02  0.10000000000E+01 0.  0.
<mgrwt>
<rscale>  0 0.12499979E+03</rscale>
<asrwt>0</asrwt>
<pdfrwt beam="2">  1        4 0.12904199E-01 0.12499979E+03</pdfrwt>
<pdfrwt beam="1">  1       -4 0.18919408E-01 0.12499979E+03</pdfrwt>
<totfact> 0.19711111E+03</totfact>
</mgrwt>
</event>
<event>
 5    1  0.1423270E-002  0.1250004E+03  0.7818608E-02  0.1235069E+00
          4   -1    0    0  501    0  0.00000000000E+00  0.00000000000E+00  0.68730641672E+02  0.68742374157E+02  0.12700000000E+01 0.  1.
         -4   -1    0    0    0  501 -0.00000000000E+00 -0.00000000000E+00 -0.56810872540E+02  0.56825066113E+02  0.12700000000E+01 0.  1.
         25    2    1    2    0    0  0.00000000000E+00  0.00000000000E+00  0.11919769132E+02  0.12556744027E+03  0.12500040464E+03 0.  0.
    9000005    1    3    3    0    0  0.31884350855E+02  0.53736210250E+02  0.49144096140E+01  0.62684476095E+02  0.10000000000E+01 0.  0.
    9000005    1    3    3    0    0 -0.31884350855E+02 -0.53736210250E+02  0.70053595179E+01  0.62882964175E+02  0.10000000000E+01 0.  0.
<mgrwt>
<rscale>  0 0.12500040E+03</rscale>
<asrwt>0</asrwt>
<pdfrwt beam="1">  1        4 0.17185901E-01 0.12500040E+03</pdfrwt>
<pdfrwt beam="2">  1       -4 0.14205959E-01 0.12500040E+03</pdfrwt>
<totfact> 0.19804126E+03</totfact>
</mgrwt>
</event>
<event>
 5    1  0.1423270E-002  0.1249964E+03  0.7818608E-02  0.1235075E+00
         -4   -1    0    0    0  501 -0.00000000000E+00  0.00000000000E+00  0.76273545446E+01  0.77323629861E+01  0.12700000000E+01 0. -1.
          4   -1    0    0  501    0  0.00000000000E+00 -0.00000000000E+00 -0.50850039096E+03  0.50850197690E+03  0.12700000000E+01 0. -1.
         25    2    1    2    0    0  0.00000000000E+00  0.00000000000E+00 -0.50087303642E+03  0.51623433989E+03  0.12499638021E+03 0.  0.
    9000005    1    3    3    0    0 -0.19543366564E+02 -0.51761465246E+02 -0.13046524425E+03  0.14171581569E+03  0.10000000000E+01 0.  0.
    9000005    1    3    3    0    0  0.19543366564E+02  0.51761465246E+02 -0.37040779217E+03  0.37451852419E+03  0.10000000000E+01 0.  0.
<mgrwt>
<rscale>  0 0.12499638E+03</rscale>
<asrwt>0</asrwt>
<pdfrwt beam="2">  1        4 0.12713831E+00 0.12499638E+03</pdfrwt>
<pdfrwt beam="1">  1       -4 0.19201647E-02 0.12499638E+03</pdfrwt>
<totfact> 0.85088273E+02</totfact>
</mgrwt>
</event>
<event>
 5    1  0.1423270E-002  0.1249990E+03  0.7818608E-02  0.1235071E+00
         -4   -1    0    0    0  501 -0.00000000000E+00  0.00000000000E+00  0.26537918511E+02  0.26568289725E+02  0.12700000000E+01 0.  1.
          4   -1    0    0  501    0  0.00000000000E+00 -0.00000000000E+00 -0.14707530336E+03  0.14708078650E+03  0.12700000000E+01 0.  1.
         25    2    1    2    0    0  0.00000000000E+00  0.00000000000E+00 -0.12053738485E+03  0.17364907623E+03  0.12499896211E+03 0.  0.
    9000005    1    3    3    0    0 -0.46649209358E+02 -0.21630550383E+01 -0.11795592923E+03  0.12686776100E+03  0.10000000000E+01 0.  0.
    9000005    1    3    3    0    0  0.46649209358E+02  0.21630550383E+01 -0.25814556132E+01  0.46781315222E+02  0.10000000000E+01 0.  0.
<mgrwt>
<rscale>  0 0.12499896E+03</rscale>
<asrwt>0</asrwt>
<pdfrwt beam="2">  1        4 0.36773305E-01 0.12499896E+03</pdfrwt>
<pdfrwt beam="1">  1       -4 0.66389618E-02 0.12499896E+03</pdfrwt>
<totfact> 0.17434123E+03</totfact>
</mgrwt>
</event>
<event>
 5    1  0.1423270E-002  0.1250023E+03  0.7818608E-02  0.1235066E+00
         -4   -1    0    0    0  501 -0.00000000000E+00  0.00000000000E+00  0.36541290947E+02  0.36563353841E+02  0.12700000000E+01 0.  1.
          4   -1    0    0  501    0  0.00000000000E+00 -0.00000000000E+00 -0.10684548660E+03  0.10685303415E+03  0.12700000000E+01 0.  1.
         25    2    1    2    0    0  0.00000000000E+00  0.00000000000E+00 -0.70304195652E+02  0.14341638799E+03  0.12500232165E+03 0.  0.
    9000005    1    3    3    0    0  0.48960484084E+02  0.20945111848E+02  0.23698159694E+01  0.53314564049E+02  0.10000000000E+01 0.  0.
    9000005    1    3    3    0    0 -0.48960484084E+02 -0.20945111848E+02 -0.72674011621E+02  0.90101823939E+02  0.10000000000E+01 0.  0.
<mgrwt>
<rscale>  0 0.12500232E+03</rscale>
<asrwt>0</asrwt>
<pdfrwt beam="2">  1        4 0.26715072E-01 0.12500232E+03</pdfrwt>
<pdfrwt beam="1">  1       -4 0.91390243E-02 0.12500232E+03</pdfrwt>
<totfact> 0.18865887E+03</totfact>
</mgrwt>
</event>
<event>
 5    1  0.1423270E-002  0.1249997E+03  0.7818608E-02  0.1235070E+00
         -4   -1    0    0    0  501 -0.00000000000E+00  0.00000000000E+00  0.44152973783E+02  0.44171234914E+02  0.12700000000E+01 0. -1.
          4   -1    0    0  501    0  0.00000000000E+00 -0.00000000000E+00 -0.88429225529E+02  0.88438344781E+02  0.12700000000E+01 0. -1.
         25    2    1    2    0    0  0.00000000000E+00  0.00000000000E+00 -0.44276251746E+02  0.13260957970E+03  0.12499965663E+03 0.  0.
    9000005    1    3    3    0    0  0.31802232498E+02  0.27228952685E+02 -0.71356885611E+02  0.82738159155E+02  0.10000000000E+01 0.  0.
    9000005    1    3    3    0    0 -0.31802232498E+02 -0.27228952685E+02  0.27080633865E+02  0.49871420541E+02  0.10000000000E+01 0.  0.
<mgrwt>
<rscale>  0 0.12499966E+03</rscale>
<asrwt>0</asrwt>
<pdfrwt beam="2">  1        4 0.22110729E-01 0.12499966E+03</pdfrwt>
<pdfrwt beam="1">  1       -4 0.11041666E-01 0.12499966E+03</pdfrwt>
<totfact> 0.19425246E+03</totfact>
</mgrwt>
</event>
<event>
 5    1  0.1423270E-002  0.1250082E+03  0.7818608E-02  0.1235056E+00
         -4   -1    0    0    0  501 -0.00000000000E+00  0.00000000000E+00  0.30970195798E+02  0.30996224412E+02  0.12700000000E+01 0. -1.
          4   -1    0    0  501    0  0.00000000000E+00 -0.00000000000E+00 -0.12606371070E+03  0.12607010770E+03  0.12700000000E+01 0. -1.
         25    2    1    2    0    0  0.00000000000E+00  0.00000000000E+00 -0.95093514899E+02  0.15706633211E+03  0.12500822415E+03 0.  0.
    9000005    1    3    3    0    0  0.30403388607E+02 -0.53933655188E+02 -0.36844148950E+02  0.72053428181E+02  0.10000000000E+01 0.  0.
    9000005    1    3    3    0    0 -0.30403388607E+02  0.53933655188E+02 -0.58249365949E+02  0.85012903928E+02  0.10000000000E+01 0.  0.
<mgrwt>
<rscale>  0 0.12500822E+03</rscale>
<asrwt>0</asrwt>
<pdfrwt beam="2">  1        4 0.31519980E-01 0.12500822E+03</pdfrwt>
<pdfrwt beam="1">  1       -4 0.77466025E-02 0.12500822E+03</pdfrwt>
<totfact> 0.18193218E+03</totfact>
</mgrwt>
</event>
<event>
 5    1  0.1423270E-002  0.1249990E+03  0.7818608E-02  0.1235071E+00
          4   -1    0    0  501    0  0.00000000000E+00  0.00000000000E+00  0.95455108061E+02  0.95463556161E+02  0.12700000000E+01 0. -1.
         -4   -1    0    0    0  501 -0.00000000000E+00 -0.00000000000E+00 -0.40901614170E+02  0.40921326246E+02  0.12700000000E+01 0. -1.
         25    2    1    2    0    0  0.00000000000E+00  0.00000000000E+00  0.54553493891E+02  0.13638488241E+03  0.12499900981E+03 0.  0.
    9000005    1    3    3    0    0  0.31684748203E+02 -0.48757751164E+02  0.23018818075E+01  0.58202579213E+02  0.10000000000E+01 0.  0.
    9000005    1    3    3    0    0 -0.31684748203E+02  0.48757751164E+02  0.52251612083E+02  0.78182303193E+02  0.10000000000E+01 0.  0.
<mgrwt>
<rscale>  0 0.12499901E+03</rscale>
<asrwt>0</asrwt>
<pdfrwt beam="1">  1        4 0.23867297E-01 0.12499901E+03</pdfrwt>
<pdfrwt beam="2">  1       -4 0.10228924E-01 0.12499901E+03</pdfrwt>
<totfact> 0.19227286E+03</totfact>
</mgrwt>
</event>
<event>
 5    1  0.1423270E-002  0.1249951E+03  0.7818608E-02  0.1235077E+00
         -4   -1    0    0    0  501 -0.00000000000E+00  0.00000000000E+00  0.17254457469E+02  0.17301132984E+02  0.12700000000E+01 0.  1.
          4   -1    0    0  501    0  0.00000000000E+00 -0.00000000000E+00 -0.22601875759E+03  0.22602232563E+03  0.12700000000E+01 0.  1.
         25    2    1    2    0    0  0.00000000000E+00  0.00000000000E+00 -0.20876430012E+03  0.24332345861E+03  0.12499508993E+03 0.  0.
    9000005    1    3    3    0    0 -0.31900556393E+02  0.50490064964E+02 -0.14017383301E+03  0.15236993017E+03  0.10000000000E+01 0.  0.
    9000005    1    3    3    0    0  0.31900556393E+02 -0.50490064964E+02 -0.68590467110E+02  0.90953528445E+02  0.10000000000E+01 0.  0.
<mgrwt>
<rscale>  0 0.12499509E+03</rscale>
<asrwt>0</asrwt>
<pdfrwt beam="2">  1        4 0.56510961E-01 0.12499509E+03</pdfrwt>
<pdfrwt beam="1">  1       -4 0.43198955E-02 0.12499509E+03</pdfrwt>
<totfact> 0.14724302E+03</totfact>
</mgrwt>
</event>
<event>
 5    1  0.1423270E-002  0.1250040E+03  0.7818608E-02  0.1235063E+00
         -4   -1    0    0    0  501 -0.00000000000E+00  0.00000000000E+00  0.75518065969E+02  0.75528744116E+02  0.12700000000E+01 0. -1.
          4   -1    0    0  501    0  0.00000000000E+00 -0.00000000000E+00 -0.51707215609E+02  0.51722809727E+02  0.12700000000E+01 0. -1.
         25    2    1    2    0    0  0.00000000000E+00  0.00000000000E+00  0.23810850360E+02  0.12725155384E+03  0.12500400538E+03 0.  0.
    9000005    1    3    3    0    0  0.57231324095E+02  0.41549403328E+01  0.37105563289E+02  0.68341135590E+02  0.10000000000E+01 0.  0.
    9000005    1    3    3    0    0 -0.57231324095E+02 -0.41549403328E+01 -0.13294712929E+02  0.58910418252E+02  0.10000000000E+01 0.  0.
<mgrwt>
<rscale>  0 0.12500401E+03</rscale>
<asrwt>0</asrwt>
<pdfrwt beam="2">  1        4 0.12930088E-01 0.12500401E+03</pdfrwt>
<pdfrwt beam="1">  1       -4 0.18882800E-01 0.12500401E+03</pdfrwt>
<totfact> 0.19711506E+03</totfact>
</mgrwt>
</event>
<event>
 5    1  0.1423270E-002  0.1249842E+03  0.7818608E-02  0.1235094E+00
          4   -1    0    0  501    0  0.00000000000E+00  0.00000000000E+00  0.72412680361E+02  0.72423816366E+02  0.12700000000E+01 0. -1.
         -4   -1    0    0    0  501 -0.00000000000E+00 -0.00000000000E+00 -0.53907866561E+02  0.53922824269E+02  0.12700000000E+01 0. -1.
         25    2    1    2    0    0  0.00000000000E+00  0.00000000000E+00  0.18504813800E+02  0.12634664064E+03  0.12498418086E+03 0.  0.
    9000005    1    3    3    0    0  0.42872201365E+02 -0.33050822213E+02  0.40799628905E+02  0.67793747629E+02  0.10000000000E+01 0.  0.
    9000005    1    3    3    0    0 -0.42872201365E+02  0.33050822213E+02 -0.22294815105E+02  0.58552893006E+02  0.10000000000E+01 0.  0.
<mgrwt>
<rscale>  0 0.12498418E+03</rscale>
<asrwt>0</asrwt>
<pdfrwt beam="1">  1        4 0.18106432E-01 0.12498418E+03</pdfrwt>
<pdfrwt beam="2">  1       -4 0.13480228E-01 0.12498418E+03</pdfrwt>
<totfact> 0.19769513E+03</totfact>
</mgrwt>
</event>
<event>
 5    1  0.1423270E-002  0.1249994E+03  0.7818608E-02  0.1235070E+00
          4   -1    0    0  501    0  0.00000000000E+00  0.00000000000E+00  0.62605871625E+01  0.63881023489E+01  0.12700000000E+01 0.  1.
         -4   -1    0    0    0  501 -0.00000000000E+00 -0.00000000000E+00 -0.61751879126E+03  0.61752009721E+03  0.12700000000E+01 0.  1.
         25    2    1    2    0    0  0.00000000000E+00  0.00000000000E+00 -0.61125820410E+03  0.62390819956E+03  0.12499939760E+03 0.  0.
    9000005    1    3    3    0    0  0.31128201142E+00  0.32562389393E+02 -0.39410057772E+02  0.51132756165E+02  0.10000000000E+01 0.  0.
    9000005    1    3    3    0    0 -0.31128201142E+00 -0.32562389393E+02 -0.57184814632E+03  0.57277544339E+03  0.10000000000E+01 0.  0.
<mgrwt>
<rscale>  0 0.12499940E+03</rscale>
<asrwt>0</asrwt>
<pdfrwt beam="1">  1        4 0.15812515E-02 0.12499940E+03</pdfrwt>
<pdfrwt beam="2">  1       -4 0.15439560E+00 0.12499940E+03</pdfrwt>
<totfact> 0.70574707E+02</totfact>
</mgrwt>
</event>
<event>
 5    1  0.1423270E-002  0.1250002E+03  0.7818608E-02  0.1235069E+00
         -4   -1    0    0    0  501 -0.00000000000E+00  0.00000000000E+00  0.60922430295E+01  0.62232085880E+01  0.12700000000E+01 0.  1.
          4   -1    0    0  501    0  0.00000000000E+00 -0.00000000000E+00 -0.63423639400E+03  0.63423766553E+03  0.12700000000E+01 0.  1.
         25    2    1    2    0    0  0.00000000000E+00  0.00000000000E+00 -0.62814415097E+03  0.64046087411E+03  0.12500022750E+03 0.  0.
    9000005    1    3    3    0    0  0.15569814901E+02 -0.54155667114E+02 -0.17563709346E+03  0.18445770252E+03  0.10000000000E+01 0.  0.
    9000005    1    3    3    0    0 -0.15569814901E+02  0.54155667114E+02 -0.45250705751E+03  0.45600317160E+03  0.10000000000E+01 0.  0.
<mgrwt>
<rscale>  0 0.12500023E+03</rscale>
<asrwt>0</asrwt>
<pdfrwt beam="2">  1        4 0.15857541E+00 0.12500023E+03</pdfrwt>
<pdfrwt beam="1">  1       -4 0.15395925E-02 0.12500023E+03</pdfrwt>
<totfact> 0.68612850E+02</totfact>
</mgrwt>
</event>
<event>
 5    1  0.1423270E-002  0.1249994E+03  0.7818608E-02  0.1235070E+00
         -4   -1    0    0    0  501 -0.00000000000E+00  0.00000000000E+00  0.23481504992E+02  0.23515823963E+02  0.12700000000E+01 0. -1.
          4   -1    0    0  501    0  0.00000000000E+00 -0.00000000000E+00 -0.16619463978E+03  0.16619949216E+03  0.12700000000E+01 0. -1.
         25    2    1    2    0    0  0.00000000000E+00  0.00000000000E+00 -0.14271313479E+03  0.18971531612E+03  0.12499944931E+03 0.  0.
    9000005    1    3    3    0    0 -0.50228059929E+02 -0.14307843327E+02 -0.19272947844E+02  0.55677813387E+02  0.10000000000E+01 0.  0.
    9000005    1    3    3    0    0  0.50228059929E+02  0.14307843327E+02 -0.12344018695E+03  0.13403750273E+03  0.10000000000E+01 0.  0.
<mgrwt>
<rscale>  0 0.12499945E+03</rscale>
<asrwt>0</asrwt>
<pdfrwt beam="2">  1        4 0.41553553E-01 0.12499945E+03</pdfrwt>
<pdfrwt beam="1">  1       -4 0.58752731E-02 0.12499945E+03</pdfrwt>
<totfact> 0.16742526E+03</totfact>
</mgrwt>
</event>
<event>
 5    1  0.1423270E-002  0.1249990E+03  0.7818608E-02  0.1235071E+00
          4   -1    0    0  501    0  0.00000000000E+00  0.00000000000E+00  0.62884113969E+02  0.62896937046E+02  0.12700000000E+01 0.  1.
         -4   -1    0    0    0  501 -0.00000000000E+00 -0.00000000000E+00 -0.62091541282E+02  0.62104528005E+02  0.12700000000E+01 0.  1.
         25    2    1    2    0    0  0.00000000000E+00  0.00000000000E+00  0.79257268772E+00  0.12500146505E+03  0.12499895237E+03 0.  0.
    9000005    1    3    3    0    0  0.11176891308E+02 -0.54484720623E+02 -0.28094229183E+02  0.62320088207E+02  0.10000000000E+01 0.  0.
    9000005    1    3    3    0    0 -0.11176891308E+02  0.54484720623E+02  0.28886801871E+02  0.62681376844E+02  0.10000000000E+01 0.  0.
<mgrwt>
<rscale>  0 0.12499895E+03</rscale>
<asrwt>0</asrwt>
<pdfrwt beam="1">  1        4 0.15724255E-01 0.12499895E+03</pdfrwt>
<pdfrwt beam="2">  1       -4 0.15526112E-01 0.12499895E+03</pdfrwt>
<totfact> 0.19835462E+03</totfact>
</mgrwt>
</event>
<event>
 5    1  0.1423270E-002  0.1250010E+03  0.7818608E-02  0.1235068E+00
         -4   -1    0    0    0  501 -0.00000000000E+00  0.00000000000E+00  0.27001736323E+02  0.27031586422E+02  0.12700000000E+01 0.  1.
          4   -1    0    0  501    0  0.00000000000E+00 -0.00000000000E+00 -0.14455633179E+03  0.14456191048E+03  0.12700000000E+01 0.  1.
         25    2    1    2    0    0  0.00000000000E+00  0.00000000000E+00 -0.11755459547E+03  0.17159349690E+03  0.12500098105E+03 0.  0.
    9000005    1    3    3    0    0  0.39111786624E+02  0.19543094718E+02 -0.12007038903E+03  0.12778717747E+03  0.10000000000E+01 0.  0.
    9000005    1    3    3    0    0 -0.39111786624E+02 -0.19543094718E+02  0.25157935686E+01  0.43806319423E+02  0.10000000000E+01 0.  0.
<mgrwt>
<rscale>  0 0.12500098E+03</rscale>
<asrwt>0</asrwt>
<pdfrwt beam="2">  1        4 0.36143509E-01 0.12500098E+03</pdfrwt>
<pdfrwt beam="1">  1       -4 0.67548631E-02 0.12500098E+03</pdfrwt>
<totfact> 0.17525014E+03</totfact>
</mgrwt>
</event>
<event>
 5    1  0.1423270E-002  0.1249945E+03  0.7818608E-02  0.1235078E+00
          4   -1    0    0  501    0  0.00000000000E+00  0.00000000000E+00  0.28853568384E+03  0.28853847880E+03  0.12700000000E+01 0. -1.
         -4   -1    0    0    0  501 -0.00000000000E+00 -0.00000000000E+00 -0.13504335141E+02  0.13563921542E+02  0.12700000000E+01 0. -1.
         25    2    1    2    0    0  0.00000000000E+00  0.00000000000E+00  0.27503134870E+03  0.30210240034E+03  0.12499446998E+03 0.  0.
    9000005    1    3    3    0    0 -0.12384588019E+01  0.16067136662E+01  0.28846793115E+03  0.28847679735E+03  0.10000000000E+01 0.  0.
    9000005    1    3    3    0    0  0.12384588019E+01 -0.16067136662E+01 -0.13436582449E+02  0.13625602993E+02  0.10000000000E+01 0.  0.
<mgrwt>
<rscale>  0 0.12499447E+03</rscale>
<asrwt>0</asrwt>
<pdfrwt beam="1">  1        4 0.72141715E-01 0.12499447E+03</pdfrwt>
<pdfrwt beam="2">  1       -4 0.33838816E-02 0.12499447E+03</pdfrwt>
<totfact> 0.12913972E+03</totfact>
</mgrwt>
</event>
<event>
 5    1  0.1423270E-002  0.1249996E+03  0.7818608E-02  0.1235070E+00
         -4   -1    0    0    0  501 -0.00000000000E+00  0.00000000000E+00  0.50270333400E+02  0.50286373106E+02  0.12700000000E+01 0.  1.
          4   -1    0    0  501    0  0.00000000000E+00 -0.00000000000E+00 -0.77670738713E+02  0.77681120951E+02  0.12700000000E+01 0.  1.
         25    2    1    2    0    0  0.00000000000E+00  0.00000000000E+00 -0.27400405313E+02  0.12796749406E+03  0.12499958929E+03 0.  0.
    9000005    1    3    3    0    0  0.39236897213E+02 -0.37376679293E+02 -0.45562707702E+02  0.70806147974E+02  0.10000000000E+01 0.  0.
    9000005    1    3    3    0    0 -0.39236897213E+02  0.37376679293E+02  0.18162302389E+02  0.57161346082E+02  0.10000000000E+01 0.  0.
<mgrwt>
<rscale>  0 0.12499959E+03</rscale>
<asrwt>0</asrwt>
<pdfrwt beam="2">  1        4 0.19420987E-01 0.12499959E+03</pdfrwt>
<pdfrwt beam="1">  1       -4 0.12570886E-01 0.12499959E+03</pdfrwt>
<totfact> 0.19674491E+03</totfact>
</mgrwt>
</event>
<event>
 5    1  0.1423270E-002  0.1249998E+03  0.7818608E-02  0.1235070E+00
         -4   -1    0    0    0  501 -0.00000000000E+00  0.00000000000E+00  0.19859237763E+02  0.19899804635E+02  0.12700000000E+01 0.  1.
          4   -1    0    0  501    0  0.00000000000E+00 -0.00000000000E+00 -0.19645287431E+03  0.19645697932E+03  0.12700000000E+01 0.  1.
         25    2    1    2    0    0  0.00000000000E+00  0.00000000000E+00 -0.17659363654E+03  0.21635678395E+03  0.12499978198E+03 0.  0.
    9000005    1    3    3    0    0 -0.57811872935E+02  0.23675522691E+02 -0.91029899960E+02  0.11040917405E+03  0.10000000000E+01 0.  0.
    9000005    1    3    3    0    0  0.57811872935E+02 -0.23675522691E+02 -0.85563736584E+02  0.10594760991E+03  0.10000000000E+01 0.  0.
<mgrwt>
<rscale>  0 0.12499978E+03</rscale>
<asrwt>0</asrwt>
<pdfrwt beam="2">  1        4 0.49118797E-01 0.12499978E+03</pdfrwt>
<pdfrwt beam="1">  1       -4 0.49703940E-02 0.12499978E+03</pdfrwt>
<totfact> 0.15687465E+03</totfact>
</mgrwt>
</event>
<event>
 5    1  0.1423270E-002  0.1249965E+03  0.7818608E-02  0.1235075E+00
         -4   -1    0    0    0  501 -0.00000000000E+00  0.00000000000E+00  0.38173670631E+03  0.38173881889E+03  0.12700000000E+01 0.  1.
          4   -1    0    0  501    0  0.00000000000E+00 -0.00000000000E+00 -0.10190702086E+02  0.10269533047E+02  0.12700000000E+01 0.  1.
         25    2    1    2    0    0  0.00000000000E+00  0.00000000000E+00  0.37154600423E+03  0.39200835193E+03  0.12499645887E+03 0.  0.
    9000005    1    3    3    0    0 -0.86774136988E+00  0.62450128871E+02  0.19224375950E+03  0.20213716788E+03  0.10000000000E+01 0.  0.
    9000005    1    3    3    0    0  0.86774136988E+00 -0.62450128871E+02  0.17930224472E+03  0.18987118405E+03  0.10000000000E+01 0.  0.
<mgrwt>
<rscale>  0 0.12499646E+03</rscale>
<asrwt>0</asrwt>
<pdfrwt beam="2">  1        4 0.25577937E-02 0.12499646E+03</pdfrwt>
<pdfrwt beam="1">  1       -4 0.95444287E-01 0.12499646E+03</pdfrwt>
<totfact> 0.10736553E+03</totfact>
</mgrwt>
</event>
<event>
 5    1  0.1423270E-002  0.1249822E+03  0.7818608E-02  0.1235097E+00
         -4   -1    0    0    0  501 -0.00000000000E+00  0.00000000000E+00  0.12256663985E+02  0.12322285179E+02  0.12700000000E+01 0. -1.
          4   -1    0    0  501    0  0.00000000000E+00 -0.00000000000E+00 -0.31769607713E+03  0.31769861555E+03  0.12700000000E+01 0. -1.
         25    2    1    2    0    0  0.00000000000E+00  0.00000000000E+00 -0.30543941314E+03  0.33002090073E+03  0.12498223801E+03 0.  0.
    9000005    1    3    3    0    0  0.61860592042E+02  0.19898202956E+01 -0.13008982337E+03  0.14406614584E+03  0.10000000000E+01 0.  0.
    9000005    1    3    3    0    0 -0.61860592042E+02 -0.19898202956E+01 -0.17534958977E+03  0.18595475489E+03  0.10000000000E+01 0.  0.
<mgrwt>
<rscale>  0 0.12498224E+03</rscale>
<asrwt>0</asrwt>
<pdfrwt beam="2">  1        4 0.79432512E-01 0.12498224E+03</pdfrwt>
<pdfrwt beam="1">  1       -4 0.30726870E-02 0.12498224E+03</pdfrwt>
<totfact> 0.12174451E+03</totfact>
</mgrwt>
</event>
<event>
 5    1  0.1423270E-002  0.1250014E+03  0.7818608E-02  0.1235067E+00
         -4   -1    0    0    0  501 -0.00000000000E+00  0.00000000000E+00  0.29085711697E+03  0.29085988963E+03  0.12700000000E+01 0. -1.
          4   -1    0    0  501    0  0.00000000000E+00 -0.00000000000E+00 -0.13397575329E+02  0.13457634439E+02  0.12700000000E+01 0. -1.
         25    2    1    2    0    0  0.00000000000E+00  0.00000000000E+00  0.27745954164E+03  0.30431752406E+03  0.12500143281E+03 0.  0.
    9000005    1    3    3    0    0 -0.96107874721E+01 -0.59273201642E+02  0.96586690774E+02  0.11373508035E+03  0.10000000000E+01 0.  0.
    9000005    1    3    3    0    0  0.96107874721E+01  0.59273201642E+02  0.18087285087E+03  0.19058244371E+03  0.10000000000E+01 0.  0.
<mgrwt>
<rscale>  0 0.12500143E+03</rscale>
<asrwt>0</asrwt>
<pdfrwt beam="2">  1        4 0.33572477E-02 0.12500143E+03</pdfrwt>
<pdfrwt beam="1">  1       -4 0.72722136E-01 0.12500143E+03</pdfrwt>
<totfact> 0.12850484E+03</totfact>
</mgrwt>
</event>
<event>
 5    1  0.1423270E-002  0.1249891E+03  0.7818608E-02  0.1235086E+00
          4   -1    0    0  501    0  0.00000000000E+00  0.00000000000E+00  0.45052887419E+03  0.45053066419E+03  0.12700000000E+01 0. -1.
         -4   -1    0    0    0  501 -0.00000000000E+00 -0.00000000000E+00 -0.86205267055E+01  0.87135745065E+01  0.12700000000E+01 0. -1.
         25    2    1    2    0    0  0.00000000000E+00  0.00000000000E+00  0.44190834748E+03  0.45924423870E+03  0.12498913234E+03 0.  0.
    9000005    1    3    3    0    0  0.53797158552E+02  0.28798667301E+02  0.27039647365E+03  0.27719803475E+03  0.10000000000E+01 0.  0.
    9000005    1    3    3    0    0 -0.53797158552E+02 -0.28798667301E+02  0.17151187383E+03  0.18204620395E+03  0.10000000000E+01 0.  0.
<mgrwt>
<rscale>  0 0.12498913E+03</rscale>
<asrwt>0</asrwt>
<pdfrwt beam="1">  1        4 0.11264408E+00 0.12498913E+03</pdfrwt>
<pdfrwt beam="2">  1       -4 0.21669863E-02 0.12498913E+03</pdfrwt>
<totfact> 0.94403986E+02</totfact>
</mgrwt>
</event>
<event>
 5    1  0.1423270E-002  0.1250042E+03  0.7818608E-02  0.1235063E+00
         -4   -1    0    0    0  501 -0.00000000000E+00  0.00000000000E+00  0.20577022839E+02  0.20616177359E+02  0.12700000000E+01 0. -1.
          4   -1    0    0  501    0  0.00000000000E+00 -0.00000000000E+00 -0.18962658434E+03  0.18963083713E+03  0.12700000000E+01 0. -1.
         25    2    1    2    0    0  0.00000000000E+00  0.00000000000E+00 -0.16904956150E+03  0.21024701449E+03  0.12500421135E+03 0.  0.
    9000005    1    3    3    0    0  0.19244390509E+02  0.77310777872E+01  0.14628573208E+02  0.25399041003E+02  0.10000000000E+01 0.  0.
    9000005    1    3    3    0    0 -0.19244390509E+02 -0.77310777872E+01 -0.18367813471E+03  0.18484797348E+03  0.10000000000E+01 0.  0.
<mgrwt>
<rscale>  0 0.12500421E+03</rscale>
<asrwt>0</asrwt>
<pdfrwt beam="2">  1        4 0.47412067E-01 0.12500421E+03</pdfrwt>
<pdfrwt beam="1">  1       -4 0.51496822E-02 0.12500421E+03</pdfrwt>
<totfact> 0.15918247E+03</totfact>
</mgrwt>
</event>
<event>
 5    1  0.1423270E-002  0.1249980E+03  0.7818608E-02  0.1235072E+00
         -4   -1    0    0    0  501 -0.00000000000E+00  0.00000000000E+00  0.10666312950E+03  0.10667068995E+03  0.12700000000E+01 0. -1.
          4   -1    0    0  501    0  0.00000000000E+00 -0.00000000000E+00 -0.36601271865E+02  0.36623298624E+02  0.12700000000E+01 0. -1.
         25    2    1    2    0    0  0.00000000000E+00  0.00000000000E+00  0.70061857638E+02  0.14329398858E+03  0.12499801305E+03 0.  0.
    9000005    1    3    3    0    0 -0.58793668639E+02  0.50219995770E+01  0.11447727790E+02  0.60116274197E+02  0.10000000000E+01 0.  0.
    9000005    1    3    3    0    0  0.58793668639E+02 -0.50219995770E+01  0.58614129849E+02  0.83177714382E+02  0.10000000000E+01 0.  0.
<mgrwt>
<rscale>  0 0.12499801E+03</rscale>
<asrwt>0</asrwt>
<pdfrwt beam="2">  1        4 0.91540165E-02 0.12499801E+03</pdfrwt>
<pdfrwt beam="1">  1       -4 0.26669480E-01 0.12499801E+03</pdfrwt>
<totfact> 0.18873950E+03</totfact>
</mgrwt>
</event>
<event>
 5    1  0.1423270E-002  0.1250101E+03  0.7818608E-02  0.1235053E+00
         -4   -1    0    0    0  501 -0.00000000000E+00  0.00000000000E+00  0.10302137801E+02  0.10380122508E+02  0.12700000000E+01 0. -1.
          4   -1    0    0  501    0  0.00000000000E+00 -0.00000000000E+00 -0.37772140909E+03  0.37772354412E+03  0.12700000000E+01 0. -1.
         25    2    1    2    0    0  0.00000000000E+00  0.00000000000E+00 -0.36741927129E+03  0.38810366663E+03  0.12501014014E+03 0.  0.
    9000005    1    3    3    0    0  0.45991162279E+02 -0.13501188328E+01 -0.52401276491E+02  0.69741692025E+02  0.10000000000E+01 0.  0.
    9000005    1    3    3    0    0 -0.45991162279E+02  0.13501188328E+01 -0.31501799480E+03  0.31836197461E+03  0.10000000000E+01 0.  0.
<mgrwt>
<rscale>  0 0.12501014E+03</rscale>
<asrwt>0</asrwt>
<pdfrwt beam="2">  1        4 0.94440321E-01 0.12501014E+03</pdfrwt>
<pdfrwt beam="1">  1       -4 0.25855507E-02 0.12501014E+03</pdfrwt>
<totfact> 0.10815922E+03</totfact>
</mgrwt>
</event>
<event>
 5    1  0.1423270E-002  0.1249974E+03  0.7818608E-02  0.1235073E+00
          4   -1    0    0  501    0  0.00000000000E+00  0.00000000000E+00  0.16080438010E+02  0.16130511046E+02  0.12700000000E+01 0.  1.
         -4   -1    0    0    0  501 -0.00000000000E+00 -0.00000000000E+00 -0.24247993239E+03  0.24248325821E+03  0.12700000000E+01 0.  1.
         25    2    1    2    0    0  0.00000000000E+00  0.00000000000E+00 -0.22639949438E+03  0.25861376925E+03  0.12499740235E+03 0.  0.
    9000005    1    3    3    0    0 -0.45899614759E+02  0.24563794828E+02 -0.18471891186E+03  0.19191725052E+03  0.10000000000E+01 0.  0.
    9000005    1    3    3    0    0  0.45899614759E+02 -0.24563794828E+02 -0.41680582523E+02  0.66696518730E+02  0.10000000000E+01 0.  0.
<mgrwt>
<rscale>  0 0.12499740E+03</rscale>
<asrwt>0</asrwt>
<pdfrwt beam="1">  1        4 0.40267851E-02 0.12499740E+03</pdfrwt>
<pdfrwt beam="2">  1       -4 0.60626646E-01 0.12499740E+03</pdfrwt>
<totfact> 0.14216623E+03</totfact>
</mgrwt>
</event>
<event>
 5    1  0.1423270E-002  0.1250046E+03  0.7818608E-02  0.1235062E+00
          4   -1    0    0  501    0  0.00000000000E+00  0.00000000000E+00  0.67701482123E+01  0.68882368438E+01  0.12700000000E+01 0. -1.
         -4   -1    0    0    0  501 -0.00000000000E+00 -0.00000000000E+00 -0.57191610948E+03  0.57191751957E+03  0.12700000000E+01 0. -1.
         25    2    1    2    0    0  0.00000000000E+00  0.00000000000E+00 -0.56514596127E+03  0.57880575641E+03  0.12500458436E+03 0.  0.
    9000005    1    3    3    0    0  0.12391783813E+02  0.48381382555E+02 -0.45651502781E+03  0.45923989929E+03  0.10000000000E+01 0.  0.
    9000005    1    3    3    0    0 -0.12391783813E+02 -0.48381382555E+02 -0.10863093346E+03  0.11956585712E+03  0.10000000000E+01 0.  0.
<mgrwt>
<rscale>  0 0.12500458E+03</rscale>
<asrwt>0</asrwt>
<pdfrwt beam="1">  1        4 0.17074763E-02 0.12500458E+03</pdfrwt>
<pdfrwt beam="2">  1       -4 0.14299380E+00 0.12500458E+03</pdfrwt>
<totfact> 0.76228207E+02</totfact>
</mgrwt>
</event>
<event>
 5    1  0.1423270E-002  0.1249952E+03  0.7818608E-02  0.1235077E+00
         -4   -1    0    0    0  501 -0.00000000000E+00  0.00000000000E+00  0.53976743129E+01  0.55450687992E+01  0.12700000000E+01 0. -1.
          4   -1    0    0  501    0  0.00000000000E+00 -0.00000000000E+00 -0.71374112722E+03  0.71374225711E+03  0.12700000000E+01 0. -1.
         25    2    1    2    0    0  0.00000000000E+00  0.00000000000E+00 -0.70834345291E+03  0.71928732591E+03  0.12499523966E+03 0.  0.
    9000005    1    3    3    0    0  0.40439988068E+02 -0.45666654287E+02 -0.43225451809E+03  0.43653843400E+03  0.10000000000E+01 0.  0.
    9000005    1    3    3    0    0 -0.40439988068E+02  0.45666654287E+02 -0.27608893482E+03  0.28274889192E+03  0.10000000000E+01 0.  0.
<mgrwt>
<rscale>  0 0.12499524E+03</rscale>
<asrwt>0</asrwt>
<pdfrwt beam="2">  1        4 0.17845353E+00 0.12499524E+03</pdfrwt>
<pdfrwt beam="1">  1       -4 0.13679866E-02 0.12499524E+03</pdfrwt>
<totfact> 0.60091879E+02</totfact>
</mgrwt>
</event>
<event>
 5    1  0.1423270E-002  0.1249975E+03  0.7818608E-02  0.1235073E+00
         -4   -1    0    0    0  501 -0.00000000000E+00  0.00000000000E+00  0.24053900208E+02  0.24087403663E+02  0.12700000000E+01 0.  1.
          4   -1    0    0  501    0  0.00000000000E+00 -0.00000000000E+00 -0.16224026108E+03  0.16224523171E+03  0.12700000000E+01 0.  1.
         25    2    1    2    0    0  0.00000000000E+00  0.00000000000E+00 -0.13818636087E+03  0.18633263538E+03  0.12499752268E+03 0.  0.
    9000005    1    3    3    0    0 -0.62430441061E+01 -0.59600897162E+02 -0.95502086059E+02  0.11275145668E+03  0.10000000000E+01 0.  0.
    9000005    1    3    3    0    0  0.62430441061E+01  0.59600897162E+02 -0.42684274809E+02  0.73581178695E+02  0.10000000000E+01 0.  0.
<mgrwt>
<rscale>  0 0.12499752E+03</rscale>
<asrwt>0</asrwt>
<pdfrwt beam="2">  1        4 0.40564871E-01 0.12499752E+03</pdfrwt>
<pdfrwt beam="1">  1       -4 0.60182848E-02 0.12499752E+03</pdfrwt>
<totfact> 0.16885308E+03</totfact>
</mgrwt>
</event>
<event>
 5    1  0.1423270E-002  0.1250003E+03  0.7818608E-02  0.1235069E+00
          4   -1    0    0  501    0  0.00000000000E+00  0.00000000000E+00  0.31949609312E+03  0.31949861724E+03  0.12700000000E+01 0. -1.
         -4   -1    0    0    0  501 -0.00000000000E+00 -0.00000000000E+00 -0.12190787052E+02  0.12256760949E+02  0.12700000000E+01 0. -1.
         25    2    1    2    0    0  0.00000000000E+00  0.00000000000E+00  0.30730530607E+03  0.33175537819E+03  0.12500031928E+03 0.  0.
    9000005    1    3    3    0    0  0.16186826186E+02  0.45424088653E+02  0.25914546201E+03  0.26359577321E+03  0.10000000000E+01 0.  0.
    9000005    1    3    3    0    0 -0.16186826186E+02 -0.45424088653E+02  0.48159844062E+02  0.68159604988E+02  0.10000000000E+01 0.  0.
<mgrwt>
<rscale>  0 0.12500032E+03</rscale>
<asrwt>0</asrwt>
<pdfrwt beam="1">  1        4 0.79882589E-01 0.12500032E+03</pdfrwt>
<pdfrwt beam="2">  1       -4 0.30562589E-02 0.12500032E+03</pdfrwt>
<totfact> 0.12125426E+03</totfact>
</mgrwt>
</event>
<event>
 5    1  0.1423270E-002  0.1250031E+03  0.7818608E-02  0.1235064E+00
          4   -1    0    0  501    0  0.00000000000E+00  0.00000000000E+00  0.11900161184E+03  0.11900838844E+03  0.12700000000E+01 0. -1.
         -4   -1    0    0    0  501 -0.00000000000E+00 -0.00000000000E+00 -0.32806805739E+02  0.32831378327E+02  0.12700000000E+01 0. -1.
         25    2    1    2    0    0  0.00000000000E+00  0.00000000000E+00  0.86194806097E+02  0.15183976677E+03  0.12500308066E+03 0.  0.
    9000005    1    3    3    0    0 -0.18673876989E+02  0.54180767750E+02  0.73371499526E+02  0.93105564917E+02  0.10000000000E+01 0.  0.
    9000005    1    3    3    0    0  0.18673876989E+02 -0.54180767750E+02  0.12823306571E+02  0.58734201852E+02  0.10000000000E+01 0.  0.
<mgrwt>
<rscale>  0 0.12500308E+03</rscale>
<asrwt>0</asrwt>
<pdfrwt beam="1">  1        4 0.29754321E-01 0.12500308E+03</pdfrwt>
<pdfrwt beam="2">  1       -4 0.82056202E-02 0.12500308E+03</pdfrwt>
<totfact> 0.18447366E+03</totfact>
</mgrwt>
</event>
<event>
 5    1  0.1423270E-002  0.1250002E+03  0.7818608E-02  0.1235069E+00
          4   -1    0    0  501    0  0.00000000000E+00  0.00000000000E+00  0.72097833581E+01  0.73207838427E+01  0.12700000000E+01 0. -1.
         -4   -1    0    0    0  501 -0.00000000000E+00 -0.00000000000E+00 -0.53754960272E+03  0.53755110295E+03  0.12700000000E+01 0. -1.
         25    2    1    2    0    0  0.00000000000E+00  0.00000000000E+00 -0.53033981936E+03  0.54487188679E+03  0.12500019607E+03 0.  0.
    9000005    1    3    3    0    0 -0.22190578191E+02 -0.28940231000E+02 -0.43963392786E+02  0.57129139991E+02  0.10000000000E+01 0.  0.
    9000005    1    3    3    0    0  0.22190578191E+02  0.28940231000E+02 -0.48637642658E+03  0.48774274680E+03  0.10000000000E+01 0.  0.
<mgrwt>
<rscale>  0 0.12500020E+03</rscale>
<asrwt>0</asrwt>
<pdfrwt beam="1">  1        4 0.18165103E-02 0.12500020E+03</pdfrwt>
<pdfrwt beam="2">  1       -4 0.13440133E+00 0.12500020E+03</pdfrwt>
<totfact> 0.80885485E+02</totfact>
</mgrwt>
</event>
<event>
 5    1  0.1423270E-002  0.1249979E+03  0.7818608E-02  0.1235073E+00
          4   -1    0    0  501    0  0.00000000000E+00  0.00000000000E+00  0.70156093201E+02  0.70167587341E+02  0.12700000000E+01 0. -1.
         -4   -1    0    0    0  501 -0.00000000000E+00 -0.00000000000E+00 -0.55654223575E+02  0.55668712054E+02  0.12700000000E+01 0. -1.
         25    2    1    2    0    0  0.00000000000E+00  0.00000000000E+00  0.14501869626E+02  0.12583629940E+03  0.12499788007E+03 0.  0.
    9000005    1    3    3    0    0 -0.10555084224E+02 -0.14638774305E+02 -0.52978564934E+02  0.55977065470E+02  0.10000000000E+01 0.  0.
    9000005    1    3    3    0    0  0.10555084224E+02  0.14638774305E+02  0.67480434561E+02  0.69859233925E+02  0.10000000000E+01 0.  0.
<mgrwt>
<rscale>  0 0.12499788E+03</rscale>
<asrwt>0</asrwt>
<pdfrwt beam="1">  1        4 0.17542271E-01 0.12499788E+03</pdfrwt>
<pdfrwt beam="2">  1       -4 0.13916804E-01 0.12499788E+03</pdfrwt>
<totfact> 0.19790750E+03</totfact>
</mgrwt>
</event>
<event>
 5    1  0.1423270E-002  0.1250036E+03  0.7818608E-02  0.1235064E+00
         -4   -1    0    0    0  501 -0.00000000000E+00  0.00000000000E+00  0.76954873556E+01  0.77995785553E+01  0.12700000000E+01 0. -1.
          4   -1    0    0  501    0  0.00000000000E+00 -0.00000000000E+00 -0.50411694838E+03  0.50411854810E+03  0.12700000000E+01 0. -1.
         25    2    1    2    0    0  0.00000000000E+00  0.00000000000E+00 -0.49642146102E+03  0.51191812666E+03  0.12500360570E+03 0.  0.
    9000005    1    3    3    0    0  0.50883061947E+02  0.35138546273E+02 -0.21120113123E+03  0.22006980997E+03  0.10000000000E+01 0.  0.
    9000005    1    3    3    0    0 -0.50883061947E+02 -0.35138546273E+02 -0.28522032979E+03  0.29184831669E+03  0.10000000000E+01 0.  0.
<mgrwt>
<rscale>  0 0.12500361E+03</rscale>
<asrwt>0</asrwt>
<pdfrwt beam="2">  1        4 0.12604234E+00 0.12500361E+03</pdfrwt>
<pdfrwt beam="1">  1       -4 0.19370849E-02 0.12500361E+03</pdfrwt>
<totfact> 0.85734942E+02</totfact>
</mgrwt>
</event>
<event>
 5    1  0.1423270E-002  0.1250043E+03  0.7818608E-02  0.1235063E+00
         -4   -1    0    0    0  501 -0.00000000000E+00  0.00000000000E+00  0.10678475529E+03  0.10679230713E+03  0.12700000000E+01 0.  1.
          4   -1    0    0  501    0  0.00000000000E+00 -0.00000000000E+00 -0.36563226168E+02  0.36585275833E+02  0.12700000000E+01 0.  1.
         25    2    1    2    0    0  0.00000000000E+00  0.00000000000E+00  0.70221529124E+02  0.14337758297E+03  0.12500427251E+03 0.  0.
    9000005    1    3    3    0    0 -0.30118826410E+02 -0.27823613901E+02  0.89204285833E+02  0.98181983102E+02  0.10000000000E+01 0.  0.
    9000005    1    3    3    0    0  0.30118826410E+02  0.27823613901E+02 -0.18982756709E+02  0.45195599864E+02  0.10000000000E+01 0.  0.
<mgrwt>
<rscale>  0 0.12500427E+03</rscale>
<asrwt>0</asrwt>
<pdfrwt beam="2">  1        4 0.91445068E-02 0.12500427E+03</pdfrwt>
<pdfrwt beam="1">  1       -4 0.26699889E-01 0.12500427E+03</pdfrwt>
<totfact> 0.18866984E+03</totfact>
</mgrwt>
</event>
<event>
 5    1  0.1423270E-002  0.1250041E+03  0.7818608E-02  0.1235063E+00
         -4   -1    0    0    0  501 -0.00000000000E+00  0.00000000000E+00  0.19306084910E+03  0.19306502624E+03  0.12700000000E+01 0. -1.
          4   -1    0    0  501    0  0.00000000000E+00 -0.00000000000E+00 -0.20210244691E+02  0.20250108407E+02  0.12700000000E+01 0. -1.
         25    2    1    2    0    0  0.00000000000E+00  0.00000000000E+00  0.17285060441E+03  0.21331513465E+03  0.12500406083E+03 0.  0.
    9000005    1    3    3    0    0 -0.74183734527E+01  0.61840487590E+02  0.95164278476E+02  0.11373881513E+03  0.10000000000E+01 0.  0.
    9000005    1    3    3    0    0  0.74183734527E+01 -0.61840487590E+02  0.77686325936E+02  0.99576319512E+02  0.10000000000E+01 0.  0.
<mgrwt>
<rscale>  0 0.12500406E+03</rscale>
<asrwt>0</asrwt>
<pdfrwt beam="2">  1        4 0.50580663E-02 0.12500406E+03</pdfrwt>
<pdfrwt beam="1">  1       -4 0.48270717E-01 0.12500406E+03</pdfrwt>
<totfact> 0.15800929E+03</totfact>
</mgrwt>
</event>
<event>
 5    1  0.1423270E-002  0.1250034E+03  0.7818608E-02  0.1235064E+00
          4   -1    0    0  501    0  0.00000000000E+00  0.00000000000E+00  0.11232780413E+03  0.11233498333E+03  0.12700000000E+01 0. -1.
         -4   -1    0    0    0  501 -0.00000000000E+00 -0.00000000000E+00 -0.34757473717E+02  0.34780668182E+02  0.12700000000E+01 0. -1.
         25    2    1    2    0    0  0.00000000000E+00  0.00000000000E+00  0.77570330408E+02  0.14711565151E+03  0.12500343499E+03 0.  0.
    9000005    1    3    3    0    0 -0.57049044337E+02 -0.18518613656E+02  0.59437277098E+02  0.84447157562E+02  0.10000000000E+01 0.  0.
    9000005    1    3    3    0    0  0.57049044337E+02  0.18518613656E+02  0.18133053310E+02  0.62668493949E+02  0.10000000000E+01 0.  0.
<mgrwt>
<rscale>  0 0.12500343E+03</rscale>
<asrwt>0</asrwt>
<pdfrwt beam="1">  1        4 0.28085747E-01 0.12500343E+03</pdfrwt>
<pdfrwt beam="2">  1       -4 0.86931652E-02 0.12500343E+03</pdfrwt>
<totfact> 0.18680026E+03</totfact>
</mgrwt>
</event>
<event>
 5    1  0.1423270E-002  0.1249859E+03  0.7818608E-02  0.1235091E+00
          4   -1    0    0  501    0  0.00000000000E+00  0.00000000000E+00  0.30116515317E+01  0.32684774664E+01  0.12700000000E+01 0. -1.
         -4   -1    0    0    0  501 -0.00000000000E+00 -0.00000000000E+00 -0.12434643863E+04  0.12434650348E+04  0.12700000000E+01 0. -1.
         25    2    1    2    0    0  0.00000000000E+00  0.00000000000E+00 -0.12404527348E+04  0.12467335123E+04  0.12498585336E+03 0.  0.
    9000005    1    3    3    0    0 -0.26711205803E+02 -0.55714932498E+02 -0.52733366678E+03  0.53094202917E+03  0.10000000000E+01 0.  0.
    9000005    1    3    3    0    0  0.26711205803E+02  0.55714932498E+02 -0.71311906798E+03  0.71579148314E+03  0.10000000000E+01 0.  0.
<mgrwt>
<rscale>  0 0.12498585E+03</rscale>
<asrwt>0</asrwt>
<pdfrwt beam="1">  1        4 0.78510146E-03 0.12498585E+03</pdfrwt>
<pdfrwt beam="2">  1       -4 0.31089659E+00 0.12498585E+03</pdfrwt>
<totfact> 0.22842786E+02</totfact>
</mgrwt>
</event>
<event>
 5    1  0.1423270E-002  0.1249999E+03  0.7818608E-02  0.1235069E+00
         -4   -1    0    0    0  501 -0.00000000000E+00  0.00000000000E+00  0.49852939979E+03  0.49853101744E+03  0.12700000000E+01 0. -1.
          4   -1    0    0  501    0  0.00000000000E+00 -0.00000000000E+00 -0.77824297173E+01  0.78853733143E+01  0.12700000000E+01 0. -1.
         25    2    1    2    0    0  0.00000000000E+00  0.00000000000E+00  0.49074697007E+03  0.50641639076E+03  0.12499988878E+03 0.  0.
    9000005    1    3    3    0    0 -0.13612677893E+02 -0.43246931720E+02  0.71135900193E+02  0.84361830225E+02  0.10000000000E+01 0.  0.
    9000005    1    3    3    0    0  0.13612677893E+02  0.43246931720E+02  0.41961106988E+03  0.42205456053E+03  0.10000000000E+01 0.  0.
<mgrwt>
<rscale>  0 0.12499989E+03</rscale>
<asrwt>0</asrwt>
<pdfrwt beam="2">  1        4 0.19586775E-02 0.12499989E+03</pdfrwt>
<pdfrwt beam="1">  1       -4 0.12464542E+00 0.12499989E+03</pdfrwt>
<totfact> 0.86595552E+02</totfact>
</mgrwt>
</event>
<event>
 5    1  0.1423270E-002  0.1249971E+03  0.7818608E-02  0.1235074E+00
         -4   -1    0    0    0  501 -0.00000000000E+00  0.00000000000E+00  0.27218948138E+02  0.27248560287E+02  0.12700000000E+01 0. -1.
          4   -1    0    0  501    0  0.00000000000E+00 -0.00000000000E+00 -0.14339506828E+03  0.14340069214E+03  0.12700000000E+01 0. -1.
         25    2    1    2    0    0  0.00000000000E+00  0.00000000000E+00 -0.11617612014E+03  0.17064925243E+03  0.12499710582E+03 0.  0.
    9000005    1    3    3    0    0 -0.41036017662E+02  0.67387024731E+01  0.55921318442E+01  0.41971857180E+02  0.10000000000E+01 0.  0.
    9000005    1    3    3    0    0  0.41036017662E+02 -0.67387024731E+01 -0.12176825199E+03  0.12867739525E+03  0.10000000000E+01 0.  0.
<mgrwt>
<rscale>  0 0.12499711E+03</rscale>
<asrwt>0</asrwt>
<pdfrwt beam="2">  1        4 0.35853169E-01 0.12499711E+03</pdfrwt>
<pdfrwt beam="1">  1       -4 0.68091419E-02 0.12499711E+03</pdfrwt>
<totfact> 0.17568983E+03</totfact>
</mgrwt>
</event>
<event>
 5    1  0.1423270E-002  0.1249971E+03  0.7818608E-02  0.1235074E+00
          4   -1    0    0  501    0  0.00000000000E+00  0.00000000000E+00  0.16168994430E+02  0.16218794063E+02  0.12700000000E+01 0. -1.
         -4   -1    0    0    0  501 -0.00000000000E+00 -0.00000000000E+00 -0.24115465302E+03  0.24115799711E+03  0.12700000000E+01 0. -1.
         25    2    1    2    0    0  0.00000000000E+00  0.00000000000E+00 -0.22498565859E+03  0.25737679117E+03  0.12499706423E+03 0.  0.
    9000005    1    3    3    0    0  0.30591074702E+02  0.12526359799E+02 -0.22168807019E+03  0.22414130366E+03  0.10000000000E+01 0.  0.
    9000005    1    3    3    0    0 -0.30591074702E+02 -0.12526359799E+02 -0.32975883967E+01  0.33235487517E+02  0.10000000000E+01 0.  0.
<mgrwt>
<rscale>  0 0.12499706E+03</rscale>
<asrwt>0</asrwt>
<pdfrwt beam="1">  1        4 0.40488923E-02 0.12499706E+03</pdfrwt>
<pdfrwt beam="2">  1       -4 0.60295295E-01 0.12499706E+03</pdfrwt>
<totfact> 0.14256738E+03</totfact>
</mgrwt>
</event>
<event>
 5    1  0.1423270E-002  0.1249967E+03  0.7818608E-02  0.1235074E+00
          4   -1    0    0  501    0  0.00000000000E+00  0.00000000000E+00  0.38301980459E+02  0.38323029722E+02  0.12700000000E+01 0. -1.
         -4   -1    0    0    0  501 -0.00000000000E+00 -0.00000000000E+00 -0.10192715988E+03  0.10193507160E+03  0.12700000000E+01 0. -1.
         25    2    1    2    0    0  0.00000000000E+00  0.00000000000E+00 -0.63625179422E+02  0.14025810132E+03  0.12499668607E+03 0.  0.
    9000005    1    3    3    0    0 -0.27467956081E+02  0.98668803902E+01  0.30189597212E+02  0.42003044172E+02  0.10000000000E+01 0.  0.
    9000005    1    3    3    0    0  0.27467956081E+02 -0.98668803902E+01 -0.93814776634E+02  0.98255057147E+02  0.10000000000E+01 0.  0.
<mgrwt>
<rscale>  0 0.12499669E+03</rscale>
<asrwt>0</asrwt>
<pdfrwt beam="1">  1        4 0.95791155E-02 0.12499669E+03</pdfrwt>
<pdfrwt beam="2">  1       -4 0.25485410E-01 0.12499669E+03</pdfrwt>
<totfact> 0.19028616E+03</totfact>
</mgrwt>
</event>
<event>
 5    1  0.1423270E-002  0.1249970E+03  0.7818608E-02  0.1235074E+00
         -4   -1    0    0    0  501 -0.00000000000E+00  0.00000000000E+00  0.30790877199E+02  0.30817057268E+02  0.12700000000E+01 0.  1.
          4   -1    0    0  501    0  0.00000000000E+00 -0.00000000000E+00 -0.12677447290E+03  0.12678083404E+03  0.12700000000E+01 0.  1.
         25    2    1    2    0    0  0.00000000000E+00  0.00000000000E+00 -0.95983595706E+02  0.15759789131E+03  0.12499697877E+03 0.  0.
    9000005    1    3    3    0    0  0.61770707994E+02 -0.94511985941E+01 -0.47563020829E+02  0.78537802817E+02  0.10000000000E+01 0.  0.
    9000005    1    3    3    0    0 -0.61770707994E+02  0.94511985941E+01 -0.48420574876E+02  0.79060088492E+02  0.10000000000E+01 0.  0.
<mgrwt>
<rscale>  0 0.12499698E+03</rscale>
<asrwt>0</asrwt>
<pdfrwt beam="2">  1        4 0.31697685E-01 0.12499698E+03</pdfrwt>
<pdfrwt beam="1">  1       -4 0.77017873E-02 0.12499698E+03</pdfrwt>
<totfact> 0.18172667E+03</totfact>
</mgrwt>
</event>
<event>
 5    1  0.1423270E-002  0.1250003E+03  0.7818608E-02  0.1235069E+00
         -4   -1    0    0    0  501 -0.00000000000E+00  0.00000000000E+00  0.16162536531E+02  0.16212356002E+02  0.12700000000E+01 0.  1.
          4   -1    0    0  501    0  0.00000000000E+00 -0.00000000000E+00 -0.24126308566E+03  0.24126642825E+03  0.12700000000E+01 0.  1.
         25    2    1    2    0    0  0.00000000000E+00  0.00000000000E+00 -0.22510054913E+03  0.25747878425E+03  0.12500026849E+03 0.  0.
    9000005    1    3    3    0    0  0.25529814015E+02 -0.41731052199E+02 -0.32454702992E+02  0.58715925162E+02  0.10000000000E+01 0.  0.
    9000005    1    3    3    0    0 -0.25529814015E+02  0.41731052199E+02 -0.19264584614E+03  0.19876285909E+03  0.10000000000E+01 0.  0.
<mgrwt>
<rscale>  0 0.12500027E+03</rscale>
<asrwt>0</asrwt>
<pdfrwt beam="2">  1        4 0.60322405E-01 0.12500027E+03</pdfrwt>
<pdfrwt beam="1">  1       -4 0.40472802E-02 0.12500027E+03</pdfrwt>
<totfact> 0.14252383E+03</totfact>
</mgrwt>
</event>
<event>
 5    1  0.1423270E-002  0.1249982E+03  0.7818608E-02  0.1235072E+00
         -4   -1    0    0    0  501 -0.00000000000E+00  0.00000000000E+00  0.27140560105E+02  0.27170257687E+02  0.12700000000E+01 0.  1.
          4   -1    0    0  501    0  0.00000000000E+00 -0.00000000000E+00 -0.14381134199E+03  0.14381694958E+03  0.12700000000E+01 0.  1.
         25    2    1    2    0    0  0.00000000000E+00  0.00000000000E+00 -0.11667078189E+03  0.17098720727E+03  0.12499821480E+03 0.  0.
    9000005    1    3    3    0    0 -0.28148109034E+02 -0.14248268603E+02  0.15453684147E+02  0.35144637629E+02  0.10000000000E+01 0.  0.
    9000005    1    3    3    0    0  0.28148109034E+02  0.14248268603E+02 -0.13212446604E+03  0.13584256964E+03  0.10000000000E+01 0.  0.
<mgrwt>
<rscale>  0 0.12499821E+03</rscale>
<asrwt>0</asrwt>
<pdfrwt beam="2">  1        4 0.35957247E-01 0.12499821E+03</pdfrwt>
<pdfrwt beam="1">  1       -4 0.67895536E-02 0.12499821E+03</pdfrwt>
<totfact> 0.17553339E+03</totfact>
</mgrwt>
</event>
<event>
 5    1  0.1423270E-002  0.1250157E+03  0.7818608E-02  0.1235045E+00
         -4   -1    0    0    0  501 -0.00000000000E+00  0.00000000000E+00  0.18762460448E+02  0.18805393430E+02  0.12700000000E+01 0.  1.
          4   -1    0    0  501    0  0.00000000000E+00 -0.00000000000E+00 -0.20796452419E+03  0.20796840198E+03  0.12700000000E+01 0.  1.
         25    2    1    2    0    0  0.00000000000E+00  0.00000000000E+00 -0.18920206375E+03  0.22677379541E+03  0.12501573245E+03 0.  0.
    9000005    1    3    3    0    0  0.30039250743E+01  0.33397716630E+02 -0.19027445870E+03  0.19320921478E+03  0.10000000000E+01 0.  0.
    9000005    1    3    3    0    0 -0.30039250743E+01 -0.33397716630E+02  0.10723949570E+01  0.33564580630E+02  0.10000000000E+01 0.  0.
<mgrwt>
<rscale>  0 0.12501573E+03</rscale>
<asrwt>0</asrwt>
<pdfrwt beam="2">  1        4 0.51996975E-01 0.12501573E+03</pdfrwt>
<pdfrwt beam="1">  1       -4 0.46964671E-02 0.12501573E+03</pdfrwt>
<totfact> 0.15297731E+03</totfact>
</mgrwt>
</event>
<event>
 4    1  0.1423270E-002  0.1250612E+03  0.7818608E-02  0.1234974E+00
         -4   -1    0    0    0  501 -0.00000000000E+00  0.00000000000E+00  0.55908801880E+03  0.55908946124E+03  0.12700000000E+01 0. -1.
          4   -1    0    0  501    0  0.00000000000E+00 -0.00000000000E+00 -0.69345528444E+01  0.70498881659E+01  0.12700000000E+01 0. -1.
    9000005    1    1    2    0    0 -0.66952438145E+01  0.26101304377E+02  0.53147453659E+03  0.53215814136E+03  0.10000000000E+01 0.  0.
    9000005    1    1    2    0    0  0.66952438145E+01 -0.26101304377E+02  0.20678929370E+02  0.33981208039E+02  0.10000000000E+01 0.  0.
<mgrwt>
<rscale>  0 0.12506124E+03</rscale>
<asrwt>0</asrwt>
<pdfrwt beam="2">  1        4 0.17482355E-02 0.12506124E+03</pdfrwt>
<pdfrwt beam="1">  1       -4 0.13978660E+00 0.12506124E+03</pdfrwt>
<totfact> 0.77827486E+02</totfact>
</mgrwt>
</event>
<event>
 5    1  0.1423270E-002  0.1249996E+03  0.7818608E-02  0.1235070E+00
         -4   -1    0    0    0  501 -0.00000000000E+00  0.00000000000E+00  0.55254518717E+02  0.55269111977E+02  0.12700000000E+01 0.  1.
          4   -1    0    0  501    0  0.00000000000E+00 -0.00000000000E+00 -0.70665483735E+02  0.70676895033E+02  0.12700000000E+01 0.  1.
         25    2    1    2    0    0  0.00000000000E+00  0.00000000000E+00 -0.15410965018E+02  0.12594600701E+03  0.12499959536E+03 0.  0.
    9000005    1    3    3    0    0 -0.58113855850E+02 -0.60391396957E+00  0.15438844209E+02  0.60141024803E+02  0.10000000000E+01 0.  0.
    9000005    1    3    3    0    0  0.58113855850E+02  0.60391396957E+00 -0.30849809227E+02  0.65804982207E+02  0.10000000000E+01 0.  0.
<mgrwt>
<rscale>  0 0.12499960E+03</rscale>
<asrwt>0</asrwt>
<pdfrwt beam="2">  1        4 0.17669621E-01 0.12499960E+03</pdfrwt>
<pdfrwt beam="1">  1       -4 0.13816880E-01 0.12499960E+03</pdfrwt>
<totfact> 0.19784025E+03</totfact>
</mgrwt>
</event>
<event>
 5    1  0.1423270E-002  0.1249988E+03  0.7818608E-02  0.1235071E+00
          4   -1    0    0  501    0  0.00000000000E+00  0.00000000000E+00  0.72035162202E+03  0.72035274154E+03  0.12700000000E+01 0.  1.
         -4   -1    0    0    0  501 -0.00000000000E+00 -0.00000000000E+00 -0.53470941009E+01  0.54958452783E+01  0.12700000000E+01 0.  1.
         25    2    1    2    0    0  0.00000000000E+00  0.00000000000E+00  0.71500452792E+03  0.72584858682E+03  0.12499878417E+03 0.  0.
    9000005    1    3    3    0    0 -0.34171095123E+02 -0.48206901642E+02  0.47559769242E+03  0.47925539553E+03  0.10000000000E+01 0.  0.
    9000005    1    3    3    0    0  0.34171095123E+02  0.48206901642E+02  0.23940683550E+03  0.24659319129E+03  0.10000000000E+01 0.  0.
<mgrwt>
<rscale>  0 0.12499878E+03</rscale>
<asrwt>0</asrwt>
<pdfrwt beam="1">  1        4 0.18010663E+00 0.12499878E+03</pdfrwt>
<pdfrwt beam="2">  1       -4 0.13555074E-02 0.12499878E+03</pdfrwt>
<totfact> 0.59428757E+02</totfact>
</mgrwt>
</event>
<event>
 5    1  0.1423270E-002  0.1249929E+03  0.7818608E-02  0.1235080E+00
          4   -1    0    0  501    0  0.00000000000E+00  0.00000000000E+00  0.76513478756E+03  0.76513584156E+03  0.12700000000E+01 0. -1.
         -4   -1    0    0    0  501 -0.00000000000E+00 -0.00000000000E+00 -0.50246640809E+01  0.51826777949E+01  0.12700000000E+01 0. -1.
         25    2    1    2    0    0  0.00000000000E+00  0.00000000000E+00  0.76011012348E+03  0.77031851935E+03  0.12499288556E+03 0.  0.
    9000005    1    3    3    0    0 -0.33507228729E+02  0.49599219928E+02  0.49064233110E+03  0.49428100719E+03  0.10000000000E+01 0.  0.
    9000005    1    3    3    0    0  0.33507228729E+02 -0.49599219928E+02  0.26946779238E+03  0.27603751217E+03  0.10000000000E+01 0.  0.
<mgrwt>
<rscale>  0 0.12499289E+03</rscale>
<asrwt>0</asrwt>
<pdfrwt beam="1">  1        4 0.19130360E+00 0.12499289E+03</pdfrwt>
<pdfrwt beam="2">  1       -4 0.12760493E-02 0.12499289E+03</pdfrwt>
<totfact> 0.55172202E+02</totfact>
</mgrwt>
</event>
<event>
 5    1  0.1423270E-002  0.1250012E+03  0.7818608E-02  0.1235067E+00
          4   -1    0    0  501    0  0.00000000000E+00  0.00000000000E+00  0.77654802972E+02  0.77665187341E+02  0.12700000000E+01 0. -1.
         -4   -1    0    0    0  501 -0.00000000000E+00 -0.00000000000E+00 -0.50281908787E+02  0.50297944802E+02  0.12700000000E+01 0. -1.
         25    2    1    2    0    0  0.00000000000E+00  0.00000000000E+00  0.27372894185E+02  0.12796313214E+03  0.12500115140E+03 0.  0.
    9000005    1    3    3    0    0 -0.54672239288E+02 -0.29842538243E+02  0.84977010772E+01  0.62871629223E+02  0.10000000000E+01 0.  0.
    9000005    1    3    3    0    0  0.54672239288E+02  0.29842538243E+02  0.18875193107E+02  0.65091502920E+02  0.10000000000E+01 0.  0.
<mgrwt>
<rscale>  0 0.12500115E+03</rscale>
<asrwt>0</asrwt>
<pdfrwt beam="1">  1        4 0.19417003E-01 0.12500115E+03</pdfrwt>
<pdfrwt beam="2">  1       -4 0.12573780E-01 0.12500115E+03</pdfrwt>
<totfact> 0.19674011E+03</totfact>
</mgrwt>
</event>
<event>
 5    1  0.1423270E-002  0.1249985E+03  0.7818608E-02  0.1235072E+00
         -4   -1    0    0    0  501 -0.00000000000E+00  0.00000000000E+00  0.16942721013E+03  0.16943196992E+03  0.12700000000E+01 0. -1.
          4   -1    0    0  501    0  0.00000000000E+00 -0.00000000000E+00 -0.23032474566E+02  0.23067461600E+02  0.12700000000E+01 0. -1.
         25    2    1    2    0    0  0.00000000000E+00  0.00000000000E+00  0.14639473556E+03  0.19249943152E+03  0.12499845014E+03 0.  0.
    9000005    1    3    3    0    0 -0.15058728993E+02  0.58501152566E+02  0.48556992408E+02  0.77510848803E+02  0.10000000000E+01 0.  0.
    9000005    1    3    3    0    0  0.15058728993E+02 -0.58501152566E+02  0.97837743155E+02  0.11498858272E+03  0.10000000000E+01 0.  0.
<mgrwt>
<rscale>  0 0.12499845E+03</rscale>
<asrwt>0</asrwt>
<pdfrwt beam="2">  1        4 0.57630871E-02 0.12499845E+03</pdfrwt>
<pdfrwt beam="1">  1       -4 0.42361770E-01 0.12499845E+03</pdfrwt>
<totfact> 0.16627444E+03</totfact>
</mgrwt>
</event>
<event>
 5    1  0.1423270E-002  0.1249985E+03  0.7818608E-02  0.1235072E+00
          4   -1    0    0  501    0  0.00000000000E+00  0.00000000000E+00  0.30885110502E+03  0.30885371614E+03  0.12700000000E+01 0.  1.
         -4   -1    0    0    0  501 -0.00000000000E+00 -0.00000000000E+00 -0.12612818178E+02  0.12676595852E+02  0.12700000000E+01 0.  1.
         25    2    1    2    0    0  0.00000000000E+00  0.00000000000E+00  0.29623828684E+03  0.32153031199E+03  0.12499847574E+03 0.  0.
    9000005    1    3    3    0    0 -0.97608805874E+01 -0.55927514002E+02  0.80944216579E+02  0.98874303081E+02  0.10000000000E+01 0.  0.
    9000005    1    3    3    0    0  0.97608805874E+01  0.55927514002E+02  0.21529407026E+03  0.22265600891E+03  0.10000000000E+01 0.  0.
<mgrwt>
<rscale>  0 0.12499848E+03</rscale>
<asrwt>0</asrwt>
<pdfrwt beam="1">  1        4 0.77221076E-01 0.12499848E+03</pdfrwt>
<pdfrwt beam="2">  1       -4 0.31615031E-02 0.12499848E+03</pdfrwt>
<totfact> 0.12388815E+03</totfact>
</mgrwt>
</event>
<event>
 5    1  0.1423270E-002  0.1249987E+03  0.7818608E-02  0.1235071E+00
          4   -1    0    0  501    0  0.00000000000E+00  0.00000000000E+00  0.28596359916E+03  0.28596641926E+03  0.12700000000E+01 0.  1.
         -4   -1    0    0    0  501 -0.00000000000E+00 -0.00000000000E+00 -0.13627268784E+02  0.13686319977E+02  0.12700000000E+01 0.  1.
         25    2    1    2    0    0  0.00000000000E+00  0.00000000000E+00  0.27233633038E+03  0.29965273924E+03  0.12499874915E+03 0.  0.
    9000005    1    3    3    0    0 -0.41120147366E+02 -0.41866581125E+02  0.18766682630E+03  0.19663040159E+03  0.10000000000E+01 0.  0.
    9000005    1    3    3    0    0  0.41120147366E+02  0.41866581125E+02  0.84669504077E+02  0.10302233765E+03  0.10000000000E+01 0.  0.
<mgrwt>
<rscale>  0 0.12499875E+03</rscale>
<asrwt>0</asrwt>
<pdfrwt beam="1">  1        4 0.71498636E-01 0.12499875E+03</pdfrwt>
<pdfrwt beam="2">  1       -4 0.34145510E-02 0.12499875E+03</pdfrwt>
<totfact> 0.12981166E+03</totfact>
</mgrwt>
</event>
<event>
 5    1  0.1423270E-002  0.1250090E+03  0.7818608E-02  0.1235055E+00
         -4   -1    0    0    0  501 -0.00000000000E+00  0.00000000000E+00  0.15676128422E+03  0.15676642858E+03  0.12700000000E+01 0.  1.
          4   -1    0    0  501    0  0.00000000000E+00 -0.00000000000E+00 -0.24900295478E+02  0.24932661609E+02  0.12700000000E+01 0.  1.
         25    2    1    2    0    0  0.00000000000E+00  0.00000000000E+00  0.13186098874E+03  0.18169909019E+03  0.12500895577E+03 0.  0.
    9000005    1    3    3    0    0 -0.35507737931E+02 -0.47479026890E+02  0.37198723029E+02  0.69998588860E+02  0.10000000000E+01 0.  0.
    9000005    1    3    3    0    0  0.35507737931E+02  0.47479026890E+02  0.94662265709E+02  0.11170050133E+03  0.10000000000E+01 0.  0.
<mgrwt>
<rscale>  0 0.12500896E+03</rscale>
<asrwt>0</asrwt>
<pdfrwt beam="2">  1        4 0.62297628E-02 0.12500896E+03</pdfrwt>
<pdfrwt beam="1">  1       -4 0.39195009E-01 0.12500896E+03</pdfrwt>
<totfact> 0.17078377E+03</totfact>
</mgrwt>
</event>
<event>
 5    1  0.1423270E-002  0.1250007E+03  0.7818608E-02  0.1235068E+00
          4   -1    0    0  501    0  0.00000000000E+00  0.00000000000E+00  0.36575329836E+01  0.38717499307E+01  0.12700000000E+01 0. -1.
         -4   -1    0    0    0  501 -0.00000000000E+00 -0.00000000000E+00 -0.10374115892E+04  0.10374123666E+04  0.12700000000E+01 0. -1.
         25    2    1    2    0    0  0.00000000000E+00  0.00000000000E+00 -0.10337540562E+04  0.10412841165E+04  0.12500065011E+03 0.  0.
    9000005    1    3    3    0    0 -0.54449963437E+02 -0.30037277192E+02 -0.46535464732E+03  0.46949226226E+03  0.10000000000E+01 0.  0.
    9000005    1    3    3    0    0  0.54449963437E+02  0.30037277192E+02 -0.56839940891E+03  0.57179185425E+03  0.10000000000E+01 0.  0.
<mgrwt>
<rscale>  0 0.12500065E+03</rscale>
<asrwt>0</asrwt>
<pdfrwt beam="1">  1        4 0.94126109E-03 0.12500065E+03</pdfrwt>
<pdfrwt beam="2">  1       -4 0.25937879E+00 0.12500065E+03</pdfrwt>
<totfact> 0.34401682E+02</totfact>
</mgrwt>
</event>
<event>
 5    1  0.1423270E-002  0.1249990E+03  0.7818608E-02  0.1235071E+00
          4   -1    0    0  501    0  0.00000000000E+00  0.00000000000E+00  0.47246609182E+01  0.48923737379E+01  0.12700000000E+01 0. -1.
         -4   -1    0    0    0  501 -0.00000000000E+00 -0.00000000000E+00 -0.81217984633E+03  0.81218083928E+03  0.12700000000E+01 0. -1.
         25    2    1    2    0    0  0.00000000000E+00  0.00000000000E+00 -0.80745518542E+03  0.81707321302E+03  0.12499903589E+03 0.  0.
    9000005    1    3    3    0    0  0.14755018056E+02 -0.50873148531E+02 -0.18699084120E+03  0.19435113196E+03  0.10000000000E+01 0.  0.
    9000005    1    3    3    0    0 -0.14755018056E+02  0.50873148531E+02 -0.62046434421E+03  0.62272208106E+03  0.10000000000E+01 0.  0.
<mgrwt>
<rscale>  0 0.12499904E+03</rscale>
<asrwt>0</asrwt>
<pdfrwt beam="1">  1        4 0.12022562E-02 0.12499904E+03</pdfrwt>
<pdfrwt beam="2">  1       -4 0.20306558E+00 0.12499904E+03</pdfrwt>
<totfact> 0.50992147E+02</totfact>
</mgrwt>
</event>
<event>
 5    1  0.1423270E-002  0.1249996E+03  0.7818608E-02  0.1235070E+00
          4   -1    0    0  501    0  0.00000000000E+00  0.00000000000E+00  0.16849392199E+03  0.16849870814E+03  0.12700000000E+01 0. -1.
         -4   -1    0    0    0  501 -0.00000000000E+00 -0.00000000000E+00 -0.23160653517E+02  0.23195447211E+02  0.12700000000E+01 0. -1.
         25    2    1    2    0    0  0.00000000000E+00  0.00000000000E+00  0.14533326847E+03  0.19169415536E+03  0.12499956109E+03 0.  0.
    9000005    1    3    3    0    0  0.41789487709E+02 -0.20860428775E+02  0.13633617285E+03  0.14411825283E+03  0.10000000000E+01 0.  0.
    9000005    1    3    3    0    0 -0.41789487709E+02  0.20860428775E+02  0.89970956229E+01  0.47575902527E+02  0.10000000000E+01 0.  0.
<mgrwt>
<rscale>  0 0.12499956E+03</rscale>
<asrwt>0</asrwt>
<pdfrwt beam="1">  1        4 0.42128427E-01 0.12499956E+03</pdfrwt>
<pdfrwt beam="2">  1       -4 0.57951110E-02 0.12499956E+03</pdfrwt>
<totfact> 0.16660282E+03</totfact>
</mgrwt>
</event>
<event>
 5    1  0.1423270E-002  0.1250006E+03  0.7818608E-02  0.1235068E+00
         -4   -1    0    0    0  501 -0.00000000000E+00  0.00000000000E+00  0.44170907588E+02  0.44189161308E+02  0.12700000000E+01 0.  1.
          4   -1    0    0  501    0  0.00000000000E+00 -0.00000000000E+00 -0.88394712524E+02  0.88403835337E+02  0.12700000000E+01 0.  1.
         25    2    1    2    0    0  0.00000000000E+00  0.00000000000E+00 -0.44223804937E+02  0.13259299665E+03  0.12500063134E+03 0.  0.
    9000005    1    3    3    0    0  0.36204202280E+02 -0.29696878777E+02  0.21785770162E+02  0.51655286790E+02  0.10000000000E+01 0.  0.
    9000005    1    3    3    0    0 -0.36204202280E+02  0.29696878777E+02 -0.66009575099E+02  0.80937709855E+02  0.10000000000E+01 0.  0.
<mgrwt>
<rscale>  0 0.12500063E+03</rscale>
<asrwt>0</asrwt>
<pdfrwt beam="2">  1        4 0.22102100E-01 0.12500063E+03</pdfrwt>
<pdfrwt beam="1">  1       -4 0.11046149E-01 0.12500063E+03</pdfrwt>
<totfact> 0.19425683E+03</totfact>
</mgrwt>
</event>
<event>
 5    1  0.1423270E-002  0.1249986E+03  0.7818608E-02  0.1235071E+00
          4   -1    0    0  501    0  0.00000000000E+00  0.00000000000E+00  0.41123640593E+03  0.41123836696E+03  0.12700000000E+01 0.  1.
         -4   -1    0    0    0  501 -0.00000000000E+00 -0.00000000000E+00 -0.94541350000E+01  0.95390549112E+01  0.12700000000E+01 0.  1.
         25    2    1    2    0    0  0.00000000000E+00  0.00000000000E+00  0.40178227093E+03  0.42077742187E+03  0.12499858209E+03 0.  0.
    9000005    1    3    3    0    0  0.97180642908E+00  0.33007606669E+02  0.22298088895E+02  0.39857888481E+02  0.10000000000E+01 0.  0.
    9000005    1    3    3    0    0 -0.97180642908E+00 -0.33007606669E+02  0.37948418203E+03  0.38091953339E+03  0.10000000000E+01 0.  0.
<mgrwt>
<rscale>  0 0.12499858E+03</rscale>
<asrwt>0</asrwt>
<pdfrwt beam="1">  1        4 0.10281995E+00 0.12499858E+03</pdfrwt>
<pdfrwt beam="2">  1       -4 0.23743941E-02 0.12499858E+03</pdfrwt>
<totfact> 0.10151161E+03</totfact>
</mgrwt>
</event>
<event>
 5    1  0.1423270E-002  0.1249972E+03  0.7818608E-02  0.1235074E+00
          4   -1    0    0  501    0  0.00000000000E+00  0.00000000000E+00  0.46203310031E+02  0.46220761112E+02  0.12700000000E+01 0.  1.
         -4   -1    0    0    0  501 -0.00000000000E+00 -0.00000000000E+00 -0.84502795671E+02  0.84512338603E+02  0.12700000000E+01 0.  1.
         25    2    1    2    0    0  0.00000000000E+00  0.00000000000E+00 -0.38299485640E+02  0.13073309972E+03  0.12499717101E+03 0.  0.
    9000005    1    3    3    0    0  0.36134869758E+02 -0.28421325843E+02 -0.63419035425E+02  0.78335653628E+02  0.10000000000E+01 0.  0.
    9000005    1    3    3    0    0 -0.36134869758E+02  0.28421325843E+02  0.25119549785E+02  0.52397446088E+02  0.10000000000E+01 0.  0.
<mgrwt>
<rscale>  0 0.12499717E+03</rscale>
<asrwt>0</asrwt>
<pdfrwt beam="1">  1        4 0.11554202E-01 0.12499717E+03</pdfrwt>
<pdfrwt beam="2">  1       -4 0.21129073E-01 0.12499717E+03</pdfrwt>
<totfact> 0.19526342E+03</totfact>
</mgrwt>
</event>
<event>
 5    1  0.1423270E-002  0.1250000E+03  0.7818608E-02  0.1235069E+00
         -4   -1    0    0    0  501 -0.00000000000E+00  0.00000000000E+00  0.27994355382E+02  0.28023148169E+02  0.12700000000E+01 0. -1.
          4   -1    0    0  501    0  0.00000000000E+00 -0.00000000000E+00 -0.13943375065E+03  0.13943953428E+03  0.12700000000E+01 0. -1.
         25    2    1    2    0    0  0.00000000000E+00  0.00000000000E+00 -0.11143939527E+03  0.16746268245E+03  0.12500004478E+03 0.  0.
    9000005    1    3    3    0    0 -0.26291909787E+02  0.30155327089E+01 -0.13156256903E+03  0.13420159287E+03  0.10000000000E+01 0.  0.
    9000005    1    3    3    0    0  0.26291909787E+02 -0.30155327089E+01  0.20123173765E+02  0.33261089581E+02  0.10000000000E+01 0.  0.
<mgrwt>
<rscale>  0 0.12500004E+03</rscale>
<asrwt>0</asrwt>
<pdfrwt beam="2">  1        4 0.34862758E-01 0.12500004E+03</pdfrwt>
<pdfrwt beam="1">  1       -4 0.70029113E-02 0.12500004E+03</pdfrwt>
<totfact> 0.17712084E+03</totfact>
</mgrwt>
</event>
<event>
 5    1  0.1423270E-002  0.1250006E+03  0.7818608E-02  0.1235068E+00
         -4   -1    0    0    0  501 -0.00000000000E+00  0.00000000000E+00  0.34836310017E+03  0.34836541513E+03  0.12700000000E+01 0.  1.
          4   -1    0    0  501    0  0.00000000000E+00 -0.00000000000E+00 -0.11174937640E+02  0.11246872065E+02  0.12700000000E+01 0.  1.
         25    2    1    2    0    0  0.00000000000E+00  0.00000000000E+00  0.33718816253E+03  0.35961228720E+03  0.12500056061E+03 0.  0.
    9000005    1    3    3    0    0  0.25847815091E+02 -0.43997017697E+02  0.64809152646E+02  0.82492868649E+02  0.10000000000E+01 0.  0.
    9000005    1    3    3    0    0 -0.25847815091E+02  0.43997017697E+02  0.27237900988E+03  0.27711941855E+03  0.10000000000E+01 0.  0.
<mgrwt>
<rscale>  0 0.12500056E+03</rscale>
<asrwt>0</asrwt>
<pdfrwt beam="2">  1        4 0.28030155E-02 0.12500056E+03</pdfrwt>
<pdfrwt beam="1">  1       -4 0.87100059E-01 0.12500056E+03</pdfrwt>
<totfact> 0.11451226E+03</totfact>
</mgrwt>
</event>
<event>
 5    1  0.1423270E-002  0.1249880E+03  0.7818608E-02  0.1235088E+00
         -4   -1    0    0    0  501 -0.00000000000E+00  0.00000000000E+00  0.38570175694E+02  0.38591078672E+02  0.12700000000E+01 0. -1.
          4   -1    0    0  501    0  0.00000000000E+00 -0.00000000000E+00 -0.10120468307E+03  0.10121265126E+03  0.12700000000E+01 0. -1.
         25    2    1    2    0    0  0.00000000000E+00  0.00000000000E+00 -0.62634507377E+02  0.13980372994E+03  0.12498800498E+03 0.  0.
    9000005    1    3    3    0    0 -0.17661511500E+02 -0.59346056344E+02 -0.21917750125E+02  0.65690723565E+02  0.10000000000E+01 0.  0.
    9000005    1    3    3    0    0  0.17661511500E+02  0.59346056344E+02 -0.40716757252E+02  0.74113006370E+02  0.10000000000E+01 0.  0.
<mgrwt>
<rscale>  0 0.12498800E+03</rscale>
<asrwt>0</asrwt>
<pdfrwt beam="2">  1        4 0.25304779E-01 0.12498800E+03</pdfrwt>
<pdfrwt beam="1">  1       -4 0.96461530E-02 0.12498800E+03</pdfrwt>
<totfact> 0.19055717E+03</totfact>
</mgrwt>
</event>
<event>
 5    1  0.1423270E-002  0.1250018E+03  0.7818608E-02  0.1235066E+00
         -4   -1    0    0    0  501 -0.00000000000E+00  0.00000000000E+00  0.62325701444E+02  0.62338639386E+02  0.12700000000E+01 0. -1.
          4   -1    0    0  501    0  0.00000000000E+00 -0.00000000000E+00 -0.62650704014E+02  0.62663574854E+02  0.12700000000E+01 0. -1.
         25    2    1    2    0    0  0.00000000000E+00  0.00000000000E+00 -0.32500257028E+00  0.12500221424E+03  0.12500179174E+03 0.  0.
    9000005    1    3    3    0    0 -0.11518372612E+02  0.13765525945E+01  0.61244498887E+02  0.62341450485E+02  0.10000000000E+01 0.  0.
    9000005    1    3    3    0    0  0.11518372612E+02 -0.13765525945E+01 -0.61569501457E+02  0.62660763755E+02  0.10000000000E+01 0.  0.
<mgrwt>
<rscale>  0 0.12500179E+03</rscale>
<asrwt>0</asrwt>
<pdfrwt beam="2">  1        4 0.15665902E-01 0.12500179E+03</pdfrwt>
<pdfrwt beam="1">  1       -4 0.15584651E-01 0.12500179E+03</pdfrwt>
<totfact> 0.19834104E+03</totfact>
</mgrwt>
</event>
<event>
 5    1  0.1423270E-002  0.1249977E+03  0.7818608E-02  0.1235073E+00
          4   -1    0    0  501    0  0.00000000000E+00  0.00000000000E+00  0.55793580752E+03  0.55793725293E+03  0.12700000000E+01 0.  1.
         -4   -1    0    0    0  501 -0.00000000000E+00 -0.00000000000E+00 -0.69419360432E+01  0.70571507017E+01  0.12700000000E+01 0.  1.
         25    2    1    2    0    0  0.00000000000E+00  0.00000000000E+00  0.55099387148E+03  0.56499440364E+03  0.12499771892E+03 0.  0.
    9000005    1    3    3    0    0  0.21201069001E+02  0.56524522153E+02  0.20252939942E+03  0.21133779728E+03  0.10000000000E+01 0.  0.
    9000005    1    3    3    0    0 -0.21201069001E+02 -0.56524522153E+02  0.34846447206E+03  0.35365660635E+03  0.10000000000E+01 0.  0.
<mgrwt>
<rscale>  0 0.12499772E+03</rscale>
<asrwt>0</asrwt>
<pdfrwt beam="1">  1        4 0.13949855E+00 0.12499772E+03</pdfrwt>
<pdfrwt beam="2">  1       -4 0.17500663E-02 0.12499772E+03</pdfrwt>
<totfact> 0.78095593E+02</totfact>
</mgrwt>
</event>
<event>
 5    1  0.1423270E-002  0.1249996E+03  0.7818608E-02  0.1235070E+00
          4   -1    0    0  501    0  0.00000000000E+00  0.00000000000E+00  0.32697162847E+02  0.32721817771E+02  0.12700000000E+01 0.  1.
         -4   -1    0    0    0  501 -0.00000000000E+00 -0.00000000000E+00 -0.11939370559E+03  0.11940045994E+03  0.12700000000E+01 0.  1.
         25    2    1    2    0    0  0.00000000000E+00  0.00000000000E+00 -0.86696542741E+02  0.15212227771E+03  0.12499958741E+03 0.  0.
    9000005    1    3    3    0    0  0.17311239090E+02 -0.40157242534E+02  0.10980698472E+02  0.45098324422E+02  0.10000000000E+01 0.  0.
    9000005    1    3    3    0    0 -0.17311239090E+02  0.40157242534E+02 -0.97677241213E+02  0.10702395329E+03  0.10000000000E+01 0.  0.
<mgrwt>
<rscale>  0 0.12499959E+03</rscale>
<asrwt>0</asrwt>
<pdfrwt beam="1">  1        4 0.81782172E-02 0.12499959E+03</pdfrwt>
<pdfrwt beam="2">  1       -4 0.29852351E-01 0.12499959E+03</pdfrwt>
<totfact> 0.18435095E+03</totfact>
</mgrwt>
</event>
<event>
 5    1  0.1423270E-002  0.1249974E+03  0.7818608E-02  0.1235073E+00
          4   -1    0    0  501    0  0.00000000000E+00  0.00000000000E+00  0.53823181084E+03  0.53823330917E+03  0.12700000000E+01 0.  1.
         -4   -1    0    0    0  501 -0.00000000000E+00 -0.00000000000E+00 -0.72001745811E+01  0.73113209476E+01  0.12700000000E+01 0.  1.
         25    2    1    2    0    0  0.00000000000E+00  0.00000000000E+00  0.53103163626E+03  0.54554463012E+03  0.12499737894E+03 0.  0.
    9000005    1    3    3    0    0  0.48037485549E+02 -0.35632176853E+02  0.18649228041E+03  0.19585102169E+03  0.10000000000E+01 0.  0.
    9000005    1    3    3    0    0 -0.48037485549E+02  0.35632176853E+02  0.34453935585E+03  0.34969360843E+03  0.10000000000E+01 0.  0.
<mgrwt>
<rscale>  0 0.12499738E+03</rscale>
<asrwt>0</asrwt>
<pdfrwt beam="1">  1        4 0.13457199E+00 0.12499738E+03</pdfrwt>
<pdfrwt beam="2">  1       -4 0.18141248E-02 0.12499738E+03</pdfrwt>
<totfact> 0.80795738E+02</totfact>
</mgrwt>
</event>
<event>
 5    1  0.1423270E-002  0.1250080E+03  0.7818608E-02  0.1235057E+00
         -4   -1    0    0    0  501 -0.00000000000E+00  0.00000000000E+00  0.15625988682E+02  0.15677513269E+02  0.12700000000E+01 0.  1.
          4   -1    0    0  501    0  0.00000000000E+00 -0.00000000000E+00 -0.24955139719E+03  0.24955462877E+03  0.12700000000E+01 0.  1.
         25    2    1    2    0    0  0.00000000000E+00  0.00000000000E+00 -0.23392540851E+03  0.26523214204E+03  0.12500796944E+03 0.  0.
    9000005    1    3    3    0    0  0.62425121763E+02  0.39087773387E+00 -0.12322070242E+03  0.13813540501E+03  0.10000000000E+01 0.  0.
    9000005    1    3    3    0    0 -0.62425121763E+02 -0.39087773387E+00 -0.11070470609E+03  0.12709673702E+03  0.10000000000E+01 0.  0.
<mgrwt>
<rscale>  0 0.12500797E+03</rscale>
<asrwt>0</asrwt>
<pdfrwt beam="2">  1        4 0.62394681E-01 0.12500797E+03</pdfrwt>
<pdfrwt beam="1">  1       -4 0.39133425E-02 0.12500797E+03</pdfrwt>
<totfact> 0.14002106E+03</totfact>
</mgrwt>
</event>
<event>
 5    1  0.1423270E-002  0.1250009E+03  0.7818608E-02  0.1235068E+00
         -4   -1    0    0    0  501 -0.00000000000E+00  0.00000000000E+00  0.80009951298E+02  0.80020030034E+02  0.12700000000E+01 0.  1.
          4   -1    0    0  501    0  0.00000000000E+00 -0.00000000000E+00 -0.48801353205E+02  0.48817875564E+02  0.12700000000E+01 0.  1.
         25    2    1    2    0    0  0.00000000000E+00  0.00000000000E+00  0.31208598093E+02  0.12883790560E+03  0.12500091729E+03 0.  0.
    9000005    1    3    3    0    0 -0.83474562989E+00 -0.39901767852E+02 -0.33959834619E+02  0.52412958754E+02  0.10000000000E+01 0.  0.
    9000005    1    3    3    0    0  0.83474562989E+00  0.39901767852E+02  0.65168432712E+02  0.76424946845E+02  0.10000000000E+01 0.  0.
<mgrwt>
<rscale>  0 0.12500092E+03</rscale>
<asrwt>0</asrwt>
<pdfrwt beam="2">  1        4 0.12203664E-01 0.12500092E+03</pdfrwt>
<pdfrwt beam="1">  1       -4 0.20005813E-01 0.12500092E+03</pdfrwt>
<totfact> 0.19626644E+03</totfact>
</mgrwt>
</event>
<event>
 5    1  0.1423270E-002  0.1250006E+03  0.7818608E-02  0.1235068E+00
         -4   -1    0    0    0  501 -0.00000000000E+00  0.00000000000E+00  0.35158063774E+03  0.35158293152E+03  0.12700000000E+01 0.  1.
          4   -1    0    0  501    0  0.00000000000E+00 -0.00000000000E+00 -0.11072021175E+02  0.11144619908E+02  0.12700000000E+01 0.  1.
         25    2    1    2    0    0  0.00000000000E+00  0.00000000000E+00  0.34050861657E+03  0.36272755143E+03  0.12500063443E+03 0.  0.
    9000005    1    3    3    0    0 -0.47553108204E+02  0.38611493243E+02  0.13434405067E+03  0.14765320674E+03  0.10000000000E+01 0.  0.
    9000005    1    3    3    0    0  0.47553108204E+02 -0.38611493243E+02  0.20616456590E+03  0.21507434469E+03  0.10000000000E+01 0.  0.
<mgrwt>
<rscale>  0 0.12500063E+03</rscale>
<asrwt>0</asrwt>
<pdfrwt beam="2">  1        4 0.27773668E-02 0.12500063E+03</pdfrwt>
<pdfrwt beam="1">  1       -4 0.87904522E-01 0.12500063E+03</pdfrwt>
<totfact> 0.11379376E+03</totfact>
</mgrwt>
</event>
<event>
 5    1  0.1423270E-002  0.1249999E+03  0.7818608E-02  0.1235069E+00
          4   -1    0    0  501    0  0.00000000000E+00  0.00000000000E+00  0.19132050749E+03  0.19132472262E+03  0.12700000000E+01 0. -1.
         -4   -1    0    0    0  501 -0.00000000000E+00 -0.00000000000E+00 -0.20393098217E+02  0.20432605191E+02  0.12700000000E+01 0. -1.
         25    2    1    2    0    0  0.00000000000E+00  0.00000000000E+00  0.17092740927E+03  0.21175732781E+03  0.12499994657E+03 0.  0.
    9000005    1    3    3    0    0  0.16757578714E+02 -0.56614640469E+02  0.12014903509E+03  0.13387615394E+03  0.10000000000E+01 0.  0.
    9000005    1    3    3    0    0 -0.16757578714E+02  0.56614640469E+02  0.50778374185E+02  0.77881173878E+02  0.10000000000E+01 0.  0.
<mgrwt>
<rscale>  0 0.12499995E+03</rscale>
<asrwt>0</asrwt>
<pdfrwt beam="1">  1        4 0.47835592E-01 0.12499995E+03</pdfrwt>
<pdfrwt beam="2">  1       -4 0.51037398E-02 0.12499995E+03</pdfrwt>
<totfact> 0.15861859E+03</totfact>
</mgrwt>
</event>
<event>
 5    1  0.1423270E-002  0.1250125E+03  0.7818608E-02  0.1235050E+00
         -4   -1    0    0    0  501 -0.00000000000E+00  0.00000000000E+00  0.41102531734E+02  0.41122147500E+02  0.12700000000E+01 0.  1.
          4   -1    0    0  501    0  0.00000000000E+00 -0.00000000000E+00 -0.95009139132E+02  0.95017626884E+02  0.12700000000E+01 0.  1.
         25    2    1    2    0    0  0.00000000000E+00  0.00000000000E+00 -0.53906607398E+02  0.13613977438E+03  0.12501246277E+03 0.  0.
    9000005    1    3    3    0    0  0.58670298716E+02 -0.16586687751E+02 -0.11993513920E+02  0.62146331655E+02  0.10000000000E+01 0.  0.
    9000005    1    3    3    0    0 -0.58670298716E+02  0.16586687751E+02 -0.41913093478E+02  0.73993442729E+02  0.10000000000E+01 0.  0.
<mgrwt>
<rscale>  0 0.12501246E+03</rscale>
<asrwt>0</asrwt>
<pdfrwt beam="2">  1        4 0.23755797E-01 0.12501246E+03</pdfrwt>
<pdfrwt beam="1">  1       -4 0.10279146E-01 0.12501246E+03</pdfrwt>
<totfact> 0.19234010E+03</totfact>
</mgrwt>
</event>
<event>
 5    1  0.1423270E-002  0.1249992E+03  0.7818608E-02  0.1235071E+00
         -4   -1    0    0    0  501 -0.00000000000E+00  0.00000000000E+00  0.33964674615E+02  0.33988410109E+02  0.12700000000E+01 0.  1.
          4   -1    0    0  501    0  0.00000000000E+00 -0.00000000000E+00 -0.11494033428E+03  0.11494735032E+03  0.12700000000E+01 0.  1.
         25    2    1    2    0    0  0.00000000000E+00  0.00000000000E+00 -0.80975659669E+02  0.14893576043E+03  0.12499921310E+03 0.  0.
    9000005    1    3    3    0    0 -0.28922950863E+02 -0.38955747828E+02  0.64381650641E+01  0.48954441523E+02  0.10000000000E+01 0.  0.
    9000005    1    3    3    0    0  0.28922950863E+02  0.38955747828E+02 -0.87413824733E+02  0.99981318905E+02  0.10000000000E+01 0.  0.
<mgrwt>
<rscale>  0 0.12499921E+03</rscale>
<asrwt>0</asrwt>
<pdfrwt beam="2">  1        4 0.28738927E-01 0.12499921E+03</pdfrwt>
<pdfrwt beam="1">  1       -4 0.84950129E-02 0.12499921E+03</pdfrwt>
<totfact> 0.18591574E+03</totfact>
</mgrwt>
</event>
<event>
 5    1  0.1423270E-002  0.1250013E+03  0.7818608E-02  0.1235067E+00
          4   -1    0    0  501    0  0.00000000000E+00  0.00000000000E+00  0.29991513099E+01  0.32569630915E+01  0.12700000000E+01 0.  1.
         -4   -1    0    0    0  501 -0.00000000000E+00 -0.00000000000E+00 -0.12485461668E+04  0.12485468127E+04  0.12700000000E+01 0.  1.
         25    2    1    2    0    0  0.00000000000E+00  0.00000000000E+00 -0.12455470154E+04  0.12518037758E+04  0.12500130126E+03 0.  0.
    9000005    1    3    3    0    0 -0.50128383063E+02 -0.23145419113E+02 -0.91589851038E+03  0.91756179439E+03  0.10000000000E+01 0.  0.
    9000005    1    3    3    0    0  0.50128383063E+02  0.23145419113E+02 -0.32964850506E+03  0.33424198136E+03  0.10000000000E+01 0.  0.
<mgrwt>
<rscale>  0 0.12500130E+03</rscale>
<asrwt>0</asrwt>
<pdfrwt beam="1">  1        4 0.78209932E-03 0.12500130E+03</pdfrwt>
<pdfrwt beam="2">  1       -4 0.31216714E+00 0.12500130E+03</pdfrwt>
<totfact> 0.22586811E+02</totfact>
</mgrwt>
</event>
<event>
 5    1  0.1423270E-002  0.1250002E+03  0.7818608E-02  0.1235069E+00
          4   -1    0    0  501    0  0.00000000000E+00  0.00000000000E+00  0.48500626238E+03  0.48500792514E+03  0.12700000000E+01 0. -1.
         -4   -1    0    0    0  501 -0.00000000000E+00 -0.00000000000E+00 -0.80022955503E+01  0.81024461784E+01  0.12700000000E+01 0. -1.
         25    2    1    2    0    0  0.00000000000E+00  0.00000000000E+00  0.47700396683E+03  0.49311037132E+03  0.12500021572E+03 0.  0.
    9000005    1    3    3    0    0 -0.24139031999E+02 -0.57170396237E+02  0.20948195278E+03  0.21848303278E+03  0.10000000000E+01 0.  0.
    9000005    1    3    3    0    0  0.24139031999E+02  0.57170396237E+02  0.26752201406E+03  0.27462733854E+03  0.10000000000E+01 0.  0.
<mgrwt>
<rscale>  0 0.12500022E+03</rscale>
<asrwt>0</asrwt>
<pdfrwt beam="1">  1        4 0.12126428E+00 0.12500022E+03</pdfrwt>
<pdfrwt beam="2">  1       -4 0.20133008E-02 0.12500022E+03</pdfrwt>
<totfact> 0.88712559E+02</totfact>
</mgrwt>
</event>
<event>
 5    1  0.1423270E-002  0.1249975E+03  0.7818608E-02  0.1235073E+00
         -4   -1    0    0    0  501 -0.00000000000E+00  0.00000000000E+00  0.44877998323E+02  0.44895964557E+02  0.12700000000E+01 0. -1.
          4   -1    0    0  501    0  0.00000000000E+00 -0.00000000000E+00 -0.86998094322E+02  0.87007363572E+02  0.12700000000E+01 0. -1.
         25    2    1    2    0    0  0.00000000000E+00  0.00000000000E+00 -0.42120095999E+02  0.13190332813E+03  0.12499754191E+03 0.  0.
    9000005    1    3    3    0    0 -0.53265881928E+02  0.72964361354E+01 -0.54672687037E+02  0.76685036778E+02  0.10000000000E+01 0.  0.
    9000005    1    3    3    0    0  0.53265881928E+02 -0.72964361354E+01  0.12552591038E+02  0.55218291350E+02  0.10000000000E+01 0.  0.
<mgrwt>
<rscale>  0 0.12499754E+03</rscale>
<asrwt>0</asrwt>
<pdfrwt beam="2">  1        4 0.21752928E-01 0.12499754E+03</pdfrwt>
<pdfrwt beam="1">  1       -4 0.11222904E-01 0.12499754E+03</pdfrwt>
<totfact> 0.19463713E+03</totfact>
</mgrwt>
</event>
<event>
 5    1  0.1423270E-002  0.1250100E+03  0.7818608E-02  0.1235054E+00
          4   -1    0    0  501    0  0.00000000000E+00  0.00000000000E+00  0.63587268522E+03  0.63587395348E+03  0.12700000000E+01 0.  1.
         -4   -1    0    0    0  501 -0.00000000000E+00 -0.00000000000E+00 -0.60771959321E+01  0.62084789117E+01  0.12700000000E+01 0.  1.
         25    2    1    2    0    0  0.00000000000E+00  0.00000000000E+00  0.62979548929E+03  0.64208243239E+03  0.12500996622E+03 0.  0.
    9000005    1    3    3    0    0 -0.31442606710E+02  0.42938971586E+02  0.48318187082E+03  0.48610504326E+03  0.10000000000E+01 0.  0.
    9000005    1    3    3    0    0  0.31442606710E+02 -0.42938971586E+02  0.14661361847E+03  0.15597738913E+03  0.10000000000E+01 0.  0.
<mgrwt>
<rscale>  0 0.12500997E+03</rscale>
<asrwt>0</asrwt>
<pdfrwt beam="1">  1        4 0.15898473E+00 0.12500997E+03</pdfrwt>
<pdfrwt beam="2">  1       -4 0.15358680E-02 0.12500997E+03</pdfrwt>
<totfact> 0.68408807E+02</totfact>
</mgrwt>
</event>
<event>
 5    1  0.1423270E-002  0.1249968E+03  0.7818608E-02  0.1235074E+00
         -4   -1    0    0    0  501 -0.00000000000E+00  0.00000000000E+00  0.41912887151E+02  0.41932123836E+02  0.12700000000E+01 0. -1.
          4   -1    0    0  501    0  0.00000000000E+00 -0.00000000000E+00 -0.93149575159E+02  0.93158232337E+02  0.12700000000E+01 0. -1.
         25    2    1    2    0    0  0.00000000000E+00  0.00000000000E+00 -0.51236688007E+02  0.13509035617E+03  0.12499682449E+03 0.  0.
    9000005    1    3    3    0    0  0.13393159055E+02 -0.18661177641E+02 -0.88426910876E+02  0.91367033593E+02  0.10000000000E+01 0.  0.
    9000005    1    3    3    0    0 -0.13393159055E+02  0.18661177641E+02  0.37190222869E+02  0.43723322580E+02  0.10000000000E+01 0.  0.
<mgrwt>
<rscale>  0 0.12499682E+03</rscale>
<asrwt>0</asrwt>
<pdfrwt beam="2">  1        4 0.23290880E-01 0.12499682E+03</pdfrwt>
<pdfrwt beam="1">  1       -4 0.10481709E-01 0.12499682E+03</pdfrwt>
<totfact> 0.19295835E+03</totfact>
</mgrwt>
</event>
<event>
 5    1  0.1423270E-002  0.1249876E+03  0.7818608E-02  0.1235089E+00
         -4   -1    0    0    0  501 -0.00000000000E+00  0.00000000000E+00  0.13998748550E+02  0.14056239219E+02  0.12700000000E+01 0.  1.
          4   -1    0    0  501    0  0.00000000000E+00 -0.00000000000E+00 -0.27835696420E+03  0.27835986136E+03  0.12700000000E+01 0.  1.
         25    2    1    2    0    0  0.00000000000E+00  0.00000000000E+00 -0.26435821565E+03  0.29241610058E+03  0.12498763818E+03 0.  0.
    9000005    1    3    3    0    0  0.19160912046E+02 -0.30435536852E+02 -0.25172616804E+03  0.25428434111E+03  0.10000000000E+01 0.  0.
    9000005    1    3    3    0    0 -0.19160912046E+02  0.30435536852E+02 -0.12632047603E+02  0.38131759474E+02  0.10000000000E+01 0.  0.
<mgrwt>
<rscale>  0 0.12498764E+03</rscale>
<asrwt>0</asrwt>
<pdfrwt beam="2">  1        4 0.69596772E-01 0.12498764E+03</pdfrwt>
<pdfrwt beam="1">  1       -4 0.35072365E-02 0.12498764E+03</pdfrwt>
<totfact> 0.13190042E+03</totfact>
</mgrwt>
</event>
<event>
 5    1  0.1423270E-002  0.1249987E+03  0.7818608E-02  0.1235071E+00
         -4   -1    0    0    0  501 -0.00000000000E+00  0.00000000000E+00  0.21033564488E+02  0.21071870707E+02  0.12700000000E+01 0.  1.
          4   -1    0    0  501    0  0.00000000000E+00 -0.00000000000E+00 -0.18550178303E+03  0.18550613038E+03  0.12700000000E+01 0.  1.
         25    2    1    2    0    0  0.00000000000E+00  0.00000000000E+00 -0.16446821854E+03  0.20657800108E+03  0.12499870248E+03 0.  0.
    9000005    1    3    3    0    0  0.20080244861E+02  0.44771847944E+00 -0.18003014986E+03  0.18114985935E+03  0.10000000000E+01 0.  0.
    9000005    1    3    3    0    0 -0.20080244861E+02 -0.44771847944E+00  0.15561931317E+02  0.25428141730E+02  0.10000000000E+01 0.  0.
<mgrwt>
<rscale>  0 0.12499870E+03</rscale>
<asrwt>0</asrwt>
<pdfrwt beam="2">  1        4 0.46380772E-01 0.12499870E+03</pdfrwt>
<pdfrwt beam="1">  1       -4 0.52637234E-02 0.12499870E+03</pdfrwt>
<totfact> 0.16062476E+03</totfact>
</mgrwt>
</event>
<event>
 4    1  0.1423270E-002  0.1246500E+03  0.7818608E-02  0.1235617E+00
          4   -1    0    0  501    0  0.00000000000E+00  0.00000000000E+00  0.49037739910E+03  0.49037904364E+03  0.12700000000E+01 0. -1.
         -4   -1    0    0    0  501 -0.00000000000E+00 -0.00000000000E+00 -0.78686840981E+01  0.79705137498E+01  0.12700000000E+01 0. -1.
    9000005    1    1    2    0    0  0.11466796935E+02  0.52368757706E+02  0.36827671050E+03  0.37215952187E+03  0.10000000000E+01 0.  0.
    9000005    1    1    2    0    0 -0.11466796935E+02 -0.52368757706E+02  0.11423200449E+03  0.12619003553E+03  0.10000000000E+01 0.  0.
<mgrwt>
<rscale>  0 0.12465000E+03</rscale>
<asrwt>0</asrwt>
<pdfrwt beam="1">  1        4 0.12260729E+00 0.12465000E+03</pdfrwt>
<pdfrwt beam="2">  1       -4 0.19801053E-02 0.12465000E+03</pdfrwt>
<totfact> 0.88571212E+02</totfact>
</mgrwt>
</event>
<event>
 5    1  0.1423270E-002  0.1249973E+03  0.7818608E-02  0.1235073E+00
         -4   -1    0    0    0  501 -0.00000000000E+00  0.00000000000E+00  0.19371915072E+02  0.19413500291E+02  0.12700000000E+01 0.  1.
          4   -1    0    0  501    0  0.00000000000E+00 -0.00000000000E+00 -0.20137654793E+03  0.20138055258E+03  0.12700000000E+01 0.  1.
         25    2    1    2    0    0  0.00000000000E+00  0.00000000000E+00 -0.18200463286E+03  0.22079405287E+03  0.12499730957E+03 0.  0.
    9000005    1    3    3    0    0  0.24574301541E+02 -0.23343360053E+01  0.10403517813E+02  0.26806316489E+02  0.10000000000E+01 0.  0.
    9000005    1    3    3    0    0 -0.24574301541E+02  0.23343360053E+01 -0.19240815067E+03  0.19398773638E+03  0.10000000000E+01 0.  0.
<mgrwt>
<rscale>  0 0.12499731E+03</rscale>
<asrwt>0</asrwt>
<pdfrwt beam="2">  1        4 0.50349829E-01 0.12499731E+03</pdfrwt>
<pdfrwt beam="1">  1       -4 0.48486781E-02 0.12499731E+03</pdfrwt>
<totfact> 0.15522900E+03</totfact>
</mgrwt>
</event>
<event>
 5    1  0.1423270E-002  0.1250013E+03  0.7818608E-02  0.1235067E+00
         -4   -1    0    0    0  501 -0.00000000000E+00  0.00000000000E+00  0.84315983094E+02  0.84325547167E+02  0.12700000000E+01 0. -1.
          4   -1    0    0  501    0  0.00000000000E+00 -0.00000000000E+00 -0.46308794320E+02  0.46326205665E+02  0.12700000000E+01 0. -1.
         25    2    1    2    0    0  0.00000000000E+00  0.00000000000E+00  0.38007188774E+02  0.13065175283E+03  0.12500133647E+03 0.  0.
    9000005    1    3    3    0    0 -0.31889036791E+02 -0.44401172128E+02  0.50653723791E+02  0.74533042925E+02  0.10000000000E+01 0.  0.
    9000005    1    3    3    0    0  0.31889036791E+02  0.44401172128E+02 -0.12646535017E+02  0.56118709908E+02  0.10000000000E+01 0.  0.
<mgrwt>
<rscale>  0 0.12500134E+03</rscale>
<asrwt>0</asrwt>
<pdfrwt beam="2">  1        4 0.11580571E-01 0.12500134E+03</pdfrwt>
<pdfrwt beam="1">  1       -4 0.21082368E-01 0.12500134E+03</pdfrwt>
<totfact> 0.19528800E+03</totfact>
</mgrwt>
</event>
<event>
 5    1  0.1423270E-002  0.1249949E+03  0.7818608E-02  0.1235077E+00
         -4   -1    0    0    0  501 -0.00000000000E+00  0.00000000000E+00  0.73356642105E+02  0.73367634833E+02  0.12700000000E+01 0. -1.
          4   -1    0    0  501    0  0.00000000000E+00 -0.00000000000E+00 -0.53223206103E+02  0.53238356172E+02  0.12700000000E+01 0. -1.
         25    2    1    2    0    0  0.00000000000E+00  0.00000000000E+00  0.20133436002E+02  0.12660599100E+03  0.12499488675E+03 0.  0.
    9000005    1    3    3    0    0 -0.14941230340E+02  0.26650281749E+02 -0.45146925802E+02  0.54522681434E+02  0.10000000000E+01 0.  0.
    9000005    1    3    3    0    0  0.14941230340E+02 -0.26650281749E+02  0.65280361804E+02  0.72083309571E+02  0.10000000000E+01 0.  0.
<mgrwt>
<rscale>  0 0.12499489E+03</rscale>
<asrwt>0</asrwt>
<pdfrwt beam="2">  1        4 0.13309069E-01 0.12499489E+03</pdfrwt>
<pdfrwt beam="1">  1       -4 0.18342428E-01 0.12499489E+03</pdfrwt>
<totfact> 0.19750570E+03</totfact>
</mgrwt>
</event>
<event>
 5    1  0.1423270E-002  0.1249977E+03  0.7818608E-02  0.1235073E+00
          4   -1    0    0  501    0  0.00000000000E+00  0.00000000000E+00  0.32484991558E+02  0.32509807389E+02  0.12700000000E+01 0.  1.
         -4   -1    0    0    0  501 -0.00000000000E+00 -0.00000000000E+00 -0.12016926277E+03  0.12017597353E+03  0.12700000000E+01 0.  1.
         25    2    1    2    0    0  0.00000000000E+00  0.00000000000E+00 -0.87684271210E+02  0.15268578092E+03  0.12499766509E+03 0.  0.
    9000005    1    3    3    0    0 -0.73723881450E+01  0.49048082558E+02 -0.90276153221E+02  0.10300898189E+03  0.10000000000E+01 0.  0.
    9000005    1    3    3    0    0  0.73723881450E+01 -0.49048082558E+02  0.25918820105E+01  0.49676799031E+02  0.10000000000E+01 0.  0.
<mgrwt>
<rscale>  0 0.12499767E+03</rscale>
<asrwt>0</asrwt>
<pdfrwt beam="1">  1        4 0.81251890E-02 0.12499767E+03</pdfrwt>
<pdfrwt beam="2">  1       -4 0.30046255E-01 0.12499767E+03</pdfrwt>
<totfact> 0.18408505E+03</totfact>
</mgrwt>
</event>
<event>
 5    1  0.1423270E-002  0.1250027E+03  0.7818608E-02  0.1235065E+00
         -4   -1    0    0    0  501 -0.00000000000E+00  0.00000000000E+00  0.29288757300E+02  0.29316278826E+02  0.12700000000E+01 0.  1.
          4   -1    0    0  501    0  0.00000000000E+00 -0.00000000000E+00 -0.13328295041E+03  0.13328900094E+03  0.12700000000E+01 0.  1.
         25    2    1    2    0    0  0.00000000000E+00  0.00000000000E+00 -0.10399419311E+03  0.16260527976E+03  0.12500273919E+03 0.  0.
    9000005    1    3    3    0    0  0.55399284182E+01 -0.57464072570E+02 -0.20869551909E+02  0.61395021298E+02  0.10000000000E+01 0.  0.
    9000005    1    3    3    0    0 -0.55399284182E+01  0.57464072570E+02 -0.83124641203E+02  0.10121025846E+03  0.10000000000E+01 0.  0.
<mgrwt>
<rscale>  0 0.12500274E+03</rscale>
<asrwt>0</asrwt>
<pdfrwt beam="2">  1        4 0.33324933E-01 0.12500274E+03</pdfrwt>
<pdfrwt beam="1">  1       -4 0.73263862E-02 0.12500274E+03</pdfrwt>
<totfact> 0.17934690E+03</totfact>
</mgrwt>
</event>
<event>
 5    1  0.1423270E-002  0.1249987E+03  0.7818608E-02  0.1235071E+00
         -4   -1    0    0    0  501 -0.00000000000E+00  0.00000000000E+00  0.98915583401E+03  0.98915664930E+03  0.12700000000E+01 0.  1.
          4   -1    0    0  501    0  0.00000000000E+00 -0.00000000000E+00 -0.38460489580E+01  0.40503077151E+01  0.12700000000E+01 0.  1.
         25    2    1    2    0    0  0.00000000000E+00  0.00000000000E+00  0.98530978505E+03  0.99320695701E+03  0.12499874778E+03 0.  0.
    9000005    1    3    3    0    0 -0.59308141973E+02  0.15876827635E+01  0.64860101396E+03  0.65130964353E+03  0.10000000000E+01 0.  0.
    9000005    1    3    3    0    0  0.59308141973E+02 -0.15876827635E+01  0.33670877109E+03  0.34189731348E+03  0.10000000000E+01 0.  0.
<mgrwt>
<rscale>  0 0.12499875E+03</rscale>
<asrwt>0</asrwt>
<pdfrwt beam="2">  1        4 0.98714663E-03 0.12499875E+03</pdfrwt>
<pdfrwt beam="1">  1       -4 0.24731456E+00 0.12499875E+03</pdfrwt>
<totfact> 0.37569633E+02</totfact>
</mgrwt>
</event>
<event>
 5    1  0.1423270E-002  0.1250007E+03  0.7818608E-02  0.1235068E+00
         -4   -1    0    0    0  501 -0.00000000000E+00  0.00000000000E+00  0.12166727748E+02  0.12232831401E+02  0.12700000000E+01 0.  1.
          4   -1    0    0  501    0  0.00000000000E+00 -0.00000000000E+00 -0.32012624593E+03  0.32012876508E+03  0.12700000000E+01 0.  1.
         25    2    1    2    0    0  0.00000000000E+00  0.00000000000E+00 -0.30795951818E+03  0.33236159648E+03  0.12500066391E+03 0.  0.
    9000005    1    3    3    0    0  0.30473132802E+00 -0.53682092163E+02 -0.68919259144E+02  0.87365463206E+02  0.10000000000E+01 0.  0.
    9000005    1    3    3    0    0 -0.30473132802E+00  0.53682092163E+02 -0.23904025904E+03  0.24499613327E+03  0.10000000000E+01 0.  0.
<mgrwt>
<rscale>  0 0.12500066E+03</rscale>
<asrwt>0</asrwt>
<pdfrwt beam="2">  1        4 0.80040112E-01 0.12500066E+03</pdfrwt>
<pdfrwt beam="1">  1       -4 0.30502608E-02 0.12500066E+03</pdfrwt>
<totfact> 0.12110016E+03</totfact>
</mgrwt>
</event>
<event>
 5    1  0.1423270E-002  0.1250000E+03  0.7818608E-02  0.1235069E+00
         -4   -1    0    0    0  501 -0.00000000000E+00  0.00000000000E+00  0.11749621657E+03  0.11750308000E+03  0.12700000000E+01 0.  1.
          4   -1    0    0  501    0  0.00000000000E+00 -0.00000000000E+00 -0.33225769659E+02  0.33250032623E+02  0.12700000000E+01 0.  1.
         25    2    1    2    0    0  0.00000000000E+00  0.00000000000E+00  0.84270446912E+02  0.15075311262E+03  0.12499997097E+03 0.  0.
    9000005    1    3    3    0    0  0.51301239156E+01 -0.23141993904E+02 -0.27599506665E+02  0.36395093370E+02  0.10000000000E+01 0.  0.
    9000005    1    3    3    0    0 -0.51301239156E+01  0.23141993904E+02  0.11186995358E+03  0.11435801925E+03  0.10000000000E+01 0.  0.
<mgrwt>
<rscale>  0 0.12499997E+03</rscale>
<asrwt>0</asrwt>
<pdfrwt beam="2">  1        4 0.83103333E-02 0.12499997E+03</pdfrwt>
<pdfrwt beam="1">  1       -4 0.29377945E-01 0.12499997E+03</pdfrwt>
<totfact> 0.18501825E+03</totfact>
</mgrwt>
</event>
<event>
 5    1  0.1423270E-002  0.1249992E+03  0.7818608E-02  0.1235071E+00
          4   -1    0    0  501    0  0.00000000000E+00  0.00000000000E+00  0.16436277552E+03  0.16436768197E+03  0.12700000000E+01 0. -1.
         -4   -1    0    0    0  501 -0.00000000000E+00 -0.00000000000E+00 -0.23743475015E+02  0.23777415877E+02  0.12700000000E+01 0. -1.
         25    2    1    2    0    0  0.00000000000E+00  0.00000000000E+00  0.14061930050E+03  0.18814509785E+03  0.12499916068E+03 0.  0.
    9000005    1    3    3    0    0 -0.41977369225E+02  0.37240114270E+02  0.28916851343E+02  0.63135647059E+02  0.10000000000E+01 0.  0.
    9000005    1    3    3    0    0  0.41977369225E+02 -0.37240114270E+02  0.11170244916E+03  0.12500945079E+03  0.10000000000E+01 0.  0.
<mgrwt>
<rscale>  0 0.12499916E+03</rscale>
<asrwt>0</asrwt>
<pdfrwt beam="1">  1        4 0.41095549E-01 0.12499916E+03</pdfrwt>
<pdfrwt beam="2">  1       -4 0.59407248E-02 0.12499916E+03</pdfrwt>
<totfact> 0.16808327E+03</totfact>
</mgrwt>
</event>
<event>
 5    1  0.1423270E-002  0.1249997E+03  0.7818608E-02  0.1235070E+00
          4   -1    0    0  501    0  0.00000000000E+00  0.00000000000E+00  0.96813732908E+02  0.96822062463E+02  0.12700000000E+01 0.  1.
         -4   -1    0    0    0  501 -0.00000000000E+00 -0.00000000000E+00 -0.40327865286E+02  0.40347857669E+02  0.12700000000E+01 0.  1.
         25    2    1    2    0    0  0.00000000000E+00  0.00000000000E+00  0.56485867622E+02  0.13716992013E+03  0.12499973499E+03 0.  0.
    9000005    1    3    3    0    0 -0.54256515550E+02 -0.25499401461E+02  0.47602723012E+02  0.76557221689E+02  0.10000000000E+01 0.  0.
    9000005    1    3    3    0    0  0.54256515550E+02  0.25499401461E+02  0.88831446096E+01  0.60612698444E+02  0.10000000000E+01 0.  0.
<mgrwt>
<rscale>  0 0.12499973E+03</rscale>
<asrwt>0</asrwt>
<pdfrwt beam="1">  1        4 0.24206973E-01 0.12499973E+03</pdfrwt>
<pdfrwt beam="2">  1       -4 0.10085507E-01 0.12499973E+03</pdfrwt>
<totfact> 0.19186193E+03</totfact>
</mgrwt>
</event>
<event>
 5    1  0.1423270E-002  0.1249996E+03  0.7818608E-02  0.1235070E+00
         -4   -1    0    0    0  501 -0.00000000000E+00  0.00000000000E+00  0.22673025668E+02  0.22708566510E+02  0.12700000000E+01 0.  1.
          4   -1    0    0  501    0  0.00000000000E+00 -0.00000000000E+00 -0.17211242609E+03  0.17211711163E+03  0.12700000000E+01 0.  1.
         25    2    1    2    0    0  0.00000000000E+00  0.00000000000E+00 -0.14943940042E+03  0.19482567814E+03  0.12499964185E+03 0.  0.
    9000005    1    3    3    0    0 -0.45946847575E+02  0.32016839669E+02 -0.31497090380E+02  0.64259299147E+02  0.10000000000E+01 0.  0.
    9000005    1    3    3    0    0  0.45946847575E+02 -0.32016839669E+02 -0.11794231004E+03  0.13056637899E+03  0.10000000000E+01 0.  0.
<mgrwt>
<rscale>  0 0.12499964E+03</rscale>
<asrwt>0</asrwt>
<pdfrwt beam="2">  1        4 0.43033131E-01 0.12499964E+03</pdfrwt>
<pdfrwt beam="1">  1       -4 0.56732852E-02 0.12499964E+03</pdfrwt>
<totfact> 0.16531485E+03</totfact>
</mgrwt>
</event>
<event>
 5    1  0.1423270E-002  0.1249994E+03  0.7818608E-02  0.1235070E+00
         -4   -1    0    0    0  501 -0.00000000000E+00  0.00000000000E+00  0.81846999737E+02  0.81856852284E+02  0.12700000000E+01 0.  1.
          4   -1    0    0  501    0  0.00000000000E+00 -0.00000000000E+00 -0.47704627871E+02  0.47721529945E+02  0.12700000000E+01 0.  1.
         25    2    1    2    0    0  0.00000000000E+00  0.00000000000E+00  0.34142371866E+02  0.12957838223E+03  0.12499942234E+03 0.  0.
    9000005    1    3    3    0    0  0.20837773609E+02 -0.93227611427E+01 -0.43232703096E+02  0.48899829257E+02  0.10000000000E+01 0.  0.
    9000005    1    3    3    0    0 -0.20837773609E+02  0.93227611427E+01  0.77375074962E+02  0.80678552973E+02  0.10000000000E+01 0.  0.
<mgrwt>
<rscale>  0 0.12499942E+03</rscale>
<asrwt>0</asrwt>
<pdfrwt beam="2">  1        4 0.11929501E-01 0.12499942E+03</pdfrwt>
<pdfrwt beam="1">  1       -4 0.20465094E-01 0.12499942E+03</pdfrwt>
<totfact> 0.19587339E+03</totfact>
</mgrwt>
</event>
<event>
 5    1  0.1423270E-002  0.1249979E+03  0.7818608E-02  0.1235073E+00
         -4   -1    0    0    0  501 -0.00000000000E+00  0.00000000000E+00  0.16666788029E+03  0.16667271889E+03  0.12700000000E+01 0. -1.
          4   -1    0    0  501    0  0.00000000000E+00 -0.00000000000E+00 -0.23414140313E+02  0.23448557879E+02  0.12700000000E+01 0. -1.
         25    2    1    2    0    0  0.00000000000E+00  0.00000000000E+00  0.14325373998E+03  0.19012127677E+03  0.12499786343E+03 0.  0.
    9000005    1    3    3    0    0  0.33481925318E+02 -0.43171509416E+02  0.11776843832E+03  0.12982766891E+03  0.10000000000E+01 0.  0.
    9000005    1    3    3    0    0 -0.33481925318E+02  0.43171509416E+02  0.25485301653E+02  0.60293607859E+02  0.10000000000E+01 0.  0.
<mgrwt>
<rscale>  0 0.12499786E+03</rscale>
<asrwt>0</asrwt>
<pdfrwt beam="2">  1        4 0.58584423E-02 0.12499786E+03</pdfrwt>
<pdfrwt beam="1">  1       -4 0.41671876E-01 0.12499786E+03</pdfrwt>
<totfact> 0.16726223E+03</totfact>
</mgrwt>
</event>
<event>
 5    1  0.1423270E-002  0.1250027E+03  0.7818608E-02  0.1235065E+00
         -4   -1    0    0    0  501 -0.00000000000E+00  0.00000000000E+00  0.91705813675E+02  0.91714607134E+02  0.12700000000E+01 0.  1.
          4   -1    0    0  501    0  0.00000000000E+00 -0.00000000000E+00 -0.42577013212E+02  0.42595949972E+02  0.12700000000E+01 0.  1.
         25    2    1    2    0    0  0.00000000000E+00  0.00000000000E+00  0.49128800463E+02  0.13431055711E+03  0.12500274683E+03 0.  0.
    9000005    1    3    3    0    0 -0.69198346352E+01 -0.56727007439E+02  0.51737517031E+02  0.77094799779E+02  0.10000000000E+01 0.  0.
    9000005    1    3    3    0    0  0.69198346352E+01  0.56727007439E+02 -0.26087165684E+01  0.57215757327E+02  0.10000000000E+01 0.  0.
<mgrwt>
<rscale>  0 0.12500275E+03</rscale>
<asrwt>0</asrwt>
<pdfrwt beam="2">  1        4 0.10647720E-01 0.12500275E+03</pdfrwt>
<pdfrwt beam="1">  1       -4 0.22929920E-01 0.12500275E+03</pdfrwt>
<totfact> 0.19334071E+03</totfact>
</mgrwt>
</event>
<event>
 5    1  0.1423270E-002  0.1250089E+03  0.7818608E-02  0.1235055E+00
         -4   -1    0    0    0  501 -0.00000000000E+00  0.00000000000E+00  0.10033464515E+03  0.10034268244E+03  0.12700000000E+01 0.  1.
          4   -1    0    0  501    0  0.00000000000E+00 -0.00000000000E+00 -0.38917792007E+02  0.38938508378E+02  0.12700000000E+01 0.  1.
         25    2    1    2    0    0  0.00000000000E+00  0.00000000000E+00  0.61416853148E+02  0.13928119081E+03  0.12500888074E+03 0.  0.
    9000005    1    3    3    0    0 -0.40162723690E+02 -0.45793891784E+02  0.15122773331E+02  0.62768010740E+02  0.10000000000E+01 0.  0.
    9000005    1    3    3    0    0  0.40162723690E+02  0.45793891784E+02  0.46294079816E+02  0.76513180074E+02  0.10000000000E+01 0.  0.
<mgrwt>
<rscale>  0 0.12500888E+03</rscale>
<asrwt>0</asrwt>
<pdfrwt beam="2">  1        4 0.97330423E-02 0.12500888E+03</pdfrwt>
<pdfrwt beam="1">  1       -4 0.25087255E-01 0.12500888E+03</pdfrwt>
<totfact> 0.19073225E+03</totfact>
</mgrwt>
</event>
<event>
 5    1  0.1423270E-002  0.1249978E+03  0.7818608E-02  0.1235073E+00
          4   -1    0    0  501    0  0.00000000000E+00  0.00000000000E+00  0.12296640235E+04  0.12296646793E+04  0.12700000000E+01 0.  1.
         -4   -1    0    0    0  501 -0.00000000000E+00 -0.00000000000E+00 -0.30489504397E+01  0.33028773492E+01  0.12700000000E+01 0.  1.
         25    2    1    2    0    0  0.00000000000E+00  0.00000000000E+00  0.12266150730E+04  0.12329675567E+04  0.12499783343E+03 0.  0.
    9000005    1    3    3    0    0  0.41316333333E+02 -0.39365431492E+02  0.36212849993E+03  0.36659886396E+03  0.10000000000E+01 0.  0.
    9000005    1    3    3    0    0 -0.41316333333E+02  0.39365431492E+02  0.86448657311E+03  0.86636869270E+03  0.10000000000E+01 0.  0.
<mgrwt>
<rscale>  0 0.12499783E+03</rscale>
<asrwt>0</asrwt>
<pdfrwt beam="1">  1        4 0.30744782E+00 0.12499783E+03</pdfrwt>
<pdfrwt beam="2">  1       -4 0.79406047E-03 0.12499783E+03</pdfrwt>
<totfact> 0.23518375E+02</totfact>
</mgrwt>
</event>
<event>
 5    1  0.1423270E-002  0.1249995E+03  0.7818608E-02  0.1235070E+00
          4   -1    0    0  501    0  0.00000000000E+00  0.00000000000E+00  0.11226499518E+02  0.11298105657E+02  0.12700000000E+01 0.  1.
         -4   -1    0    0    0  501 -0.00000000000E+00 -0.00000000000E+00 -0.34676716449E+03  0.34676949011E+03  0.12700000000E+01 0.  1.
         25    2    1    2    0    0  0.00000000000E+00  0.00000000000E+00 -0.33554066497E+03  0.35806759577E+03  0.12499946114E+03 0.  0.
    9000005    1    3    3    0    0  0.53077383674E+02 -0.29769885660E+02 -0.20845924713E+03  0.21716287082E+03  0.10000000000E+01 0.  0.
    9000005    1    3    3    0    0 -0.53077383674E+02  0.29769885660E+02 -0.12708141784E+03  0.14090472494E+03  0.10000000000E+01 0.  0.
<mgrwt>
<rscale>  0 0.12499946E+03</rscale>
<asrwt>0</asrwt>
<pdfrwt beam="1">  1        4 0.28158675E-02 0.12499946E+03</pdfrwt>
<pdfrwt beam="2">  1       -4 0.86700997E-01 0.12499946E+03</pdfrwt>
<totfact> 0.11487385E+03</totfact>
</mgrwt>
</event>
<event>
 5    1  0.1423270E-002  0.1250016E+03  0.7818608E-02  0.1235067E+00
         -4   -1    0    0    0  501 -0.00000000000E+00  0.00000000000E+00  0.51261096514E+02  0.51276826304E+02  0.12700000000E+01 0. -1.
          4   -1    0    0  501    0  0.00000000000E+00 -0.00000000000E+00 -0.76172215241E+02  0.76182801699E+02  0.12700000000E+01 0. -1.
         25    2    1    2    0    0  0.00000000000E+00  0.00000000000E+00 -0.24911118727E+02  0.12745962800E+03  0.12500157173E+03 0.  0.
    9000005    1    3    3    0    0  0.58610332671E+02 -0.11571071059E+02  0.62431875921E+01  0.60075270891E+02  0.10000000000E+01 0.  0.
    9000005    1    3    3    0    0 -0.58610332671E+02  0.11571071059E+02 -0.31154306319E+02  0.67384357113E+02  0.10000000000E+01 0.  0.
<mgrwt>
<rscale>  0 0.12500157E+03</rscale>
<asrwt>0</asrwt>
<pdfrwt beam="2">  1        4 0.19046343E-01 0.12500157E+03</pdfrwt>
<pdfrwt beam="1">  1       -4 0.12818564E-01 0.12500157E+03</pdfrwt>
<totfact> 0.19701266E+03</totfact>
</mgrwt>
</event>
<event>
 5    1  0.1423270E-002  0.1250000E+03  0.7818608E-02  0.1235069E+00
          4   -1    0    0  501    0  0.00000000000E+00  0.00000000000E+00  0.30123719893E+02  0.30150479269E+02  0.12700000000E+01 0. -1.
         -4   -1    0    0    0  501 -0.00000000000E+00 -0.00000000000E+00 -0.12958610354E+03  0.12959232667E+03  0.12700000000E+01 0. -1.
         25    2    1    2    0    0  0.00000000000E+00  0.00000000000E+00 -0.99462383648E+02  0.15974280594E+03  0.12499999315E+03 0.  0.
    9000005    1    3    3    0    0  0.10764004433E+02 -0.32365765344E+02 -0.11664759855E+03  0.12153628596E+03  0.10000000000E+01 0.  0.
    9000005    1    3    3    0    0 -0.10764004433E+02  0.32365765344E+02  0.17185214899E+02  0.38206519978E+02  0.10000000000E+01 0.  0.
<mgrwt>
<rscale>  0 0.12499999E+03</rscale>
<asrwt>0</asrwt>
<pdfrwt beam="1">  1        4 0.75350531E-02 0.12499999E+03</pdfrwt>
<pdfrwt beam="2">  1       -4 0.32400647E-01 0.12499999E+03</pdfrwt>
<totfact> 0.18069868E+03</totfact>
</mgrwt>
</event>
<event>
 5    1  0.1423270E-002  0.1250033E+03  0.7818608E-02  0.1235064E+00
          4   -1    0    0  501    0  0.00000000000E+00  0.00000000000E+00  0.79976521501E+01  0.80978602059E+01  0.12700000000E+01 0. -1.
         -4   -1    0    0    0  501 -0.00000000000E+00 -0.00000000000E+00 -0.48530860134E+03  0.48531026306E+03  0.12700000000E+01 0. -1.
         25    2    1    2    0    0  0.00000000000E+00  0.00000000000E+00 -0.47731094919E+03  0.49340812327E+03  0.12500333552E+03 0.  0.
    9000005    1    3    3    0    0 -0.26423444636E+02 -0.18125744904E+01 -0.15231780987E+02  0.30569445607E+02  0.10000000000E+01 0.  0.
    9000005    1    3    3    0    0  0.26423444636E+02  0.18125744904E+01 -0.46207916820E+03  0.46283867766E+03  0.10000000000E+01 0.  0.
<mgrwt>
<rscale>  0 0.12500334E+03</rscale>
<asrwt>0</asrwt>
<pdfrwt beam="1">  1        4 0.20121484E-02 0.12500334E+03</pdfrwt>
<pdfrwt beam="2">  1       -4 0.12133979E+00 0.12500334E+03</pdfrwt>
<totfact> 0.88658124E+02</totfact>
</mgrwt>
</event>
<event>
 5    1  0.1423270E-002  0.1250020E+03  0.7818608E-02  0.1235066E+00
         -4   -1    0    0    0  501 -0.00000000000E+00  0.00000000000E+00  0.88591610829E+01  0.89497282133E+01  0.12700000000E+01 0.  1.
          4   -1    0    0  501    0  0.00000000000E+00 -0.00000000000E+00 -0.43860812222E+03  0.43860996087E+03  0.12700000000E+01 0.  1.
         25    2    1    2    0    0  0.00000000000E+00  0.00000000000E+00 -0.42974896113E+03  0.44755968908E+03  0.12500202277E+03 0.  0.
    9000005    1    3    3    0    0 -0.55381549877E+02  0.21619259778E+02 -0.14592300211E+03  0.15757230405E+03  0.10000000000E+01 0.  0.
    9000005    1    3    3    0    0  0.55381549877E+02 -0.21619259778E+02 -0.28382595903E+03  0.28998738503E+03  0.10000000000E+01 0.  0.
<mgrwt>
<rscale>  0 0.12500202E+03</rscale>
<asrwt>0</asrwt>
<pdfrwt beam="2">  1        4 0.10966351E+00 0.12500202E+03</pdfrwt>
<pdfrwt beam="1">  1       -4 0.22263425E-02 0.12500202E+03</pdfrwt>
<totfact> 0.96452360E+02</totfact>
</mgrwt>
</event>
<event>
 5    1  0.1423270E-002  0.1249993E+03  0.7818608E-02  0.1235070E+00
         -4   -1    0    0    0  501 -0.00000000000E+00  0.00000000000E+00  0.27065912066E+02  0.27095691465E+02  0.12700000000E+01 0. -1.
          4   -1    0    0  501    0  0.00000000000E+00 -0.00000000000E+00 -0.14421017090E+03  0.14421576297E+03  0.12700000000E+01 0. -1.
         25    2    1    2    0    0  0.00000000000E+00  0.00000000000E+00 -0.11714425883E+03  0.17131145444E+03  0.12499934818E+03 0.  0.
    9000005    1    3    3    0    0 -0.51883910657E+02 -0.80550913273E+01 -0.12128908615E+02  0.53897449899E+02  0.10000000000E+01 0.  0.
    9000005    1    3    3    0    0  0.51883910657E+02  0.80550913273E+01 -0.10501535022E+03  0.11741400454E+03  0.10000000000E+01 0.  0.
<mgrwt>
<rscale>  0 0.12499935E+03</rscale>
<asrwt>0</asrwt>
<pdfrwt beam="2">  1        4 0.36056962E-01 0.12499935E+03</pdfrwt>
<pdfrwt beam="1">  1       -4 0.67708998E-02 0.12499935E+03</pdfrwt>
<totfact> 0.17538322E+03</totfact>
</mgrwt>
</event>
<event>
 5    1  0.1423270E-002  0.1250019E+03  0.7818608E-02  0.1235066E+00
          4   -1    0    0  501    0  0.00000000000E+00  0.00000000000E+00  0.74543375963E+02  0.74554193711E+02  0.12700000000E+01 0.  1.
         -4   -1    0    0    0  501 -0.00000000000E+00 -0.00000000000E+00 -0.52381639778E+02  0.52397033177E+02  0.12700000000E+01 0.  1.
         25    2    1    2    0    0  0.00000000000E+00  0.00000000000E+00  0.22161736185E+02  0.12695122689E+03  0.12500188582E+03 0.  0.
    9000005    1    3    3    0    0 -0.50929356977E+02 -0.32627064826E+02  0.27043581058E+02  0.66262206707E+02  0.10000000000E+01 0.  0.
    9000005    1    3    3    0    0  0.50929356977E+02  0.32627064826E+02 -0.48818448727E+01  0.60689020182E+02  0.10000000000E+01 0.  0.
<mgrwt>
<rscale>  0 0.12500189E+03</rscale>
<asrwt>0</asrwt>
<pdfrwt beam="1">  1        4 0.18639120E-01 0.12500189E+03</pdfrwt>
<pdfrwt beam="2">  1       -4 0.13098686E-01 0.12500189E+03</pdfrwt>
<totfact> 0.19728734E+03</totfact>
</mgrwt>
</event>
<event>
 5    1  0.1423270E-002  0.1250030E+03  0.7818608E-02  0.1235065E+00
          4   -1    0    0  501    0  0.00000000000E+00  0.00000000000E+00  0.70726454898E+02  0.70737856360E+02  0.12700000000E+01 0. -1.
         -4   -1    0    0    0  501 -0.00000000000E+00 -0.00000000000E+00 -0.55209861271E+02  0.55224466331E+02  0.12700000000E+01 0. -1.
         25    2    1    2    0    0  0.00000000000E+00  0.00000000000E+00  0.15516593627E+02  0.12596232269E+03  0.12500296820E+03 0.  0.
    9000005    1    3    3    0    0  0.44032137912E+02 -0.26384636898E+02  0.43675322737E+02  0.67405578772E+02  0.10000000000E+01 0.  0.
    9000005    1    3    3    0    0 -0.44032137912E+02  0.26384636898E+02 -0.28158729110E+02  0.58556743920E+02  0.10000000000E+01 0.  0.
<mgrwt>
<rscale>  0 0.12500297E+03</rscale>
<asrwt>0</asrwt>
<pdfrwt beam="1">  1        4 0.17684864E-01 0.12500297E+03</pdfrwt>
<pdfrwt beam="2">  1       -4 0.13805716E-01 0.12500297E+03</pdfrwt>
<totfact> 0.19781583E+03</totfact>
</mgrwt>
</event>
<event>
 5    1  0.1423270E-002  0.1249869E+03  0.7818608E-02  0.1235090E+00
          4   -1    0    0  501    0  0.00000000000E+00  0.00000000000E+00  0.69777430396E+02  0.69788986901E+02  0.12700000000E+01 0. -1.
         -4   -1    0    0    0  501 -0.00000000000E+00 -0.00000000000E+00 -0.55946413360E+02  0.55960826190E+02  0.12700000000E+01 0. -1.
         25    2    1    2    0    0  0.00000000000E+00  0.00000000000E+00  0.13831017036E+02  0.12574981309E+03  0.12498687315E+03 0.  0.
    9000005    1    3    3    0    0 -0.11986029994E+02  0.33982520353E+02 -0.44444635771E+02  0.57225887965E+02  0.10000000000E+01 0.  0.
    9000005    1    3    3    0    0  0.11986029994E+02 -0.33982520353E+02  0.58275652807E+02  0.68523925126E+02  0.10000000000E+01 0.  0.
<mgrwt>
<rscale>  0 0.12498687E+03</rscale>
<asrwt>0</asrwt>
<pdfrwt beam="1">  1        4 0.17447604E-01 0.12498687E+03</pdfrwt>
<pdfrwt beam="2">  1       -4 0.13989850E-01 0.12498687E+03</pdfrwt>
<totfact> 0.19800526E+03</totfact>
</mgrwt>
</event>
<event>
 5    1  0.1423270E-002  0.1250028E+03  0.7818608E-02  0.1235065E+00
         -4   -1    0    0    0  501 -0.00000000000E+00  0.00000000000E+00  0.11510200790E+03  0.11510901409E+03  0.12700000000E+01 0.  1.
          4   -1    0    0  501    0  0.00000000000E+00 -0.00000000000E+00 -0.33918883242E+02  0.33942650756E+02  0.12700000000E+01 0.  1.
         25    2    1    2    0    0  0.00000000000E+00  0.00000000000E+00  0.81183124663E+02  0.14905166484E+03  0.12500279622E+03 0.  0.
    9000005    1    3    3    0    0  0.15346067994E+02 -0.61103412811E+01 -0.31274706411E+02  0.35382839549E+02  0.10000000000E+01 0.  0.
    9000005    1    3    3    0    0 -0.15346067994E+02  0.61103412811E+01  0.11245783107E+03  0.11366882529E+03  0.10000000000E+01 0.  0.
<mgrwt>
<rscale>  0 0.12500280E+03</rscale>
<asrwt>0</asrwt>
<pdfrwt beam="2">  1        4 0.84835676E-02 0.12500280E+03</pdfrwt>
<pdfrwt beam="1">  1       -4 0.28779348E-01 0.12500280E+03</pdfrwt>
<totfact> 0.18584299E+03</totfact>
</mgrwt>
</event>
<event>
 5    1  0.1423270E-002  0.1250015E+03  0.7818608E-02  0.1235067E+00
         -4   -1    0    0    0  501 -0.00000000000E+00  0.00000000000E+00  0.83452411001E+02  0.83462074032E+02  0.12700000000E+01 0.  1.
          4   -1    0    0  501    0  0.00000000000E+00 -0.00000000000E+00 -0.46788211638E+02  0.46805444644E+02  0.12700000000E+01 0.  1.
         25    2    1    2    0    0  0.00000000000E+00  0.00000000000E+00  0.36664199362E+02  0.13026751868E+03  0.12500145162E+03 0.  0.
    9000005    1    3    3    0    0  0.30670904046E+02 -0.15827513415E+02 -0.35959933065E+02  0.49853097415E+02  0.10000000000E+01 0.  0.
    9000005    1    3    3    0    0 -0.30670904046E+02  0.15827513415E+02  0.72624132427E+02  0.80414421261E+02  0.10000000000E+01 0.  0.
<mgrwt>
<rscale>  0 0.12500145E+03</rscale>
<asrwt>0</asrwt>
<pdfrwt beam="2">  1        4 0.11700415E-01 0.12500145E+03</pdfrwt>
<pdfrwt beam="1">  1       -4 0.20866465E-01 0.12500145E+03</pdfrwt>
<totfact> 0.19549349E+03</totfact>
</mgrwt>
</event>
<event>
 5    1  0.1423270E-002  0.1249990E+03  0.7818608E-02  0.1235071E+00
         -4   -1    0    0    0  501 -0.00000000000E+00  0.00000000000E+00  0.99717680564E+02  0.99725767568E+02  0.12700000000E+01 0. -1.
          4   -1    0    0  501    0  0.00000000000E+00 -0.00000000000E+00 -0.39152490668E+02  0.39173082921E+02  0.12700000000E+01 0. -1.
         25    2    1    2    0    0  0.00000000000E+00  0.00000000000E+00  0.60565189896E+02  0.13889885049E+03  0.12499899376E+03 0.  0.
    9000005    1    3    3    0    0  0.51825404874E+02  0.95139589739E+01  0.67616245896E+02  0.85728319211E+02  0.10000000000E+01 0.  0.
    9000005    1    3    3    0    0 -0.51825404874E+02 -0.95139589739E+01 -0.70510559998E+01  0.53170531278E+02  0.10000000000E+01 0.  0.
<mgrwt>
<rscale>  0 0.12499899E+03</rscale>
<asrwt>0</asrwt>
<pdfrwt beam="2">  1        4 0.97917077E-02 0.12499899E+03</pdfrwt>
<pdfrwt beam="1">  1       -4 0.24933005E-01 0.12499899E+03</pdfrwt>
<totfact> 0.19097266E+03</totfact>
</mgrwt>
</event>
<event>
 5    1  0.1423270E-002  0.1250018E+03  0.7818608E-02  0.1235067E+00
         -4   -1    0    0    0  501 -0.00000000000E+00  0.00000000000E+00  0.16926729646E+03  0.16927206075E+03  0.12700000000E+01 0. -1.
          4   -1    0    0  501    0  0.00000000000E+00 -0.00000000000E+00 -0.23055487315E+02  0.23090439479E+02  0.12700000000E+01 0. -1.
         25    2    1    2    0    0  0.00000000000E+00  0.00000000000E+00  0.14621180914E+03  0.19236250023E+03  0.12500175343E+03 0.  0.
    9000005    1    3    3    0    0 -0.27304790893E+02  0.43630710854E+02  0.12764756478E+03  0.13763753605E+03  0.10000000000E+01 0.  0.
    9000005    1    3    3    0    0  0.27304790893E+02 -0.43630710854E+02  0.18564244360E+02  0.54724964176E+02  0.10000000000E+01 0.  0.
<mgrwt>
<rscale>  0 0.12500175E+03</rscale>
<asrwt>0</asrwt>
<pdfrwt beam="2">  1        4 0.57688364E-02 0.12500175E+03</pdfrwt>
<pdfrwt beam="1">  1       -4 0.42321788E-01 0.12500175E+03</pdfrwt>
<totfact> 0.16631822E+03</totfact>
</mgrwt>
</event>
<event>
 5    1  0.1423270E-002  0.1250030E+03  0.7818608E-02  0.1235065E+00
         -4   -1    0    0    0  501 -0.00000000000E+00  0.00000000000E+00  0.16895799547E+02  0.16943463115E+02  0.12700000000E+01 0. -1.
          4   -1    0    0  501    0  0.00000000000E+00 -0.00000000000E+00 -0.23083249020E+03  0.23083598383E+03  0.12700000000E+01 0. -1.
         25    2    1    2    0    0  0.00000000000E+00  0.00000000000E+00 -0.21393669065E+03  0.24777944695E+03  0.12500298685E+03 0.  0.
    9000005    1    3    3    0    0 -0.83484053747E+01  0.13469763300E+02 -0.22679332428E+03  0.22734850414E+03  0.10000000000E+01 0.  0.
    9000005    1    3    3    0    0  0.83484053747E+01 -0.13469763300E+02  0.12856633631E+02  0.20430942807E+02  0.10000000000E+01 0.  0.
<mgrwt>
<rscale>  0 0.12500299E+03</rscale>
<asrwt>0</asrwt>
<pdfrwt beam="2">  1        4 0.57714507E-01 0.12500299E+03</pdfrwt>
<pdfrwt beam="1">  1       -4 0.42303453E-02 0.12500299E+03</pdfrwt>
<totfact> 0.14571148E+03</totfact>
</mgrwt>
</event>
<event>
 5    1  0.1423270E-002  0.1250025E+03  0.7818608E-02  0.1235065E+00
          4   -1    0    0  501    0  0.00000000000E+00  0.00000000000E+00  0.12286734322E+02  0.12352195768E+02  0.12700000000E+01 0.  1.
         -4   -1    0    0    0  501 -0.00000000000E+00 -0.00000000000E+00 -0.31702540454E+03  0.31702794834E+03  0.12700000000E+01 0.  1.
         25    2    1    2    0    0  0.00000000000E+00  0.00000000000E+00 -0.30473867022E+03  0.32938014410E+03  0.12500248878E+03 0.  0.
    9000005    1    3    3    0    0 -0.83789017264E+01 -0.89278543441E+01 -0.31384691513E+03  0.31408724698E+03  0.10000000000E+01 0.  0.
    9000005    1    3    3    0    0  0.83789017264E+01  0.89278543441E+01  0.91082449061E+01  0.15292897129E+02  0.10000000000E+01 0.  0.
<mgrwt>
<rscale>  0 0.12500249E+03</rscale>
<asrwt>0</asrwt>
<pdfrwt beam="1">  1        4 0.30801853E-02 0.12500249E+03</pdfrwt>
<pdfrwt beam="2">  1       -4 0.79264825E-01 0.12500249E+03</pdfrwt>
<totfact> 0.12185127E+03</totfact>
</mgrwt>
</event>
<event>
 5    1  0.1423270E-002  0.1249920E+03  0.7818608E-02  0.1235082E+00
         -4   -1    0    0    0  501 -0.00000000000E+00  0.00000000000E+00  0.18398259687E+02  0.18442040546E+02  0.12700000000E+01 0.  1.
          4   -1    0    0  501    0  0.00000000000E+00 -0.00000000000E+00 -0.21199126162E+03  0.21199506575E+03  0.12700000000E+01 0.  1.
         25    2    1    2    0    0  0.00000000000E+00  0.00000000000E+00 -0.19359300193E+03  0.23043710630E+03  0.12499203799E+03 0.  0.
    9000005    1    3    3    0    0 -0.28551094649E+02 -0.55513784374E+02 -0.91645213948E+02  0.11089089458E+03  0.10000000000E+01 0.  0.
    9000005    1    3    3    0    0  0.28551094649E+02  0.55513784374E+02 -0.10194778798E+03  0.11954621172E+03  0.10000000000E+01 0.  0.
<mgrwt>
<rscale>  0 0.12499204E+03</rscale>
<asrwt>0</asrwt>
<pdfrwt beam="2">  1        4 0.53003756E-01 0.12499204E+03</pdfrwt>
<pdfrwt beam="1">  1       -4 0.46055137E-02 0.12499204E+03</pdfrwt>
<totfact> 0.15174491E+03</totfact>
</mgrwt>
</event>
<event>
 5    1  0.1423270E-002  0.1250037E+03  0.7818608E-02  0.1235064E+00
         -4   -1    0    0    0  501 -0.00000000000E+00  0.00000000000E+00  0.23952517056E+03  0.23952853740E+03  0.12700000000E+01 0.  1.
          4   -1    0    0  501    0  0.00000000000E+00 -0.00000000000E+00 -0.16281049738E+02  0.16330507665E+02  0.12700000000E+01 0.  1.
         25    2    1    2    0    0  0.00000000000E+00  0.00000000000E+00  0.22324412082E+03  0.25585904507E+03  0.12500365380E+03 0.  0.
    9000005    1    3    3    0    0 -0.56703600412E+02 -0.24499798271E+02  0.92210770770E+02  0.11099263336E+03  0.10000000000E+01 0.  0.
    9000005    1    3    3    0    0  0.56703600412E+02  0.24499798271E+02  0.13103335005E+03  0.14486641170E+03  0.10000000000E+01 0.  0.
<mgrwt>
<rscale>  0 0.12500365E+03</rscale>
<asrwt>0</asrwt>
<pdfrwt beam="2">  1        4 0.40768655E-02 0.12500365E+03</pdfrwt>
<pdfrwt beam="1">  1       -4 0.59887896E-01 0.12500365E+03</pdfrwt>
<totfact> 0.14303892E+03</totfact>
</mgrwt>
</event>
<event>
 5    1  0.1423270E-002  0.1249907E+03  0.7818608E-02  0.1235084E+00
         -4   -1    0    0    0  501 -0.00000000000E+00  0.00000000000E+00  0.46888600233E+03  0.46888772226E+03  0.12700000000E+01 0. -1.
          4   -1    0    0  501    0  0.00000000000E+00 -0.00000000000E+00 -0.82795174689E+01  0.83763541901E+01  0.12700000000E+01 0. -1.
         25    2    1    2    0    0  0.00000000000E+00  0.00000000000E+00  0.46060648486E+03  0.47726407645E+03  0.12499065872E+03 0.  0.
    9000005    1    3    3    0    0  0.36455053804E+02  0.48770146958E+02  0.17668662447E+03  0.18688676103E+03  0.10000000000E+01 0.  0.
    9000005    1    3    3    0    0 -0.36455053804E+02 -0.48770146958E+02  0.28391986040E+03  0.29037731542E+03  0.10000000000E+01 0.  0.
<mgrwt>
<rscale>  0 0.12499066E+03</rscale>
<asrwt>0</asrwt>
<pdfrwt beam="2">  1        4 0.20821990E-02 0.12499066E+03</pdfrwt>
<pdfrwt beam="1">  1       -4 0.11723382E+00 0.12499066E+03</pdfrwt>
<totfact> 0.91338696E+02</totfact>
</mgrwt>
</event>
<event>
 5    1  0.1423270E-002  0.1250013E+03  0.7818608E-02  0.1235067E+00
          4   -1    0    0  501    0  0.00000000000E+00  0.00000000000E+00  0.80986352737E+02  0.80996309975E+02  0.12700000000E+01 0.  1.
         -4   -1    0    0    0  501 -0.00000000000E+00 -0.00000000000E+00 -0.48213163517E+02  0.48229887376E+02  0.12700000000E+01 0.  1.
         25    2    1    2    0    0  0.00000000000E+00  0.00000000000E+00  0.32773189220E+02  0.12922619735E+03  0.12500131259E+03 0.  0.
    9000005    1    3    3    0    0  0.11859197313E+02  0.61195933194E+02  0.20980807898E+02  0.65778241847E+02  0.10000000000E+01 0.  0.
    9000005    1    3    3    0    0 -0.11859197313E+02 -0.61195933194E+02  0.11792381322E+02  0.63447955504E+02  0.10000000000E+01 0.  0.
<mgrwt>
<rscale>  0 0.12500131E+03</rscale>
<asrwt>0</asrwt>
<pdfrwt beam="1">  1        4 0.20249923E-01 0.12500131E+03</pdfrwt>
<pdfrwt beam="2">  1       -4 0.12056626E-01 0.12500131E+03</pdfrwt>
<totfact> 0.19605472E+03</totfact>
</mgrwt>
</event>
<event>
 5    1  0.1423270E-002  0.1250007E+03  0.7818608E-02  0.1235068E+00
          4   -1    0    0  501    0  0.00000000000E+00  0.00000000000E+00  0.15046905227E+03  0.15047441175E+03  0.12700000000E+01 0.  1.
         -4   -1    0    0    0  501 -0.00000000000E+00 -0.00000000000E+00 -0.25939439195E+02  0.25970510310E+02  0.12700000000E+01 0.  1.
         25    2    1    2    0    0  0.00000000000E+00  0.00000000000E+00  0.12452961308E+03  0.17644492206E+03  0.12500074395E+03 0.  0.
    9000005    1    3    3    0    0  0.93363020636E+01  0.54780633765E+02  0.21912908516E+02  0.59743283568E+02  0.10000000000E+01 0.  0.
    9000005    1    3    3    0    0 -0.93363020636E+01 -0.54780633765E+02  0.10261670456E+03  0.11670163849E+03  0.10000000000E+01 0.  0.
<mgrwt>
<rscale>  0 0.12500074E+03</rscale>
<asrwt>0</asrwt>
<pdfrwt beam="1">  1        4 0.37621816E-01 0.12500074E+03</pdfrwt>
<pdfrwt beam="2">  1       -4 0.64894137E-02 0.12500074E+03</pdfrwt>
<totfact> 0.17309913E+03</totfact>
</mgrwt>
</event>
<event>
 5    1  0.1423270E-002  0.1250000E+03  0.7818608E-02  0.1235069E+00
          4   -1    0    0  501    0  0.00000000000E+00  0.00000000000E+00  0.41647395367E+02  0.41666754624E+02  0.12700000000E+01 0.  1.
         -4   -1    0    0    0  501 -0.00000000000E+00 -0.00000000000E+00 -0.93747964382E+02  0.93756566307E+02  0.12700000000E+01 0.  1.
         25    2    1    2    0    0  0.00000000000E+00  0.00000000000E+00 -0.52100569015E+02  0.13542332093E+03  0.12500002624E+03 0.  0.
    9000005    1    3    3    0    0 -0.32300190611E+02 -0.32861807023E+02 -0.71784729772E+02  0.85306788140E+02  0.10000000000E+01 0.  0.
    9000005    1    3    3    0    0  0.32300190611E+02  0.32861807023E+02  0.19684160757E+02  0.50116532791E+02  0.10000000000E+01 0.  0.
<mgrwt>
<rscale>  0 0.12500003E+03</rscale>
<asrwt>0</asrwt>
<pdfrwt beam="1">  1        4 0.10415344E-01 0.12500003E+03</pdfrwt>
<pdfrwt beam="2">  1       -4 0.23440486E-01 0.12500003E+03</pdfrwt>
<totfact> 0.19276975E+03</totfact>
</mgrwt>
</event>
<event>
 5    1  0.1423270E-002  0.1249981E+03  0.7818608E-02  0.1235072E+00
          4   -1    0    0  501    0  0.00000000000E+00  0.00000000000E+00  0.11363722779E+03  0.11364432428E+03  0.12700000000E+01 0.  1.
         -4   -1    0    0    0  501 -0.00000000000E+00 -0.00000000000E+00 -0.34353806945E+02  0.34377273766E+02  0.12700000000E+01 0.  1.
         25    2    1    2    0    0  0.00000000000E+00  0.00000000000E+00  0.79283420847E+02  0.14802159804E+03  0.12499813065E+03 0.  0.
    9000005    1    3    3    0    0 -0.28851959053E+02 -0.30525018791E+02  0.94434306337E+02  0.10335884349E+03  0.10000000000E+01 0.  0.
    9000005    1    3    3    0    0  0.28851959053E+02  0.30525018791E+02 -0.15150885490E+02  0.44662754556E+02  0.10000000000E+01 0.  0.
<mgrwt>
<rscale>  0 0.12499813E+03</rscale>
<asrwt>0</asrwt>
<pdfrwt beam="1">  1        4 0.28413127E-01 0.12499813E+03</pdfrwt>
<pdfrwt beam="2">  1       -4 0.85922722E-02 0.12499813E+03</pdfrwt>
<totfact> 0.18637300E+03</totfact>
</mgrwt>
</event>
<event>
 5    1  0.1423270E-002  0.1250033E+03  0.7818608E-02  0.1235064E+00
          4   -1    0    0  501    0  0.00000000000E+00  0.00000000000E+00  0.16222984964E+02  0.16272619369E+02  0.12700000000E+01 0.  1.
         -4   -1    0    0    0  501 -0.00000000000E+00 -0.00000000000E+00 -0.24037850449E+03  0.24038185938E+03  0.12700000000E+01 0.  1.
         25    2    1    2    0    0  0.00000000000E+00  0.00000000000E+00 -0.22415551952E+03  0.25665447875E+03  0.12500329808E+03 0.  0.
    9000005    1    3    3    0    0 -0.21645499045E+01  0.59809991396E+02 -0.14900854464E+03  0.16058165126E+03  0.10000000000E+01 0.  0.
    9000005    1    3    3    0    0  0.21645499045E+01 -0.59809991396E+02 -0.75146974882E+02  0.96072827485E+02  0.10000000000E+01 0.  0.
<mgrwt>
<rscale>  0 0.12500330E+03</rscale>
<asrwt>0</asrwt>
<pdfrwt beam="1">  1        4 0.40623707E-02 0.12500330E+03</pdfrwt>
<pdfrwt beam="2">  1       -4 0.60101238E-01 0.12500330E+03</pdfrwt>
<totfact> 0.14278132E+03</totfact>
</mgrwt>
</event>
<event>
 5    1  0.1423270E-002  0.1249952E+03  0.7818608E-02  0.1235077E+00
          4   -1    0    0  501    0  0.00000000000E+00  0.00000000000E+00  0.11651767605E+03  0.11652459711E+03  0.12700000000E+01 0.  1.
         -4   -1    0    0    0  501 -0.00000000000E+00 -0.00000000000E+00 -0.33502421530E+02  0.33526484283E+02  0.12700000000E+01 0.  1.
         25    2    1    2    0    0  0.00000000000E+00  0.00000000000E+00  0.83015254521E+02  0.15005108140E+03  0.12499517809E+03 0.  0.
    9000005    1    3    3    0    0 -0.38932512506E+02  0.31061128526E+02 -0.37992414542E+01  0.49959668444E+02  0.10000000000E+01 0.  0.
    9000005    1    3    3    0    0  0.38932512506E+02 -0.31061128526E+02  0.86814495975E+02  0.10009141295E+03  0.10000000000E+01 0.  0.
<mgrwt>
<rscale>  0 0.12499518E+03</rscale>
<asrwt>0</asrwt>
<pdfrwt beam="1">  1        4 0.29133292E-01 0.12499518E+03</pdfrwt>
<pdfrwt beam="2">  1       -4 0.83794784E-02 0.12499518E+03</pdfrwt>
<totfact> 0.18538350E+03</totfact>
</mgrwt>
</event>
<event>
 5    1  0.1423270E-002  0.1250048E+03  0.7818608E-02  0.1235062E+00
         -4   -1    0    0    0  501 -0.00000000000E+00  0.00000000000E+00  0.36537910280E+01  0.38682152055E+01  0.12700000000E+01 0.  1.
          4   -1    0    0  501    0  0.00000000000E+00 -0.00000000000E+00 -0.10384838873E+04  0.10384846638E+04  0.12700000000E+01 0.  1.
         25    2    1    2    0    0  0.00000000000E+00  0.00000000000E+00 -0.10348300963E+04  0.10423528791E+04  0.12500478533E+03 0.  0.
    9000005    1    3    3    0    0 -0.46417105973E+01  0.84447530172E+01 -0.25376052052E+01  0.10014927407E+02  0.10000000000E+01 0.  0.
    9000005    1    3    3    0    0  0.46417105973E+01 -0.84447530172E+01 -0.10322924911E+04  0.10323379516E+04  0.10000000000E+01 0.  0.
<mgrwt>
<rscale>  0 0.12500479E+03</rscale>
<asrwt>0</asrwt>
<pdfrwt beam="2">  1        4 0.25964689E+00 0.12500479E+03</pdfrwt>
<pdfrwt beam="1">  1       -4 0.94035141E-03 0.12500479E+03</pdfrwt>
<totfact> 0.34330241E+02</totfact>
</mgrwt>
</event>
<event>
 5    1  0.1423270E-002  0.1250001E+03  0.7818608E-02  0.1235069E+00
         -4   -1    0    0    0  501 -0.00000000000E+00  0.00000000000E+00  0.75458084724E+02  0.75468771358E+02  0.12700000000E+01 0.  1.
          4   -1    0    0  501    0  0.00000000000E+00 -0.00000000000E+00 -0.51745062388E+02  0.51760645104E+02  0.12700000000E+01 0.  1.
         25    2    1    2    0    0  0.00000000000E+00  0.00000000000E+00  0.23713022336E+02  0.12722941646E+03  0.12500006794E+03 0.  0.
    9000005    1    3    3    0    0 -0.41778775712E+02 -0.44962641996E+02  0.23819814470E+02  0.65844429048E+02  0.10000000000E+01 0.  0.
    9000005    1    3    3    0    0  0.41778775712E+02  0.44962641996E+02 -0.10679213411E+00  0.61384987414E+02  0.10000000000E+01 0.  0.
<mgrwt>
<rscale>  0 0.12500007E+03</rscale>
<asrwt>0</asrwt>
<pdfrwt beam="2">  1        4 0.12939549E-01 0.12500007E+03</pdfrwt>
<pdfrwt beam="1">  1       -4 0.18867805E-01 0.12500007E+03</pdfrwt>
<totfact> 0.19714521E+03</totfact>
</mgrwt>
</event>
<event>
 5    1  0.1423270E-002  0.1250009E+03  0.7818608E-02  0.1235068E+00
          4   -1    0    0  501    0  0.00000000000E+00  0.00000000000E+00  0.58111392764E+02  0.58125268765E+02  0.12700000000E+01 0.  1.
         -4   -1    0    0    0  501 -0.00000000000E+00 -0.00000000000E+00 -0.67193061880E+02  0.67205062792E+02  0.12700000000E+01 0.  1.
         25    2    1    2    0    0  0.00000000000E+00  0.00000000000E+00 -0.90816691161E+01  0.12533033156E+03  0.12500086117E+03 0.  0.
    9000005    1    3    3    0    0 -0.42392778158E+02 -0.44389415451E+02  0.72261960866E+01  0.61812504834E+02  0.10000000000E+01 0.  0.
    9000005    1    3    3    0    0  0.42392778158E+02  0.44389415451E+02 -0.16307865203E+02  0.63517826722E+02  0.10000000000E+01 0.  0.
<mgrwt>
<rscale>  0 0.12500086E+03</rscale>
<asrwt>0</asrwt>
<pdfrwt beam="1">  1        4 0.14531083E-01 0.12500086E+03</pdfrwt>
<pdfrwt beam="2">  1       -4 0.16801500E-01 0.12500086E+03</pdfrwt>
<totfact> 0.19816752E+03</totfact>
</mgrwt>
</event>
<event>
 5    1  0.1423270E-002  0.1249990E+03  0.7818608E-02  0.1235071E+00
          4   -1    0    0  501    0  0.00000000000E+00  0.00000000000E+00  0.63050880208E+01  0.64317209944E+01  0.12700000000E+01 0. -1.
         -4   -1    0    0    0  501 -0.00000000000E+00 -0.00000000000E+00 -0.61324284775E+03  0.61324416280E+03  0.12700000000E+01 0. -1.
         25    2    1    2    0    0  0.00000000000E+00  0.00000000000E+00 -0.60693775973E+03  0.61967588380E+03  0.12499902711E+03 0.  0.
    9000005    1    3    3    0    0 -0.33005915626E+02 -0.36312676531E+02 -0.11164787254E+03  0.12196002782E+03  0.10000000000E+01 0.  0.
    9000005    1    3    3    0    0  0.33005915626E+02  0.36312676531E+02 -0.49528988719E+03  0.49771585598E+03  0.10000000000E+01 0.  0.
<mgrwt>
<rscale>  0 0.12499903E+03</rscale>
<asrwt>0</asrwt>
<pdfrwt beam="1">  1        4 0.15922676E-02 0.12499903E+03</pdfrwt>
<pdfrwt beam="2">  1       -4 0.15332650E+00 0.12499903E+03</pdfrwt>
<totfact> 0.71082772E+02</totfact>
</mgrwt>
</event>
<event>
 5    1  0.1423270E-002  0.1250007E+03  0.7818608E-02  0.1235068E+00
          4   -1    0    0  501    0  0.00000000000E+00  0.00000000000E+00  0.95384035202E+02  0.95392489597E+02  0.12700000000E+01 0. -1.
         -4   -1    0    0    0  501 -0.00000000000E+00 -0.00000000000E+00 -0.40933239063E+02  0.40952935916E+02  0.12700000000E+01 0. -1.
         25    2    1    2    0    0  0.00000000000E+00  0.00000000000E+00  0.54450796139E+02  0.13634542551E+03  0.12500074343E+03 0.  0.
    9000005    1    3    3    0    0 -0.49298137765E+02  0.78846128544E+01 -0.13773468191E+02  0.51799439504E+02  0.10000000000E+01 0.  0.
    9000005    1    3    3    0    0  0.49298137765E+02 -0.78846128544E+01  0.68224264330E+02  0.84545986009E+02  0.10000000000E+01 0.  0.
<mgrwt>
<rscale>  0 0.12500074E+03</rscale>
<asrwt>0</asrwt>
<pdfrwt beam="1">  1        4 0.23849528E-01 0.12500074E+03</pdfrwt>
<pdfrwt beam="2">  1       -4 0.10236829E-01 0.12500074E+03</pdfrwt>
<totfact> 0.19228562E+03</totfact>
</mgrwt>
</event>
<event>
 5    1  0.1423270E-002  0.1250022E+03  0.7818608E-02  0.1235066E+00
         -4   -1    0    0    0  501 -0.00000000000E+00  0.00000000000E+00  0.67245259409E+01  0.68434018682E+01  0.12700000000E+01 0.  1.
          4   -1    0    0  501    0  0.00000000000E+00 -0.00000000000E+00 -0.57570682119E+03  0.57570822199E+03  0.12700000000E+01 0.  1.
         25    2    1    2    0    0  0.00000000000E+00  0.00000000000E+00 -0.56898229525E+03  0.58255162385E+03  0.12500216858E+03 0.  0.
    9000005    1    3    3    0    0 -0.18928113785E+02 -0.33039809473E+02 -0.53558497796E+02  0.65722257931E+02  0.10000000000E+01 0.  0.
    9000005    1    3    3    0    0  0.18928113785E+02  0.33039809473E+02 -0.51542379745E+03  0.51682936592E+03  0.10000000000E+01 0.  0.
<mgrwt>
<rscale>  0 0.12500217E+03</rscale>
<asrwt>0</asrwt>
<pdfrwt beam="2">  1        4 0.14394157E+00 0.12500217E+03</pdfrwt>
<pdfrwt beam="1">  1       -4 0.16961680E-02 0.12500217E+03</pdfrwt>
<totfact> 0.75739460E+02</totfact>
</mgrwt>
</event>
<event>
 5    1  0.1423270E-002  0.1249823E+03  0.7818608E-02  0.1235097E+00
          4   -1    0    0  501    0  0.00000000000E+00  0.00000000000E+00  0.89963651211E+02  0.89972614941E+02  0.12700000000E+01 0.  1.
         -4   -1    0    0    0  501 -0.00000000000E+00 -0.00000000000E+00 -0.43387631269E+02  0.43406214383E+02  0.12700000000E+01 0.  1.
         25    2    1    2    0    0  0.00000000000E+00  0.00000000000E+00  0.46576019943E+02  0.13337882932E+03  0.12498234467E+03 0.  0.
    9000005    1    3    3    0    0  0.12424414421E+02 -0.50801900766E+02 -0.13198785540E+02  0.53948189357E+02  0.10000000000E+01 0.  0.
    9000005    1    3    3    0    0 -0.12424414421E+02  0.50801900766E+02  0.59774805483E+02  0.79430639968E+02  0.10000000000E+01 0.  0.
<mgrwt>
<rscale>  0 0.12498234E+03</rscale>
<asrwt>0</asrwt>
<pdfrwt beam="1">  1        4 0.22494356E-01 0.12498234E+03</pdfrwt>
<pdfrwt beam="2">  1       -4 0.10850351E-01 0.12498234E+03</pdfrwt>
<totfact> 0.19392381E+03</totfact>
</mgrwt>
</event>
<event>
 5    1  0.1423270E-002  0.1250075E+03  0.7818608E-02  0.1235058E+00
         -4   -1    0    0    0  501 -0.00000000000E+00  0.00000000000E+00  0.76653424120E+02  0.76663944129E+02  0.12700000000E+01 0.  1.
          4   -1    0    0  501    0  0.00000000000E+00 -0.00000000000E+00 -0.50944091040E+02  0.50959918680E+02  0.12700000000E+01 0.  1.
         25    2    1    2    0    0  0.00000000000E+00  0.00000000000E+00  0.25709333080E+02  0.12762386281E+03  0.12500752198E+03 0.  0.
    9000005    1    3    3    0    0 -0.43106173686E+01  0.25290716545E+02  0.71034375909E+02  0.75532008620E+02  0.10000000000E+01 0.  0.
    9000005    1    3    3    0    0  0.43106173686E+01 -0.25290716545E+02 -0.45325042829E+02  0.52091854189E+02  0.10000000000E+01 0.  0.
<mgrwt>
<rscale>  0 0.12500752E+03</rscale>
<asrwt>0</asrwt>
<pdfrwt beam="2">  1        4 0.12739316E-01 0.12500752E+03</pdfrwt>
<pdfrwt beam="1">  1       -4 0.19166649E-01 0.12500752E+03</pdfrwt>
<totfact> 0.19689568E+03</totfact>
</mgrwt>
</event>
<event>
 5    1  0.1423270E-002  0.1250060E+03  0.7818608E-02  0.1235060E+00
          4   -1    0    0  501    0  0.00000000000E+00  0.00000000000E+00  0.19247991290E+03  0.19248410265E+03  0.12700000000E+01 0.  1.
         -4   -1    0    0    0  501 -0.00000000000E+00 -0.00000000000E+00 -0.20272003029E+02  0.20311745538E+02  0.12700000000E+01 0.  1.
         25    2    1    2    0    0  0.00000000000E+00  0.00000000000E+00  0.17220790988E+03  0.21279584819E+03  0.12500603498E+03 0.  0.
    9000005    1    3    3    0    0 -0.49754338007E+02  0.76529436688E+01  0.14914747382E+03  0.15741674194E+03  0.10000000000E+01 0.  0.
    9000005    1    3    3    0    0  0.49754338007E+02 -0.76529436688E+01  0.23060436060E+02  0.55379106246E+02  0.10000000000E+01 0.  0.
<mgrwt>
<rscale>  0 0.12500603E+03</rscale>
<asrwt>0</asrwt>
<pdfrwt beam="1">  1        4 0.48125469E-01 0.12500603E+03</pdfrwt>
<pdfrwt beam="2">  1       -4 0.50734924E-02 0.12500603E+03</pdfrwt>
<totfact> 0.15819977E+03</totfact>
</mgrwt>
</event>
<event>
 5    1  0.1423270E-002  0.1249928E+03  0.7818608E-02  0.1235080E+00
         -4   -1    0    0    0  501 -0.00000000000E+00  0.00000000000E+00  0.19728578653E+03  0.19728987422E+03  0.12700000000E+01 0. -1.
          4   -1    0    0  501    0  0.00000000000E+00 -0.00000000000E+00 -0.19773026058E+02  0.19813769442E+02  0.12700000000E+01 0. -1.
         25    2    1    2    0    0  0.00000000000E+00  0.00000000000E+00  0.17751276048E+03  0.21710364366E+03  0.12499284763E+03 0.  0.
    9000005    1    3    3    0    0 -0.29886696885E+02 -0.52611053860E+02  0.61643301320E+02  0.86383066840E+02  0.10000000000E+01 0.  0.
    9000005    1    3    3    0    0  0.29886696885E+02  0.52611053860E+02  0.11586945916E+03  0.13072057682E+03  0.10000000000E+01 0.  0.
<mgrwt>
<rscale>  0 0.12499285E+03</rscale>
<asrwt>0</asrwt>
<pdfrwt beam="2">  1        4 0.49488605E-02 0.12499285E+03</pdfrwt>
<pdfrwt beam="1">  1       -4 0.49327049E-01 0.12499285E+03</pdfrwt>
<totfact> 0.15661929E+03</totfact>
</mgrwt>
</event>
<event>
 5    1  0.1423270E-002  0.1249991E+03  0.7818608E-02  0.1235071E+00
          4   -1    0    0  501    0  0.00000000000E+00  0.00000000000E+00  0.17664923654E+03  0.17665380174E+03  0.12700000000E+01 0. -1.
         -4   -1    0    0    0  501 -0.00000000000E+00 -0.00000000000E+00 -0.22089605774E+02  0.22126083775E+02  0.12700000000E+01 0. -1.
         25    2    1    2    0    0  0.00000000000E+00  0.00000000000E+00  0.15455963076E+03  0.19877988551E+03  0.12499905369E+03 0.  0.
    9000005    1    3    3    0    0 -0.37108790206E+02 -0.43634099556E+02  0.11701044720E+03  0.13028216189E+03  0.10000000000E+01 0.  0.
    9000005    1    3    3    0    0  0.37108790206E+02  0.43634099556E+02  0.37549183566E+02  0.68497723620E+02  0.10000000000E+01 0.  0.
<mgrwt>
<rscale>  0 0.12499905E+03</rscale>
<asrwt>0</asrwt>
<pdfrwt beam="1">  1        4 0.44167439E-01 0.12499905E+03</pdfrwt>
<pdfrwt beam="2">  1       -4 0.55275319E-02 0.12499905E+03</pdfrwt>
<totfact> 0.16371371E+03</totfact>
</mgrwt>
</event>
<event>
 5    1  0.1423270E-002  0.1250045E+03  0.7818608E-02  0.1235062E+00
          4   -1    0    0  501    0  0.00000000000E+00  0.00000000000E+00  0.44450776190E+02  0.44468915029E+02  0.12700000000E+01 0.  1.
         -4   -1    0    0    0  501 -0.00000000000E+00 -0.00000000000E+00 -0.87843743337E+02  0.87852923363E+02  0.12700000000E+01 0.  1.
         25    2    1    2    0    0  0.00000000000E+00  0.00000000000E+00 -0.43392967147E+02  0.13232183839E+03  0.12500447719E+03 0.  0.
    9000005    1    3    3    0    0 -0.46426050874E+02 -0.11345613462E+02  0.20927583239E+02  0.52182994211E+02  0.10000000000E+01 0.  0.
    9000005    1    3    3    0    0  0.46426050874E+02  0.11345613462E+02 -0.64320550386E+02  0.80138844181E+02  0.10000000000E+01 0.  0.
<mgrwt>
<rscale>  0 0.12500448E+03</rscale>
<asrwt>0</asrwt>
<pdfrwt beam="1">  1        4 0.11116109E-01 0.12500448E+03</pdfrwt>
<pdfrwt beam="2">  1       -4 0.21964350E-01 0.12500448E+03</pdfrwt>
<totfact> 0.19438323E+03</totfact>
</mgrwt>
</event>
<event>
 5    1  0.1423270E-002  0.1250092E+03  0.7818608E-02  0.1235055E+00
          4   -1    0    0  501    0  0.00000000000E+00  0.00000000000E+00  0.13183820847E+03  0.13184432530E+03  0.12700000000E+01 0. -1.
         -4   -1    0    0    0  501 -0.00000000000E+00 -0.00000000000E+00 -0.29613084688E+02  0.29640305072E+02  0.12700000000E+01 0. -1.
         25    2    1    2    0    0  0.00000000000E+00  0.00000000000E+00  0.10222512378E+03  0.16148463037E+03  0.12500923931E+03 0.  0.
    9000005    1    3    3    0    0 -0.15734793531E+02 -0.27805369716E+02  0.12049825094E+03  0.12466575629E+03  0.10000000000E+01 0.  0.
    9000005    1    3    3    0    0  0.15734793531E+02  0.27805369716E+02 -0.18273127153E+02  0.36818874079E+02  0.10000000000E+01 0.  0.
<mgrwt>
<rscale>  0 0.12500924E+03</rscale>
<asrwt>0</asrwt>
<pdfrwt beam="1">  1        4 0.32963719E-01 0.12500924E+03</pdfrwt>
<pdfrwt beam="2">  1       -4 0.74074383E-02 0.12500924E+03</pdfrwt>
<totfact> 0.17984247E+03</totfact>
</mgrwt>
</event>
<event>
 5    1  0.1423270E-002  0.1250040E+03  0.7818608E-02  0.1235063E+00
         -4   -1    0    0    0  501 -0.00000000000E+00  0.00000000000E+00  0.32347068911E+03  0.32347318222E+03  0.12700000000E+01 0.  1.
          4   -1    0    0  501    0  0.00000000000E+00 -0.00000000000E+00 -0.12040901663E+02  0.12107692301E+02  0.12700000000E+01 0.  1.
         25    2    1    2    0    0  0.00000000000E+00  0.00000000000E+00  0.31142978745E+03  0.33558087452E+03  0.12500404327E+03 0.  0.
    9000005    1    3    3    0    0  0.54501359764E+02 -0.81225869940E+01  0.76571434279E+02  0.94342774938E+02  0.10000000000E+01 0.  0.
    9000005    1    3    3    0    0 -0.54501359764E+02  0.81225869940E+01  0.23485835317E+03  0.24123809958E+03  0.10000000000E+01 0.  0.
<mgrwt>
<rscale>  0 0.12500404E+03</rscale>
<asrwt>0</asrwt>
<pdfrwt beam="2">  1        4 0.30188858E-02 0.12500404E+03</pdfrwt>
<pdfrwt beam="1">  1       -4 0.80876335E-01 0.12500404E+03</pdfrwt>
<totfact> 0.12028229E+03</totfact>
</mgrwt>
</event>
<event>
 5    1  0.1423270E-002  0.1249992E+03  0.7818608E-02  0.1235071E+00
         -4   -1    0    0    0  501 -0.00000000000E+00  0.00000000000E+00  0.13100657134E+03  0.13101272699E+03  0.12700000000E+01 0.  1.
          4   -1    0    0  501    0  0.00000000000E+00 -0.00000000000E+00 -0.29796439017E+02  0.29823492051E+02  0.12700000000E+01 0.  1.
         25    2    1    2    0    0  0.00000000000E+00  0.00000000000E+00  0.10121013232E+03  0.16083621904E+03  0.12499919388E+03 0.  0.
    9000005    1    3    3    0    0 -0.22553289587E+02  0.57451540280E+02  0.63203493749E+02  0.88345978821E+02  0.10000000000E+01 0.  0.
    9000005    1    3    3    0    0  0.22553289587E+02 -0.57451540280E+02  0.38006638571E+02  0.72490240220E+02  0.10000000000E+01 0.  0.
<mgrwt>
<rscale>  0 0.12499919E+03</rscale>
<asrwt>0</asrwt>
<pdfrwt beam="2">  1        4 0.74532610E-02 0.12499919E+03</pdfrwt>
<pdfrwt beam="1">  1       -4 0.32755793E-01 0.12499919E+03</pdfrwt>
<totfact> 0.18018809E+03</totfact>
</mgrwt>
</event>
<event>
 5    1  0.1423270E-002  0.1249989E+03  0.7818608E-02  0.1235071E+00
         -4   -1    0    0    0  501 -0.00000000000E+00  0.00000000000E+00  0.22485254462E+02  0.22521091630E+02  0.12700000000E+01 0.  1.
          4   -1    0    0  501    0  0.00000000000E+00 -0.00000000000E+00 -0.17354539987E+03  0.17355004672E+03  0.12700000000E+01 0.  1.
         25    2    1    2    0    0  0.00000000000E+00  0.00000000000E+00 -0.15106014541E+03  0.19607113835E+03  0.12499889505E+03 0.  0.
    9000005    1    3    3    0    0  0.32855976101E+02 -0.90008807017E+01 -0.15770720381E+03  0.16134773984E+03  0.10000000000E+01 0.  0.
    9000005    1    3    3    0    0 -0.32855976101E+02  0.90008807017E+01  0.66470583954E+01  0.34723398512E+02  0.10000000000E+01 0.  0.
<mgrwt>
<rscale>  0 0.12499890E+03</rscale>
<asrwt>0</asrwt>
<pdfrwt beam="2">  1        4 0.43391406E-01 0.12499890E+03</pdfrwt>
<pdfrwt beam="1">  1       -4 0.56263746E-02 0.12499890E+03</pdfrwt>
<totfact> 0.16480999E+03</totfact>
</mgrwt>
</event>
<event>
 5    1  0.1423270E-002  0.1249979E+03  0.7818608E-02  0.1235072E+00
          4   -1    0    0  501    0  0.00000000000E+00  0.00000000000E+00  0.40832416873E+03  0.40832614375E+03  0.12700000000E+01 0.  1.
         -4   -1    0    0    0  501 -0.00000000000E+00 -0.00000000000E+00 -0.95220681088E+01  0.96063875140E+01  0.12700000000E+01 0.  1.
         25    2    1    2    0    0  0.00000000000E+00  0.00000000000E+00  0.39880210062E+03  0.41793253126E+03  0.12499794090E+03 0.  0.
    9000005    1    3    3    0    0  0.43184250737E+02 -0.44660278601E+02  0.22200413154E+03  0.23053471413E+03  0.10000000000E+01 0.  0.
    9000005    1    3    3    0    0 -0.43184250737E+02  0.44660278601E+02  0.17679796908E+03  0.18739781714E+03  0.10000000000E+01 0.  0.
<mgrwt>
<rscale>  0 0.12499794E+03</rscale>
<asrwt>0</asrwt>
<pdfrwt beam="1">  1        4 0.10209183E+00 0.12499794E+03</pdfrwt>
<pdfrwt beam="2">  1       -4 0.23913038E-02 0.12499794E+03</pdfrwt>
<totfact> 0.10207444E+03</totfact>
</mgrwt>
</event>
<event>
 5    1  0.1423270E-002  0.1249945E+03  0.7818608E-02  0.1235078E+00
         -4   -1    0    0    0  501 -0.00000000000E+00  0.00000000000E+00  0.31228990873E+03  0.31229249110E+03  0.12700000000E+01 0.  1.
          4   -1    0    0  501    0  0.00000000000E+00 -0.00000000000E+00 -0.12472424865E+02  0.12536916767E+02  0.12700000000E+01 0.  1.
         25    2    1    2    0    0  0.00000000000E+00  0.00000000000E+00  0.29981748387E+03  0.32482940786E+03  0.12499448220E+03 0.  0.
    9000005    1    3    3    0    0 -0.43697981231E+02  0.41697231576E+02  0.10826930097E+03  0.12398150756E+03  0.10000000000E+01 0.  0.
    9000005    1    3    3    0    0  0.43697981231E+02 -0.41697231576E+02  0.19154818290E+03  0.20084790030E+03  0.10000000000E+01 0.  0.
<mgrwt>
<rscale>  0 0.12499448E+03</rscale>
<asrwt>0</asrwt>
<pdfrwt beam="2">  1        4 0.31264906E-02 0.12499448E+03</pdfrwt>
<pdfrwt beam="1">  1       -4 0.78080858E-01 0.12499448E+03</pdfrwt>
<totfact> 0.12304184E+03</totfact>
</mgrwt>
</event>
<event>
 5    1  0.1423270E-002  0.1249936E+03  0.7818608E-02  0.1235079E+00
          4   -1    0    0  501    0  0.00000000000E+00  0.00000000000E+00  0.48010361656E+02  0.48027156134E+02  0.12700000000E+01 0.  1.
         -4   -1    0    0    0  501 -0.00000000000E+00 -0.00000000000E+00 -0.81318336408E+02  0.81328253001E+02  0.12700000000E+01 0.  1.
         25    2    1    2    0    0  0.00000000000E+00  0.00000000000E+00 -0.33307974752E+02  0.12935540914E+03  0.12499360260E+03 0.  0.
    9000005    1    3    3    0    0 -0.44002370262E+02 -0.35711473885E+02 -0.43904049631E+02  0.71694375859E+02  0.10000000000E+01 0.  0.
    9000005    1    3    3    0    0  0.44002370262E+02  0.35711473885E+02  0.10596074879E+02  0.57661033277E+02  0.10000000000E+01 0.  0.
<mgrwt>
<rscale>  0 0.12499360E+03</rscale>
<asrwt>0</asrwt>
<pdfrwt beam="1">  1        4 0.12005929E-01 0.12499360E+03</pdfrwt>
<pdfrwt beam="2">  1       -4 0.20332923E-01 0.12499360E+03</pdfrwt>
<totfact> 0.19602025E+03</totfact>
</mgrwt>
</event>
<event>
 5    1  0.1423270E-002  0.1249848E+03  0.7818608E-02  0.1235093E+00
          4   -1    0    0  501    0  0.00000000000E+00  0.00000000000E+00  0.13086861810E+02  0.13148340276E+02  0.12700000000E+01 0.  1.
         -4   -1    0    0    0  501 -0.00000000000E+00 -0.00000000000E+00 -0.29765153479E+03  0.29765424415E+03  0.12700000000E+01 0.  1.
         25    2    1    2    0    0  0.00000000000E+00  0.00000000000E+00 -0.28456467298E+03  0.31080258443E+03  0.12498477259E+03 0.  0.
    9000005    1    3    3    0    0  0.50694610189E+02  0.35516467491E+02 -0.16351950638E+03  0.17484562314E+03  0.10000000000E+01 0.  0.
    9000005    1    3    3    0    0 -0.50694610189E+02 -0.35516467491E+02 -0.12104516660E+03  0.13595696129E+03  0.10000000000E+01 0.  0.
<mgrwt>
<rscale>  0 0.12498477E+03</rscale>
<asrwt>0</asrwt>
<pdfrwt beam="1">  1        4 0.32797399E-02 0.12498477E+03</pdfrwt>
<pdfrwt beam="2">  1       -4 0.74420885E-01 0.12498477E+03</pdfrwt>
<totfact> 0.12678026E+03</totfact>
</mgrwt>
</event>
<event>
 5    1  0.1423270E-002  0.1250020E+03  0.7818608E-02  0.1235066E+00
          4   -1    0    0  501    0  0.00000000000E+00  0.00000000000E+00  0.12763620630E+02  0.12826648493E+02  0.12700000000E+01 0.  1.
         -4   -1    0    0    0  501 -0.00000000000E+00 -0.00000000000E+00 -0.30523718874E+03  0.30523983077E+03  0.12700000000E+01 0.  1.
         25    2    1    2    0    0  0.00000000000E+00  0.00000000000E+00 -0.29247356811E+03  0.31806647927E+03  0.12500198874E+03 0.  0.
    9000005    1    3    3    0    0  0.42192608581E+02 -0.29775639629E+02 -0.23578586762E+03  0.24137684293E+03  0.10000000000E+01 0.  0.
    9000005    1    3    3    0    0 -0.42192608581E+02  0.29775639629E+02 -0.56687700491E+02  0.76689636335E+02  0.10000000000E+01 0.  0.
<mgrwt>
<rscale>  0 0.12500199E+03</rscale>
<asrwt>0</asrwt>
<pdfrwt beam="1">  1        4 0.31991149E-02 0.12500199E+03</pdfrwt>
<pdfrwt beam="2">  1       -4 0.76317482E-01 0.12500199E+03</pdfrwt>
<totfact> 0.12478834E+03</totfact>
</mgrwt>
</event>
<event>
 5    1  0.1423270E-002  0.1249926E+03  0.7818608E-02  0.1235081E+00
          4   -1    0    0  501    0  0.00000000000E+00  0.00000000000E+00  0.66091179285E+03  0.66091301306E+03  0.12700000000E+01 0. -1.
         -4   -1    0    0    0  501 -0.00000000000E+00 -0.00000000000E+00 -0.58402200999E+01  0.59767107020E+01  0.12700000000E+01 0. -1.
         25    2    1    2    0    0  0.00000000000E+00  0.00000000000E+00  0.65507157275E+03  0.66688972376E+03  0.12499255270E+03 0.  0.
    9000005    1    3    3    0    0  0.48408041453E+01  0.32229780029E+02  0.43071868682E+02  0.54022013820E+02  0.10000000000E+01 0.  0.
    9000005    1    3    3    0    0 -0.48408041453E+01 -0.32229780029E+02  0.61199970407E+03  0.61286770994E+03  0.10000000000E+01 0.  0.
<mgrwt>
<rscale>  0 0.12499255E+03</rscale>
<asrwt>0</asrwt>
<pdfrwt beam="1">  1        4 0.16524511E+00 0.12499255E+03</pdfrwt>
<pdfrwt beam="2">  1       -4 0.14772694E-02 0.12499255E+03</pdfrwt>
<totfact> 0.65622164E+02</totfact>
</mgrwt>
</event>
<event>
 5    1  0.1423270E-002  0.1249999E+03  0.7818608E-02  0.1235069E+00
          4   -1    0    0  501    0  0.00000000000E+00  0.00000000000E+00  0.19008326840E+02  0.19050705742E+02  0.12700000000E+01 0. -1.
         -4   -1    0    0    0  501 -0.00000000000E+00 -0.00000000000E+00 -0.20522866945E+03  0.20523259893E+03  0.12700000000E+01 0. -1.
         25    2    1    2    0    0  0.00000000000E+00  0.00000000000E+00 -0.18622034261E+03  0.22428330468E+03  0.12499993901E+03 0.  0.
    9000005    1    3    3    0    0 -0.43513436122E+02 -0.61057517209E+01 -0.13380335818E+02  0.45942711215E+02  0.10000000000E+01 0.  0.
    9000005    1    3    3    0    0  0.43513436122E+02  0.61057517209E+01 -0.17284000680E+03  0.17834059346E+03  0.10000000000E+01 0.  0.
<mgrwt>
<rscale>  0 0.12499994E+03</rscale>
<asrwt>0</asrwt>
<pdfrwt beam="1">  1        4 0.47578709E-02 0.12499994E+03</pdfrwt>
<pdfrwt beam="2">  1       -4 0.51312949E-01 0.12499994E+03</pdfrwt>
<totfact> 0.15393778E+03</totfact>
</mgrwt>
</event>
<event>
 5    1  0.1423270E-002  0.1249987E+03  0.7818608E-02  0.1235071E+00
         -4   -1    0    0    0  501 -0.00000000000E+00  0.00000000000E+00  0.98902972941E+02  0.98911126556E+02  0.12700000000E+01 0. -1.
          4   -1    0    0  501    0  0.00000000000E+00 -0.00000000000E+00 -0.39474989527E+02  0.39495413634E+02  0.12700000000E+01 0. -1.
         25    2    1    2    0    0  0.00000000000E+00  0.00000000000E+00  0.59427983414E+02  0.13840654019E+03  0.12499874061E+03 0.  0.
    9000005    1    3    3    0    0  0.22168703024E+02  0.53493218612E+02  0.36945849784E+01  0.58031248387E+02  0.10000000000E+01 0.  0.
    9000005    1    3    3    0    0 -0.22168703024E+02 -0.53493218612E+02  0.55733398436E+02  0.80375291803E+02  0.10000000000E+01 0.  0.
<mgrwt>
<rscale>  0 0.12499874E+03</rscale>
<asrwt>0</asrwt>
<pdfrwt beam="2">  1        4 0.98723197E-02 0.12499874E+03</pdfrwt>
<pdfrwt beam="1">  1       -4 0.24729315E-01 0.12499874E+03</pdfrwt>
<totfact> 0.19122722E+03</totfact>
</mgrwt>
</event>
<event>
 5    1  0.1423270E-002  0.1249954E+03  0.7818608E-02  0.1235076E+00
          4   -1    0    0  501    0  0.00000000000E+00  0.00000000000E+00  0.22680589105E+02  0.22716118113E+02  0.12700000000E+01 0.  1.
         -4   -1    0    0    0  501 -0.00000000000E+00 -0.00000000000E+00 -0.17204354661E+03  0.17204823402E+03  0.12700000000E+01 0.  1.
         25    2    1    2    0    0  0.00000000000E+00  0.00000000000E+00 -0.14936295751E+03  0.19476435214E+03  0.12499543907E+03 0.  0.
    9000005    1    3    3    0    0  0.62005936174E+02  0.77452571085E+01 -0.73918422424E+02  0.96796995316E+02  0.10000000000E+01 0.  0.
    9000005    1    3    3    0    0 -0.62005936174E+02 -0.77452571085E+01 -0.75444535081E+02  0.97967356819E+02  0.10000000000E+01 0.  0.
<mgrwt>
<rscale>  0 0.12499544E+03</rscale>
<asrwt>0</asrwt>
<pdfrwt beam="1">  1        4 0.56751748E-02 0.12499544E+03</pdfrwt>
<pdfrwt beam="2">  1       -4 0.43015910E-01 0.12499544E+03</pdfrwt>
<totfact> 0.16535599E+03</totfact>
</mgrwt>
</event>
<event>
 5    1  0.1423270E-002  0.1249983E+03  0.7818608E-02  0.1235072E+00
          4   -1    0    0  501    0  0.00000000000E+00  0.00000000000E+00  0.29020485803E+02  0.29048261501E+02  0.12700000000E+01 0.  1.
         -4   -1    0    0    0  501 -0.00000000000E+00 -0.00000000000E+00 -0.13450432503E+03  0.13451032061E+03  0.12700000000E+01 0.  1.
         25    2    1    2    0    0  0.00000000000E+00  0.00000000000E+00 -0.10548383922E+03  0.16355858211E+03  0.12499827777E+03 0.  0.
    9000005    1    3    3    0    0  0.21480663534E+02  0.56362081304E+02 -0.74124339555E+02  0.95569455525E+02  0.10000000000E+01 0.  0.
    9000005    1    3    3    0    0 -0.21480663534E+02 -0.56362081304E+02 -0.31359499669E+02  0.67989126589E+02  0.10000000000E+01 0.  0.
<mgrwt>
<rscale>  0 0.12499828E+03</rscale>
<asrwt>0</asrwt>
<pdfrwt beam="1">  1        4 0.72593432E-02 0.12499828E+03</pdfrwt>
<pdfrwt beam="2">  1       -4 0.33630301E-01 0.12499828E+03</pdfrwt>
<totfact> 0.17892273E+03</totfact>
</mgrwt>
</event>
<event>
 5    1  0.1423270E-002  0.1249998E+03  0.7818608E-02  0.1235070E+00
          4   -1    0    0  501    0  0.00000000000E+00  0.00000000000E+00  0.88830592793E+03  0.88830683578E+03  0.12700000000E+01 0. -1.
         -4   -1    0    0    0  501 -0.00000000000E+00 -0.00000000000E+00 -0.43047758228E+01  0.44882061990E+01  0.12700000000E+01 0. -1.
         25    2    1    2    0    0  0.00000000000E+00  0.00000000000E+00  0.88400115211E+03  0.89279504198E+03  0.12499980023E+03 0.  0.
    9000005    1    3    3    0    0  0.60505141308E+02 -0.14923222113E+02  0.40875758741E+03  0.41348197052E+03  0.10000000000E+01 0.  0.
    9000005    1    3    3    0    0 -0.60505141308E+02  0.14923222113E+02  0.47524356470E+03  0.47931307146E+03  0.10000000000E+01 0.  0.
<mgrwt>
<rscale>  0 0.12499980E+03</rscale>
<asrwt>0</asrwt>
<pdfrwt beam="1">  1        4 0.22209953E+00 0.12499980E+03</pdfrwt>
<pdfrwt beam="2">  1       -4 0.10992362E-02 0.12499980E+03</pdfrwt>
<totfact> 0.44827573E+02</totfact>
</mgrwt>
</event>
<event>
 4    1  0.1423270E-002  0.1251818E+03  0.7818608E-02  0.1234786E+00
          4   -1    0    0  501    0  0.00000000000E+00  0.00000000000E+00  0.74183202421E+02  0.74194072684E+02  0.12700000000E+01 0. -1.
         -4   -1    0    0    0  501 -0.00000000000E+00 -0.00000000000E+00 -0.52787665058E+02  0.52802940091E+02  0.12700000000E+01 0. -1.
    9000005    1    1    2    0    0 -0.84910715360E+01  0.10292848662E+02 -0.51332781059E+02  0.53048048415E+02  0.10000000000E+01 0.  0.
    9000005    1    1    2    0    0  0.84910715360E+01 -0.10292848662E+02  0.72728318422E+02  0.73948964360E+02  0.10000000000E+01 0.  0.
<mgrwt>
<rscale>  0 0.12518176E+03</rscale>
<asrwt>0</asrwt>
<pdfrwt beam="1">  1        4 0.18549069E-01 0.12518176E+03</pdfrwt>
<pdfrwt beam="2">  1       -4 0.13200185E-01 0.12518176E+03</pdfrwt>
<totfact> 0.19643519E+03</totfact>
</mgrwt>
</event>
<event>
 5    1  0.1423270E-002  0.1250003E+03  0.7818608E-02  0.1235069E+00
          4   -1    0    0  501    0  0.00000000000E+00  0.00000000000E+00  0.22821163564E+02  0.22856474059E+02  0.12700000000E+01 0. -1.
         -4   -1    0    0    0  501 -0.00000000000E+00 -0.00000000000E+00 -0.17099866336E+03  0.17100337941E+03  0.12700000000E+01 0. -1.
         25    2    1    2    0    0  0.00000000000E+00  0.00000000000E+00 -0.14817749979E+03  0.19385985347E+03  0.12500028537E+03 0.  0.
    9000005    1    3    3    0    0  0.39395429540E+02 -0.44987685794E+02 -0.45942346153E+02  0.75416118382E+02  0.10000000000E+01 0.  0.
    9000005    1    3    3    0    0 -0.39395429540E+02  0.44987685794E+02 -0.10223515364E+03  0.11844373509E+03  0.10000000000E+01 0.  0.
<mgrwt>
<rscale>  0 0.12500029E+03</rscale>
<asrwt>0</asrwt>
<pdfrwt beam="1">  1        4 0.57102947E-02 0.12500029E+03</pdfrwt>
<pdfrwt beam="2">  1       -4 0.42754665E-01 0.12500029E+03</pdfrwt>
<totfact> 0.16570782E+03</totfact>
</mgrwt>
</event>
<event>
 5    1  0.1423270E-002  0.1250005E+03  0.7818608E-02  0.1235068E+00
         -4   -1    0    0    0  501 -0.00000000000E+00  0.00000000000E+00  0.30802492454E+02  0.30828662660E+02  0.12700000000E+01 0. -1.
          4   -1    0    0  501    0  0.00000000000E+00 -0.00000000000E+00 -0.12673393684E+03  0.12674030002E+03  0.12700000000E+01 0. -1.
         25    2    1    2    0    0  0.00000000000E+00  0.00000000000E+00 -0.95931444391E+02  0.15756896268E+03  0.12500054390E+03 0.  0.
    9000005    1    3    3    0    0  0.34335038633E+02 -0.48888585448E+02 -0.71082068437E+02  0.92858220521E+02  0.10000000000E+01 0.  0.
    9000005    1    3    3    0    0 -0.34335038633E+02  0.48888585448E+02 -0.24849375954E+02  0.64710742155E+02  0.10000000000E+01 0.  0.
<mgrwt>
<rscale>  0 0.12500054E+03</rscale>
<asrwt>0</asrwt>
<pdfrwt beam="2">  1        4 0.31687550E-01 0.12500054E+03</pdfrwt>
<pdfrwt beam="1">  1       -4 0.77046901E-02 0.12500054E+03</pdfrwt>
<totfact> 0.18172536E+03</totfact>
</mgrwt>
</event>
<event>
 5    1  0.1423270E-002  0.1249950E+03  0.7818608E-02  0.1235077E+00
         -4   -1    0    0    0  501 -0.00000000000E+00  0.00000000000E+00  0.15278019457E+02  0.15330713568E+02  0.12700000000E+01 0.  1.
          4   -1    0    0  501    0  0.00000000000E+00 -0.00000000000E+00 -0.25516275690E+03  0.25516591742E+03  0.12700000000E+01 0.  1.
         25    2    1    2    0    0  0.00000000000E+00  0.00000000000E+00 -0.23988473745E+03  0.27049663098E+03  0.12499496035E+03 0.  0.
    9000005    1    3    3    0    0  0.38982458323E+02  0.47855076405E+02 -0.14105661539E+03  0.15397307927E+03  0.10000000000E+01 0.  0.
    9000005    1    3    3    0    0 -0.38982458323E+02 -0.47855076405E+02 -0.98828122056E+02  0.11652355171E+03  0.10000000000E+01 0.  0.
<mgrwt>
<rscale>  0 0.12499496E+03</rscale>
<asrwt>0</asrwt>
<pdfrwt beam="2">  1        4 0.63797657E-01 0.12499496E+03</pdfrwt>
<pdfrwt beam="1">  1       -4 0.38264875E-02 0.12499496E+03</pdfrwt>
<totfact> 0.13841789E+03</totfact>
</mgrwt>
</event>
<event>
 5    1  0.1423270E-002  0.1250012E+03  0.7818608E-02  0.1235067E+00
          4   -1    0    0  501    0  0.00000000000E+00  0.00000000000E+00  0.22901175147E+01  0.26186901747E+01  0.12700000000E+01 0. -1.
         -4   -1    0    0    0  501 -0.00000000000E+00 -0.00000000000E+00 -0.15912292266E+04  0.15912297334E+04  0.12700000000E+01 0. -1.
         25    2    1    2    0    0  0.00000000000E+00  0.00000000000E+00 -0.15889391091E+04  0.15938484236E+04  0.12500121992E+03 0.  0.
    9000005    1    3    3    0    0  0.61126204664E+01  0.17202541745E+02 -0.32407041145E+02  0.37208975896E+02  0.10000000000E+01 0.  0.
    9000005    1    3    3    0    0 -0.61126204664E+01 -0.17202541745E+02 -0.15565320680E+04  0.15566394477E+04  0.10000000000E+01 0.  0.
<mgrwt>
<rscale>  0 0.12500122E+03</rscale>
<asrwt>0</asrwt>
<pdfrwt beam="1">  1        4 0.61366977E-03 0.12500122E+03</pdfrwt>
<pdfrwt beam="2">  1       -4 0.39784490E+00 0.12500122E+03</pdfrwt>
<totfact> 0.96686748E+01</totfact>
</mgrwt>
</event>
<event>
 5    1  0.1423270E-002  0.1249989E+03  0.7818608E-02  0.1235071E+00
         -4   -1    0    0    0  501 -0.00000000000E+00  0.00000000000E+00  0.20632594716E+02  0.20671643977E+02  0.12700000000E+01 0. -1.
          4   -1    0    0  501    0  0.00000000000E+00 -0.00000000000E+00 -0.18910073036E+03  0.18910499497E+03  0.12700000000E+01 0. -1.
         25    2    1    2    0    0  0.00000000000E+00  0.00000000000E+00 -0.16846813564E+03  0.20977663894E+03  0.12499890208E+03 0.  0.
    9000005    1    3    3    0    0  0.72615442591E+01 -0.22958463104E+02  0.12542514305E+02  0.27168653228E+02  0.10000000000E+01 0.  0.
    9000005    1    3    3    0    0 -0.72615442591E+01  0.22958463104E+02 -0.18101064995E+03  0.18260798572E+03  0.10000000000E+01 0.  0.
<mgrwt>
<rscale>  0 0.12499890E+03</rscale>
<asrwt>0</asrwt>
<pdfrwt beam="2">  1        4 0.47280592E-01 0.12499890E+03</pdfrwt>
<pdfrwt beam="1">  1       -4 0.51635635E-02 0.12499890E+03</pdfrwt>
<totfact> 0.15938318E+03</totfact>
</mgrwt>
</event>
<event>
 5    1  0.1423270E-002  0.1250003E+03  0.7818608E-02  0.1235069E+00
          4   -1    0    0  501    0  0.00000000000E+00  0.00000000000E+00  0.94469643632E+02  0.94478179851E+02  0.12700000000E+01 0.  1.
         -4   -1    0    0    0  501 -0.00000000000E+00 -0.00000000000E+00 -0.41329315091E+02  0.41348823271E+02  0.12700000000E+01 0.  1.
         25    2    1    2    0    0  0.00000000000E+00  0.00000000000E+00  0.53140328541E+02  0.13582700312E+03  0.12500032104E+03 0.  0.
    9000005    1    3    3    0    0  0.45265934982E+02  0.39432330180E+02  0.77069675206E+01  0.60533551701E+02  0.10000000000E+01 0.  0.
    9000005    1    3    3    0    0 -0.45265934982E+02 -0.39432330180E+02  0.45433361020E+02  0.75293451420E+02  0.10000000000E+01 0.  0.
<mgrwt>
<rscale>  0 0.12500032E+03</rscale>
<asrwt>0</asrwt>
<pdfrwt beam="1">  1        4 0.23620916E-01 0.12500032E+03</pdfrwt>
<pdfrwt beam="2">  1       -4 0.10335834E-01 0.12500032E+03</pdfrwt>
<totfact> 0.19255763E+03</totfact>
</mgrwt>
</event>
<event>
 5    1  0.1423270E-002  0.1249986E+03  0.7818608E-02  0.1235071E+00
         -4   -1    0    0    0  501 -0.00000000000E+00  0.00000000000E+00  0.11700707413E+03  0.11701396625E+03  0.12700000000E+01 0. -1.
          4   -1    0    0  501    0  0.00000000000E+00 -0.00000000000E+00 -0.33364052229E+02  0.33388214705E+02  0.12700000000E+01 0. -1.
         25    2    1    2    0    0  0.00000000000E+00  0.00000000000E+00  0.83643021904E+02  0.15040218095E+03  0.12499864368E+03 0.  0.
    9000005    1    3    3    0    0 -0.41827249860E+02  0.16289702117E+02 -0.10491929397E+02  0.46108066631E+02  0.10000000000E+01 0.  0.
    9000005    1    3    3    0    0  0.41827249860E+02 -0.16289702117E+02  0.94134951302E+02  0.10429411432E+03  0.10000000000E+01 0.  0.
<mgrwt>
<rscale>  0 0.12499864E+03</rscale>
<asrwt>0</asrwt>
<pdfrwt beam="2">  1        4 0.83448950E-02 0.12499864E+03</pdfrwt>
<pdfrwt beam="1">  1       -4 0.29255650E-01 0.12499864E+03</pdfrwt>
<totfact> 0.18519608E+03</totfact>
</mgrwt>
</event>
<event>
 5    1  0.1423270E-002  0.1249994E+03  0.7818608E-02  0.1235070E+00
         -4   -1    0    0    0  501 -0.00000000000E+00  0.00000000000E+00  0.42606016822E+02  0.42624940697E+02  0.12700000000E+01 0.  1.
          4   -1    0    0  501    0  0.00000000000E+00 -0.00000000000E+00 -0.91638492348E+02  0.91647292266E+02  0.12700000000E+01 0.  1.
         25    2    1    2    0    0  0.00000000000E+00  0.00000000000E+00 -0.49032475525E+02  0.13427223296E+03  0.12499939555E+03 0.  0.
    9000005    1    3    3    0    0 -0.29868658878E+02  0.42299134630E+02  0.13062650610E+02  0.53413354271E+02  0.10000000000E+01 0.  0.
    9000005    1    3    3    0    0  0.29868658878E+02 -0.42299134630E+02 -0.62095126136E+02  0.80858878692E+02  0.10000000000E+01 0.  0.
<mgrwt>
<rscale>  0 0.12499940E+03</rscale>
<asrwt>0</asrwt>
<pdfrwt beam="2">  1        4 0.22913088E-01 0.12499940E+03</pdfrwt>
<pdfrwt beam="1">  1       -4 0.10654970E-01 0.12499940E+03</pdfrwt>
<totfact> 0.19337597E+03</totfact>
</mgrwt>
</event>
<event>
 5    1  0.1423270E-002  0.1249980E+03  0.7818608E-02  0.1235072E+00
         -4   -1    0    0    0  501 -0.00000000000E+00  0.00000000000E+00  0.42678974454E+03  0.42679163411E+03  0.12700000000E+01 0. -1.
          4   -1    0    0  501    0  0.00000000000E+00 -0.00000000000E+00 -0.91063678126E+01  0.91945002440E+01  0.12700000000E+01 0. -1.
         25    2    1    2    0    0  0.00000000000E+00  0.00000000000E+00  0.41768337673E+03  0.43598613435E+03  0.12499802460E+03 0.  0.
    9000005    1    3    3    0    0 -0.58840436422E+02 -0.12465112567E+02  0.14969551824E+03  0.16132986137E+03  0.10000000000E+01 0.  0.
    9000005    1    3    3    0    0  0.58840436422E+02  0.12465112567E+02  0.26798785849E+03  0.27465627298E+03  0.10000000000E+01 0.  0.
<mgrwt>
<rscale>  0 0.12499802E+03</rscale>
<asrwt>0</asrwt>
<pdfrwt beam="2">  1        4 0.22878447E-02 0.12499802E+03</pdfrwt>
<pdfrwt beam="1">  1       -4 0.10670869E+00 0.12499802E+03</pdfrwt>
<totfact> 0.98592944E+02</totfact>
</mgrwt>
</event>
<event>
 5    1  0.1423270E-002  0.1249689E+03  0.7818608E-02  0.1235118E+00
         -4   -1    0    0    0  501 -0.00000000000E+00  0.00000000000E+00  0.12545887444E+02  0.12610003638E+02  0.12700000000E+01 0. -1.
          4   -1    0    0  501    0  0.00000000000E+00 -0.00000000000E+00 -0.31034343531E+03  0.31034603387E+03  0.12700000000E+01 0. -1.
         25    2    1    2    0    0  0.00000000000E+00  0.00000000000E+00 -0.29779754786E+03  0.32295603751E+03  0.12496888672E+03 0.  0.
    9000005    1    3    3    0    0  0.18988621993E+02  0.42464079833E+02 -0.25668386534E+03  0.26086658002E+03  0.10000000000E+01 0.  0.
    9000005    1    3    3    0    0 -0.18988621993E+02 -0.42464079833E+02 -0.41113682520E+02  0.62089457492E+02  0.10000000000E+01 0.  0.
<mgrwt>
<rscale>  0 0.12496889E+03</rscale>
<asrwt>0</asrwt>
<pdfrwt beam="2">  1        4 0.77594173E-01 0.12496889E+03</pdfrwt>
<pdfrwt beam="1">  1       -4 0.31448122E-02 0.12496889E+03</pdfrwt>
<totfact> 0.12360011E+03</totfact>
</mgrwt>
</event>
<event>
 5    1  0.1423270E-002  0.1250407E+03  0.7818608E-02  0.1235006E+00
          4   -1    0    0  501    0  0.00000000000E+00  0.00000000000E+00  0.19473093435E+02  0.19514463045E+02  0.12700000000E+01 0.  1.
         -4   -1    0    0    0  501 -0.00000000000E+00 -0.00000000000E+00 -0.20047164732E+03  0.20047567004E+03  0.12700000000E+01 0.  1.
         25    2    1    2    0    0  0.00000000000E+00  0.00000000000E+00 -0.18099855388E+03  0.21999013308E+03  0.12504072196E+03 0.  0.
    9000005    1    3    3    0    0  0.45417779121E+02  0.19284354119E+02 -0.22972979186E+02  0.54437291876E+02  0.10000000000E+01 0.  0.
    9000005    1    3    3    0    0 -0.45417779121E+02 -0.19284354119E+02 -0.15802557470E+03  0.16555284121E+03  0.10000000000E+01 0.  0.
<mgrwt>
<rscale>  0 0.12504072E+03</rscale>
<asrwt>0</asrwt>
<pdfrwt beam="1">  1        4 0.48739480E-02 0.12504072E+03</pdfrwt>
<pdfrwt beam="2">  1       -4 0.50123580E-01 0.12504072E+03</pdfrwt>
<totfact> 0.15537103E+03</totfact>
</mgrwt>
</event>
<event>
 5    1  0.1423270E-002  0.1250019E+03  0.7818608E-02  0.1235066E+00
          4   -1    0    0  501    0  0.00000000000E+00  0.00000000000E+00  0.27621389045E+02  0.27650570207E+02  0.12700000000E+01 0. -1.
         -4   -1    0    0    0  501 -0.00000000000E+00 -0.00000000000E+00 -0.14131882814E+03  0.14132453462E+03  0.12700000000E+01 0. -1.
         25    2    1    2    0    0  0.00000000000E+00  0.00000000000E+00 -0.11369743909E+03  0.16897510483E+03  0.12500191357E+03 0.  0.
    9000005    1    3    3    0    0 -0.61663930630E+02  0.35010079956E-01 -0.43134443123E+02  0.75259695388E+02  0.10000000000E+01 0.  0.
    9000005    1    3    3    0    0  0.61663930630E+02 -0.35010079956E-01 -0.70562995968E+02  0.93715409440E+02  0.10000000000E+01 0.  0.
<mgrwt>
<rscale>  0 0.12500191E+03</rscale>
<asrwt>0</asrwt>
<pdfrwt beam="1">  1        4 0.69097086E-02 0.12500191E+03</pdfrwt>
<pdfrwt beam="2">  1       -4 0.35334066E-01 0.12500191E+03</pdfrwt>
<totfact> 0.17642590E+03</totfact>
</mgrwt>
</event>
<event>
 5    1  0.1423270E-002  0.1249979E+03  0.7818608E-02  0.1235073E+00
          4   -1    0    0  501    0  0.00000000000E+00  0.00000000000E+00  0.63338416766E+02  0.63351147886E+02  0.12700000000E+01 0. -1.
         -4   -1    0    0    0  501 -0.00000000000E+00 -0.00000000000E+00 -0.61645159868E+02  0.61658240610E+02  0.12700000000E+01 0. -1.
         25    2    1    2    0    0  0.00000000000E+00  0.00000000000E+00  0.16932568984E+01  0.12500938850E+03  0.12499792036E+03 0.  0.
    9000005    1    3    3    0    0 -0.25454407377E+02  0.95756708866E+01  0.57114563991E+02  0.63266845564E+02  0.10000000000E+01 0.  0.
    9000005    1    3    3    0    0  0.25454407377E+02 -0.95756708866E+01 -0.55421307092E+02  0.61742542931E+02  0.10000000000E+01 0.  0.
<mgrwt>
<rscale>  0 0.12499792E+03</rscale>
<asrwt>0</asrwt>
<pdfrwt beam="1">  1        4 0.15837831E-01 0.12499792E+03</pdfrwt>
<pdfrwt beam="2">  1       -4 0.15414516E-01 0.12499792E+03</pdfrwt>
<totfact> 0.19835511E+03</totfact>
</mgrwt>
</event>
<event>
 5    1  0.1423270E-002  0.1250008E+03  0.7818608E-02  0.1235068E+00
          4   -1    0    0  501    0  0.00000000000E+00  0.00000000000E+00  0.92318492921E+02  0.92327228028E+02  0.12700000000E+01 0.  1.
         -4   -1    0    0    0  501 -0.00000000000E+00 -0.00000000000E+00 -0.42293052503E+02  0.42312116350E+02  0.12700000000E+01 0.  1.
         25    2    1    2    0    0  0.00000000000E+00  0.00000000000E+00  0.50025440419E+02  0.13463934438E+03  0.12500083346E+03 0.  0.
    9000005    1    3    3    0    0  0.43553769171E+02  0.15096136381E+01  0.73255746157E+02  0.85244437281E+02  0.10000000000E+01 0.  0.
    9000005    1    3    3    0    0 -0.43553769171E+02 -0.15096136381E+01 -0.23230305738E+02  0.49394907096E+02  0.10000000000E+01 0.  0.
<mgrwt>
<rscale>  0 0.12500083E+03</rscale>
<asrwt>0</asrwt>
<pdfrwt beam="1">  1        4 0.23083098E-01 0.12500083E+03</pdfrwt>
<pdfrwt beam="2">  1       -4 0.10576738E-01 0.12500083E+03</pdfrwt>
<totfact> 0.19317669E+03</totfact>
</mgrwt>
</event>
<event>
 5    1  0.1423270E-002  0.1249999E+03  0.7818608E-02  0.1235069E+00
         -4   -1    0    0    0  501 -0.00000000000E+00  0.00000000000E+00  0.33498138441E+03  0.33498379184E+03  0.12700000000E+01 0.  1.
          4   -1    0    0  501    0  0.00000000000E+00 -0.00000000000E+00 -0.11624043111E+02  0.11693215052E+02  0.12700000000E+01 0.  1.
         25    2    1    2    0    0  0.00000000000E+00  0.00000000000E+00  0.32335734130E+03  0.34667700690E+03  0.12499990776E+03 0.  0.
    9000005    1    3    3    0    0 -0.18523918248E+02 -0.85905870584E+01  0.32548207123E+03  0.32612346193E+03  0.10000000000E+01 0.  0.
    9000005    1    3    3    0    0  0.18523918248E+02  0.85905870584E+01 -0.21247299317E+01  0.20553544963E+02  0.10000000000E+01 0.  0.
<mgrwt>
<rscale>  0 0.12499991E+03</rscale>
<asrwt>0</asrwt>
<pdfrwt beam="2">  1        4 0.29149583E-02 0.12499991E+03</pdfrwt>
<pdfrwt beam="1">  1       -4 0.83754291E-01 0.12499991E+03</pdfrwt>
<totfact> 0.11757008E+03</totfact>
</mgrwt>
</event>
<event>
 5    1  0.1423270E-002  0.1250039E+03  0.7818608E-02  0.1235063E+00
         -4   -1    0    0    0  501 -0.00000000000E+00  0.00000000000E+00  0.55139755800E+02  0.55154379424E+02  0.12700000000E+01 0. -1.
          4   -1    0    0  501    0  0.00000000000E+00 -0.00000000000E+00 -0.70817378742E+02  0.70828765568E+02  0.12700000000E+01 0. -1.
         25    2    1    2    0    0  0.00000000000E+00  0.00000000000E+00 -0.15677622942E+02  0.12598314499E+03  0.12500385978E+03 0.  0.
    9000005    1    3    3    0    0 -0.40020853203E+01  0.60896788352E+02 -0.21399918688E+02  0.64679146859E+02  0.10000000000E+01 0.  0.
    9000005    1    3    3    0    0  0.40020853203E+01 -0.60896788352E+02  0.57222957460E+01  0.61303998134E+02  0.10000000000E+01 0.  0.
<mgrwt>
<rscale>  0 0.12500386E+03</rscale>
<asrwt>0</asrwt>
<pdfrwt beam="2">  1        4 0.17707596E-01 0.12500386E+03</pdfrwt>
<pdfrwt beam="1">  1       -4 0.13788190E-01 0.12500386E+03</pdfrwt>
<totfact> 0.19780045E+03</totfact>
</mgrwt>
</event>
<event>
 5    1  0.1423270E-002  0.1249906E+03  0.7818608E-02  0.1235084E+00
          4   -1    0    0  501    0  0.00000000000E+00  0.00000000000E+00  0.96627475565E+02  0.96635821175E+02  0.12700000000E+01 0. -1.
         -4   -1    0    0    0  501 -0.00000000000E+00 -0.00000000000E+00 -0.40399738640E+02  0.40419695473E+02  0.12700000000E+01 0. -1.
         25    2    1    2    0    0  0.00000000000E+00  0.00000000000E+00  0.56227736925E+02  0.13705551665E+03  0.12499062462E+03 0.  0.
    9000005    1    3    3    0    0  0.25645207527E+02  0.34382237131E+02 -0.21712960444E+02  0.48086043199E+02  0.10000000000E+01 0.  0.
    9000005    1    3    3    0    0 -0.25645207527E+02 -0.34382237131E+02  0.77940697370E+02  0.88969473449E+02  0.10000000000E+01 0.  0.
<mgrwt>
<rscale>  0 0.12499062E+03</rscale>
<asrwt>0</asrwt>
<pdfrwt beam="1">  1        4 0.24160406E-01 0.12499062E+03</pdfrwt>
<pdfrwt beam="2">  1       -4 0.10103473E-01 0.12499062E+03</pdfrwt>
<totfact> 0.19196204E+03</totfact>
</mgrwt>
</event>
<event>
 5    1  0.1423270E-002  0.1249704E+03  0.7818608E-02  0.1235115E+00
          4   -1    0    0  501    0  0.00000000000E+00  0.00000000000E+00  0.29259755539E+03  0.29260031156E+03  0.12700000000E+01 0. -1.
         -4   -1    0    0    0  501 -0.00000000000E+00 -0.00000000000E+00 -0.13310891260E+02  0.13371339728E+02  0.12700000000E+01 0. -1.
         25    2    1    2    0    0  0.00000000000E+00  0.00000000000E+00  0.27928666413E+03  0.30597165128E+03  0.12497043901E+03 0.  0.
    9000005    1    3    3    0    0 -0.56476546236E+01  0.61299787751E+02  0.11352012807E+03  0.12914092867E+03  0.10000000000E+01 0.  0.
    9000005    1    3    3    0    0  0.56476546236E+01 -0.61299787751E+02  0.16576653606E+03  0.17683072261E+03  0.10000000000E+01 0.  0.
<mgrwt>
<rscale>  0 0.12497044E+03</rscale>
<asrwt>0</asrwt>
<pdfrwt beam="1">  1        4 0.73157289E-01 0.12497044E+03</pdfrwt>
<pdfrwt beam="2">  1       -4 0.33356234E-02 0.12497044E+03</pdfrwt>
<totfact> 0.12813997E+03</totfact>
</mgrwt>
</event>
<event>
 5    1  0.1423270E-002  0.1250366E+03  0.7818608E-02  0.1235012E+00
         -4   -1    0    0    0  501 -0.00000000000E+00  0.00000000000E+00  0.46400373362E+03  0.46400547165E+03  0.12700000000E+01 0. -1.
          4   -1    0    0  501    0  0.00000000000E+00 -0.00000000000E+00 -0.83738746797E+01  0.84696326456E+01  0.12700000000E+01 0. -1.
         25    2    1    2    0    0  0.00000000000E+00  0.00000000000E+00  0.45562985894E+03  0.47247510429E+03  0.12503661789E+03 0.  0.
    9000005    1    3    3    0    0  0.30024301822E+02 -0.13805758505E+02  0.42831661785E+03  0.42959071545E+03  0.10000000000E+01 0.  0.
    9000005    1    3    3    0    0 -0.30024301822E+02  0.13805758505E+02  0.27313241092E+02  0.42884388846E+02  0.10000000000E+01 0.  0.
<mgrwt>
<rscale>  0 0.12503662E+03</rscale>
<asrwt>0</asrwt>
<pdfrwt beam="2">  1        4 0.21056558E-02 0.12503662E+03</pdfrwt>
<pdfrwt beam="1">  1       -4 0.11601311E+00 0.12503662E+03</pdfrwt>
<totfact> 0.92040606E+02</totfact>
</mgrwt>
</event>
<event>
 5    1  0.1423270E-002  0.1250015E+03  0.7818608E-02  0.1235067E+00
          4   -1    0    0  501    0  0.00000000000E+00  0.00000000000E+00  0.57190977292E+01  0.58584109480E+01  0.12700000000E+01 0.  1.
         -4   -1    0    0    0  501 -0.00000000000E+00 -0.00000000000E+00 -0.67467590908E+03  0.67467710439E+03  0.12700000000E+01 0.  1.
         25    2    1    2    0    0  0.00000000000E+00  0.00000000000E+00 -0.66895681135E+03  0.68053551534E+03  0.12500148875E+03 0.  0.
    9000005    1    3    3    0    0  0.14945143016E+02  0.26738076062E+02 -0.63102903470E+03  0.63177284260E+03  0.10000000000E+01 0.  0.
    9000005    1    3    3    0    0 -0.14945143016E+02 -0.26738076062E+02 -0.37927776649E+02  0.48762672741E+02  0.10000000000E+01 0.  0.
<mgrwt>
<rscale>  0 0.12500149E+03</rscale>
<asrwt>0</asrwt>
<pdfrwt beam="1">  1        4 0.14473403E-02 0.12500149E+03</pdfrwt>
<pdfrwt beam="2">  1       -4 0.16868627E+00 0.12500149E+03</pdfrwt>
<totfact> 0.64120458E+02</totfact>
</mgrwt>
</event>
<event>
 5    1  0.1423270E-002  0.1249956E+03  0.7818608E-02  0.1235076E+00
         -4   -1    0    0    0  501 -0.00000000000E+00  0.00000000000E+00  0.50933582704E+02  0.50949413609E+02  0.12700000000E+01 0.  1.
          4   -1    0    0  501    0  0.00000000000E+00 -0.00000000000E+00 -0.76654659171E+02  0.76665179010E+02  0.12700000000E+01 0.  1.
         25    2    1    2    0    0  0.00000000000E+00  0.00000000000E+00 -0.25721076467E+02  0.12761459262E+03  0.12499564182E+03 0.  0.
    9000005    1    3    3    0    0 -0.30071042603E+02 -0.54672234167E+02 -0.93747930396E+01  0.63104734660E+02  0.10000000000E+01 0.  0.
    9000005    1    3    3    0    0  0.30071042603E+02  0.54672234167E+02 -0.16346283427E+02  0.64509857959E+02  0.10000000000E+01 0.  0.
<mgrwt>
<rscale>  0 0.12499564E+03</rscale>
<asrwt>0</asrwt>
<pdfrwt beam="2">  1        4 0.19166958E-01 0.12499564E+03</pdfrwt>
<pdfrwt beam="1">  1       -4 0.12736690E-01 0.12499564E+03</pdfrwt>
<totfact> 0.19695534E+03</totfact>
</mgrwt>
</event>
<event>
 5    1  0.1423270E-002  0.1250073E+03  0.7818608E-02  0.1235058E+00
         -4   -1    0    0    0  501 -0.00000000000E+00  0.00000000000E+00  0.72732577724E+03  0.72732688603E+03  0.12700000000E+01 0. -1.
          4   -1    0    0  501    0  0.00000000000E+00 -0.00000000000E+00 -0.52951288833E+01  0.54452997981E+01  0.12700000000E+01 0. -1.
         25    2    1    2    0    0  0.00000000000E+00  0.00000000000E+00  0.72203064836E+03  0.73277218583E+03  0.12500727640E+03 0.  0.
    9000005    1    3    3    0    0  0.32904628772E+02  0.38744202425E+02  0.14789287339E+03  0.15638775469E+03  0.10000000000E+01 0.  0.
    9000005    1    3    3    0    0 -0.32904628772E+02 -0.38744202425E+02  0.57413777497E+03  0.57638443114E+03  0.10000000000E+01 0.  0.
<mgrwt>
<rscale>  0 0.12500728E+03</rscale>
<asrwt>0</asrwt>
<pdfrwt beam="2">  1        4 0.13426921E-02 0.12500728E+03</pdfrwt>
<pdfrwt beam="1">  1       -4 0.18185036E+00 0.12500728E+03</pdfrwt>
<totfact> 0.58731363E+02</totfact>
</mgrwt>
</event>
<event>
 5    1  0.1423270E-002  0.1250008E+03  0.7818608E-02  0.1235068E+00
         -4   -1    0    0    0  501 -0.00000000000E+00  0.00000000000E+00  0.58506426588E+02  0.58520208921E+02  0.12700000000E+01 0. -1.
          4   -1    0    0  501    0  0.00000000000E+00 -0.00000000000E+00 -0.66739335875E+02  0.66751418359E+02  0.12700000000E+01 0. -1.
         25    2    1    2    0    0  0.00000000000E+00  0.00000000000E+00 -0.82329092863E+01  0.12527162728E+03  0.12500079922E+03 0.  0.
    9000005    1    3    3    0    0  0.18311839138E+02  0.49946870737E+02 -0.36979064169E+02  0.64795559538E+02  0.10000000000E+01 0.  0.
    9000005    1    3    3    0    0 -0.18311839138E+02 -0.49946870737E+02  0.28746154883E+02  0.60476067742E+02  0.10000000000E+01 0.  0.
<mgrwt>
<rscale>  0 0.12500080E+03</rscale>
<asrwt>0</asrwt>
<pdfrwt beam="2">  1        4 0.16688067E-01 0.12500080E+03</pdfrwt>
<pdfrwt beam="1">  1       -4 0.14629840E-01 0.12500080E+03</pdfrwt>
<totfact> 0.19819961E+03</totfact>
</mgrwt>
</event>
<event>
 5    1  0.1423270E-002  0.1249892E+03  0.7818608E-02  0.1235086E+00
         -4   -1    0    0    0  501 -0.00000000000E+00  0.00000000000E+00  0.24667653587E+03  0.24667980511E+03  0.12700000000E+01 0. -1.
          4   -1    0    0  501    0  0.00000000000E+00 -0.00000000000E+00 -0.15803921374E+02  0.15854867732E+02  0.12700000000E+01 0. -1.
         25    2    1    2    0    0  0.00000000000E+00  0.00000000000E+00  0.23087261450E+03  0.26253467284E+03  0.12498916081E+03 0.  0.
    9000005    1    3    3    0    0 -0.17516538099E+02  0.43738643206E+02  0.29223393004E+02  0.55451823371E+02  0.10000000000E+01 0.  0.
    9000005    1    3    3    0    0  0.17516538099E+02 -0.43738643206E+02  0.20164922149E+03  0.20708284947E+03  0.10000000000E+01 0.  0.
<mgrwt>
<rscale>  0 0.12498916E+03</rscale>
<asrwt>0</asrwt>
<pdfrwt beam="2">  1        4 0.39577573E-02 0.12498916E+03</pdfrwt>
<pdfrwt beam="1">  1       -4 0.61675911E-01 0.12498916E+03</pdfrwt>
<totfact> 0.14093630E+03</totfact>
</mgrwt>
</event>
<event>
 5    1  0.1423270E-002  0.1250024E+03  0.7818608E-02  0.1235065E+00
         -4   -1    0    0    0  501 -0.00000000000E+00  0.00000000000E+00  0.85194956839E+01  0.86136349301E+01  0.12700000000E+01 0. -1.
          4   -1    0    0  501    0  0.00000000000E+00 -0.00000000000E+00 -0.45591066719E+03  0.45591243607E+03  0.12700000000E+01 0. -1.
         25    2    1    2    0    0  0.00000000000E+00  0.00000000000E+00 -0.44739117151E+03  0.46452607100E+03  0.12500244114E+03 0.  0.
    9000005    1    3    3    0    0 -0.26476849007E+02  0.47827147834E+02 -0.11116702572E+03  0.12388529861E+03  0.10000000000E+01 0.  0.
    9000005    1    3    3    0    0  0.26476849007E+02 -0.47827147834E+02 -0.33622414579E+03  0.34064077239E+03  0.10000000000E+01 0.  0.
<mgrwt>
<rscale>  0 0.12500244E+03</rscale>
<asrwt>0</asrwt>
<pdfrwt beam="2">  1        4 0.11398957E+00 0.12500244E+03</pdfrwt>
<pdfrwt beam="1">  1       -4 0.21418640E-02 0.12500244E+03</pdfrwt>
<totfact> 0.93461188E+02</totfact>
</mgrwt>
</event>
<event>
 5    1  0.1423270E-002  0.1249958E+03  0.7818608E-02  0.1235076E+00
          4   -1    0    0  501    0  0.00000000000E+00  0.00000000000E+00  0.31989102201E+02  0.32014302423E+02  0.12700000000E+01 0.  1.
         -4   -1    0    0    0  501 -0.00000000000E+00 -0.00000000000E+00 -0.12202712809E+03  0.12203373668E+03  0.12700000000E+01 0.  1.
         25    2    1    2    0    0  0.00000000000E+00  0.00000000000E+00 -0.90038025884E+02  0.15404803911E+03  0.12499580892E+03 0.  0.
    9000005    1    3    3    0    0  0.20125107763E+02 -0.42454163648E+02 -0.95797522874E+02  0.10670305226E+03  0.10000000000E+01 0.  0.
    9000005    1    3    3    0    0 -0.20125107763E+02  0.42454163648E+02  0.57594969904E+01  0.47344986842E+02  0.10000000000E+01 0.  0.
<mgrwt>
<rscale>  0 0.12499581E+03</rscale>
<asrwt>0</asrwt>
<pdfrwt beam="1">  1        4 0.80012519E-02 0.12499581E+03</pdfrwt>
<pdfrwt beam="2">  1       -4 0.30510757E-01 0.12499581E+03</pdfrwt>
<totfact> 0.18343301E+03</totfact>
</mgrwt>
</event>
<event>
 5    1  0.1423270E-002  0.1250006E+03  0.7818608E-02  0.1235068E+00
         -4   -1    0    0    0  501 -0.00000000000E+00  0.00000000000E+00  0.47942580264E+03  0.47942748476E+03  0.12700000000E+01 0. -1.
          4   -1    0    0  501    0  0.00000000000E+00 -0.00000000000E+00 -0.80966451668E+01  0.81956429252E+01  0.12700000000E+01 0. -1.
         25    2    1    2    0    0  0.00000000000E+00  0.00000000000E+00  0.47132915748E+03  0.48762312768E+03  0.12500055985E+03 0.  0.
    9000005    1    3    3    0    0 -0.55148736628E+02  0.28826354070E+02  0.25805462029E+03  0.26545344016E+03  0.10000000000E+01 0.  0.
    9000005    1    3    3    0    0  0.55148736628E+02 -0.28826354070E+02  0.21327453719E+03  0.22216968752E+03  0.10000000000E+01 0.  0.
<mgrwt>
<rscale>  0 0.12500056E+03</rscale>
<asrwt>0</asrwt>
<pdfrwt beam="2">  1        4 0.20367464E-02 0.12500056E+03</pdfrwt>
<pdfrwt beam="1">  1       -4 0.11986903E+00 0.12500056E+03</pdfrwt>
<totfact> 0.89607343E+02</totfact>
</mgrwt>
</event>
<event>
 5    1  0.1423270E-002  0.1250123E+03  0.7818608E-02  0.1235050E+00
         -4   -1    0    0    0  501 -0.00000000000E+00  0.00000000000E+00  0.74717816138E+02  0.74728608635E+02  0.12700000000E+01 0. -1.
          4   -1    0    0  501    0  0.00000000000E+00 -0.00000000000E+00 -0.52268016871E+02  0.52283443724E+02  0.12700000000E+01 0. -1.
         25    2    1    2    0    0  0.00000000000E+00  0.00000000000E+00  0.22449799267E+02  0.12701205236E+03  0.12501227123E+03 0.  0.
    9000005    1    3    3    0    0  0.38453755627E+02  0.10884233432E+01 -0.38818903503E+02  0.54660618880E+02  0.10000000000E+01 0.  0.
    9000005    1    3    3    0    0 -0.38453755627E+02 -0.10884233432E+01  0.61268702770E+02  0.72351433478E+02  0.10000000000E+01 0.  0.
<mgrwt>
<rscale>  0 0.12501227E+03</rscale>
<asrwt>0</asrwt>
<pdfrwt beam="2">  1        4 0.13070282E-01 0.12501227E+03</pdfrwt>
<pdfrwt beam="1">  1       -4 0.18682731E-01 0.12501227E+03</pdfrwt>
<totfact> 0.19720669E+03</totfact>
</mgrwt>
</event>
<event>
 5    1  0.1423270E-002  0.1250057E+03  0.7818608E-02  0.1235060E+00
          4   -1    0    0  501    0  0.00000000000E+00  0.00000000000E+00  0.51899344308E+03  0.51899499695E+03  0.12700000000E+01 0. -1.
         -4   -1    0    0    0  501 -0.00000000000E+00 -0.00000000000E+00 -0.74721284685E+01  0.75792878195E+01  0.12700000000E+01 0. -1.
         25    2    1    2    0    0  0.00000000000E+00  0.00000000000E+00  0.51152131461E+03  0.52657428477E+03  0.12500568819E+03 0.  0.
    9000005    1    3    3    0    0  0.52737340877E+02 -0.33526493303E+02  0.25826214319E+03  0.26571711929E+03  0.10000000000E+01 0.  0.
    9000005    1    3    3    0    0 -0.52737340877E+02  0.33526493303E+02  0.25325917142E+03  0.26085716548E+03  0.10000000000E+01 0.  0.
<mgrwt>
<rscale>  0 0.12500569E+03</rscale>
<asrwt>0</asrwt>
<pdfrwt beam="1">  1        4 0.12976192E+00 0.12500569E+03</pdfrwt>
<pdfrwt beam="2">  1       -4 0.18816217E-02 0.12500569E+03</pdfrwt>
<totfact> 0.83518812E+02</totfact>
</mgrwt>
</event>
<event>
 5    1  0.1423270E-002  0.1249809E+03  0.7818608E-02  0.1235099E+00
         -4   -1    0    0    0  501 -0.00000000000E+00  0.00000000000E+00  0.11584529882E+03  0.11585226005E+03  0.12700000000E+01 0. -1.
          4   -1    0    0  501    0  0.00000000000E+00 -0.00000000000E+00 -0.33689300821E+02  0.33713230190E+02  0.12700000000E+01 0. -1.
         25    2    1    2    0    0  0.00000000000E+00  0.00000000000E+00  0.82155997995E+02  0.14956549024E+03  0.12498090999E+03 0.  0.
    9000005    1    3    3    0    0 -0.53583889418E+01  0.52412729630E+02  0.81274705021E+02  0.96862708178E+02  0.10000000000E+01 0.  0.
    9000005    1    3    3    0    0  0.53583889418E+01 -0.52412729630E+02  0.88129297328E+00  0.52702782057E+02  0.10000000000E+01 0.  0.
<mgrwt>
<rscale>  0 0.12498091E+03</rscale>
<asrwt>0</asrwt>
<pdfrwt beam="2">  1        4 0.84261866E-02 0.12498091E+03</pdfrwt>
<pdfrwt beam="1">  1       -4 0.28965186E-01 0.12498091E+03</pdfrwt>
<totfact> 0.18568415E+03</totfact>
</mgrwt>
</event>
<event>
 4    1  0.1423270E-002  0.1258342E+03  0.7818608E-02  0.1233771E+00
         -4   -1    0    0    0  501 -0.00000000000E+00  0.00000000000E+00  0.94179354844E+02  0.94187917372E+02  0.12700000000E+01 0.  1.
          4   -1    0    0  501    0  0.00000000000E+00 -0.00000000000E+00 -0.42012065856E+02  0.42031257149E+02  0.12700000000E+01 0.  1.
    9000005    1    1    2    0    0  0.35678485322E+02  0.29208669717E+02 -0.20243787579E+02  0.50367763868E+02  0.10000000000E+01 0.  0.
    9000005    1    1    2    0    0 -0.35678485322E+02 -0.29208669717E+02  0.72411076567E+02  0.85851410653E+02  0.10000000000E+01 0.  0.
<mgrwt>
<rscale>  0 0.12583417E+03</rscale>
<asrwt>0</asrwt>
<pdfrwt beam="2">  1        4 0.10506486E-01 0.12583417E+03</pdfrwt>
<pdfrwt beam="1">  1       -4 0.23548308E-01 0.12583417E+03</pdfrwt>
<totfact> 0.18865824E+03</totfact>
</mgrwt>
</event>
<event>
 5    1  0.1423270E-002  0.1250004E+03  0.7818608E-02  0.1235069E+00
          4   -1    0    0  501    0  0.00000000000E+00  0.00000000000E+00  0.62424403046E+02  0.62437320536E+02  0.12700000000E+01 0.  1.
         -4   -1    0    0    0  501 -0.00000000000E+00 -0.00000000000E+00 -0.62550298028E+02  0.62563189524E+02  0.12700000000E+01 0.  1.
         25    2    1    2    0    0  0.00000000000E+00  0.00000000000E+00 -0.12589498226E+00  0.12500051006E+03  0.12500044666E+03 0.  0.
    9000005    1    3    3    0    0 -0.56687692813E+02 -0.19915674850E+02 -0.17242865844E+02  0.62517557883E+02  0.10000000000E+01 0.  0.
    9000005    1    3    3    0    0  0.56687692813E+02  0.19915674850E+02  0.17116970861E+02  0.62482952176E+02  0.10000000000E+01 0.  0.
<mgrwt>
<rscale>  0 0.12500045E+03</rscale>
<asrwt>0</asrwt>
<pdfrwt beam="1">  1        4 0.15609327E-01 0.12500045E+03</pdfrwt>
<pdfrwt beam="2">  1       -4 0.15640801E-01 0.12500045E+03</pdfrwt>
<totfact> 0.19834820E+03</totfact>
</mgrwt>
</event>
<event>
 5    1  0.1423270E-002  0.1250036E+03  0.7818608E-02  0.1235064E+00
         -4   -1    0    0    0  501 -0.00000000000E+00  0.00000000000E+00  0.18140047941E+03  0.18140492504E+03  0.12700000000E+01 0.  1.
          4   -1    0    0  501    0  0.00000000000E+00 -0.00000000000E+00 -0.21511640950E+02  0.21549097344E+02  0.12700000000E+01 0.  1.
         25    2    1    2    0    0  0.00000000000E+00  0.00000000000E+00  0.15988883846E+03  0.20295402239E+03  0.12500357811E+03 0.  0.
    9000005    1    3    3    0    0  0.28155005739E+02  0.46981877037E+02  0.12879985093E+03  0.13996571979E+03  0.10000000000E+01 0.  0.
    9000005    1    3    3    0    0 -0.28155005739E+02 -0.46981877037E+02  0.31088987532E+02  0.62988302595E+02  0.10000000000E+01 0.  0.
<mgrwt>
<rscale>  0 0.12500358E+03</rscale>
<asrwt>0</asrwt>
<pdfrwt beam="2">  1        4 0.53831480E-02 0.12500358E+03</pdfrwt>
<pdfrwt beam="1">  1       -4 0.45355358E-01 0.12500358E+03</pdfrwt>
<totfact> 0.16203097E+03</totfact>
</mgrwt>
</event>
<event>
 5    1  0.1423270E-002  0.1250037E+03  0.7818608E-02  0.1235064E+00
          4   -1    0    0  501    0  0.00000000000E+00  0.00000000000E+00  0.13395580787E+03  0.13396182801E+03  0.12700000000E+01 0. -1.
         -4   -1    0    0    0  501 -0.00000000000E+00 -0.00000000000E+00 -0.29141942619E+02  0.29169602664E+02  0.12700000000E+01 0. -1.
         25    2    1    2    0    0  0.00000000000E+00  0.00000000000E+00  0.10481386526E+03  0.16313143067E+03  0.12500366924E+03 0.  0.
    9000005    1    3    3    0    0 -0.27731827709E+02  0.34535727624E+02 -0.51278477739E+01  0.44598941394E+02  0.10000000000E+01 0.  0.
    9000005    1    3    3    0    0  0.27731827709E+02 -0.34535727624E+02  0.10994171303E+03  0.11853248928E+03  0.10000000000E+01 0.  0.
<mgrwt>
<rscale>  0 0.12500367E+03</rscale>
<asrwt>0</asrwt>
<pdfrwt beam="1">  1        4 0.33493162E-01 0.12500367E+03</pdfrwt>
<pdfrwt beam="2">  1       -4 0.72896957E-02 0.12500367E+03</pdfrwt>
<totfact> 0.17909846E+03</totfact>
</mgrwt>
</event>
<event>
 5    1  0.1423270E-002  0.1250014E+03  0.7818608E-02  0.1235067E+00
         -4   -1    0    0    0  501 -0.00000000000E+00  0.00000000000E+00  0.22194421521E+02  0.22230727533E+02  0.12700000000E+01 0.  1.
          4   -1    0    0  501    0  0.00000000000E+00 -0.00000000000E+00 -0.17582289224E+03  0.17582747890E+03  0.12700000000E+01 0.  1.
         25    2    1    2    0    0  0.00000000000E+00  0.00000000000E+00 -0.15362847072E+03  0.19805820643E+03  0.12500138447E+03 0.  0.
    9000005    1    3    3    0    0  0.40252391925E+02  0.28903100335E+02 -0.13714181888E+03  0.14582360149E+03  0.10000000000E+01 0.  0.
    9000005    1    3    3    0    0 -0.40252391925E+02 -0.28903100335E+02 -0.16486651835E+02  0.52234604941E+02  0.10000000000E+01 0.  0.
<mgrwt>
<rscale>  0 0.12500138E+03</rscale>
<asrwt>0</asrwt>
<pdfrwt beam="2">  1        4 0.43960831E-01 0.12500138E+03</pdfrwt>
<pdfrwt beam="1">  1       -4 0.55537175E-02 0.12500138E+03</pdfrwt>
<totfact> 0.16399565E+03</totfact>
</mgrwt>
</event>
<event>
 5    1  0.1423270E-002  0.1249997E+03  0.7818608E-02  0.1235070E+00
          4   -1    0    0  501    0  0.00000000000E+00  0.00000000000E+00  0.27264038553E+03  0.27264334344E+03  0.12700000000E+01 0.  1.
         -4   -1    0    0    0  501 -0.00000000000E+00 -0.00000000000E+00 -0.14296223039E+02  0.14352522188E+02  0.12700000000E+01 0.  1.
         25    2    1    2    0    0  0.00000000000E+00  0.00000000000E+00  0.25834416250E+03  0.28699586563E+03  0.12499968238E+03 0.  0.
    9000005    1    3    3    0    0  0.23032651579E+02  0.56393159391E+02  0.97148513315E+02  0.11467137875E+03  0.10000000000E+01 0.  0.
    9000005    1    3    3    0    0 -0.23032651579E+02 -0.56393159391E+02  0.16119564918E+03  0.17232448688E+03  0.10000000000E+01 0.  0.
<mgrwt>
<rscale>  0 0.12499968E+03</rscale>
<asrwt>0</asrwt>
<pdfrwt beam="1">  1        4 0.68167503E-01 0.12499968E+03</pdfrwt>
<pdfrwt beam="2">  1       -4 0.35814629E-02 0.12499968E+03</pdfrwt>
<totfact> 0.13343607E+03</totfact>
</mgrwt>
</event>
<event>
 5    1  0.1423270E-002  0.1250020E+03  0.7818608E-02  0.1235066E+00
         -4   -1    0    0    0  501 -0.00000000000E+00  0.00000000000E+00  0.46078161895E+03  0.46078336912E+03  0.12700000000E+01 0.  1.
          4   -1    0    0  501    0  0.00000000000E+00 -0.00000000000E+00 -0.84283805078E+01  0.85235261473E+01  0.12700000000E+01 0.  1.
         25    2    1    2    0    0  0.00000000000E+00  0.00000000000E+00  0.45235323844E+03  0.46930689527E+03  0.12500203847E+03 0.  0.
    9000005    1    3    3    0    0 -0.20685877606E+02  0.56477023257E+02  0.16248260775E+03  0.17326037490E+03  0.10000000000E+01 0.  0.
    9000005    1    3    3    0    0  0.20685877606E+02 -0.56477023257E+02  0.28987063069E+03  0.29604652037E+03  0.10000000000E+01 0.  0.
<mgrwt>
<rscale>  0 0.12500204E+03</rscale>
<asrwt>0</asrwt>
<pdfrwt beam="2">  1        4 0.21192073E-02 0.12500204E+03</pdfrwt>
<pdfrwt beam="1">  1       -4 0.11520750E+00 0.12500204E+03</pdfrwt>
<totfact> 0.92646808E+02</totfact>
</mgrwt>
</event>
<event>
 5    1  0.1423270E-002  0.1250054E+03  0.7818608E-02  0.1235061E+00
          4   -1    0    0  501    0  0.00000000000E+00  0.00000000000E+00  0.32392645905E+03  0.32392894865E+03  0.12700000000E+01 0. -1.
         -4   -1    0    0    0  501 -0.00000000000E+00 -0.00000000000E+00 -0.12024122841E+02  0.12091006166E+02  0.12700000000E+01 0. -1.
         25    2    1    2    0    0  0.00000000000E+00  0.00000000000E+00  0.31190233621E+03  0.33601995481E+03  0.12500537069E+03 0.  0.
    9000005    1    3    3    0    0  0.16353971805E+02  0.38306980812E+02  0.30712871954E+02  0.51760580332E+02  0.10000000000E+01 0.  0.
    9000005    1    3    3    0    0 -0.16353971805E+02 -0.38306980812E+02  0.28118946426E+03  0.28425937448E+03  0.10000000000E+01 0.  0.
<mgrwt>
<rscale>  0 0.12500537E+03</rscale>
<asrwt>0</asrwt>
<pdfrwt beam="1">  1        4 0.80990286E-01 0.12500537E+03</pdfrwt>
<pdfrwt beam="2">  1       -4 0.30147023E-02 0.12500537E+03</pdfrwt>
<totfact> 0.12016902E+03</totfact>
</mgrwt>
</event>
<event>
 5    1  0.1423270E-002  0.1250018E+03  0.7818608E-02  0.1235067E+00
          4   -1    0    0  501    0  0.00000000000E+00  0.00000000000E+00  0.50348947467E+02  0.50364962137E+02  0.12700000000E+01 0.  1.
         -4   -1    0    0    0  501 -0.00000000000E+00 -0.00000000000E+00 -0.77552171090E+02  0.77562569199E+02  0.12700000000E+01 0.  1.
         25    2    1    2    0    0  0.00000000000E+00  0.00000000000E+00 -0.27203223623E+02  0.12792753134E+03  0.12500175158E+03 0.  0.
    9000005    1    3    3    0    0 -0.53170225728E+02 -0.76762818569E+01 -0.46276340075E+02  0.70911902089E+02  0.10000000000E+01 0.  0.
    9000005    1    3    3    0    0  0.53170225728E+02  0.76762818569E+01  0.19073116453E+02  0.57015629246E+02  0.10000000000E+01 0.  0.
<mgrwt>
<rscale>  0 0.12500175E+03</rscale>
<asrwt>0</asrwt>
<pdfrwt beam="1">  1        4 0.12590539E-01 0.12500175E+03</pdfrwt>
<pdfrwt beam="2">  1       -4 0.19391344E-01 0.12500175E+03</pdfrwt>
<totfact> 0.19675674E+03</totfact>
</mgrwt>
</event>
<event>
 5    1  0.1423270E-002  0.1250054E+03  0.7818608E-02  0.1235061E+00
         -4   -1    0    0    0  501 -0.00000000000E+00  0.00000000000E+00  0.45682719118E+02  0.45700368992E+02  0.12700000000E+01 0. -1.
          4   -1    0    0  501    0  0.00000000000E+00 -0.00000000000E+00 -0.85476739863E+02  0.85486174073E+02  0.12700000000E+01 0. -1.
         25    2    1    2    0    0  0.00000000000E+00  0.00000000000E+00 -0.39794020745E+02  0.13118654307E+03  0.12500537986E+03 0.  0.
    9000005    1    3    3    0    0 -0.47640776443E+02  0.31629055356E+02  0.65595826493E+01  0.57567949827E+02  0.10000000000E+01 0.  0.
    9000005    1    3    3    0    0  0.47640776443E+02 -0.31629055356E+02 -0.46353603394E+02  0.73618593238E+02  0.10000000000E+01 0.  0.
<mgrwt>
<rscale>  0 0.12500538E+03</rscale>
<asrwt>0</asrwt>
<pdfrwt beam="2">  1        4 0.21372570E-01 0.12500538E+03</pdfrwt>
<pdfrwt beam="1">  1       -4 0.11424065E-01 0.12500538E+03</pdfrwt>
<totfact> 0.19498357E+03</totfact>
</mgrwt>
</event>
<event>
 5    1  0.1423270E-002  0.1250038E+03  0.7818608E-02  0.1235063E+00
          4   -1    0    0  501    0  0.00000000000E+00  0.00000000000E+00  0.36334661575E+03  0.36334883525E+03  0.12700000000E+01 0. -1.
         -4   -1    0    0    0  501 -0.00000000000E+00 -0.00000000000E+00 -0.10711650948E+02  0.10786675393E+02  0.12700000000E+01 0. -1.
         25    2    1    2    0    0  0.00000000000E+00  0.00000000000E+00  0.35263496480E+03  0.37413551064E+03  0.12500384763E+03 0.  0.
    9000005    1    3    3    0    0  0.59747759670E+01  0.36919882787E+02  0.26467046226E+02  0.45828814395E+02  0.10000000000E+01 0.  0.
    9000005    1    3    3    0    0 -0.59747759670E+01 -0.36919882787E+02  0.32616791858E+03  0.32830669625E+03  0.10000000000E+01 0.  0.
<mgrwt>
<rscale>  0 0.12500385E+03</rscale>
<asrwt>0</asrwt>
<pdfrwt beam="1">  1        4 0.90846306E-01 0.12500385E+03</pdfrwt>
<pdfrwt beam="2">  1       -4 0.26875683E-02 0.12500385E+03</pdfrwt>
<totfact> 0.11121139E+03</totfact>
</mgrwt>
</event>
<event>
 5    1  0.1423270E-002  0.1250020E+03  0.7818608E-02  0.1235066E+00
          4   -1    0    0  501    0  0.00000000000E+00  0.00000000000E+00  0.97498411622E+02  0.97506682687E+02  0.12700000000E+01 0.  1.
         -4   -1    0    0    0  501 -0.00000000000E+00 -0.00000000000E+00 -0.40046016391E+02  0.40066149413E+02  0.12700000000E+01 0.  1.
         25    2    1    2    0    0  0.00000000000E+00  0.00000000000E+00  0.57452395230E+02  0.13757283210E+03  0.12500202564E+03 0.  0.
    9000005    1    3    3    0    0  0.54957562950E+02  0.26797122001E+02  0.14505591310E+02  0.62847686133E+02  0.10000000000E+01 0.  0.
    9000005    1    3    3    0    0 -0.54957562950E+02 -0.26797122001E+02  0.42946803920E+02  0.74725145968E+02  0.10000000000E+01 0.  0.
<mgrwt>
<rscale>  0 0.12500203E+03</rscale>
<asrwt>0</asrwt>
<pdfrwt beam="1">  1        4 0.24378153E-01 0.12500203E+03</pdfrwt>
<pdfrwt beam="2">  1       -4 0.10015055E-01 0.12500203E+03</pdfrwt>
<totfact> 0.19164303E+03</totfact>
</mgrwt>
</event>
<event>
 5    1  0.1423270E-002  0.1249940E+03  0.7818608E-02  0.1235079E+00
         -4   -1    0    0    0  501 -0.00000000000E+00  0.00000000000E+00  0.43273474390E+02  0.43292106507E+02  0.12700000000E+01 0.  1.
          4   -1    0    0  501    0  0.00000000000E+00 -0.00000000000E+00 -0.90217673531E+02  0.90226612024E+02  0.12700000000E+01 0.  1.
         25    2    1    2    0    0  0.00000000000E+00  0.00000000000E+00 -0.46944199140E+02  0.13351871853E+03  0.12499396131E+03 0.  0.
    9000005    1    3    3    0    0 -0.18158972505E+02  0.59768855360E+02 -0.25262169798E+02  0.67388734788E+02  0.10000000000E+01 0.  0.
    9000005    1    3    3    0    0  0.18158972505E+02 -0.59768855360E+02 -0.21682029342E+02  0.66129983743E+02  0.10000000000E+01 0.  0.
<mgrwt>
<rscale>  0 0.12499396E+03</rscale>
<asrwt>0</asrwt>
<pdfrwt beam="2">  1        4 0.22557864E-01 0.12499396E+03</pdfrwt>
<pdfrwt beam="1">  1       -4 0.10821815E-01 0.12499396E+03</pdfrwt>
<totfact> 0.19379739E+03</totfact>
</mgrwt>
</event>
<event>
 5    1  0.1423270E-002  0.1250040E+03  0.7818608E-02  0.1235063E+00
         -4   -1    0    0    0  501 -0.00000000000E+00  0.00000000000E+00  0.44659314310E+03  0.44659494887E+03  0.12700000000E+01 0. -1.
          4   -1    0    0  501    0  0.00000000000E+00 -0.00000000000E+00 -0.86994076164E+01  0.87916206058E+01  0.12700000000E+01 0. -1.
         25    2    1    2    0    0  0.00000000000E+00  0.00000000000E+00  0.43789373548E+03  0.45538656948E+03  0.12500401630E+03 0.  0.
    9000005    1    3    3    0    0  0.28230689423E+01 -0.15249894350E+02 -0.15952717006E+01  0.15622864261E+02  0.10000000000E+01 0.  0.
    9000005    1    3    3    0    0 -0.28230689423E+01  0.15249894350E+02  0.43948900718E+03  0.43976370522E+03  0.10000000000E+01 0.  0.
<mgrwt>
<rscale>  0 0.12500402E+03</rscale>
<asrwt>0</asrwt>
<pdfrwt beam="2">  1        4 0.21866043E-02 0.12500402E+03</pdfrwt>
<pdfrwt beam="1">  1       -4 0.11166004E+00 0.12500402E+03</pdfrwt>
<totfact> 0.95049184E+02</totfact>
</mgrwt>
</event>
<event>
 5    1  0.1423270E-002  0.1249980E+03  0.7818608E-02  0.1235072E+00
          4   -1    0    0  501    0  0.00000000000E+00  0.00000000000E+00  0.37616783198E+02  0.37638215661E+02  0.12700000000E+01 0. -1.
         -4   -1    0    0    0  501 -0.00000000000E+00 -0.00000000000E+00 -0.10378507557E+03  0.10379284566E+03  0.12700000000E+01 0. -1.
         25    2    1    2    0    0  0.00000000000E+00  0.00000000000E+00 -0.66168292368E+02  0.14143106132E+03  0.12499800875E+03 0.  0.
    9000005    1    3    3    0    0 -0.17647978563E+02  0.15887420084E+02 -0.98487063401E+02  0.10131417927E+03  0.10000000000E+01 0.  0.
    9000005    1    3    3    0    0  0.17647978563E+02 -0.15887420084E+02  0.32318771033E+02  0.40116882049E+02  0.10000000000E+01 0.  0.
<mgrwt>
<rscale>  0 0.12499801E+03</rscale>
<asrwt>0</asrwt>
<pdfrwt beam="1">  1        4 0.94078464E-02 0.12499801E+03</pdfrwt>
<pdfrwt beam="2">  1       -4 0.25949919E-01 0.12499801E+03</pdfrwt>
<totfact> 0.18968250E+03</totfact>
</mgrwt>
</event>
<event>
 5    1  0.1423270E-002  0.1250004E+03  0.7818608E-02  0.1235069E+00
         -4   -1    0    0    0  501 -0.00000000000E+00  0.00000000000E+00  0.30066698393E+03  0.30066966612E+03  0.12700000000E+01 0.  1.
          4   -1    0    0  501    0  0.00000000000E+00 -0.00000000000E+00 -0.12958245648E+02  0.13020331419E+02  0.12700000000E+01 0.  1.
         25    2    1    2    0    0  0.00000000000E+00  0.00000000000E+00  0.28770873829E+03  0.31368999754E+03  0.12500038589E+03 0.  0.
    9000005    1    3    3    0    0 -0.57204618253E+02  0.24310303089E+02  0.16010138868E+03  0.17174636486E+03  0.10000000000E+01 0.  0.
    9000005    1    3    3    0    0  0.57204618253E+02 -0.24310303089E+02  0.12760734960E+03  0.14194363268E+03  0.10000000000E+01 0.  0.
<mgrwt>
<rscale>  0 0.12500039E+03</rscale>
<asrwt>0</asrwt>
<pdfrwt beam="2">  1        4 0.32476576E-02 0.12500039E+03</pdfrwt>
<pdfrwt beam="1">  1       -4 0.75174837E-01 0.12500039E+03</pdfrwt>
<totfact> 0.12595749E+03</totfact>
</mgrwt>
</event>
<event>
 5    1  0.1423270E-002  0.1250050E+03  0.7818608E-02  0.1235061E+00
          4   -1    0    0  501    0  0.00000000000E+00  0.00000000000E+00  0.74954203001E+01  0.76022513425E+01  0.12700000000E+01 0.  1.
         -4   -1    0    0    0  501 -0.00000000000E+00 -0.00000000000E+00 -0.51739795816E+03  0.51739951682E+03  0.12700000000E+01 0.  1.
         25    2    1    2    0    0  0.00000000000E+00  0.00000000000E+00 -0.50990253786E+03  0.52500176817E+03  0.12500503374E+03 0.  0.
    9000005    1    3    3    0    0  0.44192076820E+02 -0.36912002315E+02 -0.15292623212E+03  0.16341012221E+03  0.10000000000E+01 0.  0.
    9000005    1    3    3    0    0 -0.44192076820E+02  0.36912002315E+02 -0.35697630574E+03  0.36159164596E+03  0.10000000000E+01 0.  0.
<mgrwt>
<rscale>  0 0.12500503E+03</rscale>
<asrwt>0</asrwt>
<pdfrwt beam="1">  1        4 0.18874055E-02 0.12500503E+03</pdfrwt>
<pdfrwt beam="2">  1       -4 0.12936292E+00 0.12500503E+03</pdfrwt>
<totfact> 0.83753285E+02</totfact>
</mgrwt>
</event>
<event>
 5    1  0.1423270E-002  0.1249931E+03  0.7818608E-02  0.1235080E+00
          4   -1    0    0  501    0  0.00000000000E+00  0.00000000000E+00  0.16323328816E+03  0.16323822856E+03  0.12700000000E+01 0.  1.
         -4   -1    0    0    0  501 -0.00000000000E+00 -0.00000000000E+00 -0.23905670173E+02  0.23939381079E+02  0.12700000000E+01 0.  1.
         25    2    1    2    0    0  0.00000000000E+00  0.00000000000E+00  0.13932761798E+03  0.18717760963E+03  0.12499308947E+03 0.  0.
    9000005    1    3    3    0    0 -0.40800344447E+02  0.21159865037E+02  0.62641989928E+01  0.46396639796E+02  0.10000000000E+01 0.  0.
    9000005    1    3    3    0    0  0.40800344447E+02 -0.21159865037E+02  0.13306341899E+03  0.14078096984E+03  0.10000000000E+01 0.  0.
<mgrwt>
<rscale>  0 0.12499309E+03</rscale>
<asrwt>0</asrwt>
<pdfrwt beam="1">  1        4 0.40813153E-01 0.12499309E+03</pdfrwt>
<pdfrwt beam="2">  1       -4 0.59812491E-02 0.12499309E+03</pdfrwt>
<totfact> 0.16851377E+03</totfact>
</mgrwt>
</event>
<event>
 5    1  0.1423270E-002  0.1250141E+03  0.7818608E-02  0.1235047E+00
         -4   -1    0    0    0  501 -0.00000000000E+00  0.00000000000E+00  0.18183670723E+02  0.18227967000E+02  0.12700000000E+01 0.  1.
          4   -1    0    0  501    0  0.00000000000E+00 -0.00000000000E+00 -0.21456283339E+03  0.21456659193E+03  0.12700000000E+01 0.  1.
         25    2    1    2    0    0  0.00000000000E+00  0.00000000000E+00 -0.19637916266E+03  0.23279455893E+03  0.12501412375E+03 0.  0.
    9000005    1    3    3    0    0 -0.53314001944E+02 -0.32348731348E+02 -0.90442167155E+02  0.10986177143E+03  0.10000000000E+01 0.  0.
    9000005    1    3    3    0    0  0.53314001944E+02  0.32348731348E+02 -0.10593699551E+03  0.12293278749E+03  0.10000000000E+01 0.  0.
<mgrwt>
<rscale>  0 0.12501412E+03</rscale>
<asrwt>0</asrwt>
<pdfrwt beam="2">  1        4 0.53646707E-01 0.12501412E+03</pdfrwt>
<pdfrwt beam="1">  1       -4 0.45519252E-02 0.12501412E+03</pdfrwt>
<totfact> 0.15083058E+03</totfact>
</mgrwt>
</event>
<event>
 5    1  0.1423270E-002  0.1249989E+03  0.7818608E-02  0.1235071E+00
          4   -1    0    0  501    0  0.00000000000E+00  0.00000000000E+00  0.16746924085E+03  0.16747405629E+03  0.12700000000E+01 0. -1.
         -4   -1    0    0    0  501 -0.00000000000E+00 -0.00000000000E+00 -0.23302332563E+02  0.23336915025E+02  0.12700000000E+01 0. -1.
         25    2    1    2    0    0  0.00000000000E+00  0.00000000000E+00  0.14416690828E+03  0.19081097131E+03  0.12499891731E+03 0.  0.
    9000005    1    3    3    0    0  0.57737547468E+00 -0.33843629971E+02  0.15227137627E+03  0.15599133528E+03  0.10000000000E+01 0.  0.
    9000005    1    3    3    0    0 -0.57737547468E+00  0.33843629971E+02 -0.81044679867E+01  0.34819636032E+02  0.10000000000E+01 0.  0.
<mgrwt>
<rscale>  0 0.12499892E+03</rscale>
<asrwt>0</asrwt>
<pdfrwt beam="1">  1        4 0.41872234E-01 0.12499892E+03</pdfrwt>
<pdfrwt beam="2">  1       -4 0.58305080E-02 0.12499892E+03</pdfrwt>
<totfact> 0.16697138E+03</totfact>
</mgrwt>
</event>
<event>
 5    1  0.1423270E-002  0.1250188E+03  0.7818608E-02  0.1235040E+00
          4   -1    0    0  501    0  0.00000000000E+00  0.00000000000E+00  0.39392657197E+03  0.39392861917E+03  0.12700000000E+01 0.  1.
         -4   -1    0    0    0  501 -0.00000000000E+00 -0.00000000000E+00 -0.98764400095E+01  0.99577591486E+01  0.12700000000E+01 0.  1.
         25    2    1    2    0    0  0.00000000000E+00  0.00000000000E+00  0.38405013196E+03  0.40388637832E+03  0.12501880953E+03 0.  0.
    9000005    1    3    3    0    0 -0.14978449079E+01  0.93750046693E+01 -0.75492333641E+01  0.12170668688E+02  0.10000000000E+01 0.  0.
    9000005    1    3    3    0    0  0.14978449079E+01 -0.93750046693E+01  0.39159936532E+03  0.39171570963E+03  0.10000000000E+01 0.  0.
<mgrwt>
<rscale>  0 0.12501881E+03</rscale>
<asrwt>0</asrwt>
<pdfrwt beam="1">  1        4 0.98492060E-01 0.12501881E+03</pdfrwt>
<pdfrwt beam="2">  1       -4 0.24795309E-02 0.12501881E+03</pdfrwt>
<totfact> 0.10485092E+03</totfact>
</mgrwt>
</event>
<event>
 5    1  0.1423270E-002  0.1249995E+03  0.7818608E-02  0.1235070E+00
          4   -1    0    0  501    0  0.00000000000E+00  0.00000000000E+00  0.74399587045E+03  0.74399695439E+03  0.12700000000E+01 0. -1.
         -4   -1    0    0    0  501 -0.00000000000E+00 -0.00000000000E+00 -0.51724173114E+01  0.53260492716E+01  0.12700000000E+01 0. -1.
         25    2    1    2    0    0  0.00000000000E+00  0.00000000000E+00  0.73882345314E+03  0.74932300367E+03  0.12499947565E+03 0.  0.
    9000005    1    3    3    0    0 -0.34849748832E+02 -0.85599589480E+01  0.62722029416E+02  0.72269155695E+02  0.10000000000E+01 0.  0.
    9000005    1    3    3    0    0  0.34849748832E+02  0.85599589480E+01  0.67610142372E+03  0.67705384797E+03  0.10000000000E+01 0.  0.
<mgrwt>
<rscale>  0 0.12499948E+03</rscale>
<asrwt>0</asrwt>
<pdfrwt beam="1">  1        4 0.18601829E+00 0.12499948E+03</pdfrwt>
<pdfrwt beam="2">  1       -4 0.13124439E-02 0.12499948E+03</pdfrwt>
<totfact> 0.57135653E+02</totfact>
</mgrwt>
</event>
<event>
 5    1  0.1423270E-002  0.1250007E+03  0.7818608E-02  0.1235068E+00
          4   -1    0    0  501    0  0.00000000000E+00  0.00000000000E+00  0.12711162193E+03  0.12711796619E+03  0.12700000000E+01 0. -1.
         -4   -1    0    0    0  501 -0.00000000000E+00 -0.00000000000E+00 -0.30710995407E+02  0.30737243514E+02  0.12700000000E+01 0. -1.
         25    2    1    2    0    0  0.00000000000E+00  0.00000000000E+00  0.96400626522E+02  0.15785520971E+03  0.12500074575E+03 0.  0.
    9000005    1    3    3    0    0 -0.64454430445E+01 -0.17514512887E+02 -0.27115804408E+02  0.32932791355E+02  0.10000000000E+01 0.  0.
    9000005    1    3    3    0    0  0.64454430445E+01  0.17514512887E+02  0.12351643093E+03  0.12492241835E+03  0.10000000000E+01 0.  0.
<mgrwt>
<rscale>  0 0.12500075E+03</rscale>
<asrwt>0</asrwt>
<pdfrwt beam="1">  1        4 0.31781979E-01 0.12500075E+03</pdfrwt>
<pdfrwt beam="2">  1       -4 0.76818230E-02 0.12500075E+03</pdfrwt>
<totfact> 0.18158846E+03</totfact>
</mgrwt>
</event>
<event>
 5    1  0.1423270E-002  0.1250003E+03  0.7818608E-02  0.1235069E+00
          4   -1    0    0  501    0  0.00000000000E+00  0.00000000000E+00  0.14819316350E+03  0.14819860528E+03  0.12700000000E+01 0. -1.
         -4   -1    0    0    0  501 -0.00000000000E+00 -0.00000000000E+00 -0.26338067563E+02  0.26368668965E+02  0.12700000000E+01 0. -1.
         25    2    1    2    0    0  0.00000000000E+00  0.00000000000E+00  0.12185509593E+03  0.17456727425E+03  0.12500027533E+03 0.  0.
    9000005    1    3    3    0    0  0.54820304104E+02  0.50129521986E+01  0.10223458693E+03  0.11611763947E+03  0.10000000000E+01 0.  0.
    9000005    1    3    3    0    0 -0.54820304104E+02 -0.50129521986E+01  0.19620509005E+02  0.58449634775E+02  0.10000000000E+01 0.  0.
<mgrwt>
<rscale>  0 0.12500028E+03</rscale>
<asrwt>0</asrwt>
<pdfrwt beam="1">  1        4 0.37052796E-01 0.12500028E+03</pdfrwt>
<pdfrwt beam="2">  1       -4 0.65890224E-02 0.12500028E+03</pdfrwt>
<totfact> 0.17392879E+03</totfact>
</mgrwt>
</event>
<event>
 4    1  0.1423270E-002  0.1250825E+03  0.7818608E-02  0.1234940E+00
          4   -1    0    0  501    0  0.00000000000E+00  0.00000000000E+00  0.93722303339E+02  0.93730907620E+02  0.12700000000E+01 0.  1.
         -4   -1    0    0    0  501 -0.00000000000E+00 -0.00000000000E+00 -0.41713816886E+02  0.41733145331E+02  0.12700000000E+01 0.  1.
    9000005    1    1    2    0    0  0.31066962142E+02  0.27938971127E+02 -0.24383264386E+02  0.48386835260E+02  0.10000000000E+01 0.  0.
    9000005    1    1    2    0    0 -0.31066962142E+02 -0.27938971127E+02  0.76391750840E+02  0.87077217691E+02  0.10000000000E+01 0.  0.
<mgrwt>
<rscale>  0 0.12508248E+03</rscale>
<asrwt>0</asrwt>
<pdfrwt beam="1">  1        4 0.23434067E-01 0.12508248E+03</pdfrwt>
<pdfrwt beam="2">  1       -4 0.10431946E-01 0.12508248E+03</pdfrwt>
<totfact> 0.19237812E+03</totfact>
</mgrwt>
</event>
<event>
 5    1  0.1423270E-002  0.1249996E+03  0.7818608E-02  0.1235070E+00
         -4   -1    0    0    0  501 -0.00000000000E+00  0.00000000000E+00  0.30986183402E+03  0.30986443662E+03  0.12700000000E+01 0.  1.
          4   -1    0    0  501    0  0.00000000000E+00 -0.00000000000E+00 -0.12571698633E+02  0.12635683856E+02  0.12700000000E+01 0.  1.
         25    2    1    2    0    0  0.00000000000E+00  0.00000000000E+00  0.29729013538E+03  0.32250012047E+03  0.12499961243E+03 0.  0.
    9000005    1    3    3    0    0 -0.33923093167E+01 -0.35892796350E+02  0.16952726602E+02  0.39852170977E+02  0.10000000000E+01 0.  0.
    9000005    1    3    3    0    0  0.33923093167E+01  0.35892796350E+02  0.28033740878E+03  0.28264794950E+03  0.10000000000E+01 0.  0.
<mgrwt>
<rscale>  0 0.12499961E+03</rscale>
<asrwt>0</asrwt>
<pdfrwt beam="2">  1        4 0.31512480E-02 0.12499961E+03</pdfrwt>
<pdfrwt beam="1">  1       -4 0.77473785E-01 0.12499961E+03</pdfrwt>
<totfact> 0.12363191E+03</totfact>
</mgrwt>
</event>
<event>
 5    1  0.1423270E-002  0.1249993E+03  0.7818608E-02  0.1235070E+00
          4   -1    0    0  501    0  0.00000000000E+00  0.00000000000E+00  0.10326139115E+03  0.10326920064E+03  0.12700000000E+01 0.  1.
         -4   -1    0    0    0  501 -0.00000000000E+00 -0.00000000000E+00 -0.37808444249E+02  0.37829768127E+02  0.12700000000E+01 0.  1.
         25    2    1    2    0    0  0.00000000000E+00  0.00000000000E+00  0.65452946897E+02  0.14109896877E+03  0.12499932292E+03 0.  0.
    9000005    1    3    3    0    0 -0.21608181311E+02 -0.44992935923E+02 -0.97188764814E+01  0.50859948315E+02  0.10000000000E+01 0.  0.
    9000005    1    3    3    0    0  0.21608181311E+02  0.44992935923E+02  0.75171823379E+02  0.90239020455E+02  0.10000000000E+01 0.  0.
<mgrwt>
<rscale>  0 0.12499932E+03</rscale>
<asrwt>0</asrwt>
<pdfrwt beam="1">  1        4 0.25818989E-01 0.12499932E+03</pdfrwt>
<pdfrwt beam="2">  1       -4 0.94557528E-02 0.12499932E+03</pdfrwt>
<totfact> 0.18984561E+03</totfact>
</mgrwt>
</event>
<event>
 5    1  0.1423270E-002  0.1250029E+03  0.7818608E-02  0.1235065E+00
         -4   -1    0    0    0  501 -0.00000000000E+00  0.00000000000E+00  0.29271224547E+02  0.29298762542E+02  0.12700000000E+01 0.  1.
          4   -1    0    0  501    0  0.00000000000E+00 -0.00000000000E+00 -0.13336300744E+03  0.13336905433E+03  0.12700000000E+01 0.  1.
         25    2    1    2    0    0  0.00000000000E+00  0.00000000000E+00 -0.10409178290E+03  0.16266781688E+03  0.12500287749E+03 0.  0.
    9000005    1    3    3    0    0  0.14273586559E+02 -0.56291953401E+02 -0.82086504315E+02  0.10055701607E+03  0.10000000000E+01 0.  0.
    9000005    1    3    3    0    0 -0.14273586559E+02  0.56291953401E+02 -0.22005278580E+02  0.62110800802E+02  0.10000000000E+01 0.  0.
<mgrwt>
<rscale>  0 0.12500288E+03</rscale>
<asrwt>0</asrwt>
<pdfrwt beam="2">  1        4 0.33344948E-01 0.12500288E+03</pdfrwt>
<pdfrwt beam="1">  1       -4 0.73220046E-02 0.12500288E+03</pdfrwt>
<totfact> 0.17931722E+03</totfact>
</mgrwt>
</event>
<event>
 5    1  0.1423270E-002  0.1250019E+03  0.7818608E-02  0.1235066E+00
          4   -1    0    0  501    0  0.00000000000E+00  0.00000000000E+00  0.16255353472E+03  0.16255849578E+03  0.12700000000E+01 0.  1.
         -4   -1    0    0    0  501 -0.00000000000E+00 -0.00000000000E+00 -0.24009154019E+02  0.24042719827E+02  0.12700000000E+01 0.  1.
         25    2    1    2    0    0  0.00000000000E+00  0.00000000000E+00  0.13854438070E+03  0.18660121560E+03  0.12500187295E+03 0.  0.
    9000005    1    3    3    0    0  0.59720239669E+02 -0.77172346304E+01  0.44324130462E+02  0.74777612142E+02  0.10000000000E+01 0.  0.
    9000005    1    3    3    0    0 -0.59720239669E+02  0.77172346304E+01  0.94220250237E+02  0.11182360346E+03  0.10000000000E+01 0.  0.
<mgrwt>
<rscale>  0 0.12500187E+03</rscale>
<asrwt>0</asrwt>
<pdfrwt beam="1">  1        4 0.40643198E-01 0.12500187E+03</pdfrwt>
<pdfrwt beam="2">  1       -4 0.60071045E-02 0.12500187E+03</pdfrwt>
<totfact> 0.16872260E+03</totfact>
</mgrwt>
</event>
<event>
 5    1  0.1423270E-002  0.1250023E+03  0.7818608E-02  0.1235066E+00
         -4   -1    0    0    0  501 -0.00000000000E+00  0.00000000000E+00  0.30852984561E+02  0.30879111975E+02  0.12700000000E+01 0.  1.
          4   -1    0    0  501    0  0.00000000000E+00 -0.00000000000E+00 -0.12653015815E+03  0.12653653157E+03  0.12700000000E+01 0.  1.
         25    2    1    2    0    0  0.00000000000E+00  0.00000000000E+00 -0.95677173590E+02  0.15741564355E+03  0.12500225313E+03 0.  0.
    9000005    1    3    3    0    0 -0.45034775548E+02 -0.42638110944E+02 -0.57532051186E+02  0.84599506070E+02  0.10000000000E+01 0.  0.
    9000005    1    3    3    0    0  0.45034775548E+02  0.42638110944E+02 -0.38145122404E+02  0.72816137475E+02  0.10000000000E+01 0.  0.
<mgrwt>
<rscale>  0 0.12500225E+03</rscale>
<asrwt>0</asrwt>
<pdfrwt beam="2">  1        4 0.31636601E-01 0.12500225E+03</pdfrwt>
<pdfrwt beam="1">  1       -4 0.77173091E-02 0.12500225E+03</pdfrwt>
<totfact> 0.18179108E+03</totfact>
</mgrwt>
</event>
<event>
 5    1  0.1423270E-002  0.1250177E+03  0.7818608E-02  0.1235042E+00
         -4   -1    0    0    0  501 -0.00000000000E+00  0.00000000000E+00  0.21027251014E+02  0.21065568713E+02  0.12700000000E+01 0.  1.
          4   -1    0    0  501    0  0.00000000000E+00 -0.00000000000E+00 -0.18561371786E+03  0.18561806258E+03  0.12700000000E+01 0.  1.
         25    2    1    2    0    0  0.00000000000E+00  0.00000000000E+00 -0.16458646684E+03  0.20668363129E+03  0.12501767226E+03 0.  0.
    9000005    1    3    3    0    0  0.23374423526E+02 -0.16398561532E+01 -0.17808537129E+03  0.17962308391E+03  0.10000000000E+01 0.  0.
    9000005    1    3    3    0    0 -0.23374423526E+02  0.16398561532E+01  0.13498904453E+02  0.27060547385E+02  0.10000000000E+01 0.  0.
<mgrwt>
<rscale>  0 0.12501767E+03</rscale>
<asrwt>0</asrwt>
<pdfrwt beam="2">  1        4 0.46408757E-01 0.12501767E+03</pdfrwt>
<pdfrwt beam="1">  1       -4 0.52621461E-02 0.12501767E+03</pdfrwt>
<totfact> 0.16051317E+03</totfact>
</mgrwt>
</event>
<event>
 5    1  0.1423270E-002  0.1250007E+03  0.7818608E-02  0.1235068E+00
          4   -1    0    0  501    0  0.00000000000E+00  0.00000000000E+00  0.89604651221E+02  0.89613650860E+02  0.12700000000E+01 0. -1.
         -4   -1    0    0    0  501 -0.00000000000E+00 -0.00000000000E+00 -0.43574342270E+02  0.43592845792E+02  0.12700000000E+01 0. -1.
         25    2    1    2    0    0  0.00000000000E+00  0.00000000000E+00  0.46030308951E+02  0.13320649665E+03  0.12500072563E+03 0.  0.
    9000005    1    3    3    0    0  0.34745190515E+02 -0.46225154861E+02 -0.22319294524E+01  0.57878966084E+02  0.10000000000E+01 0.  0.
    9000005    1    3    3    0    0 -0.34745190515E+02  0.46225154861E+02  0.48262238403E+02  0.75327530569E+02  0.10000000000E+01 0.  0.
<mgrwt>
<rscale>  0 0.12500073E+03</rscale>
<asrwt>0</asrwt>
<pdfrwt beam="1">  1        4 0.22404600E-01 0.12500073E+03</pdfrwt>
<pdfrwt beam="2">  1       -4 0.10897024E-01 0.12500073E+03</pdfrwt>
<totfact> 0.19393167E+03</totfact>
</mgrwt>
</event>
<event>
 5    1  0.1423270E-002  0.1249832E+03  0.7818608E-02  0.1235095E+00
         -4   -1    0    0    0  501 -0.00000000000E+00  0.00000000000E+00  0.87640194529E+02  0.87649395874E+02  0.12700000000E+01 0.  1.
          4   -1    0    0  501    0  0.00000000000E+00 -0.00000000000E+00 -0.44538899787E+02  0.44557002752E+02  0.12700000000E+01 0.  1.
         25    2    1    2    0    0  0.00000000000E+00  0.00000000000E+00  0.43101294742E+02  0.13220639863E+03  0.12498323979E+03 0.  0.
    9000005    1    3    3    0    0 -0.11197931960E+02 -0.61371552583E+02  0.17834584102E+02  0.64891706224E+02  0.10000000000E+01 0.  0.
    9000005    1    3    3    0    0  0.11197931960E+02  0.61371552583E+02  0.25266710640E+02  0.67314692402E+02  0.10000000000E+01 0.  0.
<mgrwt>
<rscale>  0 0.12498324E+03</rscale>
<asrwt>0</asrwt>
<pdfrwt beam="2">  1        4 0.11138138E-01 0.12498324E+03</pdfrwt>
<pdfrwt beam="1">  1       -4 0.21913461E-01 0.12498324E+03</pdfrwt>
<totfact> 0.19454093E+03</totfact>
</mgrwt>
</event>
<event>
 5    1  0.1423270E-002  0.1250012E+03  0.7818608E-02  0.1235067E+00
         -4   -1    0    0    0  501 -0.00000000000E+00  0.00000000000E+00  0.31774544152E+02  0.31799914404E+02  0.12700000000E+01 0.  1.
          4   -1    0    0  501    0  0.00000000000E+00 -0.00000000000E+00 -0.12286111217E+03  0.12286767591E+03  0.12700000000E+01 0.  1.
         25    2    1    2    0    0  0.00000000000E+00  0.00000000000E+00 -0.91086568018E+02  0.15466759031E+03  0.12500120248E+03 0.  0.
    9000005    1    3    3    0    0 -0.18340203770E+02 -0.40457977168E+02  0.88445196055E+01  0.45303824540E+02  0.10000000000E+01 0.  0.
    9000005    1    3    3    0    0  0.18340203770E+02  0.40457977168E+02 -0.99931087623E+02  0.10936376577E+03  0.10000000000E+01 0.  0.
<mgrwt>
<rscale>  0 0.12500120E+03</rscale>
<asrwt>0</asrwt>
<pdfrwt beam="2">  1        4 0.30719269E-01 0.12500120E+03</pdfrwt>
<pdfrwt beam="1">  1       -4 0.79476281E-02 0.12500120E+03</pdfrwt>
<totfact> 0.18311119E+03</totfact>
</mgrwt>
</event>
<event>
 5    1  0.1423270E-002  0.1250027E+03  0.7818608E-02  0.1235065E+00
         -4   -1    0    0    0  501 -0.00000000000E+00  0.00000000000E+00  0.99703889229E+01  0.10050947979E+02  0.12700000000E+01 0.  1.
          4   -1    0    0  501    0  0.00000000000E+00 -0.00000000000E+00 -0.39014408274E+03  0.39014614979E+03  0.12700000000E+01 0.  1.
         25    2    1    2    0    0  0.00000000000E+00  0.00000000000E+00 -0.38017369382E+03  0.40019709777E+03  0.12500271834E+03 0.  0.
    9000005    1    3    3    0    0 -0.35858077718E+02  0.12156360630E+02 -0.34925814137E+03  0.35130588972E+03  0.10000000000E+01 0.  0.
    9000005    1    3    3    0    0  0.35858077718E+02 -0.12156360630E+02 -0.30915552455E+02  0.48891208054E+02  0.10000000000E+01 0.  0.
<mgrwt>
<rscale>  0 0.12500272E+03</rscale>
<asrwt>0</asrwt>
<pdfrwt beam="2">  1        4 0.97546298E-01 0.12500272E+03</pdfrwt>
<pdfrwt beam="1">  1       -4 0.25029268E-02 0.12500272E+03</pdfrwt>
<totfact> 0.10564491E+03</totfact>
</mgrwt>
</event>
<event>
 5    1  0.1423270E-002  0.1250007E+03  0.7818608E-02  0.1235068E+00
         -4   -1    0    0    0  501 -0.00000000000E+00  0.00000000000E+00  0.73948118686E+01  0.75030755409E+01  0.12700000000E+01 0. -1.
          4   -1    0    0  501    0  0.00000000000E+00 -0.00000000000E+00 -0.52429994616E+03  0.52430148431E+03  0.12700000000E+01 0. -1.
         25    2    1    2    0    0  0.00000000000E+00  0.00000000000E+00 -0.51690513430E+03  0.53180455985E+03  0.12500068806E+03 0.  0.
    9000005    1    3    3    0    0  0.13699737258E+01  0.60262148409E+02 -0.18830122460E+03  0.19771634870E+03  0.10000000000E+01 0.  0.
    9000005    1    3    3    0    0 -0.13699737258E+01 -0.60262148409E+02 -0.32860390970E+03  0.33408821115E+03  0.10000000000E+01 0.  0.
<mgrwt>
<rscale>  0 0.12500069E+03</rscale>
<asrwt>0</asrwt>
<pdfrwt beam="2">  1        4 0.13108859E+00 0.12500069E+03</pdfrwt>
<pdfrwt beam="1">  1       -4 0.18624300E-02 0.12500069E+03</pdfrwt>
<totfact> 0.82759678E+02</totfact>
</mgrwt>
</event>
<event>
 5    1  0.1423270E-002  0.1249391E+03  0.7818608E-02  0.1235164E+00
         -4   -1    0    0    0  501 -0.00000000000E+00  0.00000000000E+00  0.48749393956E+02  0.48765933920E+02  0.12700000000E+01 0.  1.
          4   -1    0    0  501    0  0.00000000000E+00 -0.00000000000E+00 -0.80016023102E+02  0.80026101073E+02  0.12700000000E+01 0.  1.
         25    2    1    2    0    0  0.00000000000E+00  0.00000000000E+00 -0.31266629146E+02  0.12879203499E+03  0.12493912990E+03 0.  0.
    9000005    1    3    3    0    0 -0.47162147701E+02  0.36996403050E+01 -0.57676998261E+02  0.74602892991E+02  0.10000000000E+01 0.  0.
    9000005    1    3    3    0    0  0.47162147701E+02 -0.36996403050E+01  0.26410369115E+02  0.54189142003E+02  0.10000000000E+01 0.  0.
<mgrwt>
<rscale>  0 0.12493913E+03</rscale>
<asrwt>0</asrwt>
<pdfrwt beam="2">  1        4 0.20007333E-01 0.12493913E+03</pdfrwt>
<pdfrwt beam="1">  1       -4 0.12190676E-01 0.12493913E+03</pdfrwt>
<totfact> 0.19657463E+03</totfact>
</mgrwt>
</event>
<event>
 5    1  0.1423270E-002  0.1249995E+03  0.7818608E-02  0.1235070E+00
         -4   -1    0    0    0  501 -0.00000000000E+00  0.00000000000E+00  0.27337652724E+03  0.27337947719E+03  0.12700000000E+01 0. -1.
          4   -1    0    0  501    0  0.00000000000E+00 -0.00000000000E+00 -0.14257542983E+02  0.14313994268E+02  0.12700000000E+01 0. -1.
         25    2    1    2    0    0  0.00000000000E+00  0.00000000000E+00  0.25911898426E+03  0.28769347145E+03  0.12499954206E+03 0.  0.
    9000005    1    3    3    0    0 -0.35209423930E+01  0.61770178283E+02  0.14979086737E+03  0.16206867652E+03  0.10000000000E+01 0.  0.
    9000005    1    3    3    0    0  0.35209423930E+01 -0.61770178283E+02  0.10932811688E+03  0.12562479493E+03  0.10000000000E+01 0.  0.
<mgrwt>
<rscale>  0 0.12499954E+03</rscale>
<asrwt>0</asrwt>
<pdfrwt beam="2">  1        4 0.35718110E-02 0.12499954E+03</pdfrwt>
<pdfrwt beam="1">  1       -4 0.68351556E-01 0.12499954E+03</pdfrwt>
<totfact> 0.13323256E+03</totfact>
</mgrwt>
</event>
<event>
 5    1  0.1423270E-002  0.1249855E+03  0.7818608E-02  0.1235092E+00
          4   -1    0    0  501    0  0.00000000000E+00  0.00000000000E+00  0.27150857975E+03  0.27151154999E+03  0.12700000000E+01 0.  1.
         -4   -1    0    0    0  501 -0.00000000000E+00 -0.00000000000E+00 -0.14352785886E+02  0.14408864032E+02  0.12700000000E+01 0.  1.
         25    2    1    2    0    0  0.00000000000E+00  0.00000000000E+00  0.25715579387E+03  0.28592041403E+03  0.12498552251E+03 0.  0.
    9000005    1    3    3    0    0 -0.32840281057E+02  0.86986479428E+01  0.24854638130E+03  0.25085943114E+03  0.10000000000E+01 0.  0.
    9000005    1    3    3    0    0  0.32840281057E+02 -0.86986479428E+01  0.86094125682E+01  0.35060982882E+02  0.10000000000E+01 0.  0.
<mgrwt>
<rscale>  0 0.12498552E+03</rscale>
<asrwt>0</asrwt>
<pdfrwt beam="1">  1        4 0.67884525E-01 0.12498552E+03</pdfrwt>
<pdfrwt beam="2">  1       -4 0.35955776E-02 0.12498552E+03</pdfrwt>
<totfact> 0.13379486E+03</totfact>
</mgrwt>
</event>
<event>
 5    1  0.1423270E-002  0.1249994E+03  0.7818608E-02  0.1235070E+00
         -4   -1    0    0    0  501 -0.00000000000E+00  0.00000000000E+00  0.58022016587E+02  0.58035913957E+02  0.12700000000E+01 0. -1.
          4   -1    0    0  501    0  0.00000000000E+00 -0.00000000000E+00 -0.67294949272E+02  0.67306932017E+02  0.12700000000E+01 0. -1.
         25    2    1    2    0    0  0.00000000000E+00  0.00000000000E+00 -0.92729326852E+01  0.12534284597E+03  0.12499936702E+03 0.  0.
    9000005    1    3    3    0    0 -0.88797613626E+01 -0.48651678399E+02 -0.42943198865E+02  0.65505376128E+02  0.10000000000E+01 0.  0.
    9000005    1    3    3    0    0  0.88797613626E+01  0.48651678399E+02  0.33670266180E+02  0.59837469846E+02  0.10000000000E+01 0.  0.
<mgrwt>
<rscale>  0 0.12499937E+03</rscale>
<asrwt>0</asrwt>
<pdfrwt beam="2">  1        4 0.16826972E-01 0.12499937E+03</pdfrwt>
<pdfrwt beam="1">  1       -4 0.14508739E-01 0.12499937E+03</pdfrwt>
<totfact> 0.19816767E+03</totfact>
</mgrwt>
</event>
<event>
 5    1  0.1423270E-002  0.1250007E+03  0.7818608E-02  0.1235068E+00
          4   -1    0    0  501    0  0.00000000000E+00  0.00000000000E+00  0.54588092084E+02  0.54602863454E+02  0.12700000000E+01 0.  1.
         -4   -1    0    0    0  501 -0.00000000000E+00 -0.00000000000E+00 -0.71529310833E+02  0.71540584344E+02  0.12700000000E+01 0.  1.
         25    2    1    2    0    0  0.00000000000E+00  0.00000000000E+00 -0.16941218749E+02  0.12614344780E+03  0.12500065812E+03 0.  0.
    9000005    1    3    3    0    0 -0.30940055862E+02 -0.51983688040E+02  0.73475227890E+01  0.60947329474E+02  0.10000000000E+01 0.  0.
    9000005    1    3    3    0    0  0.30940055862E+02  0.51983688040E+02 -0.24288741538E+02  0.65196118323E+02  0.10000000000E+01 0.  0.
<mgrwt>
<rscale>  0 0.12500066E+03</rscale>
<asrwt>0</asrwt>
<pdfrwt beam="1">  1        4 0.13650279E-01 0.12500066E+03</pdfrwt>
<pdfrwt beam="2">  1       -4 0.17885583E-01 0.12500066E+03</pdfrwt>
<totfact> 0.19772866E+03</totfact>
</mgrwt>
</event>
<event>
 4    1  0.1423270E-002  0.1249281E+03  0.7818608E-02  0.1235182E+00
         -4   -1    0    0    0  501 -0.00000000000E+00  0.00000000000E+00  0.23409502438E+02  0.23443926813E+02  0.12700000000E+01 0.  1.
          4   -1    0    0  501    0  0.00000000000E+00 -0.00000000000E+00 -0.16651489979E+03  0.16651974283E+03  0.12700000000E+01 0.  1.
    9000005    1    1    2    0    0  0.34525313266E+02  0.58428194045E+01  0.70869692119E+01  0.35740186448E+02  0.10000000000E+01 0.  0.
    9000005    1    1    2    0    0 -0.34525313266E+02 -0.58428194045E+01 -0.15019236656E+03  0.15422348320E+03  0.10000000000E+01 0.  0.
<mgrwt>
<rscale>  0 0.12492814E+03</rscale>
<asrwt>0</asrwt>
<pdfrwt beam="2">  1        4 0.41633630E-01 0.12492814E+03</pdfrwt>
<pdfrwt beam="1">  1       -4 0.58572845E-02 0.12492814E+03</pdfrwt>
<totfact> 0.16759822E+03</totfact>
</mgrwt>
</event>
<event>
 5    1  0.1423270E-002  0.1249802E+03  0.7818608E-02  0.1235100E+00
          4   -1    0    0  501    0  0.00000000000E+00  0.00000000000E+00  0.68591170304E+01  0.69756997095E+01  0.12700000000E+01 0. -1.
         -4   -1    0    0    0  501 -0.00000000000E+00 -0.00000000000E+00 -0.56440255043E+03  0.56440397929E+03  0.12700000000E+01 0. -1.
         25    2    1    2    0    0  0.00000000000E+00  0.00000000000E+00 -0.55754343340E+03  0.57137967899E+03  0.12498022820E+03 0.  0.
    9000005    1    3    3    0    0  0.12340431171E+02  0.27651749593E+02 -0.52863877430E+03  0.52950624094E+03  0.10000000000E+01 0.  0.
    9000005    1    3    3    0    0 -0.12340431171E+02 -0.27651749593E+02 -0.28904659098E+02  0.41873438056E+02  0.10000000000E+01 0.  0.
<mgrwt>
<rscale>  0 0.12498023E+03</rscale>
<asrwt>0</asrwt>
<pdfrwt beam="1">  1        4 0.17295326E-02 0.12498023E+03</pdfrwt>
<pdfrwt beam="2">  1       -4 0.14111523E+00 0.12498023E+03</pdfrwt>
<totfact> 0.77260872E+02</totfact>
</mgrwt>
</event>
<event>
 5    1  0.1423270E-002  0.1249969E+03  0.7818608E-02  0.1235074E+00
          4   -1    0    0  501    0  0.00000000000E+00  0.00000000000E+00  0.69929486711E+02  0.69941018091E+02  0.12700000000E+01 0. -1.
         -4   -1    0    0    0  501 -0.00000000000E+00 -0.00000000000E+00 -0.55833736726E+02  0.55848178634E+02  0.12700000000E+01 0. -1.
         25    2    1    2    0    0  0.00000000000E+00  0.00000000000E+00  0.14095749985E+02  0.12578919673E+03  0.12499692734E+03 0.  0.
    9000005    1    3    3    0    0  0.19294347428E+02 -0.44669620006E+02  0.46506234199E+02  0.67316243311E+02  0.10000000000E+01 0.  0.
    9000005    1    3    3    0    0 -0.19294347428E+02  0.44669620006E+02 -0.32410484213E+02  0.58472953415E+02  0.10000000000E+01 0.  0.
<mgrwt>
<rscale>  0 0.12499693E+03</rscale>
<asrwt>0</asrwt>
<pdfrwt beam="1">  1        4 0.17485618E-01 0.12499693E+03</pdfrwt>
<pdfrwt beam="2">  1       -4 0.13961681E-01 0.12499693E+03</pdfrwt>
<totfact> 0.19793739E+03</totfact>
</mgrwt>
</event>
<event>
 5    1  0.1423270E-002  0.1250000E+03  0.7818608E-02  0.1235069E+00
         -4   -1    0    0    0  501 -0.00000000000E+00  0.00000000000E+00  0.30348166683E+02  0.30374728329E+02  0.12700000000E+01 0.  1.
          4   -1    0    0  501    0  0.00000000000E+00 -0.00000000000E+00 -0.12862846797E+03  0.12863473742E+03  0.12700000000E+01 0.  1.
         25    2    1    2    0    0  0.00000000000E+00  0.00000000000E+00 -0.98280301284E+02  0.15900946575E+03  0.12499997031E+03 0.  0.
    9000005    1    3    3    0    0  0.50045207517E+00  0.18659958728E+02 -0.12500542155E+03  0.12639541103E+03  0.10000000000E+01 0.  0.
    9000005    1    3    3    0    0 -0.50045207517E+00 -0.18659958728E+02  0.26725120268E+02  0.32614054721E+02  0.10000000000E+01 0.  0.
<mgrwt>
<rscale>  0 0.12499997E+03</rscale>
<asrwt>0</asrwt>
<pdfrwt beam="2">  1        4 0.32161219E-01 0.12499997E+03</pdfrwt>
<pdfrwt beam="1">  1       -4 0.75911459E-02 0.12499997E+03</pdfrwt>
<totfact> 0.18104483E+03</totfact>
</mgrwt>
</event>
<event>
 5    1  0.1423270E-002  0.1249876E+03  0.7818608E-02  0.1235089E+00
         -4   -1    0    0    0  501 -0.00000000000E+00  0.00000000000E+00  0.25742486795E+02  0.25773795343E+02  0.12700000000E+01 0.  1.
          4   -1    0    0  501    0  0.00000000000E+00 -0.00000000000E+00 -0.15158704101E+03  0.15159236096E+03  0.12700000000E+01 0.  1.
         25    2    1    2    0    0  0.00000000000E+00  0.00000000000E+00 -0.12584455421E+03  0.17736615631E+03  0.12498760569E+03 0.  0.
    9000005    1    3    3    0    0  0.58578109493E+02 -0.21437194128E+02 -0.68141521187E+02  0.92386227944E+02  0.10000000000E+01 0.  0.
    9000005    1    3    3    0    0 -0.58578109493E+02  0.21437194128E+02 -0.57703033027E+02  0.84979928362E+02  0.10000000000E+01 0.  0.
<mgrwt>
<rscale>  0 0.12498761E+03</rscale>
<asrwt>0</asrwt>
<pdfrwt beam="2">  1        4 0.37901336E-01 0.12498761E+03</pdfrwt>
<pdfrwt beam="1">  1       -4 0.64402007E-02 0.12498761E+03</pdfrwt>
<totfact> 0.17274796E+03</totfact>
</mgrwt>
</event>
<event>
 5    1  0.1423270E-002  0.1250007E+03  0.7818608E-02  0.1235068E+00
          4   -1    0    0  501    0  0.00000000000E+00  0.00000000000E+00  0.50851674258E+02  0.50867530654E+02  0.12700000000E+01 0. -1.
         -4   -1    0    0    0  501 -0.00000000000E+00 -0.00000000000E+00 -0.76784319634E+02  0.76794821711E+02  0.12700000000E+01 0. -1.
         25    2    1    2    0    0  0.00000000000E+00  0.00000000000E+00 -0.25932645376E+02  0.12766235237E+03  0.12500069646E+03 0.  0.
    9000005    1    3    3    0    0  0.35719441879E+02  0.36121922926E+01  0.39273265770E+02  0.53219506438E+02  0.10000000000E+01 0.  0.
    9000005    1    3    3    0    0 -0.35719441879E+02 -0.36121922926E+01 -0.65205911146E+02  0.74442845927E+02  0.10000000000E+01 0.  0.
<mgrwt>
<rscale>  0 0.12500070E+03</rscale>
<asrwt>0</asrwt>
<pdfrwt beam="1">  1        4 0.12716213E-01 0.12500070E+03</pdfrwt>
<pdfrwt beam="2">  1       -4 0.19199375E-01 0.12500070E+03</pdfrwt>
<totfact> 0.19690606E+03</totfact>
</mgrwt>
</event>
<event>
 5    1  0.1423270E-002  0.1250030E+03  0.7818608E-02  0.1235065E+00
         -4   -1    0    0    0  501 -0.00000000000E+00  0.00000000000E+00  0.65129544396E+02  0.65141925465E+02  0.12700000000E+01 0. -1.
          4   -1    0    0  501    0  0.00000000000E+00 -0.00000000000E+00 -0.59954729749E+02  0.59968179222E+02  0.12700000000E+01 0. -1.
         25    2    1    2    0    0  0.00000000000E+00  0.00000000000E+00  0.51748146474E+01  0.12511010469E+03  0.12500303832E+03 0.  0.
    9000005    1    3    3    0    0 -0.64879367443E+01  0.56570300181E+02 -0.23186303765E+02  0.61488997943E+02  0.10000000000E+01 0.  0.
    9000005    1    3    3    0    0  0.64879367443E+01 -0.56570300181E+02  0.28361118412E+02  0.63621106744E+02  0.10000000000E+01 0.  0.
<mgrwt>
<rscale>  0 0.12500304E+03</rscale>
<asrwt>0</asrwt>
<pdfrwt beam="2">  1        4 0.14991911E-01 0.12500304E+03</pdfrwt>
<pdfrwt beam="1">  1       -4 0.16285615E-01 0.12500304E+03</pdfrwt>
<totfact> 0.19827676E+03</totfact>
</mgrwt>
</event>
<event>
 5    1  0.1423270E-002  0.1249899E+03  0.7818608E-02  0.1235085E+00
          4   -1    0    0  501    0  0.00000000000E+00  0.00000000000E+00  0.47668617674E+02  0.47685532512E+02  0.12700000000E+01 0. -1.
         -4   -1    0    0    0  501 -0.00000000000E+00 -0.00000000000E+00 -0.81896351226E+02  0.81906197837E+02  0.12700000000E+01 0. -1.
         25    2    1    2    0    0  0.00000000000E+00  0.00000000000E+00 -0.34227733553E+02  0.12959173035E+03  0.12498991492E+03 0.  0.
    9000005    1    3    3    0    0  0.94743909591E+01 -0.60777109486E+02 -0.57089409728E+01  0.61783599187E+02  0.10000000000E+01 0.  0.
    9000005    1    3    3    0    0 -0.94743909591E+01  0.60777109486E+02 -0.28518792580E+02  0.67808131162E+02  0.10000000000E+01 0.  0.
<mgrwt>
<rscale>  0 0.12498991E+03</rscale>
<asrwt>0</asrwt>
<pdfrwt beam="1">  1        4 0.11920500E-01 0.12498991E+03</pdfrwt>
<pdfrwt beam="2">  1       -4 0.20477433E-01 0.12498991E+03</pdfrwt>
<totfact> 0.19590967E+03</totfact>
</mgrwt>
</event>
<event>
 5    1  0.1423270E-002  0.1250008E+03  0.7818608E-02  0.1235068E+00
         -4   -1    0    0    0  501 -0.00000000000E+00  0.00000000000E+00  0.35389094970E+02  0.35411875731E+02  0.12700000000E+01 0. -1.
          4   -1    0    0  501    0  0.00000000000E+00 -0.00000000000E+00 -0.11031955990E+03  0.11032686978E+03  0.12700000000E+01 0. -1.
         25    2    1    2    0    0  0.00000000000E+00  0.00000000000E+00 -0.74930464929E+02  0.14573874551E+03  0.12500082948E+03 0.  0.
    9000005    1    3    3    0    0  0.98564775023E+01  0.23829972253E+02  0.28901995439E+02  0.38747168499E+02  0.10000000000E+01 0.  0.
    9000005    1    3    3    0    0 -0.98564775023E+01 -0.23829972253E+02 -0.10383246037E+03  0.10699157702E+03  0.10000000000E+01 0.  0.
<mgrwt>
<rscale>  0 0.12500083E+03</rscale>
<asrwt>0</asrwt>
<pdfrwt beam="2">  1        4 0.27583651E-01 0.12500083E+03</pdfrwt>
<pdfrwt beam="1">  1       -4 0.88510353E-02 0.12500083E+03</pdfrwt>
<totfact> 0.18749949E+03</totfact>
</mgrwt>
</event>
<event>
 5    1  0.1423270E-002  0.1249990E+03  0.7818608E-02  0.1235071E+00
         -4   -1    0    0    0  501 -0.00000000000E+00  0.00000000000E+00  0.17570173986E+02  0.17616012997E+02  0.12700000000E+01 0.  1.
          4   -1    0    0  501    0  0.00000000000E+00 -0.00000000000E+00 -0.22198190773E+03  0.22198554065E+03  0.12700000000E+01 0.  1.
         25    2    1    2    0    0  0.00000000000E+00  0.00000000000E+00 -0.20441173374E+03  0.23960155365E+03  0.12499899047E+03 0.  0.
    9000005    1    3    3    0    0 -0.12488324514E+02  0.34006990433E+02 -0.46027428410E+01  0.36532436124E+02  0.10000000000E+01 0.  0.
    9000005    1    3    3    0    0  0.12488324514E+02 -0.34006990433E+02 -0.19980899090E+03  0.20306911752E+03  0.10000000000E+01 0.  0.
<mgrwt>
<rscale>  0 0.12499899E+03</rscale>
<asrwt>0</asrwt>
<pdfrwt beam="2">  1        4 0.55501652E-01 0.12499899E+03</pdfrwt>
<pdfrwt beam="1">  1       -4 0.43987282E-02 0.12499899E+03</pdfrwt>
<totfact> 0.14850535E+03</totfact>
</mgrwt>
</event>
<event>
 5    1  0.1423270E-002  0.1249979E+03  0.7818608E-02  0.1235073E+00
          4   -1    0    0  501    0  0.00000000000E+00  0.00000000000E+00  0.32696410157E+03  0.32696656804E+03  0.12700000000E+01 0. -1.
         -4   -1    0    0    0  501 -0.00000000000E+00 -0.00000000000E+00 -0.11910351318E+02  0.11977869949E+02  0.12700000000E+01 0. -1.
         25    2    1    2    0    0  0.00000000000E+00  0.00000000000E+00  0.31505375025E+03  0.33894443799E+03  0.12499786596E+03 0.  0.
    9000005    1    3    3    0    0  0.56219210347E+02 -0.23719731912E+02  0.12095628973E+03  0.13547933171E+03  0.10000000000E+01 0.  0.
    9000005    1    3    3    0    0 -0.56219210347E+02  0.23719731912E+02  0.19409746052E+03  0.20346510628E+03  0.10000000000E+01 0.  0.
<mgrwt>
<rscale>  0 0.12499787E+03</rscale>
<asrwt>0</asrwt>
<pdfrwt beam="1">  1        4 0.81749770E-01 0.12499787E+03</pdfrwt>
<pdfrwt beam="2">  1       -4 0.29863361E-02 0.12499787E+03</pdfrwt>
<totfact> 0.11946316E+03</totfact>
</mgrwt>
</event>
<event>
 5    1  0.1423270E-002  0.1249983E+03  0.7818608E-02  0.1235072E+00
          4   -1    0    0  501    0  0.00000000000E+00  0.00000000000E+00  0.29897571419E+03  0.29897841156E+03  0.12700000000E+01 0. -1.
         -4   -1    0    0    0  501 -0.00000000000E+00 -0.00000000000E+00 -0.13031451322E+02  0.13093189969E+02  0.12700000000E+01 0. -1.
         25    2    1    2    0    0  0.00000000000E+00  0.00000000000E+00  0.28594426287E+03  0.31207160152E+03  0.12499825203E+03 0.  0.
    9000005    1    3    3    0    0  0.30653961335E+02  0.52018116435E+02  0.10274721968E+03  0.11917860938E+03  0.10000000000E+01 0.  0.
    9000005    1    3    3    0    0 -0.30653961335E+02 -0.52018116435E+02  0.18319704319E+03  0.19289299214E+03  0.10000000000E+01 0.  0.
<mgrwt>
<rscale>  0 0.12499825E+03</rscale>
<asrwt>0</asrwt>
<pdfrwt beam="1">  1        4 0.74751979E-01 0.12499825E+03</pdfrwt>
<pdfrwt beam="2">  1       -4 0.32659175E-02 0.12499825E+03</pdfrwt>
<totfact> 0.12639852E+03</totfact>
</mgrwt>
</event>
<event>
 4    1  0.1423270E-002  0.1237870E+03  0.7818608E-02  0.1236977E+00
         -4   -1    0    0    0  501 -0.00000000000E+00  0.00000000000E+00  0.76253077476E+02  0.76263652709E+02  0.12700000000E+01 0. -1.
          4   -1    0    0  501    0  0.00000000000E+00 -0.00000000000E+00 -0.50215948028E+02  0.50232005099E+02  0.12700000000E+01 0. -1.
    9000005    1    1    2    0    0 -0.33064345170E+02 -0.31528219492E+01  0.66378145537E+02  0.74231054234E+02  0.10000000000E+01 0.  0.
    9000005    1    1    2    0    0  0.33064345170E+02  0.31528219492E+01 -0.40341016089E+02  0.52264603575E+02  0.10000000000E+01 0.  0.
<mgrwt>
<rscale>  0 0.12378699E+03</rscale>
<asrwt>0</asrwt>
<pdfrwt beam="2">  1        4 0.12557316E-01 0.12378699E+03</pdfrwt>
<pdfrwt beam="1">  1       -4 0.19066598E-01 0.12378699E+03</pdfrwt>
<totfact> 0.20324545E+03</totfact>
</mgrwt>
</event>
<event>
 5    1  0.1423270E-002  0.1249990E+03  0.7818608E-02  0.1235071E+00
          4   -1    0    0  501    0  0.00000000000E+00  0.00000000000E+00  0.79057150465E+02  0.79067350656E+02  0.12700000000E+01 0.  1.
         -4   -1    0    0    0  501 -0.00000000000E+00 -0.00000000000E+00 -0.49388079156E+02  0.49404405297E+02  0.12700000000E+01 0.  1.
         25    2    1    2    0    0  0.00000000000E+00  0.00000000000E+00  0.29669071309E+02  0.12847175595E+03  0.12499895314E+03 0.  0.
    9000005    1    3    3    0    0 -0.12286911790E+02  0.34529551001E+02 -0.37187173342E+02  0.52222063870E+02  0.10000000000E+01 0.  0.
    9000005    1    3    3    0    0  0.12286911790E+02 -0.34529551001E+02  0.66856244652E+02  0.76249692082E+02  0.10000000000E+01 0.  0.
<mgrwt>
<rscale>  0 0.12499895E+03</rscale>
<asrwt>0</asrwt>
<pdfrwt beam="1">  1        4 0.19767603E-01 0.12499895E+03</pdfrwt>
<pdfrwt beam="2">  1       -4 0.12350336E-01 0.12499895E+03</pdfrwt>
<totfact> 0.19647385E+03</totfact>
</mgrwt>
</event>
<event>
 5    1  0.1423270E-002  0.1250003E+03  0.7818608E-02  0.1235069E+00
          4   -1    0    0  501    0  0.00000000000E+00  0.00000000000E+00  0.27945398338E+03  0.27945686917E+03  0.12700000000E+01 0.  1.
         -4   -1    0    0    0  501 -0.00000000000E+00 -0.00000000000E+00 -0.13946413844E+02  0.14004119362E+02  0.12700000000E+01 0.  1.
         25    2    1    2    0    0  0.00000000000E+00  0.00000000000E+00  0.26550756954E+03  0.29346098853E+03  0.12500032924E+03 0.  0.
    9000005    1    3    3    0    0 -0.60685073240E+02 -0.90703849401E+00  0.97792259819E+02  0.11509920466E+03  0.10000000000E+01 0.  0.
    9000005    1    3    3    0    0  0.60685073240E+02  0.90703849401E+00  0.16771530972E+03  0.17836178387E+03  0.10000000000E+01 0.  0.
<mgrwt>
<rscale>  0 0.12500033E+03</rscale>
<asrwt>0</asrwt>
<pdfrwt beam="1">  1        4 0.69871067E-01 0.12500033E+03</pdfrwt>
<pdfrwt beam="2">  1       -4 0.34941775E-02 0.12500033E+03</pdfrwt>
<totfact> 0.13156224E+03</totfact>
</mgrwt>
</event>
<event>
 5    1  0.1423270E-002  0.1249834E+03  0.7818608E-02  0.1235095E+00
         -4   -1    0    0    0  501 -0.00000000000E+00  0.00000000000E+00  0.11333272160E+03  0.11333983715E+03  0.12700000000E+01 0.  1.
          4   -1    0    0  501    0  0.00000000000E+00 -0.00000000000E+00 -0.34438033823E+02  0.34461443289E+02  0.12700000000E+01 0.  1.
         25    2    1    2    0    0  0.00000000000E+00  0.00000000000E+00  0.78894687777E+02  0.14780128044E+03  0.12498338586E+03 0.  0.
    9000005    1    3    3    0    0 -0.60753035845E+02 -0.36550254433E+01  0.22726613755E+02  0.64975299523E+02  0.10000000000E+01 0.  0.
    9000005    1    3    3    0    0  0.60753035845E+02  0.36550254433E+01  0.56168074022E+02  0.82825980916E+02  0.10000000000E+01 0.  0.
<mgrwt>
<rscale>  0 0.12498339E+03</rscale>
<asrwt>0</asrwt>
<pdfrwt beam="2">  1        4 0.86133242E-02 0.12498339E+03</pdfrwt>
<pdfrwt beam="1">  1       -4 0.28336996E-01 0.12498339E+03</pdfrwt>
<totfact> 0.18654637E+03</totfact>
</mgrwt>
</event>
<event>
 4    1  0.1423270E-002  0.1251013E+03  0.7818608E-02  0.1234911E+00
         -4   -1    0    0    0  501 -0.00000000000E+00  0.00000000000E+00  0.38086458677E+03  0.38086670419E+03  0.12700000000E+01 0.  1.
          4   -1    0    0  501    0  0.00000000000E+00 -0.00000000000E+00 -0.10231496489E+02  0.10310015539E+02  0.12700000000E+01 0.  1.
    9000005    1    1    2    0    0 -0.20744540331E+02 -0.53459799075E+00  0.83164367696E+00  0.20792147070E+02  0.10000000000E+01 0.  0.
    9000005    1    1    2    0    0  0.20744540331E+02  0.53459799075E+00  0.36980144661E+03  0.37038457266E+03  0.10000000000E+01 0.  0.
<mgrwt>
<rscale>  0 0.12510131E+03</rscale>
<asrwt>0</asrwt>
<pdfrwt beam="2">  1        4 0.25679538E-02 0.12510131E+03</pdfrwt>
<pdfrwt beam="1">  1       -4 0.95226220E-01 0.12510131E+03</pdfrwt>
<totfact> 0.10728448E+03</totfact>
</mgrwt>
</event>
<event>
 5    1  0.1423270E-002  0.1249863E+03  0.7818608E-02  0.1235091E+00
          4   -1    0    0  501    0  0.00000000000E+00  0.00000000000E+00  0.18974264371E+03  0.18974689389E+03  0.12700000000E+01 0. -1.
         -4   -1    0    0    0  501 -0.00000000000E+00 -0.00000000000E+00 -0.20558503757E+02  0.20597693481E+02  0.12700000000E+01 0. -1.
         25    2    1    2    0    0  0.00000000000E+00  0.00000000000E+00  0.16918413995E+03  0.21034458737E+03  0.12498628815E+03 0.  0.
    9000005    1    3    3    0    0 -0.15257252666E+02  0.29423271802E+01  0.18644759340E+03  0.18709662245E+03  0.10000000000E+01 0.  0.
    9000005    1    3    3    0    0  0.15257252666E+02 -0.29423271802E+01 -0.17263453446E+02  0.23247964923E+02  0.10000000000E+01 0.  0.
<mgrwt>
<rscale>  0 0.12498629E+03</rscale>
<asrwt>0</asrwt>
<pdfrwt beam="1">  1        4 0.47441090E-01 0.12498629E+03</pdfrwt>
<pdfrwt beam="2">  1       -4 0.51450560E-02 0.12498629E+03</pdfrwt>
<totfact> 0.15921083E+03</totfact>
</mgrwt>
</event>
<event>
 5    1  0.1423270E-002  0.1249980E+03  0.7818608E-02  0.1235072E+00
         -4   -1    0    0    0  501 -0.00000000000E+00  0.00000000000E+00  0.43075626571E+02  0.43094344228E+02  0.12700000000E+01 0. -1.
          4   -1    0    0  501    0  0.00000000000E+00 -0.00000000000E+00 -0.90637701653E+02  0.90646598728E+02  0.12700000000E+01 0. -1.
         25    2    1    2    0    0  0.00000000000E+00  0.00000000000E+00 -0.47562075082E+02  0.13374094296E+03  0.12499795533E+03 0.  0.
    9000005    1    3    3    0    0 -0.15403390962E+02 -0.59334341472E+02 -0.36766383526E+02  0.71488429054E+02  0.10000000000E+01 0.  0.
    9000005    1    3    3    0    0  0.15403390962E+02  0.59334341472E+02 -0.10795691556E+02  0.62252513903E+02  0.10000000000E+01 0.  0.
<mgrwt>
<rscale>  0 0.12499796E+03</rscale>
<asrwt>0</asrwt>
<pdfrwt beam="2">  1        4 0.22662877E-01 0.12499796E+03</pdfrwt>
<pdfrwt beam="1">  1       -4 0.10772359E-01 0.12499796E+03</pdfrwt>
<totfact> 0.19366213E+03</totfact>
</mgrwt>
</event>
<event>
 5    1  0.1423270E-002  0.1250284E+03  0.7818608E-02  0.1235025E+00
         -4   -1    0    0    0  501 -0.00000000000E+00  0.00000000000E+00  0.26138663993E+01  0.29060622074E+01  0.12700000000E+01 0.  1.
          4   -1    0    0  501    0  0.00000000000E+00 -0.00000000000E+00 -0.14156766889E+04  0.14156772586E+04  0.12700000000E+01 0.  1.
         25    2    1    2    0    0  0.00000000000E+00  0.00000000000E+00 -0.14130628225E+04  0.14185833208E+04  0.12502838725E+03 0.  0.
    9000005    1    3    3    0    0 -0.55017742013E+01 -0.62225191341E+02 -0.68172405437E+03  0.68458084275E+03  0.10000000000E+01 0.  0.
    9000005    1    3    3    0    0  0.55017742013E+01  0.62225191341E+02 -0.73133876817E+03  0.73400247805E+03  0.10000000000E+01 0.  0.
<mgrwt>
<rscale>  0 0.12502839E+03</rscale>
<asrwt>0</asrwt>
<pdfrwt beam="2">  1        4 0.35395328E+00 0.12502839E+03</pdfrwt>
<pdfrwt beam="1">  1       -4 0.69006714E-03 0.12502839E+03</pdfrwt>
<totfact> 0.15363601E+02</totfact>
</mgrwt>
</event>
<event>
 5    1  0.1423270E-002  0.1250008E+03  0.7818608E-02  0.1235068E+00
          4   -1    0    0  501    0  0.00000000000E+00  0.00000000000E+00  0.26201070112E+02  0.26231831331E+02  0.12700000000E+01 0.  1.
         -4   -1    0    0    0  501 -0.00000000000E+00 -0.00000000000E+00 -0.14896834724E+03  0.14897376071E+03  0.12700000000E+01 0.  1.
         25    2    1    2    0    0  0.00000000000E+00  0.00000000000E+00 -0.12276727713E+03  0.17520559204E+03  0.12500078059E+03 0.  0.
    9000005    1    3    3    0    0 -0.29294146657E+02  0.57440629796E+00  0.15983897617E+02  0.33391046015E+02  0.10000000000E+01 0.  0.
    9000005    1    3    3    0    0  0.29294146657E+02 -0.57440629796E+00 -0.13875117475E+03  0.14181454603E+03  0.10000000000E+01 0.  0.
<mgrwt>
<rscale>  0 0.12500078E+03</rscale>
<asrwt>0</asrwt>
<pdfrwt beam="1">  1        4 0.65547898E-02 0.12500078E+03</pdfrwt>
<pdfrwt beam="2">  1       -4 0.37246606E-01 0.12500078E+03</pdfrwt>
<totfact> 0.17364463E+03</totfact>
</mgrwt>
</event>
<event>
 5    1  0.1423270E-002  0.1249990E+03  0.7818608E-02  0.1235071E+00
         -4   -1    0    0    0  501 -0.00000000000E+00  0.00000000000E+00  0.13815903986E+03  0.13816487685E+03  0.12700000000E+01 0. -1.
          4   -1    0    0  501    0  0.00000000000E+00 -0.00000000000E+00 -0.28252427625E+02  0.28280957670E+02  0.12700000000E+01 0. -1.
         25    2    1    2    0    0  0.00000000000E+00  0.00000000000E+00  0.10990661223E+03  0.16644583452E+03  0.12499900966E+03 0.  0.
    9000005    1    3    3    0    0 -0.30944066164E+02 -0.52271755871E+02  0.74492422748E+02  0.96124880959E+02  0.10000000000E+01 0.  0.
    9000005    1    3    3    0    0  0.30944066164E+02  0.52271755871E+02  0.35414189486E+02  0.70320953560E+02  0.10000000000E+01 0.  0.
<mgrwt>
<rscale>  0 0.12499901E+03</rscale>
<asrwt>0</asrwt>
<pdfrwt beam="2">  1        4 0.70674029E-02 0.12499901E+03</pdfrwt>
<pdfrwt beam="1">  1       -4 0.34544055E-01 0.12499901E+03</pdfrwt>
<totfact> 0.17758965E+03</totfact>
</mgrwt>
</event>
<event>
 5    1  0.1423270E-002  0.1250164E+03  0.7818608E-02  0.1235044E+00
         -4   -1    0    0    0  501 -0.00000000000E+00  0.00000000000E+00  0.10412619048E+02  0.10489782431E+02  0.12700000000E+01 0. -1.
          4   -1    0    0  501    0  0.00000000000E+00 -0.00000000000E+00 -0.37378100478E+03  0.37378316232E+03  0.12700000000E+01 0. -1.
         25    2    1    2    0    0  0.00000000000E+00  0.00000000000E+00 -0.36336838573E+03  0.38427294475E+03  0.12501644819E+03 0.  0.
    9000005    1    3    3    0    0 -0.47171125930E+02  0.37132251024E+02 -0.12823587705E+03  0.14159576035E+03  0.10000000000E+01 0.  0.
    9000005    1    3    3    0    0  0.47171125930E+02 -0.37132251024E+02 -0.23513250868E+03  0.24267718440E+03  0.10000000000E+01 0.  0.
<mgrwt>
<rscale>  0 0.12501645E+03</rscale>
<asrwt>0</asrwt>
<pdfrwt beam="2">  1        4 0.93455122E-01 0.12501645E+03</pdfrwt>
<pdfrwt beam="1">  1       -4 0.26130711E-02 0.12501645E+03</pdfrwt>
<totfact> 0.10896405E+03</totfact>
</mgrwt>
</event>
<event>
 5    1  0.1423270E-002  0.1249989E+03  0.7818608E-02  0.1235071E+00
          4   -1    0    0  501    0  0.00000000000E+00  0.00000000000E+00  0.76264589844E+02  0.76275163481E+02  0.12700000000E+01 0. -1.
         -4   -1    0    0    0  501 -0.00000000000E+00 -0.00000000000E+00 -0.51196811681E+02  0.51212561216E+02  0.12700000000E+01 0. -1.
         25    2    1    2    0    0  0.00000000000E+00  0.00000000000E+00  0.25067778163E+02  0.12748772470E+03  0.12499890578E+03 0.  0.
    9000005    1    3    3    0    0  0.54434284453E+01  0.56881747477E+02  0.38336169110E+02  0.68817337724E+02  0.10000000000E+01 0.  0.
    9000005    1    3    3    0    0 -0.54434284453E+01 -0.56881747477E+02 -0.13268390947E+02  0.58670386974E+02  0.10000000000E+01 0.  0.
<mgrwt>
<rscale>  0 0.12499891E+03</rscale>
<asrwt>0</asrwt>
<pdfrwt beam="1">  1        4 0.19069438E-01 0.12499891E+03</pdfrwt>
<pdfrwt beam="2">  1       -4 0.12802493E-01 0.12499891E+03</pdfrwt>
<totfact> 0.19700958E+03</totfact>
</mgrwt>
</event>
<event>
 5    1  0.1423270E-002  0.1249989E+03  0.7818608E-02  0.1235071E+00
         -4   -1    0    0    0  501 -0.00000000000E+00  0.00000000000E+00  0.80826372137E+01  0.81818044665E+01  0.12700000000E+01 0.  1.
          4   -1    0    0  501    0  0.00000000000E+00 -0.00000000000E+00 -0.48023392713E+03  0.48023560641E+03  0.12700000000E+01 0.  1.
         25    2    1    2    0    0  0.00000000000E+00  0.00000000000E+00 -0.47215128992E+03  0.48841741088E+03  0.12499890672E+03 0.  0.
    9000005    1    3    3    0    0 -0.19979371179E+02  0.21015882996E+02 -0.45237405697E+03  0.45330357381E+03  0.10000000000E+01 0.  0.
    9000005    1    3    3    0    0  0.19979371179E+02 -0.21015882996E+02 -0.19777232953E+02  0.35113837074E+02  0.10000000000E+01 0.  0.
<mgrwt>
<rscale>  0 0.12499891E+03</rscale>
<asrwt>0</asrwt>
<pdfrwt beam="2">  1        4 0.12007099E+00 0.12499891E+03</pdfrwt>
<pdfrwt beam="1">  1       -4 0.20332667E-02 0.12499891E+03</pdfrwt>
<totfact> 0.89480315E+02</totfact>
</mgrwt>
</event>
<event>
 5    1  0.1423270E-002  0.1249998E+03  0.7818608E-02  0.1235070E+00
          4   -1    0    0  501    0  0.00000000000E+00  0.00000000000E+00  0.11919208602E+02  0.11986677341E+02  0.12700000000E+01 0. -1.
         -4   -1    0    0    0  501 -0.00000000000E+00 -0.00000000000E+00 -0.32673246280E+03  0.32673493101E+03  0.12700000000E+01 0. -1.
         25    2    1    2    0    0  0.00000000000E+00  0.00000000000E+00 -0.31481325419E+03  0.33872160835E+03  0.12499977180E+03 0.  0.
    9000005    1    3    3    0    0  0.52677609961E+02  0.29854515592E+02 -0.19929991875E+03  0.20829709625E+03  0.10000000000E+01 0.  0.
    9000005    1    3    3    0    0 -0.52677609961E+02 -0.29854515592E+02 -0.11551333544E+03  0.13042451210E+03  0.10000000000E+01 0.  0.
<mgrwt>
<rscale>  0 0.12499977E+03</rscale>
<asrwt>0</asrwt>
<pdfrwt beam="1">  1        4 0.29885453E-02 0.12499977E+03</pdfrwt>
<pdfrwt beam="2">  1       -4 0.81691828E-01 0.12499977E+03</pdfrwt>
<totfact> 0.11951310E+03</totfact>
</mgrwt>
</event>
<event>
 5    1  0.1423270E-002  0.1249986E+03  0.7818608E-02  0.1235072E+00
         -4   -1    0    0    0  501 -0.00000000000E+00  0.00000000000E+00  0.12941255857E+02  0.13003422748E+02  0.12700000000E+01 0. -1.
          4   -1    0    0  501    0  0.00000000000E+00 -0.00000000000E+00 -0.30105100136E+03  0.30105368013E+03  0.12700000000E+01 0. -1.
         25    2    1    2    0    0  0.00000000000E+00  0.00000000000E+00 -0.28810974550E+03  0.31405710288E+03  0.12499855365E+03 0.  0.
    9000005    1    3    3    0    0  0.53230621753E+02  0.30402003317E+02 -0.17455635896E+03  0.18501000879E+03  0.10000000000E+01 0.  0.
    9000005    1    3    3    0    0 -0.53230621753E+02 -0.30402003317E+02 -0.11355338654E+03  0.12904709409E+03  0.10000000000E+01 0.  0.
<mgrwt>
<rscale>  0 0.12499855E+03</rscale>
<asrwt>0</asrwt>
<pdfrwt beam="2">  1        4 0.75270833E-01 0.12499855E+03</pdfrwt>
<pdfrwt beam="1">  1       -4 0.32434207E-02 0.12499855E+03</pdfrwt>
<totfact> 0.12586447E+03</totfact>
</mgrwt>
</event>
<event>
 5    1  0.1423270E-002  0.1250023E+03  0.7818608E-02  0.1235066E+00
          4   -1    0    0  501    0  0.00000000000E+00  0.00000000000E+00  0.14988282001E+03  0.14988820045E+03  0.12700000000E+01 0. -1.
         -4   -1    0    0    0  501 -0.00000000000E+00 -0.00000000000E+00 -0.26041679968E+02  0.26072629242E+02  0.12700000000E+01 0. -1.
         25    2    1    2    0    0  0.00000000000E+00  0.00000000000E+00  0.12384114004E+03  0.17596082969E+03  0.12500234245E+03 0.  0.
    9000005    1    3    3    0    0 -0.12055358599E+02  0.17480927069E+02 -0.20814437711E+02  0.29751559612E+02  0.10000000000E+01 0.  0.
    9000005    1    3    3    0    0  0.12055358599E+02 -0.17480927069E+02  0.14465557775E+03  0.14620927008E+03  0.10000000000E+01 0.  0.
<mgrwt>
<rscale>  0 0.12500234E+03</rscale>
<asrwt>0</asrwt>
<pdfrwt beam="1">  1        4 0.37475245E-01 0.12500234E+03</pdfrwt>
<pdfrwt beam="2">  1       -4 0.65149614E-02 0.12500234E+03</pdfrwt>
<totfact> 0.17330550E+03</totfact>
</mgrwt>
</event>
<event>
 5    1  0.1423270E-002  0.1249978E+03  0.7818608E-02  0.1235073E+00
         -4   -1    0    0    0  501 -0.00000000000E+00  0.00000000000E+00  0.50605502852E+03  0.50605662212E+03  0.12700000000E+01 0.  1.
          4   -1    0    0  501    0  0.00000000000E+00 -0.00000000000E+00 -0.76648901635E+01  0.77693913030E+01  0.12700000000E+01 0.  1.
         25    2    1    2    0    0  0.00000000000E+00  0.00000000000E+00  0.49839013836E+03  0.51382601342E+03  0.12499776821E+03 0.  0.
    9000005    1    3    3    0    0  0.42183884489E+02  0.31861329102E+02  0.11221089550E+03  0.12404398201E+03  0.10000000000E+01 0.  0.
    9000005    1    3    3    0    0 -0.42183884489E+02 -0.31861329102E+02  0.38617924285E+03  0.38978203142E+03  0.10000000000E+01 0.  0.
<mgrwt>
<rscale>  0 0.12499777E+03</rscale>
<asrwt>0</asrwt>
<pdfrwt beam="2">  1        4 0.19294842E-02 0.12499777E+03</pdfrwt>
<pdfrwt beam="1">  1       -4 0.12652703E+00 0.12499777E+03</pdfrwt>
<totfact> 0.85453212E+02</totfact>
</mgrwt>
</event>
<event>
 5    1  0.1423270E-002  0.1250036E+03  0.7818608E-02  0.1235064E+00
          4   -1    0    0  501    0  0.00000000000E+00  0.00000000000E+00  0.17736684055E+03  0.17737138728E+03  0.12700000000E+01 0. -1.
         -4   -1    0    0    0  501 -0.00000000000E+00 -0.00000000000E+00 -0.22001687730E+02  0.22038311255E+02  0.12700000000E+01 0. -1.
         25    2    1    2    0    0  0.00000000000E+00  0.00000000000E+00  0.15536515282E+03  0.19940969853E+03  0.12500358859E+03 0.  0.
    9000005    1    3    3    0    0 -0.83663112786E+01 -0.55970006090E+02  0.35391253326E+02  0.66754607018E+02  0.10000000000E+01 0.  0.
    9000005    1    3    3    0    0  0.83663112786E+01  0.55970006090E+02  0.11997389949E+03  0.13265509152E+03  0.10000000000E+01 0.  0.
<mgrwt>
<rscale>  0 0.12500359E+03</rscale>
<asrwt>0</asrwt>
<pdfrwt beam="1">  1        4 0.44346857E-01 0.12500359E+03</pdfrwt>
<pdfrwt beam="2">  1       -4 0.55055682E-02 0.12500359E+03</pdfrwt>
<totfact> 0.16344348E+03</totfact>
</mgrwt>
</event>
<event>
 5    1  0.1423270E-002  0.1249921E+03  0.7818608E-02  0.1235082E+00
         -4   -1    0    0    0  501 -0.00000000000E+00  0.00000000000E+00  0.57169479816E+01  0.58563123401E+01  0.12700000000E+01 0. -1.
          4   -1    0    0  501    0  0.00000000000E+00 -0.00000000000E+00 -0.67482241525E+03  0.67482361030E+03  0.12700000000E+01 0. -1.
         25    2    1    2    0    0  0.00000000000E+00  0.00000000000E+00 -0.66910546727E+03  0.68067992264E+03  0.12499212280E+03 0.  0.
    9000005    1    3    3    0    0 -0.19109054332E+02  0.37146614062E+02 -0.81471404008E+02  0.91562091308E+02  0.10000000000E+01 0.  0.
    9000005    1    3    3    0    0  0.19109054332E+02 -0.37146614062E+02 -0.58763406326E+03  0.58911783134E+03  0.10000000000E+01 0.  0.
<mgrwt>
<rscale>  0 0.12499212E+03</rscale>
<asrwt>0</asrwt>
<pdfrwt beam="2">  1        4 0.16872291E+00 0.12499212E+03</pdfrwt>
<pdfrwt beam="1">  1       -4 0.14468092E-02 0.12499212E+03</pdfrwt>
<totfact> 0.64118492E+02</totfact>
</mgrwt>
</event>
<event>
 5    1  0.1423270E-002  0.1250003E+03  0.7818608E-02  0.1235069E+00
          4   -1    0    0  501    0  0.00000000000E+00  0.00000000000E+00  0.30629625513E+03  0.30629888802E+03  0.12700000000E+01 0.  1.
         -4   -1    0    0    0  501 -0.00000000000E+00 -0.00000000000E+00 -0.12718922697E+02  0.12782170965E+02  0.12700000000E+01 0.  1.
         25    2    1    2    0    0  0.00000000000E+00  0.00000000000E+00  0.29357733243E+03  0.31908105899E+03  0.12500028835E+03 0.  0.
    9000005    1    3    3    0    0 -0.38744013967E+02  0.26280679010E+02  0.41123590026E+02  0.62321122937E+02  0.10000000000E+01 0.  0.
    9000005    1    3    3    0    0  0.38744013967E+02 -0.26280679010E+02  0.25245374240E+03  0.25675993605E+03  0.10000000000E+01 0.  0.
<mgrwt>
<rscale>  0 0.12500029E+03</rscale>
<asrwt>0</asrwt>
<pdfrwt beam="1">  1        4 0.76582298E-01 0.12500029E+03</pdfrwt>
<pdfrwt beam="2">  1       -4 0.31879659E-02 0.12500029E+03</pdfrwt>
<totfact> 0.12452553E+03</totfact>
</mgrwt>
</event>
<event>
 5    1  0.1423270E-002  0.1250012E+03  0.7818608E-02  0.1235067E+00
         -4   -1    0    0    0  501 -0.00000000000E+00  0.00000000000E+00  0.49178646827E+03  0.49178810810E+03  0.12700000000E+01 0.  1.
          4   -1    0    0  501    0  0.00000000000E+00 -0.00000000000E+00 -0.78907094822E+01  0.79922585126E+01  0.12700000000E+01 0.  1.
         25    2    1    2    0    0  0.00000000000E+00  0.00000000000E+00  0.48389575879E+03  0.49978036662E+03  0.12500123793E+03 0.  0.
    9000005    1    3    3    0    0 -0.18199908191E+02  0.33708257089E+02  0.44538472669E+02  0.58755074690E+02  0.10000000000E+01 0.  0.
    9000005    1    3    3    0    0  0.18199908191E+02 -0.33708257089E+02  0.43935728612E+03  0.44102529193E+03  0.10000000000E+01 0.  0.
<mgrwt>
<rscale>  0 0.12500124E+03</rscale>
<asrwt>0</asrwt>
<pdfrwt beam="2">  1        4 0.19855760E-02 0.12500124E+03</pdfrwt>
<pdfrwt beam="1">  1       -4 0.12295951E+00 0.12500124E+03</pdfrwt>
<totfact> 0.87639450E+02</totfact>
</mgrwt>
</event>
<event>
 5    1  0.1423270E-002  0.1249942E+03  0.7818608E-02  0.1235078E+00
         -4   -1    0    0    0  501 -0.00000000000E+00  0.00000000000E+00  0.38948693990E+02  0.38969393934E+02  0.12700000000E+01 0. -1.
          4   -1    0    0  501    0  0.00000000000E+00 -0.00000000000E+00 -0.10023146743E+03  0.10023951299E+03  0.12700000000E+01 0. -1.
         25    2    1    2    0    0  0.00000000000E+00  0.00000000000E+00 -0.61282773441E+02  0.13920890692E+03  0.12499416564E+03 0.  0.
    9000005    1    3    3    0    0 -0.10547392753E+02  0.10904111153E+02 -0.98154865273E+02  0.99325347775E+02  0.10000000000E+01 0.  0.
    9000005    1    3    3    0    0  0.10547392753E+02 -0.10904111153E+02  0.36872091832E+02  0.39883559144E+02  0.10000000000E+01 0.  0.
<mgrwt>
<rscale>  0 0.12499417E+03</rscale>
<asrwt>0</asrwt>
<pdfrwt beam="2">  1        4 0.25061460E-01 0.12499417E+03</pdfrwt>
<pdfrwt beam="1">  1       -4 0.97407669E-02 0.12499417E+03</pdfrwt>
<totfact> 0.19083483E+03</totfact>
</mgrwt>
</event>
<event>
 5    1  0.1423270E-002  0.1250032E+03  0.7818608E-02  0.1235064E+00
          4   -1    0    0  501    0  0.00000000000E+00  0.00000000000E+00  0.64757636553E+02  0.64770088713E+02  0.12700000000E+01 0.  1.
         -4   -1    0    0    0  501 -0.00000000000E+00 -0.00000000000E+00 -0.60299207896E+02  0.60312580552E+02  0.12700000000E+01 0.  1.
         25    2    1    2    0    0  0.00000000000E+00  0.00000000000E+00  0.44584286567E+01  0.12508266927E+03  0.12500318622E+03 0.  0.
    9000005    1    3    3    0    0 -0.40730606324E+02 -0.16751208229E+02 -0.42137041420E+02  0.60959950200E+02  0.10000000000E+01 0.  0.
    9000005    1    3    3    0    0  0.40730606324E+02  0.16751208229E+02  0.46595470077E+02  0.64122719066E+02  0.10000000000E+01 0.  0.
<mgrwt>
<rscale>  0 0.12500319E+03</rscale>
<asrwt>0</asrwt>
<pdfrwt beam="1">  1        4 0.16192637E-01 0.12500319E+03</pdfrwt>
<pdfrwt beam="2">  1       -4 0.15078030E-01 0.12500319E+03</pdfrwt>
<totfact> 0.19829094E+03</totfact>
</mgrwt>
</event>
<event>
 5    1  0.1423270E-002  0.1249988E+03  0.7818608E-02  0.1235071E+00
         -4   -1    0    0    0  501 -0.00000000000E+00  0.00000000000E+00  0.17221974849E+02  0.17268738162E+02  0.12700000000E+01 0. -1.
          4   -1    0    0  501    0  0.00000000000E+00 -0.00000000000E+00 -0.22645749227E+03  0.22646105340E+03  0.12700000000E+01 0. -1.
         25    2    1    2    0    0  0.00000000000E+00  0.00000000000E+00 -0.20923551742E+03  0.24372979156E+03  0.12499883817E+03 0.  0.
    9000005    1    3    3    0    0  0.46288825347E+02 -0.74412729511E+01 -0.18518127571E+03  0.19102652374E+03  0.10000000000E+01 0.  0.
    9000005    1    3    3    0    0 -0.46288825347E+02  0.74412729511E+01 -0.24054241705E+02  0.52703267822E+02  0.10000000000E+01 0.  0.
<mgrwt>
<rscale>  0 0.12499884E+03</rscale>
<asrwt>0</asrwt>
<pdfrwt beam="2">  1        4 0.56620654E-01 0.12499884E+03</pdfrwt>
<pdfrwt beam="1">  1       -4 0.43117850E-02 0.12499884E+03</pdfrwt>
<totfact> 0.14709209E+03</totfact>
</mgrwt>
</event>
<event>
 5    1  0.1423270E-002  0.1249992E+03  0.7818608E-02  0.1235070E+00
          4   -1    0    0  501    0  0.00000000000E+00  0.00000000000E+00  0.71888474922E+03  0.71888587103E+03  0.12700000000E+01 0. -1.
         -4   -1    0    0    0  501 -0.00000000000E+00 -0.00000000000E+00 -0.53583467250E+01  0.55067939516E+01  0.12700000000E+01 0. -1.
         25    2    1    2    0    0  0.00000000000E+00  0.00000000000E+00  0.71352640250E+03  0.72439266498E+03  0.12499922406E+03 0.  0.
    9000005    1    3    3    0    0  0.39119067242E+02  0.39061593096E+01  0.75255820477E+02  0.84911707191E+02  0.10000000000E+01 0.  0.
    9000005    1    3    3    0    0 -0.39119067242E+02 -0.39061593096E+01  0.63827058202E+03  0.63948095779E+03  0.10000000000E+01 0.  0.
<mgrwt>
<rscale>  0 0.12499922E+03</rscale>
<asrwt>0</asrwt>
<pdfrwt beam="1">  1        4 0.17973987E+00 0.12499922E+03</pdfrwt>
<pdfrwt beam="2">  1       -4 0.13582829E-02 0.12499922E+03</pdfrwt>
<totfact> 0.59573542E+02</totfact>
</mgrwt>
</event>
<event>
 5    1  0.1423270E-002  0.1250015E+03  0.7818608E-02  0.1235067E+00
         -4   -1    0    0    0  501 -0.00000000000E+00  0.00000000000E+00  0.75954617989E+01  0.77009051376E+01  0.12700000000E+01 0.  1.
          4   -1    0    0  501    0  0.00000000000E+00 -0.00000000000E+00 -0.51064816477E+03  0.51064974403E+03  0.12700000000E+01 0.  1.
         25    2    1    2    0    0  0.00000000000E+00  0.00000000000E+00 -0.50305270297E+03  0.51835064917E+03  0.12500149412E+03 0.  0.
    9000005    1    3    3    0    0 -0.33082870241E+02  0.35693449429E+01 -0.32174076695E+02  0.46296735716E+02  0.10000000000E+01 0.  0.
    9000005    1    3    3    0    0  0.33082870241E+02 -0.35693449429E+01 -0.47087862627E+03  0.47205391345E+03  0.10000000000E+01 0.  0.
<mgrwt>
<rscale>  0 0.12500149E+03</rscale>
<asrwt>0</asrwt>
<pdfrwt beam="2">  1        4 0.12767530E+00 0.12500149E+03</pdfrwt>
<pdfrwt beam="1">  1       -4 0.19122450E-02 0.12500149E+03</pdfrwt>
<totfact> 0.84757304E+02</totfact>
</mgrwt>
</event>
<event>
 5    1  0.1423270E-002  0.1249953E+03  0.7818608E-02  0.1235077E+00
         -4   -1    0    0    0  501 -0.00000000000E+00  0.00000000000E+00  0.22871724033E+02  0.22906956591E+02  0.12700000000E+01 0.  1.
          4   -1    0    0  501    0  0.00000000000E+00 -0.00000000000E+00 -0.17060771133E+03  0.17061243819E+03  0.12700000000E+01 0.  1.
         25    2    1    2    0    0  0.00000000000E+00  0.00000000000E+00 -0.14773598729E+03  0.19351939478E+03  0.12499533677E+03 0.  0.
    9000005    1    3    3    0    0 -0.29288583053E+02 -0.45106874494E+02 -0.12313200527E+03  0.13436867918E+03  0.10000000000E+01 0.  0.
    9000005    1    3    3    0    0  0.29288583053E+02  0.45106874494E+02 -0.24603982024E+02  0.59150715595E+02  0.10000000000E+01 0.  0.
<mgrwt>
<rscale>  0 0.12499534E+03</rscale>
<asrwt>0</asrwt>
<pdfrwt beam="2">  1        4 0.42656919E-01 0.12499534E+03</pdfrwt>
<pdfrwt beam="1">  1       -4 0.57229264E-02 0.12499534E+03</pdfrwt>
<totfact> 0.16586656E+03</totfact>
</mgrwt>
</event>
<event>
 5    1  0.1423270E-002  0.1250024E+03  0.7818608E-02  0.1235066E+00
         -4   -1    0    0    0  501 -0.00000000000E+00  0.00000000000E+00  0.60528287190E+01  0.61846289704E+01  0.12700000000E+01 0.  1.
          4   -1    0    0  501    0  0.00000000000E+00 -0.00000000000E+00 -0.63830100520E+03  0.63830226863E+03  0.12700000000E+01 0.  1.
         25    2    1    2    0    0  0.00000000000E+00  0.00000000000E+00 -0.63224817648E+03  0.64448689760E+03  0.12500241804E+03 0.  0.
    9000005    1    3    3    0    0 -0.51890197969E+02 -0.34212427304E+02 -0.28258434036E+03  0.28934061630E+03  0.10000000000E+01 0.  0.
    9000005    1    3    3    0    0  0.51890197969E+02  0.34212427304E+02 -0.34966383612E+03  0.35514628130E+03  0.10000000000E+01 0.  0.
<mgrwt>
<rscale>  0 0.12500242E+03</rscale>
<asrwt>0</asrwt>
<pdfrwt beam="2">  1        4 0.15959166E+00 0.12500242E+03</pdfrwt>
<pdfrwt beam="1">  1       -4 0.15298423E-02 0.12500242E+03</pdfrwt>
<totfact> 0.68141674E+02</totfact>
</mgrwt>
</event>
<event>
 5    1  0.1423270E-002  0.1249955E+03  0.7818608E-02  0.1235076E+00
          4   -1    0    0  501    0  0.00000000000E+00  0.00000000000E+00  0.99109376838E+02  0.99117513474E+02  0.12700000000E+01 0. -1.
         -4   -1    0    0    0  501 -0.00000000000E+00 -0.00000000000E+00 -0.39390714194E+02  0.39411181976E+02  0.12700000000E+01 0. -1.
         25    2    1    2    0    0  0.00000000000E+00  0.00000000000E+00  0.59718662644E+02  0.13852869545E+03  0.12499552310E+03 0.  0.
    9000005    1    3    3    0    0 -0.52619534170E+02  0.30210070379E+02  0.13290558779E+02  0.62121676420E+02  0.10000000000E+01 0.  0.
    9000005    1    3    3    0    0  0.52619534170E+02 -0.30210070379E+02  0.46428103865E+02  0.76407019030E+02  0.10000000000E+01 0.  0.
<mgrwt>
<rscale>  0 0.12499552E+03</rscale>
<asrwt>0</asrwt>
<pdfrwt beam="1">  1        4 0.24780920E-01 0.12499552E+03</pdfrwt>
<pdfrwt beam="2">  1       -4 0.98512542E-02 0.12499552E+03</pdfrwt>
<totfact> 0.19117862E+03</totfact>
</mgrwt>
</event>
<event>
 5    1  0.1423270E-002  0.1249991E+03  0.7818608E-02  0.1235071E+00
          4   -1    0    0  501    0  0.00000000000E+00  0.00000000000E+00  0.22521132506E+03  0.22521490589E+03  0.12700000000E+01 0. -1.
         -4   -1    0    0    0  501 -0.00000000000E+00 -0.00000000000E+00 -0.17317602485E+02  0.17364108265E+02  0.12700000000E+01 0. -1.
         25    2    1    2    0    0  0.00000000000E+00  0.00000000000E+00  0.20789372258E+03  0.24257901416E+03  0.12499911289E+03 0.  0.
    9000005    1    3    3    0    0 -0.44899292168E+02 -0.30686336840E+02  0.16368588214E+03  0.17248671171E+03  0.10000000000E+01 0.  0.
    9000005    1    3    3    0    0  0.44899292168E+02  0.30686336840E+02  0.44207840439E+02  0.70092302446E+02  0.10000000000E+01 0.  0.
<mgrwt>
<rscale>  0 0.12499911E+03</rscale>
<asrwt>0</asrwt>
<pdfrwt beam="1">  1        4 0.56309091E-01 0.12499911E+03</pdfrwt>
<pdfrwt beam="2">  1       -4 0.43356615E-02 0.12499911E+03</pdfrwt>
<totfact> 0.14748314E+03</totfact>
</mgrwt>
</event>
<event>
 5    1  0.1423270E-002  0.1249967E+03  0.7818608E-02  0.1235074E+00
          4   -1    0    0  501    0  0.00000000000E+00  0.00000000000E+00  0.10859153667E+02  0.10933165981E+02  0.12700000000E+01 0. -1.
         -4   -1    0    0    0  501 -0.00000000000E+00 -0.00000000000E+00 -0.35840386990E+03  0.35840612001E+03  0.12700000000E+01 0. -1.
         25    2    1    2    0    0  0.00000000000E+00  0.00000000000E+00 -0.34754471624E+03  0.36933928599E+03  0.12499671353E+03 0.  0.
    9000005    1    3    3    0    0 -0.35680899126E+02 -0.51298203062E+02 -0.17187484179E+03  0.18288409838E+03  0.10000000000E+01 0.  0.
    9000005    1    3    3    0    0  0.35680899126E+02  0.51298203062E+02 -0.17566987445E+03  0.18645518761E+03  0.10000000000E+01 0.  0.
<mgrwt>
<rscale>  0 0.12499671E+03</rscale>
<asrwt>0</asrwt>
<pdfrwt beam="1">  1        4 0.27243224E-02 0.12499671E+03</pdfrwt>
<pdfrwt beam="2">  1       -4 0.89610461E-01 0.12499671E+03</pdfrwt>
<totfact> 0.11230130E+03</totfact>
</mgrwt>
</event>
<event>
 5    1  0.1423270E-002  0.1249969E+03  0.7818608E-02  0.1235074E+00
         -4   -1    0    0    0  501 -0.00000000000E+00  0.00000000000E+00  0.95684821611E+02  0.95693249432E+02  0.12700000000E+01 0.  1.
          4   -1    0    0  501    0  0.00000000000E+00 -0.00000000000E+00 -0.40802017459E+02  0.40821777628E+02  0.12700000000E+01 0.  1.
         25    2    1    2    0    0  0.00000000000E+00  0.00000000000E+00  0.54882804152E+02  0.13651502706E+03  0.12499692165E+03 0.  0.
    9000005    1    3    3    0    0  0.79549033151E+00 -0.95820045665E+01 -0.39994680318E+02  0.41146349414E+02  0.10000000000E+01 0.  0.
    9000005    1    3    3    0    0 -0.79549033151E+00  0.95820045665E+01  0.94877484470E+02  0.95368677645E+02  0.10000000000E+01 0.  0.
<mgrwt>
<rscale>  0 0.12499692E+03</rscale>
<asrwt>0</asrwt>
<pdfrwt beam="2">  1        4 0.10204028E-01 0.12499692E+03</pdfrwt>
<pdfrwt beam="1">  1       -4 0.23924729E-01 0.12499692E+03</pdfrwt>
<totfact> 0.19221454E+03</totfact>
</mgrwt>
</event>
<event>
 5    1  0.1423270E-002  0.1250006E+03  0.7818608E-02  0.1235068E+00
         -4   -1    0    0    0  501 -0.00000000000E+00  0.00000000000E+00  0.41338132908E+03  0.41338327994E+03  0.12700000000E+01 0.  1.
          4   -1    0    0  501    0  0.00000000000E+00 -0.00000000000E+00 -0.94049436690E+01  0.94903037579E+01  0.12700000000E+01 0.  1.
         25    2    1    2    0    0  0.00000000000E+00  0.00000000000E+00  0.40397638541E+03  0.42287358370E+03  0.12500059127E+03 0.  0.
    9000005    1    3    3    0    0  0.36343741597E+02 -0.37889787310E+02  0.87326706095E+02  0.10189924991E+03  0.10000000000E+01 0.  0.
    9000005    1    3    3    0    0 -0.36343741597E+02  0.37889787310E+02  0.31664967932E+03  0.32097433378E+03  0.10000000000E+01 0.  0.
<mgrwt>
<rscale>  0 0.12500059E+03</rscale>
<asrwt>0</asrwt>
<pdfrwt beam="2">  1        4 0.23621499E-02 0.12500059E+03</pdfrwt>
<pdfrwt beam="1">  1       -4 0.10335624E+00 0.12500059E+03</pdfrwt>
<totfact> 0.10109644E+03</totfact>
</mgrwt>
</event>
<event>
 5    1  0.1423270E-002  0.1250006E+03  0.7818608E-02  0.1235068E+00
         -4   -1    0    0    0  501 -0.00000000000E+00  0.00000000000E+00  0.31301291980E+02  0.31327045498E+02  0.12700000000E+01 0.  1.
          4   -1    0    0  501    0  0.00000000000E+00 -0.00000000000E+00 -0.12471614714E+03  0.12472261325E+03  0.12700000000E+01 0.  1.
         25    2    1    2    0    0  0.00000000000E+00  0.00000000000E+00 -0.93414855157E+02  0.15604965875E+03  0.12500064333E+03 0.  0.
    9000005    1    3    3    0    0 -0.56259057149E+02 -0.24531864125E+02 -0.61393743852E+02  0.86816390462E+02  0.10000000000E+01 0.  0.
    9000005    1    3    3    0    0  0.56259057149E+02  0.24531864125E+02 -0.32021111305E+02  0.69233268289E+02  0.10000000000E+01 0.  0.
<mgrwt>
<rscale>  0 0.12500064E+03</rscale>
<asrwt>0</asrwt>
<pdfrwt beam="2">  1        4 0.31183063E-01 0.12500064E+03</pdfrwt>
<pdfrwt beam="1">  1       -4 0.78293508E-02 0.12500064E+03</pdfrwt>
<totfact> 0.18244990E+03</totfact>
</mgrwt>
</event>
<event>
 5    1  0.1423270E-002  0.1249994E+03  0.7818608E-02  0.1235070E+00
         -4   -1    0    0    0  501 -0.00000000000E+00  0.00000000000E+00  0.49869173283E+02  0.49885341975E+02  0.12700000000E+01 0.  1.
          4   -1    0    0  501    0  0.00000000000E+00 -0.00000000000E+00 -0.78295123203E+02  0.78305422656E+02  0.12700000000E+01 0.  1.
         25    2    1    2    0    0  0.00000000000E+00  0.00000000000E+00 -0.28425949919E+02  0.12819076463E+03  0.12499935003E+03 0.  0.
    9000005    1    3    3    0    0 -0.18001250837E+02 -0.78716538793E+01 -0.75050430905E+02  0.77585921052E+02  0.10000000000E+01 0.  0.
    9000005    1    3    3    0    0  0.18001250837E+02  0.78716538793E+01  0.46624480985E+02  0.50604843579E+02  0.10000000000E+01 0.  0.
<mgrwt>
<rscale>  0 0.12499935E+03</rscale>
<asrwt>0</asrwt>
<pdfrwt beam="2">  1        4 0.19577089E-01 0.12499935E+03</pdfrwt>
<pdfrwt beam="1">  1       -4 0.12470602E-01 0.12499935E+03</pdfrwt>
<totfact> 0.19662459E+03</totfact>
</mgrwt>
</event>
<event>
 5    1  0.1423270E-002  0.1250001E+03  0.7818608E-02  0.1235069E+00
          4   -1    0    0  501    0  0.00000000000E+00  0.00000000000E+00  0.13106770853E+03  0.13107386131E+03  0.12700000000E+01 0. -1.
         -4   -1    0    0    0  501 -0.00000000000E+00 -0.00000000000E+00 -0.29782955883E+02  0.29810021152E+02  0.12700000000E+01 0. -1.
         25    2    1    2    0    0  0.00000000000E+00  0.00000000000E+00  0.10128475265E+03  0.16088388247E+03  0.12500009007E+03 0.  0.
    9000005    1    3    3    0    0  0.62006921079E+02  0.80826321486E+00  0.60590694013E+02  0.86704923459E+02  0.10000000000E+01 0.  0.
    9000005    1    3    3    0    0 -0.62006921079E+02 -0.80826321486E+00  0.40694058635E+02  0.74178959006E+02  0.10000000000E+01 0.  0.
<mgrwt>
<rscale>  0 0.12500009E+03</rscale>
<asrwt>0</asrwt>
<pdfrwt beam="1">  1        4 0.32771079E-01 0.12500009E+03</pdfrwt>
<pdfrwt beam="2">  1       -4 0.74498914E-02 0.12500009E+03</pdfrwt>
<totfact> 0.18016199E+03</totfact>
</mgrwt>
</event>
<event>
 5    1  0.1423270E-002  0.1249995E+03  0.7818608E-02  0.1235070E+00
         -4   -1    0    0    0  501 -0.00000000000E+00  0.00000000000E+00  0.43761011188E+02  0.43779435814E+02  0.12700000000E+01 0.  1.
          4   -1    0    0  501    0  0.00000000000E+00 -0.00000000000E+00 -0.89220821522E+02  0.89229859874E+02  0.12700000000E+01 0.  1.
         25    2    1    2    0    0  0.00000000000E+00  0.00000000000E+00 -0.45459810335E+02  0.13300929569E+03  0.12499951353E+03 0.  0.
    9000005    1    3    3    0    0  0.18075092188E+02 -0.34355315176E+02  0.29379779961E+02  0.48694641481E+02  0.10000000000E+01 0.  0.
    9000005    1    3    3    0    0 -0.18075092188E+02  0.34355315176E+02 -0.74839590295E+02  0.84314654207E+02  0.10000000000E+01 0.  0.
<mgrwt>
<rscale>  0 0.12499951E+03</rscale>
<asrwt>0</asrwt>
<pdfrwt beam="2">  1        4 0.22308638E-01 0.12499951E+03</pdfrwt>
<pdfrwt beam="1">  1       -4 0.10943686E-01 0.12499951E+03</pdfrwt>
<totfact> 0.19404143E+03</totfact>
</mgrwt>
</event>
<event>
 5    1  0.1423270E-002  0.1249997E+03  0.7818608E-02  0.1235070E+00
          4   -1    0    0  501    0  0.00000000000E+00  0.00000000000E+00  0.42005613406E+02  0.42024807645E+02  0.12700000000E+01 0.  1.
         -4   -1    0    0    0  501 -0.00000000000E+00 -0.00000000000E+00 -0.92948245869E+02  0.92956921797E+02  0.12700000000E+01 0.  1.
         25    2    1    2    0    0  0.00000000000E+00  0.00000000000E+00 -0.50942632463E+02  0.13498172944E+03  0.12499966192E+03 0.  0.
    9000005    1    3    3    0    0  0.21948445439E+02  0.53642621801E+02 -0.23952691789E+00  0.57968288779E+02  0.10000000000E+01 0.  0.
    9000005    1    3    3    0    0 -0.21948445439E+02 -0.53642621801E+02 -0.50703105545E+02  0.77013440663E+02  0.10000000000E+01 0.  0.
<mgrwt>
<rscale>  0 0.12499966E+03</rscale>
<asrwt>0</asrwt>
<pdfrwt beam="1">  1        4 0.10504887E-01 0.12499966E+03</pdfrwt>
<pdfrwt beam="2">  1       -4 0.23240545E-01 0.12499966E+03</pdfrwt>
<totfact> 0.19300246E+03</totfact>
</mgrwt>
</event>
<event>
 5    1  0.1423270E-002  0.1250018E+03  0.7818608E-02  0.1235066E+00
          4   -1    0    0  501    0  0.00000000000E+00  0.00000000000E+00  0.14445484281E+03  0.14446042542E+03  0.12700000000E+01 0. -1.
         -4   -1    0    0    0  501 -0.00000000000E+00 -0.00000000000E+00 -0.27021077998E+02  0.27050906753E+02  0.12700000000E+01 0. -1.
         25    2    1    2    0    0  0.00000000000E+00  0.00000000000E+00  0.11743376481E+03  0.17151133217E+03  0.12500179176E+03 0.  0.
    9000005    1    3    3    0    0  0.36394416166E+02 -0.30921507522E+01  0.12829112485E+03  0.13339313191E+03  0.10000000000E+01 0.  0.
    9000005    1    3    3    0    0 -0.36394416166E+02  0.30921507522E+01 -0.10857360037E+02  0.38118200264E+02  0.10000000000E+01 0.  0.
<mgrwt>
<rscale>  0 0.12500179E+03</rscale>
<asrwt>0</asrwt>
<pdfrwt beam="1">  1        4 0.36118137E-01 0.12500179E+03</pdfrwt>
<pdfrwt beam="2">  1       -4 0.67596960E-02 0.12500179E+03</pdfrwt>
<totfact> 0.17528365E+03</totfact>
</mgrwt>
</event>
<event>
 5    1  0.1423270E-002  0.1250030E+03  0.7818608E-02  0.1235065E+00
          4   -1    0    0  501    0  0.00000000000E+00  0.00000000000E+00  0.24890654811E+03  0.24890978806E+03  0.12700000000E+01 0. -1.
         -4   -1    0    0    0  501 -0.00000000000E+00 -0.00000000000E+00 -0.15665349271E+02  0.15716744822E+02  0.12700000000E+01 0. -1.
         25    2    1    2    0    0  0.00000000000E+00  0.00000000000E+00  0.23324119884E+03  0.26462653288E+03  0.12500298024E+03 0.  0.
    9000005    1    3    3    0    0 -0.39076649490E+02 -0.31435218741E+02  0.37686626467E+02  0.62741049777E+02  0.10000000000E+01 0.  0.
    9000005    1    3    3    0    0  0.39076649490E+02  0.31435218741E+02  0.19555457237E+03  0.20188548311E+03  0.10000000000E+01 0.  0.
<mgrwt>
<rscale>  0 0.12500298E+03</rscale>
<asrwt>0</asrwt>
<pdfrwt beam="1">  1        4 0.62233467E-01 0.12500298E+03</pdfrwt>
<pdfrwt beam="2">  1       -4 0.39231667E-02 0.12500298E+03</pdfrwt>
<totfact> 0.14022823E+03</totfact>
</mgrwt>
</event>
<event>
 5    1  0.1423270E-002  0.1250011E+03  0.7818608E-02  0.1235067E+00
          4   -1    0    0  501    0  0.00000000000E+00  0.00000000000E+00  0.69305765098E+01  0.70459769200E+01  0.12700000000E+01 0. -1.
         -4   -1    0    0    0  501 -0.00000000000E+00 -0.00000000000E+00 -0.55886600902E+03  0.55886745203E+03  0.12700000000E+01 0. -1.
         25    2    1    2    0    0  0.00000000000E+00  0.00000000000E+00 -0.55193543251E+03  0.56591342895E+03  0.12500114962E+03 0.  0.
    9000005    1    3    3    0    0 -0.16114776767E+02  0.59776438553E+02 -0.31449291674E+03  0.32053034695E+03  0.10000000000E+01 0.  0.
    9000005    1    3    3    0    0  0.16114776767E+02 -0.59776438553E+02 -0.23744251577E+03  0.24538308200E+03  0.10000000000E+01 0.  0.
<mgrwt>
<rscale>  0 0.12500115E+03</rscale>
<asrwt>0</asrwt>
<pdfrwt beam="1">  1        4 0.17472514E-02 0.12500115E+03</pdfrwt>
<pdfrwt beam="2">  1       -4 0.13973096E+00 0.12500115E+03</pdfrwt>
<totfact> 0.77964268E+02</totfact>
</mgrwt>
</event>
<event>
 5    1  0.1423270E-002  0.1250003E+03  0.7818608E-02  0.1235069E+00
          4   -1    0    0  501    0  0.00000000000E+00  0.00000000000E+00  0.65234559900E+01  0.66459294349E+01  0.12700000000E+01 0. -1.
         -4   -1    0    0    0  501 -0.00000000000E+00 -0.00000000000E+00 -0.59311141379E+03  0.59311277348E+03  0.12700000000E+01 0. -1.
         25    2    1    2    0    0  0.00000000000E+00  0.00000000000E+00 -0.58658795780E+03  0.59975870292E+03  0.12500027796E+03 0.  0.
    9000005    1    3    3    0    0 -0.23065467452E+02 -0.17360074359E+02 -0.55922417926E+03  0.55996970511E+03  0.10000000000E+01 0.  0.
    9000005    1    3    3    0    0  0.23065467452E+02  0.17360074359E+02 -0.27363778536E+02  0.39788997805E+02  0.10000000000E+01 0.  0.
<mgrwt>
<rscale>  0 0.12500028E+03</rscale>
<asrwt>0</asrwt>
<pdfrwt beam="1">  1        4 0.16463452E-02 0.12500028E+03</pdfrwt>
<pdfrwt beam="2">  1       -4 0.14829315E+00 0.12500028E+03</pdfrwt>
<totfact> 0.73532885E+02</totfact>
</mgrwt>
</event>
<event>
 5    1  0.1423270E-002  0.1250097E+03  0.7818608E-02  0.1235054E+00
         -4   -1    0    0    0  501 -0.00000000000E+00  0.00000000000E+00  0.83218065458E+01  0.84181568164E+01  0.12700000000E+01 0. -1.
          4   -1    0    0  501    0  0.00000000000E+00 -0.00000000000E+00 -0.46667274420E+03  0.46667447229E+03  0.12700000000E+01 0. -1.
         25    2    1    2    0    0  0.00000000000E+00  0.00000000000E+00 -0.45835093766E+03  0.47509262910E+03  0.12500969632E+03 0.  0.
    9000005    1    3    3    0    0 -0.33603023630E+02 -0.44449272399E+02 -0.12161847414E+03  0.13377949867E+03  0.10000000000E+01 0.  0.
    9000005    1    3    3    0    0  0.33603023630E+02  0.44449272399E+02 -0.33673246352E+03  0.34131313043E+03  0.10000000000E+01 0.  0.
<mgrwt>
<rscale>  0 0.12500970E+03</rscale>
<asrwt>0</asrwt>
<pdfrwt beam="2">  1        4 0.11668036E+00 0.12500970E+03</pdfrwt>
<pdfrwt beam="1">  1       -4 0.20927130E-02 0.12500970E+03</pdfrwt>
<totfact> 0.91659598E+02</totfact>
</mgrwt>
</event>
<event>
 5    1  0.1423270E-002  0.1250004E+03  0.7818608E-02  0.1235069E+00
         -4   -1    0    0    0  501 -0.00000000000E+00  0.00000000000E+00  0.40896886788E+02  0.40916601141E+02  0.12700000000E+01 0. -1.
          4   -1    0    0  501    0  0.00000000000E+00 -0.00000000000E+00 -0.95468291440E+02  0.95476738373E+02  0.12700000000E+01 0. -1.
         25    2    1    2    0    0  0.00000000000E+00  0.00000000000E+00 -0.54571404652E+02  0.13639333951E+03  0.12500041943E+03 0.  0.
    9000005    1    3    3    0    0  0.47246063010E+02  0.10478827893E+02  0.15856276978E+02  0.50935427981E+02  0.10000000000E+01 0.  0.
    9000005    1    3    3    0    0 -0.47246063010E+02 -0.10478827893E+02 -0.70427681630E+02  0.85457911534E+02  0.10000000000E+01 0.  0.
<mgrwt>
<rscale>  0 0.12500042E+03</rscale>
<asrwt>0</asrwt>
<pdfrwt beam="2">  1        4 0.23870593E-01 0.12500042E+03</pdfrwt>
<pdfrwt beam="1">  1       -4 0.10227742E-01 0.12500042E+03</pdfrwt>
<totfact> 0.19226214E+03</totfact>
</mgrwt>
</event>
<event>
 5    1  0.1423270E-002  0.1250270E+03  0.7818608E-02  0.1235027E+00
         -4   -1    0    0    0  501 -0.00000000000E+00  0.00000000000E+00  0.14027472878E+03  0.14028047774E+03  0.12700000000E+01 0. -1.
          4   -1    0    0  501    0  0.00000000000E+00 -0.00000000000E+00 -0.27838392554E+02  0.27867346482E+02  0.12700000000E+01 0. -1.
         25    2    1    2    0    0  0.00000000000E+00  0.00000000000E+00  0.11243633622E+03  0.16814782422E+03  0.12502704142E+03 0.  0.
    9000005    1    3    3    0    0  0.34813778313E+02  0.49343370851E+02  0.77911102196E+02  0.98579446401E+02  0.10000000000E+01 0.  0.
    9000005    1    3    3    0    0 -0.34813778313E+02 -0.49343370851E+02  0.34525234028E+02  0.69568377817E+02  0.10000000000E+01 0.  0.
<mgrwt>
<rscale>  0 0.12502704E+03</rscale>
<asrwt>0</asrwt>
<pdfrwt beam="2">  1        4 0.69639361E-02 0.12502704E+03</pdfrwt>
<pdfrwt beam="1">  1       -4 0.35073020E-01 0.12502704E+03</pdfrwt>
<totfact> 0.17669816E+03</totfact>
</mgrwt>
</event>
<event>
 5    1  0.1423270E-002  0.1250034E+03  0.7818608E-02  0.1235064E+00
         -4   -1    0    0    0  501 -0.00000000000E+00  0.00000000000E+00  0.29120823359E+03  0.29121100290E+03  0.12700000000E+01 0. -1.
          4   -1    0    0  501    0  0.00000000000E+00 -0.00000000000E+00 -0.13381770003E+02  0.13441899732E+02  0.12700000000E+01 0. -1.
         25    2    1    2    0    0  0.00000000000E+00  0.00000000000E+00  0.27782646359E+03  0.30465290263E+03  0.12500338881E+03 0.  0.
    9000005    1    3    3    0    0 -0.34979195905E+02  0.44767948526E+02  0.20236121143E+03  0.21018747168E+03  0.10000000000E+01 0.  0.
    9000005    1    3    3    0    0  0.34979195905E+02 -0.44767948526E+02  0.75465252160E+02  0.94465430952E+02  0.10000000000E+01 0.  0.
<mgrwt>
<rscale>  0 0.12500339E+03</rscale>
<asrwt>0</asrwt>
<pdfrwt beam="2">  1        4 0.33533048E-02 0.12500339E+03</pdfrwt>
<pdfrwt beam="1">  1       -4 0.72809924E-01 0.12500339E+03</pdfrwt>
<totfact> 0.12840648E+03</totfact>
</mgrwt>
</event>
<event>
 5    1  0.1423270E-002  0.1249962E+03  0.7818608E-02  0.1235075E+00
         -4   -1    0    0    0  501 -0.00000000000E+00  0.00000000000E+00  0.23075641521E+03  0.23075991000E+03  0.12700000000E+01 0. -1.
          4   -1    0    0  501    0  0.00000000000E+00 -0.00000000000E+00 -0.16899553376E+02  0.16947206386E+02  0.12700000000E+01 0. -1.
         25    2    1    2    0    0  0.00000000000E+00  0.00000000000E+00  0.21385686184E+03  0.24770711638E+03  0.12499623255E+03 0.  0.
    9000005    1    3    3    0    0 -0.16644466517E+02 -0.12395601333E+02 -0.98807025523E+01  0.23006900725E+02  0.10000000000E+01 0.  0.
    9000005    1    3    3    0    0  0.16644466517E+02  0.12395601333E+02  0.22373756439E+03  0.22470021566E+03  0.10000000000E+01 0.  0.
<mgrwt>
<rscale>  0 0.12499623E+03</rscale>
<asrwt>0</asrwt>
<pdfrwt beam="2">  1        4 0.42312819E-02 0.12499623E+03</pdfrwt>
<pdfrwt beam="1">  1       -4 0.57695497E-01 0.12499623E+03</pdfrwt>
<totfact> 0.14575836E+03</totfact>
</mgrwt>
</event>
<event>
 5    1  0.1423270E-002  0.1249995E+03  0.7818608E-02  0.1235070E+00
          4   -1    0    0  501    0  0.00000000000E+00  0.00000000000E+00  0.69427162177E+01  0.70579181407E+01  0.12700000000E+01 0. -1.
         -4   -1    0    0    0  501 -0.00000000000E+00 -0.00000000000E+00 -0.55789047513E+03  0.55789192066E+03  0.12700000000E+01 0. -1.
         25    2    1    2    0    0  0.00000000000E+00  0.00000000000E+00 -0.55094775891E+03  0.56494983880E+03  0.12499954925E+03 0.  0.
    9000005    1    3    3    0    0  0.34140012282E+02  0.42039399787E+02 -0.41640836509E+03  0.41991639417E+03  0.10000000000E+01 0.  0.
    9000005    1    3    3    0    0 -0.34140012282E+02 -0.42039399787E+02 -0.13453939382E+03  0.14503344463E+03  0.10000000000E+01 0.  0.
<mgrwt>
<rscale>  0 0.12499955E+03</rscale>
<asrwt>0</asrwt>
<pdfrwt beam="1">  1        4 0.17502619E-02 0.12499955E+03</pdfrwt>
<pdfrwt beam="2">  1       -4 0.13948705E+00 0.12499955E+03</pdfrwt>
<totfact> 0.78098532E+02</totfact>
</mgrwt>
</event>
<event>
 4    1  0.1423270E-002  0.1250738E+03  0.7818608E-02  0.1234954E+00
          4   -1    0    0  501    0  0.00000000000E+00  0.00000000000E+00  0.80892268419E+01  0.81883142893E+01  0.12700000000E+01 0. -1.
         -4   -1    0    0    0  501 -0.00000000000E+00 -0.00000000000E+00 -0.48042236953E+03  0.48042404816E+03  0.12700000000E+01 0. -1.
    9000005    1    1    2    0    0  0.29058453816E+01  0.27128455813E+02 -0.45596113562E+03  0.45677779526E+03  0.10000000000E+01 0.  0.
    9000005    1    1    2    0    0 -0.29058453816E+01 -0.27128455813E+02 -0.16372007076E+02  0.31834567185E+02  0.10000000000E+01 0.  0.
<mgrwt>
<rscale>  0 0.12507375E+03</rscale>
<asrwt>0</asrwt>
<pdfrwt beam="1">  1        4 0.20349041E-02 0.12507375E+03</pdfrwt>
<pdfrwt beam="2">  1       -4 0.12011809E+00 0.12507375E+03</pdfrwt>
<totfact> 0.89296602E+02</totfact>
</mgrwt>
</event>
<event>
 5    1  0.1423270E-002  0.1249967E+03  0.7818608E-02  0.1235074E+00
         -4   -1    0    0    0  501 -0.00000000000E+00  0.00000000000E+00  0.23468561751E+02  0.23502899623E+02  0.12700000000E+01 0. -1.
          4   -1    0    0  501    0  0.00000000000E+00 -0.00000000000E+00 -0.16627894258E+03  0.16628379249E+03  0.12700000000E+01 0. -1.
         25    2    1    2    0    0  0.00000000000E+00  0.00000000000E+00 -0.14281038083E+03  0.18978669212E+03  0.12499673448E+03 0.  0.
    9000005    1    3    3    0    0 -0.19434249013E+02 -0.44831455835E+02 -0.12258434471E+02  0.50386691523E+02  0.10000000000E+01 0.  0.
    9000005    1    3    3    0    0  0.19434249013E+02  0.44831455835E+02 -0.13055194636E+03  0.13940000059E+03  0.10000000000E+01 0.  0.
<mgrwt>
<rscale>  0 0.12499673E+03</rscale>
<asrwt>0</asrwt>
<pdfrwt beam="2">  1        4 0.41574631E-01 0.12499673E+03</pdfrwt>
<pdfrwt beam="1">  1       -4 0.58720394E-02 0.12499673E+03</pdfrwt>
<totfact> 0.16740601E+03</totfact>
</mgrwt>
</event>
<event>
 5    1  0.1423270E-002  0.1249988E+03  0.7818608E-02  0.1235071E+00
         -4   -1    0    0    0  501 -0.00000000000E+00  0.00000000000E+00  0.57466550044E+02  0.57480581713E+02  0.12700000000E+01 0.  1.
          4   -1    0    0  501    0  0.00000000000E+00 -0.00000000000E+00 -0.67944769887E+02  0.67956638050E+02  0.12700000000E+01 0.  1.
         25    2    1    2    0    0  0.00000000000E+00  0.00000000000E+00 -0.10478219843E+02  0.12543721976E+03  0.12499881204E+03 0.  0.
    9000005    1    3    3    0    0  0.47640899433E+02  0.34617183325E+02  0.15742859151E+02  0.60965910921E+02  0.10000000000E+01 0.  0.
    9000005    1    3    3    0    0 -0.47640899433E+02 -0.34617183325E+02 -0.26221078993E+02  0.64471308842E+02  0.10000000000E+01 0.  0.
<mgrwt>
<rscale>  0 0.12499881E+03</rscale>
<asrwt>0</asrwt>
<pdfrwt beam="2">  1        4 0.16989430E-01 0.12499881E+03</pdfrwt>
<pdfrwt beam="1">  1       -4 0.14369875E-01 0.12499881E+03</pdfrwt>
<totfact> 0.19811913E+03</totfact>
</mgrwt>
</event>
<event>
 5    1  0.1423270E-002  0.1249977E+03  0.7818608E-02  0.1235073E+00
          4   -1    0    0  501    0  0.00000000000E+00  0.00000000000E+00  0.93440515276E+03  0.93440601583E+03  0.12700000000E+01 0.  1.
         -4   -1    0    0    0  501 -0.00000000000E+00 -0.00000000000E+00 -0.40829677441E+01  0.42759239469E+01  0.12700000000E+01 0.  1.
         25    2    1    2    0    0  0.00000000000E+00  0.00000000000E+00  0.93032218502E+03  0.93868193977E+03  0.12499766444E+03 0.  0.
    9000005    1    3    3    0    0  0.59798693987E+02 -0.65678192289E+01  0.59217852536E+03  0.59522720532E+03  0.10000000000E+01 0.  0.
    9000005    1    3    3    0    0 -0.59798693987E+02  0.65678192289E+01  0.33814365966E+03  0.34345473446E+03  0.10000000000E+01 0.  0.
<mgrwt>
<rscale>  0 0.12499766E+03</rscale>
<asrwt>0</asrwt>
<pdfrwt beam="1">  1        4 0.23362553E+00 0.12499766E+03</pdfrwt>
<pdfrwt beam="2">  1       -4 0.10449693E-02 0.12499766E+03</pdfrwt>
<totfact> 0.41395853E+02</totfact>
</mgrwt>
</event>
<event>
 5    1  0.1423270E-002  0.1249920E+03  0.7818608E-02  0.1235082E+00
          4   -1    0    0  501    0  0.00000000000E+00  0.00000000000E+00  0.82071893486E+02  0.82081719039E+02  0.12700000000E+01 0. -1.
         -4   -1    0    0    0  501 -0.00000000000E+00 -0.00000000000E+00 -0.47568229694E+02  0.47585180216E+02  0.12700000000E+01 0. -1.
         25    2    1    2    0    0  0.00000000000E+00  0.00000000000E+00  0.34503663792E+02  0.12966689925E+03  0.12499200753E+03 0.  0.
    9000005    1    3    3    0    0  0.40576319186E+02  0.39102148254E+02 -0.10764440630E+02  0.57378470342E+02  0.10000000000E+01 0.  0.
    9000005    1    3    3    0    0 -0.40576319186E+02 -0.39102148254E+02  0.45268104422E+02  0.72288428913E+02  0.10000000000E+01 0.  0.
<mgrwt>
<rscale>  0 0.12499201E+03</rscale>
<asrwt>0</asrwt>
<pdfrwt beam="1">  1        4 0.20521320E-01 0.12499201E+03</pdfrwt>
<pdfrwt beam="2">  1       -4 0.11895405E-01 0.12499201E+03</pdfrwt>
<totfact> 0.19585960E+03</totfact>
</mgrwt>
</event>
<event>
 5    1  0.1423270E-002  0.1250011E+03  0.7818608E-02  0.1235068E+00
         -4   -1    0    0    0  501 -0.00000000000E+00  0.00000000000E+00  0.38615842989E+03  0.38616051827E+03  0.12700000000E+01 0. -1.
          4   -1    0    0  501    0  0.00000000000E+00 -0.00000000000E+00 -0.10073864828E+02  0.10153602936E+02  0.12700000000E+01 0. -1.
         25    2    1    2    0    0  0.00000000000E+00  0.00000000000E+00  0.37608456506E+03  0.39631412121E+03  0.12500113037E+03 0.  0.
    9000005    1    3    3    0    0  0.39869134591E+01 -0.41002838636E+02  0.33702780269E+03  0.33953772698E+03  0.10000000000E+01 0.  0.
    9000005    1    3    3    0    0 -0.39869134591E+01  0.41002838636E+02  0.39056762370E+02  0.56776394232E+02  0.10000000000E+01 0.  0.
<mgrwt>
<rscale>  0 0.12500113E+03</rscale>
<asrwt>0</asrwt>
<pdfrwt beam="2">  1        4 0.25286947E-02 0.12500113E+03</pdfrwt>
<pdfrwt beam="1">  1       -4 0.96549831E-01 0.12500113E+03</pdfrwt>
<totfact> 0.10645245E+03</totfact>
</mgrwt>
</event>
<event>
 5    1  0.1423270E-002  0.1250033E+03  0.7818608E-02  0.1235064E+00
         -4   -1    0    0    0  501 -0.00000000000E+00  0.00000000000E+00  0.73556279481E+01  0.74644599611E+01  0.12700000000E+01 0. -1.
          4   -1    0    0  501    0  0.00000000000E+00 -0.00000000000E+00 -0.52707462513E+03  0.52707615518E+03  0.12700000000E+01 0. -1.
         25    2    1    2    0    0  0.00000000000E+00  0.00000000000E+00 -0.51971899718E+03  0.53454061514E+03  0.12500333276E+03 0.  0.
    9000005    1    3    3    0    0 -0.32881552564E+02 -0.28468292480E+02 -0.45175696447E+03  0.45384688511E+03  0.10000000000E+01 0.  0.
    9000005    1    3    3    0    0  0.32881552564E+02  0.28468292480E+02 -0.67962032713E+02  0.80693730031E+02  0.10000000000E+01 0.  0.
<mgrwt>
<rscale>  0 0.12500333E+03</rscale>
<asrwt>0</asrwt>
<pdfrwt beam="2">  1        4 0.13178232E+00 0.12500333E+03</pdfrwt>
<pdfrwt beam="1">  1       -4 0.18527040E-02 0.12500333E+03</pdfrwt>
<totfact> 0.82356856E+02</totfact>
</mgrwt>
</event>
<event>
 5    1  0.1423270E-002  0.1250012E+03  0.7818608E-02  0.1235067E+00
          4   -1    0    0  501    0  0.00000000000E+00  0.00000000000E+00  0.74265876517E+03  0.74265985106E+03  0.12700000000E+01 0. -1.
         -4   -1    0    0    0  501 -0.00000000000E+00 -0.00000000000E+00 -0.51821501069E+01  0.53355018255E+01  0.12700000000E+01 0. -1.
         25    2    1    2    0    0  0.00000000000E+00  0.00000000000E+00  0.73747661506E+03  0.74799535289E+03  0.12500116072E+03 0.  0.
    9000005    1    3    3    0    0  0.15242981116E+02  0.40147700805E+02  0.97070487018E+02  0.10615020397E+03  0.10000000000E+01 0.  0.
    9000005    1    3    3    0    0 -0.15242981116E+02 -0.40147700805E+02  0.64040612804E+03  0.64184514892E+03  0.10000000000E+01 0.  0.
<mgrwt>
<rscale>  0 0.12500116E+03</rscale>
<asrwt>0</asrwt>
<pdfrwt beam="1">  1        4 0.18568404E+00 0.12500116E+03</pdfrwt>
<pdfrwt beam="2">  1       -4 0.13148419E-02 0.12500116E+03</pdfrwt>
<totfact> 0.57260552E+02</totfact>
</mgrwt>
</event>
<event>
 5    1  0.1423270E-002  0.1250002E+03  0.7818608E-02  0.1235069E+00
          4   -1    0    0  501    0  0.00000000000E+00  0.00000000000E+00  0.74725500365E+02  0.74736291751E+02  0.12700000000E+01 0. -1.
         -4   -1    0    0    0  501 -0.00000000000E+00 -0.00000000000E+00 -0.52252510845E+02  0.52267942274E+02  0.12700000000E+01 0. -1.
         25    2    1    2    0    0  0.00000000000E+00  0.00000000000E+00  0.22472989520E+02  0.12700423403E+03  0.12500016081E+03 0.  0.
    9000005    1    3    3    0    0  0.54710481957E+02 -0.18690915957E+02 -0.12864536038E+02  0.59237517358E+02  0.10000000000E+01 0.  0.
    9000005    1    3    3    0    0 -0.54710481957E+02  0.18690915957E+02  0.35337525557E+02  0.67766716667E+02  0.10000000000E+01 0.  0.
<mgrwt>
<rscale>  0 0.12500016E+03</rscale>
<asrwt>0</asrwt>
<pdfrwt beam="1">  1        4 0.18684653E-01 0.12500016E+03</pdfrwt>
<pdfrwt beam="2">  1       -4 0.13066406E-01 0.12500016E+03</pdfrwt>
<totfact> 0.19726675E+03</totfact>
</mgrwt>
</event>
<event>
 5    1  0.1423270E-002  0.1249953E+03  0.7818608E-02  0.1235077E+00
          4   -1    0    0  501    0  0.00000000000E+00  0.00000000000E+00  0.23625509394E+03  0.23625850739E+03  0.12700000000E+01 0. -1.
         -4   -1    0    0    0  501 -0.00000000000E+00 -0.00000000000E+00 -0.16504864723E+02  0.16553653963E+02  0.12700000000E+01 0. -1.
         25    2    1    2    0    0  0.00000000000E+00  0.00000000000E+00  0.21975022922E+03  0.25281216135E+03  0.12499530265E+03 0.  0.
    9000005    1    3    3    0    0  0.53824754306E+02 -0.21170943314E+02  0.15772269315E+03  0.16799631232E+03  0.10000000000E+01 0.  0.
    9000005    1    3    3    0    0 -0.53824754306E+02  0.21170943314E+02  0.62027536064E+02  0.84815849033E+02  0.10000000000E+01 0.  0.
<mgrwt>
<rscale>  0 0.12499530E+03</rscale>
<asrwt>0</asrwt>
<pdfrwt beam="1">  1        4 0.59070299E-01 0.12499530E+03</pdfrwt>
<pdfrwt beam="2">  1       -4 0.41327415E-02 0.12499530E+03</pdfrwt>
<totfact> 0.14406460E+03</totfact>
</mgrwt>
</event>
<event>
 5    1  0.1423270E-002  0.1249980E+03  0.7818608E-02  0.1235072E+00
         -4   -1    0    0    0  501 -0.00000000000E+00  0.00000000000E+00  0.13186827049E+02  0.13247841621E+02  0.12700000000E+01 0. -1.
          4   -1    0    0  501    0  0.00000000000E+00 -0.00000000000E+00 -0.29546819046E+03  0.29547091984E+03  0.12700000000E+01 0. -1.
         25    2    1    2    0    0  0.00000000000E+00  0.00000000000E+00 -0.28228136341E+03  0.30871876146E+03  0.12499802219E+03 0.  0.
    9000005    1    3    3    0    0 -0.55251236443E+02 -0.28192460453E+02 -0.15988708646E+03  0.17150042091E+03  0.10000000000E+01 0.  0.
    9000005    1    3    3    0    0  0.55251236443E+02  0.28192460453E+02 -0.12239427695E+03  0.13721834055E+03  0.10000000000E+01 0.  0.
<mgrwt>
<rscale>  0 0.12499802E+03</rscale>
<asrwt>0</asrwt>
<pdfrwt beam="2">  1        4 0.73874994E-01 0.12499802E+03</pdfrwt>
<pdfrwt beam="1">  1       -4 0.33046757E-02 0.12499802E+03</pdfrwt>
<totfact> 0.12730746E+03</totfact>
</mgrwt>
</event>
<event>
 5    1  0.1423270E-002  0.1250014E+03  0.7818608E-02  0.1235067E+00
          4   -1    0    0  501    0  0.00000000000E+00  0.00000000000E+00  0.33368749232E+02  0.33392908309E+02  0.12700000000E+01 0. -1.
         -4   -1    0    0    0  501 -0.00000000000E+00 -0.00000000000E+00 -0.11699577326E+03  0.11700266604E+03  0.12700000000E+01 0. -1.
         25    2    1    2    0    0  0.00000000000E+00  0.00000000000E+00 -0.83627024027E+02  0.15039557435E+03  0.12500139854E+03 0.  0.
    9000005    1    3    3    0    0  0.17390182636E+02  0.55694264298E+02 -0.68745503415E+02  0.90173243080E+02  0.10000000000E+01 0.  0.
    9000005    1    3    3    0    0 -0.17390182636E+02 -0.55694264298E+02 -0.14881520612E+02  0.60222331269E+02  0.10000000000E+01 0.  0.
<mgrwt>
<rscale>  0 0.12500140E+03</rscale>
<asrwt>0</asrwt>
<pdfrwt beam="1">  1        4 0.83460691E-02 0.12500140E+03</pdfrwt>
<pdfrwt beam="2">  1       -4 0.29252824E-01 0.12500140E+03</pdfrwt>
<totfact> 0.18518745E+03</totfact>
</mgrwt>
</event>
<event>
 5    1  0.1423270E-002  0.1249981E+03  0.7818608E-02  0.1235072E+00
          4   -1    0    0  501    0  0.00000000000E+00  0.00000000000E+00  0.81594862353E+02  0.81604745343E+02  0.12700000000E+01 0.  1.
         -4   -1    0    0    0  501 -0.00000000000E+00 -0.00000000000E+00 -0.47851041338E+02  0.47867891714E+02  0.12700000000E+01 0.  1.
         25    2    1    2    0    0  0.00000000000E+00  0.00000000000E+00  0.33743821015E+02  0.12947263706E+03  0.12499807314E+03 0.  0.
    9000005    1    3    3    0    0  0.33510569940E+02  0.38971092341E+02 -0.19945178636E+02  0.55140860410E+02  0.10000000000E+01 0.  0.
    9000005    1    3    3    0    0 -0.33510569940E+02 -0.38971092341E+02  0.53688999651E+02  0.74331776647E+02  0.10000000000E+01 0.  0.
<mgrwt>
<rscale>  0 0.12499807E+03</rscale>
<asrwt>0</asrwt>
<pdfrwt beam="1">  1        4 0.20402057E-01 0.12499807E+03</pdfrwt>
<pdfrwt beam="2">  1       -4 0.11966102E-01 0.12499807E+03</pdfrwt>
<totfact> 0.19593656E+03</totfact>
</mgrwt>
</event>
<event>
 5    1  0.1423270E-002  0.1250389E+03  0.7818608E-02  0.1235008E+00
          4   -1    0    0  501    0  0.00000000000E+00  0.00000000000E+00  0.88522236387E+02  0.88531346059E+02  0.12700000000E+01 0.  1.
         -4   -1    0    0    0  501 -0.00000000000E+00 -0.00000000000E+00 -0.44134301615E+02  0.44152570469E+02  0.12700000000E+01 0.  1.
         25    2    1    2    0    0  0.00000000000E+00  0.00000000000E+00  0.44387934772E+02  0.13268391653E+03  0.12503892575E+03 0.  0.
    9000005    1    3    3    0    0 -0.55571278352E+02  0.17506421940E+02 -0.18413176173E+01  0.58301219862E+02  0.10000000000E+01 0.  0.
    9000005    1    3    3    0    0  0.55571278352E+02 -0.17506421940E+02  0.46229252390E+02  0.74382696666E+02  0.10000000000E+01 0.  0.
<mgrwt>
<rscale>  0 0.12503893E+03</rscale>
<asrwt>0</asrwt>
<pdfrwt beam="1">  1        4 0.22133981E-01 0.12503893E+03</pdfrwt>
<pdfrwt beam="2">  1       -4 0.11036998E-01 0.12503893E+03</pdfrwt>
<totfact> 0.19403518E+03</totfact>
</mgrwt>
</event>
<event>
 5    1  0.1423270E-002  0.1250030E+03  0.7818608E-02  0.1235065E+00
          4   -1    0    0  501    0  0.00000000000E+00  0.00000000000E+00  0.18725813359E+02  0.18768830171E+02  0.12700000000E+01 0.  1.
         -4   -1    0    0    0  501 -0.00000000000E+00 -0.00000000000E+00 -0.20832804632E+03  0.20833191734E+03  0.12700000000E+01 0.  1.
         25    2    1    2    0    0  0.00000000000E+00  0.00000000000E+00 -0.18960223296E+03  0.22710074751E+03  0.12500297107E+03 0.  0.
    9000005    1    3    3    0    0 -0.15347499512E+01  0.34879107096E+02 -0.18896707339E+03  0.19216779750E+03  0.10000000000E+01 0.  0.
    9000005    1    3    3    0    0  0.15347499512E+01 -0.34879107096E+02 -0.63515957152E+00  0.34932950017E+02  0.10000000000E+01 0.  0.
<mgrwt>
<rscale>  0 0.12500297E+03</rscale>
<asrwt>0</asrwt>
<pdfrwt beam="1">  1        4 0.46873150E-02 0.12500297E+03</pdfrwt>
<pdfrwt beam="2">  1       -4 0.52087865E-01 0.12500297E+03</pdfrwt>
<totfact> 0.15290418E+03</totfact>
</mgrwt>
</event>
<event>
 5    1  0.1423270E-002  0.1250060E+03  0.7818608E-02  0.1235060E+00
         -4   -1    0    0    0  501 -0.00000000000E+00  0.00000000000E+00  0.34957906310E+01  0.37193349051E+01  0.12700000000E+01 0. -1.
          4   -1    0    0  501    0  0.00000000000E+00 -0.00000000000E+00 -0.10826742088E+04  0.10826749537E+04  0.12700000000E+01 0. -1.
         25    2    1    2    0    0  0.00000000000E+00  0.00000000000E+00 -0.10791784182E+04  0.10863942886E+04  0.12500596787E+03 0.  0.
    9000005    1    3    3    0    0 -0.61565623589E+02  0.65756233800E+01 -0.61336236141E+03  0.61648029265E+03  0.10000000000E+01 0.  0.
    9000005    1    3    3    0    0  0.61565623589E+02 -0.65756233800E+01 -0.46581605675E+03  0.46991399591E+03  0.10000000000E+01 0.  0.
<mgrwt>
<rscale>  0 0.12500597E+03</rscale>
<asrwt>0</asrwt>
<pdfrwt beam="2">  1        4 0.27069548E+00 0.12500597E+03</pdfrwt>
<pdfrwt beam="1">  1       -4 0.90198751E-03 0.12500597E+03</pdfrwt>
<totfact> 0.31594404E+02</totfact>
</mgrwt>
</event>
<event>
 5    1  0.1423270E-002  0.1250020E+03  0.7818608E-02  0.1235066E+00
         -4   -1    0    0    0  501 -0.00000000000E+00  0.00000000000E+00  0.14577476307E+03  0.14578029513E+03  0.12700000000E+01 0. -1.
          4   -1    0    0  501    0  0.00000000000E+00 -0.00000000000E+00 -0.26776261443E+02  0.26806362619E+02  0.12700000000E+01 0. -1.
         25    2    1    2    0    0  0.00000000000E+00  0.00000000000E+00  0.11899850163E+03  0.17258665775E+03  0.12500204416E+03 0.  0.
    9000005    1    3    3    0    0 -0.29959139356E+02  0.39952103042E+02  0.76246549903E+01  0.50525794721E+02  0.10000000000E+01 0.  0.
    9000005    1    3    3    0    0  0.29959139356E+02 -0.39952103042E+02  0.11137384664E+03  0.12206086303E+03  0.10000000000E+01 0.  0.
<mgrwt>
<rscale>  0 0.12500204E+03</rscale>
<asrwt>0</asrwt>
<pdfrwt beam="2">  1        4 0.66985195E-02 0.12500204E+03</pdfrwt>
<pdfrwt beam="1">  1       -4 0.36448145E-01 0.12500204E+03</pdfrwt>
<totfact> 0.17480176E+03</totfact>
</mgrwt>
</event>
<event>
 5    1  0.1423270E-002  0.1249984E+03  0.7818608E-02  0.1235072E+00
          4   -1    0    0  501    0  0.00000000000E+00  0.00000000000E+00  0.23704464922E+03  0.23704805130E+03  0.12700000000E+01 0. -1.
         -4   -1    0    0    0  501 -0.00000000000E+00 -0.00000000000E+00 -0.16450533443E+02  0.16499483343E+02  0.12700000000E+01 0. -1.
         25    2    1    2    0    0  0.00000000000E+00  0.00000000000E+00  0.22059411578E+03  0.25354753464E+03  0.12499835362E+03 0.  0.
    9000005    1    3    3    0    0 -0.32865011338E+02 -0.13533783775E+02  0.60386190153E+01  0.36065734335E+02  0.10000000000E+01 0.  0.
    9000005    1    3    3    0    0  0.32865011338E+02  0.13533783775E+02  0.21455549677E+03  0.21748180031E+03  0.10000000000E+01 0.  0.
<mgrwt>
<rscale>  0 0.12499835E+03</rscale>
<asrwt>0</asrwt>
<pdfrwt beam="1">  1        4 0.59267706E-01 0.12499835E+03</pdfrwt>
<pdfrwt beam="2">  1       -4 0.41191774E-02 0.12499835E+03</pdfrwt>
<totfact> 0.14381260E+03</totfact>
</mgrwt>
</event>
<event>
 5    1  0.1423270E-002  0.1249994E+03  0.7818608E-02  0.1235070E+00
          4   -1    0    0  501    0  0.00000000000E+00  0.00000000000E+00  0.83908770992E+01  0.84864432181E+01  0.12700000000E+01 0. -1.
         -4   -1    0    0    0  501 -0.00000000000E+00 -0.00000000000E+00 -0.46279817631E+03  0.46279991886E+03  0.12700000000E+01 0. -1.
         25    2    1    2    0    0  0.00000000000E+00  0.00000000000E+00 -0.45440729922E+03  0.47128636208E+03  0.12499936601E+03 0.  0.
    9000005    1    3    3    0    0  0.57578390098E+02 -0.14013296718E+01 -0.13578038387E+03  0.14749422827E+03  0.10000000000E+01 0.  0.
    9000005    1    3    3    0    0 -0.57578390098E+02  0.14013296718E+01 -0.31862691535E+03  0.32379213381E+03  0.10000000000E+01 0.  0.
<mgrwt>
<rscale>  0 0.12499937E+03</rscale>
<asrwt>0</asrwt>
<pdfrwt beam="1">  1        4 0.21098844E-02 0.12499937E+03</pdfrwt>
<pdfrwt beam="2">  1       -4 0.11571162E+00 0.12499937E+03</pdfrwt>
<totfact> 0.92318297E+02</totfact>
</mgrwt>
</event>
<event>
 5    1  0.1423270E-002  0.1249561E+03  0.7818608E-02  0.1235138E+00
         -4   -1    0    0    0  501 -0.00000000000E+00  0.00000000000E+00  0.34897029604E+02  0.34920131374E+02  0.12700000000E+01 0.  1.
          4   -1    0    0  501    0  0.00000000000E+00 -0.00000000000E+00 -0.11179415477E+03  0.11180136824E+03  0.12700000000E+01 0.  1.
         25    2    1    2    0    0  0.00000000000E+00  0.00000000000E+00 -0.76897125168E+02  0.14672149962E+03  0.12495611466E+03 0.  0.
    9000005    1    3    3    0    0  0.37536990361E-01  0.19497948255E+02  0.31238418461E+02  0.36837619130E+02  0.10000000000E+01 0.  0.
    9000005    1    3    3    0    0 -0.37536990361E-01 -0.19497948255E+02 -0.10813554363E+03  0.10988388049E+03  0.10000000000E+01 0.  0.
<mgrwt>
<rscale>  0 0.12495611E+03</rscale>
<asrwt>0</asrwt>
<pdfrwt beam="2">  1        4 0.27952327E-01 0.12495611E+03</pdfrwt>
<pdfrwt beam="1">  1       -4 0.87280471E-02 0.12495611E+03</pdfrwt>
<totfact> 0.18720288E+03</totfact>
</mgrwt>
</event>
<event>
 5    1  0.1423270E-002  0.1250030E+03  0.7818608E-02  0.1235065E+00
         -4   -1    0    0    0  501 -0.00000000000E+00  0.00000000000E+00  0.31365580784E+02  0.31391281559E+02  0.12700000000E+01 0. -1.
          4   -1    0    0  501    0  0.00000000000E+00 -0.00000000000E+00 -0.12446534968E+03  0.12447182882E+03  0.12700000000E+01 0. -1.
         25    2    1    2    0    0  0.00000000000E+00  0.00000000000E+00 -0.93099768893E+02  0.15586311038E+03  0.12500296880E+03 0.  0.
    9000005    1    3    3    0    0  0.50743636888E+02 -0.34747250920E+02 -0.32713084174E+02  0.69666591758E+02  0.10000000000E+01 0.  0.
    9000005    1    3    3    0    0 -0.50743636888E+02  0.34747250920E+02 -0.60386684720E+02  0.86196518622E+02  0.10000000000E+01 0.  0.
<mgrwt>
<rscale>  0 0.12500297E+03</rscale>
<asrwt>0</asrwt>
<pdfrwt beam="2">  1        4 0.31120359E-01 0.12500297E+03</pdfrwt>
<pdfrwt beam="1">  1       -4 0.78454180E-02 0.12500297E+03</pdfrwt>
<totfact> 0.18252938E+03</totfact>
</mgrwt>
</event>
<event>
 5    1  0.1423270E-002  0.1250122E+03  0.7818608E-02  0.1235050E+00
         -4   -1    0    0    0  501 -0.00000000000E+00  0.00000000000E+00  0.45843850623E+03  0.45844026535E+03  0.12700000000E+01 0. -1.
          4   -1    0    0  501    0  0.00000000000E+00 -0.00000000000E+00 -0.84733357869E+01  0.85679822221E+01  0.12700000000E+01 0. -1.
         25    2    1    2    0    0  0.00000000000E+00  0.00000000000E+00  0.44996517044E+03  0.46700824757E+03  0.12501219416E+03 0.  0.
    9000005    1    3    3    0    0  0.42876542016E+02 -0.44412059129E+02  0.26142881418E+03  0.26862027797E+03  0.10000000000E+01 0.  0.
    9000005    1    3    3    0    0 -0.42876542016E+02  0.44412059129E+02  0.18853635626E+03  0.19838796961E+03  0.10000000000E+01 0.  0.
<mgrwt>
<rscale>  0 0.12501219E+03</rscale>
<asrwt>0</asrwt>
<pdfrwt beam="2">  1        4 0.21303846E-02 0.12501219E+03</pdfrwt>
<pdfrwt beam="1">  1       -4 0.11462168E+00 0.12501219E+03</pdfrwt>
<totfact> 0.93015844E+02</totfact>
</mgrwt>
</event>
<event>
 5    1  0.1423270E-002  0.1250005E+03  0.7818608E-02  0.1235068E+00
          4   -1    0    0  501    0  0.00000000000E+00  0.00000000000E+00  0.19284322123E+02  0.19326095822E+02  0.12700000000E+01 0.  1.
         -4   -1    0    0    0  501 -0.00000000000E+00 -0.00000000000E+00 -0.20229975918E+03  0.20230374555E+03  0.12700000000E+01 0.  1.
         25    2    1    2    0    0  0.00000000000E+00  0.00000000000E+00 -0.18301543705E+03  0.22162984137E+03  0.12500054554E+03 0.  0.
    9000005    1    3    3    0    0 -0.13446170091E+02  0.11301629281E+02 -0.19784166270E+03  0.19862237994E+03  0.10000000000E+01 0.  0.
    9000005    1    3    3    0    0  0.13446170091E+02 -0.11301629281E+02  0.14826225645E+02  0.23007461429E+02  0.10000000000E+01 0.  0.
<mgrwt>
<rscale>  0 0.12500055E+03</rscale>
<asrwt>0</asrwt>
<pdfrwt beam="1">  1        4 0.48268012E-02 0.12500055E+03</pdfrwt>
<pdfrwt beam="2">  1       -4 0.50580653E-01 0.12500055E+03</pdfrwt>
<totfact> 0.15490886E+03</totfact>
</mgrwt>
</event>
<event>
 5    1  0.1423270E-002  0.1250081E+03  0.7818608E-02  0.1235057E+00
         -4   -1    0    0    0  501 -0.00000000000E+00  0.00000000000E+00  0.28112491636E+03  0.28112778499E+03  0.12700000000E+01 0. -1.
          4   -1    0    0  501    0  0.00000000000E+00 -0.00000000000E+00 -0.13864909604E+02  0.13922952931E+02  0.12700000000E+01 0. -1.
         25    2    1    2    0    0  0.00000000000E+00  0.00000000000E+00  0.26726000675E+03  0.29505073793E+03  0.12500810670E+03 0.  0.
    9000005    1    3    3    0    0  0.59477543922E+02 -0.18809437940E+02  0.12467860681E+03  0.13941710147E+03  0.10000000000E+01 0.  0.
    9000005    1    3    3    0    0 -0.59477543922E+02  0.18809437940E+02  0.14258139995E+03  0.15563363646E+03  0.10000000000E+01 0.  0.
<mgrwt>
<rscale>  0 0.12500811E+03</rscale>
<asrwt>0</asrwt>
<pdfrwt beam="2">  1        4 0.34738415E-02 0.12500811E+03</pdfrwt>
<pdfrwt beam="1">  1       -4 0.70288841E-01 0.12500811E+03</pdfrwt>
<totfact> 0.13108475E+03</totfact>
</mgrwt>
</event>
<event>
 5    1  0.1423270E-002  0.1250019E+03  0.7818608E-02  0.1235066E+00
         -4   -1    0    0    0  501 -0.00000000000E+00  0.00000000000E+00  0.58216722005E+03  0.58216860530E+03  0.12700000000E+01 0. -1.
          4   -1    0    0  501    0  0.00000000000E+00 -0.00000000000E+00 -0.66485497035E+01  0.67687600903E+01  0.12700000000E+01 0. -1.
         25    2    1    2    0    0  0.00000000000E+00  0.00000000000E+00  0.57551867034E+03  0.58893736539E+03  0.12500192174E+03 0.  0.
    9000005    1    3    3    0    0  0.15024378506E+02  0.48966556072E+02  0.45644646828E+03  0.45931234903E+03  0.10000000000E+01 0.  0.
    9000005    1    3    3    0    0 -0.15024378506E+02 -0.48966556072E+02  0.11907220206E+03  0.12962501636E+03  0.10000000000E+01 0.  0.
<mgrwt>
<rscale>  0 0.12500192E+03</rscale>
<asrwt>0</asrwt>
<pdfrwt beam="2">  1        4 0.16773371E-02 0.12500192E+03</pdfrwt>
<pdfrwt beam="1">  1       -4 0.14555698E+00 0.12500192E+03</pdfrwt>
<totfact> 0.74909421E+02</totfact>
</mgrwt>
</event>
<event>
 5    1  0.1423270E-002  0.1249948E+03  0.7818608E-02  0.1235077E+00
          4   -1    0    0  501    0  0.00000000000E+00  0.00000000000E+00  0.26819631488E+03  0.26819932180E+03  0.12700000000E+01 0.  1.
         -4   -1    0    0    0  501 -0.00000000000E+00 -0.00000000000E+00 -0.14532903895E+02  0.14588289674E+02  0.12700000000E+01 0.  1.
         25    2    1    2    0    0  0.00000000000E+00  0.00000000000E+00  0.25366341098E+03  0.28278761147E+03  0.12499482842E+03 0.  0.
    9000005    1    3    3    0    0 -0.44122556429E+02 -0.22415769076E+02  0.40514310905E+02  0.63966210434E+02  0.10000000000E+01 0.  0.
    9000005    1    3    3    0    0  0.44122556429E+02  0.22415769076E+02  0.21314910008E+03  0.21882140104E+03  0.10000000000E+01 0.  0.
<mgrwt>
<rscale>  0 0.12499483E+03</rscale>
<asrwt>0</asrwt>
<pdfrwt beam="1">  1        4 0.67056378E-01 0.12499483E+03</pdfrwt>
<pdfrwt beam="2">  1       -4 0.36405250E-02 0.12499483E+03</pdfrwt>
<totfact> 0.13469154E+03</totfact>
</mgrwt>
</event>
<event>
 5    1  0.1423270E-002  0.1250061E+03  0.7818608E-02  0.1235060E+00
          4   -1    0    0  501    0  0.00000000000E+00  0.00000000000E+00  0.28892392462E+03  0.28892671583E+03  0.12700000000E+01 0.  1.
         -4   -1    0    0    0  501 -0.00000000000E+00 -0.00000000000E+00 -0.13488623161E+02  0.13548278664E+02  0.12700000000E+01 0.  1.
         25    2    1    2    0    0  0.00000000000E+00  0.00000000000E+00  0.27543530146E+03  0.30247499449E+03  0.12500606786E+03 0.  0.
    9000005    1    3    3    0    0 -0.42141294799E+02 -0.37389958057E+02  0.20317136200E+03  0.21083998678E+03  0.10000000000E+01 0.  0.
    9000005    1    3    3    0    0  0.42141294799E+02  0.37389958057E+02  0.72263939461E+02  0.91635007706E+02  0.10000000000E+01 0.  0.
<mgrwt>
<rscale>  0 0.12500607E+03</rscale>
<asrwt>0</asrwt>
<pdfrwt beam="1">  1        4 0.72238791E-01 0.12500607E+03</pdfrwt>
<pdfrwt beam="2">  1       -4 0.33799615E-02 0.12500607E+03</pdfrwt>
<totfact> 0.12900179E+03</totfact>
</mgrwt>
</event>
<event>
 5    1  0.1423270E-002  0.1249997E+03  0.7818608E-02  0.1235070E+00
         -4   -1    0    0    0  501 -0.00000000000E+00  0.00000000000E+00  0.11632727694E+02  0.11701848298E+02  0.12700000000E+01 0. -1.
          4   -1    0    0  501    0  0.00000000000E+00 -0.00000000000E+00 -0.33473160667E+03  0.33473401590E+03  0.12700000000E+01 0. -1.
         25    2    1    2    0    0  0.00000000000E+00  0.00000000000E+00 -0.32309887897E+03  0.34643586420E+03  0.12499968964E+03 0.  0.
    9000005    1    3    3    0    0 -0.23724096940E+02 -0.53135265821E+02 -0.22469093889E+03  0.23210602593E+03  0.10000000000E+01 0.  0.
    9000005    1    3    3    0    0  0.23724096940E+02  0.53135265821E+02 -0.98407940079E+02  0.11432983828E+03  0.10000000000E+01 0.  0.
<mgrwt>
<rscale>  0 0.12499969E+03</rscale>
<asrwt>0</asrwt>
<pdfrwt beam="2">  1        4 0.83691811E-01 0.12499969E+03</pdfrwt>
<pdfrwt beam="1">  1       -4 0.29171243E-02 0.12499969E+03</pdfrwt>
<totfact> 0.11762879E+03</totfact>
</mgrwt>
</event>
<event>
 5    1  0.1423270E-002  0.1249734E+03  0.7818608E-02  0.1235111E+00
         -4   -1    0    0    0  501 -0.00000000000E+00  0.00000000000E+00  0.11298951322E+02  0.11370101186E+02  0.12700000000E+01 0. -1.
          4   -1    0    0  501    0  0.00000000000E+00 -0.00000000000E+00 -0.34441358591E+03  0.34441592742E+03  0.12700000000E+01 0. -1.
         25    2    1    2    0    0  0.00000000000E+00  0.00000000000E+00 -0.33311463459E+03  0.35578602861E+03  0.12497335065E+03 0.  0.
    9000005    1    3    3    0    0  0.40371428012E+02 -0.12528874089E+02 -0.35576632704E+02  0.55258679682E+02  0.10000000000E+01 0.  0.
    9000005    1    3    3    0    0 -0.40371428012E+02  0.12528874089E+02 -0.29753800189E+03  0.30052734892E+03  0.10000000000E+01 0.  0.
<mgrwt>
<rscale>  0 0.12497335E+03</rscale>
<asrwt>0</asrwt>
<pdfrwt beam="2">  1        4 0.86112548E-01 0.12497335E+03</pdfrwt>
<pdfrwt beam="1">  1       -4 0.28339254E-02 0.12497335E+03</pdfrwt>
<totfact> 0.11547550E+03</totfact>
</mgrwt>
</event>
<event>
 5    1  0.1423270E-002  0.1250012E+03  0.7818608E-02  0.1235067E+00
          4   -1    0    0  501    0  0.00000000000E+00  0.00000000000E+00  0.69455733239E+01  0.70607286308E+01  0.12700000000E+01 0.  1.
         -4   -1    0    0    0  501 -0.00000000000E+00 -0.00000000000E+00 -0.55767960088E+03  0.55768104696E+03  0.12700000000E+01 0.  1.
         25    2    1    2    0    0  0.00000000000E+00  0.00000000000E+00 -0.55073402755E+03  0.56474177559E+03  0.12500121595E+03 0.  0.
    9000005    1    3    3    0    0 -0.28712322667E+02 -0.44886133688E+02 -0.12784814005E+03  0.13851104427E+03  0.10000000000E+01 0.  0.
    9000005    1    3    3    0    0  0.28712322667E+02  0.44886133688E+02 -0.42288588750E+03  0.42623073132E+03  0.10000000000E+01 0.  0.
<mgrwt>
<rscale>  0 0.12500122E+03</rscale>
<asrwt>0</asrwt>
<pdfrwt beam="1">  1        4 0.17509704E-02 0.12500122E+03</pdfrwt>
<pdfrwt beam="2">  1       -4 0.13943432E+00 0.12500122E+03</pdfrwt>
<totfact> 0.78124004E+02</totfact>
</mgrwt>
</event>
<event>
 5    1  0.1423270E-002  0.1249960E+03  0.7818608E-02  0.1235075E+00
          4   -1    0    0  501    0  0.00000000000E+00  0.00000000000E+00  0.12435299910E+02  0.12499983354E+02  0.12700000000E+01 0. -1.
         -4   -1    0    0    0  501 -0.00000000000E+00 -0.00000000000E+00 -0.31322515054E+03  0.31322772519E+03  0.12700000000E+01 0. -1.
         25    2    1    2    0    0  0.00000000000E+00  0.00000000000E+00 -0.30078985063E+03  0.32572770855E+03  0.12499602344E+03 0.  0.
    9000005    1    3    3    0    0  0.51712890343E+02  0.19837754263E+02 -0.22579712173E+03  0.23249322507E+03  0.10000000000E+01 0.  0.
    9000005    1    3    3    0    0 -0.51712890343E+02 -0.19837754263E+02 -0.74992728899E+02  0.93234483479E+02  0.10000000000E+01 0.  0.
<mgrwt>
<rscale>  0 0.12499602E+03</rscale>
<asrwt>0</asrwt>
<pdfrwt beam="1">  1        4 0.31172333E-02 0.12499602E+03</pdfrwt>
<pdfrwt beam="2">  1       -4 0.78314669E-01 0.12499602E+03</pdfrwt>
<totfact> 0.12280557E+03</totfact>
</mgrwt>
</event>
<event>
 5    1  0.1423270E-002  0.1249974E+03  0.7818608E-02  0.1235073E+00
          4   -1    0    0  501    0  0.00000000000E+00  0.00000000000E+00  0.93583879614E+02  0.93592496620E+02  0.12700000000E+01 0.  1.
         -4   -1    0    0    0  501 -0.00000000000E+00 -0.00000000000E+00 -0.41718682389E+02  0.41738008580E+02  0.12700000000E+01 0.  1.
         25    2    1    2    0    0  0.00000000000E+00  0.00000000000E+00  0.51865197225E+02  0.13533050520E+03  0.12499738779E+03 0.  0.
    9000005    1    3    3    0    0  0.24623209595E+02  0.92124055805E+01  0.87310497593E+02  0.91188233108E+02  0.10000000000E+01 0.  0.
    9000005    1    3    3    0    0 -0.24623209595E+02 -0.92124055805E+01 -0.35445300368E+02  0.44142272093E+02  0.10000000000E+01 0.  0.
<mgrwt>
<rscale>  0 0.12499739E+03</rscale>
<asrwt>0</asrwt>
<pdfrwt beam="1">  1        4 0.23399463E-01 0.12499739E+03</pdfrwt>
<pdfrwt beam="2">  1       -4 0.10433164E-01 0.12499739E+03</pdfrwt>
<totfact> 0.19283015E+03</totfact>
</mgrwt>
</event>
<event>
 5    1  0.1423270E-002  0.1249984E+03  0.7818608E-02  0.1235072E+00
          4   -1    0    0  501    0  0.00000000000E+00  0.00000000000E+00  0.62040368575E+02  0.62053366008E+02  0.12700000000E+01 0. -1.
         -4   -1    0    0    0  501 -0.00000000000E+00 -0.00000000000E+00 -0.62935387921E+02  0.62948200552E+02  0.12700000000E+01 0. -1.
         25    2    1    2    0    0  0.00000000000E+00  0.00000000000E+00 -0.89501934539E+00  0.12500156656E+03  0.12499836232E+03 0.  0.
    9000005    1    3    3    0    0 -0.91015223949E+01  0.48860303193E+02 -0.38329619936E+02  0.62772021653E+02  0.10000000000E+01 0.  0.
    9000005    1    3    3    0    0  0.91015223949E+01 -0.48860303193E+02  0.37434600591E+02  0.62229544907E+02  0.10000000000E+01 0.  0.
<mgrwt>
<rscale>  0 0.12499836E+03</rscale>
<asrwt>0</asrwt>
<pdfrwt beam="1">  1        4 0.15513318E-01 0.12499836E+03</pdfrwt>
<pdfrwt beam="2">  1       -4 0.15737073E-01 0.12499836E+03</pdfrwt>
<totfact> 0.19835730E+03</totfact>
</mgrwt>
</event>
<event>
 5    1  0.1423270E-002  0.1250153E+03  0.7818608E-02  0.1235045E+00
         -4   -1    0    0    0  501 -0.00000000000E+00  0.00000000000E+00  0.80466943256E+01  0.81462991334E+01  0.12700000000E+01 0. -1.
          4   -1    0    0  501    0  0.00000000000E+00 -0.00000000000E+00 -0.48247958121E+03  0.48248125268E+03  0.12700000000E+01 0. -1.
         25    2    1    2    0    0  0.00000000000E+00  0.00000000000E+00 -0.47443288688E+03  0.49062755181E+03  0.12501532081E+03 0.  0.
    9000005    1    3    3    0    0 -0.42845495447E+02 -0.42989868720E+02 -0.17869705801E+03  0.18872600201E+03  0.10000000000E+01 0.  0.
    9000005    1    3    3    0    0  0.42845495447E+02  0.42989868720E+02 -0.29573582887E+03  0.30190154980E+03  0.10000000000E+01 0.  0.
<mgrwt>
<rscale>  0 0.12501532E+03</rscale>
<asrwt>0</asrwt>
<pdfrwt beam="2">  1        4 0.12063246E+00 0.12501532E+03</pdfrwt>
<pdfrwt beam="1">  1       -4 0.20243347E-02 0.12501532E+03</pdfrwt>
<totfact> 0.89085622E+02</totfact>
</mgrwt>
</event>
<event>
 5    1  0.1423270E-002  0.1249976E+03  0.7818608E-02  0.1235073E+00
          4   -1    0    0  501    0  0.00000000000E+00  0.00000000000E+00  0.17664307866E+02  0.17709903229E+02  0.12700000000E+01 0. -1.
         -4   -1    0    0    0  501 -0.00000000000E+00 -0.00000000000E+00 -0.22079700497E+03  0.22080065739E+03  0.12700000000E+01 0. -1.
         25    2    1    2    0    0  0.00000000000E+00  0.00000000000E+00 -0.20313269710E+03  0.23851056062E+03  0.12499757955E+03 0.  0.
    9000005    1    3    3    0    0  0.11785876102E+02  0.40144595921E+02 -0.12995732232E+02  0.43822192019E+02  0.10000000000E+01 0.  0.
    9000005    1    3    3    0    0 -0.11785876102E+02 -0.40144595921E+02 -0.19013696487E+03  0.19468836860E+03  0.10000000000E+01 0.  0.
<mgrwt>
<rscale>  0 0.12499758E+03</rscale>
<asrwt>0</asrwt>
<pdfrwt beam="1">  1        4 0.44222336E-02 0.12499758E+03</pdfrwt>
<pdfrwt beam="2">  1       -4 0.55205399E-01 0.12499758E+03</pdfrwt>
<totfact> 0.14888735E+03</totfact>
</mgrwt>
</event>
<event>
 5    1  0.1423270E-002  0.1250582E+03  0.7818608E-02  0.1234978E+00
         -4   -1    0    0    0  501 -0.00000000000E+00  0.00000000000E+00  0.11596762317E+02  0.11666096015E+02  0.12700000000E+01 0.  1.
          4   -1    0    0  501    0  0.00000000000E+00 -0.00000000000E+00 -0.33607780454E+03  0.33608020413E+03  0.12700000000E+01 0.  1.
         25    2    1    2    0    0  0.00000000000E+00  0.00000000000E+00 -0.32448104222E+03  0.34774630014E+03  0.12505815647E+03 0.  0.
    9000005    1    3    3    0    0 -0.53828154028E+02  0.77769081255E+01 -0.76492136332E+02  0.93861586321E+02  0.10000000000E+01 0.  0.
    9000005    1    3    3    0    0  0.53828154028E+02 -0.77769081255E+01 -0.24798890589E+03  0.25388471382E+03  0.10000000000E+01 0.  0.
<mgrwt>
<rscale>  0 0.12505816E+03</rscale>
<asrwt>0</asrwt>
<pdfrwt beam="2">  1        4 0.84028386E-01 0.12505816E+03</pdfrwt>
<pdfrwt beam="1">  1       -4 0.29081584E-02 0.12505816E+03</pdfrwt>
<totfact> 0.11715697E+03</totfact>
</mgrwt>
</event>
<event>
 5    1  0.1423270E-002  0.1250017E+03  0.7818608E-02  0.1235067E+00
          4   -1    0    0  501    0  0.00000000000E+00  0.00000000000E+00  0.21047153608E+02  0.21085435139E+02  0.12700000000E+01 0. -1.
         -4   -1    0    0    0  501 -0.00000000000E+00 -0.00000000000E+00 -0.18539124034E+03  0.18539559028E+03  0.12700000000E+01 0. -1.
         25    2    1    2    0    0  0.00000000000E+00  0.00000000000E+00 -0.16434408674E+03  0.20648102542E+03  0.12500174005E+03 0.  0.
    9000005    1    3    3    0    0 -0.24036299339E+02 -0.33546095561E+02 -0.46545324912E+01  0.41542133865E+02  0.10000000000E+01 0.  0.
    9000005    1    3    3    0    0  0.24036299339E+02  0.33546095561E+02 -0.15968955424E+03  0.16493889156E+03  0.10000000000E+01 0.  0.
<mgrwt>
<rscale>  0 0.12500174E+03</rscale>
<asrwt>0</asrwt>
<pdfrwt beam="1">  1        4 0.52671179E-02 0.12500174E+03</pdfrwt>
<pdfrwt beam="2">  1       -4 0.46353134E-01 0.12500174E+03</pdfrwt>
<totfact> 0.16065134E+03</totfact>
</mgrwt>
</event>
<event>
 5    1  0.1423270E-002  0.1249907E+03  0.7818608E-02  0.1235084E+00
         -4   -1    0    0    0  501 -0.00000000000E+00  0.00000000000E+00  0.24611085118E+02  0.24643831088E+02  0.12700000000E+01 0. -1.
          4   -1    0    0  501    0  0.00000000000E+00 -0.00000000000E+00 -0.15855477130E+03  0.15855985748E+03  0.12700000000E+01 0. -1.
         25    2    1    2    0    0  0.00000000000E+00  0.00000000000E+00 -0.13394368618E+03  0.18320368856E+03  0.12499072139E+03 0.  0.
    9000005    1    3    3    0    0 -0.53232185645E+02  0.62877617784E+01 -0.11404620465E+03  0.12601880150E+03  0.10000000000E+01 0.  0.
    9000005    1    3    3    0    0  0.53232185645E+02 -0.62877617784E+01 -0.19897481531E+02  0.57184887060E+02  0.10000000000E+01 0.  0.
<mgrwt>
<rscale>  0 0.12499072E+03</rscale>
<asrwt>0</asrwt>
<pdfrwt beam="2">  1        4 0.39643419E-01 0.12499072E+03</pdfrwt>
<pdfrwt beam="1">  1       -4 0.61575007E-02 0.12499072E+03</pdfrwt>
<totfact> 0.17021079E+03</totfact>
</mgrwt>
</event>
<event>
 5    1  0.1423270E-002  0.1249987E+03  0.7818608E-02  0.1235071E+00
         -4   -1    0    0    0  501 -0.00000000000E+00  0.00000000000E+00  0.10694615486E+03  0.10695369531E+03  0.12700000000E+01 0. -1.
          4   -1    0    0  501    0  0.00000000000E+00 -0.00000000000E+00 -0.36504786545E+02  0.36526871488E+02  0.12700000000E+01 0. -1.
         25    2    1    2    0    0  0.00000000000E+00  0.00000000000E+00  0.70441368319E+02  0.14348056680E+03  0.12499874670E+03 0.  0.
    9000005    1    3    3    0    0 -0.58451743441E+02  0.21353640554E+02  0.28668105619E+02  0.68523313960E+02  0.10000000000E+01 0.  0.
    9000005    1    3    3    0    0  0.58451743441E+02 -0.21353640554E+02  0.41773262700E+02  0.74957252837E+02  0.10000000000E+01 0.  0.
<mgrwt>
<rscale>  0 0.12499875E+03</rscale>
<asrwt>0</asrwt>
<pdfrwt beam="2">  1        4 0.91298999E-02 0.12499875E+03</pdfrwt>
<pdfrwt beam="1">  1       -4 0.26740242E-01 0.12499875E+03</pdfrwt>
<totfact> 0.18864226E+03</totfact>
</mgrwt>
</event>
<event>
 5    1  0.1423270E-002  0.1250020E+03  0.7818608E-02  0.1235066E+00
          4   -1    0    0  501    0  0.00000000000E+00  0.00000000000E+00  0.14954326797E+03  0.14954866063E+03  0.12700000000E+01 0.  1.
         -4   -1    0    0    0  501 -0.00000000000E+00 -0.00000000000E+00 -0.26100736622E+02  0.26131615951E+02  0.12700000000E+01 0.  1.
         25    2    1    2    0    0  0.00000000000E+00  0.00000000000E+00  0.12344253135E+03  0.17568027658E+03  0.12500200412E+03 0.  0.
    9000005    1    3    3    0    0  0.12899995497E+02  0.61139976657E+02  0.63031120418E+02  0.88760513578E+02  0.10000000000E+01 0.  0.
    9000005    1    3    3    0    0 -0.12899995497E+02 -0.61139976657E+02  0.60411410933E+02  0.86919763002E+02  0.10000000000E+01 0.  0.
<mgrwt>
<rscale>  0 0.12500200E+03</rscale>
<asrwt>0</asrwt>
<pdfrwt beam="1">  1        4 0.37390350E-01 0.12500200E+03</pdfrwt>
<pdfrwt beam="2">  1       -4 0.65297183E-02 0.12500200E+03</pdfrwt>
<totfact> 0.17343038E+03</totfact>
</mgrwt>
</event>
<event>
 5    1  0.1423270E-002  0.1250146E+03  0.7818608E-02  0.1235046E+00
          4   -1    0    0  501    0  0.00000000000E+00  0.00000000000E+00  0.81796653154E+01  0.82776702442E+01  0.12700000000E+01 0.  1.
         -4   -1    0    0    0  501 -0.00000000000E+00 -0.00000000000E+00 -0.47472434692E+03  0.47472604570E+03  0.12700000000E+01 0.  1.
         25    2    1    2    0    0  0.00000000000E+00  0.00000000000E+00 -0.46654468161E+03  0.48300371594E+03  0.12501459785E+03 0.  0.
    9000005    1    3    3    0    0  0.68073532026E+01 -0.36145500087E+02 -0.38044024765E+02  0.52926222749E+02  0.10000000000E+01 0.  0.
    9000005    1    3    3    0    0 -0.68073532026E+01  0.36145500087E+02 -0.42850065684E+03  0.43007749319E+03  0.10000000000E+01 0.  0.
<mgrwt>
<rscale>  0 0.12501460E+03</rscale>
<asrwt>0</asrwt>
<pdfrwt beam="1">  1        4 0.20573809E-02 0.12501460E+03</pdfrwt>
<pdfrwt beam="2">  1       -4 0.11869346E+00 0.12501460E+03</pdfrwt>
<totfact> 0.90342742E+02</totfact>
</mgrwt>
</event>
<event>
 5    1  0.1423270E-002  0.1249982E+03  0.7818608E-02  0.1235072E+00
         -4   -1    0    0    0  501 -0.00000000000E+00  0.00000000000E+00  0.39559292077E+03  0.39559495935E+03  0.12700000000E+01 0.  1.
          4   -1    0    0  501    0  0.00000000000E+00 -0.00000000000E+00 -0.98312314200E+01  0.99129214278E+01  0.12700000000E+01 0.  1.
         25    2    1    2    0    0  0.00000000000E+00  0.00000000000E+00  0.38576168935E+03  0.40550788077E+03  0.12499824160E+03 0.  0.
    9000005    1    3    3    0    0  0.55350691896E+02  0.18818683205E+02  0.26449399602E+03  0.27087989195E+03  0.10000000000E+01 0.  0.
    9000005    1    3    3    0    0 -0.55350691896E+02 -0.18818683205E+02  0.12126769333E+03  0.13462798883E+03  0.10000000000E+01 0.  0.
<mgrwt>
<rscale>  0 0.12499824E+03</rscale>
<asrwt>0</asrwt>
<pdfrwt beam="2">  1        4 0.24682741E-02 0.12499824E+03</pdfrwt>
<pdfrwt beam="1">  1       -4 0.98908689E-01 0.12499824E+03</pdfrwt>
<totfact> 0.10457038E+03</totfact>
</mgrwt>
</event>
<event>
 5    1  0.1423270E-002  0.1249996E+03  0.7818608E-02  0.1235070E+00
         -4   -1    0    0    0  501 -0.00000000000E+00  0.00000000000E+00  0.27849432002E+03  0.27849721575E+03  0.12700000000E+01 0.  1.
          4   -1    0    0  501    0  0.00000000000E+00 -0.00000000000E+00 -0.13994502828E+02  0.14052010867E+02  0.12700000000E+01 0.  1.
         25    2    1    2    0    0  0.00000000000E+00  0.00000000000E+00  0.26449981719E+03  0.29254922662E+03  0.12499958681E+03 0.  0.
    9000005    1    3    3    0    0 -0.52932861920E+02 -0.32190711184E+02  0.11307940278E+03  0.12894216180E+03  0.10000000000E+01 0.  0.
    9000005    1    3    3    0    0  0.52932861920E+02  0.32190711184E+02  0.15142041441E+03  0.16360706482E+03  0.10000000000E+01 0.  0.
<mgrwt>
<rscale>  0 0.12499959E+03</rscale>
<asrwt>0</asrwt>
<pdfrwt beam="2">  1        4 0.35061763E-02 0.12499959E+03</pdfrwt>
<pdfrwt beam="1">  1       -4 0.69631128E-01 0.12499959E+03</pdfrwt>
<totfact> 0.13182602E+03</totfact>
</mgrwt>
</event>
<event>
 5    1  0.1423270E-002  0.1249923E+03  0.7818608E-02  0.1235081E+00
          4   -1    0    0  501    0  0.00000000000E+00  0.00000000000E+00  0.17546452523E+03  0.17546912125E+03  0.12700000000E+01 0.  1.
         -4   -1    0    0    0  501 -0.00000000000E+00 -0.00000000000E+00 -0.22236591160E+02  0.22272828433E+02  0.12700000000E+01 0.  1.
         25    2    1    2    0    0  0.00000000000E+00  0.00000000000E+00  0.15322793407E+03  0.19774194969E+03  0.12499231531E+03 0.  0.
    9000005    1    3    3    0    0  0.61721055576E+02  0.41255210734E+01  0.62618465616E+02  0.88026023775E+02  0.10000000000E+01 0.  0.
    9000005    1    3    3    0    0 -0.61721055576E+02 -0.41255210734E+01  0.90609468452E+02  0.10971592591E+03  0.10000000000E+01 0.  0.
<mgrwt>
<rscale>  0 0.12499232E+03</rscale>
<asrwt>0</asrwt>
<pdfrwt beam="1">  1        4 0.43871234E-01 0.12499232E+03</pdfrwt>
<pdfrwt beam="2">  1       -4 0.55642521E-02 0.12499232E+03</pdfrwt>
<totfact> 0.16415775E+03</totfact>
</mgrwt>
</event>
<event>
 5    1  0.1423270E-002  0.1249939E+03  0.7818608E-02  0.1235079E+00
         -4   -1    0    0    0  501 -0.00000000000E+00  0.00000000000E+00  0.29542730105E+03  0.29543003082E+03  0.12700000000E+01 0.  1.
          4   -1    0    0  501    0  0.00000000000E+00 -0.00000000000E+00 -0.13187797139E+02  0.13248807244E+02  0.12700000000E+01 0.  1.
         25    2    1    2    0    0  0.00000000000E+00  0.00000000000E+00  0.28223950391E+03  0.30867883806E+03  0.12499394984E+03 0.  0.
    9000005    1    3    3    0    0  0.50375555146E+02 -0.14946655680E+01  0.23235756167E+03  0.23776241723E+03  0.10000000000E+01 0.  0.
    9000005    1    3    3    0    0 -0.50375555146E+02  0.14946655680E+01  0.49881942248E+02  0.70916420834E+02  0.10000000000E+01 0.  0.
<mgrwt>
<rscale>  0 0.12499395E+03</rscale>
<asrwt>0</asrwt>
<pdfrwt beam="2">  1        4 0.33049167E-02 0.12499395E+03</pdfrwt>
<pdfrwt beam="1">  1       -4 0.73864795E-01 0.12499395E+03</pdfrwt>
<totfact> 0.12733018E+03</totfact>
</mgrwt>
</event>
<event>
 5    1  0.1423270E-002  0.1250028E+03  0.7818608E-02  0.1235065E+00
         -4   -1    0    0    0  501 -0.00000000000E+00  0.00000000000E+00  0.38908563808E+02  0.38929285090E+02  0.12700000000E+01 0. -1.
          4   -1    0    0  501    0  0.00000000000E+00 -0.00000000000E+00 -0.10034873764E+03  0.10035677379E+03  0.12700000000E+01 0. -1.
         25    2    1    2    0    0  0.00000000000E+00  0.00000000000E+00 -0.61440173828E+02  0.13928605888E+03  0.12500284492E+03 0.  0.
    9000005    1    3    3    0    0 -0.12906195811E+02  0.48000206401E+02 -0.72927545573E+02  0.88261070740E+02  0.10000000000E+01 0.  0.
    9000005    1    3    3    0    0  0.12906195811E+02 -0.48000206401E+02  0.11487371746E+02  0.51024988137E+02  0.10000000000E+01 0.  0.
<mgrwt>
<rscale>  0 0.12500284E+03</rscale>
<asrwt>0</asrwt>
<pdfrwt beam="2">  1        4 0.25090779E-01 0.12500284E+03</pdfrwt>
<pdfrwt beam="1">  1       -4 0.97307358E-02 0.12500284E+03</pdfrwt>
<totfact> 0.19075660E+03</totfact>
</mgrwt>
</event>
<event>
 5    1  0.1423270E-002  0.1250075E+03  0.7818608E-02  0.1235058E+00
         -4   -1    0    0    0  501 -0.00000000000E+00  0.00000000000E+00  0.50280708739E+01  0.51859807860E+01  0.12700000000E+01 0. -1.
          4   -1    0    0  501    0  0.00000000000E+00 -0.00000000000E+00 -0.76481051584E+03  0.76481157028E+03  0.12700000000E+01 0. -1.
         25    2    1    2    0    0  0.00000000000E+00  0.00000000000E+00 -0.75978244496E+03  0.76999755107E+03  0.12500745967E+03 0.  0.
    9000005    1    3    3    0    0 -0.62487038499E+02  0.72991649821E+00 -0.38447376367E+03  0.38952052283E+03  0.10000000000E+01 0.  0.
    9000005    1    3    3    0    0  0.62487038499E+02 -0.72991649821E+00 -0.37530868129E+03  0.38047702823E+03  0.10000000000E+01 0.  0.
<mgrwt>
<rscale>  0 0.12500746E+03</rscale>
<asrwt>0</asrwt>
<pdfrwt beam="2">  1        4 0.19122211E+00 0.12500746E+03</pdfrwt>
<pdfrwt beam="1">  1       -4 0.12768909E-02 0.12500746E+03</pdfrwt>
<totfact> 0.55183801E+02</totfact>
</mgrwt>
</event>
<event>
 5    1  0.1423270E-002  0.1250001E+03  0.7818608E-02  0.1235069E+00
          4   -1    0    0  501    0  0.00000000000E+00  0.00000000000E+00  0.58779696336E+03  0.58779833535E+03  0.12700000000E+01 0.  1.
         -4   -1    0    0    0  501 -0.00000000000E+00 -0.00000000000E+00 -0.65835153531E+01  0.67048918265E+01  0.12700000000E+01 0.  1.
         25    2    1    2    0    0  0.00000000000E+00  0.00000000000E+00  0.58121344801E+03  0.59450322717E+03  0.12500005990E+03 0.  0.
    9000005    1    3    3    0    0  0.20972801740E+02 -0.54387218312E+01  0.11828452378E+02  0.24705270564E+02  0.10000000000E+01 0.  0.
    9000005    1    3    3    0    0 -0.20972801740E+02  0.54387218312E+01  0.56938499563E+03  0.56979795661E+03  0.10000000000E+01 0.  0.
<mgrwt>
<rscale>  0 0.12500006E+03</rscale>
<asrwt>0</asrwt>
<pdfrwt beam="1">  1        4 0.14696458E+00 0.12500006E+03</pdfrwt>
<pdfrwt beam="2">  1       -4 0.16612225E-02 0.12500006E+03</pdfrwt>
<totfact> 0.74198777E+02</totfact>
</mgrwt>
</event>
<event>
 5    1  0.1423270E-002  0.1249989E+03  0.7818608E-02  0.1235071E+00
          4   -1    0    0  501    0  0.00000000000E+00  0.00000000000E+00  0.61038700694E+01  0.62345913919E+01  0.12700000000E+01 0.  1.
         -4   -1    0    0    0  501 -0.00000000000E+00 -0.00000000000E+00 -0.63304054266E+03  0.63304181659E+03  0.12700000000E+01 0.  1.
         25    2    1    2    0    0  0.00000000000E+00  0.00000000000E+00 -0.62693667259E+03  0.63927640798E+03  0.12499893745E+03 0.  0.
    9000005    1    3    3    0    0 -0.42861914075E+02  0.43753624780E+02 -0.25007215522E+03  0.25746573787E+03  0.10000000000E+01 0.  0.
    9000005    1    3    3    0    0  0.42861914075E+02 -0.43753624780E+02 -0.37686451737E+03  0.38181067012E+03  0.10000000000E+01 0.  0.
<mgrwt>
<rscale>  0 0.12499894E+03</rscale>
<asrwt>0</asrwt>
<pdfrwt beam="1">  1        4 0.15424691E-02 0.12499894E+03</pdfrwt>
<pdfrwt beam="2">  1       -4 0.15827641E+00 0.12499894E+03</pdfrwt>
<totfact> 0.68753218E+02</totfact>
</mgrwt>
</event>
<event>
 5    1  0.1423270E-002  0.1250009E+03  0.7818608E-02  0.1235068E+00
         -4   -1    0    0    0  501 -0.00000000000E+00  0.00000000000E+00  0.23285415469E+02  0.23320023018E+02  0.12700000000E+01 0. -1.
          4   -1    0    0  501    0  0.00000000000E+00 -0.00000000000E+00 -0.16759592557E+03  0.16760073737E+03  0.12700000000E+01 0. -1.
         25    2    1    2    0    0  0.00000000000E+00  0.00000000000E+00 -0.14431051010E+03  0.19092076039E+03  0.12500085369E+03 0.  0.
    9000005    1    3    3    0    0 -0.55153692722E+02  0.24200513357E+02 -0.46702493457E+02  0.76221503283E+02  0.10000000000E+01 0.  0.
    9000005    1    3    3    0    0  0.55153692722E+02 -0.24200513357E+02 -0.97608016644E+02  0.11469925711E+03  0.10000000000E+01 0.  0.
<mgrwt>
<rscale>  0 0.12500085E+03</rscale>
<asrwt>0</asrwt>
<pdfrwt beam="2">  1        4 0.41903905E-01 0.12500085E+03</pdfrwt>
<pdfrwt beam="1">  1       -4 0.58262818E-02 0.12500085E+03</pdfrwt>
<totfact> 0.16691832E+03</totfact>
</mgrwt>
</event>
<event>
 5    1  0.1423270E-002  0.1249988E+03  0.7818608E-02  0.1235071E+00
         -4   -1    0    0    0  501 -0.00000000000E+00  0.00000000000E+00  0.12631048772E+03  0.12631687222E+03  0.12700000000E+01 0. -1.
          4   -1    0    0  501    0  0.00000000000E+00 -0.00000000000E+00 -0.30904971202E+02  0.30931054703E+02  0.12700000000E+01 0. -1.
         25    2    1    2    0    0  0.00000000000E+00  0.00000000000E+00  0.95405516514E+02  0.15724792692E+03  0.12499879175E+03 0.  0.
    9000005    1    3    3    0    0 -0.57298832802E+02  0.22523653328E+02  0.61175843017E+02  0.86798358098E+02  0.10000000000E+01 0.  0.
    9000005    1    3    3    0    0  0.57298832802E+02 -0.22523653328E+02  0.34229673497E+02  0.70449568824E+02  0.10000000000E+01 0.  0.
<mgrwt>
<rscale>  0 0.12499879E+03</rscale>
<asrwt>0</asrwt>
<pdfrwt beam="2">  1        4 0.77303014E-02 0.12499879E+03</pdfrwt>
<pdfrwt beam="1">  1       -4 0.31581680E-01 0.12499879E+03</pdfrwt>
<totfact> 0.18188556E+03</totfact>
</mgrwt>
</event>
<event>
 5    1  0.1423270E-002  0.1250008E+03  0.7818608E-02  0.1235068E+00
          4   -1    0    0  501    0  0.00000000000E+00  0.00000000000E+00  0.45947469186E+03  0.45947644701E+03  0.12700000000E+01 0. -1.
         -4   -1    0    0    0  501 -0.00000000000E+00 -0.00000000000E+00 -0.84524539934E+01  0.85473316603E+01  0.12700000000E+01 0. -1.
         25    2    1    2    0    0  0.00000000000E+00  0.00000000000E+00  0.45102223786E+03  0.46802377867E+03  0.12500079341E+03 0.  0.
    9000005    1    3    3    0    0 -0.19180306400E+02 -0.34482488068E+02  0.40695349730E+03  0.40886314960E+03  0.10000000000E+01 0.  0.
    9000005    1    3    3    0    0  0.19180306400E+02  0.34482488068E+02  0.44068740561E+02  0.59160629067E+02  0.10000000000E+01 0.  0.
<mgrwt>
<rscale>  0 0.12500079E+03</rscale>
<asrwt>0</asrwt>
<pdfrwt beam="1">  1        4 0.11488075E+00 0.12500079E+03</pdfrwt>
<pdfrwt beam="2">  1       -4 0.21251926E-02 0.12500079E+03</pdfrwt>
<totfact> 0.92867077E+02</totfact>
</mgrwt>
</event>
<event>
 5    1  0.1423270E-002  0.1249896E+03  0.7818608E-02  0.1235086E+00
         -4   -1    0    0    0  501 -0.00000000000E+00  0.00000000000E+00  0.26385560607E+02  0.26416106991E+02  0.12700000000E+01 0.  1.
          4   -1    0    0  501    0  0.00000000000E+00 -0.00000000000E+00 -0.14790141199E+03  0.14790686450E+03  0.12700000000E+01 0.  1.
         25    2    1    2    0    0  0.00000000000E+00  0.00000000000E+00 -0.12151585138E+03  0.17432297149E+03  0.12498958458E+03 0.  0.
    9000005    1    3    3    0    0  0.14719369496E+02 -0.36868079739E+02  0.65453292039E+01  0.40246198285E+02  0.10000000000E+01 0.  0.
    9000005    1    3    3    0    0 -0.14719369496E+02  0.36868079739E+02 -0.12806118058E+03  0.13407677321E+03  0.10000000000E+01 0.  0.
<mgrwt>
<rscale>  0 0.12498958E+03</rscale>
<asrwt>0</asrwt>
<pdfrwt beam="2">  1        4 0.36979851E-01 0.12498958E+03</pdfrwt>
<pdfrwt beam="1">  1       -4 0.66008904E-02 0.12498958E+03</pdfrwt>
<totfact> 0.17408014E+03</totfact>
</mgrwt>
</event>
<event>
 5    1  0.1423270E-002  0.1250018E+03  0.7818608E-02  0.1235066E+00
         -4   -1    0    0    0  501 -0.00000000000E+00  0.00000000000E+00  0.13445299879E+03  0.13445899667E+03  0.12700000000E+01 0.  1.
          4   -1    0    0  501    0  0.00000000000E+00 -0.00000000000E+00 -0.29033217722E+02  0.29060981251E+02  0.12700000000E+01 0.  1.
         25    2    1    2    0    0  0.00000000000E+00  0.00000000000E+00  0.10541978107E+03  0.16351997792E+03  0.12500181173E+03 0.  0.
    9000005    1    3    3    0    0  0.25928051067E+02 -0.49339499952E+02  0.15739849837E+02  0.57925753862E+02  0.10000000000E+01 0.  0.
    9000005    1    3    3    0    0 -0.25928051067E+02  0.49339499952E+02  0.89679931233E+02  0.10559422405E+03  0.10000000000E+01 0.  0.
<mgrwt>
<rscale>  0 0.12500181E+03</rscale>
<asrwt>0</asrwt>
<pdfrwt beam="2">  1        4 0.72625246E-02 0.12500181E+03</pdfrwt>
<pdfrwt beam="1">  1       -4 0.33617470E-01 0.12500181E+03</pdfrwt>
<totfact> 0.17892593E+03</totfact>
</mgrwt>
</event>
<event>
 5    1  0.1423270E-002  0.1250313E+03  0.7818608E-02  0.1235020E+00
         -4   -1    0    0    0  501 -0.00000000000E+00  0.00000000000E+00  0.62333909506E+02  0.62346845745E+02  0.12700000000E+01 0. -1.
          4   -1    0    0  501    0  0.00000000000E+00 -0.00000000000E+00 -0.62672004989E+02  0.62684871455E+02  0.12700000000E+01 0. -1.
         25    2    1    2    0    0  0.00000000000E+00  0.00000000000E+00 -0.33809548335E+00  0.12503171720E+03  0.12503126008E+03 0.  0.
    9000005    1    3    3    0    0  0.14132430138E+01 -0.20837389715E+02 -0.59084540727E+02  0.62675170673E+02  0.10000000000E+01 0.  0.
    9000005    1    3    3    0    0 -0.14132430138E+01  0.20837389715E+02  0.58746445244E+02  0.62356546527E+02  0.10000000000E+01 0.  0.
<mgrwt>
<rscale>  0 0.12503126E+03</rscale>
<asrwt>0</asrwt>
<pdfrwt beam="2">  1        4 0.15671227E-01 0.12503126E+03</pdfrwt>
<pdfrwt beam="1">  1       -4 0.15586703E-01 0.12503126E+03</pdfrwt>
<totfact> 0.19818835E+03</totfact>
</mgrwt>
</event>
<event>
 5    1  0.1423270E-002  0.1249980E+03  0.7818608E-02  0.1235072E+00
          4   -1    0    0  501    0  0.00000000000E+00  0.00000000000E+00  0.28328685946E+03  0.28328970620E+03  0.12700000000E+01 0.  1.
         -4   -1    0    0    0  501 -0.00000000000E+00 -0.00000000000E+00 -0.13756420768E+02  0.13814919918E+02  0.12700000000E+01 0.  1.
         25    2    1    2    0    0  0.00000000000E+00  0.00000000000E+00  0.26953043869E+03  0.29710462612E+03  0.12499800592E+03 0.  0.
    9000005    1    3    3    0    0  0.18224243068E+02  0.55082210590E+02  0.18994519941E+03  0.19861105643E+03  0.10000000000E+01 0.  0.
    9000005    1    3    3    0    0 -0.18224243068E+02 -0.55082210590E+02  0.79585239277E+02  0.98493569687E+02  0.10000000000E+01 0.  0.
<mgrwt>
<rscale>  0 0.12499801E+03</rscale>
<asrwt>0</asrwt>
<pdfrwt beam="1">  1        4 0.70829382E-01 0.12499801E+03</pdfrwt>
<pdfrwt beam="2">  1       -4 0.34467735E-02 0.12499801E+03</pdfrwt>
<totfact> 0.13053190E+03</totfact>
</mgrwt>
</event>
<event>
 5    1  0.1423270E-002  0.1249990E+03  0.7818608E-02  0.1235071E+00
          4   -1    0    0  501    0  0.00000000000E+00  0.00000000000E+00  0.90064055804E+03  0.90064145345E+03  0.12700000000E+01 0.  1.
         -4   -1    0    0    0  501 -0.00000000000E+00 -0.00000000000E+00 -0.42432346937E+01  0.44292144524E+01  0.12700000000E+01 0.  1.
         25    2    1    2    0    0  0.00000000000E+00  0.00000000000E+00  0.89639732334E+03  0.90507066791E+03  0.12499901043E+03 0.  0.
    9000005    1    3    3    0    0  0.12033135155E+02 -0.61314201974E+02  0.45529464485E+03  0.45956331592E+03  0.10000000000E+01 0.  0.
    9000005    1    3    3    0    0 -0.12033135155E+02  0.61314201974E+02  0.44110267849E+03  0.44550735199E+03  0.10000000000E+01 0.  0.
<mgrwt>
<rscale>  0 0.12499901E+03</rscale>
<asrwt>0</asrwt>
<pdfrwt beam="1">  1        4 0.22518347E+00 0.12499901E+03</pdfrwt>
<pdfrwt beam="2">  1       -4 0.10841682E-02 0.12499901E+03</pdfrwt>
<totfact> 0.43890041E+02</totfact>
</mgrwt>
</event>
<event>
 5    1  0.1423270E-002  0.1250046E+03  0.7818608E-02  0.1235062E+00
          4   -1    0    0  501    0  0.00000000000E+00  0.00000000000E+00  0.11847119008E+02  0.11914995963E+02  0.12700000000E+01 0. -1.
         -4   -1    0    0    0  501 -0.00000000000E+00 -0.00000000000E+00 -0.32873495961E+03  0.32873741279E+03  0.12700000000E+01 0. -1.
         25    2    1    2    0    0  0.00000000000E+00  0.00000000000E+00 -0.31688784060E+03  0.34065240875E+03  0.12500464019E+03 0.  0.
    9000005    1    3    3    0    0 -0.28778525431E+01  0.60987850295E+02 -0.19477497769E+03  0.20412273723E+03  0.10000000000E+01 0.  0.
    9000005    1    3    3    0    0  0.28778525431E+01 -0.60987850295E+02 -0.12211286290E+03  0.13652967152E+03  0.10000000000E+01 0.  0.
<mgrwt>
<rscale>  0 0.12500464E+03</rscale>
<asrwt>0</asrwt>
<pdfrwt beam="1">  1        4 0.29705721E-02 0.12500464E+03</pdfrwt>
<pdfrwt beam="2">  1       -4 0.82192501E-01 0.12500464E+03</pdfrwt>
<totfact> 0.11902356E+03</totfact>
</mgrwt>
</event>
<event>
 5    1  0.1423270E-002  0.1249997E+03  0.7818608E-02  0.1235070E+00
         -4   -1    0    0    0  501 -0.00000000000E+00  0.00000000000E+00  0.46635397575E+02  0.46652687028E+02  0.12700000000E+01 0.  1.
          4   -1    0    0  501    0  0.00000000000E+00 -0.00000000000E+00 -0.83723411102E+02  0.83733042860E+02  0.12700000000E+01 0.  1.
         25    2    1    2    0    0  0.00000000000E+00  0.00000000000E+00 -0.37088013528E+02  0.13038572989E+03  0.12499967124E+03 0.  0.
    9000005    1    3    3    0    0 -0.53045702944E+02 -0.25043690323E+02  0.39295643392E+01  0.58800293381E+02  0.10000000000E+01 0.  0.
    9000005    1    3    3    0    0  0.53045702944E+02  0.25043690323E+02 -0.41017577867E+02  0.71585436507E+02  0.10000000000E+01 0.  0.
<mgrwt>
<rscale>  0 0.12499967E+03</rscale>
<asrwt>0</asrwt>
<pdfrwt beam="2">  1        4 0.20934218E-01 0.12499967E+03</pdfrwt>
<pdfrwt beam="1">  1       -4 0.11662215E-01 0.12499967E+03</pdfrwt>
<totfact> 0.19543819E+03</totfact>
</mgrwt>
</event>
<event>
 5    1  0.1423270E-002  0.1250008E+03  0.7818608E-02  0.1235068E+00
          4   -1    0    0  501    0  0.00000000000E+00  0.00000000000E+00  0.13114001440E+02  0.13175353269E+02  0.12700000000E+01 0. -1.
         -4   -1    0    0    0  501 -0.00000000000E+00 -0.00000000000E+00 -0.29711462114E+03  0.29711733540E+03  0.12700000000E+01 0. -1.
         25    2    1    2    0    0  0.00000000000E+00  0.00000000000E+00 -0.28400061970E+03  0.31029268866E+03  0.12500080260E+03 0.  0.
    9000005    1    3    3    0    0  0.59286811341E+01  0.13708380732E+02 -0.29263127813E+03  0.29301388005E+03  0.10000000000E+01 0.  0.
    9000005    1    3    3    0    0 -0.59286811341E+01 -0.13708380732E+02  0.86306584307E+01  0.17278808617E+02  0.10000000000E+01 0.  0.
<mgrwt>
<rscale>  0 0.12500080E+03</rscale>
<asrwt>0</asrwt>
<pdfrwt beam="1">  1        4 0.32865096E-02 0.12500080E+03</pdfrwt>
<pdfrwt beam="2">  1       -4 0.74286642E-01 0.12500080E+03</pdfrwt>
<totfact> 0.12687179E+03</totfact>
</mgrwt>
</event>
<event>
 5    1  0.1423270E-002  0.1250013E+03  0.7818608E-02  0.1235067E+00
         -4   -1    0    0    0  501 -0.00000000000E+00  0.00000000000E+00  0.29632169258E+03  0.29632441411E+03  0.12700000000E+01 0. -1.
          4   -1    0    0  501    0  0.00000000000E+00 -0.00000000000E+00 -0.13149361733E+02  0.13210549345E+02  0.12700000000E+01 0. -1.
         25    2    1    2    0    0  0.00000000000E+00  0.00000000000E+00  0.28317233085E+03  0.30953496345E+03  0.12500129855E+03 0.  0.
    9000005    1    3    3    0    0  0.39258330775E+02  0.32664429374E+02  0.52401490575E+02  0.73178533028E+02  0.10000000000E+01 0.  0.
    9000005    1    3    3    0    0 -0.39258330775E+02 -0.32664429374E+02  0.23077084027E+03  0.23635643042E+03  0.10000000000E+01 0.  0.
<mgrwt>
<rscale>  0 0.12500130E+03</rscale>
<asrwt>0</asrwt>
<pdfrwt beam="2">  1        4 0.32953290E-02 0.12500130E+03</pdfrwt>
<pdfrwt beam="1">  1       -4 0.74088413E-01 0.12500130E+03</pdfrwt>
<totfact> 0.12707589E+03</totfact>
</mgrwt>
</event>
<event>
 5    1  0.1423270E-002  0.1249976E+03  0.7818608E-02  0.1235073E+00
         -4   -1    0    0    0  501 -0.00000000000E+00  0.00000000000E+00  0.25606235550E+02  0.25637710488E+02  0.12700000000E+01 0. -1.
          4   -1    0    0  501    0  0.00000000000E+00 -0.00000000000E+00 -0.15241698378E+03  0.15242227476E+03  0.12700000000E+01 0. -1.
         25    2    1    2    0    0  0.00000000000E+00  0.00000000000E+00 -0.12681074823E+03  0.17805998525E+03  0.12499756990E+03 0.  0.
    9000005    1    3    3    0    0 -0.38252876389E+02  0.32015295775E+01 -0.13364913798E+03  0.13905619161E+03  0.10000000000E+01 0.  0.
    9000005    1    3    3    0    0  0.38252876389E+02 -0.32015295775E+01  0.68383897512E+01  0.39003793637E+02  0.10000000000E+01 0.  0.
<mgrwt>
<rscale>  0 0.12499757E+03</rscale>
<asrwt>0</asrwt>
<pdfrwt beam="2">  1        4 0.38108839E-01 0.12499757E+03</pdfrwt>
<pdfrwt beam="1">  1       -4 0.64061551E-02 0.12499757E+03</pdfrwt>
<totfact> 0.17240489E+03</totfact>
</mgrwt>
</event>
<event>
 5    1  0.1423270E-002  0.1250047E+03  0.7818608E-02  0.1235062E+00
         -4   -1    0    0    0  501 -0.00000000000E+00  0.00000000000E+00  0.36905440373E+03  0.36905658890E+03  0.12700000000E+01 0. -1.
          4   -1    0    0  501    0  0.00000000000E+00 -0.00000000000E+00 -0.10544965518E+02  0.10621167439E+02  0.12700000000E+01 0. -1.
         25    2    1    2    0    0  0.00000000000E+00  0.00000000000E+00  0.35850943821E+03  0.37967775634E+03  0.12500472541E+03 0.  0.
    9000005    1    3    3    0    0 -0.24766594721E+02 -0.17009888559E+02  0.34569319205E+03  0.34699784372E+03  0.10000000000E+01 0.  0.
    9000005    1    3    3    0    0  0.24766594721E+02  0.17009888559E+02  0.12816246166E+02  0.32679912617E+02  0.10000000000E+01 0.  0.
<mgrwt>
<rscale>  0 0.12500473E+03</rscale>
<asrwt>0</asrwt>
<pdfrwt beam="2">  1        4 0.26460398E-02 0.12500473E+03</pdfrwt>
<pdfrwt beam="1">  1       -4 0.92273399E-01 0.12500473E+03</pdfrwt>
<totfact> 0.10998954E+03</totfact>
</mgrwt>
</event>
<event>
 5    1  0.1423270E-002  0.1250016E+03  0.7818608E-02  0.1235067E+00
         -4   -1    0    0    0  501 -0.00000000000E+00  0.00000000000E+00  0.10343288390E+03  0.10344068045E+03  0.12700000000E+01 0.  1.
          4   -1    0    0  501    0  0.00000000000E+00 -0.00000000000E+00 -0.37747114639E+02  0.37768473143E+02  0.12700000000E+01 0.  1.
         25    2    1    2    0    0  0.00000000000E+00  0.00000000000E+00  0.65685769261E+02  0.14120915359E+03  0.12500161909E+03 0.  0.
    9000005    1    3    3    0    0  0.42073996589E+02 -0.20063492668E+02  0.79864186095E+02  0.92477311529E+02  0.10000000000E+01 0.  0.
    9000005    1    3    3    0    0 -0.42073996589E+02  0.20063492668E+02 -0.14178416834E+02  0.48731842064E+02  0.10000000000E+01 0.  0.
<mgrwt>
<rscale>  0 0.12500162E+03</rscale>
<asrwt>0</asrwt>
<pdfrwt beam="2">  1        4 0.94404231E-02 0.12500162E+03</pdfrwt>
<pdfrwt beam="1">  1       -4 0.25861865E-01 0.12500162E+03</pdfrwt>
<totfact> 0.18977938E+03</totfact>
</mgrwt>
</event>
<event>
 5    1  0.1423270E-002  0.1249999E+03  0.7818608E-02  0.1235069E+00
          4   -1    0    0  501    0  0.00000000000E+00  0.00000000000E+00  0.46184527362E+02  0.46201985538E+02  0.12700000000E+01 0.  1.
         -4   -1    0    0    0  501 -0.00000000000E+00 -0.00000000000E+00 -0.84540864110E+02  0.84550402746E+02  0.12700000000E+01 0.  1.
         25    2    1    2    0    0  0.00000000000E+00  0.00000000000E+00 -0.38356336748E+02  0.13075238828E+03  0.12499991389E+03 0.  0.
    9000005    1    3    3    0    0 -0.10273661832E+02 -0.57363353524E+02 -0.42780746738E+02  0.72300032825E+02  0.10000000000E+01 0.  0.
    9000005    1    3    3    0    0  0.10273661832E+02  0.57363353524E+02  0.44244099906E+01  0.58452355459E+02  0.10000000000E+01 0.  0.
<mgrwt>
<rscale>  0 0.12499991E+03</rscale>
<asrwt>0</asrwt>
<pdfrwt beam="1">  1        4 0.11549507E-01 0.12499991E+03</pdfrwt>
<pdfrwt beam="2">  1       -4 0.21138590E-01 0.12499991E+03</pdfrwt>
<totfact> 0.19524059E+03</totfact>
</mgrwt>
</event>
<event>
 5    1  0.1423270E-002  0.1250007E+03  0.7818608E-02  0.1235068E+00
         -4   -1    0    0    0  501 -0.00000000000E+00  0.00000000000E+00  0.24231674921E+03  0.24232007727E+03  0.12700000000E+01 0. -1.
          4   -1    0    0  501    0  0.00000000000E+00 -0.00000000000E+00 -0.16092144200E+02  0.16142180923E+02  0.12700000000E+01 0. -1.
         25    2    1    2    0    0  0.00000000000E+00  0.00000000000E+00  0.22622460501E+03  0.25846225819E+03  0.12500066799E+03 0.  0.
    9000005    1    3    3    0    0  0.58315851458E+02  0.22285595014E+02  0.10729865451E+03  0.12414260968E+03  0.10000000000E+01 0.  0.
    9000005    1    3    3    0    0 -0.58315851458E+02 -0.22285595014E+02  0.11892595049E+03  0.13431964851E+03  0.10000000000E+01 0.  0.
<mgrwt>
<rscale>  0 0.12500067E+03</rscale>
<asrwt>0</asrwt>
<pdfrwt beam="2">  1        4 0.40297066E-02 0.12500067E+03</pdfrwt>
<pdfrwt beam="1">  1       -4 0.60585859E-01 0.12500067E+03</pdfrwt>
<totfact> 0.14220445E+03</totfact>
</mgrwt>
</event>
<event>
 5    1  0.1423270E-002  0.1250000E+03  0.7818608E-02  0.1235069E+00
         -4   -1    0    0    0  501 -0.00000000000E+00  0.00000000000E+00  0.32618153163E+03  0.32618400402E+03  0.12700000000E+01 0. -1.
          4   -1    0    0  501    0  0.00000000000E+00 -0.00000000000E+00 -0.11939502431E+02  0.12006857137E+02  0.12700000000E+01 0. -1.
         25    2    1    2    0    0  0.00000000000E+00  0.00000000000E+00  0.31424202920E+03  0.33819086115E+03  0.12500002261E+03 0.  0.
    9000005    1    3    3    0    0 -0.44190678230E+02  0.43841618442E+02  0.17202546049E+03  0.18294442492E+03  0.10000000000E+01 0.  0.
    9000005    1    3    3    0    0  0.44190678230E+02 -0.43841618442E+02  0.14221656871E+03  0.15524643624E+03  0.10000000000E+01 0.  0.
<mgrwt>
<rscale>  0 0.12500002E+03</rscale>
<asrwt>0</asrwt>
<pdfrwt beam="2">  1        4 0.29936040E-02 0.12500002E+03</pdfrwt>
<pdfrwt beam="1">  1       -4 0.81554112E-01 0.12500002E+03</pdfrwt>
<totfact> 0.11964382E+03</totfact>
</mgrwt>
</event>
<event>
 5    1  0.1423270E-002  0.1250057E+03  0.7818608E-02  0.1235060E+00
          4   -1    0    0  501    0  0.00000000000E+00  0.00000000000E+00  0.17961906875E+02  0.18006748696E+02  0.12700000000E+01 0.  1.
         -4   -1    0    0    0  501 -0.00000000000E+00 -0.00000000000E+00 -0.21717601241E+03  0.21717972572E+03  0.12700000000E+01 0.  1.
         25    2    1    2    0    0  0.00000000000E+00  0.00000000000E+00 -0.19921410553E+03  0.23518647442E+03  0.12500567150E+03 0.  0.
    9000005    1    3    3    0    0  0.42450632646E+02 -0.43997747181E+02 -0.75239642912E+02  0.96952884612E+02  0.10000000000E+01 0.  0.
    9000005    1    3    3    0    0 -0.42450632646E+02  0.43997747181E+02 -0.12397446262E+03  0.13823358981E+03  0.10000000000E+01 0.  0.
<mgrwt>
<rscale>  0 0.12500567E+03</rscale>
<asrwt>0</asrwt>
<pdfrwt beam="1">  1        4 0.44965468E-02 0.12500567E+03</pdfrwt>
<pdfrwt beam="2">  1       -4 0.54300064E-01 0.12500567E+03</pdfrwt>
<totfact> 0.15001782E+03</totfact>
</mgrwt>
</event>
<event>
 5    1  0.1423270E-002  0.1250110E+03  0.7818608E-02  0.1235052E+00
         -4   -1    0    0    0  501 -0.00000000000E+00  0.00000000000E+00  0.12390563984E+03  0.12391214825E+03  0.12700000000E+01 0.  1.
          4   -1    0    0  501    0  0.00000000000E+00 -0.00000000000E+00 -0.31511443094E+02  0.31537025000E+02  0.12700000000E+01 0.  1.
         25    2    1    2    0    0  0.00000000000E+00  0.00000000000E+00  0.92394196742E+02  0.15544917325E+03  0.12501103100E+03 0.  0.
    9000005    1    3    3    0    0 -0.41899928441E+02  0.20339590393E+02 -0.56225599845E+01  0.46924579077E+02  0.10000000000E+01 0.  0.
    9000005    1    3    3    0    0  0.41899928441E+02 -0.20339590393E+02  0.98016756726E+02  0.10852459417E+03  0.10000000000E+01 0.  0.
<mgrwt>
<rscale>  0 0.12501103E+03</rscale>
<asrwt>0</asrwt>
<pdfrwt beam="2">  1        4 0.78818721E-02 0.12501103E+03</pdfrwt>
<pdfrwt beam="1">  1       -4 0.30980421E-01 0.12501103E+03</pdfrwt>
<totfact> 0.18269362E+03</totfact>
</mgrwt>
</event>
<event>
 5    1  0.1423270E-002  0.1250004E+03  0.7818608E-02  0.1235069E+00
         -4   -1    0    0    0  501 -0.00000000000E+00  0.00000000000E+00  0.28497288832E+03  0.28497571822E+03  0.12700000000E+01 0.  1.
          4   -1    0    0  501    0  0.00000000000E+00 -0.00000000000E+00 -0.13675202621E+02  0.13734047718E+02  0.12700000000E+01 0.  1.
         25    2    1    2    0    0  0.00000000000E+00  0.00000000000E+00  0.27129768570E+03  0.29870976594E+03  0.12500036001E+03 0.  0.
    9000005    1    3    3    0    0 -0.27177159267E+02 -0.35793043119E+02  0.31882818388E+02  0.55111287681E+02  0.10000000000E+01 0.  0.
    9000005    1    3    3    0    0  0.27177159267E+02  0.35793043119E+02  0.23941486731E+03  0.24359847826E+03  0.10000000000E+01 0.  0.
<mgrwt>
<rscale>  0 0.12500036E+03</rscale>
<asrwt>0</asrwt>
<pdfrwt beam="2">  1        4 0.34265102E-02 0.12500036E+03</pdfrwt>
<pdfrwt beam="1">  1       -4 0.71250927E-01 0.12500036E+03</pdfrwt>
<totfact> 0.13007188E+03</totfact>
</mgrwt>
</event>
<event>
 5    1  0.1423270E-002  0.1250016E+03  0.7818608E-02  0.1235067E+00
          4   -1    0    0  501    0  0.00000000000E+00  0.00000000000E+00  0.46437044287E+02  0.46454407564E+02  0.12700000000E+01 0.  1.
         -4   -1    0    0    0  501 -0.00000000000E+00 -0.00000000000E+00 -0.84083504312E+02  0.84093094825E+02  0.12700000000E+01 0.  1.
         25    2    1    2    0    0  0.00000000000E+00  0.00000000000E+00 -0.37646460025E+02  0.13054750239E+03  0.12500157770E+03 0.  0.
    9000005    1    3    3    0    0 -0.31411138272E+02  0.26749814437E+01  0.37529371070E+02  0.49023145820E+02  0.10000000000E+01 0.  0.
    9000005    1    3    3    0    0  0.31411138272E+02 -0.26749814437E+01 -0.75175831094E+02  0.81524356569E+02  0.10000000000E+01 0.  0.
<mgrwt>
<rscale>  0 0.12500158E+03</rscale>
<asrwt>0</asrwt>
<pdfrwt beam="1">  1        4 0.11612630E-01 0.12500158E+03</pdfrwt>
<pdfrwt beam="2">  1       -4 0.21024245E-01 0.12500158E+03</pdfrwt>
<totfact> 0.19534275E+03</totfact>
</mgrwt>
</event>
<event>
 5    1  0.1423270E-002  0.1250011E+03  0.7818608E-02  0.1235068E+00
          4   -1    0    0  501    0  0.00000000000E+00  0.00000000000E+00  0.25577441885E+03  0.25577757180E+03  0.12700000000E+01 0.  1.
         -4   -1    0    0    0  501 -0.00000000000E+00 -0.00000000000E+00 -0.15242857695E+02  0.15295672941E+02  0.12700000000E+01 0.  1.
         25    2    1    2    0    0  0.00000000000E+00  0.00000000000E+00  0.24053156115E+03  0.27107324474E+03  0.12500108842E+03 0.  0.
    9000005    1    3    3    0    0  0.17838596265E+02 -0.34490489628E+02  0.22644828142E+03  0.22975559525E+03  0.10000000000E+01 0.  0.
    9000005    1    3    3    0    0 -0.17838596265E+02  0.34490489628E+02  0.14083279733E+02  0.41317649492E+02  0.10000000000E+01 0.  0.
<mgrwt>
<rscale>  0 0.12500109E+03</rscale>
<asrwt>0</asrwt>
<pdfrwt beam="1">  1        4 0.63950600E-01 0.12500109E+03</pdfrwt>
<pdfrwt beam="2">  1       -4 0.38177105E-02 0.12500109E+03</pdfrwt>
<totfact> 0.13822006E+03</totfact>
</mgrwt>
</event>
<event>
 5    1  0.1423270E-002  0.1250090E+03  0.7818608E-02  0.1235055E+00
          4   -1    0    0  501    0  0.00000000000E+00  0.00000000000E+00  0.10443574053E+03  0.10444346222E+03  0.12700000000E+01 0. -1.
         -4   -1    0    0    0  501 -0.00000000000E+00 -0.00000000000E+00 -0.37388879333E+02  0.37410442363E+02  0.12700000000E+01 0. -1.
         25    2    1    2    0    0  0.00000000000E+00  0.00000000000E+00  0.67046861195E+02  0.14185390458E+03  0.12500899427E+03 0.  0.
    9000005    1    3    3    0    0  0.10592455048E+02  0.20295667121E+02 -0.32464945445E+02  0.39737726288E+02  0.10000000000E+01 0.  0.
    9000005    1    3    3    0    0 -0.10592455048E+02 -0.20295667121E+02  0.99511806640E+02  0.10211617829E+03  0.10000000000E+01 0.  0.
<mgrwt>
<rscale>  0 0.12500899E+03</rscale>
<asrwt>0</asrwt>
<pdfrwt beam="1">  1        4 0.26112596E-01 0.12500899E+03</pdfrwt>
<pdfrwt beam="2">  1       -4 0.93508805E-02 0.12500899E+03</pdfrwt>
<totfact> 0.18941926E+03</totfact>
</mgrwt>
</event>
<event>
 5    1  0.1423270E-002  0.1250003E+03  0.7818608E-02  0.1235069E+00
          4   -1    0    0  501    0  0.00000000000E+00  0.00000000000E+00  0.10616310930E+03  0.10617070535E+03  0.12700000000E+01 0. -1.
         -4   -1    0    0    0  501 -0.00000000000E+00 -0.00000000000E+00 -0.36775077174E+02  0.36796999893E+02  0.12700000000E+01 0. -1.
         25    2    1    2    0    0  0.00000000000E+00  0.00000000000E+00  0.69388032122E+02  0.14296770525E+03  0.12500026297E+03 0.  0.
    9000005    1    3    3    0    0 -0.50872122975E+02 -0.35390551365E+02  0.25486921354E+02  0.67015275736E+02  0.10000000000E+01 0.  0.
    9000005    1    3    3    0    0  0.50872122975E+02  0.35390551365E+02  0.43901110768E+02  0.75952429510E+02  0.10000000000E+01 0.  0.
<mgrwt>
<rscale>  0 0.12500026E+03</rscale>
<asrwt>0</asrwt>
<pdfrwt beam="1">  1        4 0.26544467E-01 0.12500026E+03</pdfrwt>
<pdfrwt beam="2">  1       -4 0.91974592E-02 0.12500026E+03</pdfrwt>
<totfact> 0.18889419E+03</totfact>
</mgrwt>
</event>
<event>
 5    1  0.1423270E-002  0.1249996E+03  0.7818608E-02  0.1235070E+00
          4   -1    0    0  501    0  0.00000000000E+00  0.00000000000E+00  0.23078703106E+03  0.23079052538E+03  0.12700000000E+01 0. -1.
         -4   -1    0    0    0  501 -0.00000000000E+00 -0.00000000000E+00 -0.16898227121E+02  0.16945883861E+02  0.12700000000E+01 0. -1.
         25    2    1    2    0    0  0.00000000000E+00  0.00000000000E+00  0.21388880394E+03  0.24773640924E+03  0.12499963205E+03 0.  0.
    9000005    1    3    3    0    0  0.79194118504E+01  0.60161261945E+02  0.77339576808E+02  0.98308212596E+02  0.10000000000E+01 0.  0.
    9000005    1    3    3    0    0 -0.79194118504E+01 -0.60161261945E+02  0.13654922713E+03  0.14942819665E+03  0.10000000000E+01 0.  0.
<mgrwt>
<rscale>  0 0.12499963E+03</rscale>
<asrwt>0</asrwt>
<pdfrwt beam="1">  1        4 0.57703150E-01 0.12499963E+03</pdfrwt>
<pdfrwt beam="2">  1       -4 0.42309508E-02 0.12499963E+03</pdfrwt>
<totfact> 0.14573714E+03</totfact>
</mgrwt>
</event>
<event>
 5    1  0.1423270E-002  0.1249991E+03  0.7818608E-02  0.1235071E+00
         -4   -1    0    0    0  501 -0.00000000000E+00  0.00000000000E+00  0.18875502411E+02  0.18918178858E+02  0.12700000000E+01 0. -1.
          4   -1    0    0  501    0  0.00000000000E+00 -0.00000000000E+00 -0.20666680850E+03  0.20667071063E+03  0.12700000000E+01 0. -1.
         25    2    1    2    0    0  0.00000000000E+00  0.00000000000E+00 -0.18779130609E+03  0.22558888949E+03  0.12499908968E+03 0.  0.
    9000005    1    3    3    0    0 -0.60920343965E+02 -0.21109250392E+01 -0.11873594959E+03  0.13347273144E+03  0.10000000000E+01 0.  0.
    9000005    1    3    3    0    0  0.60920343965E+02  0.21109250392E+01 -0.69055356493E+02  0.92116158049E+02  0.10000000000E+01 0.  0.
<mgrwt>
<rscale>  0 0.12499909E+03</rscale>
<asrwt>0</asrwt>
<pdfrwt beam="2">  1        4 0.51672517E-01 0.12499909E+03</pdfrwt>
<pdfrwt beam="1">  1       -4 0.47246986E-02 0.12499909E+03</pdfrwt>
<totfact> 0.15346545E+03</totfact>
</mgrwt>
</event>
<event>
 5    1  0.1423270E-002  0.1249995E+03  0.7818608E-02  0.1235070E+00
          4   -1    0    0  501    0  0.00000000000E+00  0.00000000000E+00  0.51894269747E+02  0.51909807673E+02  0.12700000000E+01 0. -1.
         -4   -1    0    0    0  501 -0.00000000000E+00 -0.00000000000E+00 -0.75240505645E+02  0.75251223178E+02  0.12700000000E+01 0. -1.
         25    2    1    2    0    0  0.00000000000E+00  0.00000000000E+00 -0.23346235898E+02  0.12716103085E+03  0.12499952414E+03 0.  0.
    9000005    1    3    3    0    0 -0.42597155192E+02  0.30785441107E+02 -0.46065404654E+02  0.69894796091E+02  0.10000000000E+01 0.  0.
    9000005    1    3    3    0    0  0.42597155192E+02 -0.30785441107E+02  0.22719168756E+02  0.57266234760E+02  0.10000000000E+01 0.  0.
<mgrwt>
<rscale>  0 0.12499952E+03</rscale>
<asrwt>0</asrwt>
<pdfrwt beam="1">  1        4 0.12976849E-01 0.12499952E+03</pdfrwt>
<pdfrwt beam="2">  1       -4 0.18813408E-01 0.12499952E+03</pdfrwt>
<totfact> 0.19718484E+03</totfact>
</mgrwt>
</event>
<event>
 5    1  0.1423270E-002  0.1250035E+03  0.7818608E-02  0.1235064E+00
         -4   -1    0    0    0  501 -0.00000000000E+00  0.00000000000E+00  0.40825367137E+03  0.40825564673E+03  0.12700000000E+01 0. -1.
          4   -1    0    0  501    0  0.00000000000E+00 -0.00000000000E+00 -0.95245757542E+01  0.96088731544E+01  0.12700000000E+01 0. -1.
         25    2    1    2    0    0  0.00000000000E+00  0.00000000000E+00  0.39872909561E+03  0.41786451988E+03  0.12500346110E+03 0.  0.
    9000005    1    3    3    0    0 -0.25182753440E+02 -0.57064374217E+02  0.21229070951E+03  0.22126648915E+03  0.10000000000E+01 0.  0.
    9000005    1    3    3    0    0  0.25182753440E+02  0.57064374217E+02  0.18643838610E+03  0.19659803073E+03  0.10000000000E+01 0.  0.
<mgrwt>
<rscale>  0 0.12500346E+03</rscale>
<asrwt>0</asrwt>
<pdfrwt beam="2">  1        4 0.23919282E-02 0.12500346E+03</pdfrwt>
<pdfrwt beam="1">  1       -4 0.10207419E+00 0.12500346E+03</pdfrwt>
<totfact> 0.10207510E+03</totfact>
</mgrwt>
</event>
<event>
 5    1  0.1423270E-002  0.1249974E+03  0.7818608E-02  0.1235073E+00
         -4   -1    0    0    0  501 -0.00000000000E+00  0.00000000000E+00  0.40897971284E+02  0.40917685115E+02  0.12700000000E+01 0. -1.
          4   -1    0    0  501    0  0.00000000000E+00 -0.00000000000E+00 -0.95461173773E+02  0.95469621336E+02  0.12700000000E+01 0. -1.
         25    2    1    2    0    0  0.00000000000E+00  0.00000000000E+00 -0.54563202488E+02  0.13638730645E+03  0.12499741715E+03 0.  0.
    9000005    1    3    3    0    0  0.99010833313E+01  0.16857630972E+01  0.40016910260E+02  0.41270163013E+02  0.10000000000E+01 0.  0.
    9000005    1    3    3    0    0 -0.99010833313E+01 -0.16857630972E+01 -0.94580112748E+02  0.95117143438E+02  0.10000000000E+01 0.  0.
<mgrwt>
<rscale>  0 0.12499742E+03</rscale>
<asrwt>0</asrwt>
<pdfrwt beam="2">  1        4 0.23868813E-01 0.12499742E+03</pdfrwt>
<pdfrwt beam="1">  1       -4 0.10228013E-01 0.12499742E+03</pdfrwt>
<totfact> 0.19227875E+03</totfact>
</mgrwt>
</event>
<event>
 5    1  0.1423270E-002  0.1250057E+03  0.7818608E-02  0.1235060E+00
          4   -1    0    0  501    0  0.00000000000E+00  0.00000000000E+00  0.46743414449E+01  0.48437968520E+01  0.12700000000E+01 0. -1.
         -4   -1    0    0    0  501 -0.00000000000E+00 -0.00000000000E+00 -0.82070588596E+03  0.82070686859E+03  0.12700000000E+01 0. -1.
         25    2    1    2    0    0  0.00000000000E+00  0.00000000000E+00 -0.81603154451E+03  0.82555066544E+03  0.12500567814E+03 0.  0.
    9000005    1    3    3    0    0 -0.40383609579E+02  0.47088652625E+02 -0.45806241404E+03  0.46224490509E+03  0.10000000000E+01 0.  0.
    9000005    1    3    3    0    0  0.40383609579E+02 -0.47088652625E+02 -0.35796913047E+03  0.36330576035E+03  0.10000000000E+01 0.  0.
<mgrwt>
<rscale>  0 0.12500568E+03</rscale>
<asrwt>0</asrwt>
<pdfrwt beam="1">  1        4 0.11898929E-02 0.12500568E+03</pdfrwt>
<pdfrwt beam="2">  1       -4 0.20519729E+00 0.12500568E+03</pdfrwt>
<totfact> 0.50260918E+02</totfact>
</mgrwt>
</event>
<event>
 5    1  0.1423270E-002  0.1249979E+03  0.7818608E-02  0.1235072E+00
          4   -1    0    0  501    0  0.00000000000E+00  0.00000000000E+00  0.13002111389E+03  0.13002731619E+03  0.12700000000E+01 0. -1.
         -4   -1    0    0    0  501 -0.00000000000E+00 -0.00000000000E+00 -0.30021866539E+02  0.30048716620E+02  0.12700000000E+01 0. -1.
         25    2    1    2    0    0  0.00000000000E+00  0.00000000000E+00  0.99999247347E+02  0.16007603281E+03  0.12499794723E+03 0.  0.
    9000005    1    3    3    0    0 -0.52278991397E+02 -0.16686326359E+02  0.11717690281E+02  0.56123352487E+02  0.10000000000E+01 0.  0.
    9000005    1    3    3    0    0  0.52278991397E+02  0.16686326359E+02  0.88281557066E+02  0.10395268033E+03  0.10000000000E+01 0.  0.
<mgrwt>
<rscale>  0 0.12499795E+03</rscale>
<asrwt>0</asrwt>
<pdfrwt beam="1">  1        4 0.32509409E-01 0.12499795E+03</pdfrwt>
<pdfrwt beam="2">  1       -4 0.75095983E-02 0.12499795E+03</pdfrwt>
<totfact> 0.18055038E+03</totfact>
</mgrwt>
</event>
<event>
 5    1  0.1423270E-002  0.1250008E+03  0.7818608E-02  0.1235068E+00
          4   -1    0    0  501    0  0.00000000000E+00  0.00000000000E+00  0.25430313806E+02  0.25462006211E+02  0.12700000000E+01 0.  1.
         -4   -1    0    0    0  501 -0.00000000000E+00 -0.00000000000E+00 -0.15347799198E+03  0.15348324639E+03  0.12700000000E+01 0.  1.
         25    2    1    2    0    0  0.00000000000E+00  0.00000000000E+00 -0.12804767817E+03  0.17894525260E+03  0.12500078217E+03 0.  0.
    9000005    1    3    3    0    0  0.20191683283E+02  0.13765142591E+02 -0.14636136122E+03  0.14839080593E+03  0.10000000000E+01 0.  0.
    9000005    1    3    3    0    0 -0.20191683283E+02 -0.13765142591E+02  0.18313683053E+02  0.30554446670E+02  0.10000000000E+01 0.  0.
<mgrwt>
<rscale>  0 0.12500078E+03</rscale>
<asrwt>0</asrwt>
<pdfrwt beam="1">  1        4 0.63621972E-02 0.12500078E+03</pdfrwt>
<pdfrwt beam="2">  1       -4 0.38374114E-01 0.12500078E+03</pdfrwt>
<totfact> 0.17200654E+03</totfact>
</mgrwt>
</event>
<event>
 5    1  0.1423270E-002  0.1250012E+03  0.7818608E-02  0.1235067E+00
          4   -1    0    0  501    0  0.00000000000E+00  0.00000000000E+00  0.61488452634E+03  0.61488583789E+03  0.12700000000E+01 0.  1.
         -4   -1    0    0    0  501 -0.00000000000E+00 -0.00000000000E+00 -0.62881419887E+01  0.64151094824E+01  0.12700000000E+01 0.  1.
         25    2    1    2    0    0  0.00000000000E+00  0.00000000000E+00  0.60859638435E+03  0.62130094737E+03  0.12500123261E+03 0.  0.
    9000005    1    3    3    0    0  0.38314378671E+02  0.39672084312E+02  0.15824564960E+03  0.16758446081E+03  0.10000000000E+01 0.  0.
    9000005    1    3    3    0    0 -0.38314378671E+02 -0.39672084312E+02  0.45035073475E+03  0.45371648657E+03  0.10000000000E+01 0.  0.
<mgrwt>
<rscale>  0 0.12500123E+03</rscale>
<asrwt>0</asrwt>
<pdfrwt beam="1">  1        4 0.15373717E+00 0.12500123E+03</pdfrwt>
<pdfrwt beam="2">  1       -4 0.15880704E-02 0.12500123E+03</pdfrwt>
<totfact> 0.70883747E+02</totfact>
</mgrwt>
</event>
<event>
 5    1  0.1423270E-002  0.1250199E+03  0.7818608E-02  0.1235038E+00
          4   -1    0    0  501    0  0.00000000000E+00  0.00000000000E+00  0.96834364522E+01  0.97663627582E+01  0.12700000000E+01 0. -1.
         -4   -1    0    0    0  501 -0.00000000000E+00 -0.00000000000E+00 -0.40171899749E+03  0.40172100498E+03  0.12700000000E+01 0. -1.
         25    2    1    2    0    0  0.00000000000E+00  0.00000000000E+00 -0.39203556104E+03  0.41148736774E+03  0.12501988919E+03 0.  0.
    9000005    1    3    3    0    0 -0.39037870320E+02 -0.48635592909E+02 -0.20963506998E+03  0.21871725762E+03  0.10000000000E+01 0.  0.
    9000005    1    3    3    0    0  0.39037870320E+02  0.48635592909E+02 -0.18240049105E+03  0.19277011011E+03  0.10000000000E+01 0.  0.
<mgrwt>
<rscale>  0 0.12501989E+03</rscale>
<asrwt>0</asrwt>
<pdfrwt beam="1">  1        4 0.24314772E-02 0.12501989E+03</pdfrwt>
<pdfrwt beam="2">  1       -4 0.10044031E+00 0.12501989E+03</pdfrwt>
<totfact> 0.10331236E+03</totfact>
</mgrwt>
</event>
<event>
 5    1  0.1423270E-002  0.1249959E+03  0.7818608E-02  0.1235076E+00
          4   -1    0    0  501    0  0.00000000000E+00  0.00000000000E+00  0.64411299252E+02  0.64423818354E+02  0.12700000000E+01 0. -1.
         -4   -1    0    0    0  501 -0.00000000000E+00 -0.00000000000E+00 -0.60616401177E+02  0.60629703872E+02  0.12700000000E+01 0. -1.
         25    2    1    2    0    0  0.00000000000E+00  0.00000000000E+00  0.37948980744E+01  0.12505352223E+03  0.12499592861E+03 0.  0.
    9000005    1    3    3    0    0 -0.49860308766E+02  0.21586614647E+02 -0.28986877161E+02  0.61589539450E+02  0.10000000000E+01 0.  0.
    9000005    1    3    3    0    0  0.49860308766E+02 -0.21586614647E+02  0.32781775236E+02  0.63463982776E+02  0.10000000000E+01 0.  0.
<mgrwt>
<rscale>  0 0.12499593E+03</rscale>
<asrwt>0</asrwt>
<pdfrwt beam="1">  1        4 0.16106052E-01 0.12499593E+03</pdfrwt>
<pdfrwt beam="2">  1       -4 0.15157328E-01 0.12499593E+03</pdfrwt>
<totfact> 0.19834042E+03</totfact>
</mgrwt>
</event>
<event>
 5    1  0.1423270E-002  0.1249993E+03  0.7818608E-02  0.1235070E+00
         -4   -1    0    0    0  501 -0.00000000000E+00  0.00000000000E+00  0.22486526494E+03  0.22486885128E+03  0.12700000000E+01 0.  1.
          4   -1    0    0  501    0  0.00000000000E+00 -0.00000000000E+00 -0.17344378160E+02  0.17390812337E+02  0.12700000000E+01 0.  1.
         25    2    1    2    0    0  0.00000000000E+00  0.00000000000E+00  0.20752088678E+03  0.24225966361E+03  0.12499930466E+03 0.  0.
    9000005    1    3    3    0    0 -0.12118331599E+02 -0.42233521080E+02  0.18988403382E+03  0.19490374692E+03  0.10000000000E+01 0.  0.
    9000005    1    3    3    0    0  0.12118331599E+02  0.42233521080E+02  0.17636852952E+02  0.47355916691E+02  0.10000000000E+01 0.  0.
<mgrwt>
<rscale>  0 0.12499930E+03</rscale>
<asrwt>0</asrwt>
<pdfrwt beam="2">  1        4 0.43423472E-02 0.12499930E+03</pdfrwt>
<pdfrwt beam="1">  1       -4 0.56222568E-01 0.12499930E+03</pdfrwt>
<totfact> 0.14759155E+03</totfact>
</mgrwt>
</event>
<event>
 5    1  0.1423270E-002  0.1249980E+03  0.7818608E-02  0.1235072E+00
         -4   -1    0    0    0  501 -0.00000000000E+00  0.00000000000E+00  0.17919083324E+02  0.17964032041E+02  0.12700000000E+01 0.  1.
          4   -1    0    0  501    0  0.00000000000E+00 -0.00000000000E+00 -0.21766687278E+03  0.21767057773E+03  0.12700000000E+01 0.  1.
         25    2    1    2    0    0  0.00000000000E+00  0.00000000000E+00 -0.19974778946E+03  0.23563460977E+03  0.12499795969E+03 0.  0.
    9000005    1    3    3    0    0 -0.61784571805E+02 -0.93361511891E+01 -0.10136473889E+03  0.11908109557E+03  0.10000000000E+01 0.  0.
    9000005    1    3    3    0    0  0.61784571805E+02  0.93361511891E+01 -0.98383050567E+02  0.11655351419E+03  0.10000000000E+01 0.  0.
<mgrwt>
<rscale>  0 0.12499796E+03</rscale>
<asrwt>0</asrwt>
<pdfrwt beam="2">  1        4 0.54422792E-01 0.12499796E+03</pdfrwt>
<pdfrwt beam="1">  1       -4 0.44858532E-02 0.12499796E+03</pdfrwt>
<totfact> 0.14988748E+03</totfact>
</mgrwt>
</event>
<event>
 5    1  0.1423270E-002  0.1250011E+03  0.7818608E-02  0.1235068E+00
         -4   -1    0    0    0  501 -0.00000000000E+00  0.00000000000E+00  0.20338613767E+03  0.20339010275E+03  0.12700000000E+01 0.  1.
          4   -1    0    0  501    0  0.00000000000E+00 -0.00000000000E+00 -0.19181252517E+02  0.19223250197E+02  0.12700000000E+01 0.  1.
         25    2    1    2    0    0  0.00000000000E+00  0.00000000000E+00  0.18420488515E+03  0.22261335295E+03  0.12500106078E+03 0.  0.
    9000005    1    3    3    0    0 -0.44162861242E+02 -0.16277464554E+02  0.16531425172E+03  0.17188692791E+03  0.10000000000E+01 0.  0.
    9000005    1    3    3    0    0  0.44162861242E+02  0.16277464554E+02  0.18890633437E+02  0.50726425038E+02  0.10000000000E+01 0.  0.
<mgrwt>
<rscale>  0 0.12500106E+03</rscale>
<asrwt>0</asrwt>
<pdfrwt beam="2">  1        4 0.48010586E-02 0.12500106E+03</pdfrwt>
<pdfrwt beam="1">  1       -4 0.50852278E-01 0.12500106E+03</pdfrwt>
<totfact> 0.15454516E+03</totfact>
</mgrwt>
</event>
<event>
 5    1  0.1423270E-002  0.1249997E+03  0.7818608E-02  0.1235070E+00
         -4   -1    0    0    0  501 -0.00000000000E+00  0.00000000000E+00  0.93265109795E+01  0.94125823795E+01  0.12700000000E+01 0.  1.
          4   -1    0    0  501    0  0.00000000000E+00 -0.00000000000E+00 -0.41682026294E+03  0.41682219770E+03  0.12700000000E+01 0.  1.
         25    2    1    2    0    0  0.00000000000E+00  0.00000000000E+00 -0.40749375196E+03  0.42623478008E+03  0.12499971946E+03 0.  0.
    9000005    1    3    3    0    0  0.34086322532E+02 -0.41370503392E+02 -0.94213796943E+02  0.10840034810E+03  0.10000000000E+01 0.  0.
    9000005    1    3    3    0    0 -0.34086322532E+02  0.41370503392E+02 -0.31327995501E+03  0.31783443197E+03  0.10000000000E+01 0.  0.
<mgrwt>
<rscale>  0 0.12499972E+03</rscale>
<asrwt>0</asrwt>
<pdfrwt beam="2">  1        4 0.10421600E+00 0.12499972E+03</pdfrwt>
<pdfrwt beam="1">  1       -4 0.23426299E-02 0.12499972E+03</pdfrwt>
<totfact> 0.10044562E+03</totfact>
</mgrwt>
</event>
<event>
 5    1  0.1423270E-002  0.1249859E+03  0.7818608E-02  0.1235091E+00
          4   -1    0    0  501    0  0.00000000000E+00  0.00000000000E+00  0.65454871940E+02  0.65467191483E+02  0.12700000000E+01 0. -1.
         -4   -1    0    0    0  501 -0.00000000000E+00 -0.00000000000E+00 -0.59640403328E+02  0.59653923669E+02  0.12700000000E+01 0. -1.
         25    2    1    2    0    0  0.00000000000E+00  0.00000000000E+00  0.58144686125E+01  0.12512111515E+03  0.12498594086E+03 0.  0.
    9000005    1    3    3    0    0  0.60636557779E+02 -0.94538974969E+01  0.14675927312E+02  0.63107457242E+02  0.10000000000E+01 0.  0.
    9000005    1    3    3    0    0 -0.60636557779E+02  0.94538974969E+01 -0.88614586998E+01  0.62013657910E+02  0.10000000000E+01 0.  0.
<mgrwt>
<rscale>  0 0.12498594E+03</rscale>
<asrwt>0</asrwt>
<pdfrwt beam="1">  1        4 0.16366948E-01 0.12498594E+03</pdfrwt>
<pdfrwt beam="2">  1       -4 0.14913331E-01 0.12498594E+03</pdfrwt>
<totfact> 0.19835013E+03</totfact>
</mgrwt>
</event>
<event>
 5    1  0.1423270E-002  0.1250018E+03  0.7818608E-02  0.1235066E+00
          4   -1    0    0  501    0  0.00000000000E+00  0.00000000000E+00  0.15297839892E+03  0.15298367049E+03  0.12700000000E+01 0.  1.
         -4   -1    0    0    0  501 -0.00000000000E+00 -0.00000000000E+00 -0.25513881101E+02  0.25545469830E+02  0.12700000000E+01 0.  1.
         25    2    1    2    0    0  0.00000000000E+00  0.00000000000E+00  0.12746451782E+03  0.17852914032E+03  0.12500180255E+03 0.  0.
    9000005    1    3    3    0    0  0.44958658721E+02 -0.25952047648E+02  0.11342446868E+03  0.12474333596E+03  0.10000000000E+01 0.  0.
    9000005    1    3    3    0    0 -0.44958658721E+02  0.25952047648E+02  0.14040049145E+02  0.53785804364E+02  0.10000000000E+01 0.  0.
<mgrwt>
<rscale>  0 0.12500180E+03</rscale>
<asrwt>0</asrwt>
<pdfrwt beam="1">  1        4 0.38249206E-01 0.12500180E+03</pdfrwt>
<pdfrwt beam="2">  1       -4 0.63830780E-02 0.12500180E+03</pdfrwt>
<totfact> 0.17218349E+03</totfact>
</mgrwt>
</event>
<event>
 5    1  0.1423270E-002  0.1249935E+03  0.7818608E-02  0.1235080E+00
          4   -1    0    0  501    0  0.00000000000E+00  0.00000000000E+00  0.44827203111E+02  0.44845189694E+02  0.12700000000E+01 0.  1.
         -4   -1    0    0    0  501 -0.00000000000E+00 -0.00000000000E+00 -0.87090952102E+02  0.87100211469E+02  0.12700000000E+01 0.  1.
         25    2    1    2    0    0  0.00000000000E+00  0.00000000000E+00 -0.42263748991E+02  0.13194540116E+03  0.12499345747E+03 0.  0.
    9000005    1    3    3    0    0 -0.19393828278E+02 -0.57588321556E+02 -0.57507583277E+01  0.61045938245E+02  0.10000000000E+01 0.  0.
    9000005    1    3    3    0    0  0.19393828278E+02  0.57588321556E+02 -0.36512990663E+02  0.70899462918E+02  0.10000000000E+01 0.  0.
<mgrwt>
<rscale>  0 0.12499346E+03</rscale>
<asrwt>0</asrwt>
<pdfrwt beam="1">  1        4 0.11210207E-01 0.12499346E+03</pdfrwt>
<pdfrwt beam="2">  1       -4 0.21776144E-01 0.12499346E+03</pdfrwt>
<totfact> 0.19463330E+03</totfact>
</mgrwt>
</event>
<event>
 5    1  0.1423270E-002  0.1249985E+03  0.7818608E-02  0.1235072E+00
          4   -1    0    0  501    0  0.00000000000E+00  0.00000000000E+00  0.38640732098E+02  0.38661596928E+02  0.12700000000E+01 0. -1.
         -4   -1    0    0    0  501 -0.00000000000E+00 -0.00000000000E+00 -0.10103701968E+03  0.10104500110E+03  0.12700000000E+01 0. -1.
         25    2    1    2    0    0  0.00000000000E+00  0.00000000000E+00 -0.62396287587E+02  0.13970659803E+03  0.12499854730E+03 0.  0.
    9000005    1    3    3    0    0  0.45613059978E+02 -0.23499972476E+02  0.86691566442E+01  0.52047614968E+02  0.10000000000E+01 0.  0.
    9000005    1    3    3    0    0 -0.45613059978E+02  0.23499972476E+02 -0.71065444231E+02  0.87658983058E+02  0.10000000000E+01 0.  0.
<mgrwt>
<rscale>  0 0.12499855E+03</rscale>
<asrwt>0</asrwt>
<pdfrwt beam="1">  1        4 0.96637890E-02 0.12499855E+03</pdfrwt>
<pdfrwt beam="2">  1       -4 0.25262860E-01 0.12499855E+03</pdfrwt>
<totfact> 0.19056008E+03</totfact>
</mgrwt>
</event>
<event>
 5    1  0.1423270E-002  0.1249988E+03  0.7818608E-02  0.1235071E+00
          4   -1    0    0  501    0  0.00000000000E+00  0.00000000000E+00  0.18168980072E+02  0.18213312078E+02  0.12700000000E+01 0.  1.
         -4   -1    0    0    0  501 -0.00000000000E+00 -0.00000000000E+00 -0.21468336862E+03  0.21468712505E+03  0.12700000000E+01 0.  1.
         25    2    1    2    0    0  0.00000000000E+00  0.00000000000E+00 -0.19651438855E+03  0.23290043713E+03  0.12499883483E+03 0.  0.
    9000005    1    3    3    0    0 -0.56927782392E+02  0.14653050162E+02 -0.58745800539E+02  0.83111692126E+02  0.10000000000E+01 0.  0.
    9000005    1    3    3    0    0  0.56927782392E+02 -0.14653050162E+02 -0.13776858801E+03  0.14978874500E+03  0.10000000000E+01 0.  0.
<mgrwt>
<rscale>  0 0.12499883E+03</rscale>
<asrwt>0</asrwt>
<pdfrwt beam="1">  1        4 0.45482567E-02 0.12499883E+03</pdfrwt>
<pdfrwt beam="2">  1       -4 0.53676845E-01 0.12499883E+03</pdfrwt>
<totfact> 0.15084629E+03</totfact>
</mgrwt>
</event>
<event>
 5    1  0.1423270E-002  0.1250007E+03  0.7818608E-02  0.1235068E+00
          4   -1    0    0  501    0  0.00000000000E+00  0.00000000000E+00  0.24729233357E+02  0.24761823083E+02  0.12700000000E+01 0. -1.
         -4   -1    0    0    0  501 -0.00000000000E+00 -0.00000000000E+00 -0.15782341967E+03  0.15782852941E+03  0.12700000000E+01 0. -1.
         25    2    1    2    0    0  0.00000000000E+00  0.00000000000E+00 -0.13309418631E+03  0.18259035249E+03  0.12500069757E+03 0.  0.
    9000005    1    3    3    0    0 -0.35059478980E+02  0.46910082266E+02 -0.98401750781E+02  0.11451474770E+03  0.10000000000E+01 0.  0.
    9000005    1    3    3    0    0  0.35059478980E+02 -0.46910082266E+02 -0.34692435529E+02  0.68075604790E+02  0.10000000000E+01 0.  0.
<mgrwt>
<rscale>  0 0.12500070E+03</rscale>
<asrwt>0</asrwt>
<pdfrwt beam="1">  1        4 0.61870212E-02 0.12500070E+03</pdfrwt>
<pdfrwt beam="2">  1       -4 0.39460564E-01 0.12500070E+03</pdfrwt>
<totfact> 0.17043402E+03</totfact>
</mgrwt>
</event>
<event>
 5    1  0.1423270E-002  0.1250062E+03  0.7818608E-02  0.1235060E+00
          4   -1    0    0  501    0  0.00000000000E+00  0.00000000000E+00  0.51472250250E+03  0.51472406926E+03  0.12700000000E+01 0. -1.
         -4   -1    0    0    0  501 -0.00000000000E+00 -0.00000000000E+00 -0.75350707191E+01  0.76413474428E+01  0.12700000000E+01 0. -1.
         25    2    1    2    0    0  0.00000000000E+00  0.00000000000E+00  0.50718743178E+03  0.52236541670E+03  0.12500615031E+03 0.  0.
    9000005    1    3    3    0    0 -0.58474606274E+02 -0.21647409423E+02  0.23599119785E+03  0.24409165364E+03  0.10000000000E+01 0.  0.
    9000005    1    3    3    0    0  0.58474606274E+02  0.21647409423E+02  0.27119623392E+03  0.27827376306E+03  0.10000000000E+01 0.  0.
<mgrwt>
<rscale>  0 0.12500615E+03</rscale>
<asrwt>0</asrwt>
<pdfrwt beam="1">  1        4 0.12869408E+00 0.12500615E+03</pdfrwt>
<pdfrwt beam="2">  1       -4 0.18972485E-02 0.12500615E+03</pdfrwt>
<totfact> 0.84144242E+02</totfact>
</mgrwt>
</event>
<event>
 5    1  0.1423270E-002  0.1250132E+03  0.7818608E-02  0.1235049E+00
          4   -1    0    0  501    0  0.00000000000E+00  0.00000000000E+00  0.10343809828E+04  0.10343817624E+04  0.12700000000E+01 0.  1.
         -4   -1    0    0    0  501 -0.00000000000E+00 -0.00000000000E+00 -0.36696565175E+01  0.38832047276E+01  0.12700000000E+01 0.  1.
         25    2    1    2    0    0  0.00000000000E+00  0.00000000000E+00  0.10307113263E+04  0.10382649672E+04  0.12501321502E+03 0.  0.
    9000005    1    3    3    0    0 -0.31231769971E+02 -0.47405017743E+02  0.29823802412E+03  0.30359443044E+03  0.10000000000E+01 0.  0.
    9000005    1    3    3    0    0  0.31231769971E+02  0.47405017743E+02  0.73247330215E+03  0.73467053672E+03  0.10000000000E+01 0.  0.
<mgrwt>
<rscale>  0 0.12501322E+03</rscale>
<asrwt>0</asrwt>
<pdfrwt beam="1">  1        4 0.25862198E+00 0.12501322E+03</pdfrwt>
<pdfrwt beam="2">  1       -4 0.94420530E-03 0.12501322E+03</pdfrwt>
<totfact> 0.34584844E+02</totfact>
</mgrwt>
</event>
<event>
 5    1  0.1423270E-002  0.1250004E+03  0.7818608E-02  0.1235069E+00
          4   -1    0    0  501    0  0.00000000000E+00  0.00000000000E+00  0.31433397469E+03  0.31433654027E+03  0.12700000000E+01 0. -1.
         -4   -1    0    0    0  501 -0.00000000000E+00 -0.00000000000E+00 -0.12392070607E+02  0.12456978523E+02  0.12700000000E+01 0. -1.
         25    2    1    2    0    0  0.00000000000E+00  0.00000000000E+00  0.30194190409E+03  0.32679351879E+03  0.12500036192E+03 0.  0.
    9000005    1    3    3    0    0 -0.59613668765E+02 -0.17907191300E+02  0.13645827300E+03  0.14998772374E+03  0.10000000000E+01 0.  0.
    9000005    1    3    3    0    0  0.59613668765E+02  0.17907191300E+02  0.16548363109E+03  0.17680579505E+03  0.10000000000E+01 0.  0.
<mgrwt>
<rscale>  0 0.12500036E+03</rscale>
<asrwt>0</asrwt>
<pdfrwt beam="1">  1        4 0.78591929E-01 0.12500036E+03</pdfrwt>
<pdfrwt beam="2">  1       -4 0.31064518E-02 0.12500036E+03</pdfrwt>
<totfact> 0.12251905E+03</totfact>
</mgrwt>
</event>
<event>
 5    1  0.1423270E-002  0.1250066E+03  0.7818608E-02  0.1235059E+00
          4   -1    0    0  501    0  0.00000000000E+00  0.00000000000E+00  0.29510447184E+02  0.29537762153E+02  0.12700000000E+01 0. -1.
         -4   -1    0    0    0  501 -0.00000000000E+00 -0.00000000000E+00 -0.13229076606E+03  0.13229686197E+03  0.12700000000E+01 0. -1.
         25    2    1    2    0    0  0.00000000000E+00  0.00000000000E+00 -0.10278031888E+03  0.16183462412E+03  0.12500660628E+03 0.  0.
    9000005    1    3    3    0    0 -0.22253398688E+02  0.43766051306E+02 -0.13341243652E+01  0.49126987369E+02  0.10000000000E+01 0.  0.
    9000005    1    3    3    0    0  0.22253398688E+02 -0.43766051306E+02 -0.10144619452E+03  0.11270763675E+03  0.10000000000E+01 0.  0.
<mgrwt>
<rscale>  0 0.12500661E+03</rscale>
<asrwt>0</asrwt>
<pdfrwt beam="1">  1        4 0.73817885E-02 0.12500661E+03</pdfrwt>
<pdfrwt beam="2">  1       -4 0.33076866E-01 0.12500661E+03</pdfrwt>
<totfact> 0.17968996E+03</totfact>
</mgrwt>
</event>
<event>
 5    1  0.1423270E-002  0.1250013E+03  0.7818608E-02  0.1235067E+00
          4   -1    0    0  501    0  0.00000000000E+00  0.00000000000E+00  0.39243755589E+01  0.41247573901E+01  0.12700000000E+01 0.  1.
         -4   -1    0    0    0  501 -0.00000000000E+00 -0.00000000000E+00 -0.97042134419E+03  0.97042217522E+03  0.12700000000E+01 0.  1.
         25    2    1    2    0    0  0.00000000000E+00  0.00000000000E+00 -0.96649696863E+03  0.97454693261E+03  0.12500133394E+03 0.  0.
    9000005    1    3    3    0    0  0.32551086757E+02  0.16581789898E+02 -0.87952296799E+02  0.95242508983E+02  0.10000000000E+01 0.  0.
    9000005    1    3    3    0    0 -0.32551086757E+02 -0.16581789898E+02 -0.87854467183E+03  0.87930442363E+03  0.10000000000E+01 0.  0.
<mgrwt>
<rscale>  0 0.12500133E+03</rscale>
<asrwt>0</asrwt>
<pdfrwt beam="1">  1        4 0.10062488E-02 0.12500133E+03</pdfrwt>
<pdfrwt beam="2">  1       -4 0.24262969E+00 0.12500133E+03</pdfrwt>
<totfact> 0.38846421E+02</totfact>
</mgrwt>
</event>
<event>
 5    1  0.1423270E-002  0.1250008E+03  0.7818608E-02  0.1235068E+00
         -4   -1    0    0    0  501 -0.00000000000E+00  0.00000000000E+00  0.20479225384E+03  0.20479619170E+03  0.12700000000E+01 0. -1.
          4   -1    0    0  501    0  0.00000000000E+00 -0.00000000000E+00 -0.19049179691E+02  0.19091467908E+02  0.12700000000E+01 0. -1.
         25    2    1    2    0    0  0.00000000000E+00  0.00000000000E+00  0.18574307415E+03  0.22388765960E+03  0.12500077811E+03 0.  0.
    9000005    1    3    3    0    0  0.93839938589E+01 -0.54960352051E+02  0.14342341770E+03  0.15388299576E+03  0.10000000000E+01 0.  0.
    9000005    1    3    3    0    0 -0.93839938589E+01  0.54960352051E+02  0.42319656447E+02  0.70004663845E+02  0.10000000000E+01 0.  0.
<mgrwt>
<rscale>  0 0.12500078E+03</rscale>
<asrwt>0</asrwt>
<pdfrwt beam="2">  1        4 0.47680732E-02 0.12500078E+03</pdfrwt>
<pdfrwt beam="1">  1       -4 0.51203841E-01 0.12500078E+03</pdfrwt>
<totfact> 0.15407930E+03</totfact>
</mgrwt>
</event>
<event>
 5    1  0.1423270E-002  0.1249963E+03  0.7818608E-02  0.1235075E+00
          4   -1    0    0  501    0  0.00000000000E+00  0.00000000000E+00  0.14037055603E+03  0.14037630106E+03  0.12700000000E+01 0.  1.
         -4   -1    0    0    0  501 -0.00000000000E+00 -0.00000000000E+00 -0.27805693901E+02  0.27834681843E+02  0.12700000000E+01 0.  1.
         25    2    1    2    0    0  0.00000000000E+00  0.00000000000E+00  0.11256486213E+03  0.16821098290E+03  0.12499634628E+03 0.  0.
    9000005    1    3    3    0    0 -0.59967840753E+02  0.17519278994E+02  0.58163844766E+02  0.85364511942E+02  0.10000000000E+01 0.  0.
    9000005    1    3    3    0    0  0.59967840753E+02 -0.17519278994E+02  0.54401017361E+02  0.82846470963E+02  0.10000000000E+01 0.  0.
<mgrwt>
<rscale>  0 0.12499635E+03</rscale>
<asrwt>0</asrwt>
<pdfrwt beam="1">  1        4 0.35096980E-01 0.12499635E+03</pdfrwt>
<pdfrwt beam="2">  1       -4 0.69557652E-02 0.12499635E+03</pdfrwt>
<totfact> 0.17679542E+03</totfact>
</mgrwt>
</event>
<event>
 5    1  0.1423270E-002  0.1249984E+03  0.7818608E-02  0.1235072E+00
         -4   -1    0    0    0  501 -0.00000000000E+00  0.00000000000E+00  0.20303337926E+02  0.20343019219E+02  0.12700000000E+01 0. -1.
          4   -1    0    0  501    0  0.00000000000E+00 -0.00000000000E+00 -0.19216007996E+03  0.19216427668E+03  0.12700000000E+01 0. -1.
         25    2    1    2    0    0  0.00000000000E+00  0.00000000000E+00 -0.17185674204E+03  0.21250729590E+03  0.12499844409E+03 0.  0.
    9000005    1    3    3    0    0  0.64045199144E+01 -0.52196572765E+02 -0.14332091748E+03  0.15266756523E+03  0.10000000000E+01 0.  0.
    9000005    1    3    3    0    0 -0.64045199144E+01  0.52196572765E+02 -0.28535824552E+02  0.59839730670E+02  0.10000000000E+01 0.  0.
<mgrwt>
<rscale>  0 0.12499844E+03</rscale>
<asrwt>0</asrwt>
<pdfrwt beam="2">  1        4 0.48045499E-01 0.12499844E+03</pdfrwt>
<pdfrwt beam="1">  1       -4 0.50813198E-02 0.12499844E+03</pdfrwt>
<totfact> 0.15833755E+03</totfact>
</mgrwt>
</event>
<event>
 5    1  0.1423270E-002  0.1250011E+03  0.7818608E-02  0.1235068E+00
          4   -1    0    0  501    0  0.00000000000E+00  0.00000000000E+00  0.90450690532E+03  0.90450779691E+03  0.12700000000E+01 0.  1.
         -4   -1    0    0    0  501 -0.00000000000E+00 -0.00000000000E+00 -0.42244452319E+01  0.44112172376E+01  0.12700000000E+01 0.  1.
         25    2    1    2    0    0  0.00000000000E+00  0.00000000000E+00  0.90028246009E+03  0.90891901415E+03  0.12500106535E+03 0.  0.
    9000005    1    3    3    0    0  0.89490127413E+00  0.55713319649E+02  0.65587399717E+03  0.65823740018E+03  0.10000000000E+01 0.  0.
    9000005    1    3    3    0    0 -0.89490127413E+00 -0.55713319649E+02  0.24440846292E+03  0.25068161397E+03  0.10000000000E+01 0.  0.
<mgrwt>
<rscale>  0 0.12500107E+03</rscale>
<asrwt>0</asrwt>
<pdfrwt beam="1">  1        4 0.22615025E+00 0.12500107E+03</pdfrwt>
<pdfrwt beam="2">  1       -4 0.10795690E-02 0.12500107E+03</pdfrwt>
<totfact> 0.43597108E+02</totfact>
</mgrwt>
</event>
<event>
 5    1  0.1423270E-002  0.1249960E+03  0.7818608E-02  0.1235075E+00
          4   -1    0    0  501    0  0.00000000000E+00  0.00000000000E+00  0.43370664364E+02  0.43389254746E+02  0.12700000000E+01 0. -1.
         -4   -1    0    0    0  501 -0.00000000000E+00 -0.00000000000E+00 -0.90018558666E+02  0.90027516928E+02  0.12700000000E+01 0. -1.
         25    2    1    2    0    0  0.00000000000E+00  0.00000000000E+00 -0.46647894301E+02  0.13341677167E+03  0.12499603562E+03 0.  0.
    9000005    1    3    3    0    0  0.28447982974E+02 -0.54962281746E+02 -0.32559122252E+02  0.69937376215E+02  0.10000000000E+01 0.  0.
    9000005    1    3    3    0    0 -0.28447982974E+02  0.54962281746E+02 -0.14088772050E+02  0.63479395459E+02  0.10000000000E+01 0.  0.
<mgrwt>
<rscale>  0 0.12499604E+03</rscale>
<asrwt>0</asrwt>
<pdfrwt beam="1">  1        4 0.10846110E-01 0.12499604E+03</pdfrwt>
<pdfrwt beam="2">  1       -4 0.22508083E-01 0.12499604E+03</pdfrwt>
<totfact> 0.19384182E+03</totfact>
</mgrwt>
</event>
<event>
 4    1  0.1423270E-002  0.1248805E+03  0.7818608E-02  0.1235256E+00
         -4   -1    0    0    0  501 -0.00000000000E+00  0.00000000000E+00  0.22271991439E+02  0.22308171208E+02  0.12700000000E+01 0. -1.
          4   -1    0    0  501    0  0.00000000000E+00 -0.00000000000E+00 -0.17487275861E+03  0.17487737019E+03  0.12700000000E+01 0. -1.
    9000005    1    1    2    0    0 -0.17809965923E+02 -0.32072670563E+02  0.34651301547E+01  0.36862694018E+02  0.10000000000E+01 0.  0.
    9000005    1    1    2    0    0  0.17809965923E+02  0.32072670563E+02 -0.15606589733E+03  0.16032284738E+03  0.10000000000E+01 0.  0.
<mgrwt>
<rscale>  0 0.12488052E+03</rscale>
<asrwt>0</asrwt>
<pdfrwt beam="2">  1        4 0.43723285E-01 0.12488052E+03</pdfrwt>
<pdfrwt beam="1">  1       -4 0.55730973E-02 0.12488052E+03</pdfrwt>
<totfact> 0.16480863E+03</totfact>
</mgrwt>
</event>
<event>
 5    1  0.1423270E-002  0.1249841E+03  0.7818608E-02  0.1235094E+00
          4   -1    0    0  501    0  0.00000000000E+00  0.00000000000E+00  0.44300308766E+02  0.44318509190E+02  0.12700000000E+01 0. -1.
         -4   -1    0    0    0  501 -0.00000000000E+00 -0.00000000000E+00 -0.88113313013E+02  0.88122464957E+02  0.12700000000E+01 0. -1.
         25    2    1    2    0    0  0.00000000000E+00  0.00000000000E+00 -0.43813004247E+02  0.13244097415E+03  0.12498412816E+03 0.  0.
    9000005    1    3    3    0    0 -0.13268341728E+02 -0.24568139657E+02  0.37326781185E+02  0.46625432674E+02  0.10000000000E+01 0.  0.
    9000005    1    3    3    0    0  0.13268341728E+02  0.24568139657E+02 -0.81139785432E+02  0.85815541473E+02  0.10000000000E+01 0.  0.
<mgrwt>
<rscale>  0 0.12498413E+03</rscale>
<asrwt>0</asrwt>
<pdfrwt beam="1">  1        4 0.11078496E-01 0.12498413E+03</pdfrwt>
<pdfrwt beam="2">  1       -4 0.22031747E-01 0.12498413E+03</pdfrwt>
<totfact> 0.19441232E+03</totfact>
</mgrwt>
</event>
<event>
 5    1  0.1423270E-002  0.1250015E+03  0.7818608E-02  0.1235067E+00
          4   -1    0    0  501    0  0.00000000000E+00  0.00000000000E+00  0.70903240378E+02  0.70914613418E+02  0.12700000000E+01 0.  1.
         -4   -1    0    0    0  501 -0.00000000000E+00 -0.00000000000E+00 -0.55070884730E+02  0.55085526638E+02  0.12700000000E+01 0.  1.
         25    2    1    2    0    0  0.00000000000E+00  0.00000000000E+00  0.15832355648E+02  0.12600014006E+03  0.12500148723E+03 0.  0.
    9000005    1    3    3    0    0 -0.53457392718E+02 -0.29030751768E+02 -0.65112972797E+01  0.61187207622E+02  0.10000000000E+01 0.  0.
    9000005    1    3    3    0    0  0.53457392718E+02  0.29030751768E+02  0.22343652928E+02  0.64812932433E+02  0.10000000000E+01 0.  0.
<mgrwt>
<rscale>  0 0.12500149E+03</rscale>
<asrwt>0</asrwt>
<pdfrwt beam="1">  1        4 0.17729062E-01 0.12500149E+03</pdfrwt>
<pdfrwt beam="2">  1       -4 0.13770973E-01 0.12500149E+03</pdfrwt>
<totfact> 0.19780224E+03</totfact>
</mgrwt>
</event>
<event>
 5    1  0.1423270E-002  0.1250003E+03  0.7818608E-02  0.1235069E+00
         -4   -1    0    0    0  501 -0.00000000000E+00  0.00000000000E+00  0.12794690686E+03  0.12795320971E+03  0.12700000000E+01 0.  1.
          4   -1    0    0  501    0  0.00000000000E+00 -0.00000000000E+00 -0.30510144592E+02  0.30536565345E+02  0.12700000000E+01 0.  1.
         25    2    1    2    0    0  0.00000000000E+00  0.00000000000E+00  0.97436762272E+02  0.15848977506E+03  0.12500034462E+03 0.  0.
    9000005    1    3    3    0    0 -0.25418927126E+02 -0.55006631665E+02  0.68089701158E+02  0.91154038786E+02  0.10000000000E+01 0.  0.
    9000005    1    3    3    0    0  0.25418927126E+02  0.55006631665E+02  0.29347061114E+02  0.67335736272E+02  0.10000000000E+01 0.  0.
<mgrwt>
<rscale>  0 0.12500034E+03</rscale>
<asrwt>0</asrwt>
<pdfrwt beam="2">  1        4 0.76316267E-02 0.12500034E+03</pdfrwt>
<pdfrwt beam="1">  1       -4 0.31990817E-01 0.12500034E+03</pdfrwt>
<totfact> 0.18128915E+03</totfact>
</mgrwt>
</event>
<event>
 5    1  0.1423270E-002  0.1250076E+03  0.7818608E-02  0.1235057E+00
          4   -1    0    0  501    0  0.00000000000E+00  0.00000000000E+00  0.40274797206E+03  0.40274997442E+03  0.12700000000E+01 0. -1.
         -4   -1    0    0    0  501 -0.00000000000E+00 -0.00000000000E+00 -0.96565685355E+01  0.97397236039E+01  0.12700000000E+01 0. -1.
         25    2    1    2    0    0  0.00000000000E+00  0.00000000000E+00  0.39309140353E+03  0.41248969803E+03  0.12500759759E+03 0.  0.
    9000005    1    3    3    0    0 -0.59205842484E+02  0.15708280202E+02  0.23744662435E+03  0.24522230989E+03  0.10000000000E+01 0.  0.
    9000005    1    3    3    0    0  0.59205842484E+02 -0.15708280202E+02  0.15564477917E+03  0.16726738814E+03  0.10000000000E+01 0.  0.
<mgrwt>
<rscale>  0 0.12500760E+03</rscale>
<asrwt>0</asrwt>
<pdfrwt beam="1">  1        4 0.10069764E+00 0.12500760E+03</pdfrwt>
<pdfrwt beam="2">  1       -4 0.24247868E-02 0.12500760E+03</pdfrwt>
<totfact> 0.10313911E+03</totfact>
</mgrwt>
</event>
<event>
 5    1  0.1423270E-002  0.1250016E+03  0.7818608E-02  0.1235067E+00
          4   -1    0    0  501    0  0.00000000000E+00  0.00000000000E+00  0.17902162464E+02  0.17947153560E+02  0.12700000000E+01 0. -1.
         -4   -1    0    0    0  501 -0.00000000000E+00 -0.00000000000E+00 -0.21788475432E+03  0.21788845556E+03  0.12700000000E+01 0. -1.
         25    2    1    2    0    0  0.00000000000E+00  0.00000000000E+00 -0.19998259186E+03  0.23583560912E+03  0.12500158992E+03 0.  0.
    9000005    1    3    3    0    0  0.48374155626E+02 -0.39562505771E+02 -0.10058364466E+03  0.11842010120E+03  0.10000000000E+01 0.  0.
    9000005    1    3    3    0    0 -0.48374155626E+02  0.39562505771E+02 -0.99398947200E+02  0.11741550792E+03  0.10000000000E+01 0.  0.
<mgrwt>
<rscale>  0 0.12500159E+03</rscale>
<asrwt>0</asrwt>
<pdfrwt beam="1">  1        4 0.44816278E-02 0.12500159E+03</pdfrwt>
<pdfrwt beam="2">  1       -4 0.54477267E-01 0.12500159E+03</pdfrwt>
<totfact> 0.14980462E+03</totfact>
</mgrwt>
</event>
<event>
 5    1  0.1423270E-002  0.1250008E+03  0.7818608E-02  0.1235068E+00
         -4   -1    0    0    0  501 -0.00000000000E+00  0.00000000000E+00  0.95649786585E+03  0.95649870897E+03  0.12700000000E+01 0. -1.
          4   -1    0    0  501    0  0.00000000000E+00 -0.00000000000E+00 -0.39843639978E+01  0.41818723638E+01  0.12700000000E+01 0. -1.
         25    2    1    2    0    0  0.00000000000E+00  0.00000000000E+00  0.95251350185E+03  0.96068058134E+03  0.12500083262E+03 0.  0.
    9000005    1    3    3    0    0  0.27899358675E+02  0.19649458976E+02  0.73904082846E+02  0.81408162452E+02  0.10000000000E+01 0.  0.
    9000005    1    3    3    0    0 -0.27899358675E+02 -0.19649458976E+02  0.87860941900E+03  0.87927241889E+03  0.10000000000E+01 0.  0.
<mgrwt>
<rscale>  0 0.12500083E+03</rscale>
<asrwt>0</asrwt>
<pdfrwt beam="2">  1        4 0.10208849E-02 0.12500083E+03</pdfrwt>
<pdfrwt beam="1">  1       -4 0.23914928E+00 0.12500083E+03</pdfrwt>
<totfact> 0.39816866E+02</totfact>
</mgrwt>
</event>
<event>
 5    1  0.1423270E-002  0.1249973E+03  0.7818608E-02  0.1235074E+00
          4   -1    0    0  501    0  0.00000000000E+00  0.00000000000E+00  0.20051279194E+03  0.20051681384E+03  0.12700000000E+01 0. -1.
         -4   -1    0    0    0  501 -0.00000000000E+00 -0.00000000000E+00 -0.19455524964E+02  0.19496931852E+02  0.12700000000E+01 0. -1.
         25    2    1    2    0    0  0.00000000000E+00  0.00000000000E+00  0.18105726697E+03  0.22001374569E+03  0.12499725744E+03 0.  0.
    9000005    1    3    3    0    0 -0.45974764296E+02 -0.71157939791E+01  0.16396639291E+03  0.17044146056E+03  0.10000000000E+01 0.  0.
    9000005    1    3    3    0    0  0.45974764296E+02  0.71157939791E+01  0.17090874067E+02  0.49572285124E+02  0.10000000000E+01 0.  0.
<mgrwt>
<rscale>  0 0.12499726E+03</rscale>
<asrwt>0</asrwt>
<pdfrwt beam="1">  1        4 0.50133876E-01 0.12499726E+03</pdfrwt>
<pdfrwt beam="2">  1       -4 0.48695599E-02 0.12499726E+03</pdfrwt>
<totfact> 0.15551815E+03</totfact>
</mgrwt>
</event>
<event>
 5    1  0.1423270E-002  0.1250003E+03  0.7818608E-02  0.1235069E+00
          4   -1    0    0  501    0  0.00000000000E+00  0.00000000000E+00  0.22222068856E+02  0.22258329772E+02  0.12700000000E+01 0. -1.
         -4   -1    0    0    0  501 -0.00000000000E+00 -0.00000000000E+00 -0.17560153555E+03  0.17560612799E+03  0.12700000000E+01 0. -1.
         25    2    1    2    0    0  0.00000000000E+00  0.00000000000E+00 -0.15337946670E+03  0.19786445777E+03  0.12500033137E+03 0.  0.
    9000005    1    3    3    0    0 -0.21695632913E+02  0.20296197781E+02  0.10336351961E+02  0.31471833498E+02  0.10000000000E+01 0.  0.
    9000005    1    3    3    0    0  0.21695632913E+02 -0.20296197781E+02 -0.16371581866E+03  0.16639262427E+03  0.10000000000E+01 0.  0.
<mgrwt>
<rscale>  0 0.12500033E+03</rscale>
<asrwt>0</asrwt>
<pdfrwt beam="1">  1        4 0.55606244E-02 0.12500033E+03</pdfrwt>
<pdfrwt beam="2">  1       -4 0.43905486E-01 0.12500033E+03</pdfrwt>
<totfact> 0.16407785E+03</totfact>
</mgrwt>
</event>
<event>
 5    1  0.1423270E-002  0.1249979E+03  0.7818608E-02  0.1235073E+00
         -4   -1    0    0    0  501 -0.00000000000E+00  0.00000000000E+00  0.39231518938E+02  0.39252069732E+02  0.12700000000E+01 0.  1.
          4   -1    0    0  501    0  0.00000000000E+00 -0.00000000000E+00 -0.99515164510E+02  0.99523267970E+02  0.12700000000E+01 0.  1.
         25    2    1    2    0    0  0.00000000000E+00  0.00000000000E+00 -0.60283645571E+02  0.13877533770E+03  0.12499790571E+03 0.  0.
    9000005    1    3    3    0    0  0.33623590989E+02 -0.45357042319E+02 -0.40712089069E+00  0.56470991724E+02  0.10000000000E+01 0.  0.
    9000005    1    3    3    0    0 -0.33623590989E+02  0.45357042319E+02 -0.59876524680E+02  0.82304345977E+02  0.10000000000E+01 0.  0.
<mgrwt>
<rscale>  0 0.12499791E+03</rscale>
<asrwt>0</asrwt>
<pdfrwt beam="2">  1        4 0.24882372E-01 0.12499791E+03</pdfrwt>
<pdfrwt beam="1">  1       -4 0.98114617E-02 0.12499791E+03</pdfrwt>
<totfact> 0.19104103E+03</totfact>
</mgrwt>
</event>
<event>
 5    1  0.1423270E-002  0.1249954E+03  0.7818608E-02  0.1235076E+00
         -4   -1    0    0    0  501 -0.00000000000E+00  0.00000000000E+00  0.79212858011E+02  0.79223038153E+02  0.12700000000E+01 0. -1.
          4   -1    0    0  501    0  0.00000000000E+00 -0.00000000000E+00 -0.49288179797E+02  0.49304539017E+02  0.12700000000E+01 0. -1.
         25    2    1    2    0    0  0.00000000000E+00  0.00000000000E+00  0.29924678214E+02  0.12852757717E+03  0.12499540682E+03 0.  0.
    9000005    1    3    3    0    0 -0.39854917145E+02 -0.32236220022E+02  0.51712683192E+02  0.72820257517E+02  0.10000000000E+01 0.  0.
    9000005    1    3    3    0    0  0.39854917145E+02  0.32236220022E+02 -0.21788004978E+02  0.55707319653E+02  0.10000000000E+01 0.  0.
<mgrwt>
<rscale>  0 0.12499541E+03</rscale>
<asrwt>0</asrwt>
<pdfrwt beam="2">  1        4 0.12325362E-01 0.12499541E+03</pdfrwt>
<pdfrwt beam="1">  1       -4 0.19806532E-01 0.12499541E+03</pdfrwt>
<totfact> 0.19645983E+03</totfact>
</mgrwt>
</event>
<event>
 5    1  0.1423270E-002  0.1250017E+03  0.7818608E-02  0.1235067E+00
         -4   -1    0    0    0  501 -0.00000000000E+00  0.00000000000E+00  0.19354607550E+04  0.19354611716E+04  0.12700000000E+01 0.  1.
          4   -1    0    0  501    0  0.00000000000E+00 -0.00000000000E+00 -0.18180655303E+01  0.22177155527E+01  0.12700000000E+01 0.  1.
         25    2    1    2    0    0  0.00000000000E+00  0.00000000000E+00  0.19336426894E+04  0.19376788872E+04  0.12500167780E+03 0.  0.
    9000005    1    3    3    0    0  0.49101015882E+02 -0.32982426084E+02  0.65424785084E+03  0.65691704234E+03  0.10000000000E+01 0.  0.
    9000005    1    3    3    0    0 -0.49101015882E+02  0.32982426084E+02  0.12793948386E+04  0.12807618449E+04  0.10000000000E+01 0.  0.
<mgrwt>
<rscale>  0 0.12500168E+03</rscale>
<asrwt>0</asrwt>
<pdfrwt beam="2">  1        4 0.50452459E-03 0.12500168E+03</pdfrwt>
<pdfrwt beam="1">  1       -4 0.48391532E+00 0.12500168E+03</pdfrwt>
<totfact> 0.32090843E+01</totfact>
</mgrwt>
</event>
<event>
 5    1  0.1423270E-002  0.1250007E+03  0.7818608E-02  0.1235068E+00
         -4   -1    0    0    0  501 -0.00000000000E+00  0.00000000000E+00  0.39839824950E+02  0.39860062118E+02  0.12700000000E+01 0. -1.
          4   -1    0    0  501    0  0.00000000000E+00 -0.00000000000E+00 -0.98000745697E+02  0.98008974371E+02  0.12700000000E+01 0. -1.
         25    2    1    2    0    0  0.00000000000E+00  0.00000000000E+00 -0.58160920747E+02  0.13786903649E+03  0.12500071408E+03 0.  0.
    9000005    1    3    3    0    0  0.50155123741E+02  0.32084284905E+01  0.11884209593E+02  0.51653314400E+02  0.10000000000E+01 0.  0.
    9000005    1    3    3    0    0 -0.50155123741E+02 -0.32084284905E+01 -0.70045130340E+02  0.86215722088E+02  0.10000000000E+01 0.  0.
<mgrwt>
<rscale>  0 0.12500071E+03</rscale>
<asrwt>0</asrwt>
<pdfrwt beam="2">  1        4 0.24503744E-01 0.12500071E+03</pdfrwt>
<pdfrwt beam="1">  1       -4 0.99635147E-02 0.12500071E+03</pdfrwt>
<totfact> 0.19149576E+03</totfact>
</mgrwt>
</event>
<event>
 5    1  0.1423270E-002  0.1249999E+03  0.7818608E-02  0.1235069E+00
         -4   -1    0    0    0  501 -0.00000000000E+00  0.00000000000E+00  0.15925276383E+03  0.15925782771E+03  0.12700000000E+01 0.  1.
          4   -1    0    0  501    0  0.00000000000E+00 -0.00000000000E+00 -0.24506681995E+02  0.24539567282E+02  0.12700000000E+01 0.  1.
         25    2    1    2    0    0  0.00000000000E+00  0.00000000000E+00  0.13474608184E+03  0.18379739500E+03  0.12499990335E+03 0.  0.
    9000005    1    3    3    0    0 -0.29954446544E+02  0.39603979066E+02  0.11585720850E+02  0.50999734835E+02  0.10000000000E+01 0.  0.
    9000005    1    3    3    0    0  0.29954446544E+02 -0.39603979066E+02  0.12316036099E+03  0.13279766016E+03  0.10000000000E+01 0.  0.
<mgrwt>
<rscale>  0 0.12499990E+03</rscale>
<asrwt>0</asrwt>
<pdfrwt beam="2">  1        4 0.61314143E-02 0.12499990E+03</pdfrwt>
<pdfrwt beam="1">  1       -4 0.39817934E-01 0.12499990E+03</pdfrwt>
<totfact> 0.16992097E+03</totfact>
</mgrwt>
</event>
<event>
 5    1  0.1423270E-002  0.1249992E+03  0.7818608E-02  0.1235070E+00
         -4   -1    0    0    0  501 -0.00000000000E+00  0.00000000000E+00  0.17558792902E+02  0.17604661547E+02  0.12700000000E+01 0. -1.
          4   -1    0    0  501    0  0.00000000000E+00 -0.00000000000E+00 -0.22212631763E+03  0.22212994819E+03  0.12700000000E+01 0. -1.
         25    2    1    2    0    0  0.00000000000E+00  0.00000000000E+00 -0.20456752473E+03  0.23973460974E+03  0.12499924373E+03 0.  0.
    9000005    1    3    3    0    0  0.53948205207E+02 -0.16143926306E+02 -0.50317565058E+02  0.75524119028E+02  0.10000000000E+01 0.  0.
    9000005    1    3    3    0    0 -0.53948205207E+02  0.16143926306E+02 -0.15424995967E+03  0.16421049071E+03  0.10000000000E+01 0.  0.
<mgrwt>
<rscale>  0 0.12499924E+03</rscale>
<asrwt>0</asrwt>
<pdfrwt beam="2">  1        4 0.55537758E-01 0.12499924E+03</pdfrwt>
<pdfrwt beam="1">  1       -4 0.43958863E-02 0.12499924E+03</pdfrwt>
<totfact> 0.14845859E+03</totfact>
</mgrwt>
</event>
<event>
 5    1  0.1423270E-002  0.1249970E+03  0.7818608E-02  0.1235074E+00
         -4   -1    0    0    0  501 -0.00000000000E+00  0.00000000000E+00  0.59532458175E+03  0.59532593639E+03  0.12700000000E+01 0. -1.
          4   -1    0    0  501    0  0.00000000000E+00 -0.00000000000E+00 -0.64983969043E+01  0.66213338782E+01  0.12700000000E+01 0. -1.
         25    2    1    2    0    0  0.00000000000E+00  0.00000000000E+00  0.58882618484E+03  0.60194727026E+03  0.12499696085E+03 0.  0.
    9000005    1    3    3    0    0  0.38350654701E+02 -0.44297309534E+02  0.18978545429E+03  0.19862664225E+03  0.10000000000E+01 0.  0.
    9000005    1    3    3    0    0 -0.38350654701E+02  0.44297309534E+02  0.39904073055E+03  0.40332062802E+03  0.10000000000E+01 0.  0.
<mgrwt>
<rscale>  0 0.12499696E+03</rscale>
<asrwt>0</asrwt>
<pdfrwt beam="2">  1        4 0.16401361E-02 0.12499696E+03</pdfrwt>
<pdfrwt beam="1">  1       -4 0.14884665E+00 0.12499696E+03</pdfrwt>
<totfact> 0.73263481E+02</totfact>
</mgrwt>
</event>
<event>
 5    1  0.1423270E-002  0.1249969E+03  0.7818608E-02  0.1235074E+00
         -4   -1    0    0    0  501 -0.00000000000E+00  0.00000000000E+00  0.19534886048E+03  0.19535298869E+03  0.12700000000E+01 0. -1.
          4   -1    0    0  501    0  0.00000000000E+00 -0.00000000000E+00 -0.19970767453E+02  0.20011108231E+02  0.12700000000E+01 0. -1.
         25    2    1    2    0    0  0.00000000000E+00  0.00000000000E+00  0.17537809303E+03  0.21536409692E+03  0.12499687488E+03 0.  0.
    9000005    1    3    3    0    0  0.97806563303E+01 -0.56528522798E+02  0.13037941294E+03  0.14244622300E+03  0.10000000000E+01 0.  0.
    9000005    1    3    3    0    0 -0.97806563303E+01  0.56528522798E+02  0.44998680086E+02  0.72917873923E+02  0.10000000000E+01 0.  0.
<mgrwt>
<rscale>  0 0.12499687E+03</rscale>
<asrwt>0</asrwt>
<pdfrwt beam="2">  1        4 0.49982506E-02 0.12499687E+03</pdfrwt>
<pdfrwt beam="1">  1       -4 0.48842773E-01 0.12499687E+03</pdfrwt>
<totfact> 0.15725914E+03</totfact>
</mgrwt>
</event>
<event>
 5    1  0.1423270E-002  0.1250003E+03  0.7818608E-02  0.1235069E+00
         -4   -1    0    0    0  501 -0.00000000000E+00  0.00000000000E+00  0.28540788161E+03  0.28541070720E+03  0.12700000000E+01 0. -1.
          4   -1    0    0  501    0  0.00000000000E+00 -0.00000000000E+00 -0.13654264929E+02  0.13713199872E+02  0.12700000000E+01 0. -1.
         25    2    1    2    0    0  0.00000000000E+00  0.00000000000E+00  0.27175361668E+03  0.29912390708E+03  0.12500033441E+03 0.  0.
    9000005    1    3    3    0    0  0.52114875935E+02  0.17306442645E+02  0.20725829310E+03  0.21441192437E+03  0.10000000000E+01 0.  0.
    9000005    1    3    3    0    0 -0.52114875935E+02 -0.17306442645E+02  0.64495323583E+02  0.84711982711E+02  0.10000000000E+01 0.  0.
<mgrwt>
<rscale>  0 0.12500033E+03</rscale>
<asrwt>0</asrwt>
<pdfrwt beam="2">  1        4 0.34212864E-02 0.12500033E+03</pdfrwt>
<pdfrwt beam="1">  1       -4 0.71359688E-01 0.12500033E+03</pdfrwt>
<totfact> 0.12995546E+03</totfact>
</mgrwt>
</event>
<event>
 5    1  0.1423270E-002  0.1250003E+03  0.7818608E-02  0.1235069E+00
         -4   -1    0    0    0  501 -0.00000000000E+00  0.00000000000E+00  0.26613756817E+03  0.26614059835E+03  0.12700000000E+01 0. -1.
          4   -1    0    0  501    0  0.00000000000E+00 -0.00000000000E+00 -0.14647038040E+02  0.14701993856E+02  0.12700000000E+01 0. -1.
         25    2    1    2    0    0  0.00000000000E+00  0.00000000000E+00  0.25149053013E+03  0.28084259221E+03  0.12500029941E+03 0.  0.
    9000005    1    3    3    0    0  0.95847752531E+01 -0.12550878384E+02  0.26159151775E+03  0.26206967513E+03  0.10000000000E+01 0.  0.
    9000005    1    3    3    0    0 -0.95847752531E+01  0.12550878384E+02 -0.10100987617E+02  0.18772917080E+02  0.10000000000E+01 0.  0.
<mgrwt>
<rscale>  0 0.12500030E+03</rscale>
<asrwt>0</asrwt>
<pdfrwt beam="2">  1        4 0.36690077E-02 0.12500030E+03</pdfrwt>
<pdfrwt beam="1">  1       -4 0.66541641E-01 0.12500030E+03</pdfrwt>
<totfact> 0.13525396E+03</totfact>
</mgrwt>
</event>
<event>
 5    1  0.1423270E-002  0.1250013E+03  0.7818608E-02  0.1235067E+00
          4   -1    0    0  501    0  0.00000000000E+00  0.00000000000E+00  0.49656704259E+02  0.49672942111E+02  0.12700000000E+01 0. -1.
         -4   -1    0    0    0  501 -0.00000000000E+00 -0.00000000000E+00 -0.78632513176E+02  0.78642768443E+02  0.12700000000E+01 0. -1.
         25    2    1    2    0    0  0.00000000000E+00  0.00000000000E+00 -0.28975808917E+02  0.12831571055E+03  0.12500129628E+03 0.  0.
    9000005    1    3    3    0    0 -0.45510047271E+02  0.12783707583E+02 -0.56446428063E+02  0.73632783617E+02  0.10000000000E+01 0.  0.
    9000005    1    3    3    0    0  0.45510047271E+02 -0.12783707583E+02  0.27470619146E+02  0.54682926937E+02  0.10000000000E+01 0.  0.
<mgrwt>
<rscale>  0 0.12500130E+03</rscale>
<asrwt>0</asrwt>
<pdfrwt beam="1">  1        4 0.12417488E-01 0.12500130E+03</pdfrwt>
<pdfrwt beam="2">  1       -4 0.19661440E-01 0.12500130E+03</pdfrwt>
<totfact> 0.19654779E+03</totfact>
</mgrwt>
</event>
<event>
 5    1  0.1423270E-002  0.1249998E+03  0.7818608E-02  0.1235070E+00
         -4   -1    0    0    0  501 -0.00000000000E+00  0.00000000000E+00  0.47462172124E+01  0.49131942591E+01  0.12700000000E+01 0.  1.
          4   -1    0    0  501    0  0.00000000000E+00 -0.00000000000E+00 -0.80862663855E+03  0.80862763585E+03  0.12700000000E+01 0.  1.
         25    2    1    2    0    0  0.00000000000E+00  0.00000000000E+00 -0.80388042133E+03  0.81354083011E+03  0.12499980183E+03 0.  0.
    9000005    1    3    3    0    0 -0.18672547407E+02  0.44418879375E+01 -0.14880529791E+02  0.24306883017E+02  0.10000000000E+01 0.  0.
    9000005    1    3    3    0    0  0.18672547407E+02 -0.44418879375E+01 -0.78899989154E+03  0.78923394710E+03  0.10000000000E+01 0.  0.
<mgrwt>
<rscale>  0 0.12499980E+03</rscale>
<asrwt>0</asrwt>
<pdfrwt beam="2">  1        4 0.20217719E+00 0.12499980E+03</pdfrwt>
<pdfrwt beam="1">  1       -4 0.12075539E-02 0.12499980E+03</pdfrwt>
<totfact> 0.51295680E+02</totfact>
</mgrwt>
</event>
<event>
 5    1  0.1423270E-002  0.1250012E+03  0.7818608E-02  0.1235067E+00
         -4   -1    0    0    0  501 -0.00000000000E+00  0.00000000000E+00  0.55139301620E+01  0.56582970788E+01  0.12700000000E+01 0. -1.
          4   -1    0    0  501    0  0.00000000000E+00 -0.00000000000E+00 -0.69914685945E+03  0.69914801293E+03  0.12700000000E+01 0. -1.
         25    2    1    2    0    0  0.00000000000E+00  0.00000000000E+00 -0.69363292929E+03  0.70480631001E+03  0.12500117612E+03 0.  0.
    9000005    1    3    3    0    0 -0.31680441643E+02 -0.39144436960E+02 -0.55546659225E+03  0.55774552659E+03  0.10000000000E+01 0.  0.
    9000005    1    3    3    0    0  0.31680441643E+02  0.39144436960E+02 -0.13816633704E+03  0.14706078342E+03  0.10000000000E+01 0.  0.
<mgrwt>
<rscale>  0 0.12500118E+03</rscale>
<asrwt>0</asrwt>
<pdfrwt beam="2">  1        4 0.17480461E+00 0.12500118E+03</pdfrwt>
<pdfrwt beam="1">  1       -4 0.13966750E-02 0.12500118E+03</pdfrwt>
<totfact> 0.61564321E+02</totfact>
</mgrwt>
</event>
<event>
 5    1  0.1423270E-002  0.1250004E+03  0.7818608E-02  0.1235069E+00
          4   -1    0    0  501    0  0.00000000000E+00  0.00000000000E+00  0.32953231973E+02  0.32977695454E+02  0.12700000000E+01 0. -1.
         -4   -1    0    0    0  501 -0.00000000000E+00 -0.00000000000E+00 -0.11846815860E+03  0.11847496572E+03  0.12700000000E+01 0. -1.
         25    2    1    2    0    0  0.00000000000E+00  0.00000000000E+00 -0.85514926627E+02  0.15145266117E+03  0.12500042360E+03 0.  0.
    9000005    1    3    3    0    0 -0.13542069835E+02 -0.58696267903E+02 -0.22605353504E+02  0.64347816809E+02  0.10000000000E+01 0.  0.
    9000005    1    3    3    0    0  0.13542069835E+02  0.58696267903E+02 -0.62909573124E+02  0.87104844364E+02  0.10000000000E+01 0.  0.
<mgrwt>
<rscale>  0 0.12500042E+03</rscale>
<asrwt>0</asrwt>
<pdfrwt beam="1">  1        4 0.82422171E-02 0.12500042E+03</pdfrwt>
<pdfrwt beam="2">  1       -4 0.29620947E-01 0.12500042E+03</pdfrwt>
<totfact> 0.18467402E+03</totfact>
</mgrwt>
</event>
<event>
 5    1  0.1423270E-002  0.1250003E+03  0.7818608E-02  0.1235069E+00
         -4   -1    0    0    0  501 -0.00000000000E+00  0.00000000000E+00  0.10693023781E+03  0.10693777937E+03  0.12700000000E+01 0.  1.
          4   -1    0    0  501    0  0.00000000000E+00 -0.00000000000E+00 -0.36511157995E+02  0.36533239086E+02  0.12700000000E+01 0.  1.
         25    2    1    2    0    0  0.00000000000E+00  0.00000000000E+00  0.70419079813E+02  0.14347101846E+03  0.12500034535E+03 0.  0.
    9000005    1    3    3    0    0  0.36881018805E+02 -0.31505416228E+02  0.80433093594E+02  0.93932333862E+02  0.10000000000E+01 0.  0.
    9000005    1    3    3    0    0 -0.36881018805E+02  0.31505416228E+02 -0.10014013781E+02  0.49538684599E+02  0.10000000000E+01 0.  0.
<mgrwt>
<rscale>  0 0.12500035E+03</rscale>
<asrwt>0</asrwt>
<pdfrwt beam="2">  1        4 0.91314924E-02 0.12500035E+03</pdfrwt>
<pdfrwt beam="1">  1       -4 0.26736262E-01 0.12500035E+03</pdfrwt>
<totfact> 0.18864004E+03</totfact>
</mgrwt>
</event>
<event>
 5    1  0.1423270E-002  0.1250097E+03  0.7818608E-02  0.1235054E+00
          4   -1    0    0  501    0  0.00000000000E+00  0.00000000000E+00  0.19908392249E+03  0.19908797325E+03  0.12700000000E+01 0.  1.
         -4   -1    0    0    0  501 -0.00000000000E+00 -0.00000000000E+00 -0.19599379009E+02  0.19640482620E+02  0.12700000000E+01 0.  1.
         25    2    1    2    0    0  0.00000000000E+00  0.00000000000E+00  0.17948454348E+03  0.21872845587E+03  0.12500974386E+03 0.  0.
    9000005    1    3    3    0    0  0.53537016474E+02  0.22501047517E+02  0.49334261395E+02  0.76206158673E+02  0.10000000000E+01 0.  0.
    9000005    1    3    3    0    0 -0.53537016474E+02 -0.22501047517E+02  0.13015028208E+03  0.14252229720E+03  0.10000000000E+01 0.  0.
<mgrwt>
<rscale>  0 0.12500974E+03</rscale>
<asrwt>0</asrwt>
<pdfrwt beam="1">  1        4 0.49776624E-01 0.12500974E+03</pdfrwt>
<pdfrwt beam="2">  1       -4 0.49054891E-02 0.12500974E+03</pdfrwt>
<totfact> 0.15595103E+03</totfact>
</mgrwt>
</event>
<event>
 5    1  0.1423270E-002  0.1250016E+03  0.7818608E-02  0.1235067E+00
         -4   -1    0    0    0  501 -0.00000000000E+00  0.00000000000E+00  0.87416136031E+02  0.87425360958E+02  0.12700000000E+01 0.  1.
          4   -1    0    0  501    0  0.00000000000E+00 -0.00000000000E+00 -0.44666190252E+02  0.44684241648E+02  0.12700000000E+01 0.  1.
         25    2    1    2    0    0  0.00000000000E+00  0.00000000000E+00  0.42749945779E+02  0.13210960261E+03  0.12500155694E+03 0.  0.
    9000005    1    3    3    0    0 -0.56189049733E+02  0.16956903489E+02 -0.13070404570E+01  0.58715025680E+02  0.10000000000E+01 0.  0.
    9000005    1    3    3    0    0  0.56189049733E+02 -0.16956903489E+02  0.44056986236E+02  0.73394576925E+02  0.10000000000E+01 0.  0.
<mgrwt>
<rscale>  0 0.12500156E+03</rscale>
<asrwt>0</asrwt>
<pdfrwt beam="2">  1        4 0.11169957E-01 0.12500156E+03</pdfrwt>
<pdfrwt beam="1">  1       -4 0.21857443E-01 0.12500156E+03</pdfrwt>
<totfact> 0.19450921E+03</totfact>
</mgrwt>
</event>
<event>
 5    1  0.1423270E-002  0.1250025E+03  0.7818608E-02  0.1235065E+00
          4   -1    0    0  501    0  0.00000000000E+00  0.00000000000E+00  0.25717979426E+02  0.25749317773E+02  0.12700000000E+01 0. -1.
         -4   -1    0    0    0  501 -0.00000000000E+00 -0.00000000000E+00 -0.15176737695E+03  0.15177269058E+03  0.12700000000E+01 0. -1.
         25    2    1    2    0    0  0.00000000000E+00  0.00000000000E+00 -0.12604939752E+03  0.17752200835E+03  0.12500245131E+03 0.  0.
    9000005    1    3    3    0    0 -0.17093380118E+02  0.45570309605E+02 -0.11869317651E+03  0.12828837403E+03  0.10000000000E+01 0.  0.
    9000005    1    3    3    0    0  0.17093380118E+02 -0.45570309605E+02 -0.73562210158E+01  0.49233634326E+02  0.10000000000E+01 0.  0.
<mgrwt>
<rscale>  0 0.12500245E+03</rscale>
<asrwt>0</asrwt>
<pdfrwt beam="1">  1        4 0.64340768E-02 0.12500245E+03</pdfrwt>
<pdfrwt beam="2">  1       -4 0.37946423E-01 0.12500245E+03</pdfrwt>
<totfact> 0.17262033E+03</totfact>
</mgrwt>
</event>
<event>
 5    1  0.1423270E-002  0.1249973E+03  0.7818608E-02  0.1235074E+00
         -4   -1    0    0    0  501 -0.00000000000E+00  0.00000000000E+00  0.18200519891E+02  0.18244775260E+02  0.12700000000E+01 0. -1.
          4   -1    0    0  501    0  0.00000000000E+00 -0.00000000000E+00 -0.21430692986E+03  0.21431069289E+03  0.12700000000E+01 0. -1.
         25    2    1    2    0    0  0.00000000000E+00  0.00000000000E+00 -0.19610640997E+03  0.23255546815E+03  0.12499728691E+03 0.  0.
    9000005    1    3    3    0    0 -0.65322115260E+01  0.60408523335E+02 -0.70886253267E+02  0.93368733424E+02  0.10000000000E+01 0.  0.
    9000005    1    3    3    0    0  0.65322115260E+01 -0.60408523335E+02 -0.12522015670E+03  0.13918673473E+03  0.10000000000E+01 0.  0.
<mgrwt>
<rscale>  0 0.12499729E+03</rscale>
<asrwt>0</asrwt>
<pdfrwt beam="2">  1        4 0.53582727E-01 0.12499729E+03</pdfrwt>
<pdfrwt beam="1">  1       -4 0.45561329E-02 0.12499729E+03</pdfrwt>
<totfact> 0.15097372E+03</totfact>
</mgrwt>
</event>
<event>
 5    1  0.1423270E-002  0.1250000E+03  0.7818608E-02  0.1235069E+00
         -4   -1    0    0    0  501 -0.00000000000E+00  0.00000000000E+00  0.33130833093E+03  0.33131076506E+03  0.12700000000E+01 0. -1.
          4   -1    0    0  501    0  0.00000000000E+00 -0.00000000000E+00 -0.11753693264E+02  0.11822106637E+02  0.12700000000E+01 0. -1.
         25    2    1    2    0    0  0.00000000000E+00  0.00000000000E+00  0.31955463767E+03  0.34313287170E+03  0.12500000474E+03 0.  0.
    9000005    1    3    3    0    0  0.13419993162E+02  0.50483030556E+02  0.25393808532E+03  0.25925698402E+03  0.10000000000E+01 0.  0.
    9000005    1    3    3    0    0 -0.13419993162E+02 -0.50483030556E+02  0.65616552349E+02  0.83875887672E+02  0.10000000000E+01 0.  0.
<mgrwt>
<rscale>  0 0.12500000E+03</rscale>
<asrwt>0</asrwt>
<pdfrwt beam="2">  1        4 0.29472792E-02 0.12500000E+03</pdfrwt>
<pdfrwt beam="1">  1       -4 0.82835940E-01 0.12500000E+03</pdfrwt>
<totfact> 0.11842846E+03</totfact>
</mgrwt>
</event>
<event>
 5    1  0.1423270E-002  0.1249974E+03  0.7818608E-02  0.1235073E+00
          4   -1    0    0  501    0  0.00000000000E+00  0.00000000000E+00  0.21699818774E+02  0.21736950909E+02  0.12700000000E+01 0.  1.
         -4   -1    0    0    0  501 -0.00000000000E+00 -0.00000000000E+00 -0.17981213735E+03  0.17981662225E+03  0.12700000000E+01 0.  1.
         25    2    1    2    0    0  0.00000000000E+00  0.00000000000E+00 -0.15811231858E+03  0.20155357316E+03  0.12499735025E+03 0.  0.
    9000005    1    3    3    0    0 -0.40897710559E+02  0.80955454536E+01 -0.39956484847E+01  0.41894221463E+02  0.10000000000E+01 0.  0.
    9000005    1    3    3    0    0  0.40897710559E+02 -0.80955454536E+01 -0.15411667009E+03  0.15965935170E+03  0.10000000000E+01 0.  0.
<mgrwt>
<rscale>  0 0.12499735E+03</rscale>
<asrwt>0</asrwt>
<pdfrwt beam="1">  1        4 0.54301574E-02 0.12499735E+03</pdfrwt>
<pdfrwt beam="2">  1       -4 0.44958232E-01 0.12499735E+03</pdfrwt>
<totfact> 0.16261019E+03</totfact>
</mgrwt>
</event>
<event>
 5    1  0.1423270E-002  0.1250465E+03  0.7818608E-02  0.1234997E+00
          4   -1    0    0  501    0  0.00000000000E+00  0.00000000000E+00  0.26189149207E+02  0.26219924413E+02  0.12700000000E+01 0.  1.
         -4   -1    0    0    0  501 -0.00000000000E+00 -0.00000000000E+00 -0.14914522531E+03  0.14915063236E+03  0.12700000000E+01 0.  1.
         25    2    1    2    0    0  0.00000000000E+00  0.00000000000E+00 -0.12295607610E+03  0.17537055677E+03  0.12504653346E+03 0.  0.
    9000005    1    3    3    0    0  0.58118207584E+02  0.11014746043E+02 -0.33111645012E+02  0.67796989008E+02  0.10000000000E+01 0.  0.
    9000005    1    3    3    0    0 -0.58118207584E+02 -0.11014746043E+02 -0.89844431092E+02  0.10757356776E+03  0.10000000000E+01 0.  0.
<mgrwt>
<rscale>  0 0.12504653E+03</rscale>
<asrwt>0</asrwt>
<pdfrwt beam="1">  1        4 0.65518105E-02 0.12504653E+03</pdfrwt>
<pdfrwt beam="2">  1       -4 0.37290827E-01 0.12504653E+03</pdfrwt>
<totfact> 0.17338774E+03</totfact>
</mgrwt>
</event>
<event>
 5    1  0.1423270E-002  0.1249975E+03  0.7818608E-02  0.1235073E+00
         -4   -1    0    0    0  501 -0.00000000000E+00  0.00000000000E+00  0.55444763938E+01  0.56880680799E+01  0.12700000000E+01 0.  1.
          4   -1    0    0  501    0  0.00000000000E+00 -0.00000000000E+00 -0.69535177979E+03  0.69535293957E+03  0.12700000000E+01 0.  1.
         25    2    1    2    0    0  0.00000000000E+00  0.00000000000E+00 -0.68980730340E+03  0.70104100765E+03  0.12499751428E+03 0.  0.
    9000005    1    3    3    0    0  0.45849923670E+02  0.36078449903E+02 -0.21934164913E+03  0.22697054674E+03  0.10000000000E+01 0.  0.
    9000005    1    3    3    0    0 -0.45849923670E+02 -0.36078449903E+02 -0.47046565427E+03  0.47407046090E+03  0.10000000000E+01 0.  0.
<mgrwt>
<rscale>  0 0.12499751E+03</rscale>
<asrwt>0</asrwt>
<pdfrwt beam="2">  1        4 0.17385575E+00 0.12499751E+03</pdfrwt>
<pdfrwt beam="1">  1       -4 0.14042154E-02 0.12499751E+03</pdfrwt>
<totfact> 0.61960782E+02</totfact>
</mgrwt>
</event>
<event>
 5    1  0.1423270E-002  0.1250041E+03  0.7818608E-02  0.1235063E+00
         -4   -1    0    0    0  501 -0.00000000000E+00  0.00000000000E+00  0.53123785334E+03  0.53123937140E+03  0.12700000000E+01 0. -1.
          4   -1    0    0  501    0  0.00000000000E+00 -0.00000000000E+00 -0.72972148676E+01  0.74069052123E+01  0.12700000000E+01 0. -1.
         25    2    1    2    0    0  0.00000000000E+00  0.00000000000E+00  0.52394063847E+03  0.53864627661E+03  0.12500407458E+03 0.  0.
    9000005    1    3    3    0    0  0.61028076707E+02  0.55802167589E+01  0.31473433133E+03  0.32064663460E+03  0.10000000000E+01 0.  0.
    9000005    1    3    3    0    0 -0.61028076707E+02 -0.55802167589E+01  0.20920630714E+03  0.21799964200E+03  0.10000000000E+01 0.  0.
<mgrwt>
<rscale>  0 0.12500407E+03</rscale>
<asrwt>0</asrwt>
<pdfrwt beam="2">  1        4 0.18382053E-02 0.12500407E+03</pdfrwt>
<pdfrwt beam="1">  1       -4 0.13282333E+00 0.12500407E+03</pdfrwt>
<totfact> 0.81763715E+02</totfact>
</mgrwt>
</event>
<event>
 5    1  0.1423270E-002  0.1249983E+03  0.7818608E-02  0.1235072E+00
          4   -1    0    0  501    0  0.00000000000E+00  0.00000000000E+00  0.25825739153E+02  0.25856946896E+02  0.12700000000E+01 0.  1.
         -4   -1    0    0    0  501 -0.00000000000E+00 -0.00000000000E+00 -0.15112489041E+03  0.15113022663E+03  0.12700000000E+01 0.  1.
         25    2    1    2    0    0  0.00000000000E+00  0.00000000000E+00 -0.12529915126E+03  0.17698717353E+03  0.12499832914E+03 0.  0.
    9000005    1    3    3    0    0  0.39428070857E+02 -0.48204534523E+02 -0.69992661767E+02  0.93692169477E+02  0.10000000000E+01 0.  0.
    9000005    1    3    3    0    0 -0.39428070857E+02  0.48204534523E+02 -0.55306489493E+02  0.83295004053E+02  0.10000000000E+01 0.  0.
<mgrwt>
<rscale>  0 0.12499833E+03</rscale>
<asrwt>0</asrwt>
<pdfrwt beam="1">  1        4 0.64610032E-02 0.12499833E+03</pdfrwt>
<pdfrwt beam="2">  1       -4 0.37785788E-01 0.12499833E+03</pdfrwt>
<totfact> 0.17287094E+03</totfact>
</mgrwt>
</event>
<event>
 5    1  0.1423270E-002  0.1250004E+03  0.7818608E-02  0.1235069E+00
         -4   -1    0    0    0  501 -0.00000000000E+00  0.00000000000E+00  0.10446345345E+02  0.10523261427E+02  0.12700000000E+01 0. -1.
          4   -1    0    0  501    0  0.00000000000E+00 -0.00000000000E+00 -0.37248745349E+03  0.37248961852E+03  0.12700000000E+01 0. -1.
         25    2    1    2    0    0  0.00000000000E+00  0.00000000000E+00 -0.36204110815E+03  0.38301287995E+03  0.12500040888E+03 0.  0.
    9000005    1    3    3    0    0  0.91066738595E+01 -0.18042230868E+02 -0.36221242315E+03  0.36277719483E+03  0.10000000000E+01 0.  0.
    9000005    1    3    3    0    0 -0.91066738595E+01  0.18042230868E+02  0.17131500512E+00  0.20235685121E+02  0.10000000000E+01 0.  0.
<mgrwt>
<rscale>  0 0.12500041E+03</rscale>
<asrwt>0</asrwt>
<pdfrwt beam="2">  1        4 0.93131705E-01 0.12500041E+03</pdfrwt>
<pdfrwt beam="1">  1       -4 0.26214727E-02 0.12500041E+03</pdfrwt>
<totfact> 0.10927582E+03</totfact>
</mgrwt>
</event>
<event>
 5    1  0.1423270E-002  0.1249991E+03  0.7818608E-02  0.1235071E+00
          4   -1    0    0  501    0  0.00000000000E+00  0.00000000000E+00  0.53661827916E+02  0.53676854186E+02  0.12700000000E+01 0.  1.
         -4   -1    0    0    0  501 -0.00000000000E+00 -0.00000000000E+00 -0.72762036572E+02  0.72773119117E+02  0.12700000000E+01 0.  1.
         25    2    1    2    0    0  0.00000000000E+00  0.00000000000E+00 -0.19100208656E+02  0.12644997330E+03  0.12499911111E+03 0.  0.
    9000005    1    3    3    0    0 -0.40734309170E+02 -0.31557643722E+02  0.26215970024E+02  0.57822538038E+02  0.10000000000E+01 0.  0.
    9000005    1    3    3    0    0  0.40734309170E+02  0.31557643722E+02 -0.45316178680E+02  0.68627435265E+02  0.10000000000E+01 0.  0.
<mgrwt>
<rscale>  0 0.12499911E+03</rscale>
<asrwt>0</asrwt>
<pdfrwt beam="1">  1        4 0.13418721E-01 0.12499911E+03</pdfrwt>
<pdfrwt beam="2">  1       -4 0.18193773E-01 0.12499911E+03</pdfrwt>
<totfact> 0.19757034E+03</totfact>
</mgrwt>
</event>
<event>
 5    1  0.1423270E-002  0.1249959E+03  0.7818608E-02  0.1235076E+00
          4   -1    0    0  501    0  0.00000000000E+00  0.00000000000E+00  0.16794095658E+03  0.16794575849E+03  0.12700000000E+01 0. -1.
         -4   -1    0    0    0  501 -0.00000000000E+00 -0.00000000000E+00 -0.23235648672E+02  0.23270330234E+02  0.12700000000E+01 0. -1.
         25    2    1    2    0    0  0.00000000000E+00  0.00000000000E+00  0.14470530791E+03  0.19121608873E+03  0.12499586574E+03 0.  0.
    9000005    1    3    3    0    0 -0.45733848409E+02 -0.32006662394E+02  0.29382999885E+02  0.63090189492E+02  0.10000000000E+01 0.  0.
    9000005    1    3    3    0    0  0.45733848409E+02  0.32006662394E+02  0.11532230802E+03  0.12812589924E+03  0.10000000000E+01 0.  0.
<mgrwt>
<rscale>  0 0.12499587E+03</rscale>
<asrwt>0</asrwt>
<pdfrwt beam="1">  1        4 0.41990174E-01 0.12499587E+03</pdfrwt>
<pdfrwt beam="2">  1       -4 0.58138477E-02 0.12499587E+03</pdfrwt>
<totfact> 0.16681508E+03</totfact>
</mgrwt>
</event>
<event>
 5    1  0.1423270E-002  0.1249986E+03  0.7818608E-02  0.1235072E+00
         -4   -1    0    0    0  501 -0.00000000000E+00  0.00000000000E+00  0.40144394539E+02  0.40164478248E+02  0.12700000000E+01 0.  1.
          4   -1    0    0  501    0  0.00000000000E+00 -0.00000000000E+00 -0.97254182171E+02  0.97262474006E+02  0.12700000000E+01 0.  1.
         25    2    1    2    0    0  0.00000000000E+00  0.00000000000E+00 -0.57109787632E+02  0.13742695225E+03  0.12499855744E+03 0.  0.
    9000005    1    3    3    0    0 -0.18075213275E+02  0.49770213180E+02  0.79317574542E+01  0.53550912516E+02  0.10000000000E+01 0.  0.
    9000005    1    3    3    0    0  0.18075213275E+02 -0.49770213180E+02 -0.65041545087E+02  0.83876039738E+02  0.10000000000E+01 0.  0.
<mgrwt>
<rscale>  0 0.12499856E+03</rscale>
<asrwt>0</asrwt>
<pdfrwt beam="2">  1        4 0.24317092E-01 0.12499856E+03</pdfrwt>
<pdfrwt beam="1">  1       -4 0.10039646E-01 0.12499856E+03</pdfrwt>
<totfact> 0.19173404E+03</totfact>
</mgrwt>
</event>
<event>
 5    1  0.1423270E-002  0.1250010E+03  0.7818608E-02  0.1235068E+00
         -4   -1    0    0    0  501 -0.00000000000E+00  0.00000000000E+00  0.82704021562E+01  0.83673443712E+01  0.12700000000E+01 0.  1.
          4   -1    0    0  501    0  0.00000000000E+00 -0.00000000000E+00 -0.46947477369E+03  0.46947649146E+03  0.12700000000E+01 0.  1.
         25    2    1    2    0    0  0.00000000000E+00  0.00000000000E+00 -0.46120437153E+03  0.47784383583E+03  0.12500103647E+03 0.  0.
    9000005    1    3    3    0    0  0.60121331267E+01  0.57058489425E+02 -0.32528668477E+03  0.33030931602E+03  0.10000000000E+01 0.  0.
    9000005    1    3    3    0    0 -0.60121331267E+01 -0.57058489425E+02 -0.13591768676E+03  0.14753451981E+03  0.10000000000E+01 0.  0.
<mgrwt>
<rscale>  0 0.12500104E+03</rscale>
<asrwt>0</asrwt>
<pdfrwt beam="2">  1        4 0.11738094E+00 0.12500104E+03</pdfrwt>
<pdfrwt beam="1">  1       -4 0.20799346E-02 0.12500104E+03</pdfrwt>
<totfact> 0.91221386E+02</totfact>
</mgrwt>
</event>
<event>
 5    1  0.1423270E-002  0.1250006E+03  0.7818608E-02  0.1235068E+00
         -4   -1    0    0    0  501 -0.00000000000E+00  0.00000000000E+00  0.35123677240E+02  0.35146630036E+02  0.12700000000E+01 0.  1.
          4   -1    0    0  501    0  0.00000000000E+00 -0.00000000000E+00 -0.11115231176E+03  0.11115956688E+03  0.12700000000E+01 0.  1.
         25    2    1    2    0    0  0.00000000000E+00  0.00000000000E+00 -0.76028634517E+02  0.14630619692E+03  0.12500059996E+03 0.  0.
    9000005    1    3    3    0    0 -0.48830330955E+02 -0.36085013215E+01 -0.83464104386E+02  0.96771272720E+02  0.10000000000E+01 0.  0.
    9000005    1    3    3    0    0  0.48830330955E+02  0.36085013215E+01  0.74354698685E+01  0.49534924196E+02  0.10000000000E+01 0.  0.
<mgrwt>
<rscale>  0 0.12500060E+03</rscale>
<asrwt>0</asrwt>
<pdfrwt beam="2">  1        4 0.27791853E-01 0.12500060E+03</pdfrwt>
<pdfrwt beam="1">  1       -4 0.87846956E-02 0.12500060E+03</pdfrwt>
<totfact> 0.18721648E+03</totfact>
</mgrwt>
</event>
<event>
 5    1  0.1423270E-002  0.1249974E+03  0.7818608E-02  0.1235073E+00
          4   -1    0    0  501    0  0.00000000000E+00  0.00000000000E+00  0.27579019204E+02  0.27608245150E+02  0.12700000000E+01 0. -1.
         -4   -1    0    0    0  501 -0.00000000000E+00 -0.00000000000E+00 -0.14152541785E+03  0.14153111600E+03  0.12700000000E+01 0. -1.
         25    2    1    2    0    0  0.00000000000E+00  0.00000000000E+00 -0.11394639864E+03  0.16913936115E+03  0.12499736688E+03 0.  0.
    9000005    1    3    3    0    0  0.35195398463E+02 -0.34000126231E+02 -0.43855000747E+01  0.49142214720E+02  0.10000000000E+01 0.  0.
    9000005    1    3    3    0    0 -0.35195398463E+02  0.34000126231E+02 -0.10956089857E+03  0.11999714643E+03  0.10000000000E+01 0.  0.
<mgrwt>
<rscale>  0 0.12499737E+03</rscale>
<asrwt>0</asrwt>
<pdfrwt beam="1">  1        4 0.68991207E-02 0.12499737E+03</pdfrwt>
<pdfrwt beam="2">  1       -4 0.35385718E-01 0.12499737E+03</pdfrwt>
<totfact> 0.17637014E+03</totfact>
</mgrwt>
</event>
<event>
 5    1  0.1423270E-002  0.1250018E+03  0.7818608E-02  0.1235066E+00
          4   -1    0    0  501    0  0.00000000000E+00  0.00000000000E+00  0.10783752132E+02  0.10858278411E+02  0.12700000000E+01 0.  1.
         -4   -1    0    0    0  501 -0.00000000000E+00 -0.00000000000E+00 -0.36092203877E+03  0.36092427318E+03  0.12700000000E+01 0.  1.
         25    2    1    2    0    0  0.00000000000E+00  0.00000000000E+00 -0.35013828664E+03  0.37178255160E+03  0.12500178358E+03 0.  0.
    9000005    1    3    3    0    0  0.28098492837E+00  0.19284787587E+02 -0.35186331182E+03  0.35239292301E+03  0.10000000000E+01 0.  0.
    9000005    1    3    3    0    0 -0.28098492837E+00 -0.19284787587E+02  0.17250251749E+01  0.19389628585E+02  0.10000000000E+01 0.  0.
<mgrwt>
<rscale>  0 0.12500178E+03</rscale>
<asrwt>0</asrwt>
<pdfrwt beam="1">  1        4 0.27055343E-02 0.12500178E+03</pdfrwt>
<pdfrwt beam="2">  1       -4 0.90240065E-01 0.12500178E+03</pdfrwt>
<totfact> 0.11174051E+03</totfact>
</mgrwt>
</event>
<event>
 5    1  0.1423270E-002  0.1249986E+03  0.7818608E-02  0.1235072E+00
          4   -1    0    0  501    0  0.00000000000E+00  0.00000000000E+00  0.26119494479E+02  0.26150351658E+02  0.12700000000E+01 0.  1.
         -4   -1    0    0    0  501 -0.00000000000E+00 -0.00000000000E+00 -0.14942779985E+03  0.14943319668E+03  0.12700000000E+01 0.  1.
         25    2    1    2    0    0  0.00000000000E+00  0.00000000000E+00 -0.12330830537E+03  0.17558354834E+03  0.12499857708E+03 0.  0.
    9000005    1    3    3    0    0 -0.50906811520E+02  0.27105824567E+02 -0.27856037160E+02  0.64056131563E+02  0.10000000000E+01 0.  0.
    9000005    1    3    3    0    0  0.50906811520E+02 -0.27105824567E+02 -0.95452268215E+02  0.11152741677E+03  0.10000000000E+01 0.  0.
<mgrwt>
<rscale>  0 0.12499858E+03</rscale>
<asrwt>0</asrwt>
<pdfrwt beam="1">  1        4 0.65344058E-02 0.12499858E+03</pdfrwt>
<pdfrwt beam="2">  1       -4 0.37361479E-01 0.12499858E+03</pdfrwt>
<totfact> 0.17348679E+03</totfact>
</mgrwt>
</event>
<event>
 5    1  0.1423270E-002  0.1249992E+03  0.7818608E-02  0.1235071E+00
         -4   -1    0    0    0  501 -0.00000000000E+00  0.00000000000E+00  0.11048232657E+03  0.11048962569E+03  0.12700000000E+01 0. -1.
          4   -1    0    0  501    0  0.00000000000E+00 -0.00000000000E+00 -0.35336016677E+02  0.35358831635E+02  0.12700000000E+01 0. -1.
         25    2    1    2    0    0  0.00000000000E+00  0.00000000000E+00  0.75146309897E+02  0.14584845732E+03  0.12499921845E+03 0.  0.
    9000005    1    3    3    0    0 -0.38306544891E+02 -0.42123121098E+01  0.94972662324E+02  0.10249849532E+03  0.10000000000E+01 0.  0.
    9000005    1    3    3    0    0  0.38306544891E+02  0.42123121098E+01 -0.19826352428E+02  0.43349962000E+02  0.10000000000E+01 0.  0.
<mgrwt>
<rscale>  0 0.12499922E+03</rscale>
<asrwt>0</asrwt>
<pdfrwt beam="2">  1        4 0.88377685E-02 0.12499922E+03</pdfrwt>
<pdfrwt beam="1">  1       -4 0.27624346E-01 0.12499922E+03</pdfrwt>
<totfact> 0.18745155E+03</totfact>
</mgrwt>
</event>
<event>
 5    1  0.1423270E-002  0.1249983E+03  0.7818608E-02  0.1235072E+00
         -4   -1    0    0    0  501 -0.00000000000E+00  0.00000000000E+00  0.53462881170E+02  0.53477963340E+02  0.12700000000E+01 0. -1.
          4   -1    0    0  501    0  0.00000000000E+00 -0.00000000000E+00 -0.73031806093E+02  0.73042847708E+02  0.12700000000E+01 0. -1.
         25    2    1    2    0    0  0.00000000000E+00  0.00000000000E+00 -0.19568924924E+02  0.12652081105E+03  0.12499829121E+03 0.  0.
    9000005    1    3    3    0    0  0.31293717709E+02  0.50884020141E+02  0.87874034343E+01  0.60387902207E+02  0.10000000000E+01 0.  0.
    9000005    1    3    3    0    0 -0.31293717709E+02 -0.50884020141E+02 -0.28356328358E+02  0.66132908841E+02  0.10000000000E+01 0.  0.
<mgrwt>
<rscale>  0 0.12499829E+03</rscale>
<asrwt>0</asrwt>
<pdfrwt beam="2">  1        4 0.18261217E-01 0.12499829E+03</pdfrwt>
<pdfrwt beam="1">  1       -4 0.13368986E-01 0.12499829E+03</pdfrwt>
<totfact> 0.19753592E+03</totfact>
</mgrwt>
</event>
<event>
 5    1  0.1423270E-002  0.1249951E+03  0.7818608E-02  0.1235077E+00
          4   -1    0    0  501    0  0.00000000000E+00  0.00000000000E+00  0.41333457054E+01  0.43240544308E+01  0.12700000000E+01 0. -1.
         -4   -1    0    0    0  501 -0.00000000000E+00 -0.00000000000E+00 -0.92348362681E+03  0.92348450008E+03  0.12700000000E+01 0. -1.
         25    2    1    2    0    0  0.00000000000E+00  0.00000000000E+00 -0.91935028110E+03  0.92780855451E+03  0.12499509772E+03 0.  0.
    9000005    1    3    3    0    0  0.28839443946E+02  0.17332734458E+02 -0.68811595979E+02  0.76604000889E+02  0.10000000000E+01 0.  0.
    9000005    1    3    3    0    0 -0.28839443946E+02 -0.17332734458E+02 -0.85053868512E+03  0.85120455362E+03  0.10000000000E+01 0.  0.
<mgrwt>
<rscale>  0 0.12499510E+03</rscale>
<asrwt>0</asrwt>
<pdfrwt beam="1">  1        4 0.10572873E-02 0.12499510E+03</pdfrwt>
<pdfrwt beam="2">  1       -4 0.23089416E+00 0.12499510E+03</pdfrwt>
<totfact> 0.42194709E+02</totfact>
</mgrwt>
</event>
<event>
 5    1  0.1423270E-002  0.1249998E+03  0.7818608E-02  0.1235070E+00
          4   -1    0    0  501    0  0.00000000000E+00  0.00000000000E+00  0.25691251210E+03  0.25691565109E+03  0.12700000000E+01 0.  1.
         -4   -1    0    0    0  501 -0.00000000000E+00 -0.00000000000E+00 -0.15174791569E+02  0.15227842892E+02  0.12700000000E+01 0.  1.
         25    2    1    2    0    0  0.00000000000E+00  0.00000000000E+00  0.24173772053E+03  0.27214349398E+03  0.12499982315E+03 0.  0.
    9000005    1    3    3    0    0  0.99228084170E+01  0.31485082330E+02  0.23639060327E+03  0.23868659336E+03  0.10000000000E+01 0.  0.
    9000005    1    3    3    0    0 -0.99228084170E+01 -0.31485082330E+02  0.53471172654E+01  0.33456900622E+02  0.10000000000E+01 0.  0.
<mgrwt>
<rscale>  0 0.12499982E+03</rscale>
<asrwt>0</asrwt>
<pdfrwt beam="1">  1        4 0.64235151E-01 0.12499982E+03</pdfrwt>
<pdfrwt beam="2">  1       -4 0.38007217E-02 0.12499982E+03</pdfrwt>
<totfact> 0.13789398E+03</totfact>
</mgrwt>
</event>
<event>
 5    1  0.1423270E-002  0.1250023E+03  0.7818608E-02  0.1235066E+00
         -4   -1    0    0    0  501 -0.00000000000E+00  0.00000000000E+00  0.23336112132E+03  0.23336457710E+03  0.12700000000E+01 0. -1.
          4   -1    0    0  501    0  0.00000000000E+00 -0.00000000000E+00 -0.16712033045E+02  0.16760219225E+02  0.12700000000E+01 0. -1.
         25    2    1    2    0    0  0.00000000000E+00  0.00000000000E+00  0.21664908827E+03  0.25012479632E+03  0.12500234512E+03 0.  0.
    9000005    1    3    3    0    0 -0.44060376040E+02  0.42299498798E+02  0.13478207692E+03  0.14797895997E+03  0.10000000000E+01 0.  0.
    9000005    1    3    3    0    0  0.44060376040E+02 -0.42299498798E+02  0.81867011351E+02  0.10214583635E+03  0.10000000000E+01 0.  0.
<mgrwt>
<rscale>  0 0.12500235E+03</rscale>
<asrwt>0</asrwt>
<pdfrwt beam="2">  1        4 0.41844636E-02 0.12500235E+03</pdfrwt>
<pdfrwt beam="1">  1       -4 0.58346735E-01 0.12500235E+03</pdfrwt>
<totfact> 0.14493055E+03</totfact>
</mgrwt>
</event>
<event>
 5    1  0.1423270E-002  0.1249976E+03  0.7818608E-02  0.1235073E+00
         -4   -1    0    0    0  501 -0.00000000000E+00  0.00000000000E+00  0.19168382997E+02  0.19210408812E+02  0.12700000000E+01 0.  1.
          4   -1    0    0  501    0  0.00000000000E+00 -0.00000000000E+00 -0.20351106098E+03  0.20351502363E+03  0.12700000000E+01 0.  1.
         25    2    1    2    0    0  0.00000000000E+00  0.00000000000E+00 -0.18434267798E+03  0.22272543244E+03  0.12499758129E+03 0.  0.
    9000005    1    3    3    0    0 -0.65579876437E+01  0.21181135530E+02 -0.19627477069E+03  0.19752577886E+03  0.10000000000E+01 0.  0.
    9000005    1    3    3    0    0  0.65579876437E+01 -0.21181135530E+02  0.11932092705E+02  0.25199653581E+02  0.10000000000E+01 0.  0.
<mgrwt>
<rscale>  0 0.12499758E+03</rscale>
<asrwt>0</asrwt>
<pdfrwt beam="2">  1        4 0.50883507E-01 0.12499758E+03</pdfrwt>
<pdfrwt beam="1">  1       -4 0.47978449E-02 0.12499758E+03</pdfrwt>
<totfact> 0.15451642E+03</totfact>
</mgrwt>
</event>
<event>
 5    1  0.1423270E-002  0.1249982E+03  0.7818608E-02  0.1235072E+00
          4   -1    0    0  501    0  0.00000000000E+00  0.00000000000E+00  0.75871632674E+01  0.76927203541E+01  0.12700000000E+01 0. -1.
         -4   -1    0    0    0  501 -0.00000000000E+00 -0.00000000000E+00 -0.51117247306E+03  0.51117405071E+03  0.12700000000E+01 0. -1.
         25    2    1    2    0    0  0.00000000000E+00  0.00000000000E+00 -0.50358530980E+03  0.51886677106E+03  0.12499824747E+03 0.  0.
    9000005    1    3    3    0    0 -0.39144820522E+02  0.38973513806E+02 -0.13049495327E+03  0.14170809639E+03  0.10000000000E+01 0.  0.
    9000005    1    3    3    0    0  0.39144820522E+02 -0.38973513806E+02 -0.37309035652E+03  0.37715867468E+03  0.10000000000E+01 0.  0.
<mgrwt>
<rscale>  0 0.12499825E+03</rscale>
<asrwt>0</asrwt>
<pdfrwt beam="1">  1        4 0.19101844E-02 0.12499825E+03</pdfrwt>
<pdfrwt beam="2">  1       -4 0.12780639E+00 0.12499825E+03</pdfrwt>
<totfact> 0.84685505E+02</totfact>
</mgrwt>
</event>
<event>
 5    1  0.1423270E-002  0.1250007E+03  0.7818608E-02  0.1235068E+00
          4   -1    0    0  501    0  0.00000000000E+00  0.00000000000E+00  0.94261859299E+03  0.94261944853E+03  0.12700000000E+01 0.  1.
         -4   -1    0    0    0  501 -0.00000000000E+00 -0.00000000000E+00 -0.40459089092E+01  0.42405517213E+01  0.12700000000E+01 0.  1.
         25    2    1    2    0    0  0.00000000000E+00  0.00000000000E+00  0.93857268408E+03  0.94686000025E+03  0.12500070710E+03 0.  0.
    9000005    1    3    3    0    0  0.37874602344E+02 -0.43991354561E+02  0.29398663733E+03  0.29966459202E+03  0.10000000000E+01 0.  0.
    9000005    1    3    3    0    0 -0.37874602344E+02  0.43991354561E+02  0.64458604674E+03  0.64719540823E+03  0.10000000000E+01 0.  0.
<mgrwt>
<rscale>  0 0.12500071E+03</rscale>
<asrwt>0</asrwt>
<pdfrwt beam="1">  1        4 0.23567917E+00 0.12500071E+03</pdfrwt>
<pdfrwt beam="2">  1       -4 0.10359141E-02 0.12500071E+03</pdfrwt>
<totfact> 0.40801726E+02</totfact>
</mgrwt>
</event>
<event>
 5    1  0.1423270E-002  0.1250018E+03  0.7818608E-02  0.1235066E+00
          4   -1    0    0  501    0  0.00000000000E+00  0.00000000000E+00  0.92754687174E+02  0.92763381205E+02  0.12700000000E+01 0. -1.
         -4   -1    0    0    0  501 -0.00000000000E+00 -0.00000000000E+00 -0.42094732910E+02  0.42113886531E+02  0.12700000000E+01 0. -1.
         25    2    1    2    0    0  0.00000000000E+00  0.00000000000E+00  0.50659954264E+02  0.13487726774E+03  0.12500178553E+03 0.  0.
    9000005    1    3    3    0    0  0.14671157724E+02  0.40097778398E+02  0.74567117998E+02  0.85932123143E+02  0.10000000000E+01 0.  0.
    9000005    1    3    3    0    0 -0.14671157724E+02 -0.40097778398E+02 -0.23907163734E+02  0.48945144593E+02  0.10000000000E+01 0.  0.
<mgrwt>
<rscale>  0 0.12500179E+03</rscale>
<asrwt>0</asrwt>
<pdfrwt beam="1">  1        4 0.23192153E-01 0.12500179E+03</pdfrwt>
<pdfrwt beam="2">  1       -4 0.10527164E-01 0.12500179E+03</pdfrwt>
<totfact> 0.19304763E+03</totfact>
</mgrwt>
</event>
<event>
 5    1  0.1423270E-002  0.1250024E+03  0.7818608E-02  0.1235066E+00
          4   -1    0    0  501    0  0.00000000000E+00  0.00000000000E+00  0.22683300291E+02  0.22718825060E+02  0.12700000000E+01 0.  1.
         -4   -1    0    0    0  501 -0.00000000000E+00 -0.00000000000E+00 -0.17204221826E+03  0.17204690571E+03  0.12700000000E+01 0.  1.
         25    2    1    2    0    0  0.00000000000E+00  0.00000000000E+00 -0.14935891797E+03  0.19476573077E+03  0.12500241400E+03 0.  0.
    9000005    1    3    3    0    0 -0.19091655186E+01  0.36310164888E+02 -0.15387193304E+03  0.15811275965E+03  0.10000000000E+01 0.  0.
    9000005    1    3    3    0    0  0.19091655186E+01 -0.36310164888E+02  0.45130150654E+01  0.36652971123E+02  0.10000000000E+01 0.  0.
<mgrwt>
<rscale>  0 0.12500241E+03</rscale>
<asrwt>0</asrwt>
<pdfrwt beam="1">  1        4 0.56758521E-02 0.12500241E+03</pdfrwt>
<pdfrwt beam="2">  1       -4 0.43015577E-01 0.12500241E+03</pdfrwt>
<totfact> 0.16532874E+03</totfact>
</mgrwt>
</event>
<event>
 5    1  0.1423270E-002  0.1250012E+03  0.7818608E-02  0.1235067E+00
          4   -1    0    0  501    0  0.00000000000E+00  0.00000000000E+00  0.75460755376E+02  0.75471441632E+02  0.12700000000E+01 0. -1.
         -4   -1    0    0    0  501 -0.00000000000E+00 -0.00000000000E+00 -0.51744185421E+02  0.51759768401E+02  0.12700000000E+01 0. -1.
         25    2    1    2    0    0  0.00000000000E+00  0.00000000000E+00  0.23716569955E+02  0.12723121003E+03  0.12500122046E+03 0.  0.
    9000005    1    3    3    0    0 -0.23921140190E+02 -0.26183883543E+02 -0.40513596200E+02  0.53853209584E+02  0.10000000000E+01 0.  0.
    9000005    1    3    3    0    0  0.23921140190E+02  0.26183883543E+02  0.64230166156E+02  0.73378000448E+02  0.10000000000E+01 0.  0.
<mgrwt>
<rscale>  0 0.12500122E+03</rscale>
<asrwt>0</asrwt>
<pdfrwt beam="1">  1        4 0.18868472E-01 0.12500122E+03</pdfrwt>
<pdfrwt beam="2">  1       -4 0.12939330E-01 0.12500122E+03</pdfrwt>
<totfact> 0.19713893E+03</totfact>
</mgrwt>
</event>
<event>
 5    1  0.1423270E-002  0.1250011E+03  0.7818608E-02  0.1235067E+00
          4   -1    0    0  501    0  0.00000000000E+00  0.00000000000E+00  0.25523743881E+02  0.25555320419E+02  0.12700000000E+01 0. -1.
         -4   -1    0    0    0  501 -0.00000000000E+00 -0.00000000000E+00 -0.15291775812E+03  0.15292303178E+03  0.12700000000E+01 0. -1.
         25    2    1    2    0    0  0.00000000000E+00  0.00000000000E+00 -0.12739401424E+03  0.17847835220E+03  0.12500114935E+03 0.  0.
    9000005    1    3    3    0    0 -0.48720065029E+02 -0.86288457761E+01 -0.91922861394E+01  0.50334876978E+02  0.10000000000E+01 0.  0.
    9000005    1    3    3    0    0  0.48720065029E+02  0.86288457761E+01 -0.11820172810E+03  0.12814347522E+03  0.10000000000E+01 0.  0.
<mgrwt>
<rscale>  0 0.12500115E+03</rscale>
<asrwt>0</asrwt>
<pdfrwt beam="1">  1        4 0.63855427E-02 0.12500115E+03</pdfrwt>
<pdfrwt beam="2">  1       -4 0.38234043E-01 0.12500115E+03</pdfrwt>
<totfact> 0.17220822E+03</totfact>
</mgrwt>
</event>
<event>
 5    1  0.1423270E-002  0.1249988E+03  0.7818608E-02  0.1235071E+00
         -4   -1    0    0    0  501 -0.00000000000E+00  0.00000000000E+00  0.43208562480E+03  0.43208749121E+03  0.12700000000E+01 0.  1.
          4   -1    0    0  501    0  0.00000000000E+00 -0.00000000000E+00 -0.89937791563E+01  0.90830041017E+01  0.12700000000E+01 0.  1.
         25    2    1    2    0    0  0.00000000000E+00  0.00000000000E+00  0.42309184564E+03  0.44117049531E+03  0.12499878432E+03 0.  0.
    9000005    1    3    3    0    0  0.48313515161E+02 -0.17576914901E+02  0.33692803099E+03  0.34082934403E+03  0.10000000000E+01 0.  0.
    9000005    1    3    3    0    0 -0.48313515161E+02  0.17576914901E+02  0.86163814651E+02  0.10034115128E+03  0.10000000000E+01 0.  0.
<mgrwt>
<rscale>  0 0.12499878E+03</rscale>
<asrwt>0</asrwt>
<pdfrwt beam="2">  1        4 0.22598312E-02 0.12499878E+03</pdfrwt>
<pdfrwt beam="1">  1       -4 0.10803279E+00 0.12499878E+03</pdfrwt>
<totfact> 0.97626806E+02</totfact>
</mgrwt>
</event>
<event>
 5    1  0.1423270E-002  0.1250006E+03  0.7818608E-02  0.1235068E+00
          4   -1    0    0  501    0  0.00000000000E+00  0.00000000000E+00  0.22572676134E+02  0.22608374728E+02  0.12700000000E+01 0. -1.
         -4   -1    0    0    0  501 -0.00000000000E+00 -0.00000000000E+00 -0.17287898078E+03  0.17288364554E+03  0.12700000000E+01 0. -1.
         25    2    1    2    0    0  0.00000000000E+00  0.00000000000E+00 -0.15030630464E+03  0.19549202027E+03  0.12500057909E+03 0.  0.
    9000005    1    3    3    0    0 -0.42909284869E+02  0.39004058228E+02 -0.38717874144E+02  0.69732324387E+02  0.10000000000E+01 0.  0.
    9000005    1    3    3    0    0  0.42909284869E+02 -0.39004058228E+02 -0.11158843050E+03  0.12575969588E+03  0.10000000000E+01 0.  0.
<mgrwt>
<rscale>  0 0.12500058E+03</rscale>
<asrwt>0</asrwt>
<pdfrwt beam="1">  1        4 0.56482150E-02 0.12500058E+03</pdfrwt>
<pdfrwt beam="2">  1       -4 0.43224787E-01 0.12500058E+03</pdfrwt>
<totfact> 0.16503932E+03</totfact>
</mgrwt>
</event>
<event>
 5    1  0.1423270E-002  0.1249996E+03  0.7818608E-02  0.1235070E+00
         -4   -1    0    0    0  501 -0.00000000000E+00  0.00000000000E+00  0.63650928832E+02  0.63663597457E+02  0.12700000000E+01 0. -1.
          4   -1    0    0  501    0  0.00000000000E+00 -0.00000000000E+00 -0.61344137684E+02  0.61357282601E+02  0.12700000000E+01 0. -1.
         25    2    1    2    0    0  0.00000000000E+00  0.00000000000E+00  0.23067911480E+01  0.12502088006E+03  0.12499959666E+03 0.  0.
    9000005    1    3    3    0    0  0.23666500429E+02  0.26045123240E+02  0.52802996853E+02  0.63463439584E+02  0.10000000000E+01 0.  0.
    9000005    1    3    3    0    0 -0.23666500429E+02 -0.26045123240E+02 -0.50496205705E+02  0.61557440474E+02  0.10000000000E+01 0.  0.
<mgrwt>
<rscale>  0 0.12499960E+03</rscale>
<asrwt>0</asrwt>
<pdfrwt beam="2">  1        4 0.15339261E-01 0.12499960E+03</pdfrwt>
<pdfrwt beam="1">  1       -4 0.15915959E-01 0.12499960E+03</pdfrwt>
<totfact> 0.19834110E+03</totfact>
</mgrwt>
</event>
<event>
 5    1  0.1423270E-002  0.1249999E+03  0.7818608E-02  0.1235069E+00
          4   -1    0    0  501    0  0.00000000000E+00  0.00000000000E+00  0.15993758979E+02  0.16044102539E+02  0.12700000000E+01 0. -1.
         -4   -1    0    0    0  501 -0.00000000000E+00 -0.00000000000E+00 -0.24379986690E+03  0.24380317471E+03  0.12700000000E+01 0. -1.
         25    2    1    2    0    0  0.00000000000E+00  0.00000000000E+00 -0.22780610792E+03  0.25984727725E+03  0.12499993876E+03 0.  0.
    9000005    1    3    3    0    0  0.11895854284E+02  0.60857190470E+02 -0.13002360714E+03  0.14405640352E+03  0.10000000000E+01 0.  0.
    9000005    1    3    3    0    0 -0.11895854284E+02 -0.60857190470E+02 -0.97782500780E+02  0.11579087373E+03  0.10000000000E+01 0.  0.
<mgrwt>
<rscale>  0 0.12499994E+03</rscale>
<asrwt>0</asrwt>
<pdfrwt beam="1">  1        4 0.40051469E-02 0.12499994E+03</pdfrwt>
<pdfrwt beam="2">  1       -4 0.60956661E-01 0.12499994E+03</pdfrwt>
<totfact> 0.14176078E+03</totfact>
</mgrwt>
</event>
<event>
 5    1  0.1423270E-002  0.1249995E+03  0.7818608E-02  0.1235070E+00
          4   -1    0    0  501    0  0.00000000000E+00  0.00000000000E+00  0.46561013553E+03  0.46561186755E+03  0.12700000000E+01 0.  1.
         -4   -1    0    0    0  501 -0.00000000000E+00 -0.00000000000E+00 -0.83396481104E+01  0.84357946042E+01  0.12700000000E+01 0.  1.
         25    2    1    2    0    0  0.00000000000E+00  0.00000000000E+00  0.45727048742E+03  0.47404766216E+03  0.12499954933E+03 0.  0.
    9000005    1    3    3    0    0 -0.20918069985E+02 -0.29875026000E+02  0.36187022956E+02  0.51386607796E+02  0.10000000000E+01 0.  0.
    9000005    1    3    3    0    0  0.20918069985E+02  0.29875026000E+02  0.42108346446E+03  0.42266105436E+03  0.10000000000E+01 0.  0.
<mgrwt>
<rscale>  0 0.12499955E+03</rscale>
<asrwt>0</asrwt>
<pdfrwt beam="1">  1        4 0.11641476E+00 0.12499955E+03</pdfrwt>
<pdfrwt beam="2">  1       -4 0.20971470E-02 0.12499955E+03</pdfrwt>
<totfact> 0.91854901E+02</totfact>
</mgrwt>
</event>
<event>
 5    1  0.1423270E-002  0.1249956E+03  0.7818608E-02  0.1235076E+00
         -4   -1    0    0    0  501 -0.00000000000E+00  0.00000000000E+00  0.19366242722E+03  0.19366659138E+03  0.12700000000E+01 0. -1.
          4   -1    0    0  501    0  0.00000000000E+00 -0.00000000000E+00 -0.20144612896E+02  0.20184606231E+02  0.12700000000E+01 0. -1.
         25    2    1    2    0    0  0.00000000000E+00  0.00000000000E+00  0.17351781433E+03  0.21385119761E+03  0.12499561125E+03 0.  0.
    9000005    1    3    3    0    0  0.46587738944E+02  0.48964557502E+01  0.15751909858E+03  0.16434007155E+03  0.10000000000E+01 0.  0.
    9000005    1    3    3    0    0 -0.46587738944E+02 -0.48964557502E+01  0.15998715747E+02  0.49511126066E+02  0.10000000000E+01 0.  0.
<mgrwt>
<rscale>  0 0.12499561E+03</rscale>
<asrwt>0</asrwt>
<pdfrwt beam="2">  1        4 0.50416729E-02 0.12499561E+03</pdfrwt>
<pdfrwt beam="1">  1       -4 0.48421126E-01 0.12499561E+03</pdfrwt>
<totfact> 0.15783641E+03</totfact>
</mgrwt>
</event>
<event>
 5    1  0.1423270E-002  0.1249949E+03  0.7818608E-02  0.1235077E+00
          4   -1    0    0  501    0  0.00000000000E+00  0.00000000000E+00  0.28587633863E+02  0.28615829708E+02  0.12700000000E+01 0. -1.
         -4   -1    0    0    0  501 -0.00000000000E+00 -0.00000000000E+00 -0.13653161497E+03  0.13653752153E+03  0.12700000000E+01 0. -1.
         25    2    1    2    0    0  0.00000000000E+00  0.00000000000E+00 -0.10794398110E+03  0.16515335124E+03  0.12499490537E+03 0.  0.
    9000005    1    3    3    0    0 -0.15948162936E+02 -0.15889390514E+02 -0.13099387006E+03  0.13291805982E+03  0.10000000000E+01 0.  0.
    9000005    1    3    3    0    0  0.15948162936E+02  0.15889390514E+02  0.23049888958E+02  0.32235291420E+02  0.10000000000E+01 0.  0.
<mgrwt>
<rscale>  0 0.12499491E+03</rscale>
<asrwt>0</asrwt>
<pdfrwt beam="1">  1        4 0.71511716E-02 0.12499491E+03</pdfrwt>
<pdfrwt beam="2">  1       -4 0.34137165E-01 0.12499491E+03</pdfrwt>
<totfact> 0.17820002E+03</totfact>
</mgrwt>
</event>
<event>
 5    1  0.1423270E-002  0.1250007E+03  0.7818608E-02  0.1235068E+00
         -4   -1    0    0    0  501 -0.00000000000E+00  0.00000000000E+00  0.22807898745E+03  0.22808252326E+03  0.12700000000E+01 0. -1.
          4   -1    0    0  501    0  0.00000000000E+00 -0.00000000000E+00 -0.17099722488E+02  0.17146819214E+02  0.12700000000E+01 0. -1.
         25    2    1    2    0    0  0.00000000000E+00  0.00000000000E+00  0.21097926496E+03  0.24522934248E+03  0.12500072066E+03 0.  0.
    9000005    1    3    3    0    0 -0.22301622124E+02  0.56556059462E+02  0.77104492702E+02  0.98193956056E+02  0.10000000000E+01 0.  0.
    9000005    1    3    3    0    0  0.22301622124E+02 -0.56556059462E+02  0.13387477226E+03  0.14703538642E+03  0.10000000000E+01 0.  0.
<mgrwt>
<rscale>  0 0.12500072E+03</rscale>
<asrwt>0</asrwt>
<pdfrwt beam="2">  1        4 0.42812598E-02 0.12500072E+03</pdfrwt>
<pdfrwt beam="1">  1       -4 0.57026075E-01 0.12500072E+03</pdfrwt>
<totfact> 0.14657736E+03</totfact>
</mgrwt>
</event>
<event>
 5    1  0.1423270E-002  0.1249993E+03  0.7818608E-02  0.1235070E+00
          4   -1    0    0  501    0  0.00000000000E+00  0.00000000000E+00  0.72781776369E+02  0.72792855909E+02  0.12700000000E+01 0.  1.
         -4   -1    0    0    0  501 -0.00000000000E+00 -0.00000000000E+00 -0.53647406736E+02  0.53662437044E+02  0.12700000000E+01 0.  1.
         25    2    1    2    0    0  0.00000000000E+00  0.00000000000E+00  0.19134369633E+02  0.12645529295E+03  0.12499926806E+03 0.  0.
    9000005    1    3    3    0    0  0.47556670532E+02  0.13956583163E+02 -0.28939039118E+02  0.57401142068E+02  0.10000000000E+01 0.  0.
    9000005    1    3    3    0    0 -0.47556670532E+02 -0.13956583163E+02  0.48073408751E+02  0.69054150886E+02  0.10000000000E+01 0.  0.
<mgrwt>
<rscale>  0 0.12499927E+03</rscale>
<asrwt>0</asrwt>
<pdfrwt beam="1">  1        4 0.18198708E-01 0.12499927E+03</pdfrwt>
<pdfrwt beam="2">  1       -4 0.13415115E-01 0.12499927E+03</pdfrwt>
<totfact> 0.19756675E+03</totfact>
</mgrwt>
</event>
<event>
 5    1  0.1423270E-002  0.1250035E+03  0.7818608E-02  0.1235064E+00
          4   -1    0    0  501    0  0.00000000000E+00  0.00000000000E+00  0.13601995118E+02  0.13661155558E+02  0.12700000000E+01 0.  1.
         -4   -1    0    0    0  501 -0.00000000000E+00 -0.00000000000E+00 -0.28651463928E+03  0.28651745396E+03  0.12700000000E+01 0.  1.
         25    2    1    2    0    0  0.00000000000E+00  0.00000000000E+00 -0.27291264416E+03  0.30017860952E+03  0.12500354502E+03 0.  0.
    9000005    1    3    3    0    0  0.24289080035E+01  0.26912412038E+02 -0.27177239547E+03  0.27311428460E+03  0.10000000000E+01 0.  0.
    9000005    1    3    3    0    0 -0.24289080035E+01 -0.26912412038E+02 -0.11402486928E+01  0.27064324911E+02  0.10000000000E+01 0.  0.
<mgrwt>
<rscale>  0 0.12500355E+03</rscale>
<asrwt>0</asrwt>
<pdfrwt beam="1">  1        4 0.34082466E-02 0.12500355E+03</pdfrwt>
<pdfrwt beam="2">  1       -4 0.71636387E-01 0.12500355E+03</pdfrwt>
<totfact> 0.12965001E+03</totfact>
</mgrwt>
</event>
<event>
 5    1  0.1423270E-002  0.1250011E+03  0.7818608E-02  0.1235068E+00
         -4   -1    0    0    0  501 -0.00000000000E+00  0.00000000000E+00  0.63568063022E+02  0.63580748158E+02  0.12700000000E+01 0. -1.
          4   -1    0    0  501    0  0.00000000000E+00 -0.00000000000E+00 -0.61425599686E+02  0.61438727174E+02  0.12700000000E+01 0. -1.
         25    2    1    2    0    0  0.00000000000E+00  0.00000000000E+00  0.21424633364E+01  0.12501947533E+03  0.12500111625E+03 0.  0.
    9000005    1    3    3    0    0 -0.29421459867E+02 -0.28655194280E+02  0.48179925607E+02  0.63317041083E+02  0.10000000000E+01 0.  0.
    9000005    1    3    3    0    0  0.29421459867E+02  0.28655194280E+02 -0.46037462271E+02  0.61702434249E+02  0.10000000000E+01 0.  0.
<mgrwt>
<rscale>  0 0.12500112E+03</rscale>
<asrwt>0</asrwt>
<pdfrwt beam="2">  1        4 0.15359627E-01 0.12500112E+03</pdfrwt>
<pdfrwt beam="1">  1       -4 0.15895242E-01 0.12500112E+03</pdfrwt>
<totfact> 0.19833481E+03</totfact>
</mgrwt>
</event>
<event>
 5    1  0.1423270E-002  0.1249988E+03  0.7818608E-02  0.1235071E+00
         -4   -1    0    0    0  501 -0.00000000000E+00  0.00000000000E+00  0.30694610434E+03  0.30694873166E+03  0.12700000000E+01 0. -1.
          4   -1    0    0  501    0  0.00000000000E+00 -0.00000000000E+00 -0.12691552324E+02  0.12754936315E+02  0.12700000000E+01 0. -1.
         25    2    1    2    0    0  0.00000000000E+00  0.00000000000E+00  0.29425455201E+03  0.31970366797E+03  0.12499877574E+03 0.  0.
    9000005    1    3    3    0    0  0.48309329586E+02 -0.38229768622E+02  0.17393595373E+03  0.18452648193E+03  0.10000000000E+01 0.  0.
    9000005    1    3    3    0    0 -0.48309329586E+02  0.38229768622E+02  0.12031859828E+03  0.13517718604E+03  0.10000000000E+01 0.  0.
<mgrwt>
<rscale>  0 0.12499878E+03</rscale>
<asrwt>0</asrwt>
<pdfrwt beam="2">  1        4 0.31811394E-02 0.12499878E+03</pdfrwt>
<pdfrwt beam="1">  1       -4 0.76744779E-01 0.12499878E+03</pdfrwt>
<totfact> 0.12436603E+03</totfact>
</mgrwt>
</event>
<event>
 5    1  0.1423270E-002  0.1250007E+03  0.7818608E-02  0.1235068E+00
          4   -1    0    0  501    0  0.00000000000E+00  0.00000000000E+00  0.60051080786E+02  0.60064508685E+02  0.12700000000E+01 0. -1.
         -4   -1    0    0    0  501 -0.00000000000E+00 -0.00000000000E+00 -0.65022590112E+02  0.65034991542E+02  0.12700000000E+01 0. -1.
         25    2    1    2    0    0  0.00000000000E+00  0.00000000000E+00 -0.49715093260E+01  0.12509950023E+03  0.12500067621E+03 0.  0.
    9000005    1    3    3    0    0 -0.27173981491E+02  0.55257147528E+02  0.81769934633E+01  0.62126007800E+02  0.10000000000E+01 0.  0.
    9000005    1    3    3    0    0  0.27173981491E+02 -0.55257147528E+02 -0.13148502789E+02  0.62973492428E+02  0.10000000000E+01 0.  0.
<mgrwt>
<rscale>  0 0.12500068E+03</rscale>
<asrwt>0</asrwt>
<pdfrwt beam="1">  1        4 0.15015999E-01 0.12500068E+03</pdfrwt>
<pdfrwt beam="2">  1       -4 0.16258876E-01 0.12500068E+03</pdfrwt>
<totfact> 0.19829346E+03</totfact>
</mgrwt>
</event>
<event>
 5    1  0.1423270E-002  0.1249990E+03  0.7818608E-02  0.1235071E+00
         -4   -1    0    0    0  501 -0.00000000000E+00  0.00000000000E+00  0.50863410414E+02  0.50879263153E+02  0.12700000000E+01 0. -1.
          4   -1    0    0  501    0  0.00000000000E+00 -0.00000000000E+00 -0.76764543182E+02  0.76775047964E+02  0.12700000000E+01 0. -1.
         25    2    1    2    0    0  0.00000000000E+00  0.00000000000E+00 -0.25901132767E+02  0.12765431112E+03  0.12499901787E+03 0.  0.
    9000005    1    3    3    0    0  0.44735524803E+02 -0.21379240851E+02  0.25894920087E+02  0.55945384127E+02  0.10000000000E+01 0.  0.
    9000005    1    3    3    0    0 -0.44735524803E+02  0.21379240851E+02 -0.51796052855E+02  0.71708926990E+02  0.10000000000E+01 0.  0.
<mgrwt>
<rscale>  0 0.12499902E+03</rscale>
<asrwt>0</asrwt>
<pdfrwt beam="2">  1        4 0.19194430E-01 0.12499902E+03</pdfrwt>
<pdfrwt beam="1">  1       -4 0.12719147E-01 0.12499902E+03</pdfrwt>
<totfact> 0.19691816E+03</totfact>
</mgrwt>
</event>
<event>
 5    1  0.1423270E-002  0.1249923E+03  0.7818608E-02  0.1235081E+00
         -4   -1    0    0    0  501 -0.00000000000E+00  0.00000000000E+00  0.47182026706E+03  0.47182197629E+03  0.12700000000E+01 0.  1.
          4   -1    0    0  501    0  0.00000000000E+00 -0.00000000000E+00 -0.82276409269E+01  0.83250810941E+01  0.12700000000E+01 0.  1.
         25    2    1    2    0    0  0.00000000000E+00  0.00000000000E+00  0.46359262613E+03  0.48014705738E+03  0.12499229459E+03 0.  0.
    9000005    1    3    3    0    0  0.39668635143E+01  0.43876118980E+02  0.61559777368E+02  0.75706380263E+02  0.10000000000E+01 0.  0.
    9000005    1    3    3    0    0 -0.39668635143E+01 -0.43876118980E+02  0.40203284876E+03  0.40444067712E+03  0.10000000000E+01 0.  0.
<mgrwt>
<rscale>  0 0.12499229E+03</rscale>
<asrwt>0</asrwt>
<pdfrwt beam="2">  1        4 0.20693040E-02 0.12499229E+03</pdfrwt>
<pdfrwt beam="1">  1       -4 0.11796746E+00 0.12499229E+03</pdfrwt>
<totfact> 0.90860132E+02</totfact>
</mgrwt>
</event>
<event>
 5    1  0.1423270E-002  0.1250170E+03  0.7818608E-02  0.1235043E+00
          4   -1    0    0  501    0  0.00000000000E+00  0.00000000000E+00  0.24436909868E+02  0.24469888923E+02  0.12700000000E+01 0.  1.
         -4   -1    0    0    0  501 -0.00000000000E+00 -0.00000000000E+00 -0.15975050261E+03  0.15975555072E+03  0.12700000000E+01 0.  1.
         25    2    1    2    0    0  0.00000000000E+00  0.00000000000E+00 -0.13531359275E+03  0.18422543964E+03  0.12501697576E+03 0.  0.
    9000005    1    3    3    0    0 -0.43347838581E+02  0.40972311850E+02 -0.95168052545E+02  0.11231973857E+03  0.10000000000E+01 0.  0.
    9000005    1    3    3    0    0  0.43347838581E+02 -0.40972311850E+02 -0.40145540201E+02  0.71905701067E+02  0.10000000000E+01 0.  0.
<mgrwt>
<rscale>  0 0.12501698E+03</rscale>
<asrwt>0</asrwt>
<pdfrwt beam="1">  1        4 0.61139813E-02 0.12501698E+03</pdfrwt>
<pdfrwt beam="2">  1       -4 0.39942376E-01 0.12501698E+03</pdfrwt>
<totfact> 0.16967122E+03</totfact>
</mgrwt>
</event>
<event>
 5    1  0.1423270E-002  0.1249876E+03  0.7818608E-02  0.1235089E+00
          4   -1    0    0  501    0  0.00000000000E+00  0.00000000000E+00  0.64697242159E+01  0.65931958434E+01  0.12700000000E+01 0. -1.
         -4   -1    0    0    0  501 -0.00000000000E+00 -0.00000000000E+00 -0.59782368636E+03  0.59782503534E+03  0.12700000000E+01 0. -1.
         25    2    1    2    0    0  0.00000000000E+00  0.00000000000E+00 -0.59135396215E+03  0.60441823118E+03  0.12498755793E+03 0.  0.
    9000005    1    3    3    0    0 -0.31188036046E+02 -0.19949870682E+02 -0.52257489300E+02  0.64051043087E+02  0.10000000000E+01 0.  0.
    9000005    1    3    3    0    0  0.31188036046E+02  0.19949870682E+02 -0.53909647285E+03  0.54036718809E+03  0.10000000000E+01 0.  0.
<mgrwt>
<rscale>  0 0.12498756E+03</rscale>
<asrwt>0</asrwt>
<pdfrwt beam="1">  1        4 0.16330357E-02 0.12498756E+03</pdfrwt>
<pdfrwt beam="2">  1       -4 0.14947134E+00 0.12498756E+03</pdfrwt>
<totfact> 0.72970403E+02</totfact>
</mgrwt>
</event>
<event>
 5    1  0.1423270E-002  0.1250019E+03  0.7818608E-02  0.1235066E+00
         -4   -1    0    0    0  501 -0.00000000000E+00  0.00000000000E+00  0.17291030989E+02  0.17337608043E+02  0.12700000000E+01 0. -1.
          4   -1    0    0  501    0  0.00000000000E+00 -0.00000000000E+00 -0.22556668955E+03  0.22557026474E+03  0.12700000000E+01 0. -1.
         25    2    1    2    0    0  0.00000000000E+00  0.00000000000E+00 -0.20827565856E+03  0.24290787278E+03  0.12500193883E+03 0.  0.
    9000005    1    3    3    0    0  0.32342466805E+02 -0.25593786396E+02 -0.19537243769E+03  0.19968091163E+03  0.10000000000E+01 0.  0.
    9000005    1    3    3    0    0 -0.32342466805E+02  0.25593786396E+02 -0.12903220865E+02  0.43226961145E+02  0.10000000000E+01 0.  0.
<mgrwt>
<rscale>  0 0.12500194E+03</rscale>
<asrwt>0</asrwt>
<pdfrwt beam="2">  1        4 0.56397932E-01 0.12500194E+03</pdfrwt>
<pdfrwt beam="1">  1       -4 0.43290275E-02 0.12500194E+03</pdfrwt>
<totfact> 0.14736138E+03</totfact>
</mgrwt>
</event>
<event>
 5    1  0.1423270E-002  0.1250001E+03  0.7818608E-02  0.1235069E+00
          4   -1    0    0  501    0  0.00000000000E+00  0.00000000000E+00  0.23493195241E+03  0.23493538509E+03  0.12700000000E+01 0. -1.
         -4   -1    0    0    0  501 -0.00000000000E+00 -0.00000000000E+00 -0.16599370025E+02  0.16647882304E+02  0.12700000000E+01 0. -1.
         25    2    1    2    0    0  0.00000000000E+00  0.00000000000E+00  0.21833258239E+03  0.25158326739E+03  0.12500009559E+03 0.  0.
    9000005    1    3    3    0    0 -0.40847215577E+01 -0.36340683751E+02  0.71751062902E+01  0.37280187714E+02  0.10000000000E+01 0.  0.
    9000005    1    3    3    0    0  0.40847215577E+01  0.36340683751E+02  0.21115747610E+03  0.21430307968E+03  0.10000000000E+01 0.  0.
<mgrwt>
<rscale>  0 0.12500010E+03</rscale>
<asrwt>0</asrwt>
<pdfrwt beam="1">  1        4 0.58739481E-01 0.12500010E+03</pdfrwt>
<pdfrwt beam="2">  1       -4 0.41563356E-02 0.12500010E+03</pdfrwt>
<totfact> 0.14445435E+03</totfact>
</mgrwt>
</event>
<event>
 5    1  0.1423270E-002  0.1249981E+03  0.7818608E-02  0.1235072E+00
         -4   -1    0    0    0  501 -0.00000000000E+00  0.00000000000E+00  0.59374461887E+01  0.60717515795E+01  0.12700000000E+01 0. -1.
          4   -1    0    0  501    0  0.00000000000E+00 -0.00000000000E+00 -0.65038789604E+03  0.65038913599E+03  0.12700000000E+01 0. -1.
         25    2    1    2    0    0  0.00000000000E+00  0.00000000000E+00 -0.64445044985E+03  0.65646088757E+03  0.12499805837E+03 0.  0.
    9000005    1    3    3    0    0  0.46305616008E+02 -0.12759698450E+02 -0.11227867488E+03  0.12212502123E+03  0.10000000000E+01 0.  0.
    9000005    1    3    3    0    0 -0.46305616008E+02  0.12759698450E+02 -0.53217177497E+03  0.53433586634E+03  0.10000000000E+01 0.  0.
<mgrwt>
<rscale>  0 0.12499806E+03</rscale>
<asrwt>0</asrwt>
<pdfrwt beam="2">  1        4 0.16261368E+00 0.12499806E+03</pdfrwt>
<pdfrwt beam="1">  1       -4 0.15013069E-02 0.12499806E+03</pdfrwt>
<totfact> 0.66779511E+02</totfact>
</mgrwt>
</event>
<event>
 5    1  0.1423270E-002  0.1250106E+03  0.7818608E-02  0.1235053E+00
         -4   -1    0    0    0  501 -0.00000000000E+00  0.00000000000E+00  0.82363864011E+01  0.83337243143E+01  0.12700000000E+01 0.  1.
          4   -1    0    0  501    0  0.00000000000E+00 -0.00000000000E+00 -0.47146333223E+03  0.47146504275E+03  0.12700000000E+01 0.  1.
         25    2    1    2    0    0  0.00000000000E+00  0.00000000000E+00 -0.46322694583E+03  0.47979876707E+03  0.12501061370E+03 0.  0.
    9000005    1    3    3    0    0 -0.16318709149E+02 -0.59359682887E+02 -0.27295802371E+03  0.27981593044E+03  0.10000000000E+01 0.  0.
    9000005    1    3    3    0    0  0.16318709149E+02  0.59359682887E+02 -0.19026892212E+03  0.19998283663E+03  0.10000000000E+01 0.  0.
<mgrwt>
<rscale>  0 0.12501061E+03</rscale>
<asrwt>0</asrwt>
<pdfrwt beam="2">  1        4 0.11787812E+00 0.12501061E+03</pdfrwt>
<pdfrwt beam="1">  1       -4 0.20714792E-02 0.12501061E+03</pdfrwt>
<totfact> 0.90879587E+02</totfact>
</mgrwt>
</event>
<event>
 5    1  0.1423270E-002  0.1249977E+03  0.7818608E-02  0.1235073E+00
          4   -1    0    0  501    0  0.00000000000E+00  0.00000000000E+00  0.25220314398E+03  0.25220634158E+03  0.12700000000E+01 0. -1.
         -4   -1    0    0    0  501 -0.00000000000E+00 -0.00000000000E+00 -0.15458595851E+02  0.15510676506E+02  0.12700000000E+01 0. -1.
         25    2    1    2    0    0  0.00000000000E+00  0.00000000000E+00  0.23674454813E+03  0.26771701809E+03  0.12499768280E+03 0.  0.
    9000005    1    3    3    0    0  0.18732991031E+02  0.59602339230E+02  0.11554595641E+03  0.13135917112E+03  0.10000000000E+01 0.  0.
    9000005    1    3    3    0    0 -0.18732991031E+02 -0.59602339230E+02  0.12119859171E+03  0.13635784696E+03  0.10000000000E+01 0.  0.
<mgrwt>
<rscale>  0 0.12499768E+03</rscale>
<asrwt>0</asrwt>
<pdfrwt beam="1">  1        4 0.63057696E-01 0.12499768E+03</pdfrwt>
<pdfrwt beam="2">  1       -4 0.38715587E-02 0.12499768E+03</pdfrwt>
<totfact> 0.13927399E+03</totfact>
</mgrwt>
</event>
<event>
 5    1  0.1423270E-002  0.1249934E+03  0.7818608E-02  0.1235080E+00
         -4   -1    0    0    0  501 -0.00000000000E+00  0.00000000000E+00  0.23669076107E+01  0.26861034302E+01  0.12700000000E+01 0. -1.
          4   -1    0    0  501    0  0.00000000000E+00 -0.00000000000E+00 -0.15456246132E+04  0.15456251350E+04  0.12700000000E+01 0. -1.
         25    2    1    2    0    0  0.00000000000E+00  0.00000000000E+00 -0.15432577056E+04  0.15483112384E+04  0.12499338012E+03 0.  0.
    9000005    1    3    3    0    0  0.40835409672E+02 -0.47033099524E+02 -0.70945434466E+03  0.71218404243E+03  0.10000000000E+01 0.  0.
    9000005    1    3    3    0    0 -0.40835409672E+02  0.47033099524E+02 -0.83380336096E+03  0.83612719599E+03  0.10000000000E+01 0.  0.
<mgrwt>
<rscale>  0 0.12499338E+03</rscale>
<asrwt>0</asrwt>
<pdfrwt beam="2">  1        4 0.38644287E+00 0.12499338E+03</pdfrwt>
<pdfrwt beam="1">  1       -4 0.63169690E-03 0.12499338E+03</pdfrwt>
<totfact> 0.10976361E+02</totfact>
</mgrwt>
</event>
<event>
 5    1  0.1423270E-002  0.1250001E+03  0.7818608E-02  0.1235069E+00
         -4   -1    0    0    0  501 -0.00000000000E+00  0.00000000000E+00  0.17542636512E+02  0.17588547290E+02  0.12700000000E+01 0. -1.
          4   -1    0    0  501    0  0.00000000000E+00 -0.00000000000E+00 -0.22233346452E+03  0.22233709170E+03  0.12700000000E+01 0. -1.
         25    2    1    2    0    0  0.00000000000E+00  0.00000000000E+00 -0.20479082801E+03  0.23992563899E+03  0.12500011603E+03 0.  0.
    9000005    1    3    3    0    0 -0.28974411649E+01  0.19915766427E+02 -0.21595248546E+03  0.21689054588E+03  0.10000000000E+01 0.  0.
    9000005    1    3    3    0    0  0.28974411649E+01 -0.19915766427E+02  0.11161657446E+02  0.23035093111E+02  0.10000000000E+01 0.  0.
<mgrwt>
<rscale>  0 0.12500012E+03</rscale>
<asrwt>0</asrwt>
<pdfrwt beam="2">  1        4 0.55589550E-01 0.12500012E+03</pdfrwt>
<pdfrwt beam="1">  1       -4 0.43918521E-02 0.12500012E+03</pdfrwt>
<totfact> 0.14838975E+03</totfact>
</mgrwt>
</event>
<event>
 5    1  0.1423270E-002  0.1250056E+03  0.7818608E-02  0.1235060E+00
          4   -1    0    0  501    0  0.00000000000E+00  0.00000000000E+00  0.58635486253E+03  0.58635623789E+03  0.12700000000E+01 0. -1.
         -4   -1    0    0    0  501 -0.00000000000E+00 -0.00000000000E+00 -0.66006060681E+01  0.67216739333E+01  0.12700000000E+01 0. -1.
         25    2    1    2    0    0  0.00000000000E+00  0.00000000000E+00  0.57975425647E+03  0.59307791183E+03  0.12500564630E+03 0.  0.
    9000005    1    3    3    0    0 -0.42384652798E+02 -0.44201825575E+02  0.23074444593E+03  0.23873470528E+03  0.10000000000E+01 0.  0.
    9000005    1    3    3    0    0  0.42384652798E+02  0.44201825575E+02  0.34900981053E+03  0.35434320655E+03  0.10000000000E+01 0.  0.
<mgrwt>
<rscale>  0 0.12500565E+03</rscale>
<asrwt>0</asrwt>
<pdfrwt beam="1">  1        4 0.14660404E+00 0.12500565E+03</pdfrwt>
<pdfrwt beam="2">  1       -4 0.16654567E-02 0.12500565E+03</pdfrwt>
<totfact> 0.74371271E+02</totfact>
</mgrwt>
</event>
<event>
 5    1  0.1423270E-002  0.1249981E+03  0.7818608E-02  0.1235072E+00
          4   -1    0    0  501    0  0.00000000000E+00  0.00000000000E+00  0.20900539211E+02  0.20939088789E+02  0.12700000000E+01 0.  1.
         -4   -1    0    0    0  501 -0.00000000000E+00 -0.00000000000E+00 -0.18667853288E+03  0.18668285282E+03  0.12700000000E+01 0.  1.
         25    2    1    2    0    0  0.00000000000E+00  0.00000000000E+00 -0.16577799366E+03  0.20762194161E+03  0.12499810980E+03 0.  0.
    9000005    1    3    3    0    0  0.55079688909E+02 -0.29517994522E+02 -0.82526105367E+02  0.10352121617E+03  0.10000000000E+01 0.  0.
    9000005    1    3    3    0    0 -0.55079688909E+02  0.29517994522E+02 -0.83251888297E+02  0.10410072543E+03  0.10000000000E+01 0.  0.
<mgrwt>
<rscale>  0 0.12499811E+03</rscale>
<asrwt>0</asrwt>
<pdfrwt beam="1">  1        4 0.52304941E-02 0.12499811E+03</pdfrwt>
<pdfrwt beam="2">  1       -4 0.46674987E-01 0.12499811E+03</pdfrwt>
<totfact> 0.16022030E+03</totfact>
</mgrwt>
</event>
<event>
 5    1  0.1423270E-002  0.1249961E+03  0.7818608E-02  0.1235075E+00
          4   -1    0    0  501    0  0.00000000000E+00  0.00000000000E+00  0.51259416550E+02  0.51275146855E+02  0.12700000000E+01 0.  1.
         -4   -1    0    0    0  501 -0.00000000000E+00 -0.00000000000E+00 -0.76168076220E+02  0.76178663253E+02  0.12700000000E+01 0.  1.
         25    2    1    2    0    0  0.00000000000E+00  0.00000000000E+00 -0.24908659670E+02  0.12745381011E+03  0.12499612948E+03 0.  0.
    9000005    1    3    3    0    0 -0.50316880884E+02 -0.20604976638E+02 -0.43860161640E+02  0.69864635856E+02  0.10000000000E+01 0.  0.
    9000005    1    3    3    0    0  0.50316880884E+02  0.20604976638E+02  0.18951501970E+02  0.57589174253E+02  0.10000000000E+01 0.  0.
<mgrwt>
<rscale>  0 0.12499613E+03</rscale>
<asrwt>0</asrwt>
<pdfrwt beam="1">  1        4 0.12818144E-01 0.12499613E+03</pdfrwt>
<pdfrwt beam="2">  1       -4 0.19045309E-01 0.12499613E+03</pdfrwt>
<totfact> 0.19704086E+03</totfact>
</mgrwt>
</event>
