<event>
 8    2  0.1628804E-003  0.1340234E+03  0.7818608E-02  0.1226879E+00
          2   -1    0    0  501    0  0.00000000000E+00  0.00000000000E+00  0.92777915601E+02  0.92777915636E+02  0.25500000000E-02 0. -1.
         -2   -1    0    0    0  501 -0.00000000000E+00 -0.00000000000E+00 -0.17405375146E+03  0.17405375147E+03  0.25500000000E-02 0.  1.
         25    2    1    2    0    0  0.23898829976E+02  0.42037055261E+02 -0.39959525488E+02  0.13985361016E+03  0.12499600197E+03 0.  0.
         23    2    1    2    0    0 -0.23898829976E+02 -0.42037055261E+02 -0.41316310367E+02  0.12697805695E+03  0.10990050662E+03 0.  0.
        -11    1    4    4    0    0 -0.36909423320E+02 -0.49831491407E+02  0.18941942085E+02  0.64840421312E+02  0.51100000000E-03 0. -1.
         11    1    4    4    0    0  0.13010593344E+02  0.77944361459E+01 -0.60258252452E+02  0.62137635639E+02  0.51100000000E-03 0.  1.
    9000005    1    3    3    0    0 -0.38994129211E+02 -0.21421842048E+02 -0.99792393227E+01  0.45607265289E+02  0.10000000000E+01 0.  0.
    9000005    1    3    3    0    0  0.62892959188E+02  0.63458897308E+02 -0.29980286166E+02  0.94246344871E+02  0.10000000000E+01 0.  0.
<mgrwt>
<rscale>  0 0.13038947E+03</rscale>
<asrwt>0</asrwt>
<pdfrwt beam="1">  1        2 0.14273525E-01 0.13402339E+03</pdfrwt>
<pdfrwt beam="2">  1       -2 0.26777500E-01 0.13402339E+03</pdfrwt>
<totfact> 0.49495532E+03</totfact>
</mgrwt>
</event>
<event>
 8    2  0.1628804E-003  0.2367023E+03  0.7818608E-02  0.1124730E+00
          2   -1    0    0  501    0  0.00000000000E+00  0.00000000000E+00  0.20259502687E+04  0.20259502687E+04  0.25500000000E-02 0. -1.
         -2   -1    0    0    0  501 -0.00000000000E+00 -0.00000000000E+00 -0.28069409469E+02  0.28069409584E+02  0.25500000000E-02 0.  1.
         25    2    1    2    0    0  0.18141339856E+03 -0.86555837761E+02  0.74314225987E+03  0.77992844519E+03  0.12500090795E+03 0.  0.
         23    2    1    2    0    0 -0.18141339856E+03  0.86555837761E+02  0.12547385994E+04  0.12740912331E+04  0.92394714604E+02 0.  0.
        -11    1    4    4    0    0 -0.14571974800E+03  0.78955163717E+02  0.75281969667E+03  0.77084736397E+03  0.51100000000E-03 0.  1.
         11    1    4    4    0    0 -0.35693650564E+02  0.76006740435E+01  0.50191890271E+03  0.50324386915E+03  0.51100000000E-03 0. -1.
    9000005    1    3    3    0    0  0.83265365949E+02 -0.83062304856E+02  0.23976789855E+03  0.26706200184E+03  0.10000000000E+01 0.  0.
    9000005    1    3    3    0    0  0.98148032615E+02 -0.34935329042E+01  0.50337436132E+03  0.51286644335E+03  0.10000000000E+01 0.  0.
<mgrwt>
<rscale>  0 0.23273370E+03</rscale>
<asrwt>0</asrwt>
<pdfrwt beam="1">  1        2 0.31168464E+00 0.23670226E+03</pdfrwt>
<pdfrwt beam="2">  1       -2 0.43183709E-02 0.23670226E+03</pdfrwt>
<totfact> 0.17660705E+03</totfact>
</mgrwt>
</event>
<event>
 8    2  0.1628804E-003  0.2168172E+03  0.7818608E-02  0.1140429E+00
          2   -1    0    0  501    0  0.00000000000E+00  0.00000000000E+00  0.41246803300E+03  0.41246803301E+03  0.25500000000E-02 0. -1.
         -2   -1    0    0    0  501 -0.00000000000E+00 -0.00000000000E+00 -0.10398458288E+03  0.10398458292E+03  0.25500000000E-02 0.  1.
         25    2    1    2    0    0  0.90746399471E+02  0.15215218283E+03  0.18219018713E+03  0.28320124969E+03  0.12499795111E+03 0.  0.
         23    2    1    2    0    0 -0.90746399471E+02 -0.15215218283E+03  0.12629326298E+03  0.23325136623E+03  0.84089332354E+02 0.  0.
        -11    1    4    4    0    0 -0.92247155643E+02 -0.75775730789E+02  0.70350193154E+02  0.13856640566E+03  0.51100000000E-03 0.  1.
         11    1    4    4    0    0  0.15007561719E+01 -0.76376452043E+02  0.55943069828E+02  0.94684960569E+02  0.51100000000E-03 0. -1.
    9000005    1    3    3    0    0  0.34789673180E+02 -0.16925479020E+02  0.31198225024E+02  0.49710385682E+02  0.10000000000E+01 0.  0.
    9000005    1    3    3    0    0  0.55956726291E+02  0.16907766185E+03  0.15099196211E+03  0.23349086401E+03  0.10000000000E+01 0.  0.
<mgrwt>
<rscale>  0 0.21144190E+03</rscale>
<asrwt>0</asrwt>
<pdfrwt beam="1">  1        2 0.63456620E-01 0.21681717E+03</pdfrwt>
<pdfrwt beam="2">  1       -2 0.15997628E-01 0.21681717E+03</pdfrwt>
<totfact> 0.23514959E+03</totfact>
</mgrwt>
</event>
<event>
 8    2  0.1628804E-003  0.1591507E+03  0.7818608E-02  0.1197132E+00
         -2   -1    0    0    0  501 -0.00000000000E+00  0.00000000000E+00  0.20172967779E+02  0.20172967940E+02  0.25500000000E-02 0.  1.
          2   -1    0    0  501    0  0.00000000000E+00 -0.00000000000E+00 -0.10727042915E+04  0.10727042915E+04  0.25500000000E-02 0. -1.
         25    2    1    2    0    0 -0.81939873374E+02  0.54681174037E+02 -0.56969229849E+03  0.59150508487E+03  0.12499910730E+03 0.  0.
         23    2    1    2    0    0  0.81939873374E+02 -0.54681174037E+02 -0.48283902518E+03  0.50137217453E+03  0.92392421257E+02 0.  0.
        -11    1    4    4    0    0  0.68339045472E+02 -0.80160188969E+02 -0.35424303891E+03  0.36957274202E+03  0.51100000000E-03 0. -1.
         11    1    4    4    0    0  0.13600827902E+02  0.25479014931E+02 -0.12859598628E+03  0.13179943250E+03  0.51100000000E-03 0.  1.
    9000005    1    3    3    0    0 -0.23298996083E+00 -0.36249082703E+02 -0.10933474722E+03  0.11519174115E+03  0.10000000000E+01 0.  0.
    9000005    1    3    3    0    0 -0.81706883413E+02  0.90930256741E+02 -0.46035755127E+03  0.47631334372E+03  0.10000000000E+01 0.  0.
<mgrwt>
<rscale>  0 0.15275173E+03</rscale>
<asrwt>0</asrwt>
<pdfrwt beam="2">  1        2 0.16503139E+00 0.15915072E+03</pdfrwt>
<pdfrwt beam="1">  1       -2 0.31035343E-02 0.15915072E+03</pdfrwt>
<totfact> 0.93098259E+03</totfact>
</mgrwt>
</event>
<event>
 8    2  0.1628804E-003  0.1291468E+03  0.7818608E-02  0.1258740E+00
         -2   -1    0    0    0  501 -0.00000000000E+00  0.00000000000E+00  0.62594617082E+03  0.62594617083E+03  0.25500000000E-02 0.  1.
          2   -1    0    0  501    0  0.00000000000E+00 -0.00000000000E+00 -0.20358356149E+02  0.20358356308E+02  0.25500000000E-02 0. -1.
         25    2    1    2    0    0 -0.30821493609E+01  0.32323502725E+02  0.51818937215E+03  0.53404036667E+03  0.12499831739E+03 0.  0.
         23    2    1    2    0    0  0.30821493609E+01 -0.32323502725E+02  0.87398442524E+02  0.11226416047E+03  0.62533554966E+02 0.  0.
        -11    1    4    4    0    0 -0.21993923492E+02 -0.37425110558E+02  0.65526556847E+02  0.78600898362E+02  0.51100000000E-03 0.  1.
         11    1    4    4    0    0  0.25076072853E+02  0.51016078335E+01  0.21871885678E+02  0.33663262105E+02  0.51100000000E-03 0. -1.
    9000005    1    3    3    0    0 -0.30538670919E+02 -0.21182971781E+02  0.51651746844E+02  0.63641430428E+02  0.10000000000E+01 0.  0.
    9000005    1    3    3    0    0  0.27456521558E+02  0.53506474505E+02  0.46653762530E+03  0.47039893624E+03  0.10000000000E+01 0.  0.
<mgrwt>
<rscale>  0 0.11099409E+03</rscale>
<asrwt>0</asrwt>
<pdfrwt beam="2">  1        2 0.31320548E-02 0.12914677E+03</pdfrwt>
<pdfrwt beam="1">  1       -2 0.96299412E-01 0.12914677E+03</pdfrwt>
<totfact> 0.26312720E+03</totfact>
</mgrwt>
</event>
<event>
 8    2  0.1628804E-003  0.1376461E+03  0.7818608E-02  0.1227740E+00
          2   -1    0    0  501    0  0.00000000000E+00  0.00000000000E+00  0.28177386410E+04  0.28177386410E+04  0.25500000000E-02 0.  1.
         -2   -1    0    0    0  501 -0.00000000000E+00 -0.00000000000E+00 -0.59525292795E+01  0.59525298257E+01  0.25500000000E-02 0. -1.
         25    2    1    2    0    0  0.38147476903E+02 -0.43210804278E+02  0.11239366536E+04  0.11323338953E+04  0.12499618166E+03 0.  0.
         23    2    1    2    0    0 -0.38147476903E+02  0.43210804278E+02  0.16878494581E+04  0.16913572755E+04  0.92364694359E+02 0.  0.
        -11    1    4    4    0    0  0.11742801011E+02 -0.19453476838E+02  0.18761045694E+03  0.18898151944E+03  0.51100000000E-03 0. -1.
         11    1    4    4    0    0 -0.49890277914E+02  0.62664281115E+02  0.15002390011E+04  0.15023757561E+04  0.51100000000E-03 0.  1.
    9000005    1    3    3    0    0  0.78201799705E+02 -0.54758829747E+02  0.82404153310E+03  0.82955379524E+03  0.10000000000E+01 0.  0.
    9000005    1    3    3    0    0 -0.40054322802E+02  0.11548025469E+02  0.29989512054E+03  0.30278010006E+03  0.10000000000E+01 0.  0.
<mgrwt>
<rscale>  0 0.12980888E+03</rscale>
<asrwt>0</asrwt>
<pdfrwt beam="1">  1        2 0.43349778E+00 0.13764610E+03</pdfrwt>
<pdfrwt beam="2">  1       -2 0.91577478E-03 0.13764610E+03</pdfrwt>
<totfact> 0.64540008E+03</totfact>
</mgrwt>
</event>
<event>
 8    2  0.1628804E-003  0.1379247E+03  0.7818608E-02  0.1227488E+00
          2   -1    0    0  501    0  0.00000000000E+00  0.00000000000E+00  0.16766104238E+02  0.16766104432E+02  0.25500000000E-02 0. -1.
         -2   -1    0    0    0  501 -0.00000000000E+00 -0.00000000000E+00 -0.97798618319E+03  0.97798618319E+03  0.25500000000E-02 0.  1.
         25    2    1    2    0    0 -0.13863245852E+02  0.56657989377E+02 -0.66590205699E+03  0.68003586004E+03  0.12498361534E+03 0.  0.
         23    2    1    2    0    0  0.13863245852E+02 -0.56657989377E+02 -0.29531802197E+03  0.31471642758E+03  0.91822537236E+02 0.  0.
        -11    1    4    4    0    0  0.12217615197E+02 -0.62180139063E+02 -0.30041361658E+03  0.30702439780E+03  0.51100000000E-03 0.  1.
         11    1    4    4    0    0  0.16456306547E+01  0.55221496859E+01  0.50955946159E+01  0.76920297813E+01  0.51100000000E-03 0. -1.
    9000005    1    3    3    0    0  0.50286037816E+02  0.13305745299E+02 -0.16009423425E+03  0.16833565367E+03  0.10000000000E+01 0.  0.
    9000005    1    3    3    0    0 -0.64149283667E+02  0.43352244078E+02 -0.50580782273E+03  0.51170020637E+03  0.10000000000E+01 0.  0.
<mgrwt>
<rscale>  0 0.12997852E+03</rscale>
<asrwt>0</asrwt>
<pdfrwt beam="1">  1        2 0.25794014E-02 0.13792469E+03</pdfrwt>
<pdfrwt beam="2">  1       -2 0.15045937E+00 0.13792469E+03</pdfrwt>
<totfact> 0.11714962E+03</totfact>
</mgrwt>
</event>
<event>
 8    2  0.1628804E-003  0.1713418E+03  0.7818608E-02  0.1185386E+00
          2   -1    0    0  501    0  0.00000000000E+00  0.00000000000E+00  0.30870979918E+03  0.30870979919E+03  0.25500000000E-02 0. -1.
         -2   -1    0    0    0  501 -0.00000000000E+00 -0.00000000000E+00 -0.79228707540E+02  0.79228707581E+02  0.25500000000E-02 0.  1.
         25    2    1    2    0    0 -0.10996385387E+03  0.40509810482E+02  0.14314556081E+03  0.22326817200E+03  0.12499972459E+03 0.  0.
         23    2    1    2    0    0  0.10996385387E+03 -0.40509810482E+02  0.86335530824E+02  0.16467033476E+03  0.77002606226E+02 0.  0.
        -11    1    4    4    0    0  0.22102515176E+02 -0.45534594308E+02  0.19825481253E+02  0.54359637260E+02  0.51100000000E-03 0.  1.
         11    1    4    4    0    0  0.87861338695E+02  0.50247838266E+01  0.66510049571E+02  0.11031069750E+03  0.51100000000E-03 0. -1.
    9000005    1    3    3    0    0 -0.73609106866E+01 -0.88335727151E+01 -0.20727836690E+02  0.23724633336E+02  0.10000000000E+01 0.  0.
    9000005    1    3    3    0    0 -0.10260294318E+03  0.49343383197E+02  0.16387339750E+03  0.19954353867E+03  0.10000000000E+01 0.  0.
<mgrwt>
<rscale>  0 0.16296802E+03</rscale>
<asrwt>0</asrwt>
<pdfrwt beam="1">  1        2 0.47493816E-01 0.17134184E+03</pdfrwt>
<pdfrwt beam="2">  1       -2 0.12189032E-01 0.17134184E+03</pdfrwt>
<totfact> 0.49631285E+03</totfact>
</mgrwt>
</event>
<event>
 8    2  0.1628804E-003  0.1258184E+03  0.7818608E-02  0.1249127E+00
         -2   -1    0    0    0  501 -0.00000000000E+00  0.00000000000E+00  0.23372285771E+02  0.23372285910E+02  0.25500000000E-02 0.  1.
          2   -1    0    0  501    0  0.00000000000E+00 -0.00000000000E+00 -0.76065700659E+03  0.76065700660E+03  0.25500000000E-02 0. -1.
         25    2    1    2    0    0 -0.85210690964E+01 -0.11563323803E+02 -0.63051064719E+03  0.64294163362E+03  0.12499579568E+03 0.  0.
         23    2    1    2    0    0  0.85210690964E+01  0.11563323803E+02 -0.10677407363E+03  0.14108765889E+03  0.91097231658E+02 0.  0.
        -11    1    4    4    0    0 -0.40180467314E+01 -0.44947751337E+01 -0.11777795136E+03  0.11793215647E+03  0.51100000000E-03 0. -1.
         11    1    4    4    0    0  0.12539115828E+02  0.16058098937E+02  0.11003877727E+02  0.23155502424E+02  0.51100000000E-03 0.  1.
    9000005    1    3    3    0    0 -0.57440983839E+02  0.12460251105E+02 -0.46463930872E+03  0.46834326267E+03  0.10000000000E+01 0.  0.
    9000005    1    3    3    0    0  0.48919914743E+02 -0.24023574909E+02 -0.16587133847E+03  0.17459837094E+03  0.10000000000E+01 0.  0.
<mgrwt>
<rscale>  0 0.11641731E+03</rscale>
<asrwt>0</asrwt>
<pdfrwt beam="2">  1        2 0.11702414E+00 0.12581839E+03</pdfrwt>
<pdfrwt beam="1">  1       -2 0.35957369E-02 0.12581839E+03</pdfrwt>
<totfact> 0.11619187E+04</totfact>
</mgrwt>
</event>
<event>
 8    2  0.1628804E-003  0.1342557E+03  0.7818608E-02  0.1233983E+00
         -2   -1    0    0    0  501 -0.00000000000E+00  0.00000000000E+00  0.64030998529E+01  0.64031003607E+01  0.25500000000E-02 0.  1.
          2   -1    0    0  501    0  0.00000000000E+00 -0.00000000000E+00 -0.22039186063E+04  0.22039186063E+04  0.25500000000E-02 0. -1.
         25    2    1    2    0    0  0.24894922916E+02  0.42193030064E+02 -0.12007613508E+04  0.12082435282E+04  0.12499837122E+03 0.  0.
         23    2    1    2    0    0 -0.24894922916E+02 -0.42193030064E+02 -0.99675415566E+03  0.10020781785E+04  0.90784470283E+02 0.  0.
        -11    1    4    4    0    0 -0.14093533654E+02  0.16760298251E+02 -0.69032393761E+02  0.72422418332E+02  0.51100000000E-03 0.  1.
         11    1    4    4    0    0 -0.10801389262E+02 -0.58953328315E+02 -0.92772176190E+03  0.92965576018E+03  0.51100000000E-03 0. -1.
    9000005    1    3    3    0    0 -0.39298742722E+02  0.56107633479E+02 -0.59570289614E+03  0.59962938403E+03  0.10000000000E+01 0.  0.
    9000005    1    3    3    0    0  0.64193665638E+02 -0.13914603415E+02 -0.60505845469E+03  0.60861414417E+03  0.10000000000E+01 0.  0.
<mgrwt>
<rscale>  0 0.12569751E+03</rscale>
<asrwt>0</asrwt>
<pdfrwt beam="2">  1        2 0.33906380E+00 0.13425573E+03</pdfrwt>
<pdfrwt beam="1">  1       -2 0.98509408E-03 0.13425573E+03</pdfrwt>
<totfact> 0.12398258E+04</totfact>
</mgrwt>
</event>
<event>
 8    2  0.1628804E-003  0.1303961E+03  0.7818608E-02  0.1240548E+00
         -2   -1    0    0    0  501 -0.00000000000E+00  0.00000000000E+00  0.47035689726E+01  0.47035696638E+01  0.25500000000E-02 0.  1.
          2   -1    0    0  501    0  0.00000000000E+00 -0.00000000000E+00 -0.31271044958E+04  0.31271044958E+04  0.25500000000E-02 0. -1.
         25    2    1    2    0    0 -0.37122058744E+02 -0.95932893477E+00 -0.12410705695E+04  0.12479019609E+04  0.12499671185E+03 0.  0.
         23    2    1    2    0    0  0.37122058744E+02  0.95932893477E+00 -0.18813303573E+04  0.18839061046E+04  0.91210360536E+02 0.  0.
        -11    1    4    4    0    0  0.57054345240E+02 -0.10595517904E+02 -0.71590663942E+03  0.71825467605E+03  0.51100000000E-03 0.  1.
         11    1    4    4    0    0 -0.19932286496E+02  0.11554846839E+02 -0.11654237179E+04  0.11656514285E+04  0.51100000000E-03 0. -1.
    9000005    1    3    3    0    0  0.31164789925E+02  0.39896925090E+02 -0.51473829813E+03  0.51722289618E+03  0.10000000000E+01 0.  0.
    9000005    1    3    3    0    0 -0.68286848669E+02 -0.40856254025E+02 -0.72633227136E+03  0.73067906472E+03  0.10000000000E+01 0.  0.
<mgrwt>
<rscale>  0 0.12155852E+03</rscale>
<asrwt>0</asrwt>
<pdfrwt beam="2">  1        2 0.48109134E+00 0.13039611E+03</pdfrwt>
<pdfrwt beam="1">  1       -2 0.72362855E-03 0.13039611E+03</pdfrwt>
<totfact> 0.59914032E+03</totfact>
</mgrwt>
</event>
<event>
 8    2  0.1628804E-003  0.1322030E+03  0.7818608E-02  0.1234865E+00
         -2   -1    0    0    0  501 -0.00000000000E+00  0.00000000000E+00  0.17660906325E+02  0.17660906509E+02  0.25500000000E-02 0.  1.
          2   -1    0    0  501    0  0.00000000000E+00 -0.00000000000E+00 -0.13866150555E+04  0.13866150555E+04  0.25500000000E-02 0. -1.
         25    2    1    2    0    0  0.41603397909E+02 -0.11080331549E+02 -0.11815213299E+04  0.11888945681E+04  0.12499609835E+03 0.  0.
         23    2    1    2    0    0 -0.41603397909E+02  0.11080331549E+02 -0.18743281932E+03  0.21538139395E+03  0.96976629330E+02 0.  0.
        -11    1    4    4    0    0 -0.27303178804E+02 -0.42184748983E+02 -0.10178097508E+03  0.11350939833E+03  0.51100000000E-03 0.  1.
         11    1    4    4    0    0 -0.14300219105E+02  0.53265080531E+02 -0.85651844238E+02  0.10187199562E+03  0.51100000000E-03 0. -1.
    9000005    1    3    3    0    0  0.77938866083E+02 -0.30010408102E+02 -0.95902827724E+03  0.96265846903E+03  0.10000000000E+01 0.  0.
    9000005    1    3    3    0    0 -0.36335468174E+02  0.18930076554E+02 -0.22249305261E+03  0.22623609903E+03  0.10000000000E+01 0.  0.
<mgrwt>
<rscale>  0 0.12513077E+03</rscale>
<asrwt>0</asrwt>
<pdfrwt beam="2">  1        2 0.21332531E+00 0.13220303E+03</pdfrwt>
<pdfrwt beam="1">  1       -2 0.27170636E-02 0.13220303E+03</pdfrwt>
<totfact> 0.75345186E+03</totfact>
</mgrwt>
</event>
<event>
 8    2  0.1628804E-003  0.1391494E+03  0.7818608E-02  0.1225464E+00
          2   -1    0    0  501    0  0.00000000000E+00  0.00000000000E+00  0.94861726215E+03  0.94861726215E+03  0.25500000000E-02 0. -1.
         -2   -1    0    0    0  501 -0.00000000000E+00 -0.00000000000E+00 -0.23181735012E+02  0.23181735152E+02  0.25500000000E-02 0.  1.
         25    2    1    2    0    0 -0.37877480016E+02  0.47997665858E+02  0.76149850542E+03  0.77410757105E+03  0.12499631348E+03 0.  0.
         23    2    1    2    0    0  0.37877480016E+02 -0.47997665858E+02  0.16393702172E+03  0.19769142625E+03  0.92022135945E+02 0.  0.
        -11    1    4    4    0    0  0.12084602208E+02 -0.12584055033E+02 -0.87609045646E+01  0.19523050496E+02  0.51100000000E-03 0.  1.
         11    1    4    4    0    0  0.25792877808E+02 -0.35413610824E+02  0.17269792628E+03  0.17816837575E+03  0.51100000000E-03 0. -1.
    9000005    1    3    3    0    0 -0.42774375177E+02  0.26120693255E+02  0.96617412936E+02  0.10884788592E+03  0.10000000000E+01 0.  0.
    9000005    1    3    3    0    0  0.48968951611E+01  0.21876972603E+02  0.66488109248E+03  0.66525968513E+03  0.10000000000E+01 0.  0.
<mgrwt>
<rscale>  0 0.13135154E+03</rscale>
<asrwt>0</asrwt>
<pdfrwt beam="1">  1        2 0.14594111E+00 0.13914941E+03</pdfrwt>
<pdfrwt beam="2">  1       -2 0.35664211E-02 0.13914941E+03</pdfrwt>
<totfact> 0.89294818E+03</totfact>
</mgrwt>
</event>
<event>
 8    2  0.1628804E-003  0.2484596E+03  0.7818608E-02  0.1116747E+00
         -2   -1    0    0    0  501 -0.00000000000E+00  0.00000000000E+00  0.19904547504E+03  0.19904547506E+03  0.25500000000E-02 0. -1.
          2   -1    0    0  501    0  0.00000000000E+00 -0.00000000000E+00 -0.31374148838E+03  0.31374148839E+03  0.25500000000E-02 0.  1.
         25    2    1    2    0    0 -0.10799643782E+03 -0.18559079886E+03  0.88696594090E+01  0.24861785738E+03  0.12499997180E+03 0.  0.
         23    2    1    2    0    0  0.10799643782E+03  0.18559079886E+03 -0.12356567275E+03  0.26416910607E+03  0.91704230662E+02 0.  0.
        -11    1    4    4    0    0  0.42464320341E+02  0.99010107355E+01 -0.38876635437E+02  0.58417816621E+02  0.51100000000E-03 0. -1.
         11    1    4    4    0    0  0.65532117476E+02  0.17568978812E+03 -0.84689037310E+02  0.20575128945E+03  0.51100000000E-03 0.  1.
    9000005    1    3    3    0    0 -0.63108976349E+02 -0.18371431265E+03  0.33883753611E+02  0.19718722151E+03  0.10000000000E+01 0.  0.
    9000005    1    3    3    0    0 -0.44887461467E+02 -0.18764862079E+01 -0.25014094202E+02  0.51430635872E+02  0.10000000000E+01 0.  0.
<mgrwt>
<rscale>  0 0.24462912E+03</rscale>
<asrwt>0</asrwt>
<pdfrwt beam="2">  1        2 0.48267921E-01 0.24845959E+03</pdfrwt>
<pdfrwt beam="1">  1       -2 0.30622381E-01 0.24845959E+03</pdfrwt>
<totfact> 0.10255398E+03</totfact>
</mgrwt>
</event>
<event>
 8    2  0.1628804E-003  0.1390671E+03  0.7818608E-02  0.1225622E+00
         -2   -1    0    0    0  501 -0.00000000000E+00  0.00000000000E+00  0.47892100890E+02  0.47892100958E+02  0.25500000000E-02 0. -1.
          2   -1    0    0  501    0  0.00000000000E+00 -0.00000000000E+00 -0.33564394435E+03  0.33564394436E+03  0.25500000000E-02 0.  1.
         25    2    1    2    0    0  0.57110558314E+02 -0.21318463117E+02 -0.12543005063E+03  0.18727614870E+03  0.12499426199E+03 0.  0.
         23    2    1    2    0    0 -0.57110558314E+02  0.21318463117E+02 -0.16232179283E+03  0.19625989662E+03  0.91942861896E+02 0.  0.
        -11    1    4    4    0    0 -0.45859886900E+02 -0.28646770227E+02 -0.53888660810E+02  0.76339730384E+02  0.51100000000E-03 0.  1.
         11    1    4    4    0    0 -0.11250671414E+02  0.49965233344E+02 -0.10843313202E+03  0.11992016624E+03  0.51100000000E-03 0. -1.
    9000005    1    3    3    0    0  0.52138031550E+02  0.46598139243E+02 -0.52173317867E+02  0.87251452779E+02  0.10000000000E+01 0.  0.
    9000005    1    3    3    0    0  0.49725267647E+01 -0.67916602360E+02 -0.73256732765E+02  0.10002469592E+03  0.10000000000E+01 0.  0.
<mgrwt>
<rscale>  0 0.13124349E+03</rscale>
<asrwt>0</asrwt>
<pdfrwt beam="2">  1        2 0.51637529E-01 0.13906710E+03</pdfrwt>
<pdfrwt beam="1">  1       -2 0.73680157E-02 0.13906710E+03</pdfrwt>
<totfact> 0.98790908E+03</totfact>
</mgrwt>
</event>
<event>
 8    2  0.1628804E-003  0.1414631E+03  0.7818608E-02  0.1227275E+00
         -2   -1    0    0    0  501 -0.00000000000E+00  0.00000000000E+00  0.15170563882E+02  0.15170564097E+02  0.25500000000E-02 0.  1.
          2   -1    0    0  501    0  0.00000000000E+00 -0.00000000000E+00 -0.11242046539E+04  0.11242046539E+04  0.25500000000E-02 0. -1.
         25    2    1    2    0    0 -0.54130061794E+02 -0.38167949618E+02 -0.42597757150E+03  0.44885265796E+03  0.12499984469E+03 0.  0.
         23    2    1    2    0    0  0.54130061794E+02  0.38167949618E+02 -0.68305651855E+03  0.69052256007E+03  0.76605107280E+02 0.  0.
        -11    1    4    4    0    0 -0.18932116210E+02  0.16285815304E+02 -0.16180056469E+03  0.16371644859E+03  0.51100000000E-03 0. -1.
         11    1    4    4    0    0  0.73062178004E+02  0.21882134314E+02 -0.52125595387E+03  0.52680611149E+03  0.51100000000E-03 0.  1.
    9000005    1    3    3    0    0 -0.56345666769E+02 -0.54174140041E+02 -0.12493533730E+03  0.14737540541E+03  0.10000000000E+01 0.  0.
    9000005    1    3    3    0    0  0.22156049753E+01  0.16006190423E+02 -0.30104223419E+03  0.30147725255E+03  0.10000000000E+01 0.  0.
<mgrwt>
<rscale>  0 0.13012192E+03</rscale>
<asrwt>0</asrwt>
<pdfrwt beam="2">  1        2 0.17295450E+00 0.14146313E+03</pdfrwt>
<pdfrwt beam="1">  1       -2 0.23339338E-02 0.14146313E+03</pdfrwt>
<totfact> 0.13131552E+04</totfact>
</mgrwt>
</event>
<event>
 8    2  0.1628804E-003  0.1313913E+03  0.7818608E-02  0.1238485E+00
         -2   -1    0    0    0  501 -0.00000000000E+00  0.00000000000E+00  0.96664098349E+01  0.96664101712E+01  0.25500000000E-02 0.  1.
          2   -1    0    0  501    0  0.00000000000E+00 -0.00000000000E+00 -0.15223902254E+04  0.15223902254E+04  0.25500000000E-02 0. -1.
         25    2    1    2    0    0  0.31668330923E+02  0.25198286667E+02 -0.10733384411E+04  0.10813505840E+04  0.12500335861E+03 0.  0.
         23    2    1    2    0    0 -0.31668330923E+02 -0.25198286667E+02 -0.43938537451E+03  0.45070605157E+03  0.91861856864E+02 0.  0.
        -11    1    4    4    0    0  0.30943283036E+02 -0.13300538842E+02 -0.20777344673E+03  0.21048562009E+03  0.51100000000E-03 0. -1.
         11    1    4    4    0    0 -0.62611613959E+02 -0.11897747824E+02 -0.23161192778E+03  0.24022043147E+03  0.51100000000E-03 0.  1.
    9000005    1    3    3    0    0 -0.56799125566E+01  0.71499879750E+02 -0.55973234467E+03  0.56431001398E+03  0.10000000000E+01 0.  0.
    9000005    1    3    3    0    0  0.37348243479E+02 -0.46301593083E+02 -0.51360609641E+03  0.51704057006E+03  0.10000000000E+01 0.  0.
<mgrwt>
<rscale>  0 0.12283959E+03</rscale>
<asrwt>0</asrwt>
<pdfrwt beam="2">  1        2 0.23421369E+00 0.13139131E+03</pdfrwt>
<pdfrwt beam="1">  1       -2 0.14871412E-02 0.13139131E+03</pdfrwt>
<totfact> 0.15336753E+04</totfact>
</mgrwt>
</event>
<event>
 8    2  0.1628804E-003  0.1876271E+03  0.7818608E-02  0.1164532E+00
         -2   -1    0    0    0  501 -0.00000000000E+00  0.00000000000E+00  0.19410042528E+02  0.19410042695E+02  0.25500000000E-02 0.  1.
          2   -1    0    0  501    0  0.00000000000E+00 -0.00000000000E+00 -0.18307009952E+04  0.18307009952E+04  0.25500000000E-02 0. -1.
         25    2    1    2    0    0  0.19601129514E+02 -0.13854498524E+03 -0.66054919285E+03  0.68667981979E+03  0.12500008606E+03 0.  0.
         23    2    1    2    0    0 -0.19601129514E+02  0.13854498524E+03 -0.11507417599E+04  0.11634312181E+04  0.98927671867E+02 0.  0.
        -11    1    4    4    0    0  0.68355186604E+01  0.23597120571E+02 -0.43768489352E+02  0.50191922408E+02  0.51100000000E-03 0.  1.
         11    1    4    4    0    0 -0.26436648175E+02  0.11494786467E+03 -0.11069732705E+04  0.11132392957E+04  0.51100000000E-03 0. -1.
    9000005    1    3    3    0    0 -0.19854225182E+02 -0.43764221049E+02 -0.57462291631E+02  0.74916034739E+02  0.10000000000E+01 0.  0.
    9000005    1    3    3    0    0  0.39455354696E+02 -0.94780764189E+02 -0.60308690122E+03  0.61176378505E+03  0.10000000000E+01 0.  0.
<mgrwt>
<rscale>  0 0.18342207E+03</rscale>
<asrwt>0</asrwt>
<pdfrwt beam="2">  1        2 0.28164617E+00 0.18762713E+03</pdfrwt>
<pdfrwt beam="1">  1       -2 0.29861618E-02 0.18762713E+03</pdfrwt>
<totfact> 0.38812414E+03</totfact>
</mgrwt>
</event>
<event>
 8    2  0.1628804E-003  0.1431603E+03  0.7818608E-02  0.1219503E+00
          2   -1    0    0  501    0  0.00000000000E+00  0.00000000000E+00  0.29924491003E+03  0.29924491004E+03  0.25500000000E-02 0.  1.
         -2   -1    0    0    0  501 -0.00000000000E+00 -0.00000000000E+00 -0.55663859841E+02  0.55663859900E+02  0.25500000000E-02 0. -1.
         25    2    1    2    0    0  0.29196217476E+02 -0.63372941523E+02  0.13835134834E+03  0.19908780983E+03  0.12500524630E+03 0.  0.
         23    2    1    2    0    0 -0.29196217476E+02  0.63372941523E+02  0.10522970185E+03  0.15582096012E+03  0.91314471074E+02 0.  0.
        -11    1    4    4    0    0  0.16176265196E+02  0.19879178081E+02  0.86530685600E+02  0.90246400635E+02  0.51100000000E-03 0.  1.
         11    1    4    4    0    0 -0.45372482672E+02  0.43493763442E+02  0.18699016252E+02  0.65574559481E+02  0.51100000000E-03 0. -1.
    9000005    1    3    3    0    0 -0.28612048832E+02 -0.68871216866E+01 -0.91977762829E+01  0.30849325309E+02  0.10000000000E+01 0.  0.
    9000005    1    3    3    0    0  0.57808266308E+02 -0.56485819836E+02  0.14754912462E+03  0.16823848452E+03  0.10000000000E+01 0.  0.
<mgrwt>
<rscale>  0 0.13550861E+03</rscale>
<asrwt>0</asrwt>
<pdfrwt beam="1">  1        2 0.46037679E-01 0.14316026E+03</pdfrwt>
<pdfrwt beam="2">  1       -2 0.85636707E-02 0.14316026E+03</pdfrwt>
<totfact> 0.88635217E+03</totfact>
</mgrwt>
</event>
<event>
 8    2  0.1628804E-003  0.1368582E+03  0.7818608E-02  0.1229567E+00
         -2   -1    0    0    0  501 -0.00000000000E+00  0.00000000000E+00  0.35179940436E+02  0.35179940529E+02  0.25500000000E-02 0.  1.
          2   -1    0    0  501    0  0.00000000000E+00 -0.00000000000E+00 -0.46056910332E+03  0.46056910333E+03  0.25500000000E-02 0. -1.
         25    2    1    2    0    0 -0.55692043214E+02 -0.19751129911E+01 -0.30861418422E+03  0.33759868147E+03  0.12499860111E+03 0.  0.
         23    2    1    2    0    0  0.55692043214E+02  0.19751129911E+01 -0.11677497866E+03  0.15815036238E+03  0.90937543028E+02 0.  0.
        -11    1    4    4    0    0  0.50254993863E+02 -0.18726340414E+02 -0.12436895362E+03  0.13543956903E+03  0.51100000000E-03 0. -1.
         11    1    4    4    0    0  0.54370493515E+01  0.20701453405E+02  0.75939749633E+01  0.22710793353E+02  0.51100000000E-03 0.  1.
    9000005    1    3    3    0    0 -0.87172788423E+02  0.30442455746E+01 -0.13261385812E+03  0.15873184255E+03  0.10000000000E+01 0.  0.
    9000005    1    3    3    0    0  0.31480745208E+02 -0.50193585657E+01 -0.17600032610E+03  0.17886683893E+03  0.10000000000E+01 0.  0.
<mgrwt>
<rscale>  0 0.12858716E+03</rscale>
<asrwt>0</asrwt>
<pdfrwt beam="2">  1        2 0.70856781E-01 0.13685816E+03</pdfrwt>
<pdfrwt beam="1">  1       -2 0.54122989E-02 0.13685816E+03</pdfrwt>
<totfact> 0.11246507E+04</totfact>
</mgrwt>
</event>
<event>
 8    2  0.1628804E-003  0.1435821E+03  0.7818608E-02  0.1218699E+00
          2   -1    0    0  501    0  0.00000000000E+00  0.00000000000E+00  0.58872972407E+03  0.58872972407E+03  0.25500000000E-02 0. -1.
         -2   -1    0    0    0  501 -0.00000000000E+00 -0.00000000000E+00 -0.35944516351E+02  0.35944516442E+02  0.25500000000E-02 0.  1.
         25    2    1    2    0    0  0.70467420621E+02 -0.49965582849E+01  0.15916305603E+03  0.21435649914E+03  0.12500082942E+03 0.  0.
         23    2    1    2    0    0 -0.70467420621E+02  0.49965582849E+01  0.39362215168E+03  0.41031774137E+03  0.91823894630E+02 0.  0.
        -11    1    4    4    0    0 -0.54600534943E+02 -0.33128610716E+02  0.14716954154E+03  0.16042941507E+03  0.51100000000E-03 0.  1.
         11    1    4    4    0    0 -0.15866885678E+02  0.38125169001E+02  0.24645261015E+03  0.24988832630E+03  0.51100000000E-03 0. -1.
    9000005    1    3    3    0    0 -0.23109143600E+02  0.22180664526E+02  0.56732639632E+01  0.32545357898E+02  0.10000000000E+01 0.  0.
    9000005    1    3    3    0    0  0.93576564221E+02 -0.27177222810E+02  0.15348979207E+03  0.18181114124E+03  0.10000000000E+01 0.  0.
<mgrwt>
<rscale>  0 0.13608288E+03</rscale>
<asrwt>0</asrwt>
<pdfrwt beam="1">  1        2 0.90573793E-01 0.14358214E+03</pdfrwt>
<pdfrwt beam="2">  1       -2 0.55299262E-02 0.14358214E+03</pdfrwt>
<totfact> 0.83208373E+03</totfact>
</mgrwt>
</event>
<event>
 8    2  0.1628804E-003  0.1267253E+03  0.7818608E-02  0.1236077E+00
         -2   -1    0    0    0  501 -0.00000000000E+00  0.00000000000E+00  0.18047643228E+02  0.18047643408E+02  0.25500000000E-02 0.  1.
          2   -1    0    0  501    0  0.00000000000E+00 -0.00000000000E+00 -0.11289626749E+04  0.11289626749E+04  0.25500000000E-02 0. -1.
         25    2    1    2    0    0  0.15675628717E+02  0.13441933056E+02 -0.27401484497E+03  0.30189971919E+03  0.12503157314E+03 0.  0.
         23    2    1    2    0    0 -0.15675628717E+02 -0.13441933056E+02 -0.83690018668E+03  0.84511059910E+03  0.11568747272E+03 0.  0.
        -11    1    4    4    0    0  0.50167507410E+02  0.29356856425E+00 -0.37372102290E+03  0.37707329253E+03  0.51100000000E-03 0. -1.
         11    1    4    4    0    0 -0.65843136127E+02 -0.13735501620E+02 -0.46317916377E+03  0.46803730656E+03  0.51100000000E-03 0.  1.
    9000005    1    3    3    0    0  0.43330214230E+02  0.45970457302E+02 -0.73662013881E+02  0.97045776305E+02  0.10000000000E+01 0.  0.
    9000005    1    3    3    0    0 -0.27654585513E+02 -0.32528524246E+02 -0.20035283109E+03  0.20485394288E+03  0.10000000000E+01 0.  0.
<mgrwt>
<rscale>  0 0.12435743E+03</rscale>
<asrwt>0</asrwt>
<pdfrwt beam="2">  1        2 0.17368651E+00 0.12672531E+03</pdfrwt>
<pdfrwt beam="1">  1       -2 0.27765614E-02 0.12672531E+03</pdfrwt>
<totfact> 0.10063540E+04</totfact>
</mgrwt>
</event>
<event>
 8    2  0.1628804E-003  0.1449706E+03  0.7818608E-02  0.1216401E+00
          2   -1    0    0  501    0  0.00000000000E+00  0.00000000000E+00  0.29115836496E+02  0.29115836608E+02  0.25500000000E-02 0. -1.
         -2   -1    0    0    0  501 -0.00000000000E+00 -0.00000000000E+00 -0.66501791087E+03  0.66501791087E+03  0.25500000000E-02 0.  1.
         25    2    1    2    0    0  0.16534580013E+02 -0.71545908572E+02 -0.23438549197E+03  0.27559578697E+03  0.12499707828E+03 0.  0.
         23    2    1    2    0    0 -0.16534580013E+02  0.71545908572E+02 -0.40151658241E+03  0.41853796052E+03  0.92554033280E+02 0.  0.
        -11    1    4    4    0    0 -0.23171878888E+02 -0.96427191168E+01 -0.19381861784E+03  0.19543688143E+03  0.51100000000E-03 0.  1.
         11    1    4    4    0    0  0.66372988753E+01  0.81188627688E+02 -0.20769796457E+03  0.22310107908E+03  0.51100000000E-03 0. -1.
    9000005    1    3    3    0    0  0.31454311413E+02 -0.10114545176E+03 -0.20722967312E+03  0.23273356771E+03  0.10000000000E+01 0.  0.
    9000005    1    3    3    0    0 -0.14919731400E+02  0.29599543189E+02 -0.27155818845E+02  0.42862219252E+02  0.10000000000E+01 0.  0.
<mgrwt>
<rscale>  0 0.13774145E+03</rscale>
<asrwt>0</asrwt>
<pdfrwt beam="1">  1        2 0.44793600E-02 0.14497061E+03</pdfrwt>
<pdfrwt beam="2">  1       -2 0.10231044E+00 0.14497061E+03</pdfrwt>
<totfact> 0.14335513E+03</totfact>
</mgrwt>
</event>
<event>
 8    2  0.1628804E-003  0.1374720E+03  0.7818608E-02  0.1228060E+00
          2   -1    0    0  501    0  0.00000000000E+00  0.00000000000E+00  0.19450877381E+03  0.19450877383E+03  0.25500000000E-02 0. -1.
         -2   -1    0    0    0  501 -0.00000000000E+00 -0.00000000000E+00 -0.77902639728E+02  0.77902639770E+02  0.25500000000E-02 0.  1.
         25    2    1    2    0    0 -0.48359370365E+01  0.57011526034E+02  0.60337834724E+02  0.15013062120E+03  0.12499939494E+03 0.  0.
         23    2    1    2    0    0  0.48359370365E+01 -0.57011526034E+02  0.56268299358E+02  0.12228079240E+03  0.92264675199E+02 0.  0.
        -11    1    4    4    0    0  0.36455928453E+02 -0.31477183446E+02  0.64812558478E+02  0.80749709187E+02  0.51100000000E-03 0. -1.
         11    1    4    4    0    0 -0.31619991417E+02 -0.25534342588E+02 -0.85442591205E+01  0.41531083212E+02  0.51100000000E-03 0.  1.
    9000005    1    3    3    0    0  0.31046486178E+02  0.73253864521E+02  0.18244328439E+01  0.79588576608E+02  0.10000000000E+01 0.  0.
    9000005    1    3    3    0    0 -0.35882423215E+02 -0.16242338487E+02  0.58513401880E+02  0.70542044589E+02  0.10000000000E+01 0.  0.
<mgrwt>
<rscale>  0 0.12959363E+03</rscale>
<asrwt>0</asrwt>
<pdfrwt beam="1">  1        2 0.29924426E-01 0.13747199E+03</pdfrwt>
<pdfrwt beam="2">  1       -2 0.11985022E-01 0.13747199E+03</pdfrwt>
<totfact> 0.82528110E+03</totfact>
</mgrwt>
</event>
<event>
 8    2  0.1628804E-003  0.1531119E+03  0.7818608E-02  0.1205322E+00
          2   -1    0    0  501    0  0.00000000000E+00  0.00000000000E+00  0.12099638513E+04  0.12099638513E+04  0.25500000000E-02 0. -1.
         -2   -1    0    0    0  501 -0.00000000000E+00 -0.00000000000E+00 -0.16673641388E+02  0.16673641583E+02  0.25500000000E-02 0.  1.
         25    2    1    2    0    0 -0.84188969040E+02 -0.27022547654E+02  0.75228495878E+03  0.76770823124E+03  0.12500107410E+03 0.  0.
         23    2    1    2    0    0  0.84188969040E+02  0.27022547654E+02  0.44100525110E+03  0.45892926161E+03  0.91172556583E+02 0.  0.
        -11    1    4    4    0    0  0.63075160760E+01  0.12315844881E+02  0.34595009246E+01  0.14262992010E+02  0.51100000000E-03 0.  1.
         11    1    4    4    0    0  0.77881452964E+02  0.14706702773E+02  0.43754575018E+03  0.44466626960E+03  0.51100000000E-03 0. -1.
    9000005    1    3    3    0    0 -0.14832975894E+02  0.21430857025E+02  0.51725485461E+03  0.51791204217E+03  0.10000000000E+01 0.  0.
    9000005    1    3    3    0    0 -0.69355993146E+02 -0.48453404679E+02  0.23503010417E+03  0.24979618907E+03  0.10000000000E+01 0.  0.
<mgrwt>
<rscale>  0 0.14612098E+03</rscale>
<asrwt>0</asrwt>
<pdfrwt beam="1">  1        2 0.18614833E+00 0.15311195E+03</pdfrwt>
<pdfrwt beam="2">  1       -2 0.25651750E-02 0.15311195E+03</pdfrwt>
<totfact> 0.10279447E+04</totfact>
</mgrwt>
</event>
<event>
 8    2  0.1628804E-003  0.1486777E+03  0.7818608E-02  0.1211474E+00
          2   -1    0    0  501    0  0.00000000000E+00  0.00000000000E+00  0.36108327988E+03  0.36108327989E+03  0.25500000000E-02 0.  1.
         -2   -1    0    0    0  501 -0.00000000000E+00 -0.00000000000E+00 -0.54369543655E+02  0.54369543715E+02  0.25500000000E-02 0. -1.
         25    2    1    2    0    0 -0.23613882755E+02  0.76952185810E+02  0.22227535251E+03  0.26741612854E+03  0.12500319641E+03 0.  0.
         23    2    1    2    0    0  0.23613882755E+02 -0.76952185810E+02  0.84438383720E+02  0.14803669506E+03  0.91135986743E+02 0.  0.
        -11    1    4    4    0    0  0.31280546254E+02 -0.49766025344E+02  0.99844307263E+02  0.11586205395E+03  0.51100000000E-03 0.  1.
         11    1    4    4    0    0 -0.76666634989E+01 -0.27186160466E+02 -0.15405923544E+02  0.32174641110E+02  0.51100000000E-03 0. -1.
    9000005    1    3    3    0    0 -0.67473653732E+02  0.38305655614E+02  0.70769136540E+02  0.10502041652E+03  0.10000000000E+01 0.  0.
    9000005    1    3    3    0    0  0.43859770978E+02  0.38646530196E+02  0.15150621597E+03  0.16239571202E+03  0.10000000000E+01 0.  0.
<mgrwt>
<rscale>  0 0.14138785E+03</rscale>
<asrwt>0</asrwt>
<pdfrwt beam="1">  1        2 0.55551276E-01 0.14867768E+03</pdfrwt>
<pdfrwt beam="2">  1       -2 0.83645449E-02 0.14867768E+03</pdfrwt>
<totfact> 0.75478770E+03</totfact>
</mgrwt>
</event>
<event>
 8    2  0.1628804E-003  0.2090134E+03  0.7818608E-02  0.1146288E+00
         -2   -1    0    0    0  501 -0.00000000000E+00  0.00000000000E+00  0.11542727476E+04  0.11542727476E+04  0.25500000000E-02 0.  1.
          2   -1    0    0  501    0  0.00000000000E+00 -0.00000000000E+00 -0.47299888343E+02  0.47299888411E+02  0.25500000000E-02 0. -1.
         25    2    1    2    0    0 -0.13930011313E+03 -0.93045707435E+02  0.88455320081E+03  0.90891197546E+03  0.12499835553E+03 0.  0.
         23    2    1    2    0    0  0.13930011313E+03  0.93045707435E+02  0.22241965840E+03  0.29266066051E+03  0.90098460441E+02 0.  0.
        -11    1    4    4    0    0  0.14091510338E+03  0.10106468609E+03  0.22501160284E+03  0.28407984537E+03  0.51100000000E-03 0.  1.
         11    1    4    4    0    0 -0.16149902432E+01 -0.80189786503E+01 -0.25919444428E+01  0.85808151323E+01  0.51100000000E-03 0. -1.
    9000005    1    3    3    0    0 -0.73708777043E+02 -0.11671077515E+03  0.63257903954E+03  0.64746554357E+03  0.10000000000E+01 0.  0.
    9000005    1    3    3    0    0 -0.65591336088E+02  0.23665067713E+02  0.25197416127E+03  0.26144643189E+03  0.10000000000E+01 0.  0.
<mgrwt>
<rscale>  0 0.20414505E+03</rscale>
<asrwt>0</asrwt>
<pdfrwt beam="2">  1        2 0.72769065E-02 0.20901343E+03</pdfrwt>
<pdfrwt beam="1">  1       -2 0.17758041E+00 0.20901343E+03</pdfrwt>
<totfact> 0.19392619E+02</totfact>
</mgrwt>
</event>
<event>
 8    2  0.1628804E-003  0.1337481E+03  0.7818608E-02  0.1234844E+00
         -2   -1    0    0    0  501 -0.00000000000E+00  0.00000000000E+00  0.99383607488E+03  0.99383607489E+03  0.25500000000E-02 0.  1.
          2   -1    0    0  501    0  0.00000000000E+00 -0.00000000000E+00 -0.14044069034E+02  0.14044069266E+02  0.25500000000E-02 0. -1.
         25    2    1    2    0    0 -0.47200255928E+02  0.57538718945E+01  0.54792974160E+03  0.56401732734E+03  0.12501029002E+03 0.  0.
         23    2    1    2    0    0  0.47200255928E+02 -0.57538718945E+01  0.43186226425E+03  0.44386281681E+03  0.90819676625E+02 0.  0.
        -11    1    4    4    0    0  0.80429870766E+01 -0.27862908902E+02  0.34344742773E+03  0.34466964901E+03  0.51100000000E-03 0.  1.
         11    1    4    4    0    0  0.39157268851E+02  0.22109037007E+02  0.88414836518E+02  0.99193167799E+02  0.51100000000E-03 0. -1.
    9000005    1    3    3    0    0 -0.68637791111E+02  0.34397981190E+01  0.53382692428E+03  0.53823337287E+03  0.10000000000E+01 0.  0.
    9000005    1    3    3    0    0  0.21437535183E+02  0.23140737755E+01  0.14102817323E+02  0.25783954480E+02  0.10000000000E+01 0.  0.
<mgrwt>
<rscale>  0 0.12514449E+03</rscale>
<asrwt>0</asrwt>
<pdfrwt beam="2">  1        2 0.21606256E-02 0.13374806E+03</pdfrwt>
<pdfrwt beam="1">  1       -2 0.15289788E+00 0.13374806E+03</pdfrwt>
<totfact> 0.14271174E+03</totfact>
</mgrwt>
</event>
<event>
 8    2  0.1628804E-003  0.1314714E+03  0.7818608E-02  0.1238491E+00
         -2   -1    0    0    0  501 -0.00000000000E+00  0.00000000000E+00  0.25526979873E+02  0.25526980000E+02  0.25500000000E-02 0.  1.
          2   -1    0    0  501    0  0.00000000000E+00 -0.00000000000E+00 -0.53417648096E+03  0.53417648097E+03  0.25500000000E-02 0. -1.
         25    2    1    2    0    0 -0.14933925153E+02  0.37910006042E+02 -0.32332080702E+03  0.34902877147E+03  0.12499819352E+03 0.  0.
         23    2    1    2    0    0  0.14933925153E+02 -0.37910006042E+02 -0.18532869407E+03  0.21067468950E+03  0.91525456957E+02 0.  0.
        -11    1    4    4    0    0 -0.35382380978E+02  0.67874190252E+00 -0.83872579062E+02  0.91032868201E+02  0.51100000000E-03 0.  1.
         11    1    4    4    0    0  0.50316306131E+02 -0.38588747945E+02 -0.10145611501E+03  0.11964182130E+03  0.51100000000E-03 0. -1.
    9000005    1    3    3    0    0  0.48955926534E+02  0.30417480335E+02 -0.21904728118E+03  0.22650522564E+03  0.10000000000E+01 0.  0.
    9000005    1    3    3    0    0 -0.63889851687E+02  0.74925257070E+01 -0.10427352584E+03  0.12252354582E+03  0.10000000000E+01 0.  0.
<mgrwt>
<rscale>  0 0.12283570E+03</rscale>
<asrwt>0</asrwt>
<pdfrwt beam="2">  1        2 0.82180989E-01 0.13147144E+03</pdfrwt>
<pdfrwt beam="1">  1       -2 0.39272281E-02 0.13147144E+03</pdfrwt>
<totfact> 0.15395252E+04</totfact>
</mgrwt>
</event>
<event>
 8    2  0.1628804E-003  0.1332131E+03  0.7818608E-02  0.1235596E+00
         -2   -1    0    0    0  501 -0.00000000000E+00  0.00000000000E+00  0.14154801208E+02  0.14154801438E+02  0.25500000000E-02 0.  1.
          2   -1    0    0  501    0  0.00000000000E+00 -0.00000000000E+00 -0.11530161895E+04  0.11530161895E+04  0.25500000000E-02 0. -1.
         25    2    1    2    0    0 -0.37110144507E+01 -0.45904493236E+02 -0.85850217457E+03  0.86877598442E+03  0.12499893297E+03 0.  0.
         23    2    1    2    0    0  0.37110144507E+01  0.45904493236E+02 -0.28035921374E+03  0.29839500653E+03  0.91199216378E+02 0.  0.
        -11    1    4    4    0    0  0.31332763034E+01  0.12925899684E+02  0.25728873608E+01  0.13546809686E+02  0.51100000000E-03 0.  1.
         11    1    4    4    0    0  0.57773814732E+00  0.32978593552E+02 -0.28293210110E+03  0.28484819685E+03  0.51100000000E-03 0. -1.
    9000005    1    3    3    0    0  0.17117883030E+01 -0.64606338761E+02 -0.83797685057E+03  0.84046600843E+03  0.10000000000E+01 0.  0.
    9000005    1    3    3    0    0 -0.54228027537E+01  0.18701845524E+02 -0.20525323998E+02  0.28309975997E+02  0.10000000000E+01 0.  0.
<mgrwt>
<rscale>  0 0.12466337E+03</rscale>
<asrwt>0</asrwt>
<pdfrwt beam="2">  1        2 0.17738703E+00 0.13321309E+03</pdfrwt>
<pdfrwt beam="1">  1       -2 0.21776627E-02 0.13321309E+03</pdfrwt>
<totfact> 0.13943474E+04</totfact>
</mgrwt>
</event>
<event>
 8    2  0.1628804E-003  0.2775956E+03  0.7818608E-02  0.1099187E+00
         -2   -1    0    0    0  501 -0.00000000000E+00  0.00000000000E+00  0.41127103860E+02  0.41127103940E+02  0.25500000000E-02 0. -1.
          2   -1    0    0  501    0  0.00000000000E+00 -0.00000000000E+00 -0.18265617966E+04  0.18265617966E+04  0.25500000000E-02 0.  1.
         25    2    1    2    0    0  0.22610980512E+03  0.10154153806E+03 -0.10788667068E+04  0.11140074855E+04  0.12499191564E+03 0.  0.
         23    2    1    2    0    0 -0.22610980512E+03 -0.10154153806E+03 -0.70656798598E+03  0.75368141499E+03  0.85796436852E+02 0.  0.
        -11    1    4    4    0    0 -0.10736217755E+03 -0.53986133619E+02 -0.46569659283E+03  0.48095161541E+03  0.51100000000E-03 0.  1.
         11    1    4    4    0    0 -0.11874762756E+03 -0.47555404441E+02 -0.24087139315E+03  0.27272979959E+03  0.51100000000E-03 0. -1.
    9000005    1    3    3    0    0  0.17376049226E+03  0.81864775909E+02 -0.55777639415E+03  0.58992377141E+03  0.10000000000E+01 0.  0.
    9000005    1    3    3    0    0  0.52349312857E+02  0.19676762150E+02 -0.52109031260E+03  0.52408371413E+03  0.10000000000E+01 0.  0.
<mgrwt>
<rscale>  0 0.27368808E+03</rscale>
<asrwt>0</asrwt>
<pdfrwt beam="2">  1        2 0.28100944E+00 0.27759558E+03</pdfrwt>
<pdfrwt beam="1">  1       -2 0.63272482E-02 0.27759558E+03</pdfrwt>
<totfact> 0.12491161E+03</totfact>
</mgrwt>
</event>
<event>
 8    2  0.1628804E-003  0.1292824E+03  0.7818608E-02  0.1242391E+00
         -2   -1    0    0    0  501 -0.00000000000E+00  0.00000000000E+00  0.91810441819E+01  0.91810445360E+01  0.25500000000E-02 0.  1.
          2   -1    0    0  501    0  0.00000000000E+00 -0.00000000000E+00 -0.17094076695E+04  0.17094076695E+04  0.25500000000E-02 0. -1.
         25    2    1    2    0    0  0.26744168475E+02  0.19334825302E+02 -0.58466589251E+03  0.59878890868E+03  0.12499946107E+03 0.  0.
         23    2    1    2    0    0 -0.26744168475E+02 -0.19334825302E+02 -0.11155607328E+04  0.11197998053E+04  0.91579307128E+02 0.  0.
        -11    1    4    4    0    0 -0.19104811243E+01  0.80877220294E+01 -0.95483353123E+03  0.95486969454E+03  0.51100000000E-03 0. -1.
         11    1    4    4    0    0 -0.24833687351E+02 -0.27422547332E+02 -0.16072720155E+03  0.16493011080E+03  0.51100000000E-03 0.  1.
    9000005    1    3    3    0    0  0.12064600108E+02  0.59744856222E+02 -0.50121708753E+03  0.50491045865E+03  0.10000000000E+01 0.  0.
    9000005    1    3    3    0    0  0.14679568367E+02 -0.40410030920E+02 -0.83448804980E+02  0.93878450024E+02  0.10000000000E+01 0.  0.
<mgrwt>
<rscale>  0 0.12042925E+03</rscale>
<asrwt>0</asrwt>
<pdfrwt beam="2">  1        2 0.26298554E+00 0.12928245E+03</pdfrwt>
<pdfrwt beam="1">  1       -2 0.14124697E-02 0.12928245E+03</pdfrwt>
<totfact> 0.13225596E+04</totfact>
</mgrwt>
</event>
<event>
 8    2  0.1628804E-003  0.1310532E+03  0.7818608E-02  0.1239489E+00
          2   -1    0    0  501    0  0.00000000000E+00  0.00000000000E+00  0.24253469043E+04  0.24253469043E+04  0.25500000000E-02 0. -1.
         -2   -1    0    0    0  501 -0.00000000000E+00 -0.00000000000E+00 -0.59455705525E+01  0.59455710994E+01  0.25500000000E-02 0.  1.
         25    2    1    2    0    0  0.23371118404E+02 -0.31686798055E+02  0.10198353271E+04  0.10282212995E+04  0.12499873583E+03 0.  0.
         23    2    1    2    0    0 -0.23371118404E+02  0.31686798055E+02  0.13995660067E+04  0.14030711760E+04  0.90958536636E+02 0.  0.
        -11    1    4    4    0    0 -0.57403719004E+02  0.28908865826E+02  0.99009684846E+03  0.99218076922E+03  0.51100000000E-03 0.  1.
         11    1    4    4    0    0  0.34032600600E+02  0.27779322295E+01  0.40946915824E+03  0.41089040676E+03  0.51100000000E-03 0. -1.
    9000005    1    3    3    0    0  0.69774871218E+02 -0.29487568854E+02  0.79703025118E+03  0.80062242703E+03  0.10000000000E+01 0.  0.
    9000005    1    3    3    0    0 -0.46403752814E+02 -0.21992292009E+01  0.22280507590E+03  0.22759887243E+03  0.10000000000E+01 0.  0.
<mgrwt>
<rscale>  0 0.12221380E+03</rscale>
<asrwt>0</asrwt>
<pdfrwt beam="1">  1        2 0.37313128E+00 0.13105322E+03</pdfrwt>
<pdfrwt beam="2">  1       -2 0.91470079E-03 0.13105322E+03</pdfrwt>
<totfact> 0.10551512E+04</totfact>
</mgrwt>
</event>
<event>
 8    2  0.1628804E-003  0.1567698E+03  0.7818608E-02  0.1200410E+00
          2   -1    0    0  501    0  0.00000000000E+00  0.00000000000E+00  0.13764907392E+04  0.13764907392E+04  0.25500000000E-02 0. -1.
         -2   -1    0    0    0  501 -0.00000000000E+00 -0.00000000000E+00 -0.15590859062E+02  0.15590859271E+02  0.25500000000E-02 0.  1.
         25    2    1    2    0    0 -0.82445095046E+02 -0.46407771756E+02  0.86101182117E+03  0.87516749080E+03  0.12500362310E+03 0.  0.
         23    2    1    2    0    0  0.82445095046E+02  0.46407771756E+02  0.49988805901E+03  0.51691410771E+03  0.91439861302E+02 0.  0.
        -11    1    4    4    0    0  0.75154727651E+02  0.28402083359E+02  0.18833344315E+03  0.20475448038E+03  0.51100000000E-03 0.  1.
         11    1    4    4    0    0  0.72903673948E+01  0.18005688398E+02  0.31155461586E+03  0.31215962733E+03  0.51100000000E-03 0. -1.
    9000005    1    3    3    0    0 -0.24433661502E+02 -0.74459582589E+02  0.28560196972E+03  0.29615995401E+03  0.10000000000E+01 0.  0.
    9000005    1    3    3    0    0 -0.58011433544E+02  0.28051810832E+02  0.57540985145E+03  0.57900753679E+03  0.10000000000E+01 0.  0.
<mgrwt>
<rscale>  0 0.15005161E+03</rscale>
<asrwt>0</asrwt>
<pdfrwt beam="1">  1        2 0.21176781E+00 0.15676983E+03</pdfrwt>
<pdfrwt beam="2">  1       -2 0.23985936E-02 0.15676983E+03</pdfrwt>
<totfact> 0.92178767E+03</totfact>
</mgrwt>
</event>
<event>
 8    2  0.1628804E-003  0.1593977E+03  0.7818608E-02  0.1197819E+00
          2   -1    0    0  501    0  0.00000000000E+00  0.00000000000E+00  0.50551402002E+02  0.50551402066E+02  0.25500000000E-02 0. -1.
         -2   -1    0    0    0  501 -0.00000000000E+00 -0.00000000000E+00 -0.42119799963E+03  0.42119799964E+03  0.25500000000E-02 0.  1.
         25    2    1    2    0    0  0.56419062466E+01 -0.98742572296E+02 -0.20072659641E+03  0.25631773056E+03  0.12500274319E+03 0.  0.
         23    2    1    2    0    0 -0.56419062466E+01  0.98742572296E+02 -0.16992000122E+03  0.21543167115E+03  0.88068560949E+02 0.  0.
        -11    1    4    4    0    0  0.40952457524E+02  0.47010167731E+02 -0.89288640849E+02  0.10890142805E+03  0.51100000000E-03 0. -1.
         11    1    4    4    0    0 -0.46594363770E+02  0.51732404564E+02 -0.80631360373E+02  0.10653024309E+03  0.51100000000E-03 0.  1.
    9000005    1    3    3    0    0 -0.59081432565E+02 -0.56532729016E+02 -0.11158819674E+03  0.13834554845E+03  0.10000000000E+01 0.  0.
    9000005    1    3    3    0    0  0.64723338812E+02 -0.42209843279E+02 -0.89138399666E+02  0.11797218211E+03  0.10000000000E+01 0.  0.
<mgrwt>
<rscale>  0 0.15218048E+03</rscale>
<asrwt>0</asrwt>
<pdfrwt beam="1">  1        2 0.77771391E-02 0.15939766E+03</pdfrwt>
<pdfrwt beam="2">  1       -2 0.64799690E-01 0.15939766E+03</pdfrwt>
<totfact> 0.19304437E+03</totfact>
</mgrwt>
</event>
<event>
 8    2  0.1628804E-003  0.1294633E+03  0.7818608E-02  0.1242666E+00
          2   -1    0    0  501    0  0.00000000000E+00  0.00000000000E+00  0.52132583337E+02  0.52132583400E+02  0.25500000000E-02 0. -1.
         -2   -1    0    0    0  501 -0.00000000000E+00 -0.00000000000E+00 -0.24505303723E+03  0.24505303724E+03  0.25500000000E-02 0.  1.
         25    2    1    2    0    0 -0.32395453705E+02  0.92857361136E+01 -0.11665497216E+03  0.17426740061E+03  0.12500021628E+03 0.  0.
         23    2    1    2    0    0  0.32395453705E+02 -0.92857361136E+01 -0.76265481728E+02  0.12291822003E+03  0.90314864759E+02 0.  0.
        -11    1    4    4    0    0  0.18456299784E+02 -0.18081334619E+02 -0.94716615521E+02  0.98177425711E+02  0.51100000000E-03 0.  1.
         11    1    4    4    0    0  0.13939153920E+02  0.87955985050E+01  0.18451133793E+02  0.24740794320E+02  0.51100000000E-03 0. -1.
    9000005    1    3    3    0    0 -0.52216578026E+02  0.45201391381E+02 -0.11381657548E+03  0.13313508049E+03  0.10000000000E+01 0.  0.
    9000005    1    3    3    0    0  0.19821124322E+02 -0.35915655267E+02 -0.28383966842E+01  0.41132320119E+02  0.10000000000E+01 0.  0.
<mgrwt>
<rscale>  0 0.12026143E+03</rscale>
<asrwt>0</asrwt>
<pdfrwt beam="1">  1        2 0.80203975E-02 0.12946329E+03</pdfrwt>
<pdfrwt beam="2">  1       -2 0.37700467E-01 0.12946329E+03</pdfrwt>
<totfact> 0.53484083E+03</totfact>
</mgrwt>
</event>
<event>
 8    2  0.1628804E-003  0.1299086E+03  0.7818608E-02  0.1240928E+00
         -2   -1    0    0    0  501 -0.00000000000E+00  0.00000000000E+00  0.49056027389E+02  0.49056027455E+02  0.25500000000E-02 0.  1.
          2   -1    0    0  501    0  0.00000000000E+00 -0.00000000000E+00 -0.26684979629E+03  0.26684979630E+03  0.25500000000E-02 0. -1.
         25    2    1    2    0    0 -0.33650835005E+02  0.10947213617E+02 -0.11925894896E+03  0.17634894669E+03  0.12499613558E+03 0.  0.
         23    2    1    2    0    0  0.33650835005E+02 -0.10947213617E+02 -0.98534819935E+02  0.13955687706E+03  0.92275625236E+02 0.  0.
        -11    1    4    4    0    0  0.29918925829E+02  0.24348778432E+02 -0.42442519683E+01  0.38807458161E+02  0.51100000000E-03 0.  1.
         11    1    4    4    0    0  0.37319091762E+01 -0.35295992049E+02 -0.94290567967E+02  0.10074941890E+03  0.51100000000E-03 0. -1.
    9000005    1    3    3    0    0  0.46457523273E+02  0.16987711817E+02 -0.48668833353E+02  0.69401290776E+02  0.10000000000E+01 0.  0.
    9000005    1    3    3    0    0 -0.80108358278E+02 -0.60404982007E+01 -0.70590115609E+02  0.10694765592E+03  0.10000000000E+01 0.  0.
<mgrwt>
<rscale>  0 0.12132456E+03</rscale>
<asrwt>0</asrwt>
<pdfrwt beam="2">  1        2 0.41053814E-01 0.12990864E+03</pdfrwt>
<pdfrwt beam="1">  1       -2 0.75470813E-02 0.12990864E+03</pdfrwt>
<totfact> 0.12077496E+04</totfact>
</mgrwt>
</event>
<event>
 8    2  0.1628804E-003  0.1712926E+03  0.7818608E-02  0.1182937E+00
          2   -1    0    0  501    0  0.00000000000E+00  0.00000000000E+00  0.88772375429E+02  0.88772375465E+02  0.25500000000E-02 0. -1.
         -2   -1    0    0    0  501 -0.00000000000E+00 -0.00000000000E+00 -0.31202608931E+03  0.31202608932E+03  0.25500000000E-02 0.  1.
         25    2    1    2    0    0 -0.10680254966E+03  0.48056829036E+02 -0.17508371734E+03  0.24493967817E+03  0.12499957773E+03 0.  0.
         23    2    1    2    0    0  0.10680254966E+03 -0.48056829036E+02 -0.48169996541E+02  0.15585878662E+03  0.90859063213E+02 0.  0.
        -11    1    4    4    0    0  0.65449470250E+02 -0.69165491130E+02 -0.99871640506E+01  0.95745714083E+02  0.51100000000E-03 0. -1.
         11    1    4    4    0    0  0.41353079409E+02  0.21108662095E+02 -0.38182832491E+02  0.60113072533E+02  0.51100000000E-03 0.  1.
    9000005    1    3    3    0    0  0.27860795713E+02  0.15981840751E+01 -0.38707347672E+02  0.47728784752E+02  0.10000000000E+01 0.  0.
    9000005    1    3    3    0    0 -0.13466334537E+03  0.46458644961E+02 -0.13637636966E+03  0.19721089341E+03  0.10000000000E+01 0.  0.
<mgrwt>
<rscale>  0 0.16521010E+03</rscale>
<asrwt>0</asrwt>
<pdfrwt beam="1">  1        2 0.13657289E-01 0.17129255E+03</pdfrwt>
<pdfrwt beam="2">  1       -2 0.48004013E-01 0.17129255E+03</pdfrwt>
<totfact> 0.17827063E+03</totfact>
</mgrwt>
</event>
<event>
 8    2  0.1628804E-003  0.2436378E+03  0.7818608E-02  0.1120266E+00
          2   -1    0    0  501    0  0.00000000000E+00  0.00000000000E+00  0.38977673916E+03  0.38977673917E+03  0.25500000000E-02 0. -1.
         -2   -1    0    0    0  501 -0.00000000000E+00 -0.00000000000E+00 -0.29360941904E+03  0.29360941905E+03  0.25500000000E-02 0.  1.
         25    2    1    2    0    0 -0.18407527592E+03 -0.99246543969E+02  0.29446426562E+03  0.38218920458E+03  0.12500320266E+03 0.  0.
         23    2    1    2    0    0  0.18407527592E+03  0.99246543969E+02 -0.19829694549E+03  0.30119695364E+03  0.87546231198E+02 0.  0.
        -11    1    4    4    0    0  0.13631193739E+03  0.28687928769E+02 -0.14293775686E+03  0.19958743414E+03  0.51100000000E-03 0.  1.
         11    1    4    4    0    0  0.47763338537E+02  0.70558615200E+02 -0.55359188631E+02  0.10160951950E+03  0.51100000000E-03 0. -1.
    9000005    1    3    3    0    0 -0.66715227689E+02  0.14492155899E+02  0.14690503682E+03  0.16199701858E+03  0.10000000000E+01 0.  0.
    9000005    1    3    3    0    0 -0.11736004824E+03 -0.11373869987E+03  0.14755922880E+03  0.22019218600E+03  0.10000000000E+01 0.  0.
<mgrwt>
<rscale>  0 0.23929120E+03</rscale>
<asrwt>0</asrwt>
<pdfrwt beam="1">  1        2 0.59965652E-01 0.24363781E+03</pdfrwt>
<pdfrwt beam="2">  1       -2 0.45170680E-01 0.24363781E+03</pdfrwt>
<totfact> 0.38885219E+02</totfact>
</mgrwt>
</event>
<event>
 8    2  0.1628804E-003  0.1434318E+03  0.7818608E-02  0.1230052E+00
         -2   -1    0    0    0  501 -0.00000000000E+00  0.00000000000E+00  0.27142219185E+03  0.27142219186E+03  0.25500000000E-02 0.  1.
          2   -1    0    0  501    0  0.00000000000E+00 -0.00000000000E+00 -0.52335787381E+02  0.52335787443E+02  0.25500000000E-02 0. -1.
         25    2    1    2    0    0 -0.51918122630E+01 -0.70149887837E+02  0.15882739270E+03  0.21400656231E+03  0.12499882544E+03 0.  0.
         23    2    1    2    0    0  0.51918122630E+01  0.70149887837E+02  0.60259011774E+02  0.10975141700E+03  0.58874980727E+02 0.  0.
        -11    1    4    4    0    0  0.24892158486E+02  0.21375079561E+02  0.45373591064E+01  0.33122518145E+02  0.51100000000E-03 0. -1.
         11    1    4    4    0    0 -0.19700346223E+02  0.48774808276E+02  0.55721652667E+02  0.76628898856E+02  0.51100000000E-03 0.  1.
    9000005    1    3    3    0    0  0.57099197428E+02 -0.54285152546E+02  0.94881787410E+02  0.12333186821E+03  0.10000000000E+01 0.  0.
    9000005    1    3    3    0    0 -0.62291009691E+02 -0.15864735291E+02  0.63945605288E+02  0.90674694098E+02  0.10000000000E+01 0.  0.
<mgrwt>
<rscale>  0 0.12826576E+03</rscale>
<asrwt>0</asrwt>
<pdfrwt beam="2">  1        2 0.80516594E-02 0.14343175E+03</pdfrwt>
<pdfrwt beam="1">  1       -2 0.41757261E-01 0.14343175E+03</pdfrwt>
<totfact> 0.44198843E+03</totfact>
</mgrwt>
</event>
<event>
 8    2  0.1628804E-003  0.1792790E+03  0.7818608E-02  0.1174183E+00
         -2   -1    0    0    0  501 -0.00000000000E+00  0.00000000000E+00  0.19184806404E+02  0.19184806574E+02  0.25500000000E-02 0.  1.
          2   -1    0    0  501    0  0.00000000000E+00 -0.00000000000E+00 -0.15535274419E+04  0.15535274419E+04  0.25500000000E-02 0. -1.
         25    2    1    2    0    0 -0.12473894144E+03 -0.30914112607E+02 -0.64119830762E+03  0.66578994185E+03  0.12500196441E+03 0.  0.
         23    2    1    2    0    0  0.12473894144E+03  0.30914112607E+02 -0.89314432792E+03  0.90692230667E+03  0.91026336667E+02 0.  0.
        -11    1    4    4    0    0  0.49700131530E+01  0.36110933604E+02 -0.25814047305E+03  0.26070137012E+03  0.51100000000E-03 0.  1.
         11    1    4    4    0    0  0.11976892829E+03 -0.51968209971E+01 -0.63500385488E+03  0.64622093655E+03  0.51100000000E-03 0. -1.
    9000005    1    3    3    0    0  0.81447644455E+01 -0.35866588976E+02 -0.24797484264E+03  0.25068959287E+03  0.10000000000E+01 0.  0.
    9000005    1    3    3    0    0 -0.13288370588E+03  0.49524763688E+01 -0.39322346498E+03  0.41510034898E+03  0.10000000000E+01 0.  0.
<mgrwt>
<rscale>  0 0.17356271E+03</rscale>
<asrwt>0</asrwt>
<pdfrwt beam="2">  1        2 0.23900412E+00 0.17927905E+03</pdfrwt>
<pdfrwt beam="1">  1       -2 0.29515099E-02 0.17927905E+03</pdfrwt>
<totfact> 0.54990007E+03</totfact>
</mgrwt>
</event>
<event>
 8    2  0.1628804E-003  0.1297673E+03  0.7818608E-02  0.1241686E+00
         -2   -1    0    0    0  501 -0.00000000000E+00  0.00000000000E+00  0.37881122728E+03  0.37881122729E+03  0.25500000000E-02 0.  1.
          2   -1    0    0  501    0  0.00000000000E+00 -0.00000000000E+00 -0.37604609207E+02  0.37604609294E+02  0.25500000000E-02 0. -1.
         25    2    1    2    0    0 -0.30834727362E+02  0.16237519567E+02  0.25520142560E+03  0.28629935551E+03  0.12500046354E+03 0.  0.
         23    2    1    2    0    0  0.30834727362E+02 -0.16237519567E+02  0.86005192471E+02  0.13011648107E+03  0.91208377137E+02 0.  0.
        -11    1    4    4    0    0 -0.23993692287E+02 -0.18028861517E+02  0.64598727870E+02  0.71230139406E+02  0.51100000000E-03 0.  1.
         11    1    4    4    0    0  0.54828419649E+02  0.17913419499E+01  0.21406464601E+02  0.58886341660E+02  0.51100000000E-03 0. -1.
    9000005    1    3    3    0    0  0.65572173420E+01 -0.45647244982E+01  0.24110173923E+03  0.24123615498E+03  0.10000000000E+01 0.  0.
    9000005    1    3    3    0    0 -0.37391944704E+02  0.20802244065E+02  0.14099686372E+02  0.45063200538E+02  0.10000000000E+01 0.  0.
<mgrwt>
<rscale>  0 0.12085927E+03</rscale>
<asrwt>0</asrwt>
<pdfrwt beam="2">  1        2 0.57853246E-02 0.12976730E+03</pdfrwt>
<pdfrwt beam="1">  1       -2 0.58278650E-01 0.12976730E+03</pdfrwt>
<totfact> 0.34639316E+03</totfact>
</mgrwt>
</event>
<event>
 8    2  0.1628804E-003  0.1656047E+03  0.7818608E-02  0.1188485E+00
          2   -1    0    0  501    0  0.00000000000E+00  0.00000000000E+00  0.21826078447E+04  0.21826078447E+04  0.25500000000E-02 0. -1.
         -2   -1    0    0    0  501 -0.00000000000E+00 -0.00000000000E+00 -0.11682288447E+02  0.11682288725E+02  0.25500000000E-02 0.  1.
         25    2    1    2    0    0  0.99432765406E+02  0.43744460294E+02  0.14086076165E+04  0.14183089719E+04  0.12499787966E+03 0.  0.
         23    2    1    2    0    0 -0.99432765406E+02 -0.43744460294E+02  0.76231793983E+03  0.77598116159E+03  0.96008692856E+02 0.  0.
        -11    1    4    4    0    0 -0.14761559101E+02  0.18008978279E+01  0.10901233476E+02  0.18438648313E+02  0.51100000000E-03 0.  1.
         11    1    4    4    0    0 -0.84671206305E+02 -0.45545358122E+02  0.75141670636E+03  0.75754251327E+03  0.51100000000E-03 0. -1.
    9000005    1    3    3    0    0  0.93036599333E+02  0.78556805252E+02  0.86235890164E+03  0.87091380498E+03  0.10000000000E+01 0.  0.
    9000005    1    3    3    0    0  0.63961660730E+01 -0.34812344957E+02  0.54624871482E+03  0.54739516690E+03  0.10000000000E+01 0.  0.
<mgrwt>
<rscale>  0 0.16018755E+03</rscale>
<asrwt>0</asrwt>
<pdfrwt beam="1">  1        2 0.33578548E+00 0.16560472E+03</pdfrwt>
<pdfrwt beam="2">  1       -2 0.17972770E-02 0.16560472E+03</pdfrwt>
<totfact> 0.53674317E+03</totfact>
</mgrwt>
</event>
<event>
 8    2  0.1628804E-003  0.1423060E+03  0.7818608E-02  0.1222811E+00
         -2   -1    0    0    0  501 -0.00000000000E+00  0.00000000000E+00  0.66559225941E+02  0.66559225989E+02  0.25500000000E-02 0.  1.
          2   -1    0    0  501    0  0.00000000000E+00 -0.00000000000E+00 -0.23767401749E+03  0.23767401750E+03  0.25500000000E-02 0. -1.
         25    2    1    2    0    0  0.22112926382E+02 -0.64308136904E+02 -0.10051844809E+03  0.17422676519E+03  0.12500595713E+03 0.  0.
         23    2    1    2    0    0 -0.22112926382E+02  0.64308136904E+02 -0.70596343455E+02  0.13000647830E+03  0.85400952599E+02 0.  0.
        -11    1    4    4    0    0 -0.35408446447E+02  0.72736485166E+02 -0.78208427561E+02  0.11252072030E+03  0.51100000000E-03 0. -1.
         11    1    4    4    0    0  0.13295520065E+02 -0.84283482616E+01  0.76120841057E+01  0.17485758002E+02  0.51100000000E-03 0.  1.
    9000005    1    3    3    0    0  0.38839300088E+00  0.34137577978E+02 -0.35418022878E+01  0.34337580619E+02  0.10000000000E+01 0.  0.
    9000005    1    3    3    0    0  0.21724533381E+02 -0.98445714882E+02 -0.96976645802E+02  0.13988918457E+03  0.10000000000E+01 0.  0.
<mgrwt>
<rscale>  0 0.13318097E+03</rscale>
<asrwt>0</asrwt>
<pdfrwt beam="2">  1        2 0.36565233E-01 0.14230603E+03</pdfrwt>
<pdfrwt beam="1">  1       -2 0.10239881E-01 0.14230603E+03</pdfrwt>
<totfact> 0.85586157E+03</totfact>
</mgrwt>
</event>
<event>
 8    2  0.1628804E-003  0.1343456E+03  0.7818608E-02  0.1233314E+00
          2   -1    0    0  501    0  0.00000000000E+00  0.00000000000E+00  0.25868269132E+04  0.25868269132E+04  0.25500000000E-02 0. -1.
         -2   -1    0    0    0  501 -0.00000000000E+00 -0.00000000000E+00 -0.58658966086E+01  0.58658971629E+01  0.25500000000E-02 0.  1.
         25    2    1    2    0    0 -0.48982599006E+02 -0.49278556448E+01  0.11245611953E+04  0.11325575613E+04  0.12500067558E+03 0.  0.
         23    2    1    2    0    0  0.48982599006E+02  0.49278556448E+01  0.14563998212E+04  0.14601352490E+04  0.92037641016E+02 0.  0.
        -11    1    4    4    0    0  0.54953210215E+01  0.37816603572E+02  0.29618656586E+03  0.29864155078E+03  0.51100000000E-03 0.  1.
         11    1    4    4    0    0  0.43487277985E+02 -0.32888747928E+02  0.11602132554E+04  0.11614936982E+04  0.51100000000E-03 0. -1.
    9000005    1    3    3    0    0 -0.81990758613E+02  0.20587577685E+02  0.91393591946E+03  0.91783778400E+03  0.10000000000E+01 0.  0.
    9000005    1    3    3    0    0  0.33008159606E+02 -0.25515433330E+02  0.21062527589E+03  0.21471977734E+03  0.10000000000E+01 0.  0.
<mgrwt>
<rscale>  0 0.12613006E+03</rscale>
<asrwt>0</asrwt>
<pdfrwt beam="1">  1        2 0.39797496E+00 0.13434563E+03</pdfrwt>
<pdfrwt beam="2">  1       -2 0.90244206E-03 0.13434563E+03</pdfrwt>
<totfact> 0.88243009E+03</totfact>
</mgrwt>
</event>
<event>
 8    2  0.1628804E-003  0.1318709E+03  0.7818608E-02  0.1229853E+00
          2   -1    0    0  501    0  0.00000000000E+00  0.00000000000E+00  0.20415111575E+04  0.20415111575E+04  0.25500000000E-02 0. -1.
         -2   -1    0    0    0  501 -0.00000000000E+00 -0.00000000000E+00 -0.79365203211E+01  0.79365207308E+01  0.25500000000E-02 0.  1.
         25    2    1    2    0    0  0.35980406748E+02 -0.21700632143E+02  0.88435886948E+03  0.89413676095E+03  0.12499772057E+03 0.  0.
         23    2    1    2    0    0 -0.35980406748E+02  0.21700632143E+02  0.11492157677E+04  0.11553109173E+04  0.11081934741E+03 0.  0.
        -11    1    4    4    0    0 -0.43027467089E+02  0.88654535239E+01  0.11313887256E+04  0.11322413204E+04  0.51100000000E-03 0. -1.
         11    1    4    4    0    0  0.70470603419E+01  0.12835178619E+02  0.17827042027E+02  0.23069596818E+02  0.51100000000E-03 0.  1.
    9000005    1    3    3    0    0  0.27153997067E+02 -0.73995553550E+02  0.52840280689E+03  0.53425013601E+03  0.10000000000E+01 0.  0.
    9000005    1    3    3    0    0  0.88264096810E+01  0.52294921407E+02  0.35595606259E+03  0.35988662493E+03  0.10000000000E+01 0.  0.
<mgrwt>
<rscale>  0 0.12839778E+03</rscale>
<asrwt>0</asrwt>
<pdfrwt beam="1">  1        2 0.31407833E+00 0.13187091E+03</pdfrwt>
<pdfrwt beam="2">  1       -2 0.12210044E-02 0.13187091E+03</pdfrwt>
<totfact> 0.11044542E+04</totfact>
</mgrwt>
</event>
<event>
 8    2  0.1628804E-003  0.1323429E+03  0.7818608E-02  0.1238753E+00
          2   -1    0    0  501    0  0.00000000000E+00  0.00000000000E+00  0.49734998813E+03  0.49734998813E+03  0.25500000000E-02 0. -1.
         -2   -1    0    0    0  501 -0.00000000000E+00 -0.00000000000E+00 -0.27448739347E+02  0.27448739466E+02  0.25500000000E-02 0.  1.
         25    2    1    2    0    0 -0.80822910491E+01 -0.42705600310E+02  0.22361881859E+03  0.25984612518E+03  0.12500216405E+03 0.  0.
         23    2    1    2    0    0  0.80822910491E+01  0.42705600310E+02  0.24628243019E+03  0.26495260242E+03  0.87497167852E+02 0.  0.
        -11    1    4    4    0    0 -0.32744382348E+01 -0.22178205510E+02  0.12445261853E+03  0.12645571954E+03  0.51100000000E-03 0. -1.
         11    1    4    4    0    0  0.11356729284E+02  0.64883805821E+02  0.12182981166E+03  0.13849688288E+03  0.51100000000E-03 0.  1.
    9000005    1    3    3    0    0  0.47408217574E+02 -0.30215746025E+02  0.43890239963E+02  0.71329401830E+02  0.10000000000E+01 0.  0.
    9000005    1    3    3    0    0 -0.55490508623E+02 -0.12489854286E+02  0.17972857863E+03  0.18851672335E+03  0.10000000000E+01 0.  0.
<mgrwt>
<rscale>  0 0.12267230E+03</rscale>
<asrwt>0</asrwt>
<pdfrwt beam="1">  1        2 0.76515373E-01 0.13234286E+03</pdfrwt>
<pdfrwt beam="2">  1       -2 0.42228835E-02 0.13234286E+03</pdfrwt>
<totfact> 0.14961727E+04</totfact>
</mgrwt>
</event>
<event>
 8    2  0.1628804E-003  0.1327453E+03  0.7818608E-02  0.1235456E+00
         -2   -1    0    0    0  501 -0.00000000000E+00  0.00000000000E+00  0.10500243939E+02  0.10500244248E+02  0.25500000000E-02 0. -1.
          2   -1    0    0  501    0  0.00000000000E+00 -0.00000000000E+00 -0.13833279538E+04  0.13833279538E+04  0.25500000000E-02 0.  1.
         25    2    1    2    0    0 -0.16629846603E+02  0.41481529973E+02 -0.63130226068E+03  0.64510763726E+03  0.12499620066E+03 0.  0.
         23    2    1    2    0    0  0.16629846603E+02 -0.41481529973E+02 -0.74152544919E+03  0.74872056080E+03  0.93408871346E+02 0.  0.
        -11    1    4    4    0    0 -0.25765336230E+02 -0.49828911097E+02 -0.52026863408E+03  0.52328407633E+03  0.51100000000E-03 0.  1.
         11    1    4    4    0    0  0.42395182833E+02  0.83473811238E+01 -0.22125681511E+03  0.22543648448E+03  0.51100000000E-03 0. -1.
    9000005    1    3    3    0    0 -0.22040996303E+02  0.25973394059E+02 -0.62723080168E+03  0.62815595300E+03  0.10000000000E+01 0.  0.
    9000005    1    3    3    0    0  0.54111496997E+01  0.15508135914E+02 -0.40714589983E+01  0.16951684251E+02  0.10000000000E+01 0.  0.
<mgrwt>
<rscale>  0 0.12475310E+03</rscale>
<asrwt>0</asrwt>
<pdfrwt beam="2">  1        2 0.21281954E+00 0.13274532E+03</pdfrwt>
<pdfrwt beam="1">  1       -2 0.16154233E-02 0.13274532E+03</pdfrwt>
<totfact> 0.16106082E+04</totfact>
</mgrwt>
</event>
<event>
 8    2  0.1628804E-003  0.1306647E+03  0.7818608E-02  0.1240580E+00
         -2   -1    0    0    0  501 -0.00000000000E+00  0.00000000000E+00  0.27259058136E+02  0.27259058256E+02  0.25500000000E-02 0.  1.
          2   -1    0    0  501    0  0.00000000000E+00 -0.00000000000E+00 -0.48759976828E+03  0.48759976828E+03  0.25500000000E-02 0. -1.
         25    2    1    2    0    0 -0.38036148493E+02  0.11152338180E+01 -0.29700069606E+03  0.32447292790E+03  0.12500110057E+03 0.  0.
         23    2    1    2    0    0  0.38036148493E+02 -0.11152338180E+01 -0.16334001408E+03  0.19038589863E+03  0.90104594002E+02 0.  0.
        -11    1    4    4    0    0 -0.15328541358E+02  0.31624559602E+02 -0.55575658089E+02  0.65755081343E+02  0.51100000000E-03 0.  1.
         11    1    4    4    0    0  0.53364689851E+02 -0.32739793420E+02 -0.10776435599E+03  0.12463081729E+03  0.51100000000E-03 0. -1.
    9000005    1    3    3    0    0 -0.34232370560E+01  0.58914226011E+02 -0.18034093264E+03  0.18975367338E+03  0.10000000000E+01 0.  0.
    9000005    1    3    3    0    0 -0.34612911437E+02 -0.57798992193E+02 -0.11665976342E+03  0.13471925452E+03  0.10000000000E+01 0.  0.
<mgrwt>
<rscale>  0 0.12153875E+03</rscale>
<asrwt>0</asrwt>
<pdfrwt beam="2">  1        2 0.75015343E-01 0.13066471E+03</pdfrwt>
<pdfrwt beam="1">  1       -2 0.41937016E-02 0.13066471E+03</pdfrwt>
<totfact> 0.15431800E+04</totfact>
</mgrwt>
</event>
<event>
 8    2  0.1628804E-003  0.1359989E+03  0.7818608E-02  0.1231199E+00
          2   -1    0    0  501    0  0.00000000000E+00  0.00000000000E+00  0.11223998177E+04  0.11223998177E+04  0.25500000000E-02 0. -1.
         -2   -1    0    0    0  501 -0.00000000000E+00 -0.00000000000E+00 -0.14397524407E+02  0.14397524632E+02  0.25500000000E-02 0.  1.
         25    2    1    2    0    0  0.89358416951E+01  0.52821556990E+02  0.43875296074E+03  0.45934722476E+03  0.12500298471E+03 0.  0.
         23    2    1    2    0    0 -0.89358416951E+01 -0.52821556990E+02  0.66924933252E+03  0.67745011754E+03  0.90410323149E+02 0.  0.
        -11    1    4    4    0    0 -0.12631825454E+02 -0.66334120316E+02  0.28291777710E+03  0.29086465432E+03  0.51100000000E-03 0.  1.
         11    1    4    4    0    0  0.36959837587E+01  0.13512563327E+02  0.38633155541E+03  0.38658546322E+03  0.51100000000E-03 0. -1.
    9000005    1    3    3    0    0  0.11888205423E+01 -0.35569926990E+02  0.22666541866E+03  0.22944464477E+03  0.10000000000E+01 0.  0.
    9000005    1    3    3    0    0  0.77470211528E+01  0.88391483979E+02  0.21208754209E+03  0.22990257999E+03  0.10000000000E+01 0.  0.
<mgrwt>
<rscale>  0 0.12750946E+03</rscale>
<asrwt>0</asrwt>
<pdfrwt beam="1">  1        2 0.17267692E+00 0.13599894E+03</pdfrwt>
<pdfrwt beam="2">  1       -2 0.22150035E-02 0.13599894E+03</pdfrwt>
<totfact> 0.14172411E+04</totfact>
</mgrwt>
</event>
<event>
 8    2  0.1628804E-003  0.2019200E+03  0.7818608E-02  0.1152060E+00
         -2   -1    0    0    0  501 -0.00000000000E+00  0.00000000000E+00  0.34053911277E+03  0.34053911278E+03  0.25500000000E-02 0.  1.
          2   -1    0    0  501    0  0.00000000000E+00 -0.00000000000E+00 -0.12663865088E+03  0.12663865091E+03  0.25500000000E-02 0. -1.
         25    2    1    2    0    0  0.11197610086E+03 -0.11229332988E+03  0.24936156015E+02  0.20345392935E+03  0.12499300136E+03 0.  0.
         23    2    1    2    0    0 -0.11197610086E+03  0.11229332988E+03  0.18896430587E+03  0.26372383434E+03  0.93243298980E+02 0.  0.
        -11    1    4    4    0    0  0.71096366278E+01  0.33003887826E+02  0.69774400053E+02  0.77513034050E+02  0.51100000000E-03 0.  1.
         11    1    4    4    0    0 -0.11908573749E+03  0.79289442054E+02  0.11918990582E+03  0.18621080029E+03  0.51100000000E-03 0. -1.
    9000005    1    3    3    0    0  0.97520661130E+02 -0.54044244277E+02 -0.36734664733E+02  0.11739461350E+03  0.10000000000E+01 0.  0.
    9000005    1    3    3    0    0  0.14455439731E+02 -0.58249085603E+02  0.61670820748E+02  0.86059315842E+02  0.10000000000E+01 0.  0.
<mgrwt>
<rscale>  0 0.19727303E+03</rscale>
<asrwt>0</asrwt>
<pdfrwt beam="2">  1        2 0.19482869E-01 0.20192001E+03</pdfrwt>
<pdfrwt beam="1">  1       -2 0.52390633E-01 0.20192001E+03</pdfrwt>
<totfact> 0.99407486E+02</totfact>
</mgrwt>
</event>
<event>
 8    2  0.1628804E-003  0.1262429E+03  0.7818608E-02  0.1248822E+00
          2   -1    0    0  501    0  0.00000000000E+00  0.00000000000E+00  0.77611442590E+03  0.77611442590E+03  0.25500000000E-02 0. -1.
         -2   -1    0    0    0  501 -0.00000000000E+00 -0.00000000000E+00 -0.16043339002E+02  0.16043339205E+02  0.25500000000E-02 0.  1.
         25    2    1    2    0    0  0.16679645025E+02 -0.58152286645E+01  0.35428093773E+03  0.37610137532E+03  0.12500093695E+03 0.  0.
         23    2    1    2    0    0 -0.16679645025E+02  0.58152286645E+01  0.40579014917E+03  0.41605638978E+03  0.90140151298E+02 0.  0.
        -11    1    4    4    0    0 -0.51055368481E+02 -0.60172109805E+00  0.30796205436E+03  0.31216604499E+03  0.51100000000E-03 0. -1.
         11    1    4    4    0    0  0.34375723457E+02  0.64169497626E+01  0.97828094810E+02  0.10389034480E+03  0.51100000000E-03 0.  1.
    9000005    1    3    3    0    0  0.39309010765E+02  0.51248010238E+02  0.19351591731E+03  0.20401217398E+03  0.10000000000E+01 0.  0.
    9000005    1    3    3    0    0 -0.22629365740E+02 -0.57063238903E+02  0.16076502042E+03  0.17208920134E+03  0.10000000000E+01 0.  0.
<mgrwt>
<rscale>  0 0.11659513E+03</rscale>
<asrwt>0</asrwt>
<pdfrwt beam="1">  1        2 0.11940221E+00 0.12624287E+03</pdfrwt>
<pdfrwt beam="2">  1       -2 0.24682062E-02 0.12624287E+03</pdfrwt>
<totfact> 0.19692195E+04</totfact>
</mgrwt>
</event>
<event>
 8    2  0.1628804E-003  0.1458727E+03  0.7818608E-02  0.1215464E+00
         -2   -1    0    0    0  501 -0.00000000000E+00  0.00000000000E+00  0.28277169223E+03  0.28277169224E+03  0.25500000000E-02 0.  1.
          2   -1    0    0  501    0  0.00000000000E+00 -0.00000000000E+00 -0.67635691156E+02  0.67635691204E+02  0.25500000000E-02 0. -1.
         25    2    1    2    0    0 -0.63123058760E+02 -0.40853861543E+02  0.16948833290E+03  0.22361827989E+03  0.12500112625E+03 0.  0.
         23    2    1    2    0    0  0.63123058760E+02  0.40853861543E+02  0.45647668179E+02  0.12678910356E+03  0.91313792058E+02 0.  0.
        -11    1    4    4    0    0 -0.82001339036E+01  0.12508202118E+02 -0.20562802395E+02  0.25426878669E+02  0.51100000000E-03 0. -1.
         11    1    4    4    0    0  0.71323192663E+02  0.28345659425E+02  0.66210470574E+02  0.10136222489E+03  0.51100000000E-03 0.  1.
    9000005    1    3    3    0    0 -0.46655006778E+02  0.21632653558E+02  0.14609781748E+03  0.15488780981E+03  0.10000000000E+01 0.  0.
    9000005    1    3    3    0    0 -0.16468051981E+02 -0.62486515101E+02  0.23390515420E+02  0.68730470078E+02  0.10000000000E+01 0.  0.
<mgrwt>
<rscale>  0 0.13842501E+03</rscale>
<asrwt>0</asrwt>
<pdfrwt beam="2">  1        2 0.10405491E-01 0.14587268E+03</pdfrwt>
<pdfrwt beam="1">  1       -2 0.43503337E-01 0.14587268E+03</pdfrwt>
<totfact> 0.29756921E+03</totfact>
</mgrwt>
</event>
<event>
 8    2  0.1628804E-003  0.1504054E+03  0.7818608E-02  0.1209797E+00
          2   -1    0    0  501    0  0.00000000000E+00  0.00000000000E+00  0.35028858233E+03  0.35028858234E+03  0.25500000000E-02 0. -1.
         -2   -1    0    0    0  501 -0.00000000000E+00 -0.00000000000E+00 -0.55485087952E+02  0.55485088010E+02  0.25500000000E-02 0.  1.
         25    2    1    2    0    0 -0.50580635294E+02 -0.66617407433E+02  0.11824955026E+03  0.19132362047E+03  0.12500196787E+03 0.  0.
         23    2    1    2    0    0  0.50580635294E+02  0.66617407433E+02  0.17655394412E+03  0.21445004988E+03  0.88437826021E+02 0.  0.
        -11    1    4    4    0    0 -0.19291845813E+02  0.44203858434E+02  0.74668130361E+02  0.88890303786E+02  0.51100000000E-03 0.  1.
         11    1    4    4    0    0  0.69872481107E+02  0.22413548999E+02  0.10188581375E+03  0.12555974610E+03  0.51100000000E-03 0. -1.
    9000005    1    3    3    0    0 -0.12007660843E+02 -0.96387589098E+02  0.55511801786E+02  0.11188079097E+03  0.10000000000E+01 0.  0.
    9000005    1    3    3    0    0 -0.38572974451E+02  0.29770181666E+02  0.62737748476E+02  0.79442829495E+02  0.10000000000E+01 0.  0.
<mgrwt>
<rscale>  0 0.14265745E+03</rscale>
<asrwt>0</asrwt>
<pdfrwt beam="1">  1        2 0.53890553E-01 0.15040536E+03</pdfrwt>
<pdfrwt beam="2">  1       -2 0.85361671E-02 0.15040536E+03</pdfrwt>
<totfact> 0.75596179E+03</totfact>
</mgrwt>
</event>
<event>
 8    2  0.1628804E-003  0.1540149E+03  0.7818608E-02  0.1204384E+00
          2   -1    0    0  501    0  0.00000000000E+00  0.00000000000E+00  0.65250137298E+01  0.65250142281E+01  0.25500000000E-02 0. -1.
         -2   -1    0    0    0  501 -0.00000000000E+00 -0.00000000000E+00 -0.30571427633E+04  0.30571427633E+04  0.25500000000E-02 0.  1.
         25    2    1    2    0    0 -0.10336859252E+02 -0.89378856245E+02 -0.15326800654E+04  0.15403988974E+04  0.12500059865E+03 0.  0.
         23    2    1    2    0    0  0.10336859252E+02  0.89378856245E+02 -0.15179376842E+04  0.15232688802E+04  0.90099042809E+02 0.  0.
        -11    1    4    4    0    0  0.43274151704E+02  0.37659977693E+02 -0.10127946981E+04  0.10144180729E+04  0.51100000000E-03 0.  1.
         11    1    4    4    0    0 -0.32937292451E+02  0.51718878552E+02 -0.50514298609E+03  0.50885080724E+03  0.51100000000E-03 0. -1.
    9000005    1    3    3    0    0  0.36432783092E+02 -0.28404676447E+01 -0.15674029285E+03  0.16094699545E+03  0.10000000000E+01 0.  0.
    9000005    1    3    3    0    0 -0.46769642344E+02 -0.86538388600E+02 -0.13759397725E+04  0.13794519019E+04  0.10000000000E+01 0.  0.
<mgrwt>
<rscale>  0 0.14686077E+03</rscale>
<asrwt>0</asrwt>
<pdfrwt beam="1">  1        2 0.10038507E-02 0.15401487E+03</pdfrwt>
<pdfrwt beam="2">  1       -2 0.47032851E+00 0.15401487E+03</pdfrwt>
<totfact> 0.45754910E+01</totfact>
</mgrwt>
</event>
<event>
 8    2  0.1628804E-003  0.1660886E+03  0.7818608E-02  0.1188948E+00
         -2   -1    0    0    0  501 -0.00000000000E+00  0.00000000000E+00  0.28366367857E+02  0.28366367972E+02  0.25500000000E-02 0. -1.
          2   -1    0    0  501    0  0.00000000000E+00 -0.00000000000E+00 -0.86302006724E+03  0.86302006724E+03  0.25500000000E-02 0.  1.
         25    2    1    2    0    0 -0.49110633742E+02  0.97771771329E+02 -0.52448852851E+03  0.55015784122E+03  0.12495703301E+03 0.  0.
         23    2    1    2    0    0  0.49110633742E+02 -0.97771771329E+02 -0.31016517087E+03  0.34122859399E+03  0.90902951130E+02 0.  0.
        -11    1    4    4    0    0  0.50592058530E+02 -0.92873224686E+01 -0.85747392680E+02  0.99992130174E+02  0.51100000000E-03 0. -1.
         11    1    4    4    0    0 -0.14814247878E+01 -0.88484448860E+02 -0.22441777819E+03  0.24123646382E+03  0.51100000000E-03 0.  1.
    9000005    1    3    3    0    0 -0.66578499811E+02  0.61443334673E+02 -0.48614260493E+03  0.49451351078E+03  0.10000000000E+01 0.  0.
    9000005    1    3    3    0    0  0.17467866069E+02  0.36328436656E+02 -0.38345923580E+02  0.55644330439E+02  0.10000000000E+01 0.  0.
<mgrwt>
<rscale>  0 0.15977784E+03</rscale>
<asrwt>0</asrwt>
<pdfrwt beam="2">  1        2 0.13277230E+00 0.16608863E+03</pdfrwt>
<pdfrwt beam="1">  1       -2 0.43640573E-02 0.16608863E+03</pdfrwt>
<totfact> 0.75542778E+03</totfact>
</mgrwt>
</event>
<event>
 8    2  0.1628804E-003  0.1490677E+03  0.7818608E-02  0.1210181E+00
          2   -1    0    0  501    0  0.00000000000E+00  0.00000000000E+00  0.93254040501E+03  0.93254040501E+03  0.25500000000E-02 0. -1.
         -2   -1    0    0    0  501 -0.00000000000E+00 -0.00000000000E+00 -0.23744833852E+02  0.23744833989E+02  0.25500000000E-02 0.  1.
         25    2    1    2    0    0 -0.20166529298E+02  0.78675262155E+02  0.30008262424E+03  0.33506831210E+03  0.12499882650E+03 0.  0.
         23    2    1    2    0    0  0.20166529298E+02 -0.78675262155E+02  0.60871294692E+03  0.62121692690E+03  0.93715168145E+02 0.  0.
        -11    1    4    4    0    0 -0.21786329514E+01 -0.81853289272E+02  0.27992260177E+03  0.29165282510E+03  0.51100000000E-03 0.  1.
         11    1    4    4    0    0  0.22345162249E+02  0.31780271162E+01  0.32879034515E+03  0.32956410180E+03  0.51100000000E-03 0. -1.
    9000005    1    3    3    0    0 -0.37876382587E+00 -0.29362204475E+02  0.23998693901E+02  0.37937050790E+02  0.10000000000E+01 0.  0.
    9000005    1    3    3    0    0 -0.19787765472E+02  0.10803746663E+03  0.27608393034E+03  0.29713126131E+03  0.10000000000E+01 0.  0.
<mgrwt>
<rscale>  0 0.14236520E+03</rscale>
<asrwt>0</asrwt>
<pdfrwt beam="1">  1        2 0.14346774E+00 0.14906774E+03</pdfrwt>
<pdfrwt beam="2">  1       -2 0.36530516E-02 0.14906774E+03</pdfrwt>
<totfact> 0.88484658E+03</totfact>
</mgrwt>
</event>
<event>
 8    2  0.1628804E-003  0.1452276E+03  0.7818608E-02  0.1216007E+00
          2   -1    0    0  501    0  0.00000000000E+00  0.00000000000E+00  0.18124731564E+04  0.18124731564E+04  0.25500000000E-02 0. -1.
         -2   -1    0    0    0  501 -0.00000000000E+00 -0.00000000000E+00 -0.96020049645E+01  0.96020053031E+01  0.25500000000E-02 0.  1.
         25    2    1    2    0    0  0.49860532861E+02  0.54568218616E+02  0.10194016932E+04  0.10296945533E+04  0.12500919099E+03 0.  0.
         23    2    1    2    0    0 -0.49860532861E+02 -0.54568218616E+02  0.78346945825E+03  0.79238060839E+03  0.92622207517E+02 0.  0.
        -11    1    4    4    0    0  0.13700943701E+02 -0.47557168994E+01  0.41107578179E+03  0.41133153425E+03  0.51100000000E-03 0. -1.
         11    1    4    4    0    0 -0.63561476561E+02 -0.49812501717E+02  0.37239367646E+03  0.38104907414E+03  0.51100000000E-03 0.  1.
    9000005    1    3    3    0    0  0.34945256346E+02  0.67642183985E+01  0.66124386249E+02  0.75102330513E+02  0.10000000000E+01 0.  0.
    9000005    1    3    3    0    0  0.14915276515E+02  0.47804000218E+02  0.95327730692E+03  0.95459222278E+03  0.10000000000E+01 0.  0.
<mgrwt>
<rscale>  0 0.13802825E+03</rscale>
<asrwt>0</asrwt>
<pdfrwt beam="1">  1        2 0.27884209E+00 0.14522762E+03</pdfrwt>
<pdfrwt beam="2">  1       -2 0.14772312E-02 0.14522762E+03</pdfrwt>
<totfact> 0.11033900E+04</totfact>
</mgrwt>
</event>
<event>
 8    2  0.1628804E-003  0.1273915E+03  0.7818608E-02  0.1244986E+00
         -2   -1    0    0    0  501 -0.00000000000E+00  0.00000000000E+00  0.14133413626E+03  0.14133413629E+03  0.25500000000E-02 0.  1.
          2   -1    0    0  501    0  0.00000000000E+00 -0.00000000000E+00 -0.90438890850E+02  0.90438890886E+02  0.25500000000E-02 0. -1.
         25    2    1    2    0    0  0.78252392192E+01  0.23313773611E+02  0.44765315438E+02  0.13502791656E+03  0.12499535342E+03 0.  0.
         23    2    1    2    0    0 -0.78252392192E+01 -0.23313773611E+02  0.61299299749E+01  0.96745110611E+02  0.93366342848E+02 0.  0.
        -11    1    4    4    0    0 -0.29373554195E+02  0.22901410117E+02 -0.16769672307E+02  0.40847303228E+02  0.51100000000E-03 0. -1.
         11    1    4    4    0    0  0.21548314976E+02 -0.46215183729E+02  0.22899602282E+02  0.55897807384E+02  0.51100000000E-03 0.  1.
    9000005    1    3    3    0    0  0.39828787001E+01  0.35395528808E+02  0.85354119201E+02  0.92493418398E+02  0.10000000000E+01 0.  0.
    9000005    1    3    3    0    0  0.38423605191E+01 -0.12081755197E+02 -0.40588803763E+02  0.42534498162E+02  0.10000000000E+01 0.  0.
<mgrwt>
<rscale>  0 0.11886235E+03</rscale>
<asrwt>0</asrwt>
<pdfrwt beam="2">  1        2 0.13913676E-01 0.12739154E+03</pdfrwt>
<pdfrwt beam="1">  1       -2 0.21743713E-01 0.12739154E+03</pdfrwt>
<totfact> 0.72947111E+03</totfact>
</mgrwt>
</event>
<event>
 8    2  0.1628804E-003  0.1634004E+03  0.7818608E-02  0.1191996E+00
         -2   -1    0    0    0  501 -0.00000000000E+00  0.00000000000E+00  0.10803183974E+02  0.10803184275E+02  0.25500000000E-02 0.  1.
          2   -1    0    0  501    0  0.00000000000E+00 -0.00000000000E+00 -0.30519256332E+04  0.30519256332E+04  0.25500000000E-02 0. -1.
         25    2    1    2    0    0 -0.94005658968E+02 -0.47322131793E+02 -0.24454230224E+04  0.24508760546E+04  0.12499291282E+03 0.  0.
         23    2    1    2    0    0  0.94005658968E+02  0.47322131793E+02 -0.59569942678E+03  0.61185276287E+03  0.91812571527E+02 0.  0.
        -11    1    4    4    0    0  0.38162234249E+02  0.51672722611E+02 -0.15762337375E+03  0.17021032383E+03  0.51100000000E-03 0.  1.
         11    1    4    4    0    0  0.55843424719E+02 -0.43505908183E+01 -0.43807605303E+03  0.44164243904E+03  0.51100000000E-03 0. -1.
    9000005    1    3    3    0    0  0.18350189211E+02 -0.19088745305E+02 -0.13648418820E+03  0.13903252594E+03  0.10000000000E+01 0.  0.
    9000005    1    3    3    0    0 -0.11235584818E+03 -0.28233386488E+02 -0.23089388342E+04  0.23118435286E+04  0.10000000000E+01 0.  0.
<mgrwt>
<rscale>  0 0.15711251E+03</rscale>
<asrwt>0</asrwt>
<pdfrwt beam="2">  1        2 0.46952633E+00 0.16340036E+03</pdfrwt>
<pdfrwt beam="1">  1       -2 0.16620308E-02 0.16340036E+03</pdfrwt>
<totfact> 0.20032193E+03</totfact>
</mgrwt>
</event>
<event>
 8    2  0.1628804E-003  0.1710108E+03  0.7818608E-02  0.1183201E+00
          2   -1    0    0  501    0  0.00000000000E+00  0.00000000000E+00  0.30977908299E+04  0.30977908299E+04  0.25500000000E-02 0.  1.
         -2   -1    0    0    0  501 -0.00000000000E+00 -0.00000000000E+00 -0.89838299445E+01  0.89838303064E+01  0.25500000000E-02 0. -1.
         25    2    1    2    0    0  0.86172869133E+02 -0.78710616819E+02  0.20985797202E+04  0.21055359246E+04  0.12499425348E+03 0.  0.
         23    2    1    2    0    0 -0.86172869133E+02  0.78710616819E+02  0.99022727977E+03  0.10012387356E+04  0.91147218415E+02 0.  0.
        -11    1    4    4    0    0  0.43091445910E+01 -0.15964802871E+01  0.32918470433E+03  0.32921677819E+03  0.51100000000E-03 0.  1.
         11    1    4    4    0    0 -0.90482013724E+02  0.80307097106E+02  0.66104257545E+03  0.67202195738E+03  0.51100000000E-03 0. -1.
    9000005    1    3    3    0    0  0.18463086875E+02  0.74922682625E+01  0.47378016008E+02  0.51407159633E+02  0.10000000000E+01 0.  0.
    9000005    1    3    3    0    0  0.67709782258E+02 -0.86202885081E+02  0.20512017042E+04  0.20541287650E+04  0.10000000000E+01 0.  0.
<mgrwt>
<rscale>  0 0.16496615E+03</rscale>
<asrwt>0</asrwt>
<pdfrwt beam="1">  1        2 0.47658286E+00 0.17101078E+03</pdfrwt>
<pdfrwt beam="2">  1       -2 0.13821287E-02 0.17101078E+03</pdfrwt>
<totfact> 0.24556575E+03</totfact>
</mgrwt>
</event>
<event>
 8    2  0.1628804E-003  0.1330708E+03  0.7818608E-02  0.1235306E+00
          2   -1    0    0  501    0  0.00000000000E+00  0.00000000000E+00  0.29557918314E+03  0.29557918315E+03  0.25500000000E-02 0. -1.
         -2   -1    0    0    0  501 -0.00000000000E+00 -0.00000000000E+00 -0.47970009045E+02  0.47970009113E+02  0.25500000000E-02 0.  1.
         25    2    1    2    0    0  0.82321456159E+01  0.44877439826E+02  0.16113876471E+03  0.20898218114E+03  0.12500439078E+03 0.  0.
         23    2    1    2    0    0 -0.82321456159E+01 -0.44877439826E+02  0.86470409387E+02  0.13456701112E+03  0.92462943693E+02 0.  0.
        -11    1    4    4    0    0 -0.19123958807E+02 -0.49740579380E+02  0.10194234056E+03  0.11503082994E+03  0.51100000000E-03 0. -1.
         11    1    4    4    0    0  0.10891813192E+02  0.48631395537E+01 -0.15471931171E+02  0.19536181186E+02  0.51100000000E-03 0.  1.
    9000005    1    3    3    0    0  0.31003301755E+02  0.39411011822E+02  0.42297768359E+01  0.50332132725E+02  0.10000000000E+01 0.  0.
    9000005    1    3    3    0    0 -0.22771156139E+02  0.54664280042E+01  0.15690898787E+03  0.15865004841E+03  0.10000000000E+01 0.  0.
<mgrwt>
<rscale>  0 0.12484890E+03</rscale>
<asrwt>0</asrwt>
<pdfrwt beam="1">  1        2 0.45473722E-01 0.13307085E+03</pdfrwt>
<pdfrwt beam="2">  1       -2 0.73800012E-02 0.13307085E+03</pdfrwt>
<totfact> 0.11238969E+04</totfact>
</mgrwt>
</event>
<event>
 8    2  0.1628804E-003  0.1272393E+03  0.7818608E-02  0.1247183E+00
         -2   -1    0    0    0  501 -0.00000000000E+00  0.00000000000E+00  0.20595829029E+02  0.20595829187E+02  0.25500000000E-02 0.  1.
          2   -1    0    0  501    0  0.00000000000E+00 -0.00000000000E+00 -0.62254386112E+03  0.62254386113E+03  0.25500000000E-02 0. -1.
         25    2    1    2    0    0  0.37358124281E+01  0.23504248737E+02 -0.26984546703E+03  0.29833944076E+03  0.12499375918E+03 0.  0.
         23    2    1    2    0    0 -0.37358124281E+01 -0.23504248737E+02 -0.33210256507E+03  0.34480024955E+03  0.89602970744E+02 0.  0.
        -11    1    4    4    0    0 -0.60679044493E+01  0.14457261787E+02 -0.27922777568E+03  0.27966762879E+03  0.51100000000E-03 0. -1.
         11    1    4    4    0    0  0.23320920212E+01 -0.37961510524E+02 -0.52874789384E+02  0.65132620760E+02  0.51100000000E-03 0.  1.
    9000005    1    3    3    0    0  0.84505330270E+01  0.65718473069E+02 -0.23253967309E+03  0.24179749538E+03  0.10000000000E+01 0.  0.
    9000005    1    3    3    0    0 -0.47147205989E+01 -0.42214224331E+02 -0.37305793940E+02  0.56541945383E+02  0.10000000000E+01 0.  0.
<mgrwt>
<rscale>  0 0.11755670E+03</rscale>
<asrwt>0</asrwt>
<pdfrwt beam="2">  1        2 0.95775964E-01 0.12723933E+03</pdfrwt>
<pdfrwt beam="1">  1       -2 0.31685896E-02 0.12723933E+03</pdfrwt>
<totfact> 0.17742999E+04</totfact>
</mgrwt>
</event>
<event>
 8    2  0.1628804E-003  0.1494160E+03  0.7818608E-02  0.1206312E+00
          2   -1    0    0  501    0  0.00000000000E+00  0.00000000000E+00  0.71332971351E+03  0.71332971351E+03  0.25500000000E-02 0. -1.
         -2   -1    0    0    0  501 -0.00000000000E+00 -0.00000000000E+00 -0.29231554700E+02  0.29231554812E+02  0.25500000000E-02 0.  1.
         25    2    1    2    0    0  0.54953511986E+02  0.60663000775E+02  0.43284534755E+03  0.45790854474E+03  0.12500100924E+03 0.  0.
         23    2    1    2    0    0 -0.54953511986E+02 -0.60663000775E+02  0.25125281125E+03  0.28465272358E+03  0.10582679120E+03 0.  0.
        -11    1    4    4    0    0 -0.49955331721E+02  0.17700736621E+02  0.12767181302E+03  0.13823510077E+03  0.51100000000E-03 0. -1.
         11    1    4    4    0    0 -0.49981802656E+01 -0.78363737396E+02  0.12358099823E+03  0.14641762281E+03  0.51100000000E-03 0.  1.
    9000005    1    3    3    0    0 -0.10194380641E+00  0.43514069387E+02  0.37023095546E+03  0.37278069292E+03  0.10000000000E+01 0.  0.
    9000005    1    3    3    0    0  0.55055455793E+02  0.17148931388E+02  0.62614392086E+02  0.85127851827E+02  0.10000000000E+01 0.  0.
<mgrwt>
<rscale>  0 0.14534564E+03</rscale>
<asrwt>0</asrwt>
<pdfrwt beam="1">  1        2 0.10974302E+00 0.14941600E+03</pdfrwt>
<pdfrwt beam="2">  1       -2 0.44971629E-02 0.14941600E+03</pdfrwt>
<totfact> 0.91011854E+03</totfact>
</mgrwt>
</event>
<event>
 8    2  0.1628804E-003  0.1306585E+03  0.7818608E-02  0.1238945E+00
          2   -1    0    0  501    0  0.00000000000E+00  0.00000000000E+00  0.39773611984E+03  0.39773611985E+03  0.25500000000E-02 0. -1.
         -2   -1    0    0    0  501 -0.00000000000E+00 -0.00000000000E+00 -0.34122163857E+02  0.34122163952E+02  0.25500000000E-02 0.  1.
         25    2    1    2    0    0 -0.12190427783E+02  0.36025580554E+02  0.18295509569E+03  0.22482038588E+03  0.12500075954E+03 0.  0.
         23    2    1    2    0    0  0.12190427783E+02 -0.36025580554E+02  0.18065886030E+03  0.20703789792E+03  0.93704953914E+02 0.  0.
        -11    1    4    4    0    0  0.33698256437E+02 -0.11864956292E+02  0.16887313194E+03  0.17261078867E+03  0.51100000000E-03 0. -1.
         11    1    4    4    0    0 -0.21507828655E+02 -0.24160624262E+02  0.11785728360E+02  0.34427109251E+02  0.51100000000E-03 0.  1.
    9000005    1    3    3    0    0  0.32988856199E+02 -0.32080119736E+02  0.44384758042E+02  0.63940640144E+02  0.10000000000E+01 0.  0.
    9000005    1    3    3    0    0 -0.45179283981E+02  0.68105700291E+02  0.13857033765E+03  0.16087974574E+03  0.10000000000E+01 0.  0.
<mgrwt>
<rscale>  0 0.12255248E+03</rscale>
<asrwt>0</asrwt>
<pdfrwt beam="1">  1        2 0.61190168E-01 0.13065848E+03</pdfrwt>
<pdfrwt beam="2">  1       -2 0.52495641E-02 0.13065848E+03</pdfrwt>
<totfact> 0.13738649E+04</totfact>
</mgrwt>
</event>
<event>
 8    2  0.1628804E-003  0.1976120E+03  0.7818608E-02  0.1157166E+00
         -2   -1    0    0    0  501 -0.00000000000E+00  0.00000000000E+00  0.22414345077E+03  0.22414345079E+03  0.25500000000E-02 0.  1.
          2   -1    0    0  501    0  0.00000000000E+00 -0.00000000000E+00 -0.15445167466E+03  0.15445167469E+03  0.25500000000E-02 0. -1.
         25    2    1    2    0    0  0.91519990925E+02  0.12266986846E+03  0.46262149853E+02  0.20295491179E+03  0.12500681720E+03 0.  0.
         23    2    1    2    0    0 -0.91519990925E+02 -0.12266986846E+03  0.23429626256E+02  0.17564021368E+03  0.82926062904E+02 0.  0.
        -11    1    4    4    0    0 -0.35725269003E+02 -0.10281213033E+03  0.36858252587E+02  0.11491370577E+03  0.51100000000E-03 0.  1.
         11    1    4    4    0    0 -0.55794721922E+02 -0.19857738122E+02 -0.13428626332E+02  0.60726507912E+02  0.51100000000E-03 0. -1.
    9000005    1    3    3    0    0  0.54107327787E+01  0.47672718460E+02 -0.37856015875E+02  0.61123171158E+02  0.10000000000E+01 0.  0.
    9000005    1    3    3    0    0  0.86109258147E+02  0.74997149997E+02  0.84118165728E+02  0.14183174064E+03  0.10000000000E+01 0.  0.
<mgrwt>
<rscale>  0 0.19144380E+03</rscale>
<asrwt>0</asrwt>
<pdfrwt beam="2">  1        2 0.23761796E-01 0.19761202E+03</pdfrwt>
<pdfrwt beam="1">  1       -2 0.34483608E-01 0.19761202E+03</pdfrwt>
<totfact> 0.17784516E+03</totfact>
</mgrwt>
</event>
<event>
 8    2  0.1628804E-003  0.1928194E+03  0.7818608E-02  0.1160594E+00
          2   -1    0    0  501    0  0.00000000000E+00  0.00000000000E+00  0.15837704203E+04  0.15837704203E+04  0.25500000000E-02 0.  1.
         -2   -1    0    0    0  501 -0.00000000000E+00 -0.00000000000E+00 -0.21121810776E+02  0.21121810930E+02  0.25500000000E-02 0. -1.
         25    2    1    2    0    0 -0.11804306256E+03 -0.87295813068E+02  0.82736171613E+03  0.84953325183E+03  0.12499845215E+03 0.  0.
         23    2    1    2    0    0  0.11804306256E+03  0.87295813068E+02  0.73528689337E+03  0.75535897938E+03  0.91463919521E+02 0.  0.
        -11    1    4    4    0    0  0.10945726337E+03  0.30973102982E+02  0.42945004930E+03  0.44426070100E+03  0.51100000000E-03 0.  1.
         11    1    4    4    0    0  0.85857991921E+01  0.56322710086E+02  0.30583684407E+03  0.31109827838E+03  0.51100000000E-03 0. -1.
    9000005    1    3    3    0    0 -0.96383513868E+02 -0.11840357990E+03  0.60535219366E+03  0.62430879206E+03  0.10000000000E+01 0.  0.
    9000005    1    3    3    0    0 -0.21659548692E+02  0.31107766836E+02  0.22200952247E+03  0.22522445976E+03  0.10000000000E+01 0.  0.
<mgrwt>
<rscale>  0 0.18765450E+03</rscale>
<asrwt>0</asrwt>
<pdfrwt beam="1">  1        2 0.24365691E+00 0.19281944E+03</pdfrwt>
<pdfrwt beam="2">  1       -2 0.32495104E-02 0.19281944E+03</pdfrwt>
<totfact> 0.46031274E+03</totfact>
</mgrwt>
</event>
<event>
 8    2  0.1628804E-003  0.1982546E+03  0.7818608E-02  0.1155549E+00
          2   -1    0    0  501    0  0.00000000000E+00  0.00000000000E+00  0.18872321602E+03  0.18872321604E+03  0.25500000000E-02 0. -1.
         -2   -1    0    0    0  501 -0.00000000000E+00 -0.00000000000E+00 -0.19357437771E+03  0.19357437773E+03  0.25500000000E-02 0.  1.
         25    2    1    2    0    0 -0.13907095619E+03  0.65869436968E+02  0.28151217186E+02  0.20024325476E+03  0.12500142586E+03 0.  0.
         23    2    1    2    0    0  0.13907095619E+03 -0.65869436968E+02 -0.33002378877E+02  0.18205433901E+03  0.91515636702E+02 0.  0.
        -11    1    4    4    0    0  0.95629833009E+02 -0.44893912896E+02  0.23022257560E+02  0.10812285938E+03  0.51100000000E-03 0. -1.
         11    1    4    4    0    0  0.43441123177E+02 -0.20975524072E+02 -0.56024636437E+02  0.73931479636E+02  0.51100000000E-03 0.  1.
    9000005    1    3    3    0    0 -0.10474002324E+03  0.94094542472E+02 -0.10693714304E+02  0.14120768717E+03  0.10000000000E+01 0.  0.
    9000005    1    3    3    0    0 -0.34330932949E+02 -0.28225105504E+02  0.38844931491E+02  0.59035567588E+02  0.10000000000E+01 0.  0.
<mgrwt>
<rscale>  0 0.19326523E+03</rscale>
<asrwt>0</asrwt>
<pdfrwt beam="1">  1        2 0.29034341E-01 0.19825456E+03</pdfrwt>
<pdfrwt beam="2">  1       -2 0.29780674E-01 0.19825456E+03</pdfrwt>
<totfact> 0.18630218E+03</totfact>
</mgrwt>
</event>
<event>
 8    2  0.1628804E-003  0.2069814E+03  0.7818608E-02  0.1147803E+00
          2   -1    0    0  501    0  0.00000000000E+00  0.00000000000E+00  0.23826028679E+04  0.23826028679E+04  0.25500000000E-02 0. -1.
         -2   -1    0    0    0  501 -0.00000000000E+00 -0.00000000000E+00 -0.19059983694E+02  0.19059983864E+02  0.25500000000E-02 0.  1.
         25    2    1    2    0    0  0.99937210529E+02  0.13125853358E+03  0.16725544030E+04  0.16853128870E+04  0.12500019029E+03 0.  0.
         23    2    1    2    0    0 -0.99937210529E+02 -0.13125853358E+03  0.69098848117E+03  0.71634996468E+03  0.92064879858E+02 0.  0.
        -11    1    4    4    0    0 -0.17954791402E+02 -0.88567435461E+02  0.25140198624E+03  0.26715075115E+03  0.51100000000E-03 0. -1.
         11    1    4    4    0    0 -0.81982419127E+02 -0.42691098115E+02  0.43958649493E+03  0.44919921352E+03  0.51100000000E-03 0.  1.
    9000005    1    3    3    0    0  0.11560329006E+03  0.10640885098E+03  0.15888036956E+04  0.15965541480E+04  0.10000000000E+01 0.  0.
    9000005    1    3    3    0    0 -0.15666079535E+02  0.24849682591E+02  0.83750707368E+02  0.88758739048E+02  0.10000000000E+01 0.  0.
<mgrwt>
<rscale>  0 0.20231129E+03</rscale>
<asrwt>0</asrwt>
<pdfrwt beam="1">  1        2 0.36655437E+00 0.20698139E+03</pdfrwt>
<pdfrwt beam="2">  1       -2 0.29323045E-02 0.20698139E+03</pdfrwt>
<totfact> 0.20475907E+03</totfact>
</mgrwt>
</event>
<event>
 8    2  0.1628804E-003  0.1899432E+03  0.7818608E-02  0.1163308E+00
          2   -1    0    0  501    0  0.00000000000E+00  0.00000000000E+00  0.25464471607E+03  0.25464471608E+03  0.25500000000E-02 0. -1.
         -2   -1    0    0    0  501 -0.00000000000E+00 -0.00000000000E+00 -0.14809468838E+03  0.14809468841E+03  0.25500000000E-02 0.  1.
         25    2    1    2    0    0 -0.83223650115E+02  0.11629053171E+03  0.13147724925E+03  0.23100797404E+03  0.12501501228E+03 0.  0.
         23    2    1    2    0    0  0.83223650115E+02 -0.11629053171E+03 -0.24927221572E+02  0.17173143044E+03  0.91764122197E+02 0.  0.
        -11    1    4    4    0    0  0.75874782561E+02 -0.61987450805E+02  0.21035517322E+02  0.10020937918E+03  0.51100000000E-03 0. -1.
         11    1    4    4    0    0  0.73488675544E+01 -0.54303080907E+02 -0.45962738894E+02  0.71522051265E+02  0.51100000000E-03 0.  1.
    9000005    1    3    3    0    0 -0.10264724624E+03  0.38302529176E+02  0.75415762463E+02  0.13301157142E+03  0.10000000000E+01 0.  0.
    9000005    1    3    3    0    0  0.19423596129E+02  0.77988002535E+02  0.56061486790E+02  0.97996402624E+02  0.10000000000E+01 0.  0.
<mgrwt>
<rscale>  0 0.18472439E+03</rscale>
<asrwt>0</asrwt>
<pdfrwt beam="1">  1        2 0.39176110E-01 0.18994319E+03</pdfrwt>
<pdfrwt beam="2">  1       -2 0.22783798E-01 0.18994319E+03</pdfrwt>
<totfact> 0.21595357E+03</totfact>
</mgrwt>
</event>
<event>
 8    2  0.1628804E-003  0.1656811E+03  0.7818608E-02  0.1189916E+00
         -2   -1    0    0    0  501 -0.00000000000E+00  0.00000000000E+00  0.33906652355E+02  0.33906652450E+02  0.25500000000E-02 0.  1.
          2   -1    0    0  501    0  0.00000000000E+00 -0.00000000000E+00 -0.93463889406E+03  0.93463889407E+03  0.25500000000E-02 0. -1.
         25    2    1    2    0    0  0.67618251956E+02 -0.85158785579E+02 -0.23094048121E+03  0.28422479669E+03  0.12500392968E+03 0.  0.
         23    2    1    2    0    0 -0.67618251956E+02  0.85158785579E+02 -0.66979176050E+03  0.68432074983E+03  0.88598191003E+02 0.  0.
        -11    1    4    4    0    0 -0.62070532267E+02  0.86377411619E+01 -0.26362545542E+03  0.27097184779E+03  0.51100000000E-03 0.  1.
         11    1    4    4    0    0 -0.55477196894E+01  0.76521044417E+02 -0.40616630508E+03  0.41334890204E+03  0.51100000000E-03 0. -1.
    9000005    1    3    3    0    0  0.82735808414E+02 -0.69969469572E+02 -0.87745813543E+02  0.13943194921E+03  0.10000000000E+01 0.  0.
    9000005    1    3    3    0    0 -0.15117556458E+02 -0.15189316007E+02 -0.14319466766E+03  0.14479284748E+03  0.10000000000E+01 0.  0.
<mgrwt>
<rscale>  0 0.15892456E+03</rscale>
<asrwt>0</asrwt>
<pdfrwt beam="2">  1        2 0.14379058E+00 0.16568111E+03</pdfrwt>
<pdfrwt beam="1">  1       -2 0.52164088E-02 0.16568111E+03</pdfrwt>
<totfact> 0.51986827E+03</totfact>
</mgrwt>
</event>
<event>
 8    2  0.1628804E-003  0.1821258E+03  0.7818608E-02  0.1168359E+00
         -2   -1    0    0    0  501 -0.00000000000E+00  0.00000000000E+00  0.99640537718E+02  0.99640537751E+02  0.25500000000E-02 0.  1.
          2   -1    0    0  501    0  0.00000000000E+00 -0.00000000000E+00 -0.31419537043E+03  0.31419537044E+03  0.25500000000E-02 0. -1.
         25    2    1    2    0    0 -0.12457764460E+03  0.44999647045E+02 -0.11707898336E+03  0.21651165742E+03  0.12500100674E+03 0.  0.
         23    2    1    2    0    0  0.12457764460E+03 -0.44999647045E+02 -0.97475849345E+02  0.19732425077E+03  0.10904476588E+03 0.  0.
        -11    1    4    4    0    0  0.59597464042E+02 -0.50076634523E+02 -0.10608386812E+03  0.13158006734E+03  0.51100000000E-03 0. -1.
         11    1    4    4    0    0  0.64980180560E+02  0.50769874780E+01  0.86080187710E+01  0.65744183430E+02  0.51100000000E-03 0.  1.
    9000005    1    3    3    0    0 -0.32641277075E+02 -0.42969766326E+02 -0.25222719739E+02  0.59573814535E+02  0.10000000000E+01 0.  0.
    9000005    1    3    3    0    0 -0.91936367526E+02  0.87969413371E+02 -0.91856263624E+02  0.15693784289E+03  0.10000000000E+01 0.  0.
<mgrwt>
<rscale>  0 0.17942676E+03</rscale>
<asrwt>0</asrwt>
<pdfrwt beam="2">  1        2 0.48337749E-01 0.18212581E+03</pdfrwt>
<pdfrwt beam="1">  1       -2 0.15329314E-01 0.18212581E+03</pdfrwt>
<totfact> 0.33632494E+03</totfact>
</mgrwt>
</event>
<event>
 8    2  0.1628804E-003  0.1921429E+03  0.7818608E-02  0.1161087E+00
          2   -1    0    0  501    0  0.00000000000E+00  0.00000000000E+00  0.48456424846E+03  0.48456424847E+03  0.25500000000E-02 0.  1.
         -2   -1    0    0    0  501 -0.00000000000E+00 -0.00000000000E+00 -0.92282937548E+02  0.92282937583E+02  0.25500000000E-02 0. -1.
         25    2    1    2    0    0  0.14585944997E+03  0.44310973273E+01  0.34946557127E+03  0.39880454340E+03  0.12499705825E+03 0.  0.
         23    2    1    2    0    0 -0.14585944997E+03 -0.44310973273E+01  0.42815739648E+02  0.17804264265E+03  0.92581754524E+02 0.  0.
        -11    1    4    4    0    0 -0.94275795840E+02 -0.22690990206E+02 -0.15358560654E+02  0.98176840973E+02  0.51100000000E-03 0. -1.
         11    1    4    4    0    0 -0.51583654127E+02  0.18259892879E+02  0.58174300303E+02  0.79865801674E+02  0.51100000000E-03 0.  1.
    9000005    1    3    3    0    0  0.11681777671E+03  0.49184613295E+02  0.30147722014E+03  0.32703980401E+03  0.10000000000E+01 0.  0.
    9000005    1    3    3    0    0  0.29041673260E+02 -0.44753515968E+02  0.47988351122E+02  0.71764739397E+02  0.10000000000E+01 0.  0.
<mgrwt>
<rscale>  0 0.18711789E+03</rscale>
<asrwt>0</asrwt>
<pdfrwt beam="1">  1        2 0.74548348E-01 0.19214286E+03</pdfrwt>
<pdfrwt beam="2">  1       -2 0.14197375E-01 0.19214286E+03</pdfrwt>
<totfact> 0.23916483E+03</totfact>
</mgrwt>
</event>
<event>
 8    2  0.1628804E-003  0.1279418E+03  0.7818608E-02  0.1243532E+00
         -2   -1    0    0    0  501 -0.00000000000E+00  0.00000000000E+00  0.28568572583E+03  0.28568572584E+03  0.25500000000E-02 0.  1.
          2   -1    0    0  501    0  0.00000000000E+00 -0.00000000000E+00 -0.48597707656E+02  0.48597707723E+02  0.25500000000E-02 0. -1.
         25    2    1    2    0    0  0.19570409889E+02 -0.19002649048E+02  0.17969098770E+03  0.22058546889E+03  0.12499998564E+03 0.  0.
         23    2    1    2    0    0 -0.19570409889E+02  0.19002649048E+02  0.57397030473E+02  0.11369796468E+03  0.94279936627E+02 0.  0.
        -11    1    4    4    0    0 -0.60752085621E+01  0.10047086265E+01 -0.26309956328E+02  0.27020943743E+02  0.51100000000E-03 0. -1.
         11    1    4    4    0    0 -0.13495201327E+02  0.17997940422E+02  0.83706986801E+02  0.86677020933E+02  0.51100000000E-03 0.  1.
    9000005    1    3    3    0    0 -0.39503320805E+02  0.29337670942E+02  0.91881734495E+02  0.10423274162E+03  0.10000000000E+01 0.  0.
    9000005    1    3    3    0    0  0.59073730694E+02 -0.48340319990E+02  0.87809253203E+02  0.11635272727E+03  0.10000000000E+01 0.  0.
<mgrwt>
<rscale>  0 0.11973701E+03</rscale>
<asrwt>0</asrwt>
<pdfrwt beam="2">  1        2 0.74765705E-02 0.12794178E+03</pdfrwt>
<pdfrwt beam="1">  1       -2 0.43951650E-01 0.12794178E+03</pdfrwt>
<totfact> 0.43630763E+03</totfact>
</mgrwt>
</event>
<event>
 8    2  0.1628804E-003  0.1295299E+03  0.7818608E-02  0.1242043E+00
          2   -1    0    0  501    0  0.00000000000E+00  0.00000000000E+00  0.17331063248E+04  0.17331063248E+04  0.25500000000E-02 0. -1.
         -2   -1    0    0    0  501 -0.00000000000E+00 -0.00000000000E+00 -0.16688694181E+02  0.16688694376E+02  0.25500000000E-02 0.  1.
         25    2    1    2    0    0  0.21519843095E+02  0.26265750736E+02  0.26354206922E+03  0.29365358603E+03  0.12500005213E+03 0.  0.
         23    2    1    2    0    0 -0.21519843095E+02 -0.26265750736E+02  0.14528755614E+04  0.14561414331E+04  0.91364561507E+02 0.  0.
        -11    1    4    4    0    0 -0.74816411224E+01 -0.45291697564E+02  0.13414312318E+04  0.13422164737E+04  0.51100000000E-03 0. -1.
         11    1    4    4    0    0 -0.14038201973E+02  0.19025946828E+02  0.11144432959E+03  0.11392495936E+03  0.51100000000E-03 0.  1.
    9000005    1    3    3    0    0  0.65386765583E+02  0.42644484871E+02  0.12467856130E+03  0.14710446918E+03  0.10000000000E+01 0.  0.
    9000005    1    3    3    0    0 -0.43866922488E+02 -0.16378734135E+02  0.13886350791E+03  0.14654911685E+03  0.10000000000E+01 0.  0.
<mgrwt>
<rscale>  0 0.12064124E+03</rscale>
<asrwt>0</asrwt>
<pdfrwt beam="1">  1        2 0.26663177E+00 0.12952994E+03</pdfrwt>
<pdfrwt beam="2">  1       -2 0.25674912E-02 0.12952994E+03</pdfrwt>
<totfact> 0.54123512E+03</totfact>
</mgrwt>
</event>
<event>
 8    2  0.1628804E-003  0.2299967E+03  0.7818608E-02  0.1129645E+00
          2   -1    0    0  501    0  0.00000000000E+00  0.00000000000E+00  0.21338601817E+04  0.21338601817E+04  0.25500000000E-02 0. -1.
         -2   -1    0    0    0  501 -0.00000000000E+00 -0.00000000000E+00 -0.23955796580E+02  0.23955796716E+02  0.25500000000E-02 0.  1.
         25    2    1    2    0    0  0.12852120821E+03  0.14406830987E+03  0.88321007394E+03  0.91266562283E+03  0.12500050202E+03 0.  0.
         23    2    1    2    0    0 -0.12852120821E+03 -0.14406830987E+03  0.12266943112E+04  0.12451503556E+04  0.91362443556E+02 0.  0.
        -11    1    4    4    0    0 -0.49344279646E+02 -0.82697216603E+02  0.84723929624E+03  0.85269461864E+03  0.51100000000E-03 0. -1.
         11    1    4    4    0    0 -0.79176928562E+02 -0.61371093262E+02  0.37945501495E+03  0.39245573697E+03  0.51100000000E-03 0.  1.
    9000005    1    3    3    0    0  0.25021264359E+02  0.61598615857E+02  0.11254939531E+03  0.13072421172E+03  0.10000000000E+01 0.  0.
    9000005    1    3    3    0    0  0.10349994385E+03  0.82469694008E+02  0.77066067864E+03  0.78194141111E+03  0.10000000000E+01 0.  0.
<mgrwt>
<rscale>  0 0.22578041E+03</rscale>
<asrwt>0</asrwt>
<pdfrwt beam="1">  1        2 0.32828614E+00 0.22999675E+03</pdfrwt>
<pdfrwt beam="2">  1       -2 0.36855076E-02 0.22999675E+03</pdfrwt>
<totfact> 0.19686260E+03</totfact>
</mgrwt>
</event>
<event>
 8    2  0.1628804E-003  0.1372931E+03  0.7818608E-02  0.1229505E+00
         -2   -1    0    0    0  501 -0.00000000000E+00  0.00000000000E+00  0.14849694393E+03  0.14849694395E+03  0.25500000000E-02 0. -1.
          2   -1    0    0  501    0  0.00000000000E+00 -0.00000000000E+00 -0.99574370907E+02  0.99574370940E+02  0.25500000000E-02 0.  1.
         25    2    1    2    0    0  0.41527264679E+02 -0.38725023657E+02  0.31584654714E+02  0.14087930730E+03  0.12500099057E+03 0.  0.
         23    2    1    2    0    0 -0.41527264679E+02  0.38725023657E+02  0.17337918308E+02  0.10719200759E+03  0.89248988289E+02 0.  0.
        -11    1    4    4    0    0 -0.12723348940E+02  0.20859306654E+01 -0.34888255283E+02  0.37194422592E+02  0.51100000000E-03 0.  1.
         11    1    4    4    0    0 -0.28803915738E+02  0.36639092992E+02  0.52226173591E+02  0.69997584997E+02  0.51100000000E-03 0. -1.
    9000005    1    3    3    0    0 -0.35075427597E+02 -0.46215826940E+02  0.26341220924E+02  0.63726354050E+02  0.10000000000E+01 0.  0.
    9000005    1    3    3    0    0  0.76602692275E+02  0.74908032828E+01  0.52434337895E+01  0.77152953252E+02  0.10000000000E+01 0.  0.
<mgrwt>
<rscale>  0 0.12862871E+03</rscale>
<asrwt>0</asrwt>
<pdfrwt beam="2">  1        2 0.15319134E-01 0.13729308E+03</pdfrwt>
<pdfrwt beam="1">  1       -2 0.22845683E-01 0.13729308E+03</pdfrwt>
<totfact> 0.60188585E+03</totfact>
</mgrwt>
</event>
<event>
 8    2  0.1628804E-003  0.1441964E+03  0.7818608E-02  0.1218281E+00
         -2   -1    0    0    0  501 -0.00000000000E+00  0.00000000000E+00  0.89240762868E+02  0.89240762904E+02  0.25500000000E-02 0. -1.
          2   -1    0    0  501    0  0.00000000000E+00 -0.00000000000E+00 -0.18882046383E+03  0.18882046385E+03  0.25500000000E-02 0.  1.
         25    2    1    2    0    0  0.43320417387E+02 -0.57374671784E+02 -0.57460457452E+02  0.15522345137E+03  0.12499641659E+03 0.  0.
         23    2    1    2    0    0 -0.43320417387E+02  0.57374671784E+02 -0.42119243510E+02  0.12283777538E+03  0.90258389424E+02 0.  0.
        -11    1    4    4    0    0  0.11096699970E+02  0.54693746588E+02 -0.39346992035E+02  0.68284174217E+02  0.51100000000E-03 0.  1.
         11    1    4    4    0    0 -0.54417117356E+02  0.26809251959E+01 -0.27722514749E+01  0.54553601162E+02  0.51100000000E-03 0. -1.
    9000005    1    3    3    0    0  0.18134435903E+02 -0.95901339129E+02 -0.45295141071E+02  0.10760378440E+03  0.10000000000E+01 0.  0.
    9000005    1    3    3    0    0  0.25185981484E+02  0.38526667345E+02 -0.12165316381E+02  0.47619666974E+02  0.10000000000E+01 0.  0.
<mgrwt>
<rscale>  0 0.13638259E+03</rscale>
<asrwt>0</asrwt>
<pdfrwt beam="2">  1        2 0.29049302E-01 0.14419645E+03</pdfrwt>
<pdfrwt beam="1">  1       -2 0.13729348E-01 0.14419645E+03</pdfrwt>
<totfact> 0.68723984E+03</totfact>
</mgrwt>
</event>
<event>
 8    2  0.1628804E-003  0.1297341E+03  0.7818608E-02  0.1242143E+00
         -2   -1    0    0    0  501 -0.00000000000E+00  0.00000000000E+00  0.88984393327E+01  0.88984396981E+01  0.25500000000E-02 0.  1.
          2   -1    0    0  501    0  0.00000000000E+00 -0.00000000000E+00 -0.14871478070E+04  0.14871478070E+04  0.25500000000E-02 0. -1.
         25    2    1    2    0    0 -0.29484662276E+02 -0.18367985179E+02 -0.71419416448E+03  0.72588170385E+03  0.12499686082E+03 0.  0.
         23    2    1    2    0    0  0.29484662276E+02  0.18367985179E+02 -0.76405520320E+03  0.77016454287E+03  0.90367811529E+02 0.  0.
        -11    1    4    4    0    0  0.14905996500E+02 -0.33622147407E+02 -0.18656649536E+03  0.19015702647E+03  0.51100000000E-03 0.  1.
         11    1    4    4    0    0  0.14578665776E+02  0.51990132586E+02 -0.57748870785E+03  0.58000751639E+03  0.51100000000E-03 0. -1.
    9000005    1    3    3    0    0  0.42792302852E+02 -0.25595191483E+02 -0.41541685399E+03  0.41839987761E+03  0.10000000000E+01 0.  0.
    9000005    1    3    3    0    0 -0.72276965128E+02  0.72272063038E+01 -0.29877731049E+03  0.30748182623E+03  0.10000000000E+01 0.  0.
<mgrwt>
<rscale>  0 0.12058017E+03</rscale>
<asrwt>0</asrwt>
<pdfrwt beam="2">  1        2 0.22879177E+00 0.12973413E+03</pdfrwt>
<pdfrwt beam="1">  1       -2 0.13689919E-02 0.12973413E+03</pdfrwt>
<totfact> 0.18008035E+04</totfact>
</mgrwt>
</event>
<event>
 8    2  0.1628804E-003  0.1385367E+03  0.7818608E-02  0.1226156E+00
         -2   -1    0    0    0  501 -0.00000000000E+00  0.00000000000E+00  0.29993917853E+03  0.29993917854E+03  0.25500000000E-02 0.  1.
          2   -1    0    0  501    0  0.00000000000E+00 -0.00000000000E+00 -0.51684482985E+02  0.51684483048E+02  0.25500000000E-02 0. -1.
         25    2    1    2    0    0  0.25965580099E+02 -0.53808070502E+02  0.13269136366E+03  0.19183177243E+03  0.12499164421E+03 0.  0.
         23    2    1    2    0    0 -0.25965580099E+02  0.53808070502E+02  0.11556333188E+03  0.15979188916E+03  0.92784936087E+02 0.  0.
        -11    1    4    4    0    0 -0.14587465016E+02 -0.15069549965E+02  0.77480483582E+02  0.80268990327E+02  0.51100000000E-03 0.  1.
         11    1    4    4    0    0 -0.11378115083E+02  0.68877620466E+02  0.38082848300E+02  0.79522898833E+02  0.51100000000E-03 0. -1.
    9000005    1    3    3    0    0  0.95917375448E+01 -0.24657523463E+02 -0.21467398449E+02  0.34085834134E+02  0.10000000000E+01 0.  0.
    9000005    1    3    3    0    0  0.16373842554E+02 -0.29150547038E+02  0.15415876211E+03  0.15774593830E+03  0.10000000000E+01 0.  0.
<mgrwt>
<rscale>  0 0.13087999E+03</rscale>
<asrwt>0</asrwt>
<pdfrwt beam="2">  1        2 0.79514590E-02 0.13853675E+03</pdfrwt>
<pdfrwt beam="1">  1       -2 0.46144488E-01 0.13853675E+03</pdfrwt>
<totfact> 0.36947233E+03</totfact>
</mgrwt>
</event>
<event>
 8    2  0.1628804E-003  0.1487128E+03  0.7818608E-02  0.1211055E+00
         -2   -1    0    0    0  501 -0.00000000000E+00  0.00000000000E+00  0.75852289565E+02  0.75852289608E+02  0.25500000000E-02 0.  1.
          2   -1    0    0  501    0  0.00000000000E+00 -0.00000000000E+00 -0.24267166457E+03  0.24267166459E+03  0.25500000000E-02 0. -1.
         25    2    1    2    0    0 -0.56091885941E+02 -0.57835067570E+02 -0.88790061982E+02  0.17320271655E+03  0.12499724479E+03 0.  0.
         23    2    1    2    0    0  0.56091885941E+02  0.57835067570E+02 -0.78029313027E+02  0.14532123764E+03  0.92403970203E+02 0.  0.
        -11    1    4    4    0    0  0.62050562360E+02  0.42793306609E+02 -0.10767767375E+02  0.76141212193E+02  0.51100000000E-03 0.  1.
         11    1    4    4    0    0 -0.59586764192E+01  0.15041760961E+02 -0.67261545652E+02  0.69180025450E+02  0.51100000000E-03 0. -1.
    9000005    1    3    3    0    0 -0.31831156966E+02 -0.38666753367E+02 -0.11952325999E+03  0.12959610353E+03  0.10000000000E+01 0.  0.
    9000005    1    3    3    0    0 -0.24260728975E+02 -0.19168314203E+02  0.30733198011E+02  0.43606613028E+02  0.10000000000E+01 0.  0.
<mgrwt>
<rscale>  0 0.14170334E+03</rscale>
<asrwt>0</asrwt>
<pdfrwt beam="2">  1        2 0.37334102E-01 0.14871283E+03</pdfrwt>
<pdfrwt beam="1">  1       -2 0.11669583E-01 0.14871283E+03</pdfrwt>
<totfact> 0.68236242E+03</totfact>
</mgrwt>
</event>
<event>
 8    2  0.1628804E-003  0.1422023E+03  0.7818608E-02  0.1220552E+00
          2   -1    0    0  501    0  0.00000000000E+00  0.00000000000E+00  0.18279640001E+03  0.18279640003E+03  0.25500000000E-02 0.  1.
         -2   -1    0    0    0  501 -0.00000000000E+00 -0.00000000000E+00 -0.93705154527E+02  0.93705154562E+02  0.25500000000E-02 0. -1.
         25    2    1    2    0    0 -0.58611631001E+02 -0.34079207799E+02  0.22801521039E+02  0.14401877983E+03  0.12499913556E+03 0.  0.
         23    2    1    2    0    0  0.58611631001E+02  0.34079207799E+02  0.66289724442E+02  0.13248277476E+03  0.92523739373E+02 0.  0.
        -11    1    4    4    0    0  0.42099275079E+02  0.41840766406E+02  0.86722461694E+02  0.10508940983E+03  0.51100000000E-03 0.  1.
         11    1    4    4    0    0  0.16512355922E+02 -0.77615586074E+01 -0.20432737253E+02  0.27393364927E+02  0.51100000000E-03 0. -1.
    9000005    1    3    3    0    0 -0.65245215519E+02 -0.72396656072E+02  0.34512332283E+02  0.10339397970E+03  0.10000000000E+01 0.  0.
    9000005    1    3    3    0    0  0.66335845186E+01  0.38317448274E+02 -0.11710811244E+02  0.40624800132E+02  0.10000000000E+01 0.  0.
<mgrwt>
<rscale>  0 0.13476468E+03</rscale>
<asrwt>0</asrwt>
<pdfrwt beam="1">  1        2 0.28122523E-01 0.14220232E+03</pdfrwt>
<pdfrwt beam="2">  1       -2 0.14416178E-01 0.14220232E+03</pdfrwt>
<totfact> 0.65704809E+03</totfact>
</mgrwt>
</event>
<event>
 8    2  0.1628804E-003  0.1520593E+03  0.7818608E-02  0.1205860E+00
          2   -1    0    0  501    0  0.00000000000E+00  0.00000000000E+00  0.25367987298E+04  0.25367987298E+04  0.25500000000E-02 0. -1.
         -2   -1    0    0    0  501 -0.00000000000E+00 -0.00000000000E+00 -0.77427660344E+01  0.77427664543E+01  0.25500000000E-02 0.  1.
         25    2    1    2    0    0 -0.64165113614E+02 -0.58135310094E+02  0.13438863667E+04  0.13524616849E+04  0.12500066574E+03 0.  0.
         23    2    1    2    0    0  0.64165113614E+02  0.58135310094E+02  0.11851695971E+04  0.11920798113E+04  0.94500935176E+02 0.  0.
        -11    1    4    4    0    0  0.68712442530E+02  0.12747074351E+02  0.43999601868E+03  0.44551137372E+03  0.51100000000E-03 0.  1.
         11    1    4    4    0    0 -0.45473289157E+01  0.45388235743E+02  0.74517357838E+03  0.74656843763E+03  0.51100000000E-03 0. -1.
    9000005    1    3    3    0    0 -0.63380680200E+02 -0.31002734712E+02  0.29867487467E+03  0.30689731335E+03  0.10000000000E+01 0.  0.
    9000005    1    3    3    0    0 -0.78443341398E+00 -0.27132575382E+02  0.10452114920E+04  0.10455643716E+04  0.10000000000E+01 0.  0.
<mgrwt>
<rscale>  0 0.14569868E+03</rscale>
<asrwt>0</asrwt>
<pdfrwt beam="1">  1        2 0.39027647E+00 0.15205934E+03</pdfrwt>
<pdfrwt beam="2">  1       -2 0.11911956E-02 0.15205934E+03</pdfrwt>
<totfact> 0.63170454E+03</totfact>
</mgrwt>
</event>
<event>
 8    2  0.1628804E-003  0.1421858E+03  0.7818608E-02  0.1221389E+00
          2   -1    0    0  501    0  0.00000000000E+00  0.00000000000E+00  0.86076376679E+03  0.86076376679E+03  0.25500000000E-02 0. -1.
         -2   -1    0    0    0  501 -0.00000000000E+00 -0.00000000000E+00 -0.18889233773E+02  0.18889233945E+02  0.25500000000E-02 0.  1.
         25    2    1    2    0    0  0.52915565441E+02  0.42330554277E+02  0.45805300333E+03  0.47961374189E+03  0.12499941862E+03 0.  0.
         23    2    1    2    0    0 -0.52915565441E+02 -0.42330554277E+02  0.38382152968E+03  0.40003925885E+03  0.90113867305E+02 0.  0.
        -11    1    4    4    0    0 -0.29443729368E+01 -0.58381008484E+02  0.16627574123E+03  0.17625162015E+03  0.51100000000E-03 0.  1.
         11    1    4    4    0    0 -0.49971192504E+02  0.16050454207E+02  0.21754578845E+03  0.22378763870E+03  0.51100000000E-03 0. -1.
    9000005    1    3    3    0    0 -0.28331530685E+02 -0.18829659721E+02  0.62157795257E+02  0.70864823625E+02  0.10000000000E+01 0.  0.
    9000005    1    3    3    0    0  0.81247096126E+02  0.61160213998E+02  0.39589520808E+03  0.40874891826E+03  0.10000000000E+01 0.  0.
<mgrwt>
<rscale>  0 0.13417471E+03</rscale>
<asrwt>0</asrwt>
<pdfrwt beam="1">  1        2 0.13242521E+00 0.14218575E+03</pdfrwt>
<pdfrwt beam="2">  1       -2 0.29060357E-02 0.14218575E+03</pdfrwt>
<totfact> 0.13737063E+04</totfact>
</mgrwt>
</event>
<event>
 8    2  0.1628804E-003  0.1373586E+03  0.7818608E-02  0.1227781E+00
         -2   -1    0    0    0  501 -0.00000000000E+00  0.00000000000E+00  0.21128661703E+04  0.21128661703E+04  0.25500000000E-02 0.  1.
          2   -1    0    0  501    0  0.00000000000E+00 -0.00000000000E+00 -0.72100986523E+01  0.72100991032E+01  0.25500000000E-02 0. -1.
         25    2    1    2    0    0  0.17849069375E+02 -0.54071945708E+02  0.11875403320E+04  0.11954578344E+04  0.12500011644E+03 0.  0.
         23    2    1    2    0    0 -0.17849069375E+02  0.54071945708E+02  0.91811573968E+03  0.92461843504E+03  0.93489969366E+02 0.  0.
        -11    1    4    4    0    0  0.15770106304E+02  0.59819636726E+01  0.64727133786E+03  0.64749105396E+03  0.51100000000E-03 0.  1.
         11    1    4    4    0    0 -0.33619175679E+02  0.48089982036E+02  0.27084440182E+03  0.27712738108E+03  0.51100000000E-03 0. -1.
    9000005    1    3    3    0    0 -0.38051615531E+02  0.17707212212E+02  0.52880261912E+03  0.53046647471E+03  0.10000000000E+01 0.  0.
    9000005    1    3    3    0    0  0.55900684905E+02 -0.71779157920E+02  0.65873771286E+03  0.66499135966E+03  0.10000000000E+01 0.  0.
<mgrwt>
<rscale>  0 0.12978111E+03</rscale>
<asrwt>0</asrwt>
<pdfrwt beam="2">  1        2 0.11092454E-02 0.13735863E+03</pdfrwt>
<pdfrwt beam="1">  1       -2 0.32505649E+00 0.13735863E+03</pdfrwt>
<totfact> 0.32293623E+02</totfact>
</mgrwt>
</event>
<event>
 8    2  0.1628804E-003  0.1385894E+03  0.7818608E-02  0.1225692E+00
         -2   -1    0    0    0  501 -0.00000000000E+00  0.00000000000E+00  0.39557583213E+02  0.39557583295E+02  0.25500000000E-02 0.  1.
          2   -1    0    0  501    0  0.00000000000E+00 -0.00000000000E+00 -0.50260454449E+03  0.50260454450E+03  0.25500000000E-02 0. -1.
         25    2    1    2    0    0  0.46073427878E+02 -0.38204173138E+02 -0.37642706411E+03  0.40112886874E+03  0.12499886058E+03 0.  0.
         23    2    1    2    0    0 -0.46073427878E+02  0.38204173138E+02 -0.86619897173E+02  0.14103325905E+03  0.93835249082E+02 0.  0.
        -11    1    4    4    0    0 -0.32664735011E+02 -0.26897288157E+02 -0.19567042822E+02  0.46618860868E+02  0.51100000000E-03 0.  1.
         11    1    4    4    0    0 -0.13408692867E+02  0.65101461295E+02 -0.67052854350E+02  0.94414398181E+02  0.51100000000E-03 0. -1.
    9000005    1    3    3    0    0  0.87880308283E+02 -0.28160831098E+02 -0.29417490648E+03  0.30831129819E+03  0.10000000000E+01 0.  0.
    9000005    1    3    3    0    0 -0.41806880405E+02 -0.10043342040E+02 -0.82252157628E+02  0.92817570551E+02  0.10000000000E+01 0.  0.
<mgrwt>
<rscale>  0 0.13119583E+03</rscale>
<asrwt>0</asrwt>
<pdfrwt beam="2">  1        2 0.77323772E-01 0.13858945E+03</pdfrwt>
<pdfrwt beam="1">  1       -2 0.60857824E-02 0.13858945E+03</pdfrwt>
<totfact> 0.85683003E+03</totfact>
</mgrwt>
</event>
<event>
 8    2  0.1628804E-003  0.1661742E+03  0.7818608E-02  0.1188652E+00
         -2   -1    0    0    0  501 -0.00000000000E+00  0.00000000000E+00  0.20233361011E+02  0.20233361172E+02  0.25500000000E-02 0.  1.
          2   -1    0    0  501    0  0.00000000000E+00 -0.00000000000E+00 -0.24722463181E+04  0.24722463181E+04  0.25500000000E-02 0. -1.
         25    2    1    2    0    0  0.57040124152E+02 -0.93461783228E+02 -0.21694946856E+04  0.21758495048E+04  0.12500078313E+03 0.  0.
         23    2    1    2    0    0 -0.57040124152E+02  0.93461783228E+02 -0.28251827147E+03  0.31663017451E+03  0.91920688670E+02 0.  0.
        -11    1    4    4    0    0  0.85583714849E+01 -0.14326671916E+02 -0.29468748499E+02  0.33866006393E+02  0.51100000000E-03 0. -1.
         11    1    4    4    0    0 -0.65598495636E+02  0.10778845514E+03 -0.25304952297E+03  0.28276416811E+03  0.51100000000E-03 0.  1.
    9000005    1    3    3    0    0  0.96481655708E+02 -0.57187838490E+02 -0.13939384396E+04  0.13984436106E+04  0.10000000000E+01 0.  0.
    9000005    1    3    3    0    0 -0.39441531557E+02 -0.36273944738E+02 -0.77555624606E+03  0.77740589416E+03  0.10000000000E+01 0.  0.
<mgrwt>
<rscale>  0 0.16003973E+03</rscale>
<asrwt>0</asrwt>
<pdfrwt beam="2">  1        2 0.38034535E+00 0.16617424E+03</pdfrwt>
<pdfrwt beam="1">  1       -2 0.31128267E-02 0.16617424E+03</pdfrwt>
<totfact> 0.16864716E+03</totfact>
</mgrwt>
</event>
<event>
 8    2  0.1628804E-003  0.1464162E+03  0.7818608E-02  0.1215202E+00
          2   -1    0    0  501    0  0.00000000000E+00  0.00000000000E+00  0.15951710387E+04  0.15951710387E+04  0.25500000000E-02 0. -1.
         -2   -1    0    0    0  501 -0.00000000000E+00 -0.00000000000E+00 -0.15754559394E+02  0.15754559600E+02  0.25500000000E-02 0.  1.
         25    2    1    2    0    0 -0.17332893039E+02 -0.74268858630E+02  0.12934897709E+04  0.13017501641E+04  0.12498563823E+03 0.  0.
         23    2    1    2    0    0  0.17332893039E+02  0.74268858630E+02  0.28592670842E+03  0.30917543421E+03  0.89549282477E+02 0.  0.
        -11    1    4    4    0    0  0.43884140343E+01  0.93088524798E+02  0.24761665104E+03  0.26457274520E+03  0.51100000000E-03 0.  1.
         11    1    4    4    0    0  0.12944479004E+02 -0.18819666168E+02  0.38310057373E+02  0.44602689017E+02  0.51100000000E-03 0. -1.
    9000005    1    3    3    0    0  0.50234183473E+02 -0.58159614178E+02  0.70227667035E+03  0.70646976979E+03  0.10000000000E+01 0.  0.
    9000005    1    3    3    0    0 -0.67567076512E+02 -0.16109244452E+02  0.59121310055E+03  0.59528039431E+03  0.10000000000E+01 0.  0.
<mgrwt>
<rscale>  0 0.13861674E+03</rscale>
<asrwt>0</asrwt>
<pdfrwt beam="1">  1        2 0.24541093E+00 0.14641620E+03</pdfrwt>
<pdfrwt beam="2">  1       -2 0.24237784E-02 0.14641620E+03</pdfrwt>
<totfact> 0.69532354E+03</totfact>
</mgrwt>
</event>
<event>
 8    2  0.1628804E-003  0.1780496E+03  0.7818608E-02  0.1175332E+00
          2   -1    0    0  501    0  0.00000000000E+00  0.00000000000E+00  0.46307916692E+03  0.46307916692E+03  0.25500000000E-02 0. -1.
         -2   -1    0    0    0  501 -0.00000000000E+00 -0.00000000000E+00 -0.63220340490E+02  0.63220340541E+02  0.25500000000E-02 0.  1.
         25    2    1    2    0    0 -0.10120587801E+03 -0.76379749728E+02  0.15739350619E+03  0.23764341646E+03  0.12500072674E+03 0.  0.
         23    2    1    2    0    0  0.10120587801E+03  0.76379749728E+02  0.24246532023E+03  0.28865609100E+03  0.91958748603E+02 0.  0.
        -11    1    4    4    0    0  0.72013183595E+02  0.75349593239E+02  0.10435487291E+03  0.14749033634E+03  0.51100000000E-03 0.  1.
         11    1    4    4    0    0  0.29192694413E+02  0.10301564885E+01  0.13811044733E+03  0.14116575466E+03  0.51100000000E-03 0. -1.
    9000005    1    3    3    0    0 -0.58434702981E+02 -0.10425315576E+03  0.76243745513E+02  0.14176545322E+03  0.10000000000E+01 0.  0.
    9000005    1    3    3    0    0 -0.42771175027E+02  0.27873406029E+02  0.81149760680E+02  0.95877963241E+02  0.10000000000E+01 0.  0.
<mgrwt>
<rscale>  0 0.17243462E+03</rscale>
<asrwt>0</asrwt>
<pdfrwt beam="1">  1        2 0.71242947E-01 0.17804965E+03</pdfrwt>
<pdfrwt beam="2">  1       -2 0.97262064E-02 0.17804965E+03</pdfrwt>
<totfact> 0.46022983E+03</totfact>
</mgrwt>
</event>
<event>
 8    2  0.1628804E-003  0.1274675E+03  0.7818608E-02  0.1245976E+00
          2   -1    0    0  501    0  0.00000000000E+00  0.00000000000E+00  0.22682149126E+03  0.22682149127E+03  0.25500000000E-02 0. -1.
         -2   -1    0    0    0  501 -0.00000000000E+00 -0.00000000000E+00 -0.58738404518E+02  0.58738404574E+02  0.25500000000E-02 0.  1.
         25    2    1    2    0    0 -0.24920548202E+02  0.16725867546E+01  0.13446512661E+03  0.18528039777E+03  0.12499649696E+03 0.  0.
         23    2    1    2    0    0  0.24920548202E+02 -0.16725867546E+01  0.33617960126E+02  0.10027949808E+03  0.91115197540E+02 0.  0.
        -11    1    4    4    0    0 -0.25418206261E+02  0.18227070899E+02  0.33932878650E+02  0.46149231595E+02  0.51100000000E-03 0. -1.
         11    1    4    4    0    0  0.50338754464E+02 -0.19899657654E+02 -0.31491852368E+00  0.54130266484E+02  0.51100000000E-03 0.  1.
    9000005    1    3    3    0    0  0.99595524225E+01 -0.56930489602E+02  0.75736929001E+02  0.95275158070E+02  0.10000000000E+01 0.  0.
    9000005    1    3    3    0    0 -0.34880100625E+02  0.58603076356E+02  0.58728197610E+02  0.90005239695E+02  0.10000000000E+01 0.  0.
<mgrwt>
<rscale>  0 0.11827160E+03</rscale>
<asrwt>0</asrwt>
<pdfrwt beam="1">  1        2 0.34895614E-01 0.12746747E+03</pdfrwt>
<pdfrwt beam="2">  1       -2 0.90366776E-02 0.12746747E+03</pdfrwt>
<totfact> 0.10851924E+04</totfact>
</mgrwt>
</event>
<event>
 8    2  0.1628804E-003  0.1363138E+03  0.7818608E-02  0.1230516E+00
          2   -1    0    0  501    0  0.00000000000E+00  0.00000000000E+00  0.19183004749E+04  0.19183004749E+04  0.25500000000E-02 0. -1.
         -2   -1    0    0    0  501 -0.00000000000E+00 -0.00000000000E+00 -0.80917980283E+01  0.80917984301E+01  0.25500000000E-02 0.  1.
         25    2    1    2    0    0 -0.47569993242E+02 -0.26331541353E+02  0.12939436756E+04  0.13011040315E+04  0.12500084353E+03 0.  0.
         23    2    1    2    0    0  0.47569993242E+02  0.26331541353E+02  0.61626500128E+03  0.62528824182E+03  0.90810677947E+02 0.  0.
        -11    1    4    4    0    0  0.14927931897E+02 -0.14636344222E+02  0.46005009640E+03  0.46052487112E+03  0.51100000000E-03 0. -1.
         11    1    4    4    0    0  0.32642061346E+02  0.40967885576E+02  0.15621490488E+03  0.16476337070E+03  0.51100000000E-03 0.  1.
    9000005    1    3    3    0    0 -0.85226923161E+02 -0.42100794410E+02  0.85716153845E+03  0.86241695735E+03  0.10000000000E+01 0.  0.
    9000005    1    3    3    0    0  0.37656929919E+02  0.15769253057E+02  0.43678213711E+03  0.43868707413E+03  0.10000000000E+01 0.  0.
<mgrwt>
<rscale>  0 0.12795904E+03</rscale>
<asrwt>0</asrwt>
<pdfrwt beam="1">  1        2 0.29512328E+00 0.13631385E+03</pdfrwt>
<pdfrwt beam="2">  1       -2 0.12448915E-02 0.13631385E+03</pdfrwt>
<totfact> 0.12433618E+04</totfact>
</mgrwt>
</event>
<event>
 8    2  0.1628804E-003  0.1436528E+03  0.7818608E-02  0.1215690E+00
         -2   -1    0    0    0  501 -0.00000000000E+00  0.00000000000E+00  0.91102027941E+02  0.91102027976E+02  0.25500000000E-02 0.  1.
          2   -1    0    0  501    0  0.00000000000E+00 -0.00000000000E+00 -0.23366444958E+03  0.23366444959E+03  0.25500000000E-02 0. -1.
         25    2    1    2    0    0  0.61793688909E+02 -0.34540091866E+02 -0.10379020563E+02  0.14402727012E+03  0.12499861013E+03 0.  0.
         23    2    1    2    0    0 -0.61793688909E+02  0.34540091866E+02 -0.13218340108E+03  0.18073920745E+03  0.10090952213E+03 0.  0.
        -11    1    4    4    0    0  0.15766578065E+02  0.39972605732E+02 -0.65353954369E+02  0.78214663234E+02  0.51100000000E-03 0. -1.
         11    1    4    4    0    0 -0.77560266974E+02 -0.54325138654E+01 -0.66829446706E+02  0.10252454422E+03  0.51100000000E-03 0.  1.
    9000005    1    3    3    0    0  0.59553930960E+02  0.22411054179E+02 -0.44442405796E+02  0.77621217945E+02  0.10000000000E+01 0.  0.
    9000005    1    3    3    0    0  0.22397579489E+01 -0.56951146045E+02  0.34063385233E+02  0.66406052172E+02  0.10000000000E+01 0.  0.
<mgrwt>
<rscale>  0 0.13825962E+03</rscale>
<asrwt>0</asrwt>
<pdfrwt beam="2">  1        2 0.35948377E-01 0.14365281E+03</pdfrwt>
<pdfrwt beam="1">  1       -2 0.14015697E-01 0.14365281E+03</pdfrwt>
<totfact> 0.52795850E+03</totfact>
</mgrwt>
</event>
<event>
 8    2  0.1628804E-003  0.1302104E+03  0.7818608E-02  0.1240588E+00
         -2   -1    0    0    0  501 -0.00000000000E+00  0.00000000000E+00  0.13403308028E+04  0.13403308028E+04  0.25500000000E-02 0.  1.
          2   -1    0    0  501    0  0.00000000000E+00 -0.00000000000E+00 -0.10263386461E+02  0.10263386778E+02  0.25500000000E-02 0. -1.
         25    2    1    2    0    0 -0.23623447719E+02 -0.27766280041E+02  0.89655617781E+03  0.90596232450E+03  0.12500287938E+03 0.  0.
         23    2    1    2    0    0  0.23623447719E+02  0.27766280041E+02  0.43351123852E+03  0.44463186507E+03  0.91850247280E+02 0.  0.
        -11    1    4    4    0    0  0.48398512235E+02  0.12863788485E+02  0.38435386501E+03  0.38760261427E+03  0.51100000000E-03 0.  1.
         11    1    4    4    0    0 -0.24775064516E+02  0.14902491555E+02  0.49157373505E+02  0.57029250797E+02  0.51100000000E-03 0. -1.
    9000005    1    3    3    0    0  0.43888839018E+02  0.10771386284E+02  0.48695142301E+03  0.48904492771E+03  0.10000000000E+01 0.  0.
    9000005    1    3    3    0    0 -0.67512286737E+02 -0.38537666325E+02  0.40960475480E+03  0.41691739678E+03  0.10000000000E+01 0.  0.
<mgrwt>
<rscale>  0 0.12153353E+03</rscale>
<asrwt>0</asrwt>
<pdfrwt beam="2">  1        2 0.15789822E-02 0.13021042E+03</pdfrwt>
<pdfrwt beam="1">  1       -2 0.20620479E+00 0.13021042E+03</pdfrwt>
<totfact> 0.96905058E+02</totfact>
</mgrwt>
</event>
<event>
 8    2  0.1628804E-003  0.3046440E+03  0.7818608E-02  0.1084218E+00
         -2   -1    0    0    0  501 -0.00000000000E+00  0.00000000000E+00  0.12725065565E+03  0.12725065568E+03  0.25500000000E-02 0. -1.
          2   -1    0    0  501    0  0.00000000000E+00 -0.00000000000E+00 -0.70917960425E+03  0.70917960426E+03  0.25500000000E-02 0.  1.
         25    2    1    2    0    0 -0.11918816137E+01 -0.27781587972E+03 -0.32775932872E+03  0.44747527955E+03  0.12499945856E+03 0.  0.
         23    2    1    2    0    0  0.11918816137E+01  0.27781587972E+03 -0.25416961989E+03  0.38895498039E+03  0.97471521424E+02 0.  0.
        -11    1    4    4    0    0 -0.51601497708E+01  0.24575082015E+03 -0.25763444211E+03  0.35608369594E+03  0.51100000000E-03 0. -1.
         11    1    4    4    0    0  0.63520313846E+01  0.32065059571E+02  0.34648222275E+01  0.32871284449E+02  0.51100000000E-03 0.  1.
    9000005    1    3    3    0    0 -0.26087608626E+02 -0.56845148765E+02 -0.15088939097E+03  0.16334179676E+03  0.10000000000E+01 0.  0.
    9000005    1    3    3    0    0  0.24895727012E+02 -0.22097073095E+03 -0.17686993775E+03  0.28413348279E+03  0.10000000000E+01 0.  0.
<mgrwt>
<rscale>  0 0.30205545E+03</rscale>
<asrwt>0</asrwt>
<pdfrwt beam="2">  1        2 0.10910455E+00 0.30464397E+03</pdfrwt>
<pdfrwt beam="1">  1       -2 0.19577024E-01 0.30464397E+03</pdfrwt>
<totfact> 0.90194704E+02</totfact>
</mgrwt>
</event>
<event>
 8    2  0.1628804E-003  0.1415068E+03  0.7818608E-02  0.1221290E+00
          2   -1    0    0  501    0  0.00000000000E+00  0.00000000000E+00  0.99160924000E+03  0.99160924000E+03  0.25500000000E-02 0. -1.
         -2   -1    0    0    0  501 -0.00000000000E+00 -0.00000000000E+00 -0.17123901527E+02  0.17123901717E+02  0.25500000000E-02 0.  1.
         25    2    1    2    0    0  0.50427230330E+02 -0.43070377980E+02  0.62936476845E+03  0.64507688473E+03  0.12500484963E+03 0.  0.
         23    2    1    2    0    0 -0.50427230330E+02  0.43070377980E+02  0.34512057002E+03  0.36365625698E+03  0.93486375346E+02 0.  0.
        -11    1    4    4    0    0 -0.68209334665E+02  0.52981254208E+02  0.21088749465E+03  0.22788826655E+03  0.51100000000E-03 0. -1.
         11    1    4    4    0    0  0.17782104335E+02 -0.99108762285E+01  0.13423307537E+03  0.13576799043E+03  0.51100000000E-03 0.  1.
    9000005    1    3    3    0    0 -0.24586300320E+02 -0.31579554042E+02  0.42826709973E+03  0.43013423848E+03  0.10000000000E+01 0.  0.
    9000005    1    3    3    0    0  0.75013530650E+02 -0.11490823938E+02  0.20109766872E+03  0.21494264626E+03  0.10000000000E+01 0.  0.
<mgrwt>
<rscale>  0 0.13424489E+03</rscale>
<asrwt>0</asrwt>
<pdfrwt beam="1">  1        2 0.15255529E+00 0.14150680E+03</pdfrwt>
<pdfrwt beam="2">  1       -2 0.26344460E-02 0.14150680E+03</pdfrwt>
<totfact> 0.13145994E+04</totfact>
</mgrwt>
</event>
<event>
 8    2  0.1628804E-003  0.1538270E+03  0.7818608E-02  0.1205230E+00
         -2   -1    0    0    0  501 -0.00000000000E+00  0.00000000000E+00  0.12086720275E+02  0.12086720544E+02  0.25500000000E-02 0.  1.
          2   -1    0    0  501    0  0.00000000000E+00 -0.00000000000E+00 -0.18378614640E+04  0.18378614640E+04  0.25500000000E-02 0. -1.
         25    2    1    2    0    0  0.64883950173E+02  0.61869168819E+02 -0.67265470990E+03  0.69001963300E+03  0.12500005654E+03 0.  0.
         23    2    1    2    0    0 -0.64883950173E+02 -0.61869168819E+02 -0.11531200338E+04  0.11599285515E+04  0.87810655633E+02 0.  0.
        -11    1    4    4    0    0 -0.80411523157E+02 -0.59891961815E+02 -0.77154736922E+03  0.77803496264E+03  0.51100000000E-03 0.  1.
         11    1    4    4    0    0  0.15527572985E+02 -0.19772070047E+01 -0.38157266456E+03  0.38189358886E+03  0.51100000000E-03 0. -1.
    9000005    1    3    3    0    0  0.21482089417E+02  0.96094662366E+02 -0.42049338421E+03  0.43186959891E+03  0.10000000000E+01 0.  0.
    9000005    1    3    3    0    0  0.43401860755E+02 -0.34225493547E+02 -0.25216132569E+03  0.25815003408E+03  0.10000000000E+01 0.  0.
<mgrwt>
<rscale>  0 0.14619382E+03</rscale>
<asrwt>0</asrwt>
<pdfrwt beam="2">  1        2 0.28274770E+00 0.15382697E+03</pdfrwt>
<pdfrwt beam="1">  1       -2 0.18594969E-02 0.15382697E+03</pdfrwt>
<totfact> 0.76858560E+03</totfact>
</mgrwt>
</event>
<event>
 8    2  0.1628804E-003  0.1757922E+03  0.7818608E-02  0.1177134E+00
          2   -1    0    0  501    0  0.00000000000E+00  0.00000000000E+00  0.16909371616E+04  0.16909371616E+04  0.25500000000E-02 0. -1.
         -2   -1    0    0    0  501 -0.00000000000E+00 -0.00000000000E+00 -0.16303833836E+02  0.16303834036E+02  0.25500000000E-02 0.  1.
         25    2    1    2    0    0 -0.12178031205E+03  0.21152799609E+02  0.87297717632E+03  0.89050100937E+03  0.12500004790E+03 0.  0.
         23    2    1    2    0    0  0.12178031205E+03 -0.21152799609E+02  0.80165615145E+03  0.81673998627E+03  0.95570574388E+02 0.  0.
        -11    1    4    4    0    0  0.76881281766E+02  0.30976447144E+02  0.33842117300E+03  0.34842382539E+03  0.51100000000E-03 0.  1.
         11    1    4    4    0    0  0.44899030285E+02 -0.52129246754E+02  0.46323497844E+03  0.46831616088E+03  0.51100000000E-03 0. -1.
    9000005    1    3    3    0    0  0.22434852070E+02  0.12450838412E+02  0.68539855387E+02  0.73191924015E+02  0.10000000000E+01 0.  0.
    9000005    1    3    3    0    0 -0.14421516412E+03  0.87019611972E+01  0.80443732094E+03  0.81730908536E+03  0.10000000000E+01 0.  0.
<mgrwt>
<rscale>  0 0.17068654E+03</rscale>
<asrwt>0</asrwt>
<pdfrwt beam="1">  1        2 0.26014425E+00 0.17579220E+03</pdfrwt>
<pdfrwt beam="2">  1       -2 0.25082815E-02 0.17579220E+03</pdfrwt>
<totfact> 0.59257333E+03</totfact>
</mgrwt>
</event>
<event>
 8    2  0.1628804E-003  0.1325824E+03  0.7818608E-02  0.1238670E+00
          2   -1    0    0  501    0  0.00000000000E+00  0.00000000000E+00  0.22826313799E+02  0.22826313941E+02  0.25500000000E-02 0. -1.
         -2   -1    0    0    0  501 -0.00000000000E+00 -0.00000000000E+00 -0.59691284722E+03  0.59691284722E+03  0.25500000000E-02 0.  1.
         25    2    1    2    0    0  0.41357310906E+02  0.15563620322E+02 -0.27658412339E+03  0.30671951682E+03  0.12500172497E+03 0.  0.
         23    2    1    2    0    0 -0.41357310906E+02 -0.15563620322E+02 -0.29750241003E+03  0.31301964435E+03  0.86723470458E+02 0.  0.
        -11    1    4    4    0    0  0.54780715043E+01  0.25183364253E+02 -0.36155442621E+02  0.44400756006E+02  0.51100000000E-03 0. -1.
         11    1    4    4    0    0 -0.46835382411E+02 -0.40746984575E+02 -0.26134696741E+03  0.26861888834E+03  0.51100000000E-03 0.  1.
    9000005    1    3    3    0    0  0.46188556412E+02 -0.37635510187E+02 -0.22386847334E+03  0.23166334999E+03  0.10000000000E+01 0.  0.
    9000005    1    3    3    0    0 -0.48312455051E+01  0.53199130509E+02 -0.52715650044E+02  0.75056166833E+02  0.10000000000E+01 0.  0.
<mgrwt>
<rscale>  0 0.12272380E+03</rscale>
<asrwt>0</asrwt>
<pdfrwt beam="1">  1        2 0.35117410E-02 0.13258237E+03</pdfrwt>
<pdfrwt beam="2">  1       -2 0.91832734E-01 0.13258237E+03</pdfrwt>
<totfact> 0.25197121E+03</totfact>
</mgrwt>
</event>
<event>
 8    2  0.1628804E-003  0.1330263E+03  0.7818608E-02  0.1235996E+00
         -2   -1    0    0    0  501 -0.00000000000E+00  0.00000000000E+00  0.22002025256E+02  0.22002025404E+02  0.25500000000E-02 0.  1.
          2   -1    0    0  501    0  0.00000000000E+00 -0.00000000000E+00 -0.64995448958E+03  0.64995448958E+03  0.25500000000E-02 0. -1.
         25    2    1    2    0    0  0.19788038995E+02  0.40982952519E+02 -0.29082680807E+03  0.31980653454E+03  0.12499927342E+03 0.  0.
         23    2    1    2    0    0 -0.19788038995E+02 -0.40982952519E+02 -0.33712565626E+03  0.35214998045E+03  0.91020501771E+02 0.  0.
        -11    1    4    4    0    0 -0.39723126561E+02 -0.15350617286E+01 -0.63067547745E+02  0.74550645719E+02  0.51100000000E-03 0.  1.
         11    1    4    4    0    0  0.19935087566E+02 -0.39447890790E+02 -0.27405810851E+03  0.27759933473E+03  0.51100000000E-03 0. -1.
    9000005    1    3    3    0    0  0.59922429082E+02  0.28190448990E+02 -0.25807824211E+03  0.26644094650E+03  0.10000000000E+01 0.  0.
    9000005    1    3    3    0    0 -0.40134390088E+02  0.12792503528E+02 -0.32748565961E+02  0.53365588039E+02  0.10000000000E+01 0.  0.
<mgrwt>
<rscale>  0 0.12440892E+03</rscale>
<asrwt>0</asrwt>
<pdfrwt beam="2">  1        2 0.99992984E-01 0.13302627E+03</pdfrwt>
<pdfrwt beam="1">  1       -2 0.33849275E-02 0.13302627E+03</pdfrwt>
<totfact> 0.15372731E+04</totfact>
</mgrwt>
</event>
<event>
 8    2  0.1628804E-003  0.1277039E+03  0.7818608E-02  0.1244401E+00
         -2   -1    0    0    0  501 -0.00000000000E+00  0.00000000000E+00  0.21618561385E+02  0.21618561535E+02  0.25500000000E-02 0.  1.
          2   -1    0    0  501    0  0.00000000000E+00 -0.00000000000E+00 -0.61876442101E+03  0.61876442102E+03  0.25500000000E-02 0. -1.
         25    2    1    2    0    0 -0.25698402652E+02 -0.47895634813E+01 -0.26164358096E+03  0.29114539584E+03  0.12499972099E+03 0.  0.
         23    2    1    2    0    0  0.25698402652E+02  0.47895634813E+01 -0.33550227867E+03  0.34923758671E+03  0.93390391159E+02 0.  0.
        -11    1    4    4    0    0  0.58303785540E+02  0.18610696847E+02 -0.22676489997E+03  0.23487871190E+03  0.51100000000E-03 0. -1.
         11    1    4    4    0    0 -0.32605382888E+02 -0.13821133366E+02 -0.10873737870E+03  0.11435887481E+03  0.51100000000E-03 0.  1.
    9000005    1    3    3    0    0  0.22322395081E+02  0.21609974619E+02 -0.22032622299E+03  0.22250825796E+03  0.10000000000E+01 0.  0.
    9000005    1    3    3    0    0 -0.48020797733E+02 -0.26399538100E+02 -0.41317357967E+02  0.68637137879E+02  0.10000000000E+01 0.  0.
<mgrwt>
<rscale>  0 0.11921298E+03</rscale>
<asrwt>0</asrwt>
<pdfrwt beam="2">  1        2 0.95194513E-01 0.12770387E+03</pdfrwt>
<pdfrwt beam="1">  1       -2 0.33259330E-02 0.12770387E+03</pdfrwt>
<totfact> 0.16642231E+04</totfact>
</mgrwt>
</event>
<event>
 8    2  0.1628804E-003  0.1355010E+03  0.7818608E-02  0.1229356E+00
          2   -1    0    0  501    0  0.00000000000E+00  0.00000000000E+00  0.49898869267E+02  0.49898869333E+02  0.25500000000E-02 0. -1.
         -2   -1    0    0    0  501 -0.00000000000E+00 -0.00000000000E+00 -0.31381399936E+03  0.31381399937E+03  0.25500000000E-02 0.  1.
         25    2    1    2    0    0  0.44247419880E+02 -0.27888988777E+02 -0.11120416095E+03  0.17529088691E+03  0.12499959903E+03 0.  0.
         23    2    1    2    0    0 -0.44247419880E+02  0.27888988777E+02 -0.15271096914E+03  0.18842198180E+03  0.97193483664E+02 0.  0.
        -11    1    4    4    0    0  0.13915121204E+02  0.27131198817E+02 -0.66549116261E+01  0.31209299838E+02  0.51100000000E-03 0. -1.
         11    1    4    4    0    0 -0.58162541085E+02  0.75778995953E+00 -0.14605605752E+03  0.15721268196E+03  0.51100000000E-03 0.  1.
    9000005    1    3    3    0    0 -0.40750543911E+02  0.64957557247E+01 -0.50943544714E+02  0.65567113857E+02  0.10000000000E+01 0.  0.
    9000005    1    3    3    0    0  0.84997963792E+02 -0.34384744502E+02 -0.60260616237E+02  0.10972377305E+03  0.10000000000E+01 0.  0.
<mgrwt>
<rscale>  0 0.12872790E+03</rscale>
<asrwt>0</asrwt>
<pdfrwt beam="1">  1        2 0.76767493E-02 0.13550103E+03</pdfrwt>
<pdfrwt beam="2">  1       -2 0.48279076E-01 0.13550103E+03</pdfrwt>
<totfact> 0.35300380E+03</totfact>
</mgrwt>
</event>
<event>
 8    2  0.1628804E-003  0.1317446E+03  0.7818608E-02  0.1237647E+00
          2   -1    0    0  501    0  0.00000000000E+00  0.00000000000E+00  0.47070225012E+02  0.47070225081E+02  0.25500000000E-02 0. -1.
         -2   -1    0    0    0  501 -0.00000000000E+00 -0.00000000000E+00 -0.38721804583E+03  0.38721804584E+03  0.25500000000E-02 0.  1.
         25    2    1    2    0    0  0.36584736696E+02  0.19822305629E+02 -0.77649733822E+02  0.15292517755E+03  0.12500104802E+03 0.  0.
         23    2    1    2    0    0 -0.36584736696E+02 -0.19822305629E+02 -0.26249808699E+03  0.28136309337E+03  0.92350299802E+02 0.  0.
        -11    1    4    4    0    0 -0.46544172673E+02 -0.14795160878E+02 -0.26538322227E+03  0.26983978850E+03  0.51100000000E-03 0.  1.
         11    1    4    4    0    0  0.99594359777E+01 -0.50271447511E+01  0.28851352712E+01  0.11523304870E+02  0.51100000000E-03 0. -1.
    9000005    1    3    3    0    0 -0.38921640209E+02  0.18746729350E+02  0.18771567688E+01  0.43253412067E+02  0.10000000000E+01 0.  0.
    9000005    1    3    3    0    0  0.75506376905E+02  0.10755762794E+01 -0.79526890591E+02  0.10967176549E+03  0.10000000000E+01 0.  0.
<mgrwt>
<rscale>  0 0.12336519E+03</rscale>
<asrwt>0</asrwt>
<pdfrwt beam="1">  1        2 0.72415733E-02 0.13174456E+03</pdfrwt>
<pdfrwt beam="2">  1       -2 0.59572005E-01 0.13174456E+03</pdfrwt>
<totfact> 0.24883347E+03</totfact>
</mgrwt>
</event>
<event>
 8    2  0.1628804E-003  0.1501117E+03  0.7818608E-02  0.1208800E+00
          2   -1    0    0  501    0  0.00000000000E+00  0.00000000000E+00  0.13027638687E+04  0.13027638687E+04  0.25500000000E-02 0.  1.
         -2   -1    0    0    0  501 -0.00000000000E+00 -0.00000000000E+00 -0.21200330921E+02  0.21200331074E+02  0.25500000000E-02 0. -1.
         25    2    1    2    0    0  0.69381382570E+02 -0.45764999501E+02  0.31054637171E+03  0.34492402340E+03  0.12500128601E+03 0.  0.
         23    2    1    2    0    0 -0.69381382570E+02  0.45764999501E+02  0.97101716610E+03  0.97904017642E+03  0.93472556107E+02 0.  0.
        -11    1    4    4    0    0 -0.49755527172E+02  0.34286310595E+02  0.23410682445E+03  0.24177917370E+03  0.51100000000E-03 0. -1.
         11    1    4    4    0    0 -0.19625855398E+02  0.11478688907E+02  0.73691034165E+03  0.73726100272E+03  0.51100000000E-03 0.  1.
    9000005    1    3    3    0    0 -0.34906996499E+02 -0.10542748914E+02  0.11345307986E+03  0.11917319031E+03  0.10000000000E+01 0.  0.
    9000005    1    3    3    0    0  0.10428837907E+03 -0.35222250587E+02  0.19709329186E+03  0.22575083309E+03  0.10000000000E+01 0.  0.
<mgrwt>
<rscale>  0 0.14341979E+03</rscale>
<asrwt>0</asrwt>
<pdfrwt beam="1">  1        2 0.20042516E+00 0.15011173E+03</pdfrwt>
<pdfrwt beam="2">  1       -2 0.32615903E-02 0.15011173E+03</pdfrwt>
<totfact> 0.64155702E+03</totfact>
</mgrwt>
</event>
<event>
 8    2  0.1628804E-003  0.2391360E+03  0.7818608E-02  0.1123008E+00
          2   -1    0    0  501    0  0.00000000000E+00  0.00000000000E+00  0.19780027385E+04  0.19780027385E+04  0.25500000000E-02 0. -1.
         -2   -1    0    0    0  501 -0.00000000000E+00 -0.00000000000E+00 -0.29089842937E+02  0.29089843049E+02  0.25500000000E-02 0.  1.
         25    2    1    2    0    0  0.19592504594E+03 -0.56332925787E+02  0.12666291496E+04  0.12890055878E+04  0.12500392208E+03 0.  0.
         23    2    1    2    0    0 -0.19592504594E+03  0.56332925787E+02  0.68228374598E+03  0.71808699379E+03  0.92616405030E+02 0.  0.
        -11    1    4    4    0    0 -0.16404883527E+03  0.58525734327E+02  0.64893066119E+03  0.67189901397E+03  0.51100000000E-03 0. -1.
         11    1    4    4    0    0 -0.31876210668E+02 -0.21928085396E+01  0.33353084783E+02  0.46187979829E+02  0.51100000000E-03 0.  1.
    9000005    1    3    3    0    0  0.13682582179E+03  0.12971756955E+02  0.56442560124E+03  0.58091895418E+03  0.10000000000E+01 0.  0.
    9000005    1    3    3    0    0  0.59099224147E+02 -0.69304682742E+02  0.70220354838E+03  0.70808663361E+03  0.10000000000E+01 0.  0.
<mgrwt>
<rscale>  0 0.23523630E+03</rscale>
<asrwt>0</asrwt>
<pdfrwt beam="1">  1        2 0.30430815E+00 0.23913595E+03</pdfrwt>
<pdfrwt beam="2">  1       -2 0.44753599E-02 0.23913595E+03</pdfrwt>
<totfact> 0.17725115E+03</totfact>
</mgrwt>
</event>
<event>
 8    2  0.1628804E-003  0.1296923E+03  0.7818608E-02  0.1242878E+00
         -2   -1    0    0    0  501 -0.00000000000E+00  0.00000000000E+00  0.70399139560E+02  0.70399139606E+02  0.25500000000E-02 0.  1.
          2   -1    0    0  501    0  0.00000000000E+00 -0.00000000000E+00 -0.23621864087E+03  0.23621864088E+03  0.25500000000E-02 0. -1.
         25    2    1    2    0    0 -0.29524768651E+02 -0.17987077252E+02 -0.16660814844E+03  0.21113592257E+03  0.12499942305E+03 0.  0.
         23    2    1    2    0    0  0.29524768651E+02  0.17987077252E+02  0.78864713421E+00  0.95481857913E+02  0.88999529854E+02 0.  0.
        -11    1    4    4    0    0  0.21914850209E+02 -0.32108902961E+02  0.16788716207E+02  0.42345050492E+02  0.51100000000E-03 0.  1.
         11    1    4    4    0    0  0.76099184421E+01  0.50095980214E+02 -0.16000069073E+02  0.53136807421E+02  0.51100000000E-03 0. -1.
    9000005    1    3    3    0    0 -0.46720214423E+02  0.44014466082E+02 -0.69195061926E+02  0.94387542903E+02  0.10000000000E+01 0.  0.
    9000005    1    3    3    0    0  0.17195445772E+02 -0.62001543335E+02 -0.97413086514E+02  0.11674837967E+03  0.10000000000E+01 0.  0.
<mgrwt>
<rscale>  0 0.12013298E+03</rscale>
<asrwt>0</asrwt>
<pdfrwt beam="2">  1        2 0.36341329E-01 0.12969234E+03</pdfrwt>
<pdfrwt beam="1">  1       -2 0.10830637E-01 0.12969234E+03</pdfrwt>
<totfact> 0.78333719E+03</totfact>
</mgrwt>
</event>
<event>
 8    2  0.1628804E-003  0.1261828E+03  0.7818608E-02  0.1248594E+00
         -2   -1    0    0    0  501 -0.00000000000E+00  0.00000000000E+00  0.62263774932E+01  0.62263780153E+01  0.25500000000E-02 0.  1.
          2   -1    0    0  501    0  0.00000000000E+00 -0.00000000000E+00 -0.19720718747E+04  0.19720718747E+04  0.25500000000E-02 0. -1.
         25    2    1    2    0    0 -0.10143595957E+02 -0.13967516041E+02 -0.96956017236E+03  0.97773668270E+03  0.12499643533E+03 0.  0.
         23    2    1    2    0    0  0.10143595957E+02  0.13967516041E+02 -0.99628532486E+03  0.10005615700E+04  0.90780079468E+02 0.  0.
        -11    1    4    4    0    0  0.47371233583E+02  0.13531609940E+02 -0.73342398671E+03  0.73507678682E+03  0.51100000000E-03 0. -1.
         11    1    4    4    0    0 -0.37227637627E+02  0.43590610187E+00 -0.26286133815E+03  0.26548478320E+03  0.51100000000E-03 0.  1.
    9000005    1    3    3    0    0 -0.36433545043E+02  0.38121920808E+02 -0.23422898654E+03  0.24009352800E+03  0.10000000000E+01 0.  0.
    9000005    1    3    3    0    0  0.26289949086E+02 -0.52089436850E+02 -0.73533118581E+03  0.73764315471E+03  0.10000000000E+01 0.  0.
<mgrwt>
<rscale>  0 0.11672825E+03</rscale>
<asrwt>0</asrwt>
<pdfrwt beam="2">  1        2 0.30339517E+00 0.12618278E+03</pdfrwt>
<pdfrwt beam="1">  1       -2 0.95790584E-03 0.12618278E+03</pdfrwt>
<totfact> 0.16930221E+04</totfact>
</mgrwt>
</event>
<event>
 8    2  0.1628804E-003  0.2283479E+03  0.7818608E-02  0.1130934E+00
         -2   -1    0    0    0  501 -0.00000000000E+00  0.00000000000E+00  0.62803901261E+02  0.62803901313E+02  0.25500000000E-02 0.  1.
          2   -1    0    0  501    0  0.00000000000E+00 -0.00000000000E+00 -0.14523985956E+04  0.14523985956E+04  0.25500000000E-02 0. -1.
         25    2    1    2    0    0  0.61656869802E+02 -0.18087470834E+03 -0.18983668078E+03  0.29695241247E+03  0.12500216074E+03 0.  0.
         23    2    1    2    0    0 -0.61656869802E+02  0.18087470834E+03 -0.11997580135E+04  0.12182500844E+04  0.90535890326E+02 0.  0.
        -11    1    4    4    0    0 -0.33780326263E+02  0.72770471838E+02 -0.26582592730E+03  0.27766900374E+03  0.51100000000E-03 0.  1.
         11    1    4    4    0    0 -0.27876543538E+02  0.10810423650E+03 -0.93393208625E+03  0.94058108069E+03  0.51100000000E-03 0. -1.
    9000005    1    3    3    0    0  0.47078434887E+02 -0.19904735238E+03 -0.16418801164E+03  0.26228787750E+03  0.10000000000E+01 0.  0.
    9000005    1    3    3    0    0  0.14578434915E+02  0.18172644034E+02 -0.25648669141E+02  0.34664534967E+02  0.10000000000E+01 0.  0.
<mgrwt>
<rscale>  0 0.22400267E+03</rscale>
<asrwt>0</asrwt>
<pdfrwt beam="2">  1        2 0.22344591E+00 0.22834791E+03</pdfrwt>
<pdfrwt beam="1">  1       -2 0.96621397E-02 0.22834791E+03</pdfrwt>
<totfact> 0.10199481E+03</totfact>
</mgrwt>
</event>
<event>
 8    2  0.1628804E-003  0.1538447E+03  0.7818608E-02  0.1202750E+00
         -2   -1    0    0    0  501 -0.00000000000E+00  0.00000000000E+00  0.12801017526E+02  0.12801017780E+02  0.25500000000E-02 0.  1.
          2   -1    0    0  501    0  0.00000000000E+00 -0.00000000000E+00 -0.18612605189E+04  0.18612605189E+04  0.25500000000E-02 0. -1.
         25    2    1    2    0    0  0.54442972789E+02 -0.71267625419E+02 -0.13344159882E+04  0.13432550848E+04  0.12500032604E+03 0.  0.
         23    2    1    2    0    0 -0.54442972789E+02  0.71267625419E+02 -0.51404351320E+03  0.53080645192E+03  0.97322372678E+02 0.  0.
        -11    1    4    4    0    0  0.15188552836E+02  0.59445295961E+02 -0.21953881489E+03  0.22795114957E+03  0.51100000000E-03 0. -1.
         11    1    4    4    0    0 -0.69631525625E+02  0.11822329459E+02 -0.29450469831E+03  0.30285530235E+03  0.51100000000E-03 0.  1.
    9000005    1    3    3    0    0  0.66096141810E+02  0.13913179362E+02 -0.54496187076E+03  0.54913269535E+03  0.10000000000E+01 0.  0.
    9000005    1    3    3    0    0 -0.11653169020E+02 -0.85180804781E+02 -0.78945411741E+03  0.79412238940E+03  0.10000000000E+01 0.  0.
<mgrwt>
<rscale>  0 0.14816220E+03</rscale>
<asrwt>0</asrwt>
<pdfrwt beam="2">  1        2 0.28634756E+00 0.15384470E+03</pdfrwt>
<pdfrwt beam="1">  1       -2 0.19693888E-02 0.15384470E+03</pdfrwt>
<totfact> 0.68771537E+03</totfact>
</mgrwt>
</event>
<event>
 8    2  0.1628804E-003  0.1561921E+03  0.7818608E-02  0.1201204E+00
         -2   -1    0    0    0  501 -0.00000000000E+00  0.00000000000E+00  0.26079058930E+02  0.26079059055E+02  0.25500000000E-02 0.  1.
          2   -1    0    0  501    0  0.00000000000E+00 -0.00000000000E+00 -0.78985712616E+03  0.78985712616E+03  0.25500000000E-02 0. -1.
         25    2    1    2    0    0  0.86761495221E+02 -0.35263789193E+02 -0.40583720175E+03  0.43485607917E+03  0.12499953352E+03 0.  0.
         23    2    1    2    0    0 -0.86761495221E+02  0.35263789193E+02 -0.35794086547E+03  0.38108010605E+03  0.91264955870E+02 0.  0.
        -11    1    4    4    0    0 -0.57267209662E+02 -0.16881795415E+01 -0.75856643454E+02  0.95061104607E+02  0.51100000000E-03 0.  1.
         11    1    4    4    0    0 -0.29494285558E+02  0.36951968735E+02 -0.28208422202E+03  0.28601900144E+03  0.51100000000E-03 0. -1.
    9000005    1    3    3    0    0 -0.10516362311E+02 -0.38935678726E+02 -0.42071962973E+02  0.58289201594E+02  0.10000000000E+01 0.  0.
    9000005    1    3    3    0    0  0.97277857532E+02  0.36718895327E+01 -0.36376523878E+03  0.37656687757E+03  0.10000000000E+01 0.  0.
<mgrwt>
<rscale>  0 0.14940669E+03</rscale>
<asrwt>0</asrwt>
<pdfrwt beam="2">  1        2 0.12151646E+00 0.15619211E+03</pdfrwt>
<pdfrwt beam="1">  1       -2 0.40121635E-02 0.15619211E+03</pdfrwt>
<totfact> 0.95548641E+03</totfact>
</mgrwt>
</event>
<event>
 8    2  0.1628804E-003  0.1755186E+03  0.7818608E-02  0.1178344E+00
          2   -1    0    0  501    0  0.00000000000E+00  0.00000000000E+00  0.57771641951E+02  0.57771642007E+02  0.25500000000E-02 0. -1.
         -2   -1    0    0    0  501 -0.00000000000E+00 -0.00000000000E+00 -0.48891482280E+03  0.48891482280E+03  0.25500000000E-02 0.  1.
         25    2    1    2    0    0  0.84437091927E+00  0.12320810852E+03 -0.28847828563E+03  0.33767809459E+03  0.12500329323E+03 0.  0.
         23    2    1    2    0    0 -0.84437091927E+00 -0.12320810852E+03 -0.14266489521E+03  0.20900837022E+03  0.90278876413E+02 0.  0.
        -11    1    4    4    0    0  0.24457268642E+02 -0.40197627121E+02 -0.64424745234E+01  0.47492238249E+02  0.51100000000E-03 0. -1.
         11    1    4    4    0    0 -0.25301639562E+02 -0.83010481402E+02 -0.13622242069E+03  0.16151613197E+03  0.51100000000E-03 0.  1.
    9000005    1    3    3    0    0  0.55451025345E+02  0.97794014202E+02 -0.21537964864E+03  0.24295653618E+03  0.10000000000E+01 0.  0.
    9000005    1    3    3    0    0 -0.54606654426E+02  0.25414094321E+02 -0.73098636995E+02  0.94721558414E+02  0.10000000000E+01 0.  0.
<mgrwt>
<rscale>  0 0.16952530E+03</rscale>
<asrwt>0</asrwt>
<pdfrwt beam="1">  1        2 0.88879452E-02 0.17551859E+03</pdfrwt>
<pdfrwt beam="2">  1       -2 0.75217662E-01 0.17551859E+03</pdfrwt>
<totfact> 0.11929225E+03</totfact>
</mgrwt>
</event>
<event>
 8    2  0.1628804E-003  0.1791131E+03  0.7818608E-02  0.1174253E+00
          2   -1    0    0  501    0  0.00000000000E+00  0.00000000000E+00  0.91600301234E+03  0.91600301234E+03  0.25500000000E-02 0. -1.
         -2   -1    0    0    0  501 -0.00000000000E+00 -0.00000000000E+00 -0.30979031627E+02  0.30979031732E+02  0.25500000000E-02 0.  1.
         25    2    1    2    0    0 -0.12770845656E+02 -0.12764759900E+03  0.48358996626E+03  0.51569444815E+03  0.12499801740E+03 0.  0.
         23    2    1    2    0    0  0.12770845656E+02  0.12764759900E+03  0.40143401445E+03  0.43128759592E+03  0.91666342844E+02 0.  0.
        -11    1    4    4    0    0 -0.37641156718E+02  0.74078949316E+02  0.18837049138E+03  0.20588343652E+03  0.51100000000E-03 0.  1.
         11    1    4    4    0    0  0.50412002375E+02  0.53568649686E+02  0.21306352307E+03  0.22540415940E+03  0.51100000000E-03 0. -1.
    9000005    1    3    3    0    0  0.18024998280E+02  0.20051831560E+02  0.97694318180E+02  0.10135164684E+03  0.10000000000E+01 0.  0.
    9000005    1    3    3    0    0 -0.30795843937E+02 -0.14769943056E+03  0.38589564808E+03  0.41434280132E+03  0.10000000000E+01 0.  0.
<mgrwt>
<rscale>  0 0.17349325E+03</rscale>
<asrwt>0</asrwt>
<pdfrwt beam="1">  1        2 0.14092354E+00 0.17911312E+03</pdfrwt>
<pdfrwt beam="2">  1       -2 0.47660049E-02 0.17911312E+03</pdfrwt>
<totfact> 0.61388704E+03</totfact>
</mgrwt>
</event>
<event>
 8    2  0.1628804E-003  0.1855277E+03  0.7818608E-02  0.1167616E+00
         -2   -1    0    0    0  501 -0.00000000000E+00  0.00000000000E+00  0.10853266041E+03  0.10853266044E+03  0.25500000000E-02 0.  1.
          2   -1    0    0  501    0  0.00000000000E+00 -0.00000000000E+00 -0.28329911483E+03  0.28329911484E+03  0.25500000000E-02 0. -1.
         25    2    1    2    0    0  0.31081220870E+02 -0.13352623948E+03 -0.96533697042E+02  0.20913937105E+03  0.12500089175E+03 0.  0.
         23    2    1    2    0    0 -0.31081220870E+02  0.13352623948E+03 -0.78232757381E+02  0.18269240423E+03  0.91982885979E+02 0.  0.
        -11    1    4    4    0    0  0.28475925344E+02  0.46389707940E+02 -0.59248142138E+01  0.54753874299E+02  0.51100000000E-03 0.  1.
         11    1    4    4    0    0 -0.59557146215E+02  0.87136531543E+02 -0.72307943167E+02  0.12793852993E+03  0.51100000000E-03 0. -1.
    9000005    1    3    3    0    0 -0.40448805479E+02 -0.51093969049E+02 -0.72294067269E+02  0.97335151411E+02  0.10000000000E+01 0.  0.
    9000005    1    3    3    0    0  0.71530026350E+02 -0.82432270433E+02 -0.24239629773E+02  0.11180421964E+03  0.10000000000E+01 0.  0.
<mgrwt>
<rscale>  0 0.18019370E+03</rscale>
<asrwt>0</asrwt>
<pdfrwt beam="2">  1        2 0.43584479E-01 0.18552768E+03</pdfrwt>
<pdfrwt beam="1">  1       -2 0.16697332E-01 0.18552768E+03</pdfrwt>
<totfact> 0.32634437E+03</totfact>
</mgrwt>
</event>
<event>
 8    2  0.1628804E-003  0.1460535E+03  0.7818608E-02  0.1212735E+00
         -2   -1    0    0    0  501 -0.00000000000E+00  0.00000000000E+00  0.18993392724E+03  0.18993392726E+03  0.25500000000E-02 0.  1.
          2   -1    0    0  501    0  0.00000000000E+00 -0.00000000000E+00 -0.10207302631E+03  0.10207302634E+03  0.25500000000E-02 0. -1.
         25    2    1    2    0    0 -0.62849990080E+02 -0.41906810051E+02  0.80858569613E+02  0.16694233193E+03  0.12500132770E+03 0.  0.
         23    2    1    2    0    0  0.62849990080E+02  0.41906810051E+02  0.70023313155E+01  0.12506462167E+03  0.99427485977E+02 0.  0.
        -11    1    4    4    0    0  0.18734979351E+02  0.24446645128E+02 -0.45089565530E+02  0.54605007364E+02  0.51100000000E-03 0. -1.
         11    1    4    4    0    0  0.44115010729E+02  0.17460164924E+02  0.52091896846E+02  0.70459614305E+02  0.51100000000E-03 0.  1.
    9000005    1    3    3    0    0  0.26955015867E+01  0.24750871384E+02 -0.18106088039E+02  0.30801003022E+02  0.10000000000E+01 0.  0.
    9000005    1    3    3    0    0 -0.65545491667E+02 -0.66657681435E+02  0.98964657652E+02  0.13614132891E+03  0.10000000000E+01 0.  0.
<mgrwt>
<rscale>  0 0.14044207E+03</rscale>
<asrwt>0</asrwt>
<pdfrwt beam="2">  1        2 0.15703543E-01 0.14605353E+03</pdfrwt>
<pdfrwt beam="1">  1       -2 0.29220604E-01 0.14605353E+03</pdfrwt>
<totfact> 0.38091753E+03</totfact>
</mgrwt>
</event>
<event>
 8    2  0.1628804E-003  0.1302770E+03  0.7818608E-02  0.1239769E+00
         -2   -1    0    0    0  501 -0.00000000000E+00  0.00000000000E+00  0.27227368475E+02  0.27227368594E+02  0.25500000000E-02 0.  1.
          2   -1    0    0  501    0  0.00000000000E+00 -0.00000000000E+00 -0.56465267995E+03  0.56465267996E+03  0.25500000000E-02 0. -1.
         25    2    1    2    0    0  0.34071200176E+02 -0.13620987338E+02 -0.40694219649E+03  0.42728685111E+03  0.12500289545E+03 0.  0.
         23    2    1    2    0    0 -0.34071200176E+02  0.13620987338E+02 -0.13048311499E+03  0.16459319744E+03  0.93373975867E+02 0.  0.
        -11    1    4    4    0    0  0.16291393337E+02 -0.29679022936E+02 -0.46559621761E+02  0.57567805917E+02  0.51100000000E-03 0.  1.
         11    1    4    4    0    0 -0.50362593514E+02  0.43300010274E+02 -0.83923493226E+02  0.10702539152E+03  0.51100000000E-03 0. -1.
    9000005    1    3    3    0    0 -0.38192572817E+02 -0.33496266113E+02 -0.22184874331E+03  0.22759292030E+03  0.10000000000E+01 0.  0.
    9000005    1    3    3    0    0  0.72263772993E+02  0.19875278775E+02 -0.18509345318E+03  0.19969393081E+03  0.10000000000E+01 0.  0.
<mgrwt>
<rscale>  0 0.12204023E+03</rscale>
<asrwt>0</asrwt>
<pdfrwt beam="2">  1        2 0.86869634E-01 0.13027702E+03</pdfrwt>
<pdfrwt beam="1">  1       -2 0.41888264E-02 0.13027702E+03</pdfrwt>
<totfact> 0.13140664E+04</totfact>
</mgrwt>
</event>
<event>
 8    2  0.1628804E-003  0.1258255E+03  0.7818608E-02  0.1248089E+00
          2   -1    0    0  501    0  0.00000000000E+00  0.00000000000E+00  0.13416868229E+04  0.13416868229E+04  0.25500000000E-02 0. -1.
         -2   -1    0    0    0  501 -0.00000000000E+00 -0.00000000000E+00 -0.13733749474E+02  0.13733749710E+02  0.25500000000E-02 0.  1.
         25    2    1    2    0    0  0.13736462851E+02  0.44510395768E+01  0.11212493730E+04  0.11282872902E+04  0.12499420273E+03 0.  0.
         23    2    1    2    0    0 -0.13736462851E+02 -0.44510395768E+01  0.20670370048E+03  0.22713328242E+03  0.93030135037E+02 0.  0.
        -11    1    4    4    0    0  0.69403944655E+01  0.25933174393E+02  0.12734685178E+02  0.29713142148E+02  0.51100000000E-03 0.  1.
         11    1    4    4    0    0 -0.20676857317E+02 -0.30384213970E+02  0.19396901530E+03  0.19742014027E+03  0.51100000000E-03 0. -1.
    9000005    1    3    3    0    0  0.33602948132E+02 -0.26817566203E+02  0.10121935542E+04  0.10131066731E+04  0.10000000000E+01 0.  0.
    9000005    1    3    3    0    0 -0.19866485281E+02  0.31268605780E+02  0.10905581878E+03  0.11518061709E+03  0.10000000000E+01 0.  0.
<mgrwt>
<rscale>  0 0.11702394E+03</rscale>
<asrwt>0</asrwt>
<pdfrwt beam="1">  1        2 0.20641331E+00 0.12582549E+03</pdfrwt>
<pdfrwt beam="2">  1       -2 0.21128850E-02 0.12582549E+03</pdfrwt>
<totfact> 0.11457783E+04</totfact>
</mgrwt>
</event>
<event>
 8    2  0.1628804E-003  0.1264079E+03  0.7818608E-02  0.1247347E+00
         -2   -1    0    0    0  501 -0.00000000000E+00  0.00000000000E+00  0.23561458589E+02  0.23561458727E+02  0.25500000000E-02 0.  1.
          2   -1    0    0  501    0  0.00000000000E+00 -0.00000000000E+00 -0.51674641253E+03  0.51674641254E+03  0.25500000000E-02 0. -1.
         25    2    1    2    0    0 -0.48594153686E+01 -0.17999200599E+02 -0.28734046449E+03  0.31391638767E+03  0.12502548049E+03 0.  0.
         23    2    1    2    0    0  0.48594153686E+01  0.17999200599E+02 -0.20584448945E+03  0.22639148359E+03  0.92377296279E+02 0.  0.
        -11    1    4    4    0    0 -0.81192768903E+01 -0.12208599703E+02  0.30077165454E+01  0.14967261707E+02  0.51100000000E-03 0.  1.
         11    1    4    4    0    0  0.12978692259E+02  0.30207800302E+02 -0.20885220599E+03  0.21142422189E+03  0.51100000000E-03 0. -1.
    9000005    1    3    3    0    0  0.55420817377E+02 -0.30177827429E+02 -0.11915681593E+03  0.13483884844E+03  0.10000000000E+01 0.  0.
    9000005    1    3    3    0    0 -0.60280232745E+02  0.12178626830E+02 -0.16818364856E+03  0.17907753923E+03  0.10000000000E+01 0.  0.
<mgrwt>
<rscale>  0 0.11745981E+03</rscale>
<asrwt>0</asrwt>
<pdfrwt beam="2">  1        2 0.79499440E-01 0.12640789E+03</pdfrwt>
<pdfrwt beam="1">  1       -2 0.36248402E-02 0.12640789E+03</pdfrwt>
<totfact> 0.17922535E+04</totfact>
</mgrwt>
</event>
<event>
 8    2  0.1628804E-003  0.1311225E+03  0.7818608E-02  0.1238797E+00
          2   -1    0    0  501    0  0.00000000000E+00  0.00000000000E+00  0.79139912550E+03  0.79139912550E+03  0.25500000000E-02 0. -1.
         -2   -1    0    0    0  501 -0.00000000000E+00 -0.00000000000E+00 -0.18368371585E+02  0.18368371762E+02  0.25500000000E-02 0.  1.
         25    2    1    2    0    0 -0.20074283934E+01 -0.39554897633E+02  0.54633541830E+03  0.56185007859E+03  0.12499800731E+03 0.  0.
         23    2    1    2    0    0  0.20074283934E+01  0.39554897633E+02  0.22669533561E+03  0.24791741867E+03  0.92215246007E+02 0.  0.
        -11    1    4    4    0    0  0.28547781687E+01  0.32925308703E+02  0.15303731864E+02  0.36420185623E+02  0.51100000000E-03 0.  1.
         11    1    4    4    0    0 -0.84734977534E+00  0.66295889302E+01  0.21139160375E+03  0.21149723305E+03  0.51100000000E-03 0. -1.
    9000005    1    3    3    0    0  0.20169960058E+02 -0.44218521806E+02  0.53365012270E+03  0.53585964433E+03  0.10000000000E+01 0.  0.
    9000005    1    3    3    0    0 -0.22177388451E+02  0.46636241730E+01  0.12685295598E+02  0.25990434267E+02  0.10000000000E+01 0.  0.
<mgrwt>
<rscale>  0 0.12264475E+03</rscale>
<asrwt>0</asrwt>
<pdfrwt beam="1">  1        2 0.12175373E+00 0.13112254E+03</pdfrwt>
<pdfrwt beam="2">  1       -2 0.28259029E-02 0.13112254E+03</pdfrwt>
<totfact> 0.15821492E+04</totfact>
</mgrwt>
</event>
<event>
 8    2  0.1628804E-003  0.1346973E+03  0.7818608E-02  0.1232005E+00
         -2   -1    0    0    0  501 -0.00000000000E+00  0.00000000000E+00  0.15552108944E+02  0.15552109153E+02  0.25500000000E-02 0.  1.
          2   -1    0    0  501    0  0.00000000000E+00 -0.00000000000E+00 -0.98114175689E+03  0.98114175689E+03  0.25500000000E-02 0. -1.
         25    2    1    2    0    0 -0.47378669980E+02  0.16477032381E+02 -0.64495985717E+03  0.65887523497E+03  0.12500850743E+03 0.  0.
         23    2    1    2    0    0  0.47378669980E+02 -0.16477032381E+02 -0.32062979078E+03  0.33781863108E+03  0.93817555952E+02 0.  0.
        -11    1    4    4    0    0  0.17077412579E+02 -0.16480760372E+02 -0.10064826785E+02  0.25778949189E+02  0.51100000000E-03 0.  1.
         11    1    4    4    0    0  0.30301257401E+02  0.37279903199E-02 -0.31056496399E+03  0.31203968189E+03  0.51100000000E-03 0. -1.
    9000005    1    3    3    0    0 -0.10783271071E+00 -0.51559863462E+02 -0.22727226248E+03  0.23304959224E+03  0.10000000000E+01 0.  0.
    9000005    1    3    3    0    0 -0.47270837270E+02  0.68036895843E+02 -0.41768759468E+03  0.42582564273E+03  0.10000000000E+01 0.  0.
<mgrwt>
<rscale>  0 0.12698142E+03</rscale>
<asrwt>0</asrwt>
<pdfrwt beam="2">  1        2 0.15094484E+00 0.13469728E+03</pdfrwt>
<pdfrwt beam="1">  1       -2 0.23926329E-02 0.13469728E+03</pdfrwt>
<totfact> 0.15305791E+04</totfact>
</mgrwt>
</event>
<event>
 8    2  0.1628804E-003  0.1439552E+03  0.7818608E-02  0.1218219E+00
         -2   -1    0    0    0  501 -0.00000000000E+00  0.00000000000E+00  0.26273184994E+02  0.26273185117E+02  0.25500000000E-02 0.  1.
          2   -1    0    0  501    0  0.00000000000E+00 -0.00000000000E+00 -0.81461159725E+03  0.81461159725E+03  0.25500000000E-02 0. -1.
         25    2    1    2    0    0  0.31461014465E+02  0.64113640812E+02 -0.61924205415E+03  0.63575453305E+03  0.12499100087E+03 0.  0.
         23    2    1    2    0    0 -0.31461014465E+02 -0.64113640812E+02 -0.16909635811E+03  0.20513024932E+03  0.91566841664E+02 0.  0.
        -11    1    4    4    0    0 -0.74067567822E+01 -0.65360857299E+02 -0.47412569675E+02  0.81085470193E+02  0.51100000000E-03 0.  1.
         11    1    4    4    0    0 -0.24054257683E+02  0.12472164877E+01 -0.12168378843E+03  0.12404477913E+03  0.51100000000E-03 0. -1.
    9000005    1    3    3    0    0  0.60976425106E+02  0.55502741611E+02 -0.21385798880E+03  0.22920496966E+03  0.10000000000E+01 0.  0.
    9000005    1    3    3    0    0 -0.29515410641E+02  0.86108992005E+01 -0.40538406535E+03  0.40654956339E+03  0.10000000000E+01 0.  0.
<mgrwt>
<rscale>  0 0.13642730E+03</rscale>
<asrwt>0</asrwt>
<pdfrwt beam="2">  1        2 0.12532484E+00 0.14395522E+03</pdfrwt>
<pdfrwt beam="1">  1       -2 0.40420291E-02 0.14395522E+03</pdfrwt>
<totfact> 0.90503231E+03</totfact>
</mgrwt>
</event>
<event>
 8    2  0.1628804E-003  0.1385958E+03  0.7818608E-02  0.1226155E+00
         -2   -1    0    0    0  501 -0.00000000000E+00  0.00000000000E+00  0.43889520378E+02  0.43889520452E+02  0.25500000000E-02 0. -1.
          2   -1    0    0  501    0  0.00000000000E+00 -0.00000000000E+00 -0.35266181317E+03  0.35266181318E+03  0.25500000000E-02 0.  1.
         25    2    1    2    0    0 -0.32062830225E+02 -0.50557460469E+02 -0.17375847037E+03  0.22226292044E+03  0.12499887154E+03 0.  0.
         23    2    1    2    0    0  0.32062830225E+02  0.50557460469E+02 -0.13501382243E+03  0.17428841320E+03  0.92539920235E+02 0.  0.
        -11    1    4    4    0    0 -0.32899549062E+02  0.19047906235E+02 -0.46609839457E+02  0.60147154504E+02  0.51100000000E-03 0.  1.
         11    1    4    4    0    0  0.64962379287E+02  0.31509554234E+02 -0.88403982970E+02  0.11414125869E+03  0.51100000000E-03 0. -1.
    9000005    1    3    3    0    0 -0.22068724779E+02 -0.91756392514E+02 -0.10242850034E+03  0.13927979704E+03  0.10000000000E+01 0.  0.
    9000005    1    3    3    0    0 -0.99941054455E+01  0.41198932045E+02 -0.71329970025E+02  0.82983123399E+02  0.10000000000E+01 0.  0.
<mgrwt>
<rscale>  0 0.13088034E+03</rscale>
<asrwt>0</asrwt>
<pdfrwt beam="2">  1        2 0.54255662E-01 0.13859581E+03</pdfrwt>
<pdfrwt beam="1">  1       -2 0.67522341E-02 0.13859581E+03</pdfrwt>
<totfact> 0.10711732E+04</totfact>
</mgrwt>
</event>
<event>
 8    2  0.1628804E-003  0.1805447E+03  0.7818608E-02  0.1173200E+00
         -2   -1    0    0    0  501 -0.00000000000E+00  0.00000000000E+00  0.14933882604E+03  0.14933882606E+03  0.25500000000E-02 0.  1.
          2   -1    0    0  501    0  0.00000000000E+00 -0.00000000000E+00 -0.19963569126E+03  0.19963569128E+03  0.25500000000E-02 0. -1.
         25    2    1    2    0    0  0.94490377119E+02  0.89685823978E+02  0.83626612084E+01  0.18073824493E+03  0.12499760273E+03 0.  0.
         23    2    1    2    0    0 -0.94490377119E+02 -0.89685823978E+02 -0.58659526434E+02  0.16823627241E+03  0.88828626705E+02 0.  0.
        -11    1    4    4    0    0 -0.13061972578E-01 -0.39114788969E+02  0.10744414527E+02  0.40563645429E+02  0.51100000000E-03 0.  1.
         11    1    4    4    0    0 -0.94477315147E+02 -0.50571035009E+02 -0.69403940961E+02  0.12767262698E+03  0.51100000000E-03 0. -1.
    9000005    1    3    3    0    0  0.67006417297E+02  0.11135217083E+03 -0.25035887900E+02  0.13235165881E+03  0.10000000000E+01 0.  0.
    9000005    1    3    3    0    0  0.27483959822E+02 -0.21666346854E+02  0.33398549108E+02  0.48386586117E+02  0.10000000000E+01 0.  0.
<mgrwt>
<rscale>  0 0.17453463E+03</rscale>
<asrwt>0</asrwt>
<pdfrwt beam="2">  1        2 0.30713183E-01 0.18054467E+03</pdfrwt>
<pdfrwt beam="1">  1       -2 0.22975204E-01 0.18054467E+03</pdfrwt>
<totfact> 0.27643936E+03</totfact>
</mgrwt>
</event>
<event>
 8    2  0.1628804E-003  0.1931805E+03  0.7818608E-02  0.1160439E+00
         -2   -1    0    0    0  501 -0.00000000000E+00  0.00000000000E+00  0.41293540874E+02  0.41293540953E+02  0.25500000000E-02 0.  1.
          2   -1    0    0  501    0  0.00000000000E+00 -0.00000000000E+00 -0.86839280749E+03  0.86839280749E+03  0.25500000000E-02 0. -1.
         25    2    1    2    0    0  0.28274678793E+02  0.14454813722E+03 -0.31760709748E+03  0.37174314824E+03  0.12500031384E+03 0.  0.
         23    2    1    2    0    0 -0.28274678793E+02 -0.14454813722E+03 -0.50949216913E+03  0.53794320020E+03  0.90038851623E+02 0.  0.
        -11    1    4    4    0    0 -0.45637442857E+02 -0.25738211634E+02 -0.14426280964E+03  0.15348286541E+03  0.51100000000E-03 0. -1.
         11    1    4    4    0    0  0.17362764064E+02 -0.11880992559E+03 -0.36522935949E+03  0.38446033479E+03  0.51100000000E-03 0.  1.
    9000005    1    3    3    0    0  0.20578915572E+02  0.10081311515E+03 -0.31006057363E+03  0.32668843762E+03  0.10000000000E+01 0.  0.
    9000005    1    3    3    0    0  0.76957632206E+01  0.43735022076E+02 -0.75465238515E+01  0.45054710628E+02  0.10000000000E+01 0.  0.
<mgrwt>
<rscale>  0 0.18782379E+03</rscale>
<asrwt>0</asrwt>
<pdfrwt beam="2">  1        2 0.13359888E+00 0.19318049E+03</pdfrwt>
<pdfrwt beam="1">  1       -2 0.63528531E-02 0.19318049E+03</pdfrwt>
<totfact> 0.42658938E+03</totfact>
</mgrwt>
</event>
<event>
 8    2  0.1628804E-003  0.1691726E+03  0.7818608E-02  0.1186841E+00
         -2   -1    0    0    0  501 -0.00000000000E+00  0.00000000000E+00  0.14923679292E+02  0.14923679510E+02  0.25500000000E-02 0.  1.
          2   -1    0    0  501    0  0.00000000000E+00 -0.00000000000E+00 -0.19974356131E+04  0.19974356131E+04  0.25500000000E-02 0. -1.
         25    2    1    2    0    0  0.91947608087E+02 -0.67381735662E+02 -0.62334654991E+03  0.64589493963E+03  0.12499876324E+03 0.  0.
         23    2    1    2    0    0 -0.91947608087E+02  0.67381735662E+02 -0.13591653839E+04  0.13664643530E+04  0.83063989006E+02 0.  0.
        -11    1    4    4    0    0 -0.92597346225E+01 -0.34603160728E+01 -0.15431521800E+02  0.18326165391E+02  0.51100000000E-03 0.  1.
         11    1    4    4    0    0 -0.82687873465E+02  0.70842051735E+02 -0.13437338621E+04  0.13481381876E+04  0.51100000000E-03 0. -1.
    9000005    1    3    3    0    0  0.76336534460E+02  0.11330169415E+02 -0.42460475186E+03  0.43156208654E+03  0.10000000000E+01 0.  0.
    9000005    1    3    3    0    0  0.15611073628E+02 -0.78711905077E+02 -0.19874179805E+03  0.21433285309E+03  0.10000000000E+01 0.  0.
<mgrwt>
<rscale>  0 0.16165475E+03</rscale>
<asrwt>0</asrwt>
<pdfrwt beam="2">  1        2 0.30729758E+00 0.16917255E+03</pdfrwt>
<pdfrwt beam="1">  1       -2 0.22959523E-02 0.16917255E+03</pdfrwt>
<totfact> 0.46840514E+03</totfact>
</mgrwt>
</event>
<event>
 8    2  0.1628804E-003  0.1333704E+03  0.7818608E-02  0.1234635E+00
          2   -1    0    0  501    0  0.00000000000E+00  0.00000000000E+00  0.75697016340E+02  0.75697016383E+02  0.25500000000E-02 0. -1.
         -2   -1    0    0    0  501 -0.00000000000E+00 -0.00000000000E+00 -0.18866930100E+03  0.18866930102E+03  0.25500000000E-02 0.  1.
         25    2    1    2    0    0  0.44856282923E+02  0.12251972426E+02 -0.47298516373E+02  0.14150909478E+03  0.12500190921E+03 0.  0.
         23    2    1    2    0    0 -0.44856282923E+02 -0.12251972426E+02 -0.65673768290E+02  0.12285722263E+03  0.92836718834E+02 0.  0.
        -11    1    4    4    0    0  0.55492116830E+01 -0.42985814244E+02 -0.17823188146E+02  0.46864058856E+02  0.51100000000E-03 0. -1.
         11    1    4    4    0    0 -0.50405494606E+02  0.30733841818E+02 -0.47850580144E+02  0.75993163770E+02  0.51100000000E-03 0.  1.
    9000005    1    3    3    0    0  0.28113474184E+02  0.52755020135E+02 -0.70069212431E+02  0.92109468085E+02  0.10000000000E+01 0.  0.
    9000005    1    3    3    0    0  0.16742808739E+02 -0.40503047710E+02  0.22770696058E+02  0.49399626691E+02  0.10000000000E+01 0.  0.
<mgrwt>
<rscale>  0 0.12527844E+03</rscale>
<asrwt>0</asrwt>
<pdfrwt beam="1">  1        2 0.11645695E-01 0.13337044E+03</pdfrwt>
<pdfrwt beam="2">  1       -2 0.29026046E-01 0.13337044E+03</pdfrwt>
<totfact> 0.54639845E+03</totfact>
</mgrwt>
</event>
<event>
 8    2  0.1628804E-003  0.1637595E+03  0.7818608E-02  0.1191497E+00
         -2   -1    0    0    0  501 -0.00000000000E+00  0.00000000000E+00  0.16168581909E+04  0.16168581909E+04  0.25500000000E-02 0. -1.
          2   -1    0    0  501    0  0.00000000000E+00 -0.00000000000E+00 -0.17063636173E+02  0.17063636364E+02  0.25500000000E-02 0.  1.
         25    2    1    2    0    0 -0.10578137848E+03 -0.15705050004E+01  0.11800068353E+04  0.11913157806E+04  0.12499996469E+03 0.  0.
         23    2    1    2    0    0  0.10578137848E+03  0.15705050004E+01  0.41978771946E+03  0.44260604672E+03  0.92120663634E+02 0.  0.
        -11    1    4    4    0    0 -0.13176030293E+02 -0.14623545240E+02  0.73859895966E+02  0.76437818402E+02  0.51100000000E-03 0.  1.
         11    1    4    4    0    0  0.11895740877E+03  0.16194050240E+02  0.34592782349E+03  0.36616822832E+03  0.51100000000E-03 0. -1.
    9000005    1    3    3    0    0 -0.44665212966E+02  0.56826915279E+02  0.37668778453E+03  0.38356090333E+03  0.10000000000E+01 0.  0.
    9000005    1    3    3    0    0 -0.61116165512E+02 -0.58397420279E+02  0.80331905077E+03  0.80775487724E+03  0.10000000000E+01 0.  0.
<mgrwt>
<rscale>  0 0.15754458E+03</rscale>
<asrwt>0</asrwt>
<pdfrwt beam="2">  1        2 0.26251758E-02 0.16375945E+03</pdfrwt>
<pdfrwt beam="1">  1       -2 0.24874732E+00 0.16375945E+03</pdfrwt>
<totfact> 0.27277819E+02</totfact>
</mgrwt>
</event>
<event>
 8    2  0.1628804E-003  0.1347427E+03  0.7818608E-02  0.1233611E+00
          2   -1    0    0  501    0  0.00000000000E+00  0.00000000000E+00  0.94583265526E+02  0.94583265561E+02  0.25500000000E-02 0. -1.
         -2   -1    0    0    0  501 -0.00000000000E+00 -0.00000000000E+00 -0.21727014961E+03  0.21727014962E+03  0.25500000000E-02 0.  1.
         25    2    1    2    0    0  0.47053512117E+02  0.17804599924E+02 -0.15374931169E+03  0.20443690394E+03  0.12499824026E+03 0.  0.
         23    2    1    2    0    0 -0.47053512117E+02 -0.17804599924E+02  0.31062427607E+02  0.10741651124E+03  0.89679405094E+02 0.  0.
        -11    1    4    4    0    0  0.10036774074E+02 -0.24292246974E+00  0.44979439013E+02  0.46086286239E+02  0.51100000000E-03 0. -1.
         11    1    4    4    0    0 -0.57090286190E+02 -0.17561677454E+02 -0.13917011407E+02  0.61330225004E+02  0.51100000000E-03 0.  1.
    9000005    1    3    3    0    0  0.42399729200E+02 -0.47814568649E+02 -0.10352890183E+03  0.12166841630E+03  0.10000000000E+01 0.  0.
    9000005    1    3    3    0    0  0.46537829168E+01  0.65619168573E+02 -0.50220409860E+02  0.82768487640E+02  0.10000000000E+01 0.  0.
<mgrwt>
<rscale>  0 0.12593776E+03</rscale>
<asrwt>0</asrwt>
<pdfrwt beam="1">  1        2 0.14551272E-01 0.13474271E+03</pdfrwt>
<pdfrwt beam="2">  1       -2 0.33426177E-01 0.13474271E+03</pdfrwt>
<totfact> 0.32490450E+03</totfact>
</mgrwt>
</event>
<event>
 8    2  0.1628804E-003  0.1386302E+03  0.7818608E-02  0.1226060E+00
          2   -1    0    0  501    0  0.00000000000E+00  0.00000000000E+00  0.54234042723E+03  0.54234042723E+03  0.25500000000E-02 0. -1.
         -2   -1    0    0    0  501 -0.00000000000E+00 -0.00000000000E+00 -0.32072573039E+02  0.32072573140E+02  0.25500000000E-02 0.  1.
         25    2    1    2    0    0 -0.53903001721E+02  0.26221732780E+02  0.37522728104E+03  0.40001729660E+03  0.12500084911E+03 0.  0.
         23    2    1    2    0    0  0.53903001721E+02 -0.26221732780E+02  0.13504057314E+03  0.17439570377E+03  0.92654153895E+02 0.  0.
        -11    1    4    4    0    0  0.62365639362E+02  0.32126639160E+01  0.12879854223E+03  0.14313929811E+03  0.51100000000E-03 0. -1.
         11    1    4    4    0    0 -0.84626376404E+01 -0.29434396696E+02  0.62420309142E+01  0.31256405661E+02  0.51100000000E-03 0.  1.
    9000005    1    3    3    0    0  0.21276395166E+02  0.53370847038E+02  0.13125339070E+03  0.14328148825E+03  0.10000000000E+01 0.  0.
    9000005    1    3    3    0    0 -0.75179396887E+02 -0.27149114258E+02  0.24397389034E+03  0.25673580835E+03  0.10000000000E+01 0.  0.
<mgrwt>
<rscale>  0 0.13094530E+03</rscale>
<asrwt>0</asrwt>
<pdfrwt beam="1">  1        2 0.83436985E-01 0.13863017E+03</pdfrwt>
<pdfrwt beam="2">  1       -2 0.49342423E-02 0.13863017E+03</pdfrwt>
<totfact> 0.10809949E+04</totfact>
</mgrwt>
</event>
<event>
 8    2  0.1628804E-003  0.1303759E+03  0.7818608E-02  0.1240727E+00
          2   -1    0    0  501    0  0.00000000000E+00  0.00000000000E+00  0.71440101204E+03  0.71440101205E+03  0.25500000000E-02 0. -1.
         -2   -1    0    0    0  501 -0.00000000000E+00 -0.00000000000E+00 -0.20848508225E+02  0.20848508381E+02  0.25500000000E-02 0.  1.
         25    2    1    2    0    0 -0.35925321846E+02 -0.90847624378E+01  0.51756307727E+03  0.53373159185E+03  0.12499884610E+03 0.  0.
         23    2    1    2    0    0  0.35925321846E+02  0.90847624378E+01  0.17598942655E+03  0.20151792858E+03  0.90906741356E+02 0.  0.
        -11    1    4    4    0    0  0.20429827693E+02 -0.15409875827E+02  0.25988802731E+01  0.25721514564E+02  0.51100000000E-03 0.  1.
         11    1    4    4    0    0  0.15495494153E+02  0.24494638265E+02  0.17339054627E+03  0.17579641401E+03  0.51100000000E-03 0. -1.
    9000005    1    3    3    0    0 -0.51592247911E+02 -0.58738497891E+02  0.32149388672E+03  0.33086445922E+03  0.10000000000E+01 0.  0.
    9000005    1    3    3    0    0  0.15666926066E+02  0.49653735453E+02  0.19606919055E+03  0.20286713263E+03  0.10000000000E+01 0.  0.
<mgrwt>
<rscale>  0 0.12144840E+03</rscale>
<asrwt>0</asrwt>
<pdfrwt beam="1">  1        2 0.10990785E+00 0.13037589E+03</pdfrwt>
<pdfrwt beam="2">  1       -2 0.32074628E-02 0.13037589E+03</pdfrwt>
<totfact> 0.14868069E+04</totfact>
</mgrwt>
</event>
<event>
 8    2  0.1628804E-003  0.1270447E+03  0.7818608E-02  0.1246862E+00
          2   -1    0    0  501    0  0.00000000000E+00  0.00000000000E+00  0.22395500383E+04  0.22395500383E+04  0.25500000000E-02 0. -1.
         -2   -1    0    0    0  501 -0.00000000000E+00 -0.00000000000E+00 -0.55864641439E+01  0.55864647259E+01  0.25500000000E-02 0.  1.
         25    2    1    2    0    0 -0.13784723274E+02  0.18035828346E+02  0.14599831070E+04  0.14655002648E+04  0.12500017496E+03 0.  0.
         23    2    1    2    0    0  0.13784723274E+02 -0.18035828346E+02  0.77398046719E+03  0.77963623825E+03  0.90948285851E+02 0.  0.
        -11    1    4    4    0    0 -0.18312462109E+02 -0.11811209534E+01  0.65495624865E+03  0.65521326983E+03  0.51100000000E-03 0. -1.
         11    1    4    4    0    0  0.32097185383E+02 -0.16854707393E+02  0.11902421854E+03  0.12442296841E+03  0.51100000000E-03 0.  1.
    9000005    1    3    3    0    0  0.17114162895E+02  0.44050559246E+02  0.22768247250E+03  0.23253742629E+03  0.10000000000E+01 0.  0.
    9000005    1    3    3    0    0 -0.30898886169E+02 -0.26014730899E+02  0.12323006345E+04  0.12329628385E+04  0.10000000000E+01 0.  0.
<mgrwt>
<rscale>  0 0.11774619E+03</rscale>
<asrwt>0</asrwt>
<pdfrwt beam="1">  1        2 0.34454608E+00 0.12704469E+03</pdfrwt>
<pdfrwt beam="2">  1       -2 0.85945628E-03 0.12704469E+03</pdfrwt>
<totfact> 0.14409555E+04</totfact>
</mgrwt>
</event>
<event>
 8    2  0.1628804E-003  0.1428515E+03  0.7818608E-02  0.1220581E+00
         -2   -1    0    0    0  501 -0.00000000000E+00  0.00000000000E+00  0.28902868568E+02  0.28902868681E+02  0.25500000000E-02 0.  1.
          2   -1    0    0  501    0  0.00000000000E+00 -0.00000000000E+00 -0.12102497892E+04  0.12102497892E+04  0.25500000000E-02 0. -1.
         25    2    1    2    0    0 -0.35323064586E+02 -0.59444881661E+02 -0.10732526370E+04  0.10827177711E+04  0.12500054522E+03 0.  0.
         23    2    1    2    0    0  0.35323064586E+02  0.59444881661E+02 -0.10809428362E+03  0.15643488672E+03  0.89476738781E+02 0.  0.
        -11    1    4    4    0    0  0.28414068614E+02  0.73750409107E+02 -0.44115703428E+02  0.90513410210E+02  0.51100000000E-03 0.  1.
         11    1    4    4    0    0  0.69089959718E+01 -0.14305527445E+02 -0.63978580197E+02  0.65921476509E+02  0.51100000000E-03 0. -1.
    9000005    1    3    3    0    0  0.32033330985E+02  0.16275990913E+02 -0.16755145878E+03  0.17136374621E+03  0.10000000000E+01 0.  0.
    9000005    1    3    3    0    0 -0.67356395571E+02 -0.75720872574E+02 -0.90570117818E+03  0.91135402491E+03  0.10000000000E+01 0.  0.
<mgrwt>
<rscale>  0 0.13474473E+03</rscale>
<asrwt>0</asrwt>
<pdfrwt beam="2">  1        2 0.18619224E+00 0.14285149E+03</pdfrwt>
<pdfrwt beam="1">  1       -2 0.44465961E-02 0.14285149E+03</pdfrwt>
<totfact> 0.45408394E+03</totfact>
</mgrwt>
</event>
<event>
 8    2  0.1628804E-003  0.2008376E+03  0.7818608E-02  0.1154297E+00
         -2   -1    0    0    0  501 -0.00000000000E+00  0.00000000000E+00  0.30102699524E+02  0.30102699632E+02  0.25500000000E-02 0.  1.
          2   -1    0    0  501    0  0.00000000000E+00 -0.00000000000E+00 -0.11885761068E+04  0.11885761068E+04  0.25500000000E-02 0. -1.
         25    2    1    2    0    0  0.15519557080E+03 -0.25009050526E+02 -0.63012936433E+03  0.66136128064E+03  0.12499843974E+03 0.  0.
         23    2    1    2    0    0 -0.15519557080E+03  0.25009050526E+02 -0.52834404292E+03  0.55731752577E+03  0.82123559537E+02 0.  0.
        -11    1    4    4    0    0 -0.13302680991E+03  0.22122324867E+02 -0.31297842951E+03  0.34079469883E+03  0.51100000000E-03 0.  1.
         11    1    4    4    0    0 -0.22168760898E+02  0.28867256587E+01 -0.21536561341E+03  0.21652282694E+03  0.51100000000E-03 0. -1.
    9000005    1    3    3    0    0  0.38904593318E+02 -0.16474161973E+02 -0.34874167879E+02  0.54792088655E+02  0.10000000000E+01 0.  0.
    9000005    1    3    3    0    0  0.11629097749E+03 -0.85348885533E+01 -0.59525519645E+03  0.60656919199E+03  0.10000000000E+01 0.  0.
<mgrwt>
<rscale>  0 0.19469088E+03</rscale>
<asrwt>0</asrwt>
<pdfrwt beam="2">  1        2 0.18285783E+00 0.20083757E+03</pdfrwt>
<pdfrwt beam="1">  1       -2 0.46311855E-02 0.20083757E+03</pdfrwt>
<totfact> 0.44309304E+03</totfact>
</mgrwt>
</event>
<event>
 8    2  0.1628804E-003  0.1680780E+03  0.7818608E-02  0.1186709E+00
          2   -1    0    0  501    0  0.00000000000E+00  0.00000000000E+00  0.11925155785E+04  0.11925155785E+04  0.25500000000E-02 0.  1.
         -2   -1    0    0    0  501 -0.00000000000E+00 -0.00000000000E+00 -0.47302025475E+02  0.47302025544E+02  0.25500000000E-02 0. -1.
         25    2    1    2    0    0 -0.69252264714E+02  0.88483611820E+02  0.10579784423E+04  0.10712462812E+04  0.12499993998E+03 0.  0.
         23    2    1    2    0    0  0.69252264714E+02 -0.88483611820E+02  0.87235110748E+02  0.16857132282E+03  0.90449436708E+02 0.  0.
        -11    1    4    4    0    0  0.60632545458E+02 -0.49431336557E+02  0.99657624028E+02  0.12669413810E+03  0.51100000000E-03 0.  1.
         11    1    4    4    0    0  0.86197192554E+01 -0.39052275262E+02 -0.12422513280E+02  0.41877184715E+02  0.51100000000E-03 0. -1.
    9000005    1    3    3    0    0 -0.97609176424E+02  0.37023053352E+02  0.54467981536E+03  0.55459477013E+03  0.10000000000E+01 0.  0.
    9000005    1    3    3    0    0  0.28356911710E+02  0.51460558468E+02  0.51329862693E+03  0.51665151111E+03  0.10000000000E+01 0.  0.
<mgrwt>
<rscale>  0 0.16177357E+03</rscale>
<asrwt>0</asrwt>
<pdfrwt beam="1">  1        2 0.18346395E+00 0.16807799E+03</pdfrwt>
<pdfrwt beam="2">  1       -2 0.72772342E-02 0.16807799E+03</pdfrwt>
<totfact> 0.22064647E+03</totfact>
</mgrwt>
</event>
<event>
 8    2  0.1628804E-003  0.1757983E+03  0.7818608E-02  0.1178021E+00
         -2   -1    0    0    0  501 -0.00000000000E+00  0.00000000000E+00  0.29492224174E+03  0.29492224175E+03  0.25500000000E-02 0.  1.
          2   -1    0    0  501    0  0.00000000000E+00 -0.00000000000E+00 -0.99468018446E+02  0.99468018479E+02  0.25500000000E-02 0. -1.
         25    2    1    2    0    0 -0.74026370337E+02  0.98995241690E+02  0.48994756923E+02  0.18249806590E+03  0.12500038587E+03 0.  0.
         23    2    1    2    0    0  0.74026370337E+02 -0.98995241690E+02  0.14645946637E+03  0.21189219433E+03  0.90376796510E+02 0.  0.
        -11    1    4    4    0    0  0.83338102123E+02 -0.10397248955E+03  0.15011039741E+03  0.20072032597E+03  0.51100000000E-03 0.  1.
         11    1    4    4    0    0 -0.93117317860E+01  0.49772478548E+01 -0.36509310351E+01  0.11171868364E+02  0.51100000000E-03 0. -1.
    9000005    1    3    3    0    0 -0.13347081032E+02  0.26955130101E+01 -0.37259380832E+02  0.39682134802E+02  0.10000000000E+01 0.  0.
    9000005    1    3    3    0    0 -0.60679289305E+02  0.96299728680E+02  0.86254137755E+02  0.14281593109E+03  0.10000000000E+01 0.  0.
<mgrwt>
<rscale>  0 0.16983381E+03</rscale>
<asrwt>0</asrwt>
<pdfrwt beam="2">  1        2 0.15302772E-01 0.17579834E+03</pdfrwt>
<pdfrwt beam="1">  1       -2 0.45372653E-01 0.17579834E+03</pdfrwt>
<totfact> 0.17418371E+03</totfact>
</mgrwt>
</event>
<event>
 8    2  0.1628804E-003  0.1875897E+03  0.7818608E-02  0.1165846E+00
          2   -1    0    0  501    0  0.00000000000E+00  0.00000000000E+00  0.39785977186E+03  0.39785977187E+03  0.25500000000E-02 0. -1.
         -2   -1    0    0    0  501 -0.00000000000E+00 -0.00000000000E+00 -0.78869789654E+02  0.78869789695E+02  0.25500000000E-02 0.  1.
         25    2    1    2    0    0  0.54726712633E+01 -0.13976689827E+03  0.17959394175E+03  0.25969958333E+03  0.12500061473E+03 0.  0.
         23    2    1    2    0    0 -0.54726712633E+01  0.13976689827E+03  0.13939604046E+03  0.21702997823E+03  0.90033434755E+02 0.  0.
        -11    1    4    4    0    0  0.40886884863E+02  0.48769853865E+02  0.44835708927E+02  0.77849064189E+02  0.51100000000E-03 0.  1.
         11    1    4    4    0    0 -0.46359556127E+02  0.90997044410E+02  0.94560331530E+02  0.13918091405E+03  0.51100000000E-03 0. -1.
    9000005    1    3    3    0    0 -0.55077132457E+02 -0.32512489355E+02  0.70098757497E+02  0.94896724319E+02  0.10000000000E+01 0.  0.
    9000005    1    3    3    0    0  0.60549803721E+02 -0.10725440892E+03  0.10949518425E+03  0.16480285901E+03  0.10000000000E+01 0.  0.
<mgrwt>
<rscale>  0 0.18203686E+03</rscale>
<asrwt>0</asrwt>
<pdfrwt beam="1">  1        2 0.61209195E-01 0.18758968E+03</pdfrwt>
<pdfrwt beam="2">  1       -2 0.12133814E-01 0.18758968E+03</pdfrwt>
<totfact> 0.38246405E+03</totfact>
</mgrwt>
</event>
<event>
 8    2  0.1628804E-003  0.1395253E+03  0.7818608E-02  0.1224842E+00
         -2   -1    0    0    0  501 -0.00000000000E+00  0.00000000000E+00  0.48479806606E+01  0.48479813313E+01  0.25500000000E-02 0.  1.
          2   -1    0    0  501    0  0.00000000000E+00 -0.00000000000E+00 -0.33467352639E+04  0.33467352639E+04  0.25500000000E-02 0. -1.
         25    2    1    2    0    0  0.18515438673E+02 -0.59111468764E+02 -0.21561900046E+04  0.21606995702E+04  0.12502123633E+03 0.  0.
         23    2    1    2    0    0 -0.18515438673E+02  0.59111468764E+02 -0.11856972786E+04  0.11908836750E+04  0.92135246607E+02 0.  0.
        -11    1    4    4    0    0 -0.29228067504E+02  0.41359273661E+02 -0.11347404869E+04  0.11358700815E+04  0.51100000000E-03 0. -1.
         11    1    4    4    0    0  0.10712628830E+02  0.17752195103E+02 -0.50956791705E+02  0.55013593489E+02  0.51100000000E-03 0.  1.
    9000005    1    3    3    0    0 -0.14524897668E+02 -0.72294823003E+02 -0.66356327103E+03  0.66764865667E+03  0.10000000000E+01 0.  0.
    9000005    1    3    3    0    0  0.33040336341E+02  0.13183354239E+02 -0.14926267335E+04  0.14930509135E+04  0.10000000000E+01 0.  0.
<mgrwt>
<rscale>  0 0.13177770E+03</rscale>
<asrwt>0</asrwt>
<pdfrwt beam="2">  1        2 0.51488050E+00 0.13952525E+03</pdfrwt>
<pdfrwt beam="1">  1       -2 0.74584591E-03 0.13952525E+03</pdfrwt>
<totfact> 0.42184190E+03</totfact>
</mgrwt>
</event>
<event>
 8    2  0.1628804E-003  0.1505266E+03  0.7818608E-02  0.1209211E+00
         -2   -1    0    0    0  501 -0.00000000000E+00  0.00000000000E+00  0.51007393601E+01  0.51007399975E+01  0.25500000000E-02 0.  1.
          2   -1    0    0  501    0  0.00000000000E+00 -0.00000000000E+00 -0.38622189815E+04  0.38622189815E+04  0.25500000000E-02 0. -1.
         25    2    1    2    0    0 -0.32074496588E+01  0.83807003481E+02 -0.25468090746E+04  0.25512535581E+04  0.12499741552E+03 0.  0.
         23    2    1    2    0    0  0.32074496588E+01 -0.83807003481E+02 -0.13103091675E+04  0.13160661633E+04  0.89922912731E+02 0.  0.
        -11    1    4    4    0    0 -0.16594123184E+02 -0.27201301636E+02 -0.96933667837E+03  0.96986023311E+03  0.51100000000E-03 0. -1.
         11    1    4    4    0    0  0.19801572843E+02 -0.56605701845E+02 -0.34097248915E+03  0.34620593023E+03  0.51100000000E-03 0.  1.
    9000005    1    3    3    0    0 -0.15200638315E+02  0.92479332802E+02 -0.10021548072E+04  0.10065280642E+04  0.10000000000E+01 0.  0.
    9000005    1    3    3    0    0  0.11993188656E+02 -0.86723293205E+01 -0.15446542674E+04  0.15447254940E+04  0.10000000000E+01 0.  0.
<mgrwt>
<rscale>  0 0.14310474E+03</rscale>
<asrwt>0</asrwt>
<pdfrwt beam="2">  1        2 0.59418520E+00 0.15052659E+03</pdfrwt>
<pdfrwt beam="1">  1       -2 0.78473227E-03 0.15052659E+03</pdfrwt>
<totfact> 0.17703386E+03</totfact>
</mgrwt>
</event>
<event>
 8    2  0.1628804E-003  0.3323042E+03  0.7818608E-02  0.1071273E+00
          2   -1    0    0  501    0  0.00000000000E+00  0.00000000000E+00  0.78450554336E+03  0.78450554336E+03  0.25500000000E-02 0.  1.
         -2   -1    0    0    0  501 -0.00000000000E+00 -0.00000000000E+00 -0.13714341887E+03  0.13714341889E+03  0.25500000000E-02 0. -1.
         25    2    1    2    0    0 -0.10518753581E+03  0.28937476777E+03  0.29528191991E+03  0.44454189492E+03  0.12499564073E+03 0.  0.
         23    2    1    2    0    0  0.10518753581E+03 -0.28937476777E+03  0.35208020458E+03  0.47710706734E+03  0.94172763239E+02 0.  0.
        -11    1    4    4    0    0  0.39817936788E+02 -0.19354640789E+03  0.16719182093E+03  0.25884123528E+03  0.51100000000E-03 0. -1.
         11    1    4    4    0    0  0.65369599022E+02 -0.95828359879E+02  0.18488838365E+03  0.21826583205E+03  0.51100000000E-03 0.  1.
    9000005    1    3    3    0    0 -0.32473789069E+02  0.17463616049E+03  0.91984753463E+02  0.20003632269E+03  0.10000000000E+01 0.  0.
    9000005    1    3    3    0    0 -0.72713746740E+02  0.11473860728E+03  0.20329716645E+03  0.24450557223E+03  0.10000000000E+01 0.  0.
<mgrwt>
<rscale>  0 0.32969235E+03</rscale>
<asrwt>0</asrwt>
<pdfrwt beam="1">  1        2 0.12069316E+00 0.33230420E+03</pdfrwt>
<pdfrwt beam="2">  1       -2 0.21098987E-01 0.33230420E+03</pdfrwt>
<totfact> 0.69782909E+02</totfact>
</mgrwt>
</event>
<event>
 8    2  0.1628804E-003  0.1291789E+03  0.7818608E-02  0.1244516E+00
         -2   -1    0    0    0  501 -0.00000000000E+00  0.00000000000E+00  0.27253423862E+02  0.27253423982E+02  0.25500000000E-02 0.  1.
          2   -1    0    0  501    0  0.00000000000E+00 -0.00000000000E+00 -0.46436966252E+03  0.46436966253E+03  0.25500000000E-02 0. -1.
         25    2    1    2    0    0 -0.30767834453E+02 -0.10797106527E+02 -0.28775973231E+03  0.31542485570E+03  0.12499575555E+03 0.  0.
         23    2    1    2    0    0  0.30767834453E+02  0.10797106527E+02 -0.14935650635E+03  0.17619823082E+03  0.87608295306E+02 0.  0.
        -11    1    4    4    0    0 -0.26182778277E+02  0.61923988372E+01 -0.16462209275E+02  0.31541845478E+02  0.51100000000E-03 0.  1.
         11    1    4    4    0    0  0.56950612729E+02  0.46047076895E+01 -0.13289429708E+03  0.14465638534E+03  0.51100000000E-03 0. -1.
    9000005    1    3    3    0    0 -0.61677159746E+02  0.27226486293E+02 -0.22996527591E+03  0.23964636804E+03  0.10000000000E+01 0.  0.
    9000005    1    3    3    0    0  0.30909325294E+02 -0.38023592820E+02 -0.57794456396E+02  0.75778487654E+02  0.10000000000E+01 0.  0.
<mgrwt>
<rscale>  0 0.11914419E+03</rscale>
<asrwt>0</asrwt>
<pdfrwt beam="2">  1        2 0.71441481E-01 0.12917885E+03</pdfrwt>
<pdfrwt beam="1">  1       -2 0.41928348E-02 0.12917885E+03</pdfrwt>
<totfact> 0.16263026E+04</totfact>
</mgrwt>
</event>
<event>
 8    2  0.1628804E-003  0.1376319E+03  0.7818608E-02  0.1228623E+00
          2   -1    0    0  501    0  0.00000000000E+00  0.00000000000E+00  0.73388229878E+03  0.73388229878E+03  0.25500000000E-02 0.  1.
         -2   -1    0    0    0  501 -0.00000000000E+00 -0.00000000000E+00 -0.25897377433E+02  0.25897377558E+02  0.25500000000E-02 0. -1.
         25    2    1    2    0    0  0.78241768259E+01 -0.57062148239E+02  0.56327971300E+03  0.57985047689E+03  0.12500093589E+03 0.  0.
         23    2    1    2    0    0 -0.78241768259E+01  0.57062148239E+02  0.14470520835E+03  0.17992919945E+03  0.90097796790E+02 0.  0.
        -11    1    4    4    0    0  0.15577904742E+02  0.57756693453E+02  0.14463392475E+03  0.15651670500E+03  0.51100000000E-03 0.  1.
         11    1    4    4    0    0 -0.23402081568E+02 -0.69454521432E+00  0.71283599096E-01  0.23412494450E+02  0.51100000000E-03 0. -1.
    9000005    1    3    3    0    0 -0.13532488341E+02  0.32211582785E+02  0.27740791766E+03  0.27960126445E+03  0.10000000000E+01 0.  0.
    9000005    1    3    3    0    0  0.21356665167E+02 -0.89273731024E+02  0.28587179534E+03  0.30024921244E+03  0.10000000000E+01 0.  0.
<mgrwt>
<rscale>  0 0.12921665E+03</rscale>
<asrwt>0</asrwt>
<pdfrwt beam="1">  1        2 0.11290498E+00 0.13763190E+03</pdfrwt>
<pdfrwt beam="2">  1       -2 0.39842114E-02 0.13763190E+03</pdfrwt>
<totfact> 0.10485033E+04</totfact>
</mgrwt>
</event>
<event>
 8    2  0.1628804E-003  0.1588850E+03  0.7818608E-02  0.1197727E+00
         -2   -1    0    0    0  501 -0.00000000000E+00  0.00000000000E+00  0.33765764376E+03  0.33765764377E+03  0.25500000000E-02 0. -1.
          2   -1    0    0  501    0  0.00000000000E+00 -0.00000000000E+00 -0.64335594233E+02  0.64335594284E+02  0.25500000000E-02 0.  1.
         25    2    1    2    0    0  0.46018311996E+01 -0.97972844440E+02  0.17086692448E+03  0.23332371924E+03  0.12499838791E+03 0.  0.
         23    2    1    2    0    0 -0.46018311996E+01  0.97972844440E+02  0.10245512505E+03  0.16866951881E+03  0.91282522043E+02 0.  0.
        -11    1    4    4    0    0 -0.26369673095E+02  0.10548952094E+03  0.95208944718E+02  0.14452730483E+03  0.51100000000E-03 0.  1.
         11    1    4    4    0    0  0.21767841895E+02 -0.75166764994E+01  0.72461803275E+01  0.24142213982E+02  0.51100000000E-03 0. -1.
    9000005    1    3    3    0    0 -0.52640961732E+02 -0.75402229155E+02  0.13078354884E+03  0.15988090462E+03  0.10000000000E+01 0.  0.
    9000005    1    3    3    0    0  0.57242792932E+02 -0.22570615284E+02  0.40083375638E+02  0.73442814621E+02  0.10000000000E+01 0.  0.
<mgrwt>
<rscale>  0 0.15225705E+03</rscale>
<asrwt>0</asrwt>
<pdfrwt beam="2">  1        2 0.98977839E-02 0.15888503E+03</pdfrwt>
<pdfrwt beam="1">  1       -2 0.51947329E-01 0.15888503E+03</pdfrwt>
<totfact> 0.22447796E+03</totfact>
</mgrwt>
</event>
<event>
 8    2  0.1628804E-003  0.2495979E+03  0.7818608E-02  0.1117001E+00
         -2   -1    0    0    0  501 -0.00000000000E+00  0.00000000000E+00  0.76772423458E+02  0.76772423500E+02  0.25500000000E-02 0.  1.
          2   -1    0    0  501    0  0.00000000000E+00 -0.00000000000E+00 -0.79850129430E+03  0.79850129430E+03  0.25500000000E-02 0. -1.
         25    2    1    2    0    0 -0.11313313553E+03  0.18405534883E+03 -0.48823185701E+03  0.54833336635E+03  0.12499462656E+03 0.  0.
         23    2    1    2    0    0  0.11313313553E+03 -0.18405534883E+03 -0.23349701383E+03  0.32694035145E+03  0.75456345996E+02 0.  0.
        -11    1    4    4    0    0  0.40052147510E+02 -0.78793788642E+02 -0.45469449149E+02  0.99398724614E+02  0.51100000000E-03 0. -1.
         11    1    4    4    0    0  0.73080988020E+02 -0.10526156019E+03 -0.18802756468E+03  0.22754162683E+03  0.51100000000E-03 0.  1.
    9000005    1    3    3    0    0  0.21314528088E+02  0.55998473136E+02 -0.80891141295E+02  0.10067032751E+03  0.10000000000E+01 0.  0.
    9000005    1    3    3    0    0 -0.13444766362E+03  0.12805687569E+03 -0.40734071572E+03  0.44766303884E+03  0.10000000000E+01 0.  0.
<mgrwt>
<rscale>  0 0.24423910E+03</rscale>
<asrwt>0</asrwt>
<pdfrwt beam="2">  1        2 0.12284635E+00 0.24959795E+03</pdfrwt>
<pdfrwt beam="1">  1       -2 0.11811143E-01 0.24959795E+03</pdfrwt>
<totfact> 0.18014936E+03</totfact>
</mgrwt>
</event>
<event>
 8    2  0.1628804E-003  0.1348802E+03  0.7818608E-02  0.1232258E+00
         -2   -1    0    0    0  501 -0.00000000000E+00  0.00000000000E+00  0.13887772211E+02  0.13887772445E+02  0.25500000000E-02 0.  1.
          2   -1    0    0  501    0  0.00000000000E+00 -0.00000000000E+00 -0.12131124427E+04  0.12131124427E+04  0.25500000000E-02 0. -1.
         25    2    1    2    0    0 -0.31277155053E+02 -0.39868294253E+02 -0.43193453852E+03  0.45250426692E+03  0.12499969880E+03 0.  0.
         23    2    1    2    0    0  0.31277155053E+02  0.39868294253E+02 -0.76729013194E+03  0.77449594819E+03  0.92423405530E+02 0.  0.
        -11    1    4    4    0    0  0.57888454770E+02  0.41159416126E+02 -0.40131553479E+03  0.40755285448E+03  0.51100000000E-03 0.  1.
         11    1    4    4    0    0 -0.26611299718E+02 -0.12911218723E+01 -0.36597459714E+03  0.36694309371E+03  0.51100000000E-03 0. -1.
    9000005    1    3    3    0    0 -0.67557586929E+02  0.93787881038E+01 -0.16296318322E+03  0.17666348888E+03  0.10000000000E+01 0.  0.
    9000005    1    3    3    0    0  0.36280431876E+02 -0.49247082357E+02 -0.26897135530E+03  0.27584077804E+03  0.10000000000E+01 0.  0.
<mgrwt>
<rscale>  0 0.12681614E+03</rscale>
<asrwt>0</asrwt>
<pdfrwt beam="2">  1        2 0.18663260E+00 0.13488019E+03</pdfrwt>
<pdfrwt beam="1">  1       -2 0.21365813E-02 0.13488019E+03</pdfrwt>
<totfact> 0.13283092E+04</totfact>
</mgrwt>
</event>
<event>
 8    2  0.1628804E-003  0.1295998E+03  0.7818608E-02  0.1242230E+00
          2   -1    0    0  501    0  0.00000000000E+00  0.00000000000E+00  0.53969439038E+03  0.53969439039E+03  0.25500000000E-02 0. -1.
         -2   -1    0    0    0  501 -0.00000000000E+00 -0.00000000000E+00 -0.28712539952E+02  0.28712540065E+02  0.25500000000E-02 0.  1.
         25    2    1    2    0    0  0.15261077646E+02  0.30620505320E+02  0.40283224974E+03  0.42316655426E+03  0.12500238148E+03 0.  0.
         23    2    1    2    0    0 -0.15261077646E+02 -0.30620505320E+02  0.10814960069E+03  0.14524037619E+03  0.90707854734E+02 0.  0.
        -11    1    4    4    0    0 -0.38758926703E+02 -0.84558843423E+01  0.86147048830E+01  0.40595190844E+02  0.51100000000E-03 0.  1.
         11    1    4    4    0    0  0.23497849057E+02 -0.22164620978E+02  0.99534895807E+02  0.10464518535E+03  0.51100000000E-03 0. -1.
    9000005    1    3    3    0    0 -0.28837230892E+02  0.55904978517E+02  0.31881795226E+03  0.32496590466E+03  0.10000000000E+01 0.  0.
    9000005    1    3    3    0    0  0.44098308538E+02 -0.25284473196E+02  0.84014297482E+02  0.98200649601E+02  0.10000000000E+01 0.  0.
<mgrwt>
<rscale>  0 0.12052724E+03</rscale>
<asrwt>0</asrwt>
<pdfrwt beam="1">  1        2 0.83029899E-01 0.12959981E+03</pdfrwt>
<pdfrwt beam="2">  1       -2 0.44173142E-02 0.12959981E+03</pdfrwt>
<totfact> 0.12764072E+04</totfact>
</mgrwt>
</event>
<event>
 8    2  0.1628804E-003  0.1384925E+03  0.7818608E-02  0.1226791E+00
          2   -1    0    0  501    0  0.00000000000E+00  0.00000000000E+00  0.10407181684E+04  0.10407181684E+04  0.25500000000E-02 0.  1.
         -2   -1    0    0    0  501 -0.00000000000E+00 -0.00000000000E+00 -0.15316062279E+02  0.15316062491E+02  0.25500000000E-02 0. -1.
         25    2    1    2    0    0  0.59519952713E+02 -0.33274189977E+01  0.46754764977E+03  0.48762789783E+03  0.12500586165E+03 0.  0.
         23    2    1    2    0    0 -0.59519952713E+02  0.33274189977E+01  0.55785445635E+03  0.56840633307E+03  0.91271400300E+02 0.  0.
        -11    1    4    4    0    0 -0.72383024539E+02  0.23933954235E+02  0.49813933011E+03  0.50393940966E+03  0.51100000000E-03 0.  1.
         11    1    4    4    0    0  0.12863071826E+02 -0.20606535237E+02  0.59715126243E+02  0.64466923408E+02  0.51100000000E-03 0. -1.
    9000005    1    3    3    0    0  0.74839778595E+02  0.43742074491E+02  0.25295116213E+03  0.26739418835E+03  0.10000000000E+01 0.  0.
    9000005    1    3    3    0    0 -0.15319825882E+02 -0.47069493488E+02  0.21459648764E+03  0.22023370948E+03  0.10000000000E+01 0.  0.
<mgrwt>
<rscale>  0 0.13044898E+03</rscale>
<asrwt>0</asrwt>
<pdfrwt beam="1">  1        2 0.16011047E+00 0.13849246E+03</pdfrwt>
<pdfrwt beam="2">  1       -2 0.23563175E-02 0.13849246E+03</pdfrwt>
<totfact> 0.14451155E+04</totfact>
</mgrwt>
</event>
<event>
 8    2  0.1628804E-003  0.1269005E+03  0.7818608E-02  0.1246668E+00
          2   -1    0    0  501    0  0.00000000000E+00  0.00000000000E+00  0.28328700567E+04  0.28328700567E+04  0.25500000000E-02 0. -1.
         -2   -1    0    0    0  501 -0.00000000000E+00 -0.00000000000E+00 -0.43451209681E+01  0.43451217163E+01  0.25500000000E-02 0.  1.
         25    2    1    2    0    0 -0.41401149140E+01  0.21464137115E+02  0.15205120812E+04  0.15257983927E+04  0.12500358523E+03 0.  0.
         23    2    1    2    0    0  0.41401149140E+01 -0.21464137115E+02  0.13080128545E+04  0.13114167857E+04  0.91861354979E+02 0.  0.
        -11    1    4    4    0    0 -0.92432938220E+00 -0.14285455626E+01 -0.11737536274E+01  0.20670812926E+01  0.51100000000E-03 0.  1.
         11    1    4    4    0    0  0.50644442962E+01 -0.20035591553E+02  0.13091866082E+04  0.13093497044E+04  0.51100000000E-03 0. -1.
    9000005    1    3    3    0    0  0.31226121332E+02 -0.37560717657E+02  0.36731528327E+03  0.37055012547E+03  0.10000000000E+01 0.  0.
    9000005    1    3    3    0    0 -0.35366236246E+02  0.59024854773E+02  0.11531967980E+04  0.11552482673E+04  0.10000000000E+01 0.  0.
<mgrwt>
<rscale>  0 0.11786125E+03</rscale>
<asrwt>0</asrwt>
<pdfrwt beam="1">  1        2 0.43582494E+00 0.12690054E+03</pdfrwt>
<pdfrwt beam="2">  1       -2 0.66848208E-03 0.12690054E+03</pdfrwt>
<totfact> 0.99006317E+03</totfact>
</mgrwt>
</event>
<event>
 8    2  0.1628804E-003  0.1717253E+03  0.7818608E-02  0.1182181E+00
         -2   -1    0    0    0  501 -0.00000000000E+00  0.00000000000E+00  0.53506032455E+02  0.53506032515E+02  0.25500000000E-02 0.  1.
          2   -1    0    0  501    0  0.00000000000E+00 -0.00000000000E+00 -0.59828449468E+03  0.59828449469E+03  0.25500000000E-02 0. -1.
         25    2    1    2    0    0 -0.10977343529E+03  0.42595562872E+02 -0.43060333379E+03  0.46358258075E+03  0.12499995612E+03 0.  0.
         23    2    1    2    0    0  0.10977343529E+03 -0.42595562872E+02 -0.11417512844E+03  0.18820794645E+03  0.92312957280E+02 0.  0.
        -11    1    4    4    0    0  0.96644615201E+02 -0.52896749180E+02 -0.12628504075E+03  0.16758925753E+03  0.51100000000E-03 0. -1.
         11    1    4    4    0    0  0.13128820092E+02  0.10301186308E+02  0.12109912315E+02  0.20618688923E+02  0.51100000000E-03 0.  1.
    9000005    1    3    3    0    0 -0.70004645697E+02  0.51780303143E+02 -0.10954706721E+03  0.13994073798E+03  0.10000000000E+01 0.  0.
    9000005    1    3    3    0    0 -0.39768789597E+02 -0.91847402715E+01 -0.32105626658E+03  0.32364184277E+03  0.10000000000E+01 0.  0.
<mgrwt>
<rscale>  0 0.16591033E+03</rscale>
<asrwt>0</asrwt>
<pdfrwt beam="2">  1        2 0.92043763E-01 0.17172530E+03</pdfrwt>
<pdfrwt beam="1">  1       -2 0.82316978E-02 0.17172530E+03</pdfrwt>
<totfact> 0.44800698E+03</totfact>
</mgrwt>
</event>
<event>
 8    2  0.1628804E-003  0.1472176E+03  0.7818608E-02  0.1213701E+00
         -2   -1    0    0    0  501 -0.00000000000E+00  0.00000000000E+00  0.13384297137E+02  0.13384297380E+02  0.25500000000E-02 0.  1.
          2   -1    0    0  501    0  0.00000000000E+00 -0.00000000000E+00 -0.16759877252E+04  0.16759877252E+04  0.25500000000E-02 0. -1.
         25    2    1    2    0    0 -0.53077046212E+01  0.77587791523E+02 -0.12829523402E+04  0.12913712627E+04  0.12499997472E+03 0.  0.
         23    2    1    2    0    0  0.53077046212E+01 -0.77587791523E+02 -0.37965108785E+03  0.39800075991E+03  0.90673145200E+02 0.  0.
        -11    1    4    4    0    0 -0.12121720085E+02 -0.12789136472E+02 -0.26174599526E+03  0.26233845342E+03  0.51100000000E-03 0.  1.
         11    1    4    4    0    0  0.17429424706E+02 -0.64798655051E+02 -0.11790509259E+03  0.13566230648E+03  0.51100000000E-03 0. -1.
    9000005    1    3    3    0    0 -0.56479829768E+02  0.28551159947E+01 -0.47290235004E+03  0.47627277429E+03  0.10000000000E+01 0.  0.
    9000005    1    3    3    0    0  0.51172125147E+02  0.74732675528E+02 -0.81004999016E+03  0.81509848837E+03  0.10000000000E+01 0.  0.
<mgrwt>
<rscale>  0 0.13972418E+03</rscale>
<asrwt>0</asrwt>
<pdfrwt beam="2">  1        2 0.25784410E+00 0.14721763E+03</pdfrwt>
<pdfrwt beam="1">  1       -2 0.20591240E-02 0.14721763E+03</pdfrwt>
<totfact> 0.80146134E+03</totfact>
</mgrwt>
</event>
<event>
 8    2  0.1628804E-003  0.1315901E+03  0.7818608E-02  0.1238362E+00
         -2   -1    0    0    0  501 -0.00000000000E+00  0.00000000000E+00  0.77999128044E+01  0.77999132213E+01  0.25500000000E-02 0. -1.
          2   -1    0    0  501    0  0.00000000000E+00 -0.00000000000E+00 -0.17327862102E+04  0.17327862102E+04  0.25500000000E-02 0.  1.
         25    2    1    2    0    0 -0.31234647786E+02 -0.26741347052E+02 -0.10476869384E+04  0.10559184950E+04  0.12500097706E+03 0.  0.
         23    2    1    2    0    0  0.31234647786E+02  0.26741347052E+02 -0.67729935904E+03  0.68466762849E+03  0.91348984063E+02 0.  0.
        -11    1    4    4    0    0  0.36060084574E+02 -0.17737226428E+02 -0.14422227494E+03  0.14971641022E+03  0.51100000000E-03 0. -1.
         11    1    4    4    0    0 -0.48254367873E+01  0.44478573479E+02 -0.53307708410E+03  0.53495121827E+03  0.51100000000E-03 0.  1.
    9000005    1    3    3    0    0  0.10368855442E+02 -0.70849974807E+01 -0.92173499241E+03  0.92182108166E+03  0.10000000000E+01 0.  0.
    9000005    1    3    3    0    0 -0.41603503228E+02 -0.19656349571E+02 -0.12595194599E+03  0.13409741331E+03  0.10000000000E+01 0.  0.
<mgrwt>
<rscale>  0 0.12291612E+03</rscale>
<asrwt>0</asrwt>
<pdfrwt beam="2">  1        2 0.26658219E+00 0.13159007E+03</pdfrwt>
<pdfrwt beam="1">  1       -2 0.11999880E-02 0.13159007E+03</pdfrwt>
<totfact> 0.16274890E+04</totfact>
</mgrwt>
</event>
<event>
 8    2  0.1628804E-003  0.1328837E+03  0.7818608E-02  0.1236529E+00
          2   -1    0    0  501    0  0.00000000000E+00  0.00000000000E+00  0.49154676036E+03  0.49154676037E+03  0.25500000000E-02 0. -1.
         -2   -1    0    0    0  501 -0.00000000000E+00 -0.00000000000E+00 -0.36630088188E+02  0.36630088277E+02  0.25500000000E-02 0.  1.
         25    2    1    2    0    0  0.99606485563E+01 -0.43977133206E+02  0.12240519701E+03  0.18066848576E+03  0.12499946690E+03 0.  0.
         23    2    1    2    0    0 -0.99606485563E+01  0.43977133206E+02  0.33251147516E+03  0.34750836289E+03  0.90360270025E+02 0.  0.
        -11    1    4    4    0    0  0.35940593857E+02  0.15135805193E+02  0.77033233415E+02  0.86341982467E+02  0.51100000000E-03 0.  1.
         11    1    4    4    0    0 -0.45901242414E+02  0.28841328012E+02  0.25547824175E+03  0.26116638042E+03  0.51100000000E-03 0. -1.
    9000005    1    3    3    0    0 -0.40888464279E+02 -0.32294921830E+02  0.52013374301E+01  0.52372534769E+02  0.10000000000E+01 0.  0.
    9000005    1    3    3    0    0  0.50849112835E+02 -0.11682211375E+02  0.11720385958E+03  0.12829595099E+03  0.10000000000E+01 0.  0.
<mgrwt>
<rscale>  0 0.12407065E+03</rscale>
<asrwt>0</asrwt>
<pdfrwt beam="1">  1        2 0.75622581E-01 0.13288367E+03</pdfrwt>
<pdfrwt beam="2">  1       -2 0.56353980E-02 0.13288367E+03</pdfrwt>
<totfact> 0.98367495E+03</totfact>
</mgrwt>
</event>
<event>
 8    2  0.1628804E-003  0.1332928E+03  0.7818608E-02  0.1235363E+00
          2   -1    0    0  501    0  0.00000000000E+00  0.00000000000E+00  0.39992768170E+03  0.39992768170E+03  0.25500000000E-02 0.  1.
         -2   -1    0    0    0  501 -0.00000000000E+00 -0.00000000000E+00 -0.68945264757E+02  0.68945264804E+02  0.25500000000E-02 0. -1.
         25    2    1    2    0    0  0.45105760679E+02 -0.10212457587E+02  0.11996505164E+02  0.13383155633E+03  0.12501258095E+03 0.  0.
         23    2    1    2    0    0 -0.45105760679E+02  0.10212457587E+02  0.31898591177E+03  0.33504139018E+03  0.91443410304E+02 0.  0.
        -11    1    4    4    0    0 -0.52804396260E+02 -0.75064937538E+01  0.85594230884E+02  0.10085149515E+03  0.51100000000E-03 0. -1.
         11    1    4    4    0    0  0.76986355810E+01  0.17718951341E+02  0.23339168089E+03  0.23418989503E+03  0.51100000000E-03 0.  1.
    9000005    1    3    3    0    0 -0.43159342138E+02  0.18523220649E+01 -0.36967700764E+01  0.43368491094E+02  0.10000000000E+01 0.  0.
    9000005    1    3    3    0    0  0.88265102817E+02 -0.12064779652E+02  0.15693275240E+02  0.90463065232E+02  0.10000000000E+01 0.  0.
<mgrwt>
<rscale>  0 0.12481230E+03</rscale>
<asrwt>0</asrwt>
<pdfrwt beam="1">  1        2 0.61527336E-01 0.13329280E+03</pdfrwt>
<pdfrwt beam="2">  1       -2 0.10606964E-01 0.13329280E+03</pdfrwt>
<totfact> 0.46376457E+03</totfact>
</mgrwt>
</event>
<event>
 8    2  0.1628804E-003  0.1616957E+03  0.7818608E-02  0.1194065E+00
          2   -1    0    0  501    0  0.00000000000E+00  0.00000000000E+00  0.18596923308E+03  0.18596923309E+03  0.25500000000E-02 0.  1.
         -2   -1    0    0    0  501 -0.00000000000E+00 -0.00000000000E+00 -0.12104113725E+03  0.12104113728E+03  0.25500000000E-02 0. -1.
         25    2    1    2    0    0 -0.16505978087E+02 -0.10122626419E+03  0.24985604927E+02  0.16361476798E+03  0.12500523178E+03 0.  0.
         23    2    1    2    0    0  0.16505978087E+02  0.10122626419E+03  0.39942490896E+02  0.14339560240E+03  0.91911328645E+02 0.  0.
        -11    1    4    4    0    0 -0.15125762112E+02  0.80699848431E+02 -0.78942128459E+01  0.82483773028E+02  0.51100000000E-03 0.  1.
         11    1    4    4    0    0  0.31631740198E+02  0.20526415758E+02  0.47836703741E+02  0.60911829368E+02  0.51100000000E-03 0. -1.
    9000005    1    3    3    0    0 -0.67202132508E+02 -0.60870570298E+02 -0.77560789138E+01  0.91008294689E+02  0.10000000000E+01 0.  0.
    9000005    1    3    3    0    0  0.50696154421E+02 -0.40355693891E+02  0.32741683841E+02  0.72606473288E+02  0.10000000000E+01 0.  0.
<mgrwt>
<rscale>  0 0.15533648E+03</rscale>
<asrwt>0</asrwt>
<pdfrwt beam="1">  1        2 0.28610651E-01 0.16169574E+03</pdfrwt>
<pdfrwt beam="2">  1       -2 0.18621713E-01 0.16169574E+03</pdfrwt>
<totfact> 0.42547038E+03</totfact>
</mgrwt>
</event>
<event>
 8    2  0.1628804E-003  0.1808430E+03  0.7818608E-02  0.1171928E+00
          2   -1    0    0  501    0  0.00000000000E+00  0.00000000000E+00  0.36101460534E+03  0.36101460535E+03  0.25500000000E-02 0.  1.
         -2   -1    0    0    0  501 -0.00000000000E+00 -0.00000000000E+00 -0.81250925311E+02  0.81250925351E+02  0.25500000000E-02 0. -1.
         25    2    1    2    0    0 -0.92983787096E+02 -0.91833106068E+02  0.14056188978E+03  0.22904545026E+03  0.12499947758E+03 0.  0.
         23    2    1    2    0    0  0.92983787096E+02  0.91833106068E+02  0.13920179025E+03  0.21322008044E+03  0.94901845395E+02 0.  0.
        -11    1    4    4    0    0  0.97283312414E+02  0.42746195863E+02  0.66367140876E+02  0.12528318931E+03  0.51100000000E-03 0.  1.
         11    1    4    4    0    0 -0.42995253175E+01  0.49086910206E+02  0.72834649374E+02  0.87936891128E+02  0.51100000000E-03 0. -1.
    9000005    1    3    3    0    0 -0.59411714041E+02 -0.10623578169E+02  0.12634241733E+03  0.14002149333E+03  0.10000000000E+01 0.  0.
    9000005    1    3    3    0    0 -0.33572073055E+02 -0.81209527900E+02  0.14219472449E+02  0.89023956931E+02  0.10000000000E+01 0.  0.
<mgrwt>
<rscale>  0 0.17580306E+03</rscale>
<asrwt>0</asrwt>
<pdfrwt beam="1">  1        2 0.55540709E-01 0.18084295E+03</pdfrwt>
<pdfrwt beam="2">  1       -2 0.12500142E-01 0.18084295E+03</pdfrwt>
<totfact> 0.40411775E+03</totfact>
</mgrwt>
</event>
<event>
 8    2  0.1628804E-003  0.1791197E+03  0.7818608E-02  0.1172743E+00
         -2   -1    0    0    0  501 -0.00000000000E+00  0.00000000000E+00  0.89784483666E+02  0.89784483702E+02  0.25500000000E-02 0.  1.
          2   -1    0    0  501    0  0.00000000000E+00 -0.00000000000E+00 -0.33155157550E+03  0.33155157551E+03  0.25500000000E-02 0. -1.
         25    2    1    2    0    0 -0.91466379561E+02  0.89961892455E+02 -0.15314727543E+03  0.23566492126E+03  0.12499850581E+03 0.  0.
         23    2    1    2    0    0  0.91466379561E+02 -0.89961892455E+02 -0.88619816400E+02  0.18567113795E+03  0.10080207798E+03 0.  0.
        -11    1    4    4    0    0  0.53683362415E+02  0.99270734296E+01 -0.17373606997E+02  0.57291294342E+02  0.51100000000E-03 0.  1.
         11    1    4    4    0    0  0.37783017146E+02 -0.99888965884E+02 -0.71246209403E+02  0.12837984361E+03  0.51100000000E-03 0. -1.
    9000005    1    3    3    0    0 -0.96352877747E+02  0.85357647096E+01 -0.71901323941E+02  0.12053023153E+03  0.10000000000E+01 0.  0.
    9000005    1    3    3    0    0  0.48864981861E+01  0.81426127745E+02 -0.81245951489E+02  0.11513468972E+03  0.10000000000E+01 0.  0.
<mgrwt>
<rscale>  0 0.17498835E+03</rscale>
<asrwt>0</asrwt>
<pdfrwt beam="2">  1        2 0.51007934E-01 0.17911970E+03</pdfrwt>
<pdfrwt beam="1">  1       -2 0.13812998E-01 0.17911970E+03</pdfrwt>
<totfact> 0.37637103E+03</totfact>
</mgrwt>
</event>
<event>
 8    2  0.1628804E-003  0.1289268E+03  0.7818608E-02  0.1242835E+00
         -2   -1    0    0    0  501 -0.00000000000E+00  0.00000000000E+00  0.61470652918E+01  0.61470658207E+01  0.25500000000E-02 0. -1.
          2   -1    0    0  501    0  0.00000000000E+00 -0.00000000000E+00 -0.21056849426E+04  0.21056849426E+04  0.25500000000E-02 0.  1.
         25    2    1    2    0    0 -0.89542035410E+01 -0.30246141610E+02 -0.13083264177E+04  0.13146635062E+04  0.12500845037E+03 0.  0.
         23    2    1    2    0    0  0.89542035410E+01  0.30246141610E+02 -0.79121145967E+03  0.79716850220E+03  0.92016521023E+02 0.  0.
        -11    1    4    4    0    0 -0.69789100066E+01  0.22185235535E+01 -0.24113924305E+01  0.77098537828E+01  0.51100000000E-03 0. -1.
         11    1    4    4    0    0  0.15933113548E+02  0.28027618057E+02 -0.78880006724E+03  0.78945864842E+03  0.51100000000E-03 0.  1.
    9000005    1    3    3    0    0  0.55071294194E+02 -0.21836973410E+02 -0.81094218674E+03  0.81310388702E+03  0.10000000000E+01 0.  0.
    9000005    1    3    3    0    0 -0.64025497735E+02 -0.84091682002E+01 -0.49738423091E+03  0.50155961922E+03  0.10000000000E+01 0.  0.
<mgrwt>
<rscale>  0 0.12015879E+03</rscale>
<asrwt>0</asrwt>
<pdfrwt beam="2">  1        2 0.32395095E+00 0.12892680E+03</pdfrwt>
<pdfrwt beam="1">  1       -2 0.94570408E-03 0.12892680E+03</pdfrwt>
<totfact> 0.14746201E+04</totfact>
</mgrwt>
</event>
<event>
 8    2  0.1628804E-003  0.1306343E+03  0.7818608E-02  0.1240669E+00
          2   -1    0    0  501    0  0.00000000000E+00  0.00000000000E+00  0.77398426403E+03  0.77398426404E+03  0.25500000000E-02 0.  1.
         -2   -1    0    0    0  501 -0.00000000000E+00 -0.00000000000E+00 -0.36747725524E+02  0.36747725612E+02  0.25500000000E-02 0. -1.
         25    2    1    2    0    0 -0.15730552844E+02  0.34522239169E+02  0.68991518930E+03  0.70217397941E+03  0.12500437447E+03 0.  0.
         23    2    1    2    0    0  0.15730552844E+02 -0.34522239169E+02  0.47321349208E+02  0.10855801024E+03  0.90034972133E+02 0.  0.
        -11    1    4    4    0    0  0.42658049986E+02 -0.42302129262E+02  0.84986074266E+01  0.60674588562E+02  0.51100000000E-03 0. -1.
         11    1    4    4    0    0 -0.26927497142E+02  0.77798900934E+01  0.38822741781E+02  0.47883421681E+02  0.51100000000E-03 0.  1.
    9000005    1    3    3    0    0  0.44128459612E+02  0.36357912677E+02  0.18285547378E+03  0.19158899513E+03  0.10000000000E+01 0.  0.
    9000005    1    3    3    0    0 -0.59859012456E+02 -0.18356735084E+01  0.50705971552E+03  0.51058498428E+03  0.10000000000E+01 0.  0.
<mgrwt>
<rscale>  0 0.12148370E+03</rscale>
<asrwt>0</asrwt>
<pdfrwt beam="1">  1        2 0.11907449E+00 0.13063433E+03</pdfrwt>
<pdfrwt beam="2">  1       -2 0.56534966E-02 0.13063433E+03</pdfrwt>
<totfact> 0.58028978E+03</totfact>
</mgrwt>
</event>
<event>
 8    2  0.1628804E-003  0.1589256E+03  0.7818608E-02  0.1197626E+00
         -2   -1    0    0    0  501 -0.00000000000E+00  0.00000000000E+00  0.12680821294E+02  0.12680821551E+02  0.25500000000E-02 0.  1.
          2   -1    0    0  501    0  0.00000000000E+00 -0.00000000000E+00 -0.17783955924E+04  0.17783955924E+04  0.25500000000E-02 0. -1.
         25    2    1    2    0    0 -0.31567781269E+02 -0.92929893353E+02 -0.75908059300E+03  0.77553897293E+03  0.12499944786E+03 0.  0.
         23    2    1    2    0    0  0.31567781269E+02  0.92929893353E+02 -0.10066341781E+04  0.10155374410E+04  0.91495550182E+02 0.  0.
        -11    1    4    4    0    0  0.63076936671E+02  0.74726375323E+02 -0.73359547711E+03  0.74008449189E+03  0.51100000000E-03 0. -1.
         11    1    4    4    0    0 -0.31509155402E+02  0.18203518030E+02 -0.27303870097E+03  0.27545294910E+03  0.51100000000E-03 0.  1.
    9000005    1    3    3    0    0  0.35486378754E+02  0.75166799353E+01 -0.13000003932E+03  0.13496960316E+03  0.10000000000E+01 0.  0.
    9000005    1    3    3    0    0 -0.67054160023E+02 -0.10044657329E+03 -0.62908055369E+03  0.64056936977E+03  0.10000000000E+01 0.  0.
<mgrwt>
<rscale>  0 0.15234083E+03</rscale>
<asrwt>0</asrwt>
<pdfrwt beam="2">  1        2 0.27359912E+00 0.15892562E+03</pdfrwt>
<pdfrwt beam="1">  1       -2 0.19508970E-02 0.15892562E+03</pdfrwt>
<totfact> 0.76964804E+03</totfact>
</mgrwt>
</event>
<event>
 8    2  0.1628804E-003  0.1661481E+03  0.7818608E-02  0.1188728E+00
         -2   -1    0    0    0  501 -0.00000000000E+00  0.00000000000E+00  0.51110920252E+02  0.51110920315E+02  0.25500000000E-02 0. -1.
          2   -1    0    0  501    0  0.00000000000E+00 -0.00000000000E+00 -0.49221796309E+03  0.49221796310E+03  0.25500000000E-02 0.  1.
         25    2    1    2    0    0  0.12818117472E+02  0.10869762464E+03 -0.17485307115E+03  0.24120280875E+03  0.12500288285E+03 0.  0.
         23    2    1    2    0    0 -0.12818117472E+02 -0.10869762464E+03 -0.26625397169E+03  0.30212607467E+03  0.91703379514E+02 0.  0.
        -11    1    4    4    0    0 -0.31717348842E+02 -0.95764503658E+02 -0.25923791166E+03  0.27817463080E+03  0.51100000000E-03 0.  1.
         11    1    4    4    0    0  0.18899231370E+02 -0.12933120979E+02 -0.70160600309E+01  0.23951443866E+02  0.51100000000E-03 0. -1.
    9000005    1    3    3    0    0  0.37668623522E+02  0.12438366708E+03 -0.16532395469E+03  0.21029320443E+03  0.10000000000E+01 0.  0.
    9000005    1    3    3    0    0 -0.24850506050E+02 -0.15686042447E+02 -0.95291164590E+01  0.30909604317E+02  0.10000000000E+01 0.  0.
<mgrwt>
<rscale>  0 0.15997276E+03</rscale>
<asrwt>0</asrwt>
<pdfrwt beam="2">  1        2 0.75725837E-01 0.16614812E+03</pdfrwt>
<pdfrwt beam="1">  1       -2 0.78632189E-02 0.16614812E+03</pdfrwt>
<totfact> 0.59808771E+03</totfact>
</mgrwt>
</event>
<event>
 8    2  0.1628804E-003  0.1703862E+03  0.7818608E-02  0.1182167E+00
          2   -1    0    0  501    0  0.00000000000E+00  0.00000000000E+00  0.48188530319E+03  0.48188530320E+03  0.25500000000E-02 0. -1.
         -2   -1    0    0    0  501 -0.00000000000E+00 -0.00000000000E+00 -0.55839628245E+02  0.55839628303E+02  0.25500000000E-02 0.  1.
         25    2    1    2    0    0 -0.11523656950E+03 -0.11278730870E+02  0.17987164917E+03  0.24776049961E+03  0.12499911309E+03 0.  0.
         23    2    1    2    0    0  0.11523656950E+03  0.11278730870E+02  0.24617402577E+03  0.28996443189E+03  0.10035459170E+03 0.  0.
        -11    1    4    4    0    0  0.98676681820E+02  0.38647336856E+02  0.12136654906E+03  0.16112275883E+03  0.51100000000E-03 0.  1.
         11    1    4    4    0    0  0.16559887677E+02 -0.27368605987E+02  0.12480747671E+03  0.12884167306E+03  0.51100000000E-03 0. -1.
    9000005    1    3    3    0    0 -0.10451865751E+03 -0.20504055562E+02  0.50971816559E+02  0.11808341181E+03  0.10000000000E+01 0.  0.
    9000005    1    3    3    0    0 -0.10717911990E+02  0.92253246926E+01  0.12889983262E+03  0.12967708780E+03  0.10000000000E+01 0.  0.
<mgrwt>
<rscale>  0 0.16592346E+03</rscale>
<asrwt>0</asrwt>
<pdfrwt beam="1">  1        2 0.74136202E-01 0.17038619E+03</pdfrwt>
<pdfrwt beam="2">  1       -2 0.85907119E-02 0.17038619E+03</pdfrwt>
<totfact> 0.53418884E+03</totfact>
</mgrwt>
</event>
<event>
 8    2  0.1628804E-003  0.1551162E+03  0.7818608E-02  0.1202698E+00
         -2   -1    0    0    0  501 -0.00000000000E+00  0.00000000000E+00  0.16322921314E+02  0.16322921513E+02  0.25500000000E-02 0. -1.
          2   -1    0    0  501    0  0.00000000000E+00 -0.00000000000E+00 -0.12386313794E+04  0.12386313794E+04  0.25500000000E-02 0.  1.
         25    2    1    2    0    0  0.68199314091E+02 -0.61522501902E+02 -0.66331368139E+03  0.68120927597E+03  0.12499949226E+03 0.  0.
         23    2    1    2    0    0 -0.68199314091E+02  0.61522501902E+02 -0.55899477671E+03  0.57374502496E+03  0.90950693205E+02 0.  0.
        -11    1    4    4    0    0 -0.54828673388E+02  0.81990166300E+02 -0.50400377713E+03  0.51356438560E+03  0.51100000000E-03 0.  1.
         11    1    4    4    0    0 -0.13370640703E+02 -0.20467664398E+02 -0.54990999584E+02  0.60180639364E+02  0.51100000000E-03 0. -1.
    9000005    1    3    3    0    0 -0.10796375530E+02  0.31244937801E+02 -0.15607122405E+03  0.15953693879E+03  0.10000000000E+01 0.  0.
    9000005    1    3    3    0    0  0.78995689622E+02 -0.92767439703E+02 -0.50724245734E+03  0.52167233718E+03  0.10000000000E+01 0.  0.
<mgrwt>
<rscale>  0 0.14820371E+03</rscale>
<asrwt>0</asrwt>
<pdfrwt beam="2">  1        2 0.19055860E+00 0.15511621E+03</pdfrwt>
<pdfrwt beam="1">  1       -2 0.25112197E-02 0.15511621E+03</pdfrwt>
<totfact> 0.10231279E+04</totfact>
</mgrwt>
</event>
<event>
 8    2  0.1628804E-003  0.1274438E+03  0.7818608E-02  0.1246262E+00
          2   -1    0    0  501    0  0.00000000000E+00  0.00000000000E+00  0.34583965288E+03  0.34583965289E+03  0.25500000000E-02 0. -1.
         -2   -1    0    0    0  501 -0.00000000000E+00 -0.00000000000E+00 -0.35862413116E+02  0.35862413207E+02  0.25500000000E-02 0.  1.
         25    2    1    2    0    0 -0.14662280563E+02  0.20082239408E+02  0.19852242658E+03  0.23590906284E+03  0.12499461295E+03 0.  0.
         23    2    1    2    0    0  0.14662280563E+02 -0.20082239408E+02  0.11145481319E+03  0.14579300325E+03  0.90637440412E+02 0.  0.
        -11    1    4    4    0    0  0.18113732610E+01 -0.37795755604E+02  0.62691709778E+01  0.38354956913E+02  0.51100000000E-03 0.  1.
         11    1    4    4    0    0  0.12850907302E+02  0.17713516196E+02  0.10518564221E+03  0.10743804634E+03  0.51100000000E-03 0. -1.
    9000005    1    3    3    0    0  0.29180900299E+02  0.39276609972E+02  0.17660192429E+03  0.18325778755E+03  0.10000000000E+01 0.  0.
    9000005    1    3    3    0    0 -0.43843180863E+02 -0.19194370564E+02  0.21920502282E+02  0.52651275291E+02  0.10000000000E+01 0.  0.
<mgrwt>
<rscale>  0 0.11810146E+03</rscale>
<asrwt>0</asrwt>
<pdfrwt beam="1">  1        2 0.53206099E-01 0.12744384E+03</pdfrwt>
<pdfrwt beam="2">  1       -2 0.55172945E-02 0.12744384E+03</pdfrwt>
<totfact> 0.14758710E+04</totfact>
</mgrwt>
</event>
<event>
 8    2  0.1628804E-003  0.2160545E+03  0.7818608E-02  0.1139936E+00
         -2   -1    0    0    0  501 -0.00000000000E+00  0.00000000000E+00  0.16333197684E+03  0.16333197686E+03  0.25500000000E-02 0.  1.
          2   -1    0    0  501    0  0.00000000000E+00 -0.00000000000E+00 -0.94176792402E+03  0.94176792403E+03  0.25500000000E-02 0. -1.
         25    2    1    2    0    0 -0.15889055472E+03 -0.76209987825E+02 -0.86138504525E+03  0.88806741045E+03  0.12500143480E+03 0.  0.
         23    2    1    2    0    0  0.15889055472E+03  0.76209987825E+02  0.82949098063E+02  0.21703249044E+03  0.95751649664E+02 0.  0.
        -11    1    4    4    0    0  0.11227305619E+03  0.10204329673E+02  0.19766040439E+02  0.11445551033E+03  0.51100000000E-03 0. -1.
         11    1    4    4    0    0  0.46617498530E+02  0.66005658151E+02  0.63183057624E+02  0.10257698011E+03  0.51100000000E-03 0.  1.
    9000005    1    3    3    0    0 -0.13313332201E+03 -0.42359123958E+02 -0.80705861939E+03  0.81906250796E+03  0.10000000000E+01 0.  0.
    9000005    1    3    3    0    0 -0.25757232706E+02 -0.33850863866E+02 -0.54326425856E+02  0.69004902489E+02  0.10000000000E+01 0.  0.
<mgrwt>
<rscale>  0 0.21207092E+03</rscale>
<asrwt>0</asrwt>
<pdfrwt beam="2">  1        2 0.14488737E+00 0.21605446E+03</pdfrwt>
<pdfrwt beam="1">  1       -2 0.25127997E-01 0.21605446E+03</pdfrwt>
<totfact> 0.40719550E+02</totfact>
</mgrwt>
</event>
<event>
 8    2  0.1628804E-003  0.1986305E+03  0.7818608E-02  0.1153185E+00
         -2   -1    0    0    0  501 -0.00000000000E+00  0.00000000000E+00  0.65730700149E+02  0.65730700199E+02  0.25500000000E-02 0.  1.
          2   -1    0    0  501    0  0.00000000000E+00 -0.00000000000E+00 -0.68097450131E+03  0.68097450131E+03  0.25500000000E-02 0. -1.
         25    2    1    2    0    0  0.38933354413E+02  0.14937694903E+03 -0.16328999028E+03  0.25713364969E+03  0.12499925556E+03 0.  0.
         23    2    1    2    0    0 -0.38933354413E+02 -0.14937694903E+03 -0.45195381088E+03  0.48957155182E+03  0.10765118761E+03 0.  0.
        -11    1    4    4    0    0 -0.60019530161E+01 -0.75808746297E+02 -0.35705027380E+03  0.36505874524E+03  0.51100000000E-03 0. -1.
         11    1    4    4    0    0 -0.32931401397E+02 -0.73568202734E+02 -0.94903537076E+02  0.12451280658E+03  0.51100000000E-03 0.  1.
    9000005    1    3    3    0    0  0.14222212125E+02  0.83480132296E+02 -0.16636647542E+03  0.18668156832E+03  0.10000000000E+01 0.  0.
    9000005    1    3    3    0    0  0.24711142288E+02  0.65896816735E+02  0.30764851423E+01  0.70452081374E+02  0.10000000000E+01 0.  0.
<mgrwt>
<rscale>  0 0.19596911E+03</rscale>
<asrwt>0</asrwt>
<pdfrwt beam="2">  1        2 0.10476530E+00 0.19863054E+03</pdfrwt>
<pdfrwt beam="1">  1       -2 0.10112416E-01 0.19863054E+03</pdfrwt>
<totfact> 0.28000677E+03</totfact>
</mgrwt>
</event>
<event>
 8    2  0.1628804E-003  0.1727038E+03  0.7818608E-02  0.1181446E+00
          2   -1    0    0  501    0  0.00000000000E+00  0.00000000000E+00  0.65109258157E+02  0.65109258207E+02  0.25500000000E-02 0. -1.
         -2   -1    0    0    0  501 -0.00000000000E+00 -0.00000000000E+00 -0.41987612228E+03  0.41987612229E+03  0.25500000000E-02 0.  1.
         25    2    1    2    0    0 -0.19432677088E+02  0.11757711242E+03 -0.24380982668E+03  0.29878059870E+03  0.12499843307E+03 0.  0.
         23    2    1    2    0    0  0.19432677088E+02 -0.11757711242E+03 -0.11095703745E+03  0.18620478180E+03  0.90325800874E+02 0.  0.
        -11    1    4    4    0    0  0.67402907788E+01 -0.10176218689E+03 -0.35369341036E+02  0.10794426565E+03  0.51100000000E-03 0. -1.
         11    1    4    4    0    0  0.12692386309E+02 -0.15814925525E+02 -0.75587696411E+02  0.78260516153E+02  0.51100000000E-03 0.  1.
    9000005    1    3    3    0    0 -0.47754249101E+02 -0.14631958982E+01 -0.93106342824E+02  0.10465371624E+03  0.10000000000E+01 0.  0.
    9000005    1    3    3    0    0  0.28321572013E+02  0.11904030831E+03 -0.15070348386E+03  0.19412688245E+03  0.10000000000E+01 0.  0.
<mgrwt>
<rscale>  0 0.16659513E+03</rscale>
<asrwt>0</asrwt>
<pdfrwt beam="1">  1        2 0.10016809E-01 0.17270383E+03</pdfrwt>
<pdfrwt beam="2">  1       -2 0.64596325E-01 0.17270383E+03</pdfrwt>
<totfact> 0.14213503E+03</totfact>
</mgrwt>
</event>
<event>
 8    2  0.1628804E-003  0.1364447E+03  0.7818608E-02  0.1230710E+00
          2   -1    0    0  501    0  0.00000000000E+00  0.00000000000E+00  0.13613849717E+03  0.13613849719E+03  0.25500000000E-02 0. -1.
         -2   -1    0    0    0  501 -0.00000000000E+00 -0.00000000000E+00 -0.11066444270E+03  0.11066444272E+03  0.25500000000E-02 0.  1.
         25    2    1    2    0    0  0.37029218711E+02  0.40168901272E+02 -0.74536557120E+01  0.13664818262E+03  0.12502985708E+03 0.  0.
         23    2    1    2    0    0 -0.37029218711E+02 -0.40168901272E+02  0.32927710187E+02  0.11015475730E+03  0.89806084366E+02 0.  0.
        -11    1    4    4    0    0 -0.29809828009E+02 -0.38300360561E+02 -0.23016992422E+02  0.53715225081E+02  0.51100000000E-03 0.  1.
         11    1    4    4    0    0 -0.72193907021E+01 -0.18685407114E+01  0.55944702609E+02  0.56439532216E+02  0.51100000000E-03 0. -1.
    9000005    1    3    3    0    0 -0.74767970418E+01  0.71925325092E+02  0.20589357765E+02  0.75193593722E+02  0.10000000000E+01 0.  0.
    9000005    1    3    3    0    0  0.44506015753E+02 -0.31756423820E+02 -0.28043013477E+02  0.61454588900E+02  0.10000000000E+01 0.  0.
<mgrwt>
<rscale>  0 0.12783127E+03</rscale>
<asrwt>0</asrwt>
<pdfrwt beam="1">  1        2 0.20944384E-01 0.13644475E+03</pdfrwt>
<pdfrwt beam="2">  1       -2 0.17025299E-01 0.13644475E+03</pdfrwt>
<totfact> 0.69092918E+03</totfact>
</mgrwt>
</event>
<event>
 8    2  0.1628804E-003  0.1384916E+03  0.7818608E-02  0.1226574E+00
         -2   -1    0    0    0  501 -0.00000000000E+00  0.00000000000E+00  0.30899169814E+02  0.30899169919E+02  0.25500000000E-02 0.  1.
          2   -1    0    0  501    0  0.00000000000E+00 -0.00000000000E+00 -0.51553454776E+03  0.51553454777E+03  0.25500000000E-02 0. -1.
         25    2    1    2    0    0  0.43970839813E+02 -0.40253688363E+02 -0.32025171539E+03  0.34891416300E+03  0.12500455093E+03 0.  0.
         23    2    1    2    0    0 -0.43970839813E+02  0.40253688363E+02 -0.16438366256E+03  0.19751955468E+03  0.91859630882E+02 0.  0.
        -11    1    4    4    0    0 -0.47402864395E+01 -0.10889811549E+02 -0.11679808293E+03  0.11740038538E+03  0.51100000000E-03 0.  1.
         11    1    4    4    0    0 -0.39230553373E+02  0.51143499912E+02 -0.47585579631E+02  0.80119169306E+02  0.51100000000E-03 0. -1.
    9000005    1    3    3    0    0 -0.20177289950E+02 -0.55971871745E+02 -0.22679186078E+03  0.23446859400E+03  0.10000000000E+01 0.  0.
    9000005    1    3    3    0    0  0.64148129763E+02  0.15718183382E+02 -0.93459854607E+02  0.11444556900E+03  0.10000000000E+01 0.  0.
<mgrwt>
<rscale>  0 0.13059575E+03</rscale>
<asrwt>0</asrwt>
<pdfrwt beam="2">  1        2 0.79313001E-01 0.13849163E+03</pdfrwt>
<pdfrwt beam="1">  1       -2 0.47537188E-02 0.13849163E+03</pdfrwt>
<totfact> 0.12091993E+04</totfact>
</mgrwt>
</event>
<event>
 8    2  0.1628804E-003  0.1293014E+03  0.7818608E-02  0.1242507E+00
         -2   -1    0    0    0  501 -0.00000000000E+00  0.00000000000E+00  0.30701031246E+01  0.30701041836E+01  0.25500000000E-02 0.  1.
          2   -1    0    0  501    0  0.00000000000E+00 -0.00000000000E+00 -0.42455070237E+04  0.42455070237E+04  0.25500000000E-02 0. -1.
         25    2    1    2    0    0  0.11478905298E+02  0.31039541993E+02 -0.21430086740E+04  0.21469059207E+04  0.12499454810E+03 0.  0.
         23    2    1    2    0    0 -0.11478905298E+02 -0.31039541993E+02 -0.20994282466E+04  0.21016712072E+04  0.91256134945E+02 0.  0.
        -11    1    4    4    0    0 -0.25883081329E+02  0.58718856867E+01 -0.17152118289E+04  0.17154171595E+04  0.51100000000E-03 0. -1.
         11    1    4    4    0    0  0.14404176031E+02 -0.36911427680E+02 -0.38421641765E+03  0.38625404771E+03  0.51100000000E-03 0.  1.
    9000005    1    3    3    0    0 -0.34851867826E+02  0.18672712686E+02 -0.18128632858E+04  0.18132946854E+04  0.10000000000E+01 0.  0.
    9000005    1    3    3    0    0  0.46330773124E+02  0.12366829307E+02 -0.33014538819E+03  0.33361123534E+03  0.10000000000E+01 0.  0.
<mgrwt>
<rscale>  0 0.12035816E+03</rscale>
<asrwt>0</asrwt>
<pdfrwt beam="2">  1        2 0.65315023E+00 0.12930141E+03</pdfrwt>
<pdfrwt beam="1">  1       -2 0.47232704E-03 0.12930141E+03</pdfrwt>
<totfact> 0.18653769E+03</totfact>
</mgrwt>
</event>
<event>
 8    2  0.1628804E-003  0.1433522E+03  0.7818608E-02  0.1219046E+00
          2   -1    0    0  501    0  0.00000000000E+00  0.00000000000E+00  0.11367686837E+04  0.11367686837E+04  0.25500000000E-02 0. -1.
         -2   -1    0    0    0  501 -0.00000000000E+00 -0.00000000000E+00 -0.14774475886E+02  0.14774476106E+02  0.25500000000E-02 0.  1.
         25    2    1    2    0    0  0.37486031746E+02  0.59330157746E+02  0.64743817187E+03  0.66311842519E+03  0.12499835698E+03 0.  0.
         23    2    1    2    0    0 -0.37486031746E+02 -0.59330157746E+02  0.47455603591E+03  0.48842473458E+03  0.91815140015E+02 0.  0.
        -11    1    4    4    0    0 -0.31292270269E+02  0.17699682819E+02  0.10852130825E+03  0.11432129852E+03  0.51100000000E-03 0.  1.
         11    1    4    4    0    0 -0.61937614764E+01 -0.77029840565E+02  0.36603472766E+03  0.37410343606E+03  0.51100000000E-03 0. -1.
    9000005    1    3    3    0    0 -0.59266235357E+01 -0.34170203309E+02  0.25566298403E+03  0.25800637408E+03  0.10000000000E+01 0.  0.
    9000005    1    3    3    0    0  0.43412655281E+02  0.93500361055E+02  0.39177518784E+03  0.40511205112E+03  0.10000000000E+01 0.  0.
<mgrwt>
<rscale>  0 0.13583447E+03</rscale>
<asrwt>0</asrwt>
<pdfrwt beam="1">  1        2 0.17488753E+00 0.14335222E+03</pdfrwt>
<pdfrwt beam="2">  1       -2 0.22729958E-02 0.14335222E+03</pdfrwt>
<totfact> 0.13436568E+04</totfact>
</mgrwt>
</event>
<event>
 8    2  0.1628804E-003  0.1660091E+03  0.7818608E-02  0.1189549E+00
         -2   -1    0    0    0  501 -0.00000000000E+00  0.00000000000E+00  0.18356140443E+02  0.18356140620E+02  0.25500000000E-02 0.  1.
          2   -1    0    0  501    0  0.00000000000E+00 -0.00000000000E+00 -0.13054016024E+04  0.13054016024E+04  0.25500000000E-02 0. -1.
         25    2    1    2    0    0 -0.78687271851E+02  0.75778666946E+02 -0.60405302949E+03  0.62644958777E+03  0.12499972188E+03 0.  0.
         23    2    1    2    0    0  0.78687271851E+02 -0.75778666946E+02 -0.68299243243E+03  0.69730815521E+03  0.88464159143E+02 0.  0.
        -11    1    4    4    0    0  0.40214461495E+01 -0.55626562076E+02 -0.40263722017E+03  0.40648150942E+03  0.51100000000E-03 0. -1.
         11    1    4    4    0    0  0.74665825701E+02 -0.20152104870E+02 -0.28035521226E+03  0.29082664579E+03  0.51100000000E-03 0.  1.
    9000005    1    3    3    0    0 -0.78889783607E+02  0.10739557245E+03 -0.45702078250E+03  0.47605294094E+03  0.10000000000E+01 0.  0.
    9000005    1    3    3    0    0  0.20251175677E+00 -0.31616905500E+02 -0.14703224699E+03  0.15039664683E+03  0.10000000000E+01 0.  0.
<mgrwt>
<rscale>  0 0.15924738E+03</rscale>
<asrwt>0</asrwt>
<pdfrwt beam="2">  1        2 0.20083094E+00 0.16600911E+03</pdfrwt>
<pdfrwt beam="1">  1       -2 0.28240226E-02 0.16600911E+03</pdfrwt>
<totfact> 0.79378500E+03</totfact>
</mgrwt>
</event>
<event>
 8    2  0.1628804E-003  0.1281824E+03  0.7818608E-02  0.1245938E+00
          2   -1    0    0  501    0  0.00000000000E+00  0.00000000000E+00  0.18697421789E+04  0.18697421789E+04  0.25500000000E-02 0. -1.
         -2   -1    0    0    0  501 -0.00000000000E+00 -0.00000000000E+00 -0.67066855419E+01  0.67066860267E+01  0.25500000000E-02 0.  1.
         25    2    1    2    0    0 -0.20495334346E+02  0.19647272226E+02  0.12222981278E+04  0.12290009901E+04  0.12499858530E+03 0.  0.
         23    2    1    2    0    0  0.20495334346E+02 -0.19647272226E+02  0.64073736552E+03  0.64744787483E+03  0.88534202455E+02 0.  0.
        -11    1    4    4    0    0 -0.30179992019E+02 -0.26822339812E+02  0.22777110469E+03  0.23132216920E+03  0.51100000000E-03 0.  1.
         11    1    4    4    0    0  0.50675326364E+02  0.71750675857E+01  0.41296626084E+03  0.41612570563E+03  0.51100000000E-03 0. -1.
    9000005    1    3    3    0    0 -0.45957957483E+02  0.15533248963E+02  0.11666413712E+04  0.11676499923E+04  0.10000000000E+01 0.  0.
    9000005    1    3    3    0    0  0.25462623137E+02  0.41140232634E+01  0.55656756683E+02  0.61350997782E+02  0.10000000000E+01 0.  0.
<mgrwt>
<rscale>  0 0.11829406E+03</rscale>
<asrwt>0</asrwt>
<pdfrwt beam="1">  1        2 0.28765259E+00 0.12818237E+03</pdfrwt>
<pdfrwt beam="2">  1       -2 0.10317980E-02 0.12818237E+03</pdfrwt>
<totfact> 0.17180090E+04</totfact>
</mgrwt>
</event>
<event>
 8    2  0.1628804E-003  0.1654747E+03  0.7818608E-02  0.1189528E+00
          2   -1    0    0  501    0  0.00000000000E+00  0.00000000000E+00  0.60442722984E+03  0.60442722984E+03  0.25500000000E-02 0. -1.
         -2   -1    0    0    0  501 -0.00000000000E+00 -0.00000000000E+00 -0.43337235083E+02  0.43337235158E+02  0.25500000000E-02 0.  1.
         25    2    1    2    0    0 -0.65748750933E+02  0.86206250981E+02  0.19891398207E+03  0.25874438068E+03  0.12500986485E+03 0.  0.
         23    2    1    2    0    0  0.65748750933E+02 -0.86206250981E+02  0.36217601268E+03  0.38902008432E+03  0.91710118790E+02 0.  0.
        -11    1    4    4    0    0  0.11167608759E+02 -0.86602186056E+02  0.21562360137E+03  0.23263316956E+03  0.51100000000E-03 0.  1.
         11    1    4    4    0    0  0.54581142174E+02  0.39593507533E+00  0.14655241131E+03  0.15638691476E+03  0.51100000000E-03 0. -1.
    9000005    1    3    3    0    0  0.27190374471E+02 -0.66811249162E+01  0.66666324458E+02  0.72314263537E+02  0.10000000000E+01 0.  0.
    9000005    1    3    3    0    0 -0.92939125404E+02  0.92887375897E+02  0.13224765761E+03  0.18643011714E+03  0.10000000000E+01 0.  0.
<mgrwt>
<rscale>  0 0.15926632E+03</rscale>
<asrwt>0</asrwt>
<pdfrwt beam="1">  1        2 0.92988808E-01 0.16547472E+03</pdfrwt>
<pdfrwt beam="2">  1       -2 0.66672667E-02 0.16547472E+03</pdfrwt>
<totfact> 0.61214889E+03</totfact>
</mgrwt>
</event>
<event>
 8    2  0.1628804E-003  0.1462014E+03  0.7818608E-02  0.1216195E+00
          2   -1    0    0  501    0  0.00000000000E+00  0.00000000000E+00  0.18494082826E+03  0.18494082828E+03  0.25500000000E-02 0. -1.
         -2   -1    0    0    0  501 -0.00000000000E+00 -0.00000000000E+00 -0.10553002771E+03  0.10553002774E+03  0.25500000000E-02 0.  1.
         25    2    1    2    0    0  0.23757697401E+02  0.72014426412E+02 -0.65398736476E+01  0.14634755716E+03  0.12499732694E+03 0.  0.
         23    2    1    2    0    0 -0.23757697401E+02 -0.72014426412E+02  0.85950674194E+02  0.14412329886E+03  0.87369909486E+02 0.  0.
        -11    1    4    4    0    0 -0.20330119491E+02 -0.67415367349E+02  0.13810756826E+02  0.71755714182E+02  0.51100000000E-03 0.  1.
         11    1    4    4    0    0 -0.34275779097E+01 -0.45990590633E+01  0.72139917368E+02  0.72367584682E+02  0.51100000000E-03 0. -1.
    9000005    1    3    3    0    0  0.30614505207E+02  0.49757900488E+02  0.55183089803E+02  0.80369583739E+02  0.10000000000E+01 0.  0.
    9000005    1    3    3    0    0 -0.68568078063E+01  0.22256525924E+02 -0.61722963451E+02  0.65977973420E+02  0.10000000000E+01 0.  0.
<mgrwt>
<rscale>  0 0.13789129E+03</rscale>
<asrwt>0</asrwt>
<pdfrwt beam="1">  1        2 0.28452435E-01 0.14620136E+03</pdfrwt>
<pdfrwt beam="2">  1       -2 0.16235389E-01 0.14620136E+03</pdfrwt>
<totfact> 0.53482059E+03</totfact>
</mgrwt>
</event>
<event>
 8    2  0.1628804E-003  0.1456336E+03  0.7818608E-02  0.1216800E+00
         -2   -1    0    0    0  501 -0.00000000000E+00  0.00000000000E+00  0.18635773938E+03  0.18635773939E+03  0.25500000000E-02 0.  1.
          2   -1    0    0  501    0  0.00000000000E+00 -0.00000000000E+00 -0.94493197160E+02  0.94493197194E+02  0.25500000000E-02 0. -1.
         25    2    1    2    0    0 -0.50655098148E+02 -0.54938196956E+02  0.75795827287E+02  0.16417717618E+03  0.12499997316E+03 0.  0.
         23    2    1    2    0    0  0.50655098148E+02  0.54938196956E+02  0.16068714929E+02  0.11667376041E+03  0.88149976265E+02 0.  0.
        -11    1    4    4    0    0  0.71450547265E+02  0.31393662142E+02  0.28225063760E+02  0.82990342520E+02  0.51100000000E-03 0.  1.
         11    1    4    4    0    0 -0.20795449116E+02  0.23544534813E+02 -0.12156348831E+02  0.33683417889E+02  0.51100000000E-03 0. -1.
    9000005    1    3    3    0    0 -0.45665009428E+02  0.17563072080E+02 -0.11816676140E+02  0.50342709720E+02  0.10000000000E+01 0.  0.
    9000005    1    3    3    0    0 -0.49900887206E+01 -0.72501269035E+02  0.87612503427E+02  0.11383446646E+03  0.10000000000E+01 0.  0.
<mgrwt>
<rscale>  0 0.13745161E+03</rscale>
<asrwt>0</asrwt>
<pdfrwt beam="2">  1        2 0.14537415E-01 0.14563357E+03</pdfrwt>
<pdfrwt beam="1">  1       -2 0.28670421E-01 0.14563357E+03</pdfrwt>
<totfact> 0.43133131E+03</totfact>
</mgrwt>
</event>
<event>
 8    2  0.1628804E-003  0.1274822E+03  0.7818608E-02  0.1246829E+00
         -2   -1    0    0    0  501 -0.00000000000E+00  0.00000000000E+00  0.11359094384E+02  0.11359094670E+02  0.25500000000E-02 0. -1.
          2   -1    0    0  501    0  0.00000000000E+00 -0.00000000000E+00 -0.10694426731E+04  0.10694426731E+04  0.25500000000E-02 0.  1.
         25    2    1    2    0    0  0.66759471957E+01  0.24100825869E+02 -0.59492690913E+03  0.60843219908E+03  0.12500518225E+03 0.  0.
         23    2    1    2    0    0 -0.66759471957E+01 -0.24100825869E+02 -0.46315666958E+03  0.47236956868E+03  0.89406323982E+02 0.  0.
        -11    1    4    4    0    0 -0.23605679544E+02  0.28535370461E+01 -0.40796355345E+03  0.40865588424E+03  0.51100000000E-03 0.  1.
         11    1    4    4    0    0  0.16929732349E+02 -0.26954362916E+02 -0.55193116130E+02  0.63713684448E+02  0.51100000000E-03 0. -1.
    9000005    1    3    3    0    0 -0.19108072261E+02 -0.39007991382E+02 -0.39106600543E+03  0.39347218761E+03  0.10000000000E+01 0.  0.
    9000005    1    3    3    0    0  0.25784019457E+02  0.63108817252E+02 -0.20386090370E+03  0.21496001147E+03  0.10000000000E+01 0.  0.
<mgrwt>
<rscale>  0 0.11776567E+03</rscale>
<asrwt>0</asrwt>
<pdfrwt beam="2">  1        2 0.16452956E+00 0.12748221E+03</pdfrwt>
<pdfrwt beam="1">  1       -2 0.17475539E-02 0.12748221E+03</pdfrwt>
<totfact> 0.21337494E+04</totfact>
</mgrwt>
</event>
<event>
 8    2  0.1628804E-003  0.1401218E+03  0.7818608E-02  0.1224028E+00
         -2   -1    0    0    0  501 -0.00000000000E+00  0.00000000000E+00  0.17256096544E+02  0.17256096733E+02  0.25500000000E-02 0.  1.
          2   -1    0    0  501    0  0.00000000000E+00 -0.00000000000E+00 -0.11399456550E+04  0.11399456550E+04  0.25500000000E-02 0. -1.
         25    2    1    2    0    0 -0.37262063860E+02  0.51212074090E+02 -0.35829109632E+03  0.38471630945E+03  0.12499196423E+03 0.  0.
         23    2    1    2    0    0  0.37262063860E+02 -0.51212074090E+02 -0.76439846215E+03  0.77248544229E+03  0.91747543222E+02 0.  0.
        -11    1    4    4    0    0 -0.19446950931E+01 -0.47512314763E+02 -0.16288404497E+03  0.16968327555E+03  0.51100000000E-03 0.  1.
         11    1    4    4    0    0  0.39206758954E+02 -0.36997593263E+01 -0.60151441717E+03  0.60280216675E+03  0.51100000000E-03 0. -1.
    9000005    1    3    3    0    0  0.82415953713E+01  0.83630334990E+02 -0.20501287832E+03  0.22156993727E+03  0.10000000000E+01 0.  0.
    9000005    1    3    3    0    0 -0.45503659232E+02 -0.32418260900E+02 -0.15327821800E+03  0.16314637218E+03  0.10000000000E+01 0.  0.
<mgrwt>
<rscale>  0 0.13233746E+03</rscale>
<asrwt>0</asrwt>
<pdfrwt beam="2">  1        2 0.17537620E+00 0.14012184E+03</pdfrwt>
<pdfrwt beam="1">  1       -2 0.26547850E-02 0.14012184E+03</pdfrwt>
<totfact> 0.10650601E+04</totfact>
</mgrwt>
</event>
<event>
 8    2  0.1628804E-003  0.1675081E+03  0.7818608E-02  0.1186934E+00
          2   -1    0    0  501    0  0.00000000000E+00  0.00000000000E+00  0.84032387309E+03  0.84032387309E+03  0.25500000000E-02 0. -1.
         -2   -1    0    0    0  501 -0.00000000000E+00 -0.00000000000E+00 -0.29500731342E+02  0.29500731452E+02  0.25500000000E-02 0.  1.
         25    2    1    2    0    0 -0.97708658237E+02  0.53735730122E+02  0.48758423780E+03  0.51555539480E+03  0.12499786228E+03 0.  0.
         23    2    1    2    0    0  0.97708658237E+02 -0.53735730122E+02  0.32323890395E+03  0.35426920974E+03  0.92675635194E+02 0.  0.
        -11    1    4    4    0    0  0.11078445730E+02 -0.40904756736E+02  0.41819246091E+02  0.59538058646E+02  0.51100000000E-03 0. -1.
         11    1    4    4    0    0  0.86630212508E+02 -0.12830973386E+02  0.28141965786E+03  0.29473115109E+03  0.51100000000E-03 0.  1.
    9000005    1    3    3    0    0  0.25787877474E+02 -0.39553416622E+00  0.36189634444E+02  0.44450654811E+02  0.10000000000E+01 0.  0.
    9000005    1    3    3    0    0 -0.12349653571E+03  0.54131264289E+02  0.45139460335E+03  0.47110473999E+03  0.10000000000E+01 0.  0.
<mgrwt>
<rscale>  0 0.16157141E+03</rscale>
<asrwt>0</asrwt>
<pdfrwt beam="1">  1        2 0.12928058E+00 0.16750814E+03</pdfrwt>
<pdfrwt beam="2">  1       -2 0.45385745E-02 0.16750814E+03</pdfrwt>
<totfact> 0.73739329E+03</totfact>
</mgrwt>
</event>
<event>
 8    2  0.1628804E-003  0.1604108E+03  0.7818608E-02  0.1193880E+00
          2   -1    0    0  501    0  0.00000000000E+00  0.00000000000E+00  0.26057472219E+04  0.26057472219E+04  0.25500000000E-02 0. -1.
         -2   -1    0    0    0  501 -0.00000000000E+00 -0.00000000000E+00 -0.12151267763E+02  0.12151268031E+02  0.25500000000E-02 0.  1.
         25    2    1    2    0    0 -0.86015467476E+02 -0.52028441335E+02  0.66359335559E+03  0.68270621390E+03  0.12500405423E+03 0.  0.
         23    2    1    2    0    0  0.86015467476E+02  0.52028441335E+02  0.19300025985E+04  0.19351922760E+04  0.99767206201E+02 0.  0.
        -11    1    4    4    0    0  0.56909949014E+02 -0.22241272127E+02  0.93768006506E+03  0.93966872934E+03  0.51100000000E-03 0. -1.
         11    1    4    4    0    0  0.29105518462E+02  0.74269713462E+02  0.99232253349E+03  0.99552354669E+03  0.51100000000E-03 0.  1.
    9000005    1    3    3    0    0 -0.54474919802E+02 -0.89481766174E+02  0.53373249566E+03  0.54391716308E+03  0.10000000000E+01 0.  0.
    9000005    1    3    3    0    0 -0.31540547674E+02  0.37453324840E+02  0.12986085992E+03  0.13878905082E+03  0.10000000000E+01 0.  0.
<mgrwt>
<rscale>  0 0.15549421E+03</rscale>
<asrwt>0</asrwt>
<pdfrwt beam="1">  1        2 0.40088478E+00 0.16041083E+03</pdfrwt>
<pdfrwt beam="2">  1       -2 0.18694231E-02 0.16041083E+03</pdfrwt>
<totfact> 0.30188561E+03</totfact>
</mgrwt>
</event>
<event>
 8    2  0.1628804E-003  0.1258761E+03  0.7818608E-02  0.1248400E+00
          2   -1    0    0  501    0  0.00000000000E+00  0.00000000000E+00  0.25808495933E+03  0.25808495934E+03  0.25500000000E-02 0. -1.
         -2   -1    0    0    0  501 -0.00000000000E+00 -0.00000000000E+00 -0.49253693691E+02  0.49253693757E+02  0.25500000000E-02 0.  1.
         25    2    1    2    0    0  0.11265130273E+01  0.14786329941E+02  0.83694483714E+02  0.15116069419E+03  0.12499953712E+03 0.  0.
         23    2    1    2    0    0 -0.11265130273E+01 -0.14786329941E+02  0.12513678193E+03  0.15617795891E+03  0.92262864004E+02 0.  0.
        -11    1    4    4    0    0 -0.46360352603E+02 -0.82835090418E+01  0.72714683087E+02  0.86633272778E+02  0.51100000000E-03 0. -1.
         11    1    4    4    0    0  0.45233839576E+02 -0.65028208993E+01  0.52422098840E+02  0.69544686134E+02  0.51100000000E-03 0.  1.
    9000005    1    3    3    0    0  0.39760512449E+02  0.29208241942E+02  0.96148076063E+02  0.10807160718E+03  0.10000000000E+01 0.  0.
    9000005    1    3    3    0    0 -0.38633999422E+02 -0.14421912001E+02 -0.12453592349E+02  0.43089087011E+02  0.10000000000E+01 0.  0.
<mgrwt>
<rscale>  0 0.11684194E+03</rscale>
<asrwt>0</asrwt>
<pdfrwt beam="1">  1        2 0.39705377E-01 0.12587609E+03</pdfrwt>
<pdfrwt beam="2">  1       -2 0.75774915E-02 0.12587609E+03</pdfrwt>
<totfact> 0.12402856E+04</totfact>
</mgrwt>
</event>
<event>
 8    2  0.1628804E-003  0.1445568E+03  0.7818608E-02  0.1217123E+00
          2   -1    0    0  501    0  0.00000000000E+00  0.00000000000E+00  0.19001198028E+04  0.19001198028E+04  0.25500000000E-02 0. -1.
         -2   -1    0    0    0  501 -0.00000000000E+00 -0.00000000000E+00 -0.11033768697E+02  0.11033768992E+02  0.25500000000E-02 0.  1.
         25    2    1    2    0    0  0.55421576753E+01  0.72397759289E+02  0.61893406492E+03  0.63559109717E+03  0.12499806009E+03 0.  0.
         23    2    1    2    0    0 -0.55421576753E+01 -0.72397759289E+02  0.12701519692E+04  0.12755624746E+04  0.92203312188E+02 0.  0.
        -11    1    4    4    0    0 -0.43900154303E+02 -0.60627818369E+02  0.69699725319E+03  0.70100508334E+03  0.51100000000E-03 0.  1.
         11    1    4    4    0    0  0.38357996627E+02 -0.11769940921E+02  0.57315471598E+03  0.57455739127E+03  0.51100000000E-03 0. -1.
    9000005    1    3    3    0    0  0.26890596270E+02 -0.26223682469E+02  0.97643805528E+02  0.10462360368E+03  0.10000000000E+01 0.  0.
    9000005    1    3    3    0    0 -0.21348438594E+02  0.98621441758E+02  0.52129025939E+03  0.53096749349E+03  0.10000000000E+01 0.  0.
<mgrwt>
<rscale>  0 0.13721760E+03</rscale>
<asrwt>0</asrwt>
<pdfrwt beam="1">  1        2 0.29232606E+00 0.14455679E+03</pdfrwt>
<pdfrwt beam="2">  1       -2 0.16975033E-02 0.14455679E+03</pdfrwt>
<totfact> 0.81377240E+03</totfact>
</mgrwt>
</event>
<event>
 8    2  0.1628804E-003  0.1459763E+03  0.7818608E-02  0.1215791E+00
          2   -1    0    0  501    0  0.00000000000E+00  0.00000000000E+00  0.12174477742E+04  0.12174477742E+04  0.25500000000E-02 0. -1.
         -2   -1    0    0    0  501 -0.00000000000E+00 -0.00000000000E+00 -0.19249194235E+02  0.19249194404E+02  0.25500000000E-02 0.  1.
         25    2    1    2    0    0  0.74105430072E+02  0.13835402436E+02  0.96197201812E+03  0.97298471311E+03  0.12500422065E+03 0.  0.
         23    2    1    2    0    0 -0.74105430072E+02 -0.13835402436E+02  0.23622656185E+03  0.26371225550E+03  0.89767098925E+02 0.  0.
        -11    1    4    4    0    0 -0.82363186211E+02 -0.18856497769E+02  0.23913197313E+03  0.25362050888E+03  0.51100000000E-03 0. -1.
         11    1    4    4    0    0  0.82577561384E+01  0.50210953332E+01 -0.29054112822E+01  0.10091746616E+02  0.51100000000E-03 0.  1.
    9000005    1    3    3    0    0  0.45199252052E+02  0.33966887434E+02  0.89936690942E+03  0.90114291851E+03  0.10000000000E+01 0.  0.
    9000005    1    3    3    0    0  0.28906178020E+02 -0.20131484998E+02  0.62605108696E+02  0.71841794596E+02  0.10000000000E+01 0.  0.
<mgrwt>
<rscale>  0 0.13818623E+03</rscale>
<asrwt>0</asrwt>
<pdfrwt beam="1">  1        2 0.18729969E+00 0.14597633E+03</pdfrwt>
<pdfrwt beam="2">  1       -2 0.29614140E-02 0.14597633E+03</pdfrwt>
<totfact> 0.82269870E+03</totfact>
</mgrwt>
</event>
<event>
 8    2  0.1628804E-003  0.1625392E+03  0.7818608E-02  0.1193071E+00
          2   -1    0    0  501    0  0.00000000000E+00  0.00000000000E+00  0.65526751862E+03  0.65526751862E+03  0.25500000000E-02 0. -1.
         -2   -1    0    0    0  501 -0.00000000000E+00 -0.00000000000E+00 -0.39124988880E+02  0.39124988963E+02  0.25500000000E-02 0.  1.
         25    2    1    2    0    0  0.77590261414E+02 -0.69089771720E+02  0.21191814894E+03  0.26707357545E+03  0.12500139051E+03 0.  0.
         23    2    1    2    0    0 -0.77590261414E+02  0.69089771720E+02  0.40422438079E+03  0.42731893214E+03  0.91708639244E+02 0.  0.
        -11    1    4    4    0    0 -0.55182685762E+02  0.72704289702E+01  0.86489952068E+02  0.10285183399E+03  0.51100000000E-03 0.  1.
         11    1    4    4    0    0 -0.22407575653E+02  0.61819342749E+02  0.31773442873E+03  0.32446709815E+03  0.51100000000E-03 0. -1.
    9000005    1    3    3    0    0 -0.13868441429E+01  0.80329286485E+01  0.12836411146E+03  0.12862657730E+03  0.10000000000E+01 0.  0.
    9000005    1    3    3    0    0  0.78977105557E+02 -0.77122700368E+02  0.83554037486E+02  0.13844699814E+03  0.10000000000E+01 0.  0.
<mgrwt>
<rscale>  0 0.15618629E+03</rscale>
<asrwt>0</asrwt>
<pdfrwt beam="1">  1        2 0.10081039E+00 0.16253920E+03</pdfrwt>
<pdfrwt beam="2">  1       -2 0.60192290E-02 0.16253920E+03</pdfrwt>
<totfact> 0.65109159E+03</totfact>
</mgrwt>
</event>
<event>
 8    2  0.1628804E-003  0.1304186E+03  0.7818608E-02  0.1242526E+00
          2   -1    0    0  501    0  0.00000000000E+00  0.00000000000E+00  0.27390140542E+03  0.27390140543E+03  0.25500000000E-02 0. -1.
         -2   -1    0    0    0  501 -0.00000000000E+00 -0.00000000000E+00 -0.46222441740E+02  0.46222441811E+02  0.25500000000E-02 0.  1.
         25    2    1    2    0    0 -0.30221538324E+02  0.21642480000E+02  0.13550533750E+03  0.18807099031E+03  0.12500905002E+03 0.  0.
         23    2    1    2    0    0  0.30221538324E+02 -0.21642480000E+02  0.92173626179E+02  0.13205285693E+03  0.86949648304E+02 0.  0.
        -11    1    4    4    0    0  0.22374932131E+02  0.96820862136E+01 -0.88940795043E+01  0.25951590159E+02  0.51100000000E-03 0.  1.
         11    1    4    4    0    0  0.78466061938E+01 -0.31324566214E+02  0.10106770568E+03  0.10610126677E+03  0.51100000000E-03 0. -1.
    9000005    1    3    3    0    0  0.19585036295E+02 -0.30969124722E+02  0.10172639623E+03  0.10812918210E+03  0.10000000000E+01 0.  0.
    9000005    1    3    3    0    0 -0.49806574619E+02  0.52611604722E+02  0.33778941271E+02  0.79941808211E+02  0.10000000000E+01 0.  0.
<mgrwt>
<rscale>  0 0.12034658E+03</rscale>
<asrwt>0</asrwt>
<pdfrwt beam="1">  1        2 0.42138677E-01 0.13041856E+03</pdfrwt>
<pdfrwt beam="2">  1       -2 0.71111450E-02 0.13041856E+03</pdfrwt>
<totfact> 0.12874851E+04</totfact>
</mgrwt>
</event>
<event>
 8    2  0.1628804E-003  0.1464613E+03  0.7818608E-02  0.1221475E+00
         -2   -1    0    0    0  501 -0.00000000000E+00  0.00000000000E+00  0.12579156035E+03  0.12579156037E+03  0.25500000000E-02 0.  1.
          2   -1    0    0  501    0  0.00000000000E+00 -0.00000000000E+00 -0.12716220608E+03  0.12716220610E+03  0.25500000000E-02 0. -1.
         25    2    1    2    0    0  0.59789606422E+01 -0.76094117799E+02  0.19893466270E+02  0.14780619804E+03  0.12499943777E+03 0.  0.
         23    2    1    2    0    0 -0.59789606422E+01  0.76094117799E+02 -0.21264112002E+02  0.10514756844E+03  0.69121530333E+02 0.  0.
        -11    1    4    4    0    0  0.12677467772E+02  0.22126144684E+01  0.15827378485E+02  0.20399013747E+02  0.51100000000E-03 0.  1.
         11    1    4    4    0    0 -0.18656428414E+02  0.73881503331E+02 -0.37091490487E+02  0.84748554692E+02  0.51100000000E-03 0. -1.
    9000005    1    3    3    0    0  0.51615208039E+02 -0.69420007272E+02 -0.17690492578E+02  0.88301872224E+02  0.10000000000E+01 0.  0.
    9000005    1    3    3    0    0 -0.45636247397E+02 -0.66741105273E+01  0.37583958848E+02  0.59504325814E+02  0.10000000000E+01 0.  0.
<mgrwt>
<rscale>  0 0.13411433E+03</rscale>
<asrwt>0</asrwt>
<pdfrwt beam="2">  1        2 0.19563416E-01 0.14646133E+03</pdfrwt>
<pdfrwt beam="1">  1       -2 0.19352548E-01 0.14646133E+03</pdfrwt>
<totfact> 0.60528936E+03</totfact>
</mgrwt>
</event>
<event>
 8    2  0.1628804E-003  0.1467109E+03  0.7818608E-02  0.1213467E+00
         -2   -1    0    0    0  501 -0.00000000000E+00  0.00000000000E+00  0.20294425746E+02  0.20294425906E+02  0.25500000000E-02 0. -1.
          2   -1    0    0  501    0  0.00000000000E+00 -0.00000000000E+00 -0.94271030185E+03  0.94271030186E+03  0.25500000000E-02 0.  1.
         25    2    1    2    0    0 -0.49409150939E+02  0.58818158987E+02 -0.62106916809E+03  0.63816221295E+03  0.12499303365E+03 0.  0.
         23    2    1    2    0    0  0.49409150939E+02 -0.58818158987E+02 -0.30134670802E+03  0.32484251481E+03  0.93872152281E+02 0.  0.
        -11    1    4    4    0    0  0.51029277843E+02 -0.60844402018E+02 -0.12256385781E+03  0.14604084256E+03  0.51100000000E-03 0. -1.
         11    1    4    4    0    0 -0.16201269037E+01  0.20262430315E+01 -0.17878285021E+03  0.17880167225E+03  0.51100000000E-03 0.  1.
    9000005    1    3    3    0    0  0.37152747051E+02  0.45866823624E+02 -0.26419648364E+03  0.27071179157E+03  0.10000000000E+01 0.  0.
    9000005    1    3    3    0    0 -0.86561897991E+02  0.12951335362E+02 -0.35687268445E+03  0.36745042138E+03  0.10000000000E+01 0.  0.
<mgrwt>
<rscale>  0 0.13989715E+03</rscale>
<asrwt>0</asrwt>
<pdfrwt beam="2">  1        2 0.14503232E+00 0.14671094E+03</pdfrwt>
<pdfrwt beam="1">  1       -2 0.31222201E-02 0.14671094E+03</pdfrwt>
<totfact> 0.10991801E+04</totfact>
</mgrwt>
</event>
<event>
 8    2  0.1628804E-003  0.1683079E+03  0.7818608E-02  0.1186746E+00
         -2   -1    0    0    0  501 -0.00000000000E+00  0.00000000000E+00  0.22983860390E+03  0.22983860392E+03  0.25500000000E-02 0.  1.
          2   -1    0    0  501    0  0.00000000000E+00 -0.00000000000E+00 -0.26963231658E+03  0.26963231659E+03  0.25500000000E-02 0. -1.
         25    2    1    2    0    0  0.11264987280E+03  0.38514648575E+01 -0.21495755254E+03  0.27300968849E+03  0.12499085163E+03 0.  0.
         23    2    1    2    0    0 -0.11264987280E+03 -0.38514648575E+01  0.17516383986E+03  0.22646123202E+03  0.88867829904E+02 0.  0.
        -11    1    4    4    0    0 -0.46657389839E+02  0.24943412774E+02  0.22154569502E+02  0.57357744180E+02  0.51100000000E-03 0.  1.
         11    1    4    4    0    0 -0.65992482962E+02 -0.28794877631E+02  0.15300927036E+03  0.16910348784E+03  0.51100000000E-03 0. -1.
    9000005    1    3    3    0    0  0.12576624625E+03 -0.17720870109E+02 -0.21257702897E+03  0.24763111916E+03  0.10000000000E+01 0.  0.
    9000005    1    3    3    0    0 -0.13116373454E+02  0.21572334967E+02 -0.23805235719E+01  0.25378569325E+02  0.10000000000E+01 0.  0.
<mgrwt>
<rscale>  0 0.16174015E+03</rscale>
<asrwt>0</asrwt>
<pdfrwt beam="2">  1        2 0.41481895E-01 0.16830787E+03</pdfrwt>
<pdfrwt beam="1">  1       -2 0.35359785E-01 0.16830787E+03</pdfrwt>
<totfact> 0.92053034E+02</totfact>
</mgrwt>
</event>
<event>
 8    2  0.1628804E-003  0.1560291E+03  0.7818608E-02  0.1200742E+00
         -2   -1    0    0    0  501 -0.00000000000E+00  0.00000000000E+00  0.22871310924E+02  0.22871311066E+02  0.25500000000E-02 0.  1.
          2   -1    0    0  501    0  0.00000000000E+00 -0.00000000000E+00 -0.10006995668E+04  0.10006995668E+04  0.25500000000E-02 0. -1.
         25    2    1    2    0    0 -0.41676262377E+02  0.83561809936E+02 -0.37153695101E+03  0.40296996268E+03  0.12500239171E+03 0.  0.
         23    2    1    2    0    0  0.41676262377E+02 -0.83561809936E+02 -0.60629130489E+03  0.62060091522E+03  0.94004588458E+02 0.  0.
        -11    1    4    4    0    0 -0.27839958647E+01 -0.63923528663E+02 -0.49553951293E+03  0.49965325679E+03  0.51100000000E-03 0. -1.
         11    1    4    4    0    0  0.44460258242E+02 -0.19638281274E+02 -0.11075179197E+03  0.12094765843E+03  0.51100000000E-03 0.  1.
    9000005    1    3    3    0    0 -0.11326964670E+02  0.29676582954E+02 -0.61314460666E+01  0.32366561995E+02  0.10000000000E+01 0.  0.
    9000005    1    3    3    0    0 -0.30349297707E+02  0.53885226982E+02 -0.36540550494E+03  0.37060340068E+03  0.10000000000E+01 0.  0.
<mgrwt>
<rscale>  0 0.14978162E+03</rscale>
<asrwt>0</asrwt>
<pdfrwt beam="2">  1        2 0.15395375E+00 0.15602912E+03</pdfrwt>
<pdfrwt beam="1">  1       -2 0.35186640E-02 0.15602912E+03</pdfrwt>
<totfact> 0.85190911E+03</totfact>
</mgrwt>
</event>
<event>
 8    2  0.1628804E-003  0.1964688E+03  0.7818608E-02  0.1157752E+00
         -2   -1    0    0    0  501 -0.00000000000E+00  0.00000000000E+00  0.94718060055E+03  0.94718060055E+03  0.25500000000E-02 0.  1.
          2   -1    0    0  501    0  0.00000000000E+00 -0.00000000000E+00 -0.37815078440E+02  0.37815078526E+02  0.25500000000E-02 0. -1.
         25    2    1    2    0    0  0.54905091889E+02 -0.14128435035E+03  0.57659302439E+03  0.60914655233E+03  0.12499667864E+03 0.  0.
         23    2    1    2    0    0 -0.54905091889E+02  0.14128435035E+03  0.33277249772E+03  0.37584912675E+03  0.86886098254E+02 0.  0.
        -11    1    4    4    0    0 -0.76149866038E+02  0.98207770960E+02  0.26598774452E+03  0.29358652661E+03  0.51100000000E-03 0.  1.
         11    1    4    4    0    0  0.21244774149E+02  0.43076579392E+02  0.66784753202E+02  0.82262600136E+02  0.51100000000E-03 0. -1.
    9000005    1    3    3    0    0  0.46258076866E+02  0.10257372742E+01  0.79283800457E+02  0.91802956528E+02  0.10000000000E+01 0.  0.
    9000005    1    3    3    0    0  0.86470150230E+01 -0.14231008763E+03  0.49730922393E+03  0.51734359580E+03  0.10000000000E+01 0.  0.
<mgrwt>
<rscale>  0 0.19078854E+03</rscale>
<asrwt>0</asrwt>
<pdfrwt beam="2">  1        2 0.58177042E-02 0.19646884E+03</pdfrwt>
<pdfrwt beam="1">  1       -2 0.14572010E+00 0.19646884E+03</pdfrwt>
<totfact> 0.43642580E+02</totfact>
</mgrwt>
</event>
<event>
 8    2  0.1628804E-003  0.1253424E+03  0.7818608E-02  0.1249878E+00
          2   -1    0    0  501    0  0.00000000000E+00  0.00000000000E+00  0.78358069729E+02  0.78358069771E+02  0.25500000000E-02 0.  1.
         -2   -1    0    0    0  501 -0.00000000000E+00 -0.00000000000E+00 -0.15651208875E+03  0.15651208877E+03  0.25500000000E-02 0. -1.
         25    2    1    2    0    0  0.60896168407E+01 -0.70302613293E+01 -0.67514725768E+02  0.14236908760E+03  0.12499684357E+03 0.  0.
         23    2    1    2    0    0 -0.60896168407E+01  0.70302613293E+01 -0.10639293249E+02  0.92501070934E+02  0.91415236999E+02 0.  0.
        -11    1    4    4    0    0 -0.33234715195E+02  0.58945493012E+01  0.28962182969E+02  0.44475836678E+02  0.51100000000E-03 0.  1.
         11    1    4    4    0    0  0.27145098355E+02  0.11357120281E+01 -0.39601476218E+02  0.48025234257E+02  0.51100000000E-03 0. -1.
    9000005    1    3    3    0    0  0.23914941324E+02  0.39641839939E+02 -0.78560154176E+02  0.91192640692E+02  0.10000000000E+01 0.  0.
    9000005    1    3    3    0    0 -0.17825324483E+02 -0.46672101268E+02  0.11045428408E+02  0.51176446911E+02  0.10000000000E+01 0.  0.
<mgrwt>
<rscale>  0 0.11598111E+03</rscale>
<asrwt>0</asrwt>
<pdfrwt beam="1">  1        2 0.12055088E-01 0.12534241E+03</pdfrwt>
<pdfrwt beam="2">  1       -2 0.24078783E-01 0.12534241E+03</pdfrwt>
<totfact> 0.72483165E+03</totfact>
</mgrwt>
</event>
<event>
 8    2  0.1628804E-003  0.2565101E+03  0.7818608E-02  0.1111475E+00
         -2   -1    0    0    0  501 -0.00000000000E+00  0.00000000000E+00  0.69250986066E+03  0.69250986067E+03  0.25500000000E-02 0.  1.
          2   -1    0    0  501    0  0.00000000000E+00 -0.00000000000E+00 -0.11230179931E+03  0.11230179934E+03  0.25500000000E-02 0. -1.
         25    2    1    2    0    0 -0.13012604442E+03 -0.18232213505E+03  0.47643850624E+03  0.54110170688E+03  0.12499303418E+03 0.  0.
         23    2    1    2    0    0  0.13012604442E+03  0.18232213505E+03  0.10376955510E+03  0.26370995312E+03  0.92739799676E+02 0.  0.
        -11    1    4    4    0    0  0.79897557535E+02  0.79491427214E+02  0.97616535699E+02  0.14910229624E+03  0.51100000000E-03 0.  1.
         11    1    4    4    0    0  0.50228486882E+02  0.10283070784E+03  0.61530194037E+01  0.11460765689E+03  0.51100000000E-03 0. -1.
    9000005    1    3    3    0    0 -0.53163621294E+02 -0.16912007436E+03  0.35337278088E+03  0.39534958258E+03  0.10000000000E+01 0.  0.
    9000005    1    3    3    0    0 -0.76962423124E+02 -0.13202060697E+02  0.12306572537E+03  0.14575212431E+03  0.10000000000E+01 0.  0.
<mgrwt>
<rscale>  0 0.25291652E+03</rscale>
<asrwt>0</asrwt>
<pdfrwt beam="2">  1        2 0.17277200E-01 0.25651005E+03</pdfrwt>
<pdfrwt beam="1">  1       -2 0.10653998E+00 0.25651005E+03</pdfrwt>
<totfact> 0.24415019E+02</totfact>
</mgrwt>
</event>
<event>
 8    2  0.1628804E-003  0.1415841E+03  0.7818608E-02  0.1222410E+00
         -2   -1    0    0    0  501 -0.00000000000E+00  0.00000000000E+00  0.30714408002E+02  0.30714408108E+02  0.25500000000E-02 0.  1.
          2   -1    0    0  501    0  0.00000000000E+00 -0.00000000000E+00 -0.54860122959E+03  0.54860122959E+03  0.25500000000E-02 0. -1.
         25    2    1    2    0    0 -0.29521507171E+01  0.66409081098E+02 -0.35071750615E+03  0.37821797661E+03  0.12500874954E+03 0.  0.
         23    2    1    2    0    0  0.29521507171E+01 -0.66409081098E+02 -0.16716931543E+03  0.20109766109E+03  0.89865499659E+02 0.  0.
        -11    1    4    4    0    0 -0.11221193979E+02  0.20035068355E+02 -0.47856135602E+02  0.53080400087E+02  0.51100000000E-03 0. -1.
         11    1    4    4    0    0  0.14173344697E+02 -0.86444149453E+02 -0.11931317983E+03  0.14801726101E+03  0.51100000000E-03 0.  1.
    9000005    1    3    3    0    0  0.39178684181E+02  0.62670342491E+02 -0.10222031193E+03  0.12614489008E+03  0.10000000000E+01 0.  0.
    9000005    1    3    3    0    0 -0.42130834899E+02  0.37387386069E+01 -0.24849719422E+03  0.25207308653E+03  0.10000000000E+01 0.  0.
<mgrwt>
<rscale>  0 0.13346016E+03</rscale>
<asrwt>0</asrwt>
<pdfrwt beam="2">  1        2 0.84400182E-01 0.14158414E+03</pdfrwt>
<pdfrwt beam="1">  1       -2 0.47252940E-02 0.14158414E+03</pdfrwt>
<totfact> 0.11404642E+04</totfact>
</mgrwt>
</event>
<event>
 8    2  0.1628804E-003  0.1757592E+03  0.7818608E-02  0.1177961E+00
          2   -1    0    0  501    0  0.00000000000E+00  0.00000000000E+00  0.27155135931E+02  0.27155136051E+02  0.25500000000E-02 0. -1.
         -2   -1    0    0    0  501 -0.00000000000E+00 -0.00000000000E+00 -0.10683563511E+04  0.10683563511E+04  0.25500000000E-02 0.  1.
         25    2    1    2    0    0 -0.15464951297E+02 -0.12257252157E+03 -0.69413880585E+03  0.71604467658E+03  0.12501243662E+03 0.  0.
         23    2    1    2    0    0  0.15464951297E+02  0.12257252157E+03 -0.34706240933E+03  0.37946681058E+03  0.90992068910E+02 0.  0.
        -11    1    4    4    0    0  0.37755263327E+02  0.30388313648E+02 -0.59918829434E+02  0.77066047234E+02  0.51100000000E-03 0. -1.
         11    1    4    4    0    0 -0.22290312030E+02  0.92184207918E+02 -0.28714357989E+03  0.30240076335E+03  0.51100000000E-03 0.  1.
    9000005    1    3    3    0    0  0.30806827195E+02 -0.34064256160E+02 -0.68467139960E+02  0.82451097045E+02  0.10000000000E+01 0.  0.
    9000005    1    3    3    0    0 -0.46271778492E+02 -0.88508265405E+02 -0.62567166589E+03  0.63359357953E+03  0.10000000000E+01 0.  0.
<mgrwt>
<rscale>  0 0.16989112E+03</rscale>
<asrwt>0</asrwt>
<pdfrwt beam="1">  1        2 0.41777140E-02 0.17575920E+03</pdfrwt>
<pdfrwt beam="2">  1       -2 0.16436248E+00 0.17575920E+03</pdfrwt>
<totfact> 0.49227122E+02</totfact>
</mgrwt>
</event>
<event>
 8    2  0.1628804E-003  0.1278147E+03  0.7818608E-02  0.1244871E+00
         -2   -1    0    0    0  501 -0.00000000000E+00  0.00000000000E+00  0.85717286932E+01  0.85717290725E+01  0.25500000000E-02 0.  1.
          2   -1    0    0  501    0  0.00000000000E+00 -0.00000000000E+00 -0.15073691762E+04  0.15073691762E+04  0.25500000000E-02 0. -1.
         25    2    1    2    0    0  0.40324305846E+01  0.26373306257E+02 -0.71817619050E+03  0.72946119586E+03  0.12499913551E+03 0.  0.
         23    2    1    2    0    0 -0.40324305846E+01 -0.26373306257E+02 -0.78062125696E+03  0.78647970937E+03  0.92027032207E+02 0.  0.
        -11    1    4    4    0    0 -0.40411485207E+02  0.10495440070E+02 -0.26576450871E+03  0.26902419313E+03  0.51100000000E-03 0.  1.
         11    1    4    4    0    0  0.36379054623E+02 -0.36868746327E+02 -0.51485674825E+03  0.51745551624E+03  0.51100000000E-03 0. -1.
    9000005    1    3    3    0    0  0.94815305403E+01  0.10195195458E+02 -0.71063453657E+03  0.71077161311E+03  0.10000000000E+01 0.  0.
    9000005    1    3    3    0    0 -0.54490999557E+01  0.16178110799E+02 -0.75416539303E+01  0.18689582750E+02  0.10000000000E+01 0.  0.
<mgrwt>
<rscale>  0 0.11893114E+03</rscale>
<asrwt>0</asrwt>
<pdfrwt beam="2">  1        2 0.23190274E+00 0.12781469E+03</pdfrwt>
<pdfrwt beam="1">  1       -2 0.13187287E-02 0.12781469E+03</pdfrwt>
<totfact> 0.18531467E+04</totfact>
</mgrwt>
</event>
<event>
 8    2  0.1628804E-003  0.1771654E+03  0.7818608E-02  0.1175875E+00
          2   -1    0    0  501    0  0.00000000000E+00  0.00000000000E+00  0.17040651586E+04  0.17040651586E+04  0.25500000000E-02 0. -1.
         -2   -1    0    0    0  501 -0.00000000000E+00 -0.00000000000E+00 -0.16387127668E+02  0.16387127866E+02  0.25500000000E-02 0.  1.
         25    2    1    2    0    0  0.12468516784E+03  0.14728469230E+02  0.89090360113E+03  0.90834840338E+03  0.12499710608E+03 0.  0.
         23    2    1    2    0    0 -0.12468516784E+03 -0.14728469230E+02  0.79677442977E+03  0.81210388306E+03  0.94339313418E+02 0.  0.
        -11    1    4    4    0    0 -0.54459655069E+02 -0.27955189812E+02  0.59322378887E+03  0.59637388470E+03  0.51100000000E-03 0. -1.
         11    1    4    4    0    0 -0.70225512770E+02  0.13226720582E+02  0.20355064090E+03  0.21572999836E+03  0.51100000000E-03 0.  1.
    9000005    1    3    3    0    0  0.12805763227E+01 -0.37777773861E+02  0.11846014279E+03  0.12434872538E+03  0.10000000000E+01 0.  0.
    9000005    1    3    3    0    0  0.12340459152E+03  0.52506243091E+02  0.77244345834E+03  0.78399967800E+03  0.10000000000E+01 0.  0.
<mgrwt>
<rscale>  0 0.17190579E+03</rscale>
<asrwt>0</asrwt>
<pdfrwt beam="1">  1        2 0.26216385E+00 0.17716545E+03</pdfrwt>
<pdfrwt beam="2">  1       -2 0.25210967E-02 0.17716545E+03</pdfrwt>
<totfact> 0.57909494E+03</totfact>
</mgrwt>
</event>
<event>
 8    2  0.1628804E-003  0.1302872E+03  0.7818608E-02  0.1240484E+00
          2   -1    0    0  501    0  0.00000000000E+00  0.00000000000E+00  0.45807076337E+03  0.45807076338E+03  0.25500000000E-02 0. -1.
         -2   -1    0    0    0  501 -0.00000000000E+00 -0.00000000000E+00 -0.29085309752E+02  0.29085309864E+02  0.25500000000E-02 0.  1.
         25    2    1    2    0    0 -0.30731858131E+02  0.20122685163E+02  0.21416812303E+03  0.25068454235E+03  0.12500154113E+03 0.  0.
         23    2    1    2    0    0  0.30731858131E+02 -0.20122685163E+02  0.21481733058E+03  0.23647153089E+03  0.91776521188E+02 0.  0.
        -11    1    4    4    0    0  0.45530335660E+02  0.21591151873E+02  0.14783141496E+03  0.15618359886E+03  0.51100000000E-03 0.  1.
         11    1    4    4    0    0 -0.14798477529E+02 -0.41713837036E+02  0.66985915627E+02  0.80287932033E+02  0.51100000000E-03 0. -1.
    9000005    1    3    3    0    0 -0.28131491056E+02  0.39942198123E+02  0.22337270230E+03  0.22865503299E+03  0.10000000000E+01 0.  0.
    9000005    1    3    3    0    0 -0.26003670750E+01 -0.19819512960E+02 -0.92045792669E+01  0.22029509354E+02  0.10000000000E+01 0.  0.
<mgrwt>
<rscale>  0 0.12159785E+03</rscale>
<asrwt>0</asrwt>
<pdfrwt beam="1">  1        2 0.70472422E-01 0.13028720E+03</pdfrwt>
<pdfrwt beam="2">  1       -2 0.44746632E-02 0.13028720E+03</pdfrwt>
<totfact> 0.14991743E+04</totfact>
</mgrwt>
</event>
<event>
 8    2  0.1628804E-003  0.1283559E+03  0.7818608E-02  0.1244885E+00
          2   -1    0    0  501    0  0.00000000000E+00  0.00000000000E+00  0.80206528092E+02  0.80206528133E+02  0.25500000000E-02 0. -1.
         -2   -1    0    0    0  501 -0.00000000000E+00 -0.00000000000E+00 -0.19175046958E+03  0.19175046960E+03  0.25500000000E-02 0.  1.
         25    2    1    2    0    0  0.54624475974E+01  0.28649556510E+02 -0.12163975985E+03  0.17683743998E+03  0.12499845431E+03 0.  0.
         23    2    1    2    0    0 -0.54624475974E+01 -0.28649556510E+02  0.10095818364E+02  0.95119557752E+02  0.89973158756E+02 0.  0.
        -11    1    4    4    0    0  0.18450776484E+02  0.18941972532E+02  0.28396189102E+02  0.38801714292E+02  0.51100000000E-03 0. -1.
         11    1    4    4    0    0 -0.23913224081E+02 -0.47591529042E+02 -0.18300370738E+02  0.56317843460E+02  0.51100000000E-03 0.  1.
    9000005    1    3    3    0    0  0.23490964110E+02  0.68684425335E+02 -0.37001410334E+02  0.81483004640E+02  0.10000000000E+01 0.  0.
    9000005    1    3    3    0    0 -0.18028516513E+02 -0.40034868825E+02 -0.84638349516E+02  0.95354435337E+02  0.10000000000E+01 0.  0.
<mgrwt>
<rscale>  0 0.11892261E+03</rscale>
<asrwt>0</asrwt>
<pdfrwt beam="1">  1        2 0.12339466E-01 0.12835595E+03</pdfrwt>
<pdfrwt beam="2">  1       -2 0.29500072E-01 0.12835595E+03</pdfrwt>
<totfact> 0.49379835E+03</totfact>
</mgrwt>
</event>
<event>
 8    2  0.1628804E-003  0.1344544E+03  0.7818608E-02  0.1232441E+00
          2   -1    0    0  501    0  0.00000000000E+00  0.00000000000E+00  0.91539421797E+03  0.91539421797E+03  0.25500000000E-02 0. -1.
         -2   -1    0    0    0  501 -0.00000000000E+00 -0.00000000000E+00 -0.15921947820E+02  0.15921948024E+02  0.25500000000E-02 0.  1.
         25    2    1    2    0    0  0.46217032161E+02  0.17822434219E+02  0.46067914795E+03  0.47989923537E+03  0.12499738207E+03 0.  0.
         23    2    1    2    0    0 -0.46217032161E+02 -0.17822434219E+02  0.43879312219E+03  0.45141693063E+03  0.93723998793E+02 0.  0.
        -11    1    4    4    0    0 -0.74724719037E+02 -0.19640977088E+02  0.33169355815E+03  0.34057329334E+03  0.51100000000E-03 0.  1.
         11    1    4    4    0    0  0.28507686876E+02  0.18185428698E+01  0.10709956404E+03  0.11084363728E+03  0.51100000000E-03 0. -1.
    9000005    1    3    3    0    0  0.25149279564E+02 -0.50717993047E+02  0.13453102016E+03  0.14596025647E+03  0.10000000000E+01 0.  0.
    9000005    1    3    3    0    0  0.21067752597E+02  0.68540427265E+02  0.32614812779E+03  0.33393897890E+03  0.10000000000E+01 0.  0.
<mgrwt>
<rscale>  0 0.12669712E+03</rscale>
<asrwt>0</asrwt>
<pdfrwt beam="1">  1        2 0.14082987E+00 0.13445445E+03</pdfrwt>
<pdfrwt beam="2">  1       -2 0.24495307E-02 0.13445445E+03</pdfrwt>
<totfact> 0.16226609E+04</totfact>
</mgrwt>
</event>
<event>
 8    2  0.1628804E-003  0.1346779E+03  0.7818608E-02  0.1234579E+00
          2   -1    0    0  501    0  0.00000000000E+00  0.00000000000E+00  0.96258866439E+03  0.96258866439E+03  0.25500000000E-02 0. -1.
         -2   -1    0    0    0  501 -0.00000000000E+00 -0.00000000000E+00 -0.15208104608E+02  0.15208104822E+02  0.25500000000E-02 0.  1.
         25    2    1    2    0    0  0.29705216430E+02  0.40377790169E+02  0.42774989191E+03  0.44845079078E+03  0.12500150362E+03 0.  0.
         23    2    1    2    0    0 -0.29705216430E+02 -0.40377790169E+02  0.51963066788E+03  0.52934597843E+03  0.87626297782E+02 0.  0.
        -11    1    4    4    0    0  0.17136242118E+02 -0.44241403581E+02  0.16740276592E+03  0.17399608795E+03  0.51100000000E-03 0. -1.
         11    1    4    4    0    0 -0.46841458548E+02  0.38636134121E+01  0.35222790196E+03  0.35534989048E+03  0.51100000000E-03 0.  1.
    9000005    1    3    3    0    0 -0.35665701754E+02  0.55901844876E+02  0.24190350167E+03  0.25082934968E+03  0.10000000000E+01 0.  0.
    9000005    1    3    3    0    0  0.65370918184E+02 -0.15524054707E+02  0.18584639024E+03  0.19762144110E+03  0.10000000000E+01 0.  0.
<mgrwt>
<rscale>  0 0.12531415E+03</rscale>
<asrwt>0</asrwt>
<pdfrwt beam="1">  1        2 0.14809055E+00 0.13467792E+03</pdfrwt>
<pdfrwt beam="2">  1       -2 0.23397087E-02 0.13467792E+03</pdfrwt>
<totfact> 0.16227543E+04</totfact>
</mgrwt>
</event>
<event>
 8    2  0.1628804E-003  0.1334744E+03  0.7818608E-02  0.1233551E+00
          2   -1    0    0  501    0  0.00000000000E+00  0.00000000000E+00  0.29401793468E+03  0.29401793469E+03  0.25500000000E-02 0. -1.
         -2   -1    0    0    0  501 -0.00000000000E+00 -0.00000000000E+00 -0.48772325167E+02  0.48772325234E+02  0.25500000000E-02 0.  1.
         25    2    1    2    0    0  0.37708380861E+02  0.27719850960E+02  0.14185365538E+03  0.19477647806E+03  0.12500041893E+03 0.  0.
         23    2    1    2    0    0 -0.37708380861E+02 -0.27719850960E+02  0.10339195412E+03  0.14801378187E+03  0.95015111010E+02 0.  0.
        -11    1    4    4    0    0  0.14862547759E+02 -0.47427335032E+02  0.51256091069E+02  0.71396318575E+02  0.51100000000E-03 0. -1.
         11    1    4    4    0    0 -0.52570928620E+02  0.19707484072E+02  0.52135863055E+02  0.76617463291E+02  0.51100000000E-03 0.  1.
    9000005    1    3    3    0    0 -0.41578210864E+02  0.13130648249E+02  0.86824001331E+02  0.97162589247E+02  0.10000000000E+01 0.  0.
    9000005    1    3    3    0    0  0.79286591724E+02  0.14589202711E+02  0.55029654054E+02  0.97613888808E+02  0.10000000000E+01 0.  0.
<mgrwt>
<rscale>  0 0.12597629E+03</rscale>
<asrwt>0</asrwt>
<pdfrwt beam="1">  1        2 0.45233529E-01 0.13347441E+03</pdfrwt>
<pdfrwt beam="2">  1       -2 0.75034345E-02 0.13347441E+03</pdfrwt>
<totfact> 0.11020398E+04</totfact>
</mgrwt>
</event>
<event>
 8    2  0.1628804E-003  0.1397017E+03  0.7818608E-02  0.1223899E+00
         -2   -1    0    0    0  501 -0.00000000000E+00  0.00000000000E+00  0.15302777605E+03  0.15302777607E+03  0.25500000000E-02 0.  1.
          2   -1    0    0  501    0  0.00000000000E+00 -0.00000000000E+00 -0.11277979989E+03  0.11277979992E+03  0.25500000000E-02 0. -1.
         25    2    1    2    0    0 -0.22556635479E+02  0.58161379413E+02  0.58660372084E+02  0.15151771196E+03  0.12500011970E+03 0.  0.
         23    2    1    2    0    0  0.22556635479E+02 -0.58161379413E+02 -0.18412395928E+02  0.11428986403E+03  0.93976639848E+02 0.  0.
        -11    1    4    4    0    0 -0.29710386561E+02  0.41843304412E+01 -0.13164450861E+02  0.32764591521E+02  0.51100000000E-03 0. -1.
         11    1    4    4    0    0  0.52267022040E+02 -0.62345709855E+02 -0.52479450667E+01  0.81525272510E+02  0.51100000000E-03 0.  1.
    9000005    1    3    3    0    0 -0.17907544350E+02  0.92438175136E+02  0.67433498866E+02  0.11581784464E+03  0.10000000000E+01 0.  0.
    9000005    1    3    3    0    0 -0.46490911290E+01 -0.34276795723E+02 -0.87731267825E+01  0.35699867323E+02  0.10000000000E+01 0.  0.
<mgrwt>
<rscale>  0 0.13242675E+03</rscale>
<asrwt>0</asrwt>
<pdfrwt beam="2">  1        2 0.17350738E-01 0.13970175E+03</pdfrwt>
<pdfrwt beam="1">  1       -2 0.23542735E-01 0.13970175E+03</pdfrwt>
<totfact> 0.49515225E+03</totfact>
</mgrwt>
</event>
<event>
 8    2  0.1628804E-003  0.2061731E+03  0.7818608E-02  0.1148329E+00
          2   -1    0    0  501    0  0.00000000000E+00  0.00000000000E+00  0.11130464968E+03  0.11130464971E+03  0.25500000000E-02 0. -1.
         -2   -1    0    0    0  501 -0.00000000000E+00 -0.00000000000E+00 -0.46800970694E+03  0.46800970695E+03  0.25500000000E-02 0.  1.
         25    2    1    2    0    0 -0.11769706313E+03  0.11415331131E+03 -0.39112583757E+02  0.20985027883E+03  0.12499507255E+03 0.  0.
         23    2    1    2    0    0  0.11769706313E+03 -0.11415331131E+03 -0.31759247350E+03  0.36946407783E+03  0.93568950138E+02 0.  0.
        -11    1    4    4    0    0  0.10307779254E+03 -0.43512780322E+02 -0.23168208247E+03  0.25728385240E+03  0.51100000000E-03 0.  1.
         11    1    4    4    0    0  0.14619270597E+02 -0.70640530992E+02 -0.85910391027E+02  0.11218022543E+03  0.51100000000E-03 0. -1.
    9000005    1    3    3    0    0 -0.22239279950E+02 -0.98930299778E+01  0.30083914216E+02  0.38710457365E+02  0.10000000000E+01 0.  0.
    9000005    1    3    3    0    0 -0.95457783182E+02  0.12404634129E+03 -0.69196497973E+02  0.17113982146E+03  0.10000000000E+01 0.  0.
<mgrwt>
<rscale>  0 0.20168066E+03</rscale>
<asrwt>0</asrwt>
<pdfrwt beam="1">  1        2 0.17123793E-01 0.20617310E+03</pdfrwt>
<pdfrwt beam="2">  1       -2 0.72001492E-01 0.20617310E+03</pdfrwt>
<totfact> 0.59589025E+02</totfact>
</mgrwt>
</event>
<event>
 8    2  0.1628804E-003  0.1571989E+03  0.7818608E-02  0.1200833E+00
          2   -1    0    0  501    0  0.00000000000E+00  0.00000000000E+00  0.27782457689E+04  0.27782457689E+04  0.25500000000E-02 0.  1.
         -2   -1    0    0    0  501 -0.00000000000E+00 -0.00000000000E+00 -0.74027254652E+01  0.74027259044E+01  0.25500000000E-02 0. -1.
         25    2    1    2    0    0  0.70946842849E+02  0.63679292598E+02  0.14550011710E+04  0.14634684461E+04  0.12499191302E+03 0.  0.
         23    2    1    2    0    0 -0.70946842849E+02 -0.63679292598E+02  0.13158418724E+04  0.13221800486E+04  0.87359836942E+02 0.  0.
        -11    1    4    4    0    0 -0.57629465458E+02 -0.66918471402E+02  0.12891834749E+04  0.12922048093E+04  0.51100000000E-03 0.  1.
         11    1    4    4    0    0 -0.13317377391E+02  0.32391788039E+01  0.26658397451E+02  0.29975239362E+02  0.51100000000E-03 0. -1.
    9000005    1    3    3    0    0  0.13388449714E+02  0.57875790758E+02  0.24559897538E+03  0.25268303159E+03  0.10000000000E+01 0.  0.
    9000005    1    3    3    0    0  0.57558393135E+02  0.58035018398E+01  0.12094021957E+04  0.12107854146E+04  0.10000000000E+01 0.  0.
<mgrwt>
<rscale>  0 0.14970710E+03</rscale>
<asrwt>0</asrwt>
<pdfrwt beam="1">  1        2 0.42742195E+00 0.15719887E+03</pdfrwt>
<pdfrwt beam="2">  1       -2 0.11388821E-02 0.15719887E+03</pdfrwt>
<totfact> 0.49675239E+03</totfact>
</mgrwt>
</event>
<event>
 8    2  0.1628804E-003  0.1600001E+03  0.7818608E-02  0.1196704E+00
         -2   -1    0    0    0  501 -0.00000000000E+00  0.00000000000E+00  0.10783760649E+03  0.10783760652E+03  0.25500000000E-02 0.  1.
          2   -1    0    0  501    0  0.00000000000E+00 -0.00000000000E+00 -0.20099502938E+03  0.20099502939E+03  0.25500000000E-02 0. -1.
         25    2    1    2    0    0  0.99873786469E+02  0.22656352516E+00 -0.57380711127E+02  0.16997820301E+03  0.12500087573E+03 0.  0.
         23    2    1    2    0    0 -0.99873786469E+02 -0.22656352516E+00 -0.35776711756E+02  0.13885443291E+03  0.89586583150E+02 0.  0.
        -11    1    4    4    0    0 -0.11611157049E+03  0.28157892447E+01 -0.37957398740E+02  0.12219079176E+03  0.51100000000E-03 0.  1.
         11    1    4    4    0    0  0.16237784025E+02 -0.30423527699E+01  0.21806869848E+01  0.16663641151E+02  0.51100000000E-03 0. -1.
    9000005    1    3    3    0    0  0.57095813309E+02 -0.14446189112E+02  0.34001543050E+02  0.68012713569E+02  0.10000000000E+01 0.  0.
    9000005    1    3    3    0    0  0.42777973160E+02  0.14672752637E+02 -0.91382254177E+02  0.10196548944E+03  0.10000000000E+01 0.  0.
<mgrwt>
<rscale>  0 0.15310913E+03</rscale>
<asrwt>0</asrwt>
<pdfrwt beam="2">  1        2 0.30922312E-01 0.16000014E+03</pdfrwt>
<pdfrwt beam="1">  1       -2 0.16590401E-01 0.16000014E+03</pdfrwt>
<totfact> 0.47387256E+03</totfact>
</mgrwt>
</event>
<event>
 8    2  0.1628804E-003  0.1298114E+03  0.7818608E-02  0.1241816E+00
         -2   -1    0    0    0  501 -0.00000000000E+00  0.00000000000E+00  0.10865159358E+02  0.10865159657E+02  0.25500000000E-02 0.  1.
          2   -1    0    0  501    0  0.00000000000E+00 -0.00000000000E+00 -0.13221141104E+04  0.13221141104E+04  0.25500000000E-02 0. -1.
         25    2    1    2    0    0  0.34471498990E+02 -0.63413052617E+01 -0.95129319448E+03  0.96010923685E+03  0.12499003330E+03 0.  0.
         23    2    1    2    0    0 -0.34471498990E+02  0.63413052617E+01 -0.35995575654E+03  0.37287003319E+03  0.90749207091E+02 0.  0.
        -11    1    4    4    0    0 -0.40759260854E+02 -0.11945843060E+02 -0.67339629354E+02  0.79615615262E+02  0.51100000000E-03 0.  1.
         11    1    4    4    0    0  0.62877618638E+01  0.18287148322E+02 -0.29261612718E+03  0.29325441792E+03  0.51100000000E-03 0. -1.
    9000005    1    3    3    0    0  0.72875215550E+02  0.18156386292E+02 -0.40399674758E+03  0.41091948538E+03  0.10000000000E+01 0.  0.
    9000005    1    3    3    0    0 -0.38403716560E+02 -0.24497691554E+02 -0.54729644689E+03  0.54918975147E+03  0.10000000000E+01 0.  0.
<mgrwt>
<rscale>  0 0.12077958E+03</rscale>
<asrwt>0</asrwt>
<pdfrwt beam="2">  1        2 0.20340204E+00 0.12981142E+03</pdfrwt>
<pdfrwt beam="1">  1       -2 0.16715640E-02 0.12981142E+03</pdfrwt>
<totfact> 0.16503687E+04</totfact>
</mgrwt>
</event>
<event>
 8    2  0.1628804E-003  0.1451286E+03  0.7818608E-02  0.1216207E+00
          2   -1    0    0  501    0  0.00000000000E+00  0.00000000000E+00  0.13251589811E+04  0.13251589811E+04  0.25500000000E-02 0. -1.
         -2   -1    0    0    0  501 -0.00000000000E+00 -0.00000000000E+00 -0.13835011555E+02  0.13835011790E+02  0.25500000000E-02 0.  1.
         25    2    1    2    0    0  0.68388381044E+02 -0.27559522594E+02  0.56396620360E+03  0.58234026498E+03  0.12500322981E+03 0.  0.
         23    2    1    2    0    0 -0.68388381044E+02  0.27559522594E+02  0.74735776589E+03  0.75665372786E+03  0.92437739590E+02 0.  0.
        -11    1    4    4    0    0 -0.37292752051E+02  0.25559026252E+02  0.11557710617E+03  0.12410511935E+03  0.51100000000E-03 0.  1.
         11    1    4    4    0    0 -0.31095628993E+02  0.20004963416E+01  0.63178065973E+03  0.63254860852E+03  0.51100000000E-03 0. -1.
    9000005    1    3    3    0    0  0.87394001073E+02 -0.36221870010E+02  0.54779897187E+03  0.55590866954E+03  0.10000000000E+01 0.  0.
    9000005    1    3    3    0    0 -0.19005620029E+02  0.86623474156E+01  0.16167231729E+02  0.26431595434E+02  0.10000000000E+01 0.  0.
<mgrwt>
<rscale>  0 0.13788210E+03</rscale>
<asrwt>0</asrwt>
<pdfrwt beam="1">  1        2 0.20387063E+00 0.14512858E+03</pdfrwt>
<pdfrwt beam="2">  1       -2 0.21284631E-02 0.14512858E+03</pdfrwt>
<totfact> 0.11652767E+04</totfact>
</mgrwt>
</event>
<event>
 8    2  0.1628804E-003  0.1280687E+03  0.7818608E-02  0.1245508E+00
          2   -1    0    0  501    0  0.00000000000E+00  0.00000000000E+00  0.44107704679E+03  0.44107704680E+03  0.25500000000E-02 0. -1.
         -2   -1    0    0    0  501 -0.00000000000E+00 -0.00000000000E+00 -0.29148127465E+02  0.29148127577E+02  0.25500000000E-02 0.  1.
         25    2    1    2    0    0 -0.91648694430E+01 -0.26341585931E+02  0.18930054514E+03  0.22855256900E+03  0.12499482560E+03 0.  0.
         23    2    1    2    0    0  0.91648694430E+01  0.26341585931E+02  0.22262837419E+03  0.24167260537E+03  0.89801899833E+02 0.  0.
        -11    1    4    4    0    0 -0.73150395832E+01  0.57272471220E+02  0.11877390425E+03  0.13206394699E+03  0.51100000000E-03 0. -1.
         11    1    4    4    0    0  0.16479909026E+02 -0.30930885289E+02  0.10385446994E+03  0.10960865838E+03  0.51100000000E-03 0.  1.
    9000005    1    3    3    0    0  0.52132163614E+02  0.10209379924E+02  0.10803600296E+03  0.12039423515E+03  0.10000000000E+01 0.  0.
    9000005    1    3    3    0    0 -0.61297033057E+02 -0.36550965855E+02  0.81264542183E+02  0.10815833386E+03  0.10000000000E+01 0.  0.
<mgrwt>
<rscale>  0 0.11855026E+03</rscale>
<asrwt>0</asrwt>
<pdfrwt beam="1">  1        2 0.67858006E-01 0.12806866E+03</pdfrwt>
<pdfrwt beam="2">  1       -2 0.44843274E-02 0.12806866E+03</pdfrwt>
<totfact> 0.15543773E+04</totfact>
</mgrwt>
</event>
<event>
 8    2  0.1628804E-003  0.1262858E+03  0.7818608E-02  0.1248532E+00
         -2   -1    0    0    0  501 -0.00000000000E+00  0.00000000000E+00  0.13550538247E+02  0.13550538487E+02  0.25500000000E-02 0.  1.
          2   -1    0    0  501    0  0.00000000000E+00 -0.00000000000E+00 -0.10267903648E+04  0.10267903648E+04  0.25500000000E-02 0. -1.
         25    2    1    2    0    0 -0.17940257676E+02  0.72643586374E+00 -0.76789980412E+03  0.77821476648E+03  0.12500293216E+03 0.  0.
         23    2    1    2    0    0  0.17940257676E+02 -0.72643586374E+00 -0.24534002238E+03  0.26212613676E+03  0.90531786874E+02 0.  0.
        -11    1    4    4    0    0 -0.23590052704E+02 -0.13859586910E+02 -0.18870653253E+03  0.19067966372E+03  0.51100000000E-03 0. -1.
         11    1    4    4    0    0  0.41530310380E+02  0.13133151046E+02 -0.56633489850E+02  0.71446473037E+02  0.51100000000E-03 0.  1.
    9000005    1    3    3    0    0  0.31382334182E+02  0.54349012950E+01 -0.54770146222E+02  0.63365274149E+02  0.10000000000E+01 0.  0.
    9000005    1    3    3    0    0 -0.49322591858E+02 -0.47084654312E+01 -0.71312965790E+03  0.71484949233E+03  0.10000000000E+01 0.  0.
<mgrwt>
<rscale>  0 0.11676445E+03</rscale>
<asrwt>0</asrwt>
<pdfrwt beam="2">  1        2 0.15796769E+00 0.12628584E+03</pdfrwt>
<pdfrwt beam="1">  1       -2 0.20846990E-02 0.12628584E+03</pdfrwt>
<totfact> 0.17490298E+04</totfact>
</mgrwt>
</event>
<event>
 8    2  0.1628804E-003  0.1413829E+03  0.7818608E-02  0.1224280E+00
         -2   -1    0    0    0  501 -0.00000000000E+00  0.00000000000E+00  0.20139846579E+02  0.20139846740E+02  0.25500000000E-02 0.  1.
          2   -1    0    0  501    0  0.00000000000E+00 -0.00000000000E+00 -0.81399879139E+03  0.81399879140E+03  0.25500000000E-02 0. -1.
         25    2    1    2    0    0  0.35026638463E+02  0.56056091422E+02 -0.35317110384E+03  0.38041945267E+03  0.12497992078E+03 0.  0.
         23    2    1    2    0    0 -0.35026638463E+02 -0.56056091422E+02 -0.44068784098E+03  0.45371918547E+03  0.85359096093E+02 0.  0.
        -11    1    4    4    0    0 -0.43016990265E+01 -0.60739402326E+02 -0.38636481223E+03  0.39113366991E+03  0.51100000000E-03 0. -1.
         11    1    4    4    0    0 -0.30724939437E+02  0.46833109042E+01 -0.54323028750E+02  0.62585515554E+02  0.51100000000E-03 0.  1.
    9000005    1    3    3    0    0 -0.17022085389E+02 -0.78908402988E+00 -0.25515542052E+03  0.25572575675E+03  0.10000000000E+01 0.  0.
    9000005    1    3    3    0    0  0.52048723852E+02  0.56845175452E+02 -0.98015683317E+02  0.12469369592E+03  0.10000000000E+01 0.  0.
<mgrwt>
<rscale>  0 0.13216403E+03</rscale>
<asrwt>0</asrwt>
<pdfrwt beam="2">  1        2 0.12523056E+00 0.14138292E+03</pdfrwt>
<pdfrwt beam="1">  1       -2 0.30984386E-02 0.14138292E+03</pdfrwt>
<totfact> 0.13413609E+04</totfact>
</mgrwt>
</event>
<event>
 8    2  0.1628804E-003  0.1325276E+03  0.7818608E-02  0.1233167E+00
          2   -1    0    0  501    0  0.00000000000E+00  0.00000000000E+00  0.88499635888E+03  0.88499635889E+03  0.25500000000E-02 0.  1.
         -2   -1    0    0    0  501 -0.00000000000E+00 -0.00000000000E+00 -0.33635631959E+02  0.33635632056E+02  0.25500000000E-02 0. -1.
         25    2    1    2    0    0 -0.21903261829E+02  0.38205303654E+02  0.77315190782E+03  0.78442810267E+03  0.12499671029E+03 0.  0.
         23    2    1    2    0    0  0.21903261829E+02 -0.38205303654E+02  0.78208819105E+02  0.13420388828E+03  0.99773073205E+02 0.  0.
        -11    1    4    4    0    0  0.33384389726E+01 -0.10380540475E+01 -0.23801969514E+02  0.24057358209E+02  0.51100000000E-03 0. -1.
         11    1    4    4    0    0  0.18564822856E+02 -0.37167249606E+02  0.10201078862E+03  0.11014653007E+03  0.51100000000E-03 0.  1.
    9000005    1    3    3    0    0  0.43708868509E+01  0.14382266810E+02  0.56239734346E+01  0.16080526349E+02  0.10000000000E+01 0.  0.
    9000005    1    3    3    0    0 -0.26274148680E+02  0.23823036844E+02  0.76752793438E+03  0.76834757632E+03  0.10000000000E+01 0.  0.
<mgrwt>
<rscale>  0 0.12622522E+03</rscale>
<asrwt>0</asrwt>
<pdfrwt beam="1">  1        2 0.13615329E+00 0.13252764E+03</pdfrwt>
<pdfrwt beam="2">  1       -2 0.51747124E-02 0.13252764E+03</pdfrwt>
<totfact> 0.56042091E+03</totfact>
</mgrwt>
</event>
<event>
 8    2  0.1628804E-003  0.1694764E+03  0.7818608E-02  0.1184809E+00
         -2   -1    0    0    0  501 -0.00000000000E+00  0.00000000000E+00  0.18602852370E+02  0.18602852545E+02  0.25500000000E-02 0.  1.
          2   -1    0    0  501    0  0.00000000000E+00 -0.00000000000E+00 -0.13854720309E+04  0.13854720309E+04  0.25500000000E-02 0. -1.
         25    2    1    2    0    0 -0.33976077924E+02  0.10924890962E+03 -0.61002242441E+03  0.63312685327E+03  0.12503022005E+03 0.  0.
         23    2    1    2    0    0  0.33976077924E+02 -0.10924890962E+03 -0.75684675416E+03  0.77094803021E+03  0.91946494693E+02 0.  0.
        -11    1    4    4    0    0  0.81673761505E+01 -0.83710856540E+02 -0.68792397190E+03  0.69304661074E+03  0.51100000000E-03 0. -1.
         11    1    4    4    0    0  0.25808701773E+02 -0.25538053080E+02 -0.68922782256E+02  0.77901419477E+02  0.51100000000E-03 0.  1.
    9000005    1    3    3    0    0 -0.48973280997E+02  0.66239109883E+02 -0.55768400564E+03  0.56373615467E+03  0.10000000000E+01 0.  0.
    9000005    1    3    3    0    0  0.14997203073E+02  0.43009799738E+02 -0.52338418762E+02  0.69390698598E+02  0.10000000000E+01 0.  0.
<mgrwt>
<rscale>  0 0.16349233E+03</rscale>
<asrwt>0</asrwt>
<pdfrwt beam="2">  1        2 0.21314946E+00 0.16947641E+03</pdfrwt>
<pdfrwt beam="1">  1       -2 0.28619784E-02 0.16947641E+03</pdfrwt>
<totfact> 0.70518020E+03</totfact>
</mgrwt>
</event>
<event>
 8    2  0.1628804E-003  0.2014625E+03  0.7818608E-02  0.1152154E+00
         -2   -1    0    0    0  501 -0.00000000000E+00  0.00000000000E+00  0.53257208038E+02  0.53257208099E+02  0.25500000000E-02 0. -1.
          2   -1    0    0  501    0  0.00000000000E+00 -0.00000000000E+00 -0.70952544963E+03  0.70952544964E+03  0.25500000000E-02 0.  1.
         25    2    1    2    0    0  0.15229433209E+03  0.42069347205E+02 -0.38530434746E+03  0.43479486537E+03  0.12499496481E+03 0.  0.
         23    2    1    2    0    0 -0.15229433209E+03 -0.42069347205E+02 -0.27096389414E+03  0.32798779236E+03  0.95870571353E+02 0.  0.
        -11    1    4    4    0    0 -0.50390517339E+02 -0.56116859721E+02 -0.15877180062E+03  0.17577482998E+03  0.51100000000E-03 0. -1.
         11    1    4    4    0    0 -0.10190381475E+03  0.14047512516E+02 -0.11219209352E+03  0.15221296238E+03  0.51100000000E-03 0.  1.
    9000005    1    3    3    0    0  0.31187373422E+02  0.50279926466E+02 -0.47624634081E+02  0.75959390714E+02  0.10000000000E+01 0.  0.
    9000005    1    3    3    0    0  0.12110695867E+03 -0.82105792610E+01 -0.33767971338E+03  0.35883547466E+03  0.10000000000E+01 0.  0.
<mgrwt>
<rscale>  0 0.19716360E+03</rscale>
<asrwt>0</asrwt>
<pdfrwt beam="2">  1        2 0.10915775E+00 0.20146249E+03</pdfrwt>
<pdfrwt beam="1">  1       -2 0.81934171E-02 0.20146249E+03</pdfrwt>
<totfact> 0.37129051E+03</totfact>
</mgrwt>
</event>
<event>
 8    2  0.1628804E-003  0.1693187E+03  0.7818608E-02  0.1183610E+00
          2   -1    0    0  501    0  0.00000000000E+00  0.00000000000E+00  0.28030288492E+03  0.28030288493E+03  0.25500000000E-02 0. -1.
         -2   -1    0    0    0  501 -0.00000000000E+00 -0.00000000000E+00 -0.11671075653E+03  0.11671075655E+03  0.25500000000E-02 0.  1.
         25    2    1    2    0    0 -0.24959898330E+02 -0.11144342622E+03  0.17736101075E+03  0.24520553668E+03  0.12500477317E+03 0.  0.
         23    2    1    2    0    0  0.24959898330E+02  0.11144342622E+03 -0.13768882357E+02  0.15180810480E+03  0.99063034433E+02 0.  0.
        -11    1    4    4    0    0  0.36628002985E+02  0.11097469499E+03 -0.39656649850E+02  0.12340844140E+03  0.51100000000E-03 0.  1.
         11    1    4    4    0    0 -0.11668104656E+02  0.46873122249E+00  0.25887767494E+02  0.28399663401E+02  0.51100000000E-03 0. -1.
    9000005    1    3    3    0    0 -0.51545683290E+02 -0.15515244332E+02  0.17003016724E+02  0.56460453861E+02  0.10000000000E+01 0.  0.
    9000005    1    3    3    0    0  0.26585784960E+02 -0.95928181884E+02  0.16035799403E+03  0.18874508282E+03  0.10000000000E+01 0.  0.
<mgrwt>
<rscale>  0 0.16459022E+03</rscale>
<asrwt>0</asrwt>
<pdfrwt beam="1">  1        2 0.43123520E-01 0.16931871E+03</pdfrwt>
<pdfrwt beam="2">  1       -2 0.17955501E-01 0.16931871E+03</pdfrwt>
<totfact> 0.29123087E+03</totfact>
</mgrwt>
</event>
<event>
 8    2  0.1628804E-003  0.1256609E+03  0.7818608E-02  0.1251747E+00
          2   -1    0    0  501    0  0.00000000000E+00  0.00000000000E+00  0.32012641113E+03  0.32012641114E+03  0.25500000000E-02 0. -1.
         -2   -1    0    0    0  501 -0.00000000000E+00 -0.00000000000E+00 -0.40559249862E+02  0.40559249942E+02  0.25500000000E-02 0.  1.
         25    2    1    2    0    0 -0.12701894814E+02 -0.25716246127E+01  0.99333668912E+02  0.16018067954E+03  0.12499088340E+03 0.  0.
         23    2    1    2    0    0  0.12701894814E+02  0.25716246127E+01  0.18023349236E+03  0.20050498154E+03  0.86891797497E+02 0.  0.
        -11    1    4    4    0    0  0.29894154055E+02  0.37301279796E+02  0.82180011828E+02  0.95071553398E+02  0.51100000000E-03 0. -1.
         11    1    4    4    0    0 -0.17192259241E+02 -0.34729655183E+02  0.98053480527E+02  0.10543342815E+03  0.51100000000E-03 0.  1.
    9000005    1    3    3    0    0 -0.50627020204E+02 -0.23220865982E+02  0.10272102636E+03  0.11685423847E+03  0.10000000000E+01 0.  0.
    9000005    1    3    3    0    0  0.37925125390E+02  0.20649241370E+02 -0.33873574512E+01  0.43326441066E+02  0.10000000000E+01 0.  0.
<mgrwt>
<rscale>  0 0.11490509E+03</rscale>
<asrwt>0</asrwt>
<pdfrwt beam="1">  1        2 0.49250215E-01 0.12566094E+03</pdfrwt>
<pdfrwt beam="2">  1       -2 0.62398849E-02 0.12566094E+03</pdfrwt>
<totfact> 0.13281346E+04</totfact>
</mgrwt>
</event>
<event>
 8    2  0.1628804E-003  0.1266384E+03  0.7818608E-02  0.1248291E+00
          2   -1    0    0  501    0  0.00000000000E+00  0.00000000000E+00  0.13815333593E+02  0.13815333828E+02  0.25500000000E-02 0. -1.
         -2   -1    0    0    0  501 -0.00000000000E+00 -0.00000000000E+00 -0.97135974848E+03  0.97135974849E+03  0.25500000000E-02 0.  1.
         25    2    1    2    0    0 -0.16207209534E+02  0.12262881630E+02 -0.38504576467E+03  0.40533630484E+03  0.12499690886E+03 0.  0.
         23    2    1    2    0    0  0.16207209534E+02 -0.12262881630E+02 -0.57249865022E+03  0.57983877747E+03  0.89695325705E+02 0.  0.
        -11    1    4    4    0    0 -0.14396016948E+02  0.27227106599E+02 -0.36955047352E+03  0.37083165064E+03  0.51100000000E-03 0.  1.
         11    1    4    4    0    0  0.30603226482E+02 -0.39489988229E+02 -0.20294817670E+03  0.20900712683E+03  0.51100000000E-03 0. -1.
    9000005    1    3    3    0    0 -0.51735918419E+02  0.33809849075E+01 -0.35261771635E+03  0.35641028352E+03  0.10000000000E+01 0.  0.
    9000005    1    3    3    0    0  0.35528708885E+02  0.88818967228E+01 -0.32428048320E+02  0.48926021321E+02  0.10000000000E+01 0.  0.
<mgrwt>
<rscale>  0 0.11690536E+03</rscale>
<asrwt>0</asrwt>
<pdfrwt beam="1">  1        2 0.21254367E-02 0.12663838E+03</pdfrwt>
<pdfrwt beam="2">  1       -2 0.14943991E+00 0.12663838E+03</pdfrwt>
<totfact> 0.15414281E+03</totfact>
</mgrwt>
</event>
<event>
 8    2  0.1628804E-003  0.1420641E+03  0.7818608E-02  0.1219028E+00
          2   -1    0    0  501    0  0.00000000000E+00  0.00000000000E+00  0.36992590012E+04  0.36992590012E+04  0.25500000000E-02 0. -1.
         -2   -1    0    0    0  501 -0.00000000000E+00 -0.00000000000E+00 -0.20586347693E+02  0.20586347851E+02  0.25500000000E-02 0.  1.
         25    2    1    2    0    0 -0.66086530287E+02 -0.13730487315E+02  0.35136335434E+04  0.35165043574E+04  0.12500505137E+03 0.  0.
         23    2    1    2    0    0  0.66086530287E+02  0.13730487315E+02  0.16503911013E+03  0.20334099163E+03  0.97743006078E+02 0.  0.
        -11    1    4    4    0    0  0.17298734267E+02  0.56888813222E+01 -0.10466005853E+02  0.21003496298E+02  0.51100000000E-03 0.  1.
         11    1    4    4    0    0  0.48787796019E+02  0.80416059932E+01  0.17550511599E+03  0.18233749533E+03  0.51100000000E-03 0. -1.
    9000005    1    3    3    0    0 -0.42648981151E+02  0.21969042182E+02  0.44609390327E+03  0.44866729872E+03  0.10000000000E+01 0.  0.
    9000005    1    3    3    0    0 -0.23437549135E+02 -0.35699529497E+02  0.30675396401E+04  0.30678370587E+04  0.10000000000E+01 0.  0.
<mgrwt>
<rscale>  0 0.13584788E+03</rscale>
<asrwt>0</asrwt>
<pdfrwt beam="1">  1        2 0.56911633E+00 0.14206414E+03</pdfrwt>
<pdfrwt beam="2">  1       -2 0.31671329E-02 0.14206414E+03</pdfrwt>
<totfact> 0.30668854E+02</totfact>
</mgrwt>
</event>
<event>
 8    2  0.1628804E-003  0.3115824E+03  0.7818608E-02  0.1081336E+00
         -2   -1    0    0    0  501 -0.00000000000E+00  0.00000000000E+00  0.59452264407E+03  0.59452264407E+03  0.25500000000E-02 0. -1.
          2   -1    0    0  501    0  0.00000000000E+00 -0.00000000000E+00 -0.18254429482E+03  0.18254429484E+03  0.25500000000E-02 0.  1.
         25    2    1    2    0    0  0.26647819209E+03  0.10221279755E+03  0.35857054066E+03  0.47503305778E+03  0.12500196202E+03 0.  0.
         23    2    1    2    0    0 -0.26647819209E+03 -0.10221279755E+03  0.53407808586E+02  0.30203388113E+03  0.83150396804E+02 0.  0.
        -11    1    4    4    0    0 -0.12076364353E+03 -0.33980117769E+01  0.14023326841E+02  0.12162260390E+03  0.51100000000E-03 0.  1.
         11    1    4    4    0    0 -0.14571454856E+03 -0.98814785774E+02  0.39384481745E+02  0.18041127723E+03  0.51100000000E-03 0. -1.
    9000005    1    3    3    0    0  0.23075127045E+03  0.10094841625E+03  0.22828811281E+03  0.33993116069E+03  0.10000000000E+01 0.  0.
    9000005    1    3    3    0    0  0.35726921641E+02  0.12643812994E+01  0.13028242785E+03  0.13510189709E+03  0.10000000000E+01 0.  0.
<mgrwt>
<rscale>  0 0.30794208E+03</rscale>
<asrwt>0</asrwt>
<pdfrwt beam="2">  1        2 0.28083738E-01 0.31158237E+03</pdfrwt>
<pdfrwt beam="1">  1       -2 0.91465022E-01 0.31158237E+03</pdfrwt>
<totfact> 0.19965366E+02</totfact>
</mgrwt>
</event>
<event>
 8    2  0.1628804E-003  0.1384524E+03  0.7818608E-02  0.1226106E+00
         -2   -1    0    0    0  501 -0.00000000000E+00  0.00000000000E+00  0.20121170475E+03  0.20121170476E+03  0.25500000000E-02 0.  1.
          2   -1    0    0  501    0  0.00000000000E+00 -0.00000000000E+00 -0.77332244815E+02  0.77332244857E+02  0.25500000000E-02 0. -1.
         25    2    1    2    0    0 -0.30591489157E+02  0.51073712690E+02  0.61450638841E+02  0.15147686547E+03  0.12499878568E+03 0.  0.
         23    2    1    2    0    0  0.30591489157E+02 -0.51073712690E+02  0.62428821092E+02  0.12706708416E+03  0.93296960487E+02 0.  0.
        -11    1    4    4    0    0 -0.21246795106E+02 -0.16285702963E+02  0.58712177429E+02  0.64527282618E+02  0.51100000000E-03 0.  1.
         11    1    4    4    0    0  0.51838284263E+02 -0.34788009727E+02  0.37166436628E+01  0.62539801538E+02  0.51100000000E-03 0. -1.
    9000005    1    3    3    0    0 -0.83554817382E+01  0.28006392969E+02 -0.37447769183E+02  0.47513235408E+02  0.10000000000E+01 0.  0.
    9000005    1    3    3    0    0 -0.22236007419E+02  0.23067319721E+02  0.98898408024E+02  0.10396363006E+03  0.10000000000E+01 0.  0.
<mgrwt>
<rscale>  0 0.13091412E+03</rscale>
<asrwt>0</asrwt>
<pdfrwt beam="2">  1        2 0.11897269E-01 0.13845237E+03</pdfrwt>
<pdfrwt beam="1">  1       -2 0.30955646E-01 0.13845237E+03</pdfrwt>
<totfact> 0.47551767E+03</totfact>
</mgrwt>
</event>
<event>
 8    2  0.1628804E-003  0.1308071E+03  0.7818608E-02  0.1239763E+00
          2   -1    0    0  501    0  0.00000000000E+00  0.00000000000E+00  0.16452524367E+03  0.16452524369E+03  0.25500000000E-02 0. -1.
         -2   -1    0    0    0  501 -0.00000000000E+00 -0.00000000000E+00 -0.82258080902E+02  0.82258080941E+02  0.25500000000E-02 0.  1.
         25    2    1    2    0    0  0.37498595972E+02  0.88689703471E+01  0.65369884115E+02  0.14623176138E+03  0.12500281178E+03 0.  0.
         23    2    1    2    0    0 -0.37498595972E+02 -0.88689703471E+01  0.16897278656E+02  0.10055156325E+03  0.91325218379E+02 0.  0.
        -11    1    4    4    0    0 -0.31303451322E+02  0.36884402431E+02  0.23719604472E+02  0.53879354525E+02  0.51100000000E-03 0. -1.
         11    1    4    4    0    0 -0.61951446494E+01 -0.45753372779E+02 -0.68223258161E+01  0.46672208729E+02  0.51100000000E-03 0.  1.
    9000005    1    3    3    0    0  0.20565986762E+02  0.26268569396E+02  0.99151580825E+02  0.10461851428E+03  0.10000000000E+01 0.  0.
    9000005    1    3    3    0    0  0.16932609210E+02 -0.17399599049E+02 -0.33781696710E+02  0.41613247102E+02  0.10000000000E+01 0.  0.
<mgrwt>
<rscale>  0 0.12204379E+03</rscale>
<asrwt>0</asrwt>
<pdfrwt beam="1">  1        2 0.25311576E-01 0.13080713E+03</pdfrwt>
<pdfrwt beam="2">  1       -2 0.12655090E-01 0.13080713E+03</pdfrwt>
<totfact> 0.90482100E+03</totfact>
</mgrwt>
</event>
<event>
 8    2  0.1628804E-003  0.1326063E+03  0.7818608E-02  0.1237174E+00
         -2   -1    0    0    0  501 -0.00000000000E+00  0.00000000000E+00  0.71018830190E+02  0.71018830236E+02  0.25500000000E-02 0.  1.
          2   -1    0    0  501    0  0.00000000000E+00 -0.00000000000E+00 -0.26088358988E+03  0.26088358989E+03  0.25500000000E-02 0. -1.
         25    2    1    2    0    0 -0.25849123163E+02  0.35939671988E+02 -0.19253911142E+02  0.13399682575E+03  0.12499839610E+03 0.  0.
         23    2    1    2    0    0  0.25849123163E+02 -0.35939671988E+02 -0.17061084855E+03  0.19790559437E+03  0.89992918900E+02 0.  0.
        -11    1    4    4    0    0 -0.20427496556E+02  0.18549200672E+02 -0.62207720221E+02  0.68052596691E+02  0.51100000000E-03 0.  1.
         11    1    4    4    0    0  0.46276619718E+02 -0.54488872660E+02 -0.10840312832E+03  0.12985299768E+03  0.51100000000E-03 0. -1.
    9000005    1    3    3    0    0 -0.12988583873E+02  0.24347549109E+02 -0.72721095932E+02  0.77787301356E+02  0.10000000000E+01 0.  0.
    9000005    1    3    3    0    0 -0.12860539290E+02  0.11592122879E+02  0.53467184790E+02  0.56209524398E+02  0.10000000000E+01 0.  0.
<mgrwt>
<rscale>  0 0.12366311E+03</rscale>
<asrwt>0</asrwt>
<pdfrwt beam="2">  1        2 0.40135936E-01 0.13260632E+03</pdfrwt>
<pdfrwt beam="1">  1       -2 0.10925974E-01 0.13260632E+03</pdfrwt>
<totfact> 0.69613131E+03</totfact>
</mgrwt>
</event>
<event>
 8    2  0.1628804E-003  0.1416659E+03  0.7818608E-02  0.1221507E+00
         -2   -1    0    0    0  501 -0.00000000000E+00  0.00000000000E+00  0.21647283945E+02  0.21647284095E+02  0.25500000000E-02 0.  1.
          2   -1    0    0  501    0  0.00000000000E+00 -0.00000000000E+00 -0.89326176042E+03  0.89326176042E+03  0.25500000000E-02 0. -1.
         25    2    1    2    0    0  0.28163157334E+02  0.60431771506E+02 -0.65624405833E+03  0.67136091589E+03  0.12499621132E+03 0.  0.
         23    2    1    2    0    0 -0.28163157334E+02 -0.60431771506E+02 -0.21537041814E+03  0.24354812863E+03  0.92120092874E+02 0.  0.
        -11    1    4    4    0    0 -0.21635893664E+02 -0.48132358098E+01 -0.17010037560E+03  0.17153838321E+03  0.51100000000E-03 0. -1.
         11    1    4    4    0    0 -0.65272636704E+01 -0.55618535697E+02 -0.45270042539E+02  0.72009745422E+02  0.51100000000E-03 0.  1.
    9000005    1    3    3    0    0  0.70186724136E+02  0.11784743573E+02 -0.24528623887E+03  0.25540437625E+03  0.10000000000E+01 0.  0.
    9000005    1    3    3    0    0 -0.42023566802E+02  0.48647027933E+02 -0.41095781946E+03  0.41595653964E+03  0.10000000000E+01 0.  0.
<mgrwt>
<rscale>  0 0.13409237E+03</rscale>
<asrwt>0</asrwt>
<pdfrwt beam="2">  1        2 0.13742486E+00 0.14166586E+03</pdfrwt>
<pdfrwt beam="1">  1       -2 0.33303521E-02 0.14166586E+03</pdfrwt>
<totfact> 0.10709304E+04</totfact>
</mgrwt>
</event>
<event>
 8    2  0.1628804E-003  0.1818232E+03  0.7818608E-02  0.1171431E+00
         -2   -1    0    0    0  501 -0.00000000000E+00  0.00000000000E+00  0.18513624906E+03  0.18513624907E+03  0.25500000000E-02 0.  1.
          2   -1    0    0  501    0  0.00000000000E+00 -0.00000000000E+00 -0.16145147780E+03  0.16145147782E+03  0.25500000000E-02 0. -1.
         25    2    1    2    0    0  0.93087519079E+02 -0.93651886316E+02 -0.11033883526E+02  0.18215767542E+03  0.12499484033E+03 0.  0.
         23    2    1    2    0    0 -0.93087519079E+02  0.93651886316E+02  0.34718654781E+02  0.16443005148E+03  0.91629115568E+02 0.  0.
        -11    1    4    4    0    0  0.11150105343E+00  0.24222507895E+02 -0.24105608393E+02  0.34173420628E+02  0.51100000000E-03 0. -1.
         11    1    4    4    0    0 -0.93199020132E+02  0.69429378421E+02  0.58824263174E+02  0.13025663085E+03  0.51100000000E-03 0.  1.
    9000005    1    3    3    0    0  0.11916968925E+03 -0.98210861638E+02 -0.15808883885E+02  0.15523436794E+03  0.10000000000E+01 0.  0.
    9000005    1    3    3    0    0 -0.26082170176E+02  0.45589753224E+01  0.47750003591E+01  0.26923307477E+02  0.10000000000E+01 0.  0.
<mgrwt>
<rscale>  0 0.17630166E+03</rscale>
<asrwt>0</asrwt>
<pdfrwt beam="2">  1        2 0.24838689E-01 0.18182319E+03</pdfrwt>
<pdfrwt beam="1">  1       -2 0.28482500E-01 0.18182319E+03</pdfrwt>
<totfact> 0.23914351E+03</totfact>
</mgrwt>
</event>
<event>
 8    2  0.1628804E-003  0.1295033E+03  0.7818608E-02  0.1241709E+00
         -2   -1    0    0    0  501 -0.00000000000E+00  0.00000000000E+00  0.80932847929E+01  0.80932851946E+01  0.25500000000E-02 0.  1.
          2   -1    0    0  501    0  0.00000000000E+00 -0.00000000000E+00 -0.18126883222E+04  0.18126883222E+04  0.25500000000E-02 0. -1.
         25    2    1    2    0    0  0.76420445880E+01 -0.32985429497E+02 -0.13200522636E+04  0.13263894957E+04  0.12499870426E+03 0.  0.
         23    2    1    2    0    0 -0.76420445880E+01  0.32985429497E+02 -0.48454277375E+03  0.49439211171E+03  0.92170608798E+02 0.  0.
        -11    1    4    4    0    0 -0.29246052570E+02  0.75539414147E+00 -0.40329607858E+03  0.40435582005E+03  0.51100000000E-03 0. -1.
         11    1    4    4    0    0  0.21604007982E+02  0.32230035355E+02 -0.81246695172E+02  0.90036291663E+02  0.51100000000E-03 0.  1.
    9000005    1    3    3    0    0 -0.25337651507E+02 -0.30945976507E+02 -0.12267809270E+04  0.12274331317E+04  0.10000000000E+01 0.  0.
    9000005    1    3    3    0    0  0.32979696094E+02 -0.20394529902E+01 -0.93271336676E+02  0.98956363961E+02  0.10000000000E+01 0.  0.
<mgrwt>
<rscale>  0 0.12084560E+03</rscale>
<asrwt>0</asrwt>
<pdfrwt beam="2">  1        2 0.27887480E+00 0.12950334E+03</pdfrwt>
<pdfrwt beam="1">  1       -2 0.12451222E-02 0.12950334E+03</pdfrwt>
<totfact> 0.14041957E+04</totfact>
</mgrwt>
</event>
<event>
 8    2  0.1628804E-003  0.1299477E+03  0.7818608E-02  0.1242542E+00
          2   -1    0    0  501    0  0.00000000000E+00  0.00000000000E+00  0.97987037300E+02  0.97987037333E+02  0.25500000000E-02 0. -1.
         -2   -1    0    0    0  501 -0.00000000000E+00 -0.00000000000E+00 -0.20870507909E+03  0.20870507910E+03  0.25500000000E-02 0.  1.
         25    2    1    2    0    0  0.33232492486E+02  0.12665830154E+02 -0.15424067017E+03  0.20168436946E+03  0.12498631420E+03 0.  0.
         23    2    1    2    0    0 -0.33232492486E+02 -0.12665830154E+02  0.43522628387E+02  0.10500774698E+03  0.88699413377E+02 0.  0.
        -11    1    4    4    0    0 -0.11702322403E+02  0.33775007785E+02  0.40079139566E+02  0.53703192914E+02  0.51100000000E-03 0. -1.
         11    1    4    4    0    0 -0.21530170083E+02 -0.46440837939E+02  0.34434888207E+01  0.51304554065E+02  0.51100000000E-03 0.  1.
    9000005    1    3    3    0    0  0.25917192339E+02 -0.53338679825E+02 -0.47584600228E+02  0.76039527899E+02  0.10000000000E+01 0.  0.
    9000005    1    3    3    0    0  0.73153001469E+01  0.66004509979E+02 -0.10665606994E+03  0.12564484156E+03  0.10000000000E+01 0.  0.
<mgrwt>
<rscale>  0 0.12033711E+03</rscale>
<asrwt>0</asrwt>
<pdfrwt beam="1">  1        2 0.15074929E-01 0.12994768E+03</pdfrwt>
<pdfrwt beam="2">  1       -2 0.32108474E-01 0.12994768E+03</pdfrwt>
<totfact> 0.33474185E+03</totfact>
</mgrwt>
</event>
<event>
 8    2  0.1628804E-003  0.1253311E+03  0.7818608E-02  0.1235978E+00
          2   -1    0    0  501    0  0.00000000000E+00  0.00000000000E+00  0.70740255436E+03  0.70740255436E+03  0.25500000000E-02 0.  1.
         -2   -1    0    0    0  501 -0.00000000000E+00 -0.00000000000E+00 -0.23005208436E+02  0.23005208578E+02  0.25500000000E-02 0. -1.
         25    2    1    2    0    0 -0.90985794062E+01  0.46706106541E+00  0.25570360334E+03  0.28476694230E+03  0.12499950548E+03 0.  0.
         23    2    1    2    0    0  0.90985794062E+01 -0.46706106541E+00  0.42869374258E+03  0.44564082064E+03  0.12138539370E+03 0.  0.
        -11    1    4    4    0    0  0.39974943375E+02 -0.38506343771E+02  0.11007278058E+03  0.12327510549E+03  0.51100000000E-03 0. -1.
         11    1    4    4    0    0 -0.30876363969E+02  0.38039282705E+02  0.31862096200E+03  0.32236571515E+03  0.51100000000E-03 0.  1.
    9000005    1    3    3    0    0 -0.56012205580E+02 -0.19013576378E+02  0.20348234885E+03  0.21190787988E+03  0.10000000000E+01 0.  0.
    9000005    1    3    3    0    0  0.46913626174E+02  0.19480637444E+02  0.52221254490E+02  0.72859062418E+02  0.10000000000E+01 0.  0.
<mgrwt>
<rscale>  0 0.12442013E+03</rscale>
<asrwt>0</asrwt>
<pdfrwt beam="1">  1        2 0.10883114E+00 0.12533108E+03</pdfrwt>
<pdfrwt beam="2">  1       -2 0.35392635E-02 0.12533108E+03</pdfrwt>
<totfact> 0.12974153E+04</totfact>
</mgrwt>
</event>
<event>
 8    2  0.1628804E-003  0.1433789E+03  0.7818608E-02  0.1220018E+00
          2   -1    0    0  501    0  0.00000000000E+00  0.00000000000E+00  0.16459941823E+04  0.16459941823E+04  0.25500000000E-02 0. -1.
         -2   -1    0    0    0  501 -0.00000000000E+00 -0.00000000000E+00 -0.10944024901E+02  0.10944025199E+02  0.25500000000E-02 0.  1.
         25    2    1    2    0    0  0.65693201919E+02 -0.24833695603E+02  0.11477200434E+04  0.11566411721E+04  0.12500077532E+03 0.  0.
         23    2    1    2    0    0 -0.65693201919E+02  0.24833695603E+02  0.48733011400E+03  0.50029703537E+03  0.88736544751E+02 0.  0.
        -11    1    4    4    0    0 -0.26583202707E+02 -0.25770842949E+02  0.30159078691E+03  0.30385490906E+03  0.51100000000E-03 0. -1.
         11    1    4    4    0    0 -0.39109999211E+02  0.50604538551E+02  0.18573932709E+03  0.19644212630E+03  0.51100000000E-03 0.  1.
    9000005    1    3    3    0    0 -0.36598245539E+02  0.46017135241E+01  0.30622076037E+03  0.30843599243E+03  0.10000000000E+01 0.  0.
    9000005    1    3    3    0    0  0.10229144746E+03 -0.29435409127E+02  0.84149928304E+03  0.84820517972E+03  0.10000000000E+01 0.  0.
<mgrwt>
<rscale>  0 0.13514271E+03</rscale>
<asrwt>0</asrwt>
<pdfrwt beam="1">  1        2 0.25322981E+00 0.14337888E+03</pdfrwt>
<pdfrwt beam="2">  1       -2 0.16836966E-02 0.14337888E+03</pdfrwt>
<totfact> 0.11112627E+04</totfact>
</mgrwt>
</event>
<event>
 8    2  0.1628804E-003  0.1489487E+03  0.7818608E-02  0.1210968E+00
          2   -1    0    0  501    0  0.00000000000E+00  0.00000000000E+00  0.26954205777E+03  0.26954205778E+03  0.25500000000E-02 0. -1.
         -2   -1    0    0    0  501 -0.00000000000E+00 -0.00000000000E+00 -0.81819486910E+02  0.81819486950E+02  0.25500000000E-02 0.  1.
         25    2    1    2    0    0 -0.80566576226E+02 -0.82807781256E+01  0.30212108820E+02  0.15198181943E+03  0.12500462962E+03 0.  0.
         23    2    1    2    0    0  0.80566576226E+02  0.82807781256E+01  0.15751046204E+03  0.19937972531E+03  0.91559733069E+02 0.  0.
        -11    1    4    4    0    0  0.14835554177E+01 -0.22151502562E+02  0.85007416061E+02  0.87858697850E+02  0.51100000000E-03 0. -1.
         11    1    4    4    0    0  0.79083020809E+02  0.30432280687E+02  0.72503045979E+02  0.11152102745E+03  0.51100000000E-03 0.  1.
    9000005    1    3    3    0    0 -0.88307140486E+02  0.77089918553E+01  0.66998191053E+02  0.11111857280E+03  0.10000000000E+01 0.  0.
    9000005    1    3    3    0    0  0.77405642593E+01 -0.15989769981E+02 -0.36786082233E+02  0.40863246630E+02  0.10000000000E+01 0.  0.
<mgrwt>
<rscale>  0 0.14176897E+03</rscale>
<asrwt>0</asrwt>
<pdfrwt beam="1">  1        2 0.41468009E-01 0.14894866E+03</pdfrwt>
<pdfrwt beam="2">  1       -2 0.12587613E-01 0.14894866E+03</pdfrwt>
<totfact> 0.54039650E+03</totfact>
</mgrwt>
</event>
<event>
 8    2  0.1628804E-003  0.1347585E+03  0.7818608E-02  0.1232603E+00
          2   -1    0    0  501    0  0.00000000000E+00  0.00000000000E+00  0.37726498976E+02  0.37726499062E+02  0.25500000000E-02 0. -1.
         -2   -1    0    0    0  501 -0.00000000000E+00 -0.00000000000E+00 -0.49628711318E+03  0.49628711318E+03  0.25500000000E-02 0.  1.
         25    2    1    2    0    0  0.49560432159E+02  0.88647467049E+01 -0.37922843872E+03  0.40246001420E+03  0.12500013652E+03 0.  0.
         23    2    1    2    0    0 -0.49560432159E+02 -0.88647467049E+01 -0.79332175482E+02  0.13155359804E+03  0.92075702118E+02 0.  0.
        -11    1    4    4    0    0 -0.65104027160E+02  0.23353820506E+02 -0.51769409887E+02  0.86394485269E+02  0.51100000000E-03 0. -1.
         11    1    4    4    0    0  0.15543595001E+02 -0.32218567211E+02 -0.27562765596E+02  0.45159112771E+02  0.51100000000E-03 0.  1.
    9000005    1    3    3    0    0 -0.25928643570E+01 -0.37653554912E+02 -0.35932462445E+02  0.52121540657E+02  0.10000000000E+01 0.  0.
    9000005    1    3    3    0    0  0.52153296516E+02  0.46518301617E+02 -0.34329597627E+03  0.35033847355E+03  0.10000000000E+01 0.  0.
<mgrwt>
<rscale>  0 0.12659138E+03</rscale>
<asrwt>0</asrwt>
<pdfrwt beam="1">  1        2 0.58040771E-02 0.13475850E+03</pdfrwt>
<pdfrwt beam="2">  1       -2 0.76351859E-01 0.13475850E+03</pdfrwt>
<totfact> 0.19604315E+03</totfact>
</mgrwt>
</event>
<event>
 8    2  0.1628804E-003  0.1533442E+03  0.7818608E-02  0.1204844E+00
          2   -1    0    0  501    0  0.00000000000E+00  0.00000000000E+00  0.42652582408E+03  0.42652582409E+03  0.25500000000E-02 0. -1.
         -2   -1    0    0    0  501 -0.00000000000E+00 -0.00000000000E+00 -0.51565059363E+02  0.51565059426E+02  0.25500000000E-02 0.  1.
         25    2    1    2    0    0  0.12311395921E+02  0.87965926671E+02  0.12677870855E+03  0.19896555865E+03  0.12499951145E+03 0.  0.
         23    2    1    2    0    0 -0.12311395921E+02 -0.87965926671E+02  0.24818205617E+03  0.27912532487E+03  0.91798906606E+02 0.  0.
        -11    1    4    4    0    0 -0.40718830430E+02 -0.59161538174E+02  0.86354011707E+02  0.11231707835E+03  0.51100000000E-03 0.  1.
         11    1    4    4    0    0  0.28407434509E+02 -0.28804388497E+02  0.16182804446E+03  0.16680824652E+03  0.51100000000E-03 0. -1.
    9000005    1    3    3    0    0 -0.40213022946E+02  0.85048030964E+02  0.51891998451E+02  0.10744316771E+03  0.10000000000E+01 0.  0.
    9000005    1    3    3    0    0  0.52524418868E+02  0.29178957067E+01  0.74886710099E+02  0.91522390933E+02  0.10000000000E+01 0.  0.
<mgrwt>
<rscale>  0 0.14649720E+03</rscale>
<asrwt>0</asrwt>
<pdfrwt beam="1">  1        2 0.65619358E-01 0.15334423E+03</pdfrwt>
<pdfrwt beam="2">  1       -2 0.79330860E-02 0.15334423E+03</pdfrwt>
<totfact> 0.68669377E+03</totfact>
</mgrwt>
</event>
<event>
 8    2  0.1628804E-003  0.1763321E+03  0.7818608E-02  0.1177113E+00
          2   -1    0    0  501    0  0.00000000000E+00  0.00000000000E+00  0.12779094678E+04  0.12779094678E+04  0.25500000000E-02 0. -1.
         -2   -1    0    0    0  501 -0.00000000000E+00 -0.00000000000E+00 -0.25988894387E+02  0.25988894512E+02  0.25500000000E-02 0.  1.
         25    2    1    2    0    0 -0.60021439383E+02  0.10885987348E+03  0.93106803480E+03  0.94761843642E+03  0.12505986716E+03 0.  0.
         23    2    1    2    0    0  0.60021439383E+02 -0.10885987348E+03  0.32085253857E+03  0.35627992585E+03  0.92390415188E+02 0.  0.
        -11    1    4    4    0    0  0.33953651681E+01  0.16171063271E+02  0.49565200738E+02  0.52246922555E+02  0.51100000000E-03 0. -1.
         11    1    4    4    0    0  0.56626074215E+02 -0.12503093675E+03  0.27128733783E+03  0.30403300329E+03  0.51100000000E-03 0.  1.
    9000005    1    3    3    0    0  0.20585074675E+02  0.41076622021E+02  0.10184995031E+03  0.11173829493E+03  0.10000000000E+01 0.  0.
    9000005    1    3    3    0    0 -0.80606514058E+02  0.67783251460E+02  0.82921808449E+03  0.83588014149E+03  0.10000000000E+01 0.  0.
<mgrwt>
<rscale>  0 0.17070654E+03</rscale>
<asrwt>0</asrwt>
<pdfrwt beam="1">  1        2 0.19660145E+00 0.17633212E+03</pdfrwt>
<pdfrwt beam="2">  1       -2 0.39982915E-02 0.17633212E+03</pdfrwt>
<totfact> 0.49131057E+03</totfact>
</mgrwt>
</event>
<event>
 8    2  0.1628804E-003  0.1837778E+03  0.7818608E-02  0.1169259E+00
          2   -1    0    0  501    0  0.00000000000E+00  0.00000000000E+00  0.10854712777E+04  0.10854712777E+04  0.25500000000E-02 0. -1.
         -2   -1    0    0    0  501 -0.00000000000E+00 -0.00000000000E+00 -0.27787844399E+02  0.27787844516E+02  0.25500000000E-02 0.  1.
         25    2    1    2    0    0 -0.13025703227E+03  0.34389566164E+02  0.55978557711E+03  0.58918092678E+03  0.12499894168E+03 0.  0.
         23    2    1    2    0    0  0.13025703227E+03 -0.34389566164E+02  0.49789785614E+03  0.52407819540E+03  0.92769299984E+02 0.  0.
        -11    1    4    4    0    0  0.72951299243E+01 -0.12703796851E+02  0.47968863042E+01  0.15414781657E+02  0.51100000000E-03 0.  1.
         11    1    4    4    0    0  0.12296190234E+03 -0.21685769313E+02  0.49310096984E+03  0.50866341374E+03  0.51100000000E-03 0. -1.
    9000005    1    3    3    0    0 -0.62528760865E+02 -0.40564694382E+02  0.15519558714E+03  0.17216855298E+03  0.10000000000E+01 0.  0.
    9000005    1    3    3    0    0 -0.67728271400E+02  0.74954260547E+02  0.40458998996E+03  0.41701237380E+03  0.10000000000E+01 0.  0.
<mgrwt>
<rscale>  0 0.17850350E+03</rscale>
<asrwt>0</asrwt>
<pdfrwt beam="1">  1        2 0.16699559E+00 0.18377778E+03</pdfrwt>
<pdfrwt beam="2">  1       -2 0.42750529E-02 0.18377778E+03</pdfrwt>
<totfact> 0.57135099E+03</totfact>
</mgrwt>
</event>
<event>
 8    2  0.1628804E-003  0.1421778E+03  0.7818608E-02  0.1221833E+00
          2   -1    0    0  501    0  0.00000000000E+00  0.00000000000E+00  0.10303345689E+04  0.10303345689E+04  0.25500000000E-02 0. -1.
         -2   -1    0    0    0  501 -0.00000000000E+00 -0.00000000000E+00 -0.16076754783E+02  0.16076754985E+02  0.25500000000E-02 0.  1.
         25    2    1    2    0    0 -0.66202169337E+02 -0.14363054060E+02  0.65171379961E+03  0.66704227934E+03  0.12500200506E+03 0.  0.
         23    2    1    2    0    0  0.66202169337E+02  0.14363054060E+02  0.36254401452E+03  0.37936904457E+03  0.88846412226E+02 0.  0.
        -11    1    4    4    0    0  0.61321666654E+01 -0.23524372166E+01 -0.39130578288E+01  0.76452240453E+01  0.51100000000E-03 0.  1.
         11    1    4    4    0    0  0.60070002672E+02  0.16715491276E+02  0.36645707235E+03  0.37172382052E+03  0.51100000000E-03 0. -1.
    9000005    1    3    3    0    0 -0.67811367480E+02  0.17521811841E+02  0.61237977925E+03  0.61637276829E+03  0.10000000000E+01 0.  0.
    9000005    1    3    3    0    0  0.16091981428E+01 -0.31884865901E+02  0.39334020362E+02  0.50669511050E+02  0.10000000000E+01 0.  0.
<mgrwt>
<rscale>  0 0.13386358E+03</rscale>
<asrwt>0</asrwt>
<pdfrwt beam="1">  1        2 0.15851304E+00 0.14217780E+03</pdfrwt>
<pdfrwt beam="2">  1       -2 0.24733465E-02 0.14217780E+03</pdfrwt>
<totfact> 0.13676278E+04</totfact>
</mgrwt>
</event>
<event>
 8    2  0.1628804E-003  0.1461708E+03  0.7818608E-02  0.1215310E+00
          2   -1    0    0  501    0  0.00000000000E+00  0.00000000000E+00  0.53241130989E+03  0.53241130990E+03  0.25500000000E-02 0. -1.
         -2   -1    0    0    0  501 -0.00000000000E+00 -0.00000000000E+00 -0.33741191148E+02  0.33741191244E+02  0.25500000000E-02 0.  1.
         25    2    1    2    0    0  0.40199094935E+02 -0.64229329517E+02  0.22710365503E+03  0.27007773456E+03  0.12499815427E+03 0.  0.
         23    2    1    2    0    0 -0.40199094935E+02  0.64229329517E+02  0.27156646371E+03  0.29607476658E+03  0.90391090217E+02 0.  0.
        -11    1    4    4    0    0  0.15687949505E+02  0.16019795430E+02  0.10468655252E+02  0.24745471269E+02  0.51100000000E-03 0.  1.
         11    1    4    4    0    0 -0.55887044439E+02  0.48209534087E+02  0.26109780846E+03  0.27132929531E+03  0.51100000000E-03 0. -1.
    9000005    1    3    3    0    0  0.10607100679E+02 -0.12785093558E+02 -0.14016907929E+02  0.21758743300E+02  0.10000000000E+01 0.  0.
    9000005    1    3    3    0    0  0.29591994255E+02 -0.51444235959E+02  0.24112056296E+03  0.24831899126E+03  0.10000000000E+01 0.  0.
<mgrwt>
<rscale>  0 0.13853801E+03</rscale>
<asrwt>0</asrwt>
<pdfrwt beam="1">  1        2 0.81909430E-01 0.14617083E+03</pdfrwt>
<pdfrwt beam="2">  1       -2 0.51909526E-02 0.14617083E+03</pdfrwt>
<totfact> 0.10260834E+04</totfact>
</mgrwt>
</event>
<event>
 8    2  0.1628804E-003  0.1278478E+03  0.7818608E-02  0.1245214E+00
          2   -1    0    0  501    0  0.00000000000E+00  0.00000000000E+00  0.28804404536E+04  0.28804404536E+04  0.25500000000E-02 0. -1.
         -2   -1    0    0    0  501 -0.00000000000E+00 -0.00000000000E+00 -0.44251551581E+01  0.44251558928E+01  0.25500000000E-02 0.  1.
         25    2    1    2    0    0  0.49824028226E+00  0.26820161094E+02  0.14171931869E+04  0.14229481995E+04  0.12500192107E+03 0.  0.
         23    2    1    2    0    0 -0.49824028226E+00 -0.26820161094E+02  0.14588221115E+04  0.14619174100E+04  0.91219466903E+02 0.  0.
        -11    1    4    4    0    0  0.22880860808E+01 -0.53715352880E+02  0.53391235385E+03  0.53661250084E+03  0.51100000000E-03 0.  1.
         11    1    4    4    0    0 -0.27863263631E+01  0.26895191785E+02  0.92490975770E+03  0.92530490912E+03  0.51100000000E-03 0. -1.
    9000005    1    3    3    0    0  0.42117608983E+02 -0.38461982223E+01  0.18941746700E+03  0.19408416481E+03  0.10000000000E+01 0.  0.
    9000005    1    3    3    0    0 -0.41619368700E+02  0.30666359317E+02  0.12277757199E+04  0.12288640347E+04  0.10000000000E+01 0.  0.
<mgrwt>
<rscale>  0 0.11872557E+03</rscale>
<asrwt>0</asrwt>
<pdfrwt beam="1">  1        2 0.44314471E+00 0.12784776E+03</pdfrwt>
<pdfrwt beam="2">  1       -2 0.68079312E-03 0.12784776E+03</pdfrwt>
<totfact> 0.90722550E+03</totfact>
</mgrwt>
</event>
<event>
 8    2  0.1628804E-003  0.1273537E+03  0.7818608E-02  0.1253025E+00
          2   -1    0    0  501    0  0.00000000000E+00  0.00000000000E+00  0.76793855023E+03  0.76793855023E+03  0.25500000000E-02 0. -1.
         -2   -1    0    0    0  501 -0.00000000000E+00 -0.00000000000E+00 -0.22829712401E+02  0.22829712543E+02  0.25500000000E-02 0.  1.
         25    2    1    2    0    0 -0.65618093735E+01 -0.23475625528E+02  0.18468966688E+03  0.22434176516E+03  0.12499916881E+03 0.  0.
         23    2    1    2    0    0  0.65618093735E+01  0.23475625528E+02  0.56041917094E+03  0.56642649762E+03  0.78582235312E+02 0.  0.
        -11    1    4    4    0    0 -0.30159336891E+02 -0.61450313304E+01  0.31601800160E+03  0.31751334515E+03  0.51100000000E-03 0. -1.
         11    1    4    4    0    0  0.36721146264E+02  0.29620656858E+02  0.24440116934E+03  0.24891315247E+03  0.51100000000E-03 0.  1.
    9000005    1    3    3    0    0 -0.49453692051E+02 -0.52234966007E+02  0.79896162925E+02  0.10751072589E+03  0.10000000000E+01 0.  0.
    9000005    1    3    3    0    0  0.42891882677E+02  0.28759340480E+02  0.10479350396E+03  0.11683103927E+03  0.10000000000E+01 0.  0.
<mgrwt>
<rscale>  0 0.11417651E+03</rscale>
<asrwt>0</asrwt>
<pdfrwt beam="1">  1        2 0.11814441E+00 0.12735366E+03</pdfrwt>
<pdfrwt beam="2">  1       -2 0.35122630E-02 0.12735366E+03</pdfrwt>
<totfact> 0.11900061E+04</totfact>
</mgrwt>
</event>
<event>
 8    2  0.1628804E-003  0.1266743E+03  0.7818608E-02  0.1247364E+00
          2   -1    0    0  501    0  0.00000000000E+00  0.00000000000E+00  0.24174667184E+04  0.24174667184E+04  0.25500000000E-02 0. -1.
         -2   -1    0    0    0  501 -0.00000000000E+00 -0.00000000000E+00 -0.51927441210E+01  0.51927447471E+01  0.25500000000E-02 0.  1.
         25    2    1    2    0    0 -0.19910518796E+02  0.49529216726E+01  0.11615403525E+04  0.11684273052E+04  0.12500166737E+03 0.  0.
         23    2    1    2    0    0  0.19910518796E+02 -0.49529216726E+01  0.12507336218E+04  0.12542321579E+04  0.91338673121E+02 0.  0.
        -11    1    4    4    0    0  0.53214515230E+02 -0.18600922607E+02  0.85941456556E+03  0.86126138568E+03  0.51100000000E-03 0. -1.
         11    1    4    4    0    0 -0.33303996434E+02  0.13648000934E+02  0.39131905621E+03  0.39297077227E+03  0.51100000000E-03 0.  1.
    9000005    1    3    3    0    0 -0.19435638557E+02 -0.31574132299E+02  0.10685550961E+03  0.11310954783E+03  0.10000000000E+01 0.  0.
    9000005    1    3    3    0    0 -0.47488023953E+00  0.36527053971E+02  0.10546848429E+04  0.10553177574E+04  0.10000000000E+01 0.  0.
<mgrwt>
<rscale>  0 0.11744983E+03</rscale>
<asrwt>0</asrwt>
<pdfrwt beam="1">  1        2 0.37191788E+00 0.12667430E+03</pdfrwt>
<pdfrwt beam="2">  1       -2 0.79888392E-03 0.12667430E+03</pdfrwt>
<totfact> 0.12908263E+04</totfact>
</mgrwt>
</event>
<event>
 8    2  0.1628804E-003  0.1531876E+03  0.7818608E-02  0.1205130E+00
          2   -1    0    0  501    0  0.00000000000E+00  0.00000000000E+00  0.14351521359E+04  0.14351521359E+04  0.25500000000E-02 0. -1.
         -2   -1    0    0    0  501 -0.00000000000E+00 -0.00000000000E+00 -0.13723071544E+02  0.13723071781E+02  0.25500000000E-02 0.  1.
         25    2    1    2    0    0  0.88507093359E+02  0.28774646982E+01  0.79917588601E+03  0.81372509963E+03  0.12499862242E+03 0.  0.
         23    2    1    2    0    0 -0.88507093359E+02 -0.28774646982E+01  0.62225317834E+03  0.63515010805E+03  0.91514241633E+02 0.  0.
        -11    1    4    4    0    0 -0.54999125261E+02  0.16865307627E+02  0.14037803110E+03  0.15170805514E+03  0.51100000000E-03 0.  1.
         11    1    4    4    0    0 -0.33507968098E+02 -0.19742772325E+02  0.48187514724E+03  0.48344205290E+03  0.51100000000E-03 0. -1.
    9000005    1    3    3    0    0  0.10471184863E+03  0.25412338090E+02  0.74590746730E+03  0.75365065378E+03  0.10000000000E+01 0.  0.
    9000005    1    3    3    0    0 -0.16204755268E+02 -0.22534873392E+02  0.53268418715E+02  0.60074445853E+02  0.10000000000E+01 0.  0.
<mgrwt>
<rscale>  0 0.14627255E+03</rscale>
<asrwt>0</asrwt>
<pdfrwt beam="1">  1        2 0.22079252E+00 0.15318760E+03</pdfrwt>
<pdfrwt beam="2">  1       -2 0.21112429E-02 0.15318760E+03</pdfrwt>
<totfact> 0.10328747E+04</totfact>
</mgrwt>
</event>
<event>
 8    2  0.1628804E-003  0.1629621E+03  0.7818608E-02  0.1192668E+00
         -2   -1    0    0    0  501 -0.00000000000E+00  0.00000000000E+00  0.23127381570E+02  0.23127381711E+02  0.25500000000E-02 0.  1.
          2   -1    0    0  501    0  0.00000000000E+00 -0.00000000000E+00 -0.98445391149E+03  0.98445391150E+03  0.25500000000E-02 0. -1.
         25    2    1    2    0    0  0.34137775558E+02 -0.98825460449E+02 -0.53170503106E+03  0.55611767818E+03  0.12499909029E+03 0.  0.
         23    2    1    2    0    0 -0.34137775558E+02  0.98825460449E+02 -0.42962149886E+03  0.45146361503E+03  0.91175128506E+02 0.  0.
        -11    1    4    4    0    0 -0.96283418367E+01  0.66574697394E+02 -0.10754329044E+03  0.12684815575E+03  0.51100000000E-03 0.  1.
         11    1    4    4    0    0 -0.24509433721E+02  0.32250763055E+02 -0.32207820842E+03  0.32461545927E+03  0.51100000000E-03 0. -1.
    9000005    1    3    3    0    0  0.31118189587E+02  0.24484828241E+02 -0.12804027041E+03  0.13402671145E+03  0.10000000000E+01 0.  0.
    9000005    1    3    3    0    0  0.30195859714E+01 -0.12331028869E+03 -0.40366476066E+03  0.42209096673E+03  0.10000000000E+01 0.  0.
<mgrwt>
<rscale>  0 0.15653229E+03</rscale>
<asrwt>0</asrwt>
<pdfrwt beam="2">  1        2 0.15145442E+00 0.16296206E+03</pdfrwt>
<pdfrwt beam="1">  1       -2 0.35580595E-02 0.16296206E+03</pdfrwt>
<totfact> 0.85886854E+03</totfact>
</mgrwt>
</event>
<event>
 8    2  0.1628804E-003  0.1933163E+03  0.7818608E-02  0.1160318E+00
         -2   -1    0    0    0  501 -0.00000000000E+00  0.00000000000E+00  0.26526511678E+02  0.26526511800E+02  0.25500000000E-02 0.  1.
          2   -1    0    0  501    0  0.00000000000E+00 -0.00000000000E+00 -0.12629248697E+04  0.12629248697E+04  0.25500000000E-02 0. -1.
         25    2    1    2    0    0  0.56483440208E+02  0.13622194286E+03 -0.65294103604E+03  0.68095755282E+03  0.12499758185E+03 0.  0.
         23    2    1    2    0    0 -0.56483440208E+02 -0.13622194286E+03 -0.58345732198E+03  0.60849382868E+03  0.89974975575E+02 0.  0.
        -11    1    4    4    0    0  0.11818472303E+02 -0.60002838545E+02 -0.13051224807E+03  0.14413002400E+03  0.51100000000E-03 0.  1.
         11    1    4    4    0    0 -0.68301912511E+02 -0.76219104318E+02 -0.45294507392E+03  0.46436380468E+03  0.51100000000E-03 0. -1.
    9000005    1    3    3    0    0  0.68927109318E+02  0.11712583130E+03 -0.64091780174E+03  0.65516870754E+03  0.10000000000E+01 0.  0.
    9000005    1    3    3    0    0 -0.12443669110E+02  0.19096111564E+02 -0.12023234295E+02  0.25788845276E+02  0.10000000000E+01 0.  0.
<mgrwt>
<rscale>  0 0.18795565E+03</rscale>
<asrwt>0</asrwt>
<pdfrwt beam="2">  1        2 0.19429609E+00 0.19331630E+03</pdfrwt>
<pdfrwt beam="1">  1       -2 0.40810028E-02 0.19331630E+03</pdfrwt>
<totfact> 0.48670700E+03</totfact>
</mgrwt>
</event>
<event>
 8    2  0.1628804E-003  0.1546846E+03  0.7818608E-02  0.1202796E+00
         -2   -1    0    0    0  501 -0.00000000000E+00  0.00000000000E+00  0.53662196738E+02  0.53662196798E+02  0.25500000000E-02 0.  1.
          2   -1    0    0  501    0  0.00000000000E+00 -0.00000000000E+00 -0.52015848057E+03  0.52015848058E+03  0.25500000000E-02 0. -1.
         25    2    1    2    0    0 -0.85909117711E+02 -0.30363816309E+02 -0.98177705239E+02  0.18321076001E+03  0.12499993172E+03 0.  0.
         23    2    1    2    0    0  0.85909117711E+02  0.30363816309E+02 -0.36831857859E+03  0.39060991737E+03  0.92818071302E+02 0.  0.
        -11    1    4    4    0    0  0.30907025092E+02  0.13716902887E+02 -0.23845478557E+02  0.41376375780E+02  0.51100000000E-03 0.  1.
         11    1    4    4    0    0  0.55002092619E+02  0.16646913422E+02 -0.34447310004E+03  0.34923354159E+03  0.51100000000E-03 0. -1.
    9000005    1    3    3    0    0  0.10612418998E+02 -0.52452242406E+02 -0.20341998080E+02  0.57259567378E+02  0.10000000000E+01 0.  0.
    9000005    1    3    3    0    0 -0.96521536709E+02  0.22088426098E+02 -0.77835707159E+02  0.12595119263E+03  0.10000000000E+01 0.  0.
<mgrwt>
<rscale>  0 0.14812467E+03</rscale>
<asrwt>0</asrwt>
<pdfrwt beam="2">  1        2 0.80024378E-01 0.15468458E+03</pdfrwt>
<pdfrwt beam="1">  1       -2 0.82557229E-02 0.15468458E+03</pdfrwt>
<totfact> 0.51979847E+03</totfact>
</mgrwt>
</event>
<event>
 8    2  0.1628804E-003  0.2940785E+03  0.7818608E-02  0.1089550E+00
          2   -1    0    0  501    0  0.00000000000E+00  0.00000000000E+00  0.75288861690E+03  0.75288861691E+03  0.25500000000E-02 0. -1.
         -2   -1    0    0    0  501 -0.00000000000E+00 -0.00000000000E+00 -0.11910053744E+03  0.11910053746E+03  0.25500000000E-02 0.  1.
         25    2    1    2    0    0 -0.20579727782E+03 -0.16883519508E+03  0.43585045831E+03  0.52578301670E+03  0.12499726394E+03 0.  0.
         23    2    1    2    0    0  0.20579727782E+03  0.16883519508E+03  0.19793762116E+03  0.34620613767E+03  0.99103709503E+02 0.  0.
        -11    1    4    4    0    0  0.57878710826E+02  0.74411415937E+02  0.20155004011E+02  0.96401390942E+02  0.51100000000E-03 0.  1.
         11    1    4    4    0    0  0.14791856699E+03  0.94423779140E+02  0.17778261715E+03  0.24980474673E+03  0.51100000000E-03 0. -1.
    9000005    1    3    3    0    0 -0.29303898271E+02  0.19633691064E+02  0.63849545640E+02  0.72951797490E+02  0.10000000000E+01 0.  0.
    9000005    1    3    3    0    0 -0.17649337955E+03 -0.18846888614E+03  0.37200091267E+03  0.45283121921E+03  0.10000000000E+01 0.  0.
<mgrwt>
<rscale>  0 0.29153639E+03</rscale>
<asrwt>0</asrwt>
<pdfrwt beam="1">  1        2 0.11582902E+00 0.29407849E+03</pdfrwt>
<pdfrwt beam="2">  1       -2 0.18323160E-01 0.29407849E+03</pdfrwt>
<totfact> 0.93784298E+02</totfact>
</mgrwt>
</event>
<event>
 8    2  0.1628804E-003  0.2765040E+03  0.7818608E-02  0.1099496E+00
         -2   -1    0    0    0  501 -0.00000000000E+00  0.00000000000E+00  0.32885521050E+02  0.32885521148E+02  0.25500000000E-02 0.  1.
          2   -1    0    0  501    0  0.00000000000E+00 -0.00000000000E+00 -0.23342450508E+04  0.23342450508E+04  0.25500000000E-02 0. -1.
         25    2    1    2    0    0 -0.62510419908E+02  0.23858033443E+03 -0.91009276343E+03  0.95116944423E+03  0.12500537992E+03 0.  0.
         23    2    1    2    0    0  0.62510419908E+02 -0.23858033443E+03 -0.13912667663E+04  0.14159611277E+04  0.92166000150E+02 0.  0.
        -11    1    4    4    0    0  0.58043018543E+02 -0.11134171815E+03 -0.88830871284E+03  0.89713897447E+03  0.51100000000E-03 0. -1.
         11    1    4    4    0    0  0.44674013653E+01 -0.12723861627E+03 -0.50295805343E+03  0.51882215320E+03  0.51100000000E-03 0.  1.
    9000005    1    3    3    0    0  0.11485870489E+02  0.97619511579E+02 -0.53069607010E+03  0.53972290399E+03  0.10000000000E+01 0.  0.
    9000005    1    3    3    0    0 -0.73996290397E+02  0.14096082285E+03 -0.37939669333E+03  0.41144654024E+03  0.10000000000E+01 0.  0.
<mgrwt>
<rscale>  0 0.27314014E+03</rscale>
<asrwt>0</asrwt>
<pdfrwt beam="2">  1        2 0.35911449E+00 0.27650402E+03</pdfrwt>
<pdfrwt beam="1">  1       -2 0.50593128E-02 0.27650402E+03</pdfrwt>
<totfact> 0.94817556E+02</totfact>
</mgrwt>
</event>
<event>
 8    2  0.1628804E-003  0.3842028E+03  0.7818608E-02  0.1050438E+00
          2   -1    0    0  501    0  0.00000000000E+00  0.00000000000E+00  0.77078624374E+03  0.77078624375E+03  0.25500000000E-02 0. -1.
         -2   -1    0    0    0  501 -0.00000000000E+00 -0.00000000000E+00 -0.19001570489E+03  0.19001570491E+03  0.25500000000E-02 0.  1.
         25    2    1    2    0    0 -0.20589457203E+03  0.29933384191E+03  0.36518987558E+03  0.53007118227E+03  0.12497395463E+03 0.  0.
         23    2    1    2    0    0  0.20589457203E+03 -0.29933384191E+03  0.21558066327E+03  0.43073076639E+03  0.84027656363E+02 0.  0.
        -11    1    4    4    0    0  0.68364694653E+02 -0.93262729652E+02  0.25373133081E+02  0.11838692537E+03  0.51100000000E-03 0.  1.
         11    1    4    4    0    0  0.13752987738E+03 -0.20607111226E+03  0.19020753019E+03  0.31234384101E+03  0.51100000000E-03 0. -1.
    9000005    1    3    3    0    0 -0.21666082887E+03  0.28195989480E+03  0.31193465118E+03  0.47301958061E+03  0.10000000000E+01 0.  0.
    9000005    1    3    3    0    0  0.10766256834E+02  0.17373947112E+02  0.53255224406E+02  0.57051601652E+02  0.10000000000E+01 0.  0.
<mgrwt>
<rscale>  0 0.38134525E+03</rscale>
<asrwt>0</asrwt>
<pdfrwt beam="1">  1        2 0.11858250E+00 0.38420283E+03</pdfrwt>
<pdfrwt beam="2">  1       -2 0.29233185E-01 0.38420283E+03</pdfrwt>
<totfact> 0.39835921E+02</totfact>
</mgrwt>
</event>
<event>
 8    2  0.1628804E-003  0.1525008E+03  0.7818608E-02  0.1202150E+00
         -2   -1    0    0    0  501 -0.00000000000E+00  0.00000000000E+00  0.78459256054E+03  0.78459256055E+03  0.25500000000E-02 0. -1.
          2   -1    0    0  501    0  0.00000000000E+00 -0.00000000000E+00 -0.30936895718E+02  0.30936895823E+02  0.25500000000E-02 0.  1.
         25    2    1    2    0    0 -0.58514928015E+02 -0.64879853475E+02  0.54205451912E+03  0.56309822261E+03  0.12499245748E+03 0.  0.
         23    2    1    2    0    0  0.58514928015E+02  0.64879853475E+02  0.21160114571E+03  0.25243123376E+03  0.10636301389E+03 0.  0.
        -11    1    4    4    0    0  0.85400324401E+02  0.56729506719E+02  0.19358101279E+03  0.21905492657E+03  0.51100000000E-03 0. -1.
         11    1    4    4    0    0 -0.26885396386E+02  0.81503467564E+01  0.18020132924E+02  0.33376307195E+02  0.51100000000E-03 0.  1.
    9000005    1    3    3    0    0 -0.38415526847E+02 -0.94542529436E+02  0.26912853210E+03  0.28782843738E+03  0.10000000000E+01 0.  0.
    9000005    1    3    3    0    0 -0.20099401168E+02  0.29662675961E+02  0.27292598702E+03  0.27526978523E+03  0.10000000000E+01 0.  0.
<mgrwt>
<rscale>  0 0.14864327E+03</rscale>
<asrwt>0</asrwt>
<pdfrwt beam="2">  1        2 0.47595219E-02 0.15250084E+03</pdfrwt>
<pdfrwt beam="1">  1       -2 0.12070656E+00 0.15250084E+03</pdfrwt>
<totfact> 0.89780307E+02</totfact>
</mgrwt>
</event>
<event>
 8    2  0.1628804E-003  0.1425497E+03  0.7818608E-02  0.1221248E+00
         -2   -1    0    0    0  501 -0.00000000000E+00  0.00000000000E+00  0.79046635117E+01  0.79046639231E+01  0.25500000000E-02 0.  1.
          2   -1    0    0  501    0  0.00000000000E+00 -0.00000000000E+00 -0.21145163293E+04  0.21145163293E+04  0.25500000000E-02 0. -1.
         25    2    1    2    0    0  0.67413221482E+02  0.12276768246E+02 -0.13550388644E+04  0.13625163232E+04  0.12500058211E+03 0.  0.
         23    2    1    2    0    0 -0.67413221482E+02 -0.12276768246E+02 -0.75157280137E+03  0.75990466999E+03  0.88871650392E+02 0.  0.
        -11    1    4    4    0    0 -0.49486370744E+02  0.21598012470E+02 -0.20505392785E+03  0.21204360014E+03  0.51100000000E-03 0.  1.
         11    1    4    4    0    0 -0.17926850738E+02 -0.33874780717E+02 -0.54651887352E+03  0.54786106985E+03  0.51100000000E-03 0. -1.
    9000005    1    3    3    0    0 -0.24100263598E+02 -0.15345650501E+01 -0.75449703616E+03  0.75488406737E+03  0.10000000000E+01 0.  0.
    9000005    1    3    3    0    0  0.91513485080E+02  0.13811333297E+02 -0.60054182821E+03  0.60763225581E+03  0.10000000000E+01 0.  0.
<mgrwt>
<rscale>  0 0.13427423E+03</rscale>
<asrwt>0</asrwt>
<pdfrwt beam="2">  1        2 0.32530975E+00 0.14254967E+03</pdfrwt>
<pdfrwt beam="1">  1       -2 0.12161038E-02 0.14254967E+03</pdfrwt>
<totfact> 0.10214150E+04</totfact>
</mgrwt>
</event>
<event>
 8    2  0.1628804E-003  0.1705079E+03  0.7818608E-02  0.1180085E+00
         -2   -1    0    0    0  501 -0.00000000000E+00  0.00000000000E+00  0.63544075372E+02  0.63544075423E+02  0.25500000000E-02 0.  1.
          2   -1    0    0  501    0  0.00000000000E+00 -0.00000000000E+00 -0.43392923383E+03  0.43392923384E+03  0.25500000000E-02 0. -1.
         25    2    1    2    0    0  0.32179966459E+02 -0.11141203977E+03 -0.21365566139E+03  0.27335268660E+03  0.12499902712E+03 0.  0.
         23    2    1    2    0    0 -0.32179966459E+02  0.11141203977E+03 -0.15672949707E+03  0.22412062266E+03  0.11053382017E+03 0.  0.
        -11    1    4    4    0    0  0.11068126162E+02  0.46506003703E+02  0.13750842789E+01  0.47824707571E+02  0.51100000000E-03 0.  1.
         11    1    4    4    0    0 -0.43248092621E+02  0.64906036070E+02 -0.15810458135E+03  0.17629591509E+03  0.51100000000E-03 0. -1.
    9000005    1    3    3    0    0  0.72380225912E+02 -0.10433823451E+03 -0.18081853734E+03  0.22095634802E+03  0.10000000000E+01 0.  0.
    9000005    1    3    3    0    0 -0.40200259453E+02 -0.70738052588E+01 -0.32837124051E+02  0.52396338583E+02  0.10000000000E+01 0.  0.
<mgrwt>
<rscale>  0 0.16787190E+03</rscale>
<asrwt>0</asrwt>
<pdfrwt beam="2">  1        2 0.66758342E-01 0.17050792E+03</pdfrwt>
<pdfrwt beam="1">  1       -2 0.97760119E-02 0.17050792E+03</pdfrwt>
<totfact> 0.48911461E+03</totfact>
</mgrwt>
</event>
<event>
 8    2  0.1628804E-003  0.1832570E+03  0.7818608E-02  0.1169906E+00
         -2   -1    0    0    0  501 -0.00000000000E+00  0.00000000000E+00  0.87180228486E+02  0.87180228523E+02  0.25500000000E-02 0.  1.
          2   -1    0    0  501    0  0.00000000000E+00 -0.00000000000E+00 -0.34499605409E+03  0.34499605410E+03  0.25500000000E-02 0. -1.
         25    2    1    2    0    0 -0.13017993887E+03 -0.31821747075E+02 -0.15334972126E+03  0.23895452258E+03  0.12499474702E+03 0.  0.
         23    2    1    2    0    0  0.13017993887E+03  0.31821747075E+02 -0.10446610435E+03  0.19322176004E+03  0.91989355488E+02 0.  0.
        -11    1    4    4    0    0  0.84745845374E+02 -0.78579979814E+01 -0.16712108836E+02  0.86734658716E+02  0.51100000000E-03 0.  1.
         11    1    4    4    0    0  0.45434093499E+02  0.39679745056E+02 -0.87753995512E+02  0.10648710132E+03  0.51100000000E-03 0. -1.
    9000005    1    3    3    0    0 -0.10429106929E+03 -0.45164904344E+02 -0.37784199150E+02  0.11977120448E+03  0.10000000000E+01 0.  0.
    9000005    1    3    3    0    0 -0.25888869588E+02  0.13343157270E+02 -0.11556552211E+03  0.11918331810E+03  0.10000000000E+01 0.  0.
<mgrwt>
<rscale>  0 0.17784435E+03</rscale>
<asrwt>0</asrwt>
<pdfrwt beam="2">  1        2 0.53076315E-01 0.18325700E+03</pdfrwt>
<pdfrwt beam="1">  1       -2 0.13412343E-01 0.18325700E+03</pdfrwt>
<totfact> 0.37876640E+03</totfact>
</mgrwt>
</event>
<event>
 8    2  0.1628804E-003  0.1780025E+03  0.7818608E-02  0.1176219E+00
         -2   -1    0    0    0  501 -0.00000000000E+00  0.00000000000E+00  0.11847484488E+02  0.11847484763E+02  0.25500000000E-02 0.  1.
          2   -1    0    0  501    0  0.00000000000E+00 -0.00000000000E+00 -0.24497085847E+04  0.24497085847E+04  0.25500000000E-02 0. -1.
         25    2    1    2    0    0  0.12509405063E+03 -0.20301586654E+02 -0.10222203213E+04  0.10376026527E+04  0.12499681455E+03 0.  0.
         23    2    1    2    0    0 -0.12509405063E+03  0.20301586654E+02 -0.14156407789E+04  0.14239534168E+04  0.86855295367E+02 0.  0.
        -11    1    4    4    0    0 -0.10602399994E+03  0.50875371953E+02 -0.10887081820E+04  0.10950410483E+04  0.51100000000E-03 0.  1.
         11    1    4    4    0    0 -0.19070050685E+02 -0.30573785299E+02 -0.32693259693E+03  0.32891236844E+03  0.51100000000E-03 0. -1.
    9000005    1    3    3    0    0 -0.13848393361E+02  0.25612098325E+02 -0.24501595812E+03  0.24674192451E+03  0.10000000000E+01 0.  0.
    9000005    1    3    3    0    0  0.13894244399E+03 -0.45913684979E+02 -0.77720436323E+03  0.79086072822E+03  0.10000000000E+01 0.  0.
<mgrwt>
<rscale>  0 0.17157101E+03</rscale>
<asrwt>0</asrwt>
<pdfrwt beam="2">  1        2 0.37687784E+00 0.17800247E+03</pdfrwt>
<pdfrwt beam="1">  1       -2 0.18226919E-02 0.17800247E+03</pdfrwt>
<totfact> 0.38002373E+03</totfact>
</mgrwt>
</event>
<event>
 8    2  0.1628804E-003  0.1323161E+03  0.7818608E-02  0.1236155E+00
         -2   -1    0    0    0  501 -0.00000000000E+00  0.00000000000E+00  0.54355235347E+01  0.54355241328E+01  0.25500000000E-02 0.  1.
          2   -1    0    0  501    0  0.00000000000E+00 -0.00000000000E+00 -0.28372121119E+04  0.28372121119E+04  0.25500000000E-02 0. -1.
         25    2    1    2    0    0 -0.41698299577E+02  0.12012172528E+02 -0.20241172770E+04  0.20284374016E+04  0.12499800305E+03 0.  0.
         23    2    1    2    0    0  0.41698299577E+02 -0.12012172528E+02 -0.80765931140E+03  0.81421023445E+03  0.93497070073E+02 0.  0.
        -11    1    4    4    0    0  0.23704678443E+02 -0.41983721671E+02 -0.68421276195E+03  0.68590935865E+03  0.51100000000E-03 0. -1.
         11    1    4    4    0    0  0.17993621135E+02  0.29971549144E+02 -0.12344654944E+03  0.12830087579E+03  0.51100000000E-03 0.  1.
    9000005    1    3    3    0    0  0.26783223910E+02 -0.25446781521E+02 -0.12152694053E+04  0.12158312412E+04  0.10000000000E+01 0.  0.
    9000005    1    3    3    0    0 -0.68481523487E+02  0.37458954049E+02 -0.80884787169E+03  0.81260616035E+03  0.10000000000E+01 0.  0.
<mgrwt>
<rscale>  0 0.12430805E+03</rscale>
<asrwt>0</asrwt>
<pdfrwt beam="2">  1        2 0.43649299E+00 0.13231607E+03</pdfrwt>
<pdfrwt beam="1">  1       -2 0.83623670E-03 0.13231607E+03</pdfrwt>
<totfact> 0.71631345E+03</totfact>
</mgrwt>
</event>
<event>
 8    2  0.1628804E-003  0.1469501E+03  0.7818608E-02  0.1213858E+00
          2   -1    0    0  501    0  0.00000000000E+00  0.00000000000E+00  0.21545144970E+04  0.21545144970E+04  0.25500000000E-02 0. -1.
         -2   -1    0    0    0  501 -0.00000000000E+00 -0.00000000000E+00 -0.83132715554E+01  0.83132719465E+01  0.25500000000E-02 0.  1.
         25    2    1    2    0    0  0.41290953744E+02  0.65310107154E+02  0.10887664713E+04  0.10986385933E+04  0.12499590672E+03 0.  0.
         23    2    1    2    0    0 -0.41290953744E+02 -0.65310107154E+02  0.10574347541E+04  0.10641891756E+04  0.91432977331E+02 0.  0.
        -11    1    4    4    0    0 -0.63417793624E+02 -0.33101128619E+02  0.85701100589E+03  0.85999149152E+03  0.51100000000E-03 0.  1.
         11    1    4    4    0    0  0.22126839880E+02 -0.32208978535E+02  0.20042374823E+03  0.20419768412E+03  0.51100000000E-03 0. -1.
    9000005    1    3    3    0    0  0.49140192906E+02 -0.13797178258E+02  0.20335169105E+03  0.20966170595E+03  0.10000000000E+01 0.  0.
    9000005    1    3    3    0    0 -0.78492391619E+01  0.79107285412E+02  0.88541478029E+03  0.88897688740E+03  0.10000000000E+01 0.  0.
<mgrwt>
<rscale>  0 0.13960773E+03</rscale>
<asrwt>0</asrwt>
<pdfrwt beam="1">  1        2 0.33146398E+00 0.14695009E+03</pdfrwt>
<pdfrwt beam="2">  1       -2 0.12789641E-02 0.14695009E+03</pdfrwt>
<totfact> 0.90654180E+03</totfact>
</mgrwt>
</event>
<event>
 8    2  0.1628804E-003  0.1569711E+03  0.7818608E-02  0.1200520E+00
         -2   -1    0    0    0  501 -0.00000000000E+00  0.00000000000E+00  0.65356648052E+02  0.65356648102E+02  0.25500000000E-02 0. -1.
          2   -1    0    0  501    0  0.00000000000E+00 -0.00000000000E+00 -0.31965789051E+03  0.31965789052E+03  0.25500000000E-02 0.  1.
         25    2    1    2    0    0  0.94949970871E+02 -0.81832362201E-01 -0.15714665127E+03  0.22211483110E+03  0.12499769807E+03 0.  0.
         23    2    1    2    0    0 -0.94949970871E+02  0.81832362201E-01 -0.97154591185E+02  0.16289970752E+03  0.89898812326E+02 0.  0.
        -11    1    4    4    0    0 -0.84312746050E+02 -0.27789445070E+02 -0.37834107636E+02  0.96500321785E+02  0.51100000000E-03 0. -1.
         11    1    4    4    0    0 -0.10637224821E+02  0.27871277432E+02 -0.59320483548E+02  0.66399385737E+02  0.51100000000E-03 0.  1.
    9000005    1    3    3    0    0  0.94624969231E+02  0.29339244891E+02 -0.49958621346E+02  0.11095737893E+03  0.10000000000E+01 0.  0.
    9000005    1    3    3    0    0  0.32500163999E+00 -0.29421077253E+02 -0.10718802992E+03  0.11115745217E+03  0.10000000000E+01 0.  0.
<mgrwt>
<rscale>  0 0.14996183E+03</rscale>
<asrwt>0</asrwt>
<pdfrwt beam="2">  1        2 0.49178136E-01 0.15697111E+03</pdfrwt>
<pdfrwt beam="1">  1       -2 0.10054869E-01 0.15697111E+03</pdfrwt>
<totfact> 0.64656897E+03</totfact>
</mgrwt>
</event>
<event>
 8    2  0.1628804E-003  0.1405606E+03  0.7818608E-02  0.1223230E+00
         -2   -1    0    0    0  501 -0.00000000000E+00  0.00000000000E+00  0.25781903611E+02  0.25781903737E+02  0.25500000000E-02 0.  1.
          2   -1    0    0  501    0  0.00000000000E+00 -0.00000000000E+00 -0.71002062963E+03  0.71002062964E+03  0.25500000000E-02 0. -1.
         25    2    1    2    0    0 -0.29637517228E+02  0.57044188101E+02 -0.50579932967E+03  0.52496689615E+03  0.12499943337E+03 0.  0.
         23    2    1    2    0    0  0.29637517228E+02 -0.57044188101E+02 -0.17843939636E+03  0.21083563722E+03  0.92079454424E+02 0.  0.
        -11    1    4    4    0    0  0.26196398534E+02 -0.50002069521E+02 -0.18924625057E+03  0.19748569976E+03  0.51100000000E-03 0. -1.
         11    1    4    4    0    0  0.34411186946E+01 -0.70421185801E+01  0.10806854217E+02  0.13349937464E+02  0.51100000000E-03 0.  1.
    9000005    1    3    3    0    0  0.18303638447E+02  0.27295399442E+02 -0.26152712874E+02  0.42012217292E+02  0.10000000000E+01 0.  0.
    9000005    1    3    3    0    0 -0.47941155675E+02  0.29748788659E+02 -0.47964661679E+03  0.48295467886E+03  0.10000000000E+01 0.  0.
<mgrwt>
<rscale>  0 0.13288978E+03</rscale>
<asrwt>0</asrwt>
<pdfrwt beam="2">  1        2 0.10923393E+00 0.14056059E+03</pdfrwt>
<pdfrwt beam="1">  1       -2 0.39664473E-02 0.14056059E+03</pdfrwt>
<totfact> 0.10996670E+04</totfact>
</mgrwt>
</event>
<event>
 8    2  0.1628804E-003  0.1261883E+03  0.7818608E-02  0.1248547E+00
          2   -1    0    0  501    0  0.00000000000E+00  0.00000000000E+00  0.85831143108E+03  0.85831143108E+03  0.25500000000E-02 0. -1.
         -2   -1    0    0    0  501 -0.00000000000E+00 -0.00000000000E+00 -0.17768430367E+02  0.17768430550E+02  0.25500000000E-02 0.  1.
         25    2    1    2    0    0  0.10514345549E+02 -0.13653235491E+02  0.26929357721E+03  0.29739284729E+03  0.12500605023E+03 0.  0.
         23    2    1    2    0    0 -0.10514345549E+02  0.13653235491E+02  0.57124942350E+03  0.57868701434E+03  0.90861402208E+02 0.  0.
        -11    1    4    4    0    0  0.18452320502E+02  0.10607210941E+02  0.30715959840E+02  0.37369389144E+02  0.51100000000E-03 0.  1.
         11    1    4    4    0    0 -0.28966666051E+02  0.30460245498E+01  0.54053346366E+03  0.54131762519E+03  0.51100000000E-03 0. -1.
    9000005    1    3    3    0    0 -0.48850961898E+02  0.21838805348E+02  0.83919026359E+02  0.99532672437E+02  0.10000000000E+01 0.  0.
    9000005    1    3    3    0    0  0.59365307447E+02 -0.35492040839E+02  0.18537455085E+03  0.19786017486E+03  0.10000000000E+01 0.  0.
<mgrwt>
<rscale>  0 0.11675553E+03</rscale>
<asrwt>0</asrwt>
<pdfrwt beam="1">  1        2 0.13204787E+00 0.12618825E+03</pdfrwt>
<pdfrwt beam="2">  1       -2 0.27336055E-02 0.12618825E+03</pdfrwt>
<totfact> 0.14958214E+04</totfact>
</mgrwt>
</event>
<event>
 8    2  0.1628804E-003  0.1254884E+03  0.7818608E-02  0.1250089E+00
          2   -1    0    0  501    0  0.00000000000E+00  0.00000000000E+00  0.20822330695E+03  0.20822330697E+03  0.25500000000E-02 0. -1.
         -2   -1    0    0    0  501 -0.00000000000E+00 -0.00000000000E+00 -0.56822853483E+02  0.56822853540E+02  0.25500000000E-02 0.  1.
         25    2    1    2    0    0 -0.11019630205E+02  0.92156893183E+00  0.75838699673E+02  0.14662485033E+03  0.12500022730E+03 0.  0.
         23    2    1    2    0    0  0.11019630205E+02 -0.92156893183E+00  0.75561753799E+02  0.11842131018E+03  0.90508267740E+02 0.  0.
        -11    1    4    4    0    0  0.22942656199E+02 -0.14872399636E+02 -0.11342307359E+02  0.29600704060E+02  0.51100000000E-03 0.  1.
         11    1    4    4    0    0 -0.11923025995E+02  0.13950830704E+02  0.86904061158E+02  0.88820606124E+02  0.51100000000E-03 0. -1.
    9000005    1    3    3    0    0  0.87951559286E+01  0.47009690024E+02  0.83139963007E+02  0.95919336804E+02  0.10000000000E+01 0.  0.
    9000005    1    3    3    0    0 -0.19814786133E+02 -0.46088121092E+02 -0.73012633345E+01  0.50705513523E+02  0.10000000000E+01 0.  0.
<mgrwt>
<rscale>  0 0.11585883E+03</rscale>
<asrwt>0</asrwt>
<pdfrwt beam="1">  1        2 0.32034355E-01 0.12548840E+03</pdfrwt>
<pdfrwt beam="2">  1       -2 0.87419776E-02 0.12548840E+03</pdfrwt>
<totfact> 0.12506456E+04</totfact>
</mgrwt>
</event>
<event>
 8    2  0.1628804E-003  0.1501206E+03  0.7818608E-02  0.1208542E+00
         -2   -1    0    0    0  501 -0.00000000000E+00  0.00000000000E+00  0.12835820783E+03  0.12835820785E+03  0.25500000000E-02 0.  1.
          2   -1    0    0  501    0  0.00000000000E+00 -0.00000000000E+00 -0.17501890230E+03  0.17501890232E+03  0.25500000000E-02 0. -1.
         25    2    1    2    0    0  0.61719827396E+02 -0.55684248287E+02  0.34074356326E+02  0.15393914829E+03  0.12500450798E+03 0.  0.
         23    2    1    2    0    0 -0.61719827396E+02  0.55684248287E+02 -0.80735050798E+02  0.14943796188E+03  0.94358271622E+02 0.  0.
        -11    1    4    4    0    0 -0.37676774207E+02  0.79860014479E+02 -0.41835377421E+02  0.97710593241E+02  0.51100000000E-03 0.  1.
         11    1    4    4    0    0 -0.24043053189E+02 -0.24175766192E+02 -0.38899673376E+02  0.51727368643E+02  0.51100000000E-03 0. -1.
    9000005    1    3    3    0    0 -0.46652227750E+01  0.28664550395E+02 -0.18462960151E+02  0.34428210096E+02  0.10000000000E+01 0.  0.
    9000005    1    3    3    0    0  0.66385050171E+02 -0.84348798682E+02  0.52537316477E+02  0.11951093819E+03  0.10000000000E+01 0.  0.
<mgrwt>
<rscale>  0 0.14361802E+03</rscale>
<asrwt>0</asrwt>
<pdfrwt beam="2">  1        2 0.26925985E-01 0.15012062E+03</pdfrwt>
<pdfrwt beam="1">  1       -2 0.19747417E-01 0.15012062E+03</pdfrwt>
<totfact> 0.41012487E+03</totfact>
</mgrwt>
</event>
<event>
 8    2  0.1628804E-003  0.1628087E+03  0.7818608E-02  0.1192778E+00
          2   -1    0    0  501    0  0.00000000000E+00  0.00000000000E+00  0.96584339594E+03  0.96584339594E+03  0.25500000000E-02 0. -1.
         -2   -1    0    0    0  501 -0.00000000000E+00 -0.00000000000E+00 -0.26009160956E+02  0.26009161081E+02  0.25500000000E-02 0.  1.
         25    2    1    2    0    0  0.95507989096E+01  0.10387695055E+03  0.35154610557E+03  0.38741624759E+03  0.12500018376E+03 0.  0.
         23    2    1    2    0    0 -0.95507989096E+01 -0.10387695055E+03  0.58828812941E+03  0.60443630943E+03  0.91535186333E+02 0.  0.
        -11    1    4    4    0    0 -0.19322586903E+02 -0.21841147138E+02  0.37588065877E+02  0.47573740336E+02  0.51100000000E-03 0.  1.
         11    1    4    4    0    0  0.97717879934E+01 -0.82035803409E+02  0.55070006353E+03  0.55686256909E+03  0.51100000000E-03 0. -1.
    9000005    1    3    3    0    0  0.59564730374E+02  0.22164352825E+02  0.10288534631E+03  0.12093638876E+03  0.10000000000E+01 0.  0.
    9000005    1    3    3    0    0 -0.50013931465E+02  0.81712597722E+02  0.24866075926E+03  0.26647985883E+03  0.10000000000E+01 0.  0.
<mgrwt>
<rscale>  0 0.15643763E+03</rscale>
<asrwt>0</asrwt>
<pdfrwt beam="1">  1        2 0.14859131E+00 0.16280874E+03</pdfrwt>
<pdfrwt beam="2">  1       -2 0.40014088E-02 0.16280874E+03</pdfrwt>
<totfact> 0.74012470E+03</totfact>
</mgrwt>
</event>
<event>
 8    2  0.1628804E-003  0.1676441E+03  0.7818608E-02  0.1187056E+00
          2   -1    0    0  501    0  0.00000000000E+00  0.00000000000E+00  0.41636099448E+03  0.41636099449E+03  0.25500000000E-02 0. -1.
         -2   -1    0    0    0  501 -0.00000000000E+00 -0.00000000000E+00 -0.60278550277E+02  0.60278550331E+02  0.25500000000E-02 0.  1.
         25    2    1    2    0    0  0.11170532472E+03 -0.20105487450E+01  0.23282398629E+03  0.28689992243E+03  0.12498973966E+03 0.  0.
         23    2    1    2    0    0 -0.11170532472E+03  0.20105487450E+01  0.12325845792E+03  0.18973962240E+03  0.91248862913E+02 0.  0.
        -11    1    4    4    0    0 -0.68793276556E+02 -0.42936891410E+02  0.80808956264E+02  0.11448222114E+03  0.51100000000E-03 0. -1.
         11    1    4    4    0    0 -0.42912048160E+02  0.44947440155E+02  0.42449501653E+02  0.75257401261E+02  0.51100000000E-03 0.  1.
    9000005    1    3    3    0    0  0.87937681114E+01  0.51022601953E+02  0.76160810460E+02  0.92098345900E+02  0.10000000000E+01 0.  0.
    9000005    1    3    3    0    0  0.10291155661E+03 -0.53033150698E+02  0.15666317583E+03  0.19480157653E+03  0.10000000000E+01 0.  0.
<mgrwt>
<rscale>  0 0.16146237E+03</rscale>
<asrwt>0</asrwt>
<pdfrwt beam="1">  1        2 0.64055537E-01 0.16764414E+03</pdfrwt>
<pdfrwt beam="2">  1       -2 0.92736233E-02 0.16764414E+03</pdfrwt>
<totfact> 0.55531380E+03</totfact>
</mgrwt>
</event>
<event>
 8    2  0.1628804E-003  0.1348539E+03  0.7818608E-02  0.1233101E+00
          2   -1    0    0  501    0  0.00000000000E+00  0.00000000000E+00  0.43164798562E+03  0.43164798563E+03  0.25500000000E-02 0. -1.
         -2   -1    0    0    0  501 -0.00000000000E+00 -0.00000000000E+00 -0.32952776178E+02  0.32952776276E+02  0.25500000000E-02 0.  1.
         25    2    1    2    0    0 -0.15484577165E+02 -0.48117982010E+02  0.22225197596E+03  0.25996442579E+03  0.12502179624E+03 0.  0.
         23    2    1    2    0    0  0.15484577165E+02  0.48117982010E+02  0.17644323348E+03  0.20463633612E+03  0.90491453160E+02 0.  0.
        -11    1    4    4    0    0 -0.32241449452E+02  0.55612385996E+01  0.28213041361E+02  0.43202015469E+02  0.51100000000E-03 0.  1.
         11    1    4    4    0    0  0.47726026617E+02  0.42556743411E+02  0.14823019212E+03  0.16143432065E+03  0.51100000000E-03 0. -1.
    9000005    1    3    3    0    0 -0.19929182782E+02  0.39541377708E+01 -0.94567557546E+01  0.22432961491E+02  0.10000000000E+01 0.  0.
    9000005    1    3    3    0    0  0.44446056169E+01 -0.52072119781E+02  0.23170873172E+03  0.23753146430E+03  0.10000000000E+01 0.  0.
<mgrwt>
<rscale>  0 0.12626772E+03</rscale>
<asrwt>0</asrwt>
<pdfrwt beam="1">  1        2 0.66407370E-01 0.13485385E+03</pdfrwt>
<pdfrwt beam="2">  1       -2 0.50696588E-02 0.13485385E+03</pdfrwt>
<totfact> 0.13296159E+04</totfact>
</mgrwt>
</event>
<event>
 8    2  0.1628804E-003  0.1358763E+03  0.7818608E-02  0.1230237E+00
         -2   -1    0    0    0  501 -0.00000000000E+00  0.00000000000E+00  0.14824451391E+02  0.14824451610E+02  0.25500000000E-02 0. -1.
          2   -1    0    0  501    0  0.00000000000E+00 -0.00000000000E+00 -0.11309512480E+04  0.11309512480E+04  0.25500000000E-02 0.  1.
         25    2    1    2    0    0  0.44979212957E+02  0.28500216252E+02 -0.81022269540E+03  0.82153708184E+03  0.12500787480E+03 0.  0.
         23    2    1    2    0    0 -0.44979212957E+02 -0.28500216252E+02 -0.30590410125E+03  0.32423861782E+03  0.93370071221E+02 0.  0.
        -11    1    4    4    0    0 -0.22744345195E+02  0.33801843793E+02 -0.10045403490E+03  0.10840148989E+03  0.51100000000E-03 0.  1.
         11    1    4    4    0    0 -0.22234867762E+02 -0.62302060045E+02 -0.20545006635E+03  0.21583712793E+03  0.51100000000E-03 0. -1.
    9000005    1    3    3    0    0  0.29460810436E+02 -0.42325156397E+02 -0.18277638035E+03  0.18991462142E+03  0.10000000000E+01 0.  0.
    9000005    1    3    3    0    0  0.15518402520E+02  0.70825372649E+02 -0.62744631505E+03  0.63162246041E+03  0.10000000000E+01 0.  0.
<mgrwt>
<rscale>  0 0.12814341E+03</rscale>
<asrwt>0</asrwt>
<pdfrwt beam="2">  1        2 0.17399243E+00 0.13587627E+03</pdfrwt>
<pdfrwt beam="1">  1       -2 0.22806857E-02 0.13587627E+03</pdfrwt>
<totfact> 0.13430385E+04</totfact>
</mgrwt>
</event>
<event>
 8    2  0.1628804E-003  0.1400442E+03  0.7818608E-02  0.1224132E+00
          2   -1    0    0  501    0  0.00000000000E+00  0.00000000000E+00  0.39707084372E+02  0.39707084454E+02  0.25500000000E-02 0. -1.
         -2   -1    0    0    0  501 -0.00000000000E+00 -0.00000000000E+00 -0.47724624928E+03  0.47724624929E+03  0.25500000000E-02 0.  1.
         25    2    1    2    0    0 -0.32350768109E+02  0.54224048692E+02 -0.13488509366E+03  0.19443862270E+03  0.12500227938E+03 0.  0.
         23    2    1    2    0    0  0.32350768109E+02 -0.54224048692E+02 -0.30265407125E+03  0.32251471105E+03  0.91811940095E+02 0.  0.
        -11    1    4    4    0    0 -0.28472109370E+02 -0.28721527708E+02 -0.16489025947E+03  0.16977745679E+03  0.51100000000E-03 0. -1.
         11    1    4    4    0    0  0.60822877480E+02 -0.25502520984E+02 -0.13776381177E+03  0.15273725425E+03  0.51100000000E-03 0.  1.
    9000005    1    3    3    0    0 -0.59252018774E+02 -0.18125800558E+02 -0.49351516137E+02  0.79220695021E+02  0.10000000000E+01 0.  0.
    9000005    1    3    3    0    0  0.26901250665E+02  0.72349849250E+02 -0.85533577528E+02  0.11521792768E+03  0.10000000000E+01 0.  0.
<mgrwt>
<rscale>  0 0.13226586E+03</rscale>
<asrwt>0</asrwt>
<pdfrwt beam="1">  1        2 0.61087826E-02 0.14004424E+03</pdfrwt>
<pdfrwt beam="2">  1       -2 0.73422496E-01 0.14004424E+03</pdfrwt>
<totfact> 0.20013092E+03</totfact>
</mgrwt>
</event>
<event>
 8    2  0.1628804E-003  0.1365762E+03  0.7818608E-02  0.1229864E+00
         -2   -1    0    0    0  501 -0.00000000000E+00  0.00000000000E+00  0.39164871639E+02  0.39164871722E+02  0.25500000000E-02 0.  1.
          2   -1    0    0  501    0  0.00000000000E+00 -0.00000000000E+00 -0.37772581144E+03  0.37772581145E+03  0.25500000000E-02 0. -1.
         25    2    1    2    0    0 -0.30323482296E+02 -0.45967813618E+02 -0.18741835649E+03  0.23190235330E+03  0.12498202930E+03 0.  0.
         23    2    1    2    0    0  0.30323482296E+02  0.45967813618E+02 -0.15114258331E+03  0.18498832987E+03  0.91345761981E+02 0.  0.
        -11    1    4    4    0    0 -0.79977299308E+01  0.29667056319E+02 -0.13791150373E+03  0.14129289004E+03  0.51100000000E-03 0.  1.
         11    1    4    4    0    0  0.38321212227E+02  0.16300757299E+02 -0.13231079583E+02  0.43695439834E+02  0.51100000000E-03 0. -1.
    9000005    1    3    3    0    0 -0.71954702019E+02 -0.48212196600E+02 -0.16015339256E+03  0.18207691834E+03  0.10000000000E+01 0.  0.
    9000005    1    3    3    0    0  0.41631219723E+02  0.22443829825E+01 -0.27264963926E+02  0.49825434955E+02  0.10000000000E+01 0.  0.
<mgrwt>
<rscale>  0 0.12839049E+03</rscale>
<asrwt>0</asrwt>
<pdfrwt beam="2">  1        2 0.58111661E-01 0.13657621E+03</pdfrwt>
<pdfrwt beam="1">  1       -2 0.60253651E-02 0.13657621E+03</pdfrwt>
<totfact> 0.11828879E+04</totfact>
</mgrwt>
</event>
<event>
 8    2  0.1628804E-003  0.2346950E+03  0.7818608E-02  0.1126540E+00
         -2   -1    0    0    0  501 -0.00000000000E+00  0.00000000000E+00  0.90305128248E+02  0.90305128284E+02  0.25500000000E-02 0.  1.
          2   -1    0    0  501    0  0.00000000000E+00 -0.00000000000E+00 -0.72967967522E+03  0.72967967523E+03  0.25500000000E-02 0. -1.
         25    2    1    2    0    0  0.13764076715E+03  0.14322117859E+03 -0.13463010284E+03  0.27056791852E+03  0.12499778863E+03 0.  0.
         23    2    1    2    0    0 -0.13764076715E+03 -0.14322117859E+03 -0.50474444414E+03  0.54941688499E+03  0.87376614987E+02 0.  0.
        -11    1    4    4    0    0 -0.29197647737E+02 -0.62205297094E+02 -0.26835903632E+03  0.27701728104E+03  0.51100000000E-03 0. -1.
         11    1    4    4    0    0 -0.10844311942E+03 -0.81015881496E+02 -0.23638540781E+03  0.27239960395E+03  0.51100000000E-03 0.  1.
    9000005    1    3    3    0    0  0.15902159822E+03  0.10418037490E+03 -0.10666105245E+03  0.21798853026E+03  0.10000000000E+01 0.  0.
    9000005    1    3    3    0    0 -0.21380831071E+02  0.39040803686E+02 -0.27969050390E+02  0.52579388257E+02  0.10000000000E+01 0.  0.
<mgrwt>
<rscale>  0 0.23014217E+03</rscale>
<asrwt>0</asrwt>
<pdfrwt beam="2">  1        2 0.11225841E+00 0.23469498E+03</pdfrwt>
<pdfrwt beam="1">  1       -2 0.13893097E-01 0.23469498E+03</pdfrwt>
<totfact> 0.15472987E+03</totfact>
</mgrwt>
</event>
<event>
 8    2  0.1628804E-003  0.1804060E+03  0.7818608E-02  0.1172654E+00
          2   -1    0    0  501    0  0.00000000000E+00  0.00000000000E+00  0.64782116149E+03  0.64782116150E+03  0.25500000000E-02 0. -1.
         -2   -1    0    0    0  501 -0.00000000000E+00 -0.00000000000E+00 -0.56686418417E+02  0.56686418475E+02  0.25500000000E-02 0.  1.
         25    2    1    2    0    0  0.75966407145E+02 -0.10559773626E+03  0.14793329514E+03  0.23330363355E+03  0.12499819477E+03 0.  0.
         23    2    1    2    0    0 -0.75966407145E+02  0.10559773626E+03  0.44320144793E+03  0.47120394642E+03  0.93187224220E+02 0.  0.
        -11    1    4    4    0    0 -0.34576456331E+02  0.10339415769E+03  0.38225969001E+03  0.39750264626E+03  0.51100000000E-03 0.  1.
         11    1    4    4    0    0 -0.41389950813E+02  0.22035785708E+01  0.60941757922E+02  0.73701300163E+02  0.51100000000E-03 0. -1.
    9000005    1    3    3    0    0  0.10980522099E+03 -0.75933502453E+02  0.12453693668E+03  0.18257472976E+03  0.10000000000E+01 0.  0.
    9000005    1    3    3    0    0 -0.33838813842E+02 -0.29664233810E+02  0.23396358462E+02  0.50728903783E+02  0.10000000000E+01 0.  0.
<mgrwt>
<rscale>  0 0.17507744E+03</rscale>
<asrwt>0</asrwt>
<pdfrwt beam="1">  1        2 0.99664788E-01 0.18040600E+03</pdfrwt>
<pdfrwt beam="2">  1       -2 0.87209880E-02 0.18040600E+03</pdfrwt>
<totfact> 0.37400811E+03</totfact>
</mgrwt>
</event>
<event>
 8    2  0.1628804E-003  0.1322254E+03  0.7818608E-02  0.1237559E+00
         -2   -1    0    0    0  501 -0.00000000000E+00  0.00000000000E+00  0.57756961206E+01  0.57756966835E+01  0.25500000000E-02 0.  1.
          2   -1    0    0  501    0  0.00000000000E+00 -0.00000000000E+00 -0.24250568494E+04  0.24250568494E+04  0.25500000000E-02 0. -1.
         25    2    1    2    0    0  0.65824543039E+01  0.42619278912E+02 -0.15928767981E+04  0.15983554236E+04  0.12499533829E+03 0.  0.
         23    2    1    2    0    0 -0.65824543039E+01 -0.42619278912E+02 -0.82640435518E+03  0.83247712248E+03  0.90632607587E+02 0.  0.
        -11    1    4    4    0    0 -0.26164856112E+02  0.16960422147E+02 -0.43136596025E+03  0.43249144186E+03  0.51100000000E-03 0.  1.
         11    1    4    4    0    0  0.19582401808E+02 -0.59579701059E+02 -0.39503839493E+03  0.39998568063E+03  0.51100000000E-03 0. -1.
    9000005    1    3    3    0    0  0.28684005360E+02  0.53167965537E+02 -0.15248703547E+04  0.15260669066E+04  0.10000000000E+01 0.  0.
    9000005    1    3    3    0    0 -0.22101551056E+02 -0.10548686625E+02 -0.68006443353E+02  0.72288516972E+02  0.10000000000E+01 0.  0.
<mgrwt>
<rscale>  0 0.12342027E+03</rscale>
<asrwt>0</asrwt>
<pdfrwt beam="2">  1        2 0.37308486E+00 0.13222544E+03</pdfrwt>
<pdfrwt beam="1">  1       -2 0.88857061E-03 0.13222544E+03</pdfrwt>
<totfact> 0.11003373E+04</totfact>
</mgrwt>
</event>
<event>
 8    2  0.1628804E-003  0.1762216E+03  0.7818608E-02  0.1175728E+00
          2   -1    0    0  501    0  0.00000000000E+00  0.00000000000E+00  0.98603253360E+03  0.98603253360E+03  0.25500000000E-02 0. -1.
         -2   -1    0    0    0  501 -0.00000000000E+00 -0.00000000000E+00 -0.30366020273E+02  0.30366020380E+02  0.25500000000E-02 0.  1.
         25    2    1    2    0    0 -0.12329150724E+03 -0.15117625361E+02  0.37986798208E+03  0.41875260868E+03  0.12499890046E+03 0.  0.
         23    2    1    2    0    0  0.12329150724E+03  0.15117625361E+02  0.57579853124E+03  0.59764594529E+03  0.10103162370E+03 0.  0.
        -11    1    4    4    0    0  0.10423913780E+03 -0.14309445058E+02  0.52793405230E+03  0.53831674844E+03  0.51100000000E-03 0. -1.
         11    1    4    4    0    0  0.19052369445E+02  0.29427070419E+02  0.47864478940E+02  0.59329196855E+02  0.51100000000E-03 0.  1.
    9000005    1    3    3    0    0 -0.65940898296E+02 -0.52056623777E+01  0.47786130849E+02  0.81607691368E+02  0.10000000000E+01 0.  0.
    9000005    1    3    3    0    0 -0.57350608949E+02 -0.99119629836E+01  0.33208185123E+03  0.33714491732E+03  0.10000000000E+01 0.  0.
<mgrwt>
<rscale>  0 0.17204903E+03</rscale>
<asrwt>0</asrwt>
<pdfrwt beam="1">  1        2 0.15169730E+00 0.17622163E+03</pdfrwt>
<pdfrwt beam="2">  1       -2 0.46716957E-02 0.17622163E+03</pdfrwt>
<totfact> 0.57214092E+03</totfact>
</mgrwt>
</event>
<event>
 8    2  0.1628804E-003  0.1334125E+03  0.7818608E-02  0.1235692E+00
          2   -1    0    0  501    0  0.00000000000E+00  0.00000000000E+00  0.57145525527E+03  0.57145525527E+03  0.25500000000E-02 0. -1.
         -2   -1    0    0    0  501 -0.00000000000E+00 -0.00000000000E+00 -0.24550262737E+02  0.24550262869E+02  0.25500000000E-02 0.  1.
         25    2    1    2    0    0 -0.45273487559E+02 -0.11157417809E+02  0.34795128591E+03  0.37265131770E+03  0.12499892228E+03 0.  0.
         23    2    1    2    0    0  0.45273487559E+02  0.11157417809E+02  0.19895370662E+03  0.22335420044E+03  0.90168424782E+02 0.  0.
        -11    1    4    4    0    0  0.63232247781E+01 -0.28161594877E+02  0.17743349689E+02  0.33880452418E+02  0.51100000000E-03 0.  1.
         11    1    4    4    0    0  0.38950262781E+02  0.39319012687E+02  0.18121035693E+03  0.18947374802E+03  0.51100000000E-03 0. -1.
    9000005    1    3    3    0    0  0.64477115334E+01 -0.15641535957E+02 -0.35665649317E+01  0.17319093987E+02  0.10000000000E+01 0.  0.
    9000005    1    3    3    0    0 -0.51721199093E+02  0.44841181474E+01  0.35151785084E+03  0.35533222372E+03  0.10000000000E+01 0.  0.
<mgrwt>
<rscale>  0 0.12460228E+03</rscale>
<asrwt>0</asrwt>
<pdfrwt beam="1">  1        2 0.87916191E-01 0.13341255E+03</pdfrwt>
<pdfrwt beam="2">  1       -2 0.37769636E-02 0.13341255E+03</pdfrwt>
<totfact> 0.15146197E+04</totfact>
</mgrwt>
</event>
<event>
 8    2  0.1628804E-003  0.1737609E+03  0.7818608E-02  0.1179614E+00
         -2   -1    0    0    0  501 -0.00000000000E+00  0.00000000000E+00  0.12307215471E+04  0.12307215471E+04  0.25500000000E-02 0.  1.
          2   -1    0    0  501    0  0.00000000000E+00 -0.00000000000E+00 -0.45175594956E+02  0.45175595028E+02  0.25500000000E-02 0. -1.
         25    2    1    2    0    0 -0.10447478348E+03 -0.60441538412E+02  0.15131153023E+03  0.23040839059E+03  0.12499874929E+03 0.  0.
         23    2    1    2    0    0  0.10447478348E+03  0.60441538412E+02  0.10342344219E+04  0.10454887515E+04  0.94009202618E+02 0.  0.
        -11    1    4    4    0    0  0.30148754533E+01  0.17130528710E+02  0.48357328486E+03  0.48388600550E+03  0.51100000000E-03 0.  1.
         11    1    4    4    0    0  0.10145990803E+03  0.43311009701E+02  0.55066113702E+03  0.56160274600E+03  0.51100000000E-03 0. -1.
    9000005    1    3    3    0    0  0.76730696570E+01  0.27298000189E+02  0.42928965753E+02  0.51458263796E+02  0.10000000000E+01 0.  0.
    9000005    1    3    3    0    0 -0.11214785314E+03 -0.87739538601E+02  0.10838256448E+03  0.17895012680E+03  0.10000000000E+01 0.  0.
<mgrwt>
<rscale>  0 0.16831765E+03</rscale>
<asrwt>0</asrwt>
<pdfrwt beam="2">  1        2 0.69500905E-02 0.17376089E+03</pdfrwt>
<pdfrwt beam="1">  1       -2 0.18934180E+00 0.17376089E+03</pdfrwt>
<totfact> 0.17206652E+02</totfact>
</mgrwt>
</event>
<event>
 8    2  0.1628804E-003  0.1557317E+03  0.7818608E-02  0.1203785E+00
          2   -1    0    0  501    0  0.00000000000E+00  0.00000000000E+00  0.15391299005E+03  0.15391299007E+03  0.25500000000E-02 0. -1.
         -2   -1    0    0    0  501 -0.00000000000E+00 -0.00000000000E+00 -0.13538317286E+03  0.13538317288E+03  0.25500000000E-02 0.  1.
         25    2    1    2    0    0  0.53786818309E+02  0.75784331856E+02 -0.23802929396E+02  0.15754029217E+03  0.12496430462E+03 0.  0.
         23    2    1    2    0    0 -0.53786818309E+02 -0.75784331856E+02  0.42332746594E+02  0.13175587079E+03  0.83254196734E+02 0.  0.
        -11    1    4    4    0    0 -0.73022201024E+02 -0.76183862933E+02  0.36083479337E+02  0.11152685907E+03  0.51100000000E-03 0.  1.
         11    1    4    4    0    0  0.19235382716E+02  0.39953107718E+00  0.62492672568E+01  0.20229011711E+02  0.51100000000E-03 0. -1.
    9000005    1    3    3    0    0  0.83783604846E+02  0.23678315424E+02 -0.39170000644E+02  0.95475881838E+02  0.10000000000E+01 0.  0.
    9000005    1    3    3    0    0 -0.29996786537E+02  0.52106016432E+02  0.15367071248E+02  0.62064410331E+02  0.10000000000E+01 0.  0.
<mgrwt>
<rscale>  0 0.14733649E+03</rscale>
<asrwt>0</asrwt>
<pdfrwt beam="1">  1        2 0.23678921E-01 0.15573171E+03</pdfrwt>
<pdfrwt beam="2">  1       -2 0.20828181E-01 0.15573171E+03</pdfrwt>
<totfact> 0.43271908E+03</totfact>
</mgrwt>
</event>
<event>
 8    2  0.1628804E-003  0.1348000E+03  0.7818608E-02  0.1235718E+00
          2   -1    0    0  501    0  0.00000000000E+00  0.00000000000E+00  0.70200626152E+03  0.70200626153E+03  0.25500000000E-02 0. -1.
         -2   -1    0    0    0  501 -0.00000000000E+00 -0.00000000000E+00 -0.22038114932E+02  0.22038115080E+02  0.25500000000E-02 0.  1.
         25    2    1    2    0    0  0.75854423094E+01 -0.49895191421E+02  0.51151466562E+03  0.52897853040E+03  0.12499585360E+03 0.  0.
         23    2    1    2    0    0 -0.75854423094E+01  0.49895191421E+02  0.16845348097E+03  0.19506584620E+03  0.84421798392E+02 0.  0.
        -11    1    4    4    0    0  0.81068566592E+01  0.63748112174E+02  0.16012352371E+03  0.17253720114E+03  0.51100000000E-03 0. -1.
         11    1    4    4    0    0 -0.15692298969E+02 -0.13852920753E+02  0.83299572522E+01  0.22528645063E+02  0.51100000000E-03 0.  1.
    9000005    1    3    3    0    0  0.44414207167E+02 -0.62367605909E+02  0.18595397003E+03  0.20110250878E+03  0.10000000000E+01 0.  0.
    9000005    1    3    3    0    0 -0.36828764858E+02  0.12472414488E+02  0.32556069559E+03  0.32787602163E+03  0.10000000000E+01 0.  0.
<mgrwt>
<rscale>  0 0.12458585E+03</rscale>
<asrwt>0</asrwt>
<pdfrwt beam="1">  1        2 0.10800095E+00 0.13479997E+03</pdfrwt>
<pdfrwt beam="2">  1       -2 0.33904795E-02 0.13479997E+03</pdfrwt>
<totfact> 0.14023017E+04</totfact>
</mgrwt>
</event>
<event>
 8    2  0.1628804E-003  0.1320522E+03  0.7818608E-02  0.1237100E+00
          2   -1    0    0  501    0  0.00000000000E+00  0.00000000000E+00  0.16710500961E+04  0.16710500961E+04  0.25500000000E-02 0. -1.
         -2   -1    0    0    0  501 -0.00000000000E+00 -0.00000000000E+00 -0.82001809184E+01  0.82001813149E+01  0.25500000000E-02 0.  1.
         25    2    1    2    0    0  0.31694693943E+01 -0.42474734381E+02  0.89328732820E+03  0.90299504077E+03  0.12499457721E+03 0.  0.
         23    2    1    2    0    0 -0.31694693943E+01  0.42474734381E+02  0.76956258694E+03  0.77625523661E+03  0.92365949064E+02 0.  0.
        -11    1    4    4    0    0 -0.34753968286E+02  0.56343814091E+02  0.55556231877E+03  0.55949258595E+03  0.51100000000E-03 0.  1.
         11    1    4    4    0    0  0.31584498892E+02 -0.13869079710E+02  0.21400026817E+03  0.21676265065E+03  0.51100000000E-03 0. -1.
    9000005    1    3    3    0    0 -0.48596133778E+02  0.15100780667E+02  0.46370884292E+03  0.46649384647E+03  0.10000000000E+01 0.  0.
    9000005    1    3    3    0    0  0.51765603173E+02 -0.57575515048E+02  0.42957848528E+03  0.43650119429E+03  0.10000000000E+01 0.  0.
<mgrwt>
<rscale>  0 0.12370973E+03</rscale>
<asrwt>0</asrwt>
<pdfrwt beam="1">  1        2 0.25708452E+00 0.13205224E+03</pdfrwt>
<pdfrwt beam="2">  1       -2 0.12615669E-02 0.13205224E+03</pdfrwt>
<totfact> 0.16292754E+04</totfact>
</mgrwt>
</event>
<event>
 8    2  0.1628804E-003  0.1264296E+03  0.7818608E-02  0.1248466E+00
          2   -1    0    0  501    0  0.00000000000E+00  0.00000000000E+00  0.51734785036E+03  0.51734785037E+03  0.25500000000E-02 0.  1.
         -2   -1    0    0    0  501 -0.00000000000E+00 -0.00000000000E+00 -0.38236606651E+02  0.38236606736E+02  0.25500000000E-02 0. -1.
         25    2    1    2    0    0  0.12133127531E+02 -0.14564711185E+02  0.43586928913E+03  0.45383529509E+03  0.12500037706E+03 0.  0.
         23    2    1    2    0    0 -0.12133127531E+02  0.14564711185E+02  0.43241954578E+02  0.10174916201E+03  0.90131469196E+02 0.  0.
        -11    1    4    4    0    0 -0.47201868564E+01 -0.37502385560E+02  0.85735139192E+01  0.38758408479E+02  0.51100000000E-03 0. -1.
         11    1    4    4    0    0 -0.74129406750E+01  0.52067096746E+02  0.34668440659E+02  0.62990753535E+02  0.51100000000E-03 0.  1.
    9000005    1    3    3    0    0  0.12615107268E+02 -0.17776287863E+02  0.42846215381E+01  0.22237250803E+02  0.10000000000E+01 0.  0.
    9000005    1    3    3    0    0 -0.48197973706E+00  0.32115766774E+01  0.43158466759E+03  0.43159804429E+03  0.10000000000E+01 0.  0.
<mgrwt>
<rscale>  0 0.11680337E+03</rscale>
<asrwt>0</asrwt>
<pdfrwt beam="1">  1        2 0.79591977E-01 0.12642958E+03</pdfrwt>
<pdfrwt beam="2">  1       -2 0.58825549E-02 0.12642958E+03</pdfrwt>
<totfact> 0.86857682E+03</totfact>
</mgrwt>
</event>
<event>
 8    2  0.1628804E-003  0.1265079E+03  0.7818608E-02  0.1246993E+00
         -2   -1    0    0    0  501 -0.00000000000E+00  0.00000000000E+00  0.15877854168E+02  0.15877854373E+02  0.25500000000E-02 0.  1.
          2   -1    0    0  501    0  0.00000000000E+00 -0.00000000000E+00 -0.10282405108E+04  0.10282405108E+04  0.25500000000E-02 0. -1.
         25    2    1    2    0    0 -0.16786906065E+02 -0.10011040353E+02 -0.82013734550E+03  0.82983704155E+03  0.12498891514E+03 0.  0.
         23    2    1    2    0    0  0.16786906065E+02  0.10011040353E+02 -0.19222531118E+03  0.21428132367E+03  0.92649307990E+02 0.  0.
        -11    1    4    4    0    0 -0.81852458874E+01  0.21805104155E+02 -0.18399584608E+03  0.18546409947E+03  0.51100000000E-03 0. -1.
         11    1    4    4    0    0  0.24972151953E+02 -0.11794063803E+02 -0.82294650921E+01  0.28817224191E+02  0.51100000000E-03 0.  1.
    9000005    1    3    3    0    0 -0.17914613164E+02  0.54462185914E+02 -0.27617170020E+03  0.28206182133E+03  0.10000000000E+01 0.  0.
    9000005    1    3    3    0    0  0.11277070982E+01 -0.64473226267E+02 -0.54396564530E+03  0.54777522022E+03  0.10000000000E+01 0.  0.
<mgrwt>
<rscale>  0 0.11766914E+03</rscale>
<asrwt>0</asrwt>
<pdfrwt beam="2">  1        2 0.15819080E+00 0.12650791E+03</pdfrwt>
<pdfrwt beam="1">  1       -2 0.24427476E-02 0.12650791E+03</pdfrwt>
<totfact> 0.13864660E+04</totfact>
</mgrwt>
</event>
<event>
 8    2  0.1628804E-003  0.1254327E+03  0.7818608E-02  0.1250895E+00
          2   -1    0    0  501    0  0.00000000000E+00  0.00000000000E+00  0.43816827103E+03  0.43816827104E+03  0.25500000000E-02 0. -1.
         -2   -1    0    0    0  501 -0.00000000000E+00 -0.00000000000E+00 -0.26445331252E+02  0.26445331375E+02  0.25500000000E-02 0.  1.
         25    2    1    2    0    0  0.15655881230E+01  0.10360421947E+02  0.23746052619E+03  0.26855329312E+03  0.12499432123E+03 0.  0.
         23    2    1    2    0    0 -0.15655881230E+01 -0.10360421947E+02  0.17426241359E+03  0.19606030930E+03  0.89232654789E+02 0.  0.
        -11    1    4    4    0    0  0.96977366785E+01 -0.36063474706E+02  0.16053247796E+03  0.16481898187E+03  0.51100000000E-03 0. -1.
         11    1    4    4    0    0 -0.11263324801E+02  0.25703052759E+02  0.13729935639E+02  0.31241327431E+02  0.51100000000E-03 0.  1.
    9000005    1    3    3    0    0  0.53160446704E+02  0.23118111933E+01  0.46806077392E+02  0.70874441412E+02  0.10000000000E+01 0.  0.
    9000005    1    3    3    0    0 -0.51594858581E+02  0.80486107536E+01  0.19065444879E+03  0.19767885171E+03  0.10000000000E+01 0.  0.
<mgrwt>
<rscale>  0 0.11539381E+03</rscale>
<asrwt>0</asrwt>
<pdfrwt beam="1">  1        2 0.67410499E-01 0.12543273E+03</pdfrwt>
<pdfrwt beam="2">  1       -2 0.40685127E-02 0.12543273E+03</pdfrwt>
<totfact> 0.18060984E+04</totfact>
</mgrwt>
</event>
<event>
 8    2  0.1628804E-003  0.1701055E+03  0.7818608E-02  0.1184204E+00
         -2   -1    0    0    0  501 -0.00000000000E+00  0.00000000000E+00  0.17415308076E+02  0.17415308263E+02  0.25500000000E-02 0.  1.
          2   -1    0    0  501    0  0.00000000000E+00 -0.00000000000E+00 -0.14622185881E+04  0.14622185881E+04  0.25500000000E-02 0. -1.
         25    2    1    2    0    0  0.10840414991E+03 -0.39486857038E+02 -0.69328874167E+03  0.71385233813E+03  0.12500083890E+03 0.  0.
         23    2    1    2    0    0 -0.10840414991E+03  0.39486857038E+02 -0.75151453839E+03  0.76578155827E+03  0.91305103832E+02 0.  0.
        -11    1    4    4    0    0 -0.58832470156E+02 -0.15735411931E+02 -0.19358159994E+03  0.20293520781E+03  0.51100000000E-03 0. -1.
         11    1    4    4    0    0 -0.49571679755E+02  0.55222268969E+02 -0.55793293845E+03  0.56284635047E+03  0.51100000000E-03 0.  1.
    9000005    1    3    3    0    0  0.13343072777E+03 -0.16026253163E+02 -0.58578300033E+03  0.60100193292E+03  0.10000000000E+01 0.  0.
    9000005    1    3    3    0    0 -0.25026577856E+02 -0.23460603875E+02 -0.10750574134E+03  0.11285040521E+03  0.10000000000E+01 0.  0.
<mgrwt>
<rscale>  0 0.16404546E+03</rscale>
<asrwt>0</asrwt>
<pdfrwt beam="2">  1        2 0.22495661E+00 0.17010550E+03</pdfrwt>
<pdfrwt beam="1">  1       -2 0.26792793E-02 0.17010550E+03</pdfrwt>
<totfact> 0.70756071E+03</totfact>
</mgrwt>
</event>
<event>
 8    2  0.1628804E-003  0.1297611E+03  0.7818608E-02  0.1240553E+00
          2   -1    0    0  501    0  0.00000000000E+00  0.00000000000E+00  0.14005201704E+04  0.14005201704E+04  0.25500000000E-02 0. -1.
         -2   -1    0    0    0  501 -0.00000000000E+00 -0.00000000000E+00 -0.14305928072E+02  0.14305928299E+02  0.25500000000E-02 0.  1.
         25    2    1    2    0    0  0.25818469196E+02 -0.23398216673E+02  0.11636191872E+04  0.11708319966E+04  0.12499552683E+03 0.  0.
         23    2    1    2    0    0 -0.25818469196E+02  0.23398216673E+02  0.22259505520E+03  0.24399410210E+03  0.93650912237E+02 0.  0.
        -11    1    4    4    0    0 -0.31114949362E+02 -0.13277945430E+02  0.22809517256E+02  0.40800955704E+02  0.51100000000E-03 0.  1.
         11    1    4    4    0    0  0.52964801655E+01  0.36676162103E+02  0.19978553794E+03  0.20319314639E+03  0.51100000000E-03 0. -1.
    9000005    1    3    3    0    0  0.42978732503E+02  0.35272088533E+02  0.81482711304E+03  0.81672242275E+03  0.10000000000E+01 0.  0.
    9000005    1    3    3    0    0 -0.17160263307E+02 -0.58670305206E+02  0.34879207411E+03  0.35410957388E+03  0.10000000000E+01 0.  0.
<mgrwt>
<rscale>  0 0.12155550E+03</rscale>
<asrwt>0</asrwt>
<pdfrwt beam="1">  1        2 0.21546460E+00 0.12976113E+03</pdfrwt>
<pdfrwt beam="2">  1       -2 0.22009124E-02 0.12976113E+03</pdfrwt>
<totfact> 0.10065540E+04</totfact>
</mgrwt>
</event>
<event>
 8    2  0.1628804E-003  0.2211824E+03  0.7818608E-02  0.1136391E+00
          2   -1    0    0  501    0  0.00000000000E+00  0.00000000000E+00  0.33974728593E+03  0.33974728594E+03  0.25500000000E-02 0.  1.
         -2   -1    0    0    0  501 -0.00000000000E+00 -0.00000000000E+00 -0.13450834668E+03  0.13450834670E+03  0.25500000000E-02 0. -1.
         25    2    1    2    0    0 -0.18214940524E+03 -0.10877987378E+02  0.13332340668E+03  0.25825721754E+03  0.12499969282E+03 0.  0.
         23    2    1    2    0    0  0.18214940524E+03  0.10877987378E+02  0.71915532576E+02  0.21599841510E+03  0.90480578384E+02 0.  0.
        -11    1    4    4    0    0  0.28463076098E+02 -0.19114304682E+02 -0.14413406796E+02  0.37192064209E+02  0.51100000000E-03 0. -1.
         11    1    4    4    0    0  0.15368632914E+03  0.29992292060E+02  0.86328939372E+02  0.17880635089E+03  0.51100000000E-03 0.  1.
    9000005    1    3    3    0    0 -0.97988384481E+02 -0.36471255093E+02  0.76326005971E+01  0.10483860230E+03  0.10000000000E+01 0.  0.
    9000005    1    3    3    0    0 -0.84161020754E+02  0.25593267715E+02  0.12569080608E+03  0.15341861524E+03  0.10000000000E+01 0.  0.
<mgrwt>
<rscale>  0 0.21666927E+03</rscale>
<asrwt>0</asrwt>
<pdfrwt beam="1">  1        2 0.52268813E-01 0.22118241E+03</pdfrwt>
<pdfrwt beam="2">  1       -2 0.20693592E-01 0.22118241E+03</pdfrwt>
<totfact> 0.18789043E+03</totfact>
</mgrwt>
</event>
<event>
 8    2  0.1628804E-003  0.1745164E+03  0.7818608E-02  0.1180927E+00
          2   -1    0    0  501    0  0.00000000000E+00  0.00000000000E+00  0.15787056091E+04  0.15787056091E+04  0.25500000000E-02 0. -1.
         -2   -1    0    0    0  501 -0.00000000000E+00 -0.00000000000E+00 -0.16608832207E+02  0.16608832402E+02  0.25500000000E-02 0.  1.
         25    2    1    2    0    0  0.29167139345E+02  0.11823343023E+03  0.95051094194E+03  0.96639899502E+03  0.12500440307E+03 0.  0.
         23    2    1    2    0    0 -0.29167139345E+02 -0.11823343023E+03  0.61158583491E+03  0.62891544644E+03  0.81655001493E+02 0.  0.
        -11    1    4    4    0    0 -0.51499520213E+02 -0.10788588206E+03  0.54417695646E+03  0.55715359110E+03  0.51100000000E-03 0. -1.
         11    1    4    4    0    0  0.22332380868E+02 -0.10347548171E+02  0.67408878446E+02  0.71761855341E+02  0.51100000000E-03 0.  1.
    9000005    1    3    3    0    0  0.79221928539E+01  0.13996624710E+03  0.68841960756E+03  0.70254954811E+03  0.10000000000E+01 0.  0.
    9000005    1    3    3    0    0  0.21244946491E+02 -0.21732816875E+02  0.26209133438E+03  0.26384944691E+03  0.10000000000E+01 0.  0.
<mgrwt>
<rscale>  0 0.16708036E+03</rscale>
<asrwt>0</asrwt>
<pdfrwt beam="1">  1        2 0.24287777E+00 0.17451638E+03</pdfrwt>
<pdfrwt beam="2">  1       -2 0.25552051E-02 0.17451638E+03</pdfrwt>
<totfact> 0.65947816E+03</totfact>
</mgrwt>
</event>
<event>
 8    2  0.1628804E-003  0.1264257E+03  0.7818608E-02  0.1248025E+00
          2   -1    0    0  501    0  0.00000000000E+00  0.00000000000E+00  0.28182358687E+03  0.28182358688E+03  0.25500000000E-02 0.  1.
         -2   -1    0    0    0  501 -0.00000000000E+00 -0.00000000000E+00 -0.48384728058E+02  0.48384728125E+02  0.25500000000E-02 0. -1.
         25    2    1    2    0    0  0.12386394701E+02  0.14335813040E+02  0.18853400581E+03  0.22699898174E+03  0.12499811221E+03 0.  0.
         23    2    1    2    0    0 -0.12386394701E+02 -0.14335813040E+02  0.44904852997E+02  0.10320933326E+03  0.90976823092E+02 0.  0.
        -11    1    4    4    0    0 -0.35237784381E+02 -0.28661490465E+02  0.57637470262E+02  0.73384333902E+02  0.51100000000E-03 0.  1.
         11    1    4    4    0    0  0.22851389679E+02  0.14325677425E+02 -0.12732617265E+02  0.29824999357E+02  0.51100000000E-03 0. -1.
    9000005    1    3    3    0    0 -0.23349821787E+01  0.59509422133E+02  0.16192834287E+03  0.17253582726E+03  0.10000000000E+01 0.  0.
    9000005    1    3    3    0    0  0.14721376880E+02 -0.45173609093E+02  0.26605662944E+02  0.54463154485E+02  0.10000000000E+01 0.  0.
<mgrwt>
<rscale>  0 0.11706146E+03</rscale>
<asrwt>0</asrwt>
<pdfrwt beam="1">  1        2 0.43357474E-01 0.12642573E+03</pdfrwt>
<pdfrwt beam="2">  1       -2 0.74438045E-02 0.12642573E+03</pdfrwt>
<totfact> 0.11616966E+04</totfact>
</mgrwt>
</event>
<event>
 8    2  0.1628804E-003  0.1288238E+03  0.7818608E-02  0.1242989E+00
         -2   -1    0    0    0  501 -0.00000000000E+00  0.00000000000E+00  0.32139322583E+02  0.32139322684E+02  0.25500000000E-02 0.  1.
          2   -1    0    0  501    0  0.00000000000E+00 -0.00000000000E+00 -0.46425081028E+03  0.46425081029E+03  0.25500000000E-02 0. -1.
         25    2    1    2    0    0  0.20559592960E+02  0.23413610843E+02 -0.14853717766E+03  0.19661860281E+03  0.12499875115E+03 0.  0.
         23    2    1    2    0    0 -0.20559592960E+02 -0.23413610843E+02 -0.28357431003E+03  0.29977153016E+03  0.92074355532E+02 0.  0.
        -11    1    4    4    0    0 -0.23462231025E+02 -0.55163386249E+02 -0.13339548138E+03  0.14624578599E+03  0.51100000000E-03 0.  1.
         11    1    4    4    0    0  0.29026380659E+01  0.31749775405E+02 -0.15017882866E+03  0.15352574417E+03  0.51100000000E-03 0. -1.
    9000005    1    3    3    0    0  0.21609021840E+02 -0.46141401070E+02 -0.29891600990E+02  0.59080339600E+02  0.10000000000E+01 0.  0.
    9000005    1    3    3    0    0 -0.10494288803E+01  0.69555011913E+02 -0.11864557667E+03  0.13753826321E+03  0.10000000000E+01 0.  0.
<mgrwt>
<rscale>  0 0.12006544E+03</rscale>
<asrwt>0</asrwt>
<pdfrwt beam="2">  1        2 0.71423197E-01 0.12882384E+03</pdfrwt>
<pdfrwt beam="1">  1       -2 0.49445115E-02 0.12882384E+03</pdfrwt>
<totfact> 0.12714870E+04</totfact>
</mgrwt>
</event>
<event>
 8    2  0.1628804E-003  0.1296016E+03  0.7818608E-02  0.1239343E+00
         -2   -1    0    0    0  501 -0.00000000000E+00  0.00000000000E+00  0.20445271234E+02  0.20445271393E+02  0.25500000000E-02 0.  1.
          2   -1    0    0  501    0  0.00000000000E+00 -0.00000000000E+00 -0.66731615992E+03  0.66731615992E+03  0.25500000000E-02 0. -1.
         25    2    1    2    0    0  0.23220959744E+02  0.25304036599E+02 -0.32548859707E+03  0.35034182450E+03  0.12496823569E+03 0.  0.
         23    2    1    2    0    0 -0.23220959744E+02 -0.25304036599E+02 -0.32138229161E+03  0.33741960682E+03  0.96880888007E+02 0.  0.
        -11    1    4    4    0    0 -0.60759464865E+02 -0.17512124265E+02 -0.22425918404E+03  0.23300336627E+03  0.51100000000E-03 0. -1.
         11    1    4    4    0    0  0.37538505120E+02 -0.77919123341E+01 -0.97123107574E+02  0.10441624055E+03  0.51100000000E-03 0.  1.
    9000005    1    3    3    0    0 -0.29683945816E+02  0.20768503968E+02 -0.27395011674E+03  0.27633699328E+03  0.10000000000E+01 0.  0.
    9000005    1    3    3    0    0  0.52904905560E+02  0.45355326313E+01 -0.51538480333E+02  0.74004831218E+02  0.10000000000E+01 0.  0.
<mgrwt>
<rscale>  0 0.12230480E+03</rscale>
<asrwt>0</asrwt>
<pdfrwt beam="2">  1        2 0.10266401E+00 0.12960157E+03</pdfrwt>
<pdfrwt beam="1">  1       -2 0.31454269E-02 0.12960157E+03</pdfrwt>
<totfact> 0.16575944E+04</totfact>
</mgrwt>
</event>
<event>
 8    2  0.1628804E-003  0.1756899E+03  0.7818608E-02  0.1177286E+00
          2   -1    0    0  501    0  0.00000000000E+00  0.00000000000E+00  0.27515263856E+04  0.27515263856E+04  0.25500000000E-02 0.  1.
         -2   -1    0    0    0  501 -0.00000000000E+00 -0.00000000000E+00 -0.99967469425E+01  0.99967472677E+01  0.25500000000E-02 0. -1.
         25    2    1    2    0    0  0.72044972711E+01  0.12325255860E+03  0.14715068645E+04  0.14819579548E+04  0.12499531814E+03 0.  0.
         23    2    1    2    0    0 -0.72044972711E+01 -0.12325255860E+03  0.12700227741E+04  0.12795651780E+04  0.95321036769E+02 0.  0.
        -11    1    4    4    0    0 -0.24757914299E+02 -0.87278655569E+02  0.11379306731E+04  0.11415413855E+04  0.51100000000E-03 0.  1.
         11    1    4    4    0    0  0.17553417027E+02 -0.35973903034E+02  0.13209210093E+03  0.13802379243E+03  0.51100000000E-03 0. -1.
    9000005    1    3    3    0    0  0.41990873332E+02  0.10067037678E+03  0.62591142361E+03  0.63534547170E+03  0.10000000000E+01 0.  0.
    9000005    1    3    3    0    0 -0.34786376061E+02  0.22582181825E+02  0.84559544093E+03  0.84661248315E+03  0.10000000000E+01 0.  0.
<mgrwt>
<rscale>  0 0.17053990E+03</rscale>
<asrwt>0</asrwt>
<pdfrwt beam="1">  1        2 0.42331071E+00 0.17568986E+03</pdfrwt>
<pdfrwt beam="2">  1       -2 0.15379649E-02 0.17568986E+03</pdfrwt>
<totfact> 0.33273327E+03</totfact>
</mgrwt>
</event>
<event>
 8    2  0.1628804E-003  0.1301889E+03  0.7818608E-02  0.1241113E+00
         -2   -1    0    0    0  501 -0.00000000000E+00  0.00000000000E+00  0.48636959117E+02  0.48636959184E+02  0.25500000000E-02 0.  1.
          2   -1    0    0  501    0  0.00000000000E+00 -0.00000000000E+00 -0.26888301861E+03  0.26888301862E+03  0.25500000000E-02 0. -1.
         25    2    1    2    0    0  0.24130462221E+02  0.27230402066E+02 -0.11335269959E+03  0.17262091119E+03  0.12500148188E+03 0.  0.
         23    2    1    2    0    0 -0.24130462221E+02 -0.27230402066E+02 -0.10689335990E+03  0.14489906661E+03  0.90806250397E+02 0.  0.
        -11    1    4    4    0    0 -0.52879760878E+02 -0.39619525303E+02 -0.65917348942E+02  0.93333128028E+02  0.51100000000E-03 0. -1.
         11    1    4    4    0    0  0.28749298657E+02  0.12389123238E+02 -0.40976010960E+02  0.51565938587E+02  0.51100000000E-03 0.  1.
    9000005    1    3    3    0    0 -0.74745716176E+01 -0.46802242694E+02 -0.26965916356E+02  0.54538791579E+02  0.10000000000E+01 0.  0.
    9000005    1    3    3    0    0  0.31605033838E+02  0.74032644760E+02 -0.86386783231E+02  0.11808211961E+03  0.10000000000E+01 0.  0.
<mgrwt>
<rscale>  0 0.12121095E+03</rscale>
<asrwt>0</asrwt>
<pdfrwt beam="2">  1        2 0.41366617E-01 0.13018888E+03</pdfrwt>
<pdfrwt beam="1">  1       -2 0.74826093E-02 0.13018888E+03</pdfrwt>
<totfact> 0.12141837E+04</totfact>
</mgrwt>
</event>
<event>
 8    2  0.1628804E-003  0.1439644E+03  0.7818608E-02  0.1217192E+00
         -2   -1    0    0    0  501 -0.00000000000E+00  0.00000000000E+00  0.25886011865E+02  0.25886011991E+02  0.25500000000E-02 0. -1.
          2   -1    0    0  501    0  0.00000000000E+00 -0.00000000000E+00 -0.66638587201E+03  0.66638587202E+03  0.25500000000E-02 0.  1.
         25    2    1    2    0    0 -0.64586071215E+02  0.30495711904E+02 -0.35921074953E+03  0.38698592384E+03  0.12499757451E+03 0.  0.
         23    2    1    2    0    0  0.64586071215E+02 -0.30495711904E+02 -0.28128911061E+03  0.30528596016E+03  0.94734390186E+02 0.  0.
        -11    1    4    4    0    0  0.28556797920E+02 -0.12222181590E+02 -0.25544830850E+03  0.25732996472E+03  0.51100000000E-03 0.  1.
         11    1    4    4    0    0  0.36029273295E+02 -0.18273530314E+02 -0.25840802114E+02  0.47955995438E+02  0.51100000000E-03 0. -1.
    9000005    1    3    3    0    0 -0.78153685388E+02  0.28493629287E+02 -0.11263418781E+03  0.14002623223E+03  0.10000000000E+01 0.  0.
    9000005    1    3    3    0    0  0.13567614173E+02  0.20020826163E+01 -0.24657656173E+03  0.24695969161E+03  0.10000000000E+01 0.  0.
<mgrwt>
<rscale>  0 0.13716743E+03</rscale>
<asrwt>0</asrwt>
<pdfrwt beam="2">  1        2 0.10252089E+00 0.14396438E+03</pdfrwt>
<pdfrwt beam="1">  1       -2 0.39824639E-02 0.14396438E+03</pdfrwt>
<totfact> 0.11801272E+04</totfact>
</mgrwt>
</event>
<event>
 8    2  0.1628804E-003  0.1262822E+03  0.7818608E-02  0.1251375E+00
          2   -1    0    0  501    0  0.00000000000E+00  0.00000000000E+00  0.80755926479E+03  0.80755926480E+03  0.25500000000E-02 0. -1.
         -2   -1    0    0    0  501 -0.00000000000E+00 -0.00000000000E+00 -0.14110900839E+02  0.14110901069E+02  0.25500000000E-02 0.  1.
         25    2    1    2    0    0 -0.10287656469E+02  0.15064404745E+02  0.46537159168E+03  0.48220111545E+03  0.12495769378E+03 0.  0.
         23    2    1    2    0    0  0.10287656469E+02 -0.15064404745E+02  0.32807677227E+03  0.33946905041E+03  0.85276582463E+02 0.  0.
        -11    1    4    4    0    0  0.16930768057E+02 -0.11646925421E+01  0.32270921742E+03  0.32315514296E+03  0.51100000000E-03 0. -1.
         11    1    4    4    0    0 -0.66431115877E+01 -0.13899712203E+02  0.53675548542E+01  0.16313907450E+02  0.51100000000E-03 0.  1.
    9000005    1    3    3    0    0  0.56302803004E+02 -0.48916369802E+01  0.19415768761E+03  0.20221805408E+03  0.10000000000E+01 0.  0.
    9000005    1    3    3    0    0 -0.66590459473E+02  0.19956041726E+02  0.27121390407E+03  0.27998306138E+03  0.10000000000E+01 0.  0.
<mgrwt>
<rscale>  0 0.11511796E+03</rscale>
<asrwt>0</asrwt>
<pdfrwt beam="1">  1        2 0.12423990E+00 0.12628221E+03</pdfrwt>
<pdfrwt beam="2">  1       -2 0.21709075E-02 0.12628221E+03</pdfrwt>
<totfact> 0.22599896E+04</totfact>
</mgrwt>
</event>
<event>
 8    2  0.1628804E-003  0.1335324E+03  0.7818608E-02  0.1232554E+00
         -2   -1    0    0    0  501 -0.00000000000E+00  0.00000000000E+00  0.15050413341E+03  0.15050413343E+03  0.25500000000E-02 0. -1.
          2   -1    0    0  501    0  0.00000000000E+00 -0.00000000000E+00 -0.10011559364E+03  0.10011559367E+03  0.25500000000E-02 0.  1.
         25    2    1    2    0    0 -0.46899733161E+02  0.23819264177E+01  0.53632297343E+01  0.13364006294E+03  0.12500257456E+03 0.  0.
         23    2    1    2    0    0  0.46899733161E+02 -0.23819264177E+01  0.45025310035E+02  0.11697966416E+03  0.97219878308E+02 0.  0.
        -11    1    4    4    0    0  0.50387544963E+02  0.12277622317E+02 -0.15879525777E+02  0.54238400016E+02  0.51100000000E-03 0.  1.
         11    1    4    4    0    0 -0.34878118024E+01 -0.14659548735E+02  0.60904835812E+02  0.62741264139E+02  0.51100000000E-03 0. -1.
    9000005    1    3    3    0    0 -0.89943742629E+02  0.57276692119E+01  0.70407549798E-01  0.90131503870E+02  0.10000000000E+01 0.  0.
    9000005    1    3    3    0    0  0.43044009468E+02 -0.33457427942E+01  0.52928221845E+01  0.43508559073E+02  0.10000000000E+01 0.  0.
<mgrwt>
<rscale>  0 0.12662317E+03</rscale>
<asrwt>0</asrwt>
<pdfrwt beam="2">  1        2 0.15402399E-01 0.13353240E+03</pdfrwt>
<pdfrwt beam="1">  1       -2 0.23154482E-01 0.13353240E+03</pdfrwt>
<totfact> 0.58328418E+03</totfact>
</mgrwt>
</event>
<event>
 8    2  0.1628804E-003  0.1389183E+03  0.7818608E-02  0.1223802E+00
         -2   -1    0    0    0  501 -0.00000000000E+00  0.00000000000E+00  0.88611008703E+03  0.88611008703E+03  0.25500000000E-02 0.  1.
          2   -1    0    0  501    0  0.00000000000E+00 -0.00000000000E+00 -0.19747077485E+02  0.19747077650E+02  0.25500000000E-02 0. -1.
         25    2    1    2    0    0  0.17584752094E+02  0.57995345723E+02  0.34388895293E+03  0.37088799716E+03  0.12500244339E+03 0.  0.
         23    2    1    2    0    0 -0.17584752094E+02 -0.57995345723E+02  0.52247405661E+03  0.53496916753E+03  0.97673879521E+02 0.  0.
        -11    1    4    4    0    0  0.15871205253E+02 -0.16888774906E+01  0.35176452587E+03  0.35212643911E+03  0.51100000000E-03 0.  1.
         11    1    4    4    0    0 -0.33455957347E+02 -0.56306468232E+02  0.17070953075E+03  0.18284272841E+03  0.51100000000E-03 0. -1.
    9000005    1    3    3    0    0  0.47928238675E+02 -0.11772201193E+02  0.22024142377E+03  0.22570552835E+03  0.10000000000E+01 0.  0.
    9000005    1    3    3    0    0 -0.30343486581E+02  0.69767546915E+02  0.12364752916E+03  0.14518246880E+03  0.10000000000E+01 0.  0.
<mgrwt>
<rscale>  0 0.13249340E+03</rscale>
<asrwt>0</asrwt>
<pdfrwt beam="2">  1        2 0.30380119E-02 0.13891830E+03</pdfrwt>
<pdfrwt beam="1">  1       -2 0.13632463E+00 0.13891830E+03</pdfrwt>
<totfact> 0.12054307E+03</totfact>
</mgrwt>
</event>
<event>
 8    2  0.1628804E-003  0.1693880E+03  0.7818608E-02  0.1185095E+00
          2   -1    0    0  501    0  0.00000000000E+00  0.00000000000E+00  0.15940639726E+02  0.15940639930E+02  0.25500000000E-02 0. -1.
         -2   -1    0    0    0  501 -0.00000000000E+00 -0.00000000000E+00 -0.16430214099E+04  0.16430214099E+04  0.25500000000E-02 0.  1.
         25    2    1    2    0    0  0.91676569196E+02 -0.68281482934E+02 -0.68550609384E+03  0.70612386328E+03  0.12500140540E+03 0.  0.
         23    2    1    2    0    0 -0.91676569196E+02  0.68281482934E+02 -0.94157467629E+03  0.95283818650E+03  0.90943852921E+02 0.  0.
        -11    1    4    4    0    0 -0.97261533685E+02  0.82302410702E+02 -0.75698791438E+03  0.76763545727E+03  0.51100000000E-03 0. -1.
         11    1    4    4    0    0  0.55849644883E+01 -0.14020927768E+02 -0.18458676190E+03  0.18520272923E+03  0.51100000000E-03 0.  1.
    9000005    1    3    3    0    0  0.11206883234E+03 -0.68370668797E+02 -0.42489454359E+03  0.44471377841E+03  0.10000000000E+01 0.  0.
    9000005    1    3    3    0    0 -0.20392263139E+02  0.89185862861E-01 -0.26061155025E+03  0.26141008488E+03  0.10000000000E+01 0.  0.
<mgrwt>
<rscale>  0 0.16323211E+03</rscale>
<asrwt>0</asrwt>
<pdfrwt beam="1">  1        2 0.24524074E-02 0.16938803E+03</pdfrwt>
<pdfrwt beam="2">  1       -2 0.25277239E+00 0.16938803E+03</pdfrwt>
<totfact> 0.28373145E+02</totfact>
</mgrwt>
</event>
<event>
 8    2  0.1628804E-003  0.1439756E+03  0.7818608E-02  0.1218197E+00
         -2   -1    0    0    0  501 -0.00000000000E+00  0.00000000000E+00  0.76717811651E+02  0.76717811694E+02  0.25500000000E-02 0.  1.
          2   -1    0    0  501    0  0.00000000000E+00 -0.00000000000E+00 -0.22104937440E+03  0.22104937441E+03  0.25500000000E-02 0. -1.
         25    2    1    2    0    0  0.67977810927E+02  0.22016183558E+02 -0.72239842171E+02  0.16108252400E+03  0.12499315831E+03 0.  0.
         23    2    1    2    0    0 -0.67977810927E+02 -0.22016183558E+02 -0.72091720574E+02  0.13668466210E+03  0.91541168671E+02 0.  0.
        -11    1    4    4    0    0 -0.75771760389E+02 -0.39657132952E+01 -0.84397261979E+02  0.11349001887E+03  0.51100000000E-03 0. -1.
         11    1    4    4    0    0  0.77939494622E+01 -0.18050470263E+02  0.12305541404E+02  0.23194643227E+02  0.51100000000E-03 0.  1.
    9000005    1    3    3    0    0  0.59367557268E+02 -0.23980929833E+02  0.11584495172E+02  0.65075282404E+02  0.10000000000E+01 0.  0.
    9000005    1    3    3    0    0  0.86102536588E+01  0.45997113391E+02 -0.83824337343E+02  0.96007241599E+02  0.10000000000E+01 0.  0.
<mgrwt>
<rscale>  0 0.13644262E+03</rscale>
<asrwt>0</asrwt>
<pdfrwt beam="2">  1        2 0.34007596E-01 0.14397564E+03</pdfrwt>
<pdfrwt beam="1">  1       -2 0.11802740E-01 0.14397564E+03</pdfrwt>
<totfact> 0.73907027E+03</totfact>
</mgrwt>
</event>
<event>
 8    2  0.1628804E-003  0.1343775E+03  0.7818608E-02  0.1233574E+00
         -2   -1    0    0    0  501 -0.00000000000E+00  0.00000000000E+00  0.31356449155E+02  0.31356449259E+02  0.25500000000E-02 0.  1.
          2   -1    0    0  501    0  0.00000000000E+00 -0.00000000000E+00 -0.48129382371E+03  0.48129382372E+03  0.25500000000E-02 0. -1.
         25    2    1    2    0    0 -0.21641834464E+02  0.44315134931E+02 -0.31480742846E+03  0.34228793549E+03  0.12500045435E+03 0.  0.
         23    2    1    2    0    0  0.21641834464E+02 -0.44315134931E+02 -0.13512994610E+03  0.17036233748E+03  0.91274440657E+02 0.  0.
        -11    1    4    4    0    0 -0.30259077263E+02  0.66676543732E+01 -0.39378790848E+02  0.50107469908E+02  0.51100000000E-03 0.  1.
         11    1    4    4    0    0  0.51900911728E+02 -0.50982789305E+02 -0.95751155247E+02  0.12025486757E+03  0.51100000000E-03 0. -1.
    9000005    1    3    3    0    0 -0.41971017712E+02 -0.31419713609E+02 -0.89598425298E+02  0.10381542538E+03  0.10000000000E+01 0.  0.
    9000005    1    3    3    0    0  0.20329183248E+02  0.75734848541E+02 -0.22520900316E+03  0.23847251011E+03  0.10000000000E+01 0.  0.
<mgrwt>
<rscale>  0 0.12596147E+03</rscale>
<asrwt>0</asrwt>
<pdfrwt beam="2">  1        2 0.74045198E-01 0.13437750E+03</pdfrwt>
<pdfrwt beam="1">  1       -2 0.48240695E-02 0.13437750E+03</pdfrwt>
<totfact> 0.12727526E+04</totfact>
</mgrwt>
</event>
<event>
 8    2  0.1628804E-003  0.1357153E+03  0.7818608E-02  0.1237139E+00
         -2   -1    0    0    0  501 -0.00000000000E+00  0.00000000000E+00  0.74868116632E+01  0.74868120975E+01  0.25500000000E-02 0.  1.
          2   -1    0    0  501    0  0.00000000000E+00 -0.00000000000E+00 -0.17584538512E+04  0.17584538512E+04  0.25500000000E-02 0. -1.
         25    2    1    2    0    0  0.50175073914E+02  0.16624824767E+02 -0.10665012875E+04  0.10751016825E+04  0.12499883428E+03 0.  0.
         23    2    1    2    0    0 -0.50175073914E+02 -0.16624824767E+02 -0.68446575201E+03  0.69083898080E+03  0.77273597558E+02 0.  0.
        -11    1    4    4    0    0 -0.49970098211E+02  0.17434686551E+01 -0.20457301336E+03  0.21059479622E+03  0.51100000000E-03 0.  1.
         11    1    4    4    0    0 -0.20497570297E+00 -0.18368293422E+02 -0.47989273865E+03  0.48024418459E+03  0.51100000000E-03 0. -1.
    9000005    1    3    3    0    0 -0.18035900061E+02  0.85622566630E+01 -0.28398875416E+02  0.34728980047E+02  0.10000000000E+01 0.  0.
    9000005    1    3    3    0    0  0.68210973975E+02  0.80625681040E+01 -0.10381024121E+04  0.10403727024E+04  0.10000000000E+01 0.  0.
<mgrwt>
<rscale>  0 0.12368480E+03</rscale>
<asrwt>0</asrwt>
<pdfrwt beam="2">  1        2 0.27053103E+00 0.13571526E+03</pdfrwt>
<pdfrwt beam="1">  1       -2 0.11518186E-02 0.13571526E+03</pdfrwt>
<totfact> 0.16772299E+04</totfact>
</mgrwt>
</event>
<event>
 8    2  0.1628804E-003  0.1326587E+03  0.7818608E-02  0.1237609E+00
         -2   -1    0    0    0  501 -0.00000000000E+00  0.00000000000E+00  0.64692477989E+03  0.64692477990E+03  0.25500000000E-02 0.  1.
          2   -1    0    0  501    0  0.00000000000E+00 -0.00000000000E+00 -0.32705097787E+02  0.32705097887E+02  0.25500000000E-02 0. -1.
         25    2    1    2    0    0 -0.43896443061E+02 -0.59565858684E+01  0.13144596440E+03  0.18675213760E+03  0.12504375519E+03 0.  0.
         23    2    1    2    0    0  0.43896443061E+02  0.59565858684E+01  0.48277371770E+03  0.49287774018E+03  0.88857333023E+02 0.  0.
        -11    1    4    4    0    0  0.31428512765E+02 -0.33355400641E+02  0.36947102565E+03  0.37230252882E+03  0.51100000000E-03 0.  1.
         11    1    4    4    0    0  0.12467930296E+02  0.39311986510E+02  0.11330269205E+03  0.12057521136E+03  0.51100000000E-03 0. -1.
    9000005    1    3    3    0    0 -0.83323968936E+02  0.27298802888E+01  0.53784026539E+02  0.99217224091E+02  0.10000000000E+01 0.  0.
    9000005    1    3    3    0    0  0.39427525875E+02 -0.86864661572E+01  0.77661937861E+02  0.87534913510E+02  0.10000000000E+01 0.  0.
<mgrwt>
<rscale>  0 0.12338868E+03</rscale>
<asrwt>0</asrwt>
<pdfrwt beam="2">  1        2 0.50315536E-02 0.13265866E+03</pdfrwt>
<pdfrwt beam="1">  1       -2 0.99526888E-01 0.13265866E+03</pdfrwt>
<totfact> 0.13056928E+03</totfact>
</mgrwt>
</event>
<event>
 8    2  0.1628804E-003  0.1776382E+03  0.7818608E-02  0.1176114E+00
         -2   -1    0    0    0  501 -0.00000000000E+00  0.00000000000E+00  0.20291964102E+02  0.20291964262E+02  0.25500000000E-02 0.  1.
          2   -1    0    0  501    0  0.00000000000E+00 -0.00000000000E+00 -0.13636346079E+04  0.13636346079E+04  0.25500000000E-02 0. -1.
         25    2    1    2    0    0 -0.10974868924E+02 -0.12573768727E+03 -0.73421948927E+03  0.75540292664E+03  0.12499963763E+03 0.  0.
         23    2    1    2    0    0  0.10974868924E+02  0.12573768727E+03 -0.60912315456E+03  0.62852364555E+03  0.89891834173E+02 0.  0.
        -11    1    4    4    0    0 -0.24361639148E+02  0.89873432286E+02 -0.26824543498E+03  0.28394777105E+03  0.51100000000E-03 0.  1.
         11    1    4    4    0    0  0.35336508072E+02  0.35864254987E+02 -0.34087771958E+03  0.34457587451E+03  0.51100000000E-03 0. -1.
    9000005    1    3    3    0    0 -0.36866379802E+02 -0.29654097993E+02 -0.74774952030E+02  0.88491745030E+02  0.10000000000E+01 0.  0.
    9000005    1    3    3    0    0  0.25891510878E+02 -0.96083589280E+02 -0.65944453724E+03  0.66691118161E+03  0.10000000000E+01 0.  0.
<mgrwt>
<rscale>  0 0.17167356E+03</rscale>
<asrwt>0</asrwt>
<pdfrwt beam="2">  1        2 0.20978987E+00 0.17763818E+03</pdfrwt>
<pdfrwt beam="1">  1       -2 0.31218417E-02 0.17763818E+03</pdfrwt>
<totfact> 0.63802396E+03</totfact>
</mgrwt>
</event>
<event>
 8    2  0.1628804E-003  0.1675561E+03  0.7818608E-02  0.1186812E+00
         -2   -1    0    0    0  501 -0.00000000000E+00  0.00000000000E+00  0.94618432733E+03  0.94618432733E+03  0.25500000000E-02 0.  1.
          2   -1    0    0  501    0  0.00000000000E+00 -0.00000000000E+00 -0.26187050721E+02  0.26187050845E+02  0.25500000000E-02 0. -1.
         25    2    1    2    0    0 -0.55589976925E+02 -0.96756984482E+02  0.43777050150E+03  0.46874094284E+03  0.12499159945E+03 0.  0.
         23    2    1    2    0    0  0.55589976925E+02  0.96756984482E+02  0.48222677510E+03  0.50363043533E+03  0.92998888082E+02 0.  0.
        -11    1    4    4    0    0  0.50539410817E+02  0.94924216195E+02  0.26031434542E+03  0.28165297317E+03  0.51100000000E-03 0. -1.
         11    1    4    4    0    0  0.50505661088E+01  0.18327682879E+01  0.22191242968E+03  0.22197746216E+03  0.51100000000E-03 0.  1.
    9000005    1    3    3    0    0 -0.12987696284E+02 -0.82990933127E+02  0.40402882189E+03  0.41266992155E+03  0.10000000000E+01 0.  0.
    9000005    1    3    3    0    0 -0.42602280642E+02 -0.13766051355E+02  0.33741679615E+02  0.56071021295E+02  0.10000000000E+01 0.  0.
<mgrwt>
<rscale>  0 0.16168064E+03</rscale>
<asrwt>0</asrwt>
<pdfrwt beam="2">  1        2 0.40287773E-02 0.16755614E+03</pdfrwt>
<pdfrwt beam="1">  1       -2 0.14556681E+00 0.16755614E+03</pdfrwt>
<totfact> 0.70687933E+02</totfact>
</mgrwt>
</event>
<event>
 8    2  0.1628804E-003  0.1705388E+03  0.7818608E-02  0.1181741E+00
          2   -1    0    0  501    0  0.00000000000E+00  0.00000000000E+00  0.41411125032E+03  0.41411125033E+03  0.25500000000E-02 0. -1.
         -2   -1    0    0    0  501 -0.00000000000E+00 -0.00000000000E+00 -0.80444538588E+02  0.80444538628E+02  0.25500000000E-02 0.  1.
         25    2    1    2    0    0 -0.61478602513E+02  0.98377904545E+02  0.28616998638E+03  0.33313170791E+03  0.12500257215E+03 0.  0.
         23    2    1    2    0    0  0.61478602513E+02 -0.98377904545E+02  0.47496725354E+02  0.16142408104E+03  0.10170528183E+03 0.  0.
        -11    1    4    4    0    0  0.86827604438E+02 -0.56615077662E+02  0.43482099609E+02  0.11240548429E+03  0.51100000000E-03 0. -1.
         11    1    4    4    0    0 -0.25349001925E+02 -0.41762826883E+02  0.40146257452E+01  0.49018596757E+02  0.51100000000E-03 0.  1.
    9000005    1    3    3    0    0  0.35541558621E+02  0.19326133324E+02  0.10855329462E+03  0.11585128221E+03  0.10000000000E+01 0.  0.
    9000005    1    3    3    0    0 -0.97020161134E+02  0.79051771221E+02  0.17761669176E+03  0.21728042570E+03  0.10000000000E+01 0.  0.
<mgrwt>
<rscale>  0 0.16631965E+03</rscale>
<asrwt>0</asrwt>
<pdfrwt beam="1">  1        2 0.63709423E-01 0.17053877E+03</pdfrwt>
<pdfrwt beam="2">  1       -2 0.12376083E-01 0.17053877E+03</pdfrwt>
<totfact> 0.35339096E+03</totfact>
</mgrwt>
</event>
<event>
 8    2  0.1628804E-003  0.1297969E+03  0.7818608E-02  0.1242621E+00
          2   -1    0    0  501    0  0.00000000000E+00  0.00000000000E+00  0.12230716910E+04  0.12230716910E+04  0.25500000000E-02 0. -1.
         -2   -1    0    0    0  501 -0.00000000000E+00 -0.00000000000E+00 -0.13640632169E+02  0.13640632408E+02  0.25500000000E-02 0.  1.
         25    2    1    2    0    0  0.26412480890E+01  0.34857455514E+02  0.37544191292E+03  0.39724535483E+03  0.12500089422E+03 0.  0.
         23    2    1    2    0    0 -0.26412480890E+01 -0.34857455514E+02  0.83398914594E+03  0.83946696861E+03  0.89134042062E+02 0.  0.
        -11    1    4    4    0    0 -0.12227227760E+02 -0.34542578360E+02  0.12131179263E+03  0.12672507980E+03  0.51100000000E-03 0.  1.
         11    1    4    4    0    0  0.95859796712E+01 -0.31487715388E+00  0.71267735331E+03  0.71274188881E+03  0.51100000000E-03 0. -1.
    9000005    1    3    3    0    0 -0.54716048722E+02  0.85446833251E+01  0.25842012425E+03  0.26428926997E+03  0.10000000000E+01 0.  0.
    9000005    1    3    3    0    0  0.57357296811E+02  0.26312772189E+02  0.11702178867E+03  0.13295608486E+03  0.10000000000E+01 0.  0.
<mgrwt>
<rscale>  0 0.12028905E+03</rscale>
<asrwt>0</asrwt>
<pdfrwt beam="1">  1        2 0.18816487E+00 0.12979693E+03</pdfrwt>
<pdfrwt beam="2">  1       -2 0.20985588E-02 0.12979693E+03</pdfrwt>
<totfact> 0.13433653E+04</totfact>
</mgrwt>
</event>
<event>
 8    2  0.1628804E-003  0.1465984E+03  0.7818608E-02  0.1214356E+00
          2   -1    0    0  501    0  0.00000000000E+00  0.00000000000E+00  0.21055448200E+04  0.21055448200E+04  0.25500000000E-02 0. -1.
         -2   -1    0    0    0  501 -0.00000000000E+00 -0.00000000000E+00 -0.18054569844E+02  0.18054570024E+02  0.25500000000E-02 0.  1.
         25    2    1    2    0    0  0.19573540523E+02  0.74052776140E+02  0.18683009673E+04  0.18740436444E+04  0.12499655867E+03 0.  0.
         23    2    1    2    0    0 -0.19573540523E+02 -0.74052776140E+02  0.21918928292E+03  0.24955574566E+03  0.91472352661E+02 0.  0.
        -11    1    4    4    0    0 -0.53120338769E+02 -0.44129236448E+02  0.16675557263E+03  0.18048983601E+03  0.51100000000E-03 0.  1.
         11    1    4    4    0    0  0.33546798246E+02 -0.29923539692E+02  0.52433710296E+02  0.69065909651E+02  0.51100000000E-03 0. -1.
    9000005    1    3    3    0    0  0.50033223855E+02  0.76932279183E+02  0.17283000890E+04  0.17307351318E+04  0.10000000000E+01 0.  0.
    9000005    1    3    3    0    0 -0.30459683332E+02 -0.28795030433E+01  0.14000087828E+03  0.14330851254E+03  0.10000000000E+01 0.  0.
<mgrwt>
<rscale>  0 0.13923973E+03</rscale>
<asrwt>0</asrwt>
<pdfrwt beam="1">  1        2 0.32393009E+00 0.14659835E+03</pdfrwt>
<pdfrwt beam="2">  1       -2 0.27776251E-02 0.14659835E+03</pdfrwt>
<totfact> 0.31135992E+03</totfact>
</mgrwt>
</event>
<event>
 8    2  0.1628804E-003  0.1717591E+03  0.7818608E-02  0.1182120E+00
          2   -1    0    0  501    0  0.00000000000E+00  0.00000000000E+00  0.67373827449E+03  0.67373827449E+03  0.25500000000E-02 0. -1.
         -2   -1    0    0    0  501 -0.00000000000E+00 -0.00000000000E+00 -0.38385438624E+02  0.38385438708E+02  0.25500000000E-02 0.  1.
         25    2    1    2    0    0  0.11340591862E+03  0.31874875737E+02  0.32909148943E+03  0.37121745447E+03  0.12499711998E+03 0.  0.
         23    2    1    2    0    0 -0.11340591862E+03 -0.31874875737E+02  0.30626134643E+03  0.34090625873E+03  0.92434597668E+02 0.  0.
        -11    1    4    4    0    0 -0.95174014632E+02  0.13809867420E+02  0.16092523994E+03  0.18747196684E+03  0.51100000000E-03 0.  1.
         11    1    4    4    0    0 -0.18231903986E+02 -0.45684743157E+02  0.14533610649E+03  0.15343429190E+03  0.51100000000E-03 0. -1.
    9000005    1    3    3    0    0  0.76511909507E+02  0.13677367174E+02  0.31969385841E+03  0.32900806339E+03  0.10000000000E+01 0.  0.
    9000005    1    3    3    0    0  0.36894009110E+02  0.18197508563E+02  0.93976310200E+01  0.42209391075E+02  0.10000000000E+01 0.  0.
<mgrwt>
<rscale>  0 0.16596704E+03</rscale>
<asrwt>0</asrwt>
<pdfrwt beam="1">  1        2 0.10365203E+00 0.17175910E+03</pdfrwt>
<pdfrwt beam="2">  1       -2 0.59054526E-02 0.17175910E+03</pdfrwt>
<totfact> 0.65041622E+03</totfact>
</mgrwt>
</event>
<event>
 8    2  0.1628804E-003  0.1258300E+03  0.7818608E-02  0.1250345E+00
          2   -1    0    0  501    0  0.00000000000E+00  0.00000000000E+00  0.69503363592E+02  0.69503363639E+02  0.25500000000E-02 0. -1.
         -2   -1    0    0    0  501 -0.00000000000E+00 -0.00000000000E+00 -0.17709156502E+03  0.17709156504E+03  0.25500000000E-02 0.  1.
         25    2    1    2    0    0  0.11243547808E+02  0.90478850334E+01 -0.90530031462E+02  0.15501251933E+03  0.12499965184E+03 0.  0.
         23    2    1    2    0    0 -0.11243547808E+02 -0.90478850334E+01 -0.17058169969E+02  0.91582409356E+02  0.88814835190E+02 0.  0.
        -11    1    4    4    0    0  0.32640487429E+02  0.52571057406E+01 -0.28920983399E+02  0.43925640136E+02  0.51100000000E-03 0. -1.
         11    1    4    4    0    0 -0.43884035237E+02 -0.14304990774E+02  0.11862813430E+02  0.47656769219E+02  0.51100000000E-03 0.  1.
    9000005    1    3    3    0    0  0.20329833884E+02 -0.18401218502E+02  0.24264225367E+02  0.36628672114E+02  0.10000000000E+01 0.  0.
    9000005    1    3    3    0    0 -0.90862860766E+01  0.27449103535E+02 -0.11479425683E+03  0.11838384721E+03  0.10000000000E+01 0.  0.
<mgrwt>
<rscale>  0 0.11571094E+03</rscale>
<asrwt>0</asrwt>
<pdfrwt beam="1">  1        2 0.10692825E-01 0.12583002E+03</pdfrwt>
<pdfrwt beam="2">  1       -2 0.27244856E-01 0.12583002E+03</pdfrwt>
<totfact> 0.67508089E+03</totfact>
</mgrwt>
</event>
<event>
 8    2  0.1628804E-003  0.1854001E+03  0.7818608E-02  0.1167811E+00
         -2   -1    0    0    0  501 -0.00000000000E+00  0.00000000000E+00  0.29573338343E+02  0.29573338453E+02  0.25500000000E-02 0.  1.
          2   -1    0    0  501    0  0.00000000000E+00 -0.00000000000E+00 -0.18083568791E+04  0.18083568791E+04  0.25500000000E-02 0. -1.
         25    2    1    2    0    0  0.64978565484E+02 -0.12052139019E+03 -0.31960726995E+03  0.36948885273E+03  0.12500234327E+03 0.  0.
         23    2    1    2    0    0 -0.64978565484E+02  0.12052139019E+03 -0.14591762708E+04  0.14684413648E+04  0.91526133824E+02 0.  0.
        -11    1    4    4    0    0 -0.53215839889E+02  0.11801353607E+03 -0.91296773748E+03  0.92210043379E+03  0.51100000000E-03 0.  1.
         11    1    4    4    0    0 -0.11762725595E+02  0.25078541143E+01 -0.54620853330E+03  0.54634093101E+03  0.51100000000E-03 0. -1.
    9000005    1    3    3    0    0 -0.45583028137E+01  0.22751360456E+02 -0.22219885626E+02  0.32142275034E+02  0.10000000000E+01 0.  0.
    9000005    1    3    3    0    0  0.69536868298E+02 -0.14327275064E+03 -0.29738738432E+03  0.33734657770E+03  0.10000000000E+01 0.  0.
<mgrwt>
<rscale>  0 0.17999193E+03</rscale>
<asrwt>0</asrwt>
<pdfrwt beam="2">  1        2 0.27820867E+00 0.18540012E+03</pdfrwt>
<pdfrwt beam="1">  1       -2 0.45497458E-02 0.18540012E+03</pdfrwt>
<totfact> 0.21257219E+03</totfact>
</mgrwt>
</event>
<event>
 8    2  0.1628804E-003  0.1791388E+03  0.7818608E-02  0.1176203E+00
          2   -1    0    0  501    0  0.00000000000E+00  0.00000000000E+00  0.57115856790E+03  0.57115856791E+03  0.25500000000E-02 0.  1.
         -2   -1    0    0    0  501 -0.00000000000E+00 -0.00000000000E+00 -0.47648061760E+02  0.47648061828E+02  0.25500000000E-02 0. -1.
         25    2    1    2    0    0  0.12826536300E+03 -0.36101309779E+01  0.28678019872E+03  0.33813253308E+03  0.12500276458E+03 0.  0.
         23    2    1    2    0    0 -0.12826536300E+03  0.36101309779E+01  0.23673030742E+03  0.28067409666E+03  0.79193899337E+02 0.  0.
        -11    1    4    4    0    0 -0.11957911618E+03  0.29625344470E+02  0.19853817138E+03  0.23365408525E+03  0.51100000000E-03 0.  1.
         11    1    4    4    0    0 -0.86862468267E+01 -0.26015213492E+02  0.38192136036E+02  0.47020011402E+02  0.51100000000E-03 0. -1.
    9000005    1    3    3    0    0  0.92753675808E+02 -0.32670302639E+02  0.81327702026E+02  0.12761578338E+03  0.10000000000E+01 0.  0.
    9000005    1    3    3    0    0  0.35511687196E+02  0.29060171661E+02  0.20545249670E+03  0.21051674970E+03  0.10000000000E+01 0.  0.
<mgrwt>
<rscale>  0 0.17158657E+03</rscale>
<asrwt>0</asrwt>
<pdfrwt beam="1">  1        2 0.87870546E-01 0.17913885E+03</pdfrwt>
<pdfrwt beam="2">  1       -2 0.73304713E-02 0.17913885E+03</pdfrwt>
<totfact> 0.56650440E+03</totfact>
</mgrwt>
</event>
<event>
 8    2  0.1628804E-003  0.1378994E+03  0.7818608E-02  0.1228252E+00
          2   -1    0    0  501    0  0.00000000000E+00  0.00000000000E+00  0.32037059739E+04  0.32037059739E+04  0.25500000000E-02 0.  1.
         -2   -1    0    0    0  501 -0.00000000000E+00 -0.00000000000E+00 -0.48477589387E+01  0.48477596093E+01  0.25500000000E-02 0. -1.
         25    2    1    2    0    0 -0.12181391826E+02  0.56943937520E+02  0.20849877251E+04  0.20895430266E+04  0.12500099150E+03 0.  0.
         23    2    1    2    0    0  0.12181391826E+02 -0.56943937520E+02  0.11138704899E+04  0.11190107069E+04  0.89924944616E+02 0.  0.
        -11    1    4    4    0    0 -0.17589070814E+02 -0.46622263391E+02  0.98801905837E+03  0.98927482054E+03  0.51100000000E-03 0.  1.
         11    1    4    4    0    0  0.29770462640E+02 -0.10321674129E+02  0.12585143151E+03  0.12973588638E+03  0.51100000000E-03 0. -1.
    9000005    1    3    3    0    0 -0.33297393756E+01  0.26986923160E+02  0.83709975243E+02  0.88021253917E+02  0.10000000000E+01 0.  0.
    9000005    1    3    3    0    0 -0.88516524508E+01  0.29957014361E+02  0.20012777498E+04  0.20015217727E+04  0.10000000000E+01 0.  0.
<mgrwt>
<rscale>  0 0.12946509E+03</rscale>
<asrwt>0</asrwt>
<pdfrwt beam="1">  1        2 0.49287723E+00 0.13789941E+03</pdfrwt>
<pdfrwt beam="2">  1       -2 0.74581005E-03 0.13789941E+03</pdfrwt>
<totfact> 0.51637258E+03</totfact>
</mgrwt>
</event>
<event>
 8    2  0.1628804E-003  0.1462811E+03  0.7818608E-02  0.1214947E+00
         -2   -1    0    0    0  501 -0.00000000000E+00  0.00000000000E+00  0.23719392903E+03  0.23719392904E+03  0.25500000000E-02 0.  1.
          2   -1    0    0  501    0  0.00000000000E+00 -0.00000000000E+00 -0.82795672315E+02  0.82795672354E+02  0.25500000000E-02 0. -1.
         25    2    1    2    0    0  0.70909673552E+02  0.27298736818E+02  0.13646183825E+03  0.20004995308E+03  0.12499899037E+03 0.  0.
         23    2    1    2    0    0 -0.70909673552E+02 -0.27298736818E+02  0.17936418464E+02  0.11993964832E+03  0.91051640822E+02 0.  0.
        -11    1    4    4    0    0 -0.46023645929E+02 -0.36543196047E+02  0.50808820967E+02  0.77686018370E+02  0.51100000000E-03 0.  1.
         11    1    4    4    0    0 -0.24886027623E+02  0.92444592283E+01 -0.32872402503E+02  0.42253629949E+02  0.51100000000E-03 0. -1.
    9000005    1    3    3    0    0  0.59471065605E+02  0.13578412525E+01 -0.11884267704E+01  0.59506837719E+02  0.10000000000E+01 0.  0.
    9000005    1    3    3    0    0  0.11438607946E+02  0.25940895566E+02  0.13765026502E+03  0.14054311536E+03  0.10000000000E+01 0.  0.
<mgrwt>
<rscale>  0 0.13880463E+03</rscale>
<asrwt>0</asrwt>
<pdfrwt beam="2">  1        2 0.12737796E-01 0.14628107E+03</pdfrwt>
<pdfrwt beam="1">  1       -2 0.36491373E-01 0.14628107E+03</pdfrwt>
<totfact> 0.32502969E+03</totfact>
</mgrwt>
</event>
<event>
 8    2  0.1628804E-003  0.1538322E+03  0.7818608E-02  0.1203539E+00
          2   -1    0    0  501    0  0.00000000000E+00  0.00000000000E+00  0.19077718855E+03  0.19077718857E+03  0.25500000000E-02 0. -1.
         -2   -1    0    0    0  501 -0.00000000000E+00 -0.00000000000E+00 -0.10585167189E+03  0.10585167192E+03  0.25500000000E-02 0.  1.
         25    2    1    2    0    0  0.39793123978E+02  0.80354566517E+02  0.52110697528E+02  0.16241882578E+03  0.12499600431E+03 0.  0.
         23    2    1    2    0    0 -0.39793123978E+02 -0.80354566517E+02  0.32814819132E+02  0.13421003471E+03  0.94314219426E+02 0.  0.
        -11    1    4    4    0    0  0.81302863834E+01 -0.80580060445E+02  0.29415629516E+02  0.86165694787E+02  0.51100000000E-03 0.  1.
         11    1    4    4    0    0 -0.47923410362E+02  0.22549392891E+00  0.33991896161E+01  0.48044339922E+02  0.51100000000E-03 0. -1.
    9000005    1    3    3    0    0  0.74563975971E+02  0.88514616903E+02  0.27287743303E+02  0.11891276152E+03  0.10000000000E+01 0.  0.
    9000005    1    3    3    0    0 -0.34770851993E+02 -0.81600503867E+01  0.24822954225E+02  0.43506064257E+02  0.10000000000E+01 0.  0.
<mgrwt>
<rscale>  0 0.14753168E+03</rscale>
<asrwt>0</asrwt>
<pdfrwt beam="1">  1        2 0.29350336E-01 0.15383221E+03</pdfrwt>
<pdfrwt beam="2">  1       -2 0.16284873E-01 0.15383221E+03</pdfrwt>
<totfact> 0.51601741E+03</totfact>
</mgrwt>
</event>
<event>
 8    2  0.1628804E-003  0.1360671E+03  0.7818608E-02  0.1230773E+00
         -2   -1    0    0    0  501 -0.00000000000E+00  0.00000000000E+00  0.73930268364E+02  0.73930268408E+02  0.25500000000E-02 0. -1.
          2   -1    0    0  501    0  0.00000000000E+00 -0.00000000000E+00 -0.19800133411E+03  0.19800133412E+03  0.25500000000E-02 0.  1.
         25    2    1    2    0    0 -0.36696111766E+02  0.39275356805E+02 -0.72590897857E+02  0.15421964373E+03  0.12500040715E+03 0.  0.
         23    2    1    2    0    0  0.36696111766E+02 -0.39275356805E+02 -0.51480167885E+02  0.11771195880E+03  0.91196158303E+02 0.  0.
        -11    1    4    4    0    0  0.17270338696E+02 -0.57124204555E+01  0.25612737438E+02  0.31415102506E+02  0.51100000000E-03 0. -1.
         11    1    4    4    0    0  0.19425773070E+02 -0.33562936349E+02 -0.77092905323E+02  0.86296856299E+02  0.51100000000E-03 0.  1.
    9000005    1    3    3    0    0 -0.37484436349E+02 -0.23378361825E+02  0.14871719044E+02  0.46624015242E+02  0.10000000000E+01 0.  0.
    9000005    1    3    3    0    0  0.78832458268E+00  0.62653718629E+02 -0.87462616901E+02  0.10759562848E+03  0.10000000000E+01 0.  0.
<mgrwt>
<rscale>  0 0.12778966E+03</rscale>
<asrwt>0</asrwt>
<pdfrwt beam="2">  1        2 0.30461743E-01 0.13606712E+03</pdfrwt>
<pdfrwt beam="1">  1       -2 0.11373888E-01 0.13606712E+03</pdfrwt>
<totfact> 0.87925870E+03</totfact>
</mgrwt>
</event>
<event>
 8    2  0.1628804E-003  0.1368159E+03  0.7818608E-02  0.1230837E+00
         -2   -1    0    0    0  501 -0.00000000000E+00  0.00000000000E+00  0.34295473248E+02  0.34295473343E+02  0.25500000000E-02 0.  1.
          2   -1    0    0  501    0  0.00000000000E+00 -0.00000000000E+00 -0.54865952133E+03  0.54865952134E+03  0.25500000000E-02 0. -1.
         25    2    1    2    0    0 -0.34964471686E+02 -0.43403828624E+02 -0.42284110408E+03  0.44442455190E+03  0.12494869511E+03 0.  0.
         23    2    1    2    0    0  0.34964471686E+02  0.43403828624E+02 -0.91522943998E+02  0.13853044278E+03  0.87794234882E+02 0.  0.
        -11    1    4    4    0    0 -0.20335045582E+02  0.24003477881E+02 -0.19885940208E+01  0.31521984957E+02  0.51100000000E-03 0.  1.
         11    1    4    4    0    0  0.55299517268E+02  0.19400350743E+02 -0.89534349978E+02  0.10700845782E+03  0.51100000000E-03 0. -1.
    9000005    1    3    3    0    0 -0.79176404924E+02 -0.69185796587E+01 -0.24522958501E+03  0.25778929227E+03  0.10000000000E+01 0.  0.
    9000005    1    3    3    0    0  0.44211933238E+02 -0.36485248965E+02 -0.17761151907E+03  0.18663525963E+03  0.10000000000E+01 0.  0.
<mgrwt>
<rscale>  0 0.12774733E+03</rscale>
<asrwt>0</asrwt>
<pdfrwt beam="2">  1        2 0.84409151E-01 0.13681587E+03</pdfrwt>
<pdfrwt beam="1">  1       -2 0.52762271E-02 0.13681587E+03</pdfrwt>
<totfact> 0.96399274E+03</totfact>
</mgrwt>
</event>
<event>
 8    2  0.1628804E-003  0.1517239E+03  0.7818608E-02  0.1207154E+00
          2   -1    0    0  501    0  0.00000000000E+00  0.00000000000E+00  0.22589623443E+04  0.22589623443E+04  0.25500000000E-02 0. -1.
         -2   -1    0    0    0  501 -0.00000000000E+00 -0.00000000000E+00 -0.86365668370E+01  0.86365672135E+01  0.25500000000E-02 0.  1.
         25    2    1    2    0    0 -0.82798641477E+02  0.23234175501E+02  0.10903972299E+04  0.11009024819E+04  0.12499885474E+03 0.  0.
         23    2    1    2    0    0  0.82798641477E+02 -0.23234175501E+02  0.11599285475E+04  0.11666964296E+04  0.91383157842E+02 0.  0.
        -11    1    4    4    0    0  0.80919651298E+02 -0.20809918322E+00  0.51191266809E+03  0.51826886172E+03  0.51100000000E-03 0.  1.
         11    1    4    4    0    0  0.18789901794E+01 -0.23026076318E+02  0.64801587939E+03  0.64842756784E+03  0.51100000000E-03 0. -1.
    9000005    1    3    3    0    0 -0.52257347685E+02 -0.46945595783E+02  0.66232758533E+03  0.66604320403E+03  0.10000000000E+01 0.  0.
    9000005    1    3    3    0    0 -0.30541293793E+02  0.70179771284E+02  0.42806964461E+03  0.43485927788E+03  0.10000000000E+01 0.  0.
<mgrwt>
<rscale>  0 0.14468983E+03</rscale>
<asrwt>0</asrwt>
<pdfrwt beam="1">  1        2 0.34753244E+00 0.15172395E+03</pdfrwt>
<pdfrwt beam="2">  1       -2 0.13287035E-02 0.15172395E+03</pdfrwt>
<totfact> 0.75763908E+03</totfact>
</mgrwt>
</event>
<event>
 8    2  0.1628804E-003  0.1294842E+03  0.7818608E-02  0.1241686E+00
          2   -1    0    0  501    0  0.00000000000E+00  0.00000000000E+00  0.39065846264E+03  0.39065846265E+03  0.25500000000E-02 0. -1.
         -2   -1    0    0    0  501 -0.00000000000E+00 -0.00000000000E+00 -0.13640726662E+03  0.13640726664E+03  0.25500000000E-02 0.  1.
         25    2    1    2    0    0 -0.33459044789E+02  0.45739711100E+01  0.36007131134E+03  0.38264539950E+03  0.12500289442E+03 0.  0.
         23    2    1    2    0    0  0.33459044789E+02 -0.45739711100E+01 -0.10582011532E+03  0.14442032979E+03  0.92297919594E+02 0.  0.
        -11    1    4    4    0    0  0.23921774823E+02 -0.39283213960E+02 -0.97011870857E+02  0.10736258798E+03  0.51100000000E-03 0.  1.
         11    1    4    4    0    0  0.95372699665E+01  0.34709242850E+02 -0.88082444606E+01  0.37057741814E+02  0.51100000000E-03 0. -1.
    9000005    1    3    3    0    0  0.36276330552E+02 -0.19156491055E+02  0.53942200093E+02  0.67776871119E+02  0.10000000000E+01 0.  0.
    9000005    1    3    3    0    0 -0.69735375341E+02  0.23730462165E+02  0.30612911125E+03  0.31486852838E+03  0.10000000000E+01 0.  0.
<mgrwt>
<rscale>  0 0.12085954E+03</rscale>
<asrwt>0</asrwt>
<pdfrwt beam="1">  1        2 0.60101301E-01 0.12948418E+03</pdfrwt>
<pdfrwt beam="2">  1       -2 0.20985734E-01 0.12948418E+03</pdfrwt>
<totfact> 0.15572063E+03</totfact>
</mgrwt>
</event>
<event>
 8    2  0.1628804E-003  0.1305504E+03  0.7818608E-02  0.1242060E+00
         -2   -1    0    0    0  501 -0.00000000000E+00  0.00000000000E+00  0.20265467340E+02  0.20265467501E+02  0.25500000000E-02 0.  1.
          2   -1    0    0  501    0  0.00000000000E+00 -0.00000000000E+00 -0.64109316042E+03  0.64109316042E+03  0.25500000000E-02 0. -1.
         25    2    1    2    0    0  0.60085086061E+01 -0.37182350833E+02 -0.40384686625E+03  0.42442395029E+03  0.12499907522E+03 0.  0.
         23    2    1    2    0    0 -0.60085086061E+01  0.37182350833E+02 -0.21698082682E+03  0.23693467763E+03  0.87399844784E+02 0.  0.
        -11    1    4    4    0    0  0.22597348734E+02  0.46894590047E+02 -0.18799259280E+03  0.19506654683E+03  0.51100000000E-03 0. -1.
         11    1    4    4    0    0 -0.28605857340E+02 -0.97122392138E+01 -0.28988234018E+02  0.41868130798E+02  0.51100000000E-03 0.  1.
    9000005    1    3    3    0    0  0.16605412224E+02 -0.52661928040E+02 -0.66013109410E+02  0.86068280999E+02  0.10000000000E+01 0.  0.
    9000005    1    3    3    0    0 -0.10596903618E+02  0.15479577207E+02 -0.33783375684E+03  0.33835566929E+03  0.10000000000E+01 0.  0.
<mgrwt>
<rscale>  0 0.12063096E+03</rscale>
<asrwt>0</asrwt>
<pdfrwt beam="2">  1        2 0.98629701E-01 0.13055037E+03</pdfrwt>
<pdfrwt beam="1">  1       -2 0.31177647E-02 0.13055037E+03</pdfrwt>
<totfact> 0.17603510E+04</totfact>
</mgrwt>
</event>
<event>
 8    2  0.1628804E-003  0.1427277E+03  0.7818608E-02  0.1219400E+00
         -2   -1    0    0    0  501 -0.00000000000E+00  0.00000000000E+00  0.82719440077E+01  0.82719444008E+01  0.25500000000E-02 0.  1.
          2   -1    0    0  501    0  0.00000000000E+00 -0.00000000000E+00 -0.20275049440E+04  0.20275049440E+04  0.25500000000E-02 0. -1.
         25    2    1    2    0    0  0.53612508705E+02  0.43187358426E+02 -0.11346979915E+04  0.11436392475E+04  0.12502698679E+03 0.  0.
         23    2    1    2    0    0 -0.53612508705E+02 -0.43187358426E+02 -0.88453500843E+03  0.89213764087E+03  0.93637279425E+02 0.  0.
        -11    1    4    4    0    0 -0.12117680965E+02  0.21331765350E+02 -0.46502599845E+03  0.46567269797E+03  0.51100000000E-03 0.  1.
         11    1    4    4    0    0 -0.41494827740E+02 -0.64519123776E+02 -0.41950900999E+03  0.42646494290E+03  0.51100000000E-03 0. -1.
    9000005    1    3    3    0    0 -0.28750494200E+02 -0.22161865295E+02 -0.36285054440E+03  0.36466321005E+03  0.10000000000E+01 0.  0.
    9000005    1    3    3    0    0  0.82363002905E+02  0.65349223721E+02 -0.77184744712E+03  0.77897603744E+03  0.10000000000E+01 0.  0.
<mgrwt>
<rscale>  0 0.13558218E+03</rscale>
<asrwt>0</asrwt>
<pdfrwt beam="2">  1        2 0.31192344E+00 0.14272770E+03</pdfrwt>
<pdfrwt beam="1">  1       -2 0.12726084E-02 0.14272770E+03</pdfrwt>
<totfact> 0.10607918E+04</totfact>
</mgrwt>
</event>
<event>
 8    2  0.1628804E-003  0.1295616E+03  0.7818608E-02  0.1242176E+00
          2   -1    0    0  501    0  0.00000000000E+00  0.00000000000E+00  0.25657919892E+04  0.25657919892E+04  0.25500000000E-02 0. -1.
         -2   -1    0    0    0  501 -0.00000000000E+00 -0.00000000000E+00 -0.50121149320E+01  0.50121155807E+01  0.25500000000E-02 0.  1.
         25    2    1    2    0    0  0.25376682745E+02  0.22751431030E+02  0.14246591704E+04  0.14305383471E+04  0.12499842891E+03 0.  0.
         23    2    1    2    0    0 -0.25376682745E+02 -0.22751431030E+02  0.11361207039E+04  0.11402657576E+04  0.90962303304E+02 0.  0.
        -11    1    4    4    0    0  0.19772953319E+00 -0.16999378199E+02  0.35786239024E+02  0.39619097161E+02  0.51100000000E-03 0.  1.
         11    1    4    4    0    0 -0.25574412278E+02 -0.57520528312E+01  0.11003344649E+04  0.11006466605E+04  0.51100000000E-03 0. -1.
    9000005    1    3    3    0    0 -0.32717335924E+02  0.37819016451E+02  0.28917116524E+03  0.29346492956E+03  0.10000000000E+01 0.  0.
    9000005    1    3    3    0    0  0.58094018668E+02 -0.15067585421E+02  0.11354880051E+04  0.11370734176E+04  0.10000000000E+01 0.  0.
<mgrwt>
<rscale>  0 0.12056029E+03</rscale>
<asrwt>0</asrwt>
<pdfrwt beam="1">  1        2 0.39473773E+00 0.12956161E+03</pdfrwt>
<pdfrwt beam="2">  1       -2 0.77109367E-03 0.12956161E+03</pdfrwt>
<totfact> 0.11325705E+04</totfact>
</mgrwt>
</event>
<event>
 8    2  0.1628804E-003  0.1334193E+03  0.7818608E-02  0.1227921E+00
         -2   -1    0    0    0  501 -0.00000000000E+00  0.00000000000E+00  0.10569543720E+03  0.10569543723E+03  0.25500000000E-02 0.  1.
          2   -1    0    0  501    0  0.00000000000E+00 -0.00000000000E+00 -0.17705776482E+03  0.17705776484E+03  0.25500000000E-02 0. -1.
         25    2    1    2    0    0 -0.15504685368E+02  0.43989449222E+02 -0.91743366819E+02  0.16191839115E+03  0.12500101250E+03 0.  0.
         23    2    1    2    0    0  0.15504685368E+02 -0.43989449222E+02  0.20381039206E+02  0.12083481092E+03  0.10959104826E+03 0.  0.
        -11    1    4    4    0    0  0.75194255720E+01 -0.28961177208E+02 -0.44575074345E+02  0.53686393056E+02  0.51100000000E-03 0. -1.
         11    1    4    4    0    0  0.79852597961E+01 -0.15028272014E+02  0.64956113551E+02  0.67148417864E+02  0.51100000000E-03 0.  1.
    9000005    1    3    3    0    0 -0.29802577446E+02 -0.27248298248E+02 -0.78179094118E+02  0.87997921208E+02  0.10000000000E+01 0.  0.
    9000005    1    3    3    0    0  0.14297892078E+02  0.71237747470E+02 -0.13564272701E+02  0.73920469941E+02  0.10000000000E+01 0.  0.
<mgrwt>
<rscale>  0 0.12968666E+03</rscale>
<asrwt>0</asrwt>
<pdfrwt beam="2">  1        2 0.27239656E-01 0.13341934E+03</pdfrwt>
<pdfrwt beam="1">  1       -2 0.16260837E-01 0.13341934E+03</pdfrwt>
<totfact> 0.55622828E+03</totfact>
</mgrwt>
</event>
<event>
 8    2  0.1628804E-003  0.1870851E+03  0.7818608E-02  0.1166083E+00
          2   -1    0    0  501    0  0.00000000000E+00  0.00000000000E+00  0.94462728174E+03  0.94462728174E+03  0.25500000000E-02 0. -1.
         -2   -1    0    0    0  501 -0.00000000000E+00 -0.00000000000E+00 -0.33490033095E+02  0.33490033192E+02  0.25500000000E-02 0.  1.
         25    2    1    2    0    0 -0.64902955370E+02 -0.12313843321E+03  0.53129059081E+03  0.56326773660E+03  0.12500153542E+03 0.  0.
         23    2    1    2    0    0  0.64902955370E+02  0.12313843321E+03  0.37984665783E+03  0.41484957834E+03  0.91876122205E+02 0.  0.
        -11    1    4    4    0    0  0.14507591199E+02  0.96283778565E+02  0.15649977623E+03  0.18431824700E+03  0.51100000000E-03 0.  1.
         11    1    4    4    0    0  0.50395364170E+02  0.26854654643E+02  0.22334688160E+03  0.23053133134E+03  0.51100000000E-03 0. -1.
    9000005    1    3    3    0    0  0.27144423734E+02 -0.94198803402E+01  0.32165471719E+02  0.43141296415E+02  0.10000000000E+01 0.  0.
    9000005    1    3    3    0    0 -0.92047379104E+02 -0.11371855287E+03  0.49912511909E+03  0.52012644018E+03  0.10000000000E+01 0.  0.
<mgrwt>
<rscale>  0 0.18178902E+03</rscale>
<asrwt>0</asrwt>
<pdfrwt beam="1">  1        2 0.14532731E+00 0.18708514E+03</pdfrwt>
<pdfrwt beam="2">  1       -2 0.51523114E-02 0.18708514E+03</pdfrwt>
<totfact> 0.52438946E+03</totfact>
</mgrwt>
</event>
<event>
 8    2  0.1628804E-003  0.1415487E+03  0.7818608E-02  0.1222552E+00
          2   -1    0    0  501    0  0.00000000000E+00  0.00000000000E+00  0.73171925488E+03  0.73171925489E+03  0.25500000000E-02 0.  1.
         -2   -1    0    0    0  501 -0.00000000000E+00 -0.00000000000E+00 -0.24258696118E+02  0.24258696252E+02  0.25500000000E-02 0. -1.
         25    2    1    2    0    0 -0.65187753923E+02 -0.12741038410E+02  0.27404828801E+03  0.30844529505E+03  0.12499703418E+03 0.  0.
         23    2    1    2    0    0  0.65187753923E+02  0.12741038410E+02  0.43341227075E+03  0.44753265609E+03  0.89596342044E+02 0.  0.
        -11    1    4    4    0    0  0.78972782287E+02  0.17735136125E+00  0.41031094995E+03  0.41784184502E+03  0.51100000000E-03 0. -1.
         11    1    4    4    0    0 -0.13785028364E+02  0.12563687049E+02  0.23101320798E+02  0.29690811073E+02  0.51100000000E-03 0.  1.
    9000005    1    3    3    0    0  0.60193188173E+01  0.39843825835E+02  0.15460671841E+03  0.15977484168E+03  0.10000000000E+01 0.  0.
    9000005    1    3    3    0    0 -0.71207072740E+02 -0.52584864245E+02  0.11944156960E+03  0.14867045337E+03  0.10000000000E+01 0.  0.
<mgrwt>
<rscale>  0 0.13336100E+03</rscale>
<asrwt>0</asrwt>
<pdfrwt beam="1">  1        2 0.11257220E+00 0.14154870E+03</pdfrwt>
<pdfrwt beam="2">  1       -2 0.37321069E-02 0.14154870E+03</pdfrwt>
<totfact> 0.11615569E+04</totfact>
</mgrwt>
</event>
<event>
 8    2  0.1628804E-003  0.3134772E+03  0.7818608E-02  0.1080136E+00
          2   -1    0    0  501    0  0.00000000000E+00  0.00000000000E+00  0.22777373280E+04  0.22777373280E+04  0.25500000000E-02 0. -1.
         -2   -1    0    0    0  501 -0.00000000000E+00 -0.00000000000E+00 -0.65010797222E+02  0.65010797272E+02  0.25500000000E-02 0.  1.
         25    2    1    2    0    0 -0.20546758467E+03 -0.20106308566E+03  0.41593202321E+03  0.52083338230E+03  0.12499868566E+03 0.  0.
         23    2    1    2    0    0  0.20546758467E+03  0.20106308566E+03  0.17967945075E+04  0.18219147429E+04  0.90881986536E+02 0.  0.
        -11    1    4    4    0    0  0.18852441384E+03  0.13652148731E+03  0.13022519684E+04  0.13228906835E+04  0.51100000000E-03 0.  1.
         11    1    4    4    0    0  0.16943170830E+02  0.64541598349E+02  0.49454253908E+03  0.49902405945E+03  0.51100000000E-03 0. -1.
    9000005    1    3    3    0    0 -0.70594323205E+02 -0.15507765663E+03  0.21061140143E+03  0.27090736510E+03  0.10000000000E+01 0.  0.
    9000005    1    3    3    0    0 -0.13487326147E+03 -0.45985429031E+02  0.20532062179E+03  0.24992601720E+03  0.10000000000E+01 0.  0.
<mgrwt>
<rscale>  0 0.31043927E+03</rscale>
<asrwt>0</asrwt>
<pdfrwt beam="1">  1        2 0.35042105E+00 0.31347721E+03</pdfrwt>
<pdfrwt beam="2">  1       -2 0.10001663E-01 0.31347721E+03</pdfrwt>
<totfact> 0.34868297E+02</totfact>
</mgrwt>
</event>
<event>
 8    2  0.1628804E-003  0.1270806E+03  0.7818608E-02  0.1253186E+00
          2   -1    0    0  501    0  0.00000000000E+00  0.00000000000E+00  0.66986161304E+03  0.66986161305E+03  0.25500000000E-02 0.  1.
         -2   -1    0    0    0  501 -0.00000000000E+00 -0.00000000000E+00 -0.29505105443E+02  0.29505105554E+02  0.25500000000E-02 0. -1.
         25    2    1    2    0    0 -0.22563941391E+02 -0.40025591963E+01  0.12787982691E+03  0.18028516123E+03  0.12499734916E+03 0.  0.
         23    2    1    2    0    0  0.22563941391E+02  0.40025591963E+01  0.51247668069E+03  0.51908155737E+03  0.79297938318E+02 0.  0.
        -11    1    4    4    0    0  0.43752367016E+02  0.64191577327E+01  0.46423566288E+03  0.46633703037E+03  0.51100000000E-03 0.  1.
         11    1    4    4    0    0 -0.21188425625E+02 -0.24165985364E+01  0.48241017811E+02  0.52744527002E+02  0.51100000000E-03 0. -1.
    9000005    1    3    3    0    0 -0.34512958695E+02  0.56031639696E+02  0.63851345275E+02  0.91698872722E+02  0.10000000000E+01 0.  0.
    9000005    1    3    3    0    0  0.11949017304E+02 -0.60034198893E+02  0.64028481635E+02  0.88586288508E+02  0.10000000000E+01 0.  0.
<mgrwt>
<rscale>  0 0.11408521E+03</rscale>
<asrwt>0</asrwt>
<pdfrwt beam="1">  1        2 0.10305562E+00 0.12708064E+03</pdfrwt>
<pdfrwt beam="2">  1       -2 0.45392477E-02 0.12708064E+03</pdfrwt>
<totfact> 0.95731656E+03</totfact>
</mgrwt>
</event>
<event>
 8    2  0.1628804E-003  0.1288757E+03  0.7818608E-02  0.1243559E+00
          2   -1    0    0  501    0  0.00000000000E+00  0.00000000000E+00  0.13381406628E+03  0.13381406630E+03  0.25500000000E-02 0. -1.
         -2   -1    0    0    0  501 -0.00000000000E+00 -0.00000000000E+00 -0.10005882236E+03  0.10005882239E+03  0.25500000000E-02 0.  1.
         25    2    1    2    0    0  0.26707194626E+02  0.16470580683E+02  0.46597663862E+02  0.13704114894E+03  0.12499751979E+03 0.  0.
         23    2    1    2    0    0 -0.26707194626E+02 -0.16470580683E+02 -0.12842419944E+02  0.96831739746E+02  0.90702281115E+02 0.  0.
        -11    1    4    4    0    0  0.28246821689E+02  0.15568293122E+02 -0.21178258951E+01  0.32322436063E+02  0.51100000000E-03 0.  1.
         11    1    4    4    0    0 -0.54954016315E+02 -0.32038873805E+02 -0.10724594049E+02  0.64509303683E+02  0.51100000000E-03 0. -1.
    9000005    1    3    3    0    0 -0.20512461013E+02  0.60600240329E+02  0.18900669721E+02  0.66718704279E+02  0.10000000000E+01 0.  0.
    9000005    1    3    3    0    0  0.47219655639E+02 -0.44129659646E+02  0.27696994141E+02  0.70322444665E+02  0.10000000000E+01 0.  0.
<mgrwt>
<rscale>  0 0.11972069E+03</rscale>
<asrwt>0</asrwt>
<pdfrwt beam="1">  1        2 0.20586779E-01 0.12887565E+03</pdfrwt>
<pdfrwt beam="2">  1       -2 0.15393665E-01 0.12887565E+03</pdfrwt>
<totfact> 0.82807481E+03</totfact>
</mgrwt>
</event>
<event>
 8    2  0.1628804E-003  0.1373544E+03  0.7818608E-02  0.1229173E+00
          2   -1    0    0  501    0  0.00000000000E+00  0.00000000000E+00  0.21976960240E+04  0.21976960240E+04  0.25500000000E-02 0. -1.
         -2   -1    0    0    0  501 -0.00000000000E+00 -0.00000000000E+00 -0.68903248648E+01  0.68903253366E+01  0.25500000000E-02 0.  1.
         25    2    1    2    0    0 -0.56837668185E+02  0.33373011086E+01  0.13840438447E+04  0.13908427611E+04  0.12499825519E+03 0.  0.
         23    2    1    2    0    0  0.56837668185E+02 -0.33373011086E+01  0.80676185446E+03  0.81374358831E+03  0.89845865850E+02 0.  0.
        -11    1    4    4    0    0  0.18079853289E+02  0.57254993306E+01  0.27158009782E+02  0.33124310304E+02  0.51100000000E-03 0.  1.
         11    1    4    4    0    0  0.38757814896E+02 -0.90628004392E+01  0.77960384467E+03  0.78061927801E+03  0.51100000000E-03 0. -1.
    9000005    1    3    3    0    0 -0.30831146786E+02 -0.17092310641E+02  0.94364838352E+02  0.10073941340E+03  0.10000000000E+01 0.  0.
    9000005    1    3    3    0    0 -0.26006521398E+02  0.20429611750E+02  0.12896790064E+04  0.12901033477E+04  0.10000000000E+01 0.  0.
<mgrwt>
<rscale>  0 0.12884975E+03</rscale>
<asrwt>0</asrwt>
<pdfrwt beam="1">  1        2 0.33810720E+00 0.13735437E+03</pdfrwt>
<pdfrwt beam="2">  1       -2 0.10600496E-02 0.13735437E+03</pdfrwt>
<totfact> 0.11254326E+04</totfact>
</mgrwt>
</event>
<event>
 8    2  0.1628804E-003  0.1488242E+03  0.7818608E-02  0.1211334E+00
         -2   -1    0    0    0  501 -0.00000000000E+00  0.00000000000E+00  0.11994387728E+04  0.11994387728E+04  0.25500000000E-02 0.  1.
          2   -1    0    0  501    0  0.00000000000E+00 -0.00000000000E+00 -0.16720688162E+02  0.16720688356E+02  0.25500000000E-02 0. -1.
         25    2    1    2    0    0  0.80663366269E+02  0.39358805993E+01  0.82562782524E+03  0.83893381571E+03  0.12500628587E+03 0.  0.
         23    2    1    2    0    0 -0.80663366269E+02 -0.39358805993E+01  0.35709025943E+03  0.37722564548E+03  0.90904699651E+02 0.  0.
        -11    1    4    4    0    0 -0.43409907344E+02  0.13313676403E+02  0.31562945606E+03  0.31887870353E+03  0.51100000000E-03 0.  1.
         11    1    4    4    0    0 -0.37253458925E+02 -0.17249557002E+02  0.41460803367E+02  0.58346941948E+02  0.51100000000E-03 0. -1.
    9000005    1    3    3    0    0  0.83984931623E+02  0.51857573056E+02  0.61690064269E+03  0.62474801286E+03  0.10000000000E+01 0.  0.
    9000005    1    3    3    0    0 -0.33215653537E+01 -0.47921692457E+02  0.20872718255E+03  0.21418580284E+03  0.10000000000E+01 0.  0.
<mgrwt>
<rscale>  0 0.14149318E+03</rscale>
<asrwt>0</asrwt>
<pdfrwt beam="2">  1        2 0.25724128E-02 0.14882420E+03</pdfrwt>
<pdfrwt beam="1">  1       -2 0.18452910E+00 0.14882420E+03</pdfrwt>
<totfact> 0.68654794E+02</totfact>
</mgrwt>
</event>
<event>
 8    2  0.1628804E-003  0.1386675E+03  0.7818608E-02  0.1224933E+00
         -2   -1    0    0    0  501 -0.00000000000E+00  0.00000000000E+00  0.19926495509E+03  0.19926495510E+03  0.25500000000E-02 0.  1.
          2   -1    0    0  501    0  0.00000000000E+00 -0.00000000000E+00 -0.14539519231E+03  0.14539519233E+03  0.25500000000E-02 0. -1.
         25    2    1    2    0    0  0.55944432670E+02 -0.21741359918E+02 -0.87338062217E+02  0.16387990203E+03  0.12500487551E+03 0.  0.
         23    2    1    2    0    0 -0.55944432670E+02  0.21741359918E+02  0.14120782499E+03  0.18078024540E+03  0.95600109887E+02 0.  0.
        -11    1    4    4    0    0 -0.34502770426E+01  0.44498479877E+02  0.24770048967E+02  0.51044827839E+02  0.51100000000E-03 0. -1.
         11    1    4    4    0    0 -0.52494155628E+02 -0.22757119960E+02  0.11643777603E+03  0.12973541756E+03  0.51100000000E-03 0.  1.
    9000005    1    3    3    0    0  0.46390885828E+02  0.31490045010E+02 -0.93921950179E+02  0.10938953308E+03  0.10000000000E+01 0.  0.
    9000005    1    3    3    0    0  0.95535468420E+01 -0.53231404928E+02  0.65838879621E+01  0.54490368952E+02  0.10000000000E+01 0.  0.
<mgrwt>
<rscale>  0 0.13171497E+03</rscale>
<asrwt>0</asrwt>
<pdfrwt beam="2">  1        2 0.22368491E-01 0.13866753E+03</pdfrwt>
<pdfrwt beam="1">  1       -2 0.30656147E-01 0.13866753E+03</pdfrwt>
<totfact> 0.23271711E+03</totfact>
</mgrwt>
</event>
<event>
 8    2  0.1628804E-003  0.1393948E+03  0.7818608E-02  0.1225193E+00
         -2   -1    0    0    0  501 -0.00000000000E+00  0.00000000000E+00  0.15629811859E+02  0.15629812067E+02  0.25500000000E-02 0.  1.
          2   -1    0    0  501    0  0.00000000000E+00 -0.00000000000E+00 -0.10332115805E+04  0.10332115805E+04  0.25500000000E-02 0. -1.
         25    2    1    2    0    0 -0.47405272596E+02 -0.39480752605E+02 -0.47086356591E+03  0.49106356004E+03  0.12499973041E+03 0.  0.
         23    2    1    2    0    0  0.47405272596E+02  0.39480752605E+02 -0.54671820276E+03  0.55777783256E+03  0.91702385842E+02 0.  0.
        -11    1    4    4    0    0  0.71083461909E+02  0.11688987043E+02 -0.30997103472E+03  0.31823188611E+03  0.51100000000E-03 0. -1.
         11    1    4    4    0    0 -0.23678189313E+02  0.27791765563E+02 -0.23674716804E+03  0.23954594645E+03  0.51100000000E-03 0.  1.
    9000005    1    3    3    0    0 -0.30299898335E+02 -0.82231080697E+02 -0.36910992762E+03  0.37937207744E+03  0.10000000000E+01 0.  0.
    9000005    1    3    3    0    0 -0.17105374261E+02  0.42750328092E+02 -0.10175363829E+03  0.11169148260E+03  0.10000000000E+01 0.  0.
<mgrwt>
<rscale>  0 0.13153706E+03</rscale>
<asrwt>0</asrwt>
<pdfrwt beam="2">  1        2 0.15895557E+00 0.13939484E+03</pdfrwt>
<pdfrwt beam="1">  1       -2 0.24045873E-02 0.13939484E+03</pdfrwt>
<totfact> 0.14178685E+04</totfact>
</mgrwt>
</event>
<event>
 8    2  0.1628804E-003  0.1334760E+03  0.7818608E-02  0.1235414E+00
          2   -1    0    0  501    0  0.00000000000E+00  0.00000000000E+00  0.89289640224E+03  0.89289640225E+03  0.25500000000E-02 0. -1.
         -2   -1    0    0    0  501 -0.00000000000E+00 -0.00000000000E+00 -0.16006639928E+02  0.16006640131E+02  0.25500000000E-02 0.  1.
         25    2    1    2    0    0  0.44768265970E+02  0.13736613479E+02  0.57409250486E+03  0.58940482713E+03  0.12499181543E+03 0.  0.
         23    2    1    2    0    0 -0.44768265970E+02 -0.13736613479E+02  0.30279725746E+03  0.31949821524E+03  0.90554062491E+02 0.  0.
        -11    1    4    4    0    0 -0.11854531826E+02  0.11555941642E+02  0.29799832239E+01  0.16821118046E+02  0.51100000000E-03 0.  1.
         11    1    4    4    0    0 -0.32913734144E+02 -0.25292555122E+02  0.29981727423E+03  0.30267709720E+03  0.51100000000E-03 0. -1.
    9000005    1    3    3    0    0  0.66642736256E+02  0.31534766019E+02  0.18300456694E+03  0.19730019585E+03  0.10000000000E+01 0.  0.
    9000005    1    3    3    0    0 -0.21874470286E+02 -0.17798152540E+02  0.39108793792E+03  0.39210463128E+03  0.10000000000E+01 0.  0.
<mgrwt>
<rscale>  0 0.12477991E+03</rscale>
<asrwt>0</asrwt>
<pdfrwt beam="1">  1        2 0.13736873E+00 0.13347601E+03</pdfrwt>
<pdfrwt beam="2">  1       -2 0.24625591E-02 0.13347601E+03</pdfrwt>
<totfact> 0.16625903E+04</totfact>
</mgrwt>
</event>
<event>
 8    2  0.1628804E-003  0.2083935E+03  0.7818608E-02  0.1146725E+00
         -2   -1    0    0    0  501 -0.00000000000E+00  0.00000000000E+00  0.30342093507E+02  0.30342093614E+02  0.25500000000E-02 0.  1.
          2   -1    0    0  501    0  0.00000000000E+00 -0.00000000000E+00 -0.14554012460E+04  0.14554012460E+04  0.25500000000E-02 0. -1.
         25    2    1    2    0    0  0.16317061877E+03 -0.34334500600E+02 -0.50540887169E+03  0.54668634780E+03  0.12499730605E+03 0.  0.
         23    2    1    2    0    0 -0.16317061877E+03  0.34334500600E+02 -0.91965028079E+03  0.93905699181E+03  0.90927917344E+02 0.  0.
        -11    1    4    4    0    0 -0.11459479694E+03  0.16609294713E+02 -0.38831463271E+03  0.40521116734E+03  0.51100000000E-03 0.  1.
         11    1    4    4    0    0 -0.48575821830E+02  0.17725205887E+02 -0.53133564808E+03  0.53384582447E+03  0.51100000000E-03 0. -1.
    9000005    1    3    3    0    0  0.13154037207E+03 -0.35368422869E+02 -0.21474761451E+03  0.25430558932E+03  0.10000000000E+01 0.  0.
    9000005    1    3    3    0    0  0.31630246698E+02  0.10339222687E+01 -0.29066125718E+03  0.29238075848E+03  0.10000000000E+01 0.  0.
<mgrwt>
<rscale>  0 0.20361437E+03</rscale>
<asrwt>0</asrwt>
<pdfrwt beam="2">  1        2 0.22390783E+00 0.20839346E+03</pdfrwt>
<pdfrwt beam="1">  1       -2 0.46680155E-02 0.20839346E+03</pdfrwt>
<totfact> 0.31297297E+03</totfact>
</mgrwt>
</event>
<event>
 8    2  0.1628804E-003  0.1731018E+03  0.7818608E-02  0.1180880E+00
          2   -1    0    0  501    0  0.00000000000E+00  0.00000000000E+00  0.73036617130E+03  0.73036617130E+03  0.25500000000E-02 0. -1.
         -2   -1    0    0    0  501 -0.00000000000E+00 -0.00000000000E+00 -0.37417042155E+02  0.37417042242E+02  0.25500000000E-02 0.  1.
         25    2    1    2    0    0 -0.10356024275E+03 -0.60120205257E+02  0.44880241256E+03  0.48102789048E+03  0.12500025175E+03 0.  0.
         23    2    1    2    0    0  0.10356024275E+03  0.60120205257E+02  0.24414671658E+03  0.28675532307E+03  0.91004577532E+02 0.  0.
        -11    1    4    4    0    0  0.68494889235E+02  0.58330106361E+02  0.23323938663E+03  0.24998912503E+03  0.51100000000E-03 0. -1.
         11    1    4    4    0    0  0.35065353512E+02  0.17900988966E+01  0.10907329953E+02  0.36766198035E+02  0.51100000000E-03 0.  1.
    9000005    1    3    3    0    0 -0.13218198139E+03 -0.49047993970E+02  0.38978027102E+03  0.41449661228E+03  0.10000000000E+01 0.  0.
    9000005    1    3    3    0    0  0.28621738646E+02 -0.11072211287E+02  0.59022141544E+02  0.66531278196E+02  0.10000000000E+01 0.  0.
<mgrwt>
<rscale>  0 0.16712450E+03</rscale>
<asrwt>0</asrwt>
<pdfrwt beam="1">  1        2 0.11236403E+00 0.17310178E+03</pdfrwt>
<pdfrwt beam="2">  1       -2 0.57564678E-02 0.17310178E+03</pdfrwt>
<totfact> 0.61403354E+03</totfact>
</mgrwt>
</event>
<event>
 8    2  0.1628804E-003  0.1319411E+03  0.7818608E-02  0.1242835E+00
         -2   -1    0    0    0  501 -0.00000000000E+00  0.00000000000E+00  0.45660982091E+02  0.45660982162E+02  0.25500000000E-02 0. -1.
          2   -1    0    0  501    0  0.00000000000E+00 -0.00000000000E+00 -0.27324989301E+03  0.27324989303E+03  0.25500000000E-02 0.  1.
         25    2    1    2    0    0 -0.87333978394E+01 -0.41319094348E+02 -0.14710511367E+03  0.19760659627E+03  0.12499965051E+03 0.  0.
         23    2    1    2    0    0  0.87333978394E+01  0.41319094348E+02 -0.80483797255E+02  0.12130427892E+03  0.80333969571E+02 0.  0.
        -11    1    4    4    0    0  0.10717246452E+02  0.25292892094E+02 -0.95427316686E+02  0.99302379288E+02  0.51100000000E-03 0.  1.
         11    1    4    4    0    0 -0.19838486125E+01  0.16026202254E+02  0.14943519431E+02  0.22001899628E+02  0.51100000000E-03 0. -1.
    9000005    1    3    3    0    0  0.26875398827E+02  0.23587735939E+02 -0.33801743262E+01  0.35931795493E+02  0.10000000000E+01 0.  0.
    9000005    1    3    3    0    0 -0.35608796667E+02 -0.64906830288E+02 -0.14372493934E+03  0.16167480078E+03  0.10000000000E+01 0.  0.
<mgrwt>
<rscale>  0 0.12015913E+03</rscale>
<asrwt>0</asrwt>
<pdfrwt beam="2">  1        2 0.42038444E-01 0.13194109E+03</pdfrwt>
<pdfrwt beam="1">  1       -2 0.70247666E-02 0.13194109E+03</pdfrwt>
<totfact> 0.13163944E+04</totfact>
</mgrwt>
</event>
<event>
 8    2  0.1628804E-003  0.1279306E+03  0.7818608E-02  0.1243765E+00
          2   -1    0    0  501    0  0.00000000000E+00  0.00000000000E+00  0.23239956816E+04  0.23239956816E+04  0.25500000000E-02 0. -1.
         -2   -1    0    0    0  501 -0.00000000000E+00 -0.00000000000E+00 -0.58465986729E+01  0.58465992290E+01  0.25500000000E-02 0.  1.
         25    2    1    2    0    0 -0.23721751785E+02 -0.13382914624E+02  0.15949190918E+04  0.16000416102E+04  0.12499768439E+03 0.  0.
         23    2    1    2    0    0  0.23721751785E+02  0.13382914624E+02  0.72322999111E+03  0.72980067061E+03  0.93838024599E+02 0.  0.
        -11    1    4    4    0    0 -0.14736800304E+02  0.45059149162E+02  0.38878692005E+03  0.39166665598E+03  0.51100000000E-03 0.  1.
         11    1    4    4    0    0  0.38458552089E+02 -0.31676234538E+02  0.33444307107E+03  0.33813401463E+03  0.51100000000E-03 0. -1.
    9000005    1    3    3    0    0 -0.40875529354E+02 -0.58993622060E+02  0.11967290599E+04  0.11988796850E+04  0.10000000000E+01 0.  0.
    9000005    1    3    3    0    0  0.17153777569E+02  0.45610707436E+02  0.39819003188E+03  0.40116192517E+03  0.10000000000E+01 0.  0.
<mgrwt>
<rscale>  0 0.11959596E+03</rscale>
<asrwt>0</asrwt>
<pdfrwt beam="1">  1        2 0.35753763E+00 0.12793063E+03</pdfrwt>
<pdfrwt beam="2">  1       -2 0.89947718E-03 0.12793063E+03</pdfrwt>
<totfact> 0.12208630E+04</totfact>
</mgrwt>
</event>
<event>
 8    2  0.1628804E-003  0.1779694E+03  0.7818608E-02  0.1175336E+00
         -2   -1    0    0    0  501 -0.00000000000E+00  0.00000000000E+00  0.11219921296E+03  0.11219921298E+03  0.25500000000E-02 0.  1.
          2   -1    0    0  501    0  0.00000000000E+00 -0.00000000000E+00 -0.26469634497E+03  0.26469634498E+03  0.25500000000E-02 0. -1.
         25    2    1    2    0    0  0.11055348054E+03 -0.61853754405E+02 -0.12547722659E+03  0.21775593936E+03  0.12500062296E+03 0.  0.
         23    2    1    2    0    0 -0.11055348054E+03  0.61853754405E+02 -0.27019905419E+02  0.15913961860E+03  0.92452062857E+02 0.  0.
        -11    1    4    4    0    0 -0.85507778070E+02  0.38435181972E+02 -0.60210031986E+02  0.11141854099E+03  0.51100000000E-03 0. -1.
         11    1    4    4    0    0 -0.25045702470E+02  0.23418572433E+02  0.33190126566E+02  0.47721077616E+02  0.51100000000E-03 0.  1.
    9000005    1    3    3    0    0  0.86694259209E+02 -0.93789785620E+02 -0.12375063623E+03  0.17784161052E+03  0.10000000000E+01 0.  0.
    9000005    1    3    3    0    0  0.23859221331E+02  0.31936031215E+02 -0.17265903628E+01  0.39914328838E+02  0.10000000000E+01 0.  0.
<mgrwt>
<rscale>  0 0.17243112E+03</rscale>
<asrwt>0</asrwt>
<pdfrwt beam="2">  1        2 0.40722514E-01 0.17796942E+03</pdfrwt>
<pdfrwt beam="1">  1       -2 0.17261417E-01 0.17796942E+03</pdfrwt>
<totfact> 0.33143736E+03</totfact>
</mgrwt>
</event>
<event>
 8    2  0.1628804E-003  0.1447170E+03  0.7818608E-02  0.1217559E+00
          2   -1    0    0  501    0  0.00000000000E+00  0.00000000000E+00  0.11161770484E+04  0.11161770484E+04  0.25500000000E-02 0. -1.
         -2   -1    0    0    0  501 -0.00000000000E+00 -0.00000000000E+00 -0.18110964834E+02  0.18110965014E+02  0.25500000000E-02 0.  1.
         25    2    1    2    0    0  0.52748005609E+02 -0.50349112311E+02  0.82572388260E+03  0.83830957563E+03  0.12500251630E+03 0.  0.
         23    2    1    2    0    0 -0.52748005609E+02  0.50349112311E+02  0.27234220096E+03  0.29597843779E+03  0.90086491800E+02 0.  0.
        -11    1    4    4    0    0 -0.53023771928E+02  0.64502893531E+02  0.14095339480E+03  0.16382918901E+03  0.51100000000E-03 0.  1.
         11    1    4    4    0    0  0.27576631933E+00 -0.14153781221E+02  0.13138880616E+03  0.13214924878E+03  0.51100000000E-03 0. -1.
    9000005    1    3    3    0    0  0.43410388303E+02 -0.12050413502E+02  0.82208205793E+02  0.93748938009E+02  0.10000000000E+01 0.  0.
    9000005    1    3    3    0    0  0.93376173059E+01 -0.38298698808E+02  0.74351567681E+03  0.74456063762E+03  0.10000000000E+01 0.  0.
<mgrwt>
<rscale>  0 0.13690243E+03</rscale>
<asrwt>0</asrwt>
<pdfrwt beam="1">  1        2 0.17171958E+00 0.14471701E+03</pdfrwt>
<pdfrwt beam="2">  1       -2 0.27863017E-02 0.14471701E+03</pdfrwt>
<totfact> 0.10251674E+04</totfact>
</mgrwt>
</event>
<event>
 8    2  0.1628804E-003  0.1498584E+03  0.7818608E-02  0.1209386E+00
         -2   -1    0    0    0  501 -0.00000000000E+00  0.00000000000E+00  0.17420253202E+02  0.17420253389E+02  0.25500000000E-02 0.  1.
          2   -1    0    0  501    0  0.00000000000E+00 -0.00000000000E+00 -0.10901658050E+04  0.10901658050E+04  0.25500000000E-02 0. -1.
         25    2    1    2    0    0  0.29952077725E+02  0.77055008315E+02 -0.52666272682E+03  0.54756841267E+03  0.12499174961E+03 0.  0.
         23    2    1    2    0    0 -0.29952077725E+02 -0.77055008315E+02 -0.54608282502E+03  0.56001764576E+03  0.92621328611E+02 0.  0.
        -11    1    4    4    0    0 -0.17337127899E+02  0.29890055682E+01 -0.16010815463E+02  0.23787735708E+02  0.51100000000E-03 0.  1.
         11    1    4    4    0    0 -0.12614949826E+02 -0.80044013883E+02 -0.53007200956E+03  0.53622991005E+03  0.51100000000E-03 0. -1.
    9000005    1    3    3    0    0  0.26415869519E+01  0.10679344184E+03 -0.42387957651E+03  0.43713466184E+03  0.10000000000E+01 0.  0.
    9000005    1    3    3    0    0  0.27310490773E+02 -0.29738433528E+02 -0.10278315031E+03  0.11043375083E+03  0.10000000000E+01 0.  0.
<mgrwt>
<rscale>  0 0.14297095E+03</rscale>
<asrwt>0</asrwt>
<pdfrwt beam="2">  1        2 0.16771776E+00 0.14985840E+03</pdfrwt>
<pdfrwt beam="1">  1       -2 0.26800398E-02 0.14985840E+03</pdfrwt>
<totfact> 0.11253965E+04</totfact>
</mgrwt>
</event>
<event>
 8    2  0.1628804E-003  0.1469190E+03  0.7818608E-02  0.1213585E+00
          2   -1    0    0  501    0  0.00000000000E+00  0.00000000000E+00  0.50725772064E+03  0.50725772065E+03  0.25500000000E-02 0. -1.
         -2   -1    0    0    0  501 -0.00000000000E+00 -0.00000000000E+00 -0.35591420083E+02  0.35591420175E+02  0.25500000000E-02 0.  1.
         25    2    1    2    0    0 -0.44809343221E+02 -0.62868351993E+02  0.23206640494E+03  0.27466343579E+03  0.12499951896E+03 0.  0.
         23    2    1    2    0    0  0.44809343221E+02  0.62868351993E+02  0.23959989562E+03  0.26818570503E+03  0.92494083474E+02 0.  0.
        -11    1    4    4    0    0  0.35632918946E+02 -0.13492397800E+02  0.12077256898E+03  0.12664029031E+03  0.51100000000E-03 0.  1.
         11    1    4    4    0    0  0.91764242748E+01  0.76360749793E+02  0.11882732664E+03  0.14154541472E+03  0.51100000000E-03 0. -1.
    9000005    1    3    3    0    0 -0.77211318329E+02 -0.73714974320E+02  0.13729154002E+03  0.17391219646E+03  0.10000000000E+01 0.  0.
    9000005    1    3    3    0    0  0.32401975108E+02  0.10846622327E+02  0.94774864919E+02  0.10075123933E+03  0.10000000000E+01 0.  0.
<mgrwt>
<rscale>  0 0.13980969E+03</rscale>
<asrwt>0</asrwt>
<pdfrwt beam="1">  1        2 0.78039644E-01 0.14691898E+03</pdfrwt>
<pdfrwt beam="2">  1       -2 0.54756035E-02 0.14691898E+03</pdfrwt>
<totfact> 0.99916662E+03</totfact>
</mgrwt>
</event>
<event>
 8    2  0.1628804E-003  0.1991005E+03  0.7818608E-02  0.1150947E+00
          2   -1    0    0  501    0  0.00000000000E+00  0.00000000000E+00  0.92929267250E+03  0.92929267250E+03  0.25500000000E-02 0.  1.
         -2   -1    0    0    0  501 -0.00000000000E+00 -0.00000000000E+00 -0.12272246128E+03  0.12272246130E+03  0.25500000000E-02 0. -1.
         25    2    1    2    0    0 -0.15345616839E+03 -0.21633017848E+02 -0.22031288316E+02  0.20031572669E+03  0.12499691844E+03 0.  0.
         23    2    1    2    0    0  0.15345616839E+03  0.21633017848E+02  0.82860149954E+03  0.85169940711E+03  0.12163326831E+03 0.  0.
        -11    1    4    4    0    0  0.14020362593E+03 -0.21136482741E+02  0.72657045322E+03  0.74027591553E+03  0.51100000000E-03 0.  1.
         11    1    4    4    0    0  0.13252542462E+02  0.42769500589E+02  0.10203104631E+03  0.11142349157E+03  0.51100000000E-03 0. -1.
    9000005    1    3    3    0    0 -0.10589770419E+03  0.46155843123E+02 -0.41767312582E+01  0.11559900818E+03  0.10000000000E+01 0.  0.
    9000005    1    3    3    0    0 -0.47558464195E+02 -0.67788860971E+02 -0.17854557058E+02  0.84716718515E+02  0.10000000000E+01 0.  0.
<mgrwt>
<rscale>  0 0.19857485E+03</rscale>
<asrwt>0</asrwt>
<pdfrwt beam="1">  1        2 0.14296810E+00 0.19910051E+03</pdfrwt>
<pdfrwt beam="2">  1       -2 0.18880379E-01 0.19910051E+03</pdfrwt>
<totfact> 0.68059246E+02</totfact>
</mgrwt>
</event>
<event>
 8    2  0.1628804E-003  0.1687759E+03  0.7818608E-02  0.1185735E+00
         -2   -1    0    0    0  501 -0.00000000000E+00  0.00000000000E+00  0.10079288433E+02  0.10079288755E+02  0.25500000000E-02 0.  1.
          2   -1    0    0  501    0  0.00000000000E+00 -0.00000000000E+00 -0.27805578290E+04  0.27805578290E+04  0.25500000000E-02 0. -1.
         25    2    1    2    0    0 -0.24037749679E+02 -0.11083194017E+03 -0.99618069137E+03  0.10103768057E+04  0.12499514908E+03 0.  0.
         23    2    1    2    0    0  0.24037749679E+02  0.11083194017E+03 -0.17742978492E+04  0.17802603120E+04  0.91281918223E+02 0.  0.
        -11    1    4    4    0    0  0.29783083291E+02  0.18957533816E+02 -0.98171458958E+03  0.98234920244E+03  0.51100000000E-03 0. -1.
         11    1    4    4    0    0 -0.57453336117E+01  0.91874406358E+02 -0.79258325960E+03  0.79791110959E+03  0.51100000000E-03 0.  1.
    9000005    1    3    3    0    0 -0.59280333931E+02 -0.59876634741E+02 -0.30505415989E+03  0.31647813486E+03  0.10000000000E+01 0.  0.
    9000005    1    3    3    0    0  0.35242584252E+02 -0.50955305432E+02 -0.69112653147E+03  0.69389867085E+03  0.10000000000E+01 0.  0.
<mgrwt>
<rscale>  0 0.16265197E+03</rscale>
<asrwt>0</asrwt>
<pdfrwt beam="2">  1        2 0.42777752E+00 0.16877595E+03</pdfrwt>
<pdfrwt beam="1">  1       -2 0.15506620E-02 0.16877595E+03</pdfrwt>
<totfact> 0.31689028E+03</totfact>
</mgrwt>
</event>
<event>
 8    2  0.1628804E-003  0.1258318E+03  0.7818608E-02  0.1248196E+00
          2   -1    0    0  501    0  0.00000000000E+00  0.00000000000E+00  0.26046391909E+04  0.26046391909E+04  0.25500000000E-02 0. -1.
         -2   -1    0    0    0  501 -0.00000000000E+00 -0.00000000000E+00 -0.48392892117E+01  0.48392898835E+01  0.25500000000E-02 0.  1.
         25    2    1    2    0    0  0.11499908409E+02 -0.89485651177E+01  0.17457440016E+04  0.17502730523E+04  0.12498525535E+03 0.  0.
         23    2    1    2    0    0 -0.11499908409E+02  0.89485651177E+01  0.85405590013E+03  0.85920542844E+03  0.92790964074E+02 0.  0.
        -11    1    4    4    0    0  0.30494642969E+02 -0.24003478461E+02  0.28069567052E+03  0.28336575247E+03  0.51100000000E-03 0. -1.
         11    1    4    4    0    0 -0.41994551379E+02  0.32952043579E+02  0.57336022961E+03  0.57583967597E+03  0.51100000000E-03 0.  1.
    9000005    1    3    3    0    0  0.45908572006E+02 -0.48599821963E+02  0.69231526903E+03  0.69553646303E+03  0.10000000000E+01 0.  0.
    9000005    1    3    3    0    0 -0.34408663597E+02  0.39651256846E+02  0.10534287325E+04  0.10547365893E+04  0.10000000000E+01 0.  0.
<mgrwt>
<rscale>  0 0.11696116E+03</rscale>
<asrwt>0</asrwt>
<pdfrwt beam="1">  1        2 0.40071266E+00 0.12583179E+03</pdfrwt>
<pdfrwt beam="2">  1       -2 0.74450805E-03 0.12583179E+03</pdfrwt>
<totfact> 0.11337752E+04</totfact>
</mgrwt>
</event>
<event>
 8    2  0.1628804E-003  0.1398785E+03  0.7818608E-02  0.1224577E+00
          2   -1    0    0  501    0  0.00000000000E+00  0.00000000000E+00  0.81856154603E+03  0.81856154603E+03  0.25500000000E-02 0. -1.
         -2   -1    0    0    0  501 -0.00000000000E+00 -0.00000000000E+00 -0.19537920590E+02  0.19537920757E+02  0.25500000000E-02 0.  1.
         25    2    1    2    0    0  0.31960008684E+02  0.54028787819E+02  0.38955726645E+03  0.41390925303E+03  0.12500181533E+03 0.  0.
         23    2    1    2    0    0 -0.31960008684E+02 -0.54028787819E+02  0.40946635899E+03  0.42419021376E+03  0.91291216629E+02 0.  0.
        -11    1    4    4    0    0  0.10514485283E+01 -0.74671646421E+01  0.30545003853E+03  0.30554310683E+03  0.51100000000E-03 0. -1.
         11    1    4    4    0    0 -0.33011457212E+02 -0.46561623177E+02  0.10401632046E+03  0.11864710693E+03  0.51100000000E-03 0.  1.
    9000005    1    3    3    0    0  0.88380046657E+01  0.52665802105E+02  0.48749878144E+02  0.72314228593E+02  0.10000000000E+01 0.  0.
    9000005    1    3    3    0    0  0.23122004018E+02  0.13629857139E+01  0.34080738830E+03  0.34159502444E+03  0.10000000000E+01 0.  0.
<mgrwt>
<rscale>  0 0.13195912E+03</rscale>
<asrwt>0</asrwt>
<pdfrwt beam="1">  1        2 0.12593253E+00 0.13987854E+03</pdfrwt>
<pdfrwt beam="2">  1       -2 0.30058343E-02 0.13987854E+03</pdfrwt>
<totfact> 0.13918291E+04</totfact>
</mgrwt>
</event>
<event>
 8    2  0.1628804E-003  0.1905161E+03  0.7818608E-02  0.1163810E+00
         -2   -1    0    0    0  501 -0.00000000000E+00  0.00000000000E+00  0.25845355087E+03  0.25845355088E+03  0.25500000000E-02 0.  1.
          2   -1    0    0  501    0  0.00000000000E+00 -0.00000000000E+00 -0.12553614908E+03  0.12553614911E+03  0.25500000000E-02 0. -1.
         25    2    1    2    0    0 -0.90884288656E+02 -0.11140452719E+03  0.96715422675E+02  0.21365921767E+03  0.12500186282E+03 0.  0.
         23    2    1    2    0    0  0.90884288656E+02  0.11140452719E+03  0.36201979113E+02  0.17033048232E+03  0.83850863516E+02 0.  0.
        -11    1    4    4    0    0  0.66574043916E+02  0.65405030041E+02  0.62213205833E+02  0.11216240127E+03  0.51100000000E-03 0.  1.
         11    1    4    4    0    0  0.24310244739E+02  0.45999497153E+02 -0.26011226720E+02  0.58168081053E+02  0.51100000000E-03 0. -1.
    9000005    1    3    3    0    0 -0.22093966959E+02  0.18545273616E+02  0.52850053779E+02  0.60217927014E+02  0.10000000000E+01 0.  0.
    9000005    1    3    3    0    0 -0.68790321697E+02 -0.12994980081E+03  0.43865368896E+02  0.15344129066E+03  0.10000000000E+01 0.  0.
<mgrwt>
<rscale>  0 0.18418848E+03</rscale>
<asrwt>0</asrwt>
<pdfrwt beam="2">  1        2 0.19313254E-01 0.19051611E+03</pdfrwt>
<pdfrwt beam="1">  1       -2 0.39762084E-01 0.19051611E+03</pdfrwt>
<totfact> 0.17191397E+03</totfact>
</mgrwt>
</event>
<event>
 8    2  0.1628804E-003  0.1808320E+03  0.7818608E-02  0.1172426E+00
         -2   -1    0    0    0  501 -0.00000000000E+00  0.00000000000E+00  0.39584540394E+02  0.39584540476E+02  0.25500000000E-02 0.  1.
          2   -1    0    0  501    0  0.00000000000E+00 -0.00000000000E+00 -0.13559888429E+04  0.13559888429E+04  0.25500000000E-02 0. -1.
         25    2    1    2    0    0 -0.12909238573E+03  0.20259434984E+02 -0.11529344749E+04  0.11670296166E+04  0.12499973456E+03 0.  0.
         23    2    1    2    0    0  0.12909238573E+03 -0.20259434984E+02 -0.16346982755E+03  0.22854376681E+03  0.91839969896E+02 0.  0.
        -11    1    4    4    0    0  0.17760663264E+02 -0.11242699586E+02  0.91605242054E+01  0.22929340539E+02  0.51100000000E-03 0.  1.
         11    1    4    4    0    0  0.11133172247E+03 -0.90167353975E+01 -0.17263035176E+03  0.20561442628E+03  0.51100000000E-03 0. -1.
    9000005    1    3    3    0    0 -0.28384160266E+02 -0.37623331780E+02 -0.60942139822E+03  0.61124186396E+03  0.10000000000E+01 0.  0.
    9000005    1    3    3    0    0 -0.10070822546E+03  0.57882766763E+02 -0.54351307673E+03  0.55578775260E+03  0.10000000000E+01 0.  0.
<mgrwt>
<rscale>  0 0.17530530E+03</rscale>
<asrwt>0</asrwt>
<pdfrwt beam="2">  1        2 0.20861363E+00 0.18083203E+03</pdfrwt>
<pdfrwt beam="1">  1       -2 0.60899303E-02 0.18083203E+03</pdfrwt>
<totfact> 0.23601534E+03</totfact>
</mgrwt>
</event>
<event>
 8    2  0.1628804E-003  0.1288834E+03  0.7818608E-02  0.1243338E+00
          2   -1    0    0  501    0  0.00000000000E+00  0.00000000000E+00  0.24510528386E+03  0.24510528388E+03  0.25500000000E-02 0.  1.
         -2   -1    0    0    0  501 -0.00000000000E+00 -0.00000000000E+00 -0.52269332151E+02  0.52269332214E+02  0.25500000000E-02 0. -1.
         25    2    1    2    0    0 -0.10753372596E+02  0.29456357572E+02  0.95671613585E+02  0.16051164716E+03  0.12501047637E+03 0.  0.
         23    2    1    2    0    0  0.10753372596E+02 -0.29456357572E+02  0.97164338128E+02  0.13686296894E+03  0.91144125638E+02 0.  0.
        -11    1    4    4    0    0 -0.70447054305E+01 -0.38741948477E+02  0.10735566388E+03  0.11434948629E+03  0.51100000000E-03 0.  1.
         11    1    4    4    0    0  0.17798078027E+02  0.92855909052E+01 -0.10191325756E+02  0.22513482646E+02  0.51100000000E-03 0. -1.
    9000005    1    3    3    0    0  0.19176445686E+02  0.13783523733E+02 -0.25466962150E+02  0.34746046636E+02  0.10000000000E+01 0.  0.
    9000005    1    3    3    0    0 -0.29929818283E+02  0.15672833839E+02  0.12113857574E+03  0.12576560052E+03  0.10000000000E+01 0.  0.
<mgrwt>
<rscale>  0 0.11985413E+03</rscale>
<asrwt>0</asrwt>
<pdfrwt beam="1">  1        2 0.37708506E-01 0.12888340E+03</pdfrwt>
<pdfrwt beam="2">  1       -2 0.80414357E-02 0.12888340E+03</pdfrwt>
<totfact> 0.11980746E+04</totfact>
</mgrwt>
</event>
<event>
 8    2  0.1628804E-003  0.1301505E+03  0.7818608E-02  0.1244215E+00
         -2   -1    0    0    0  501 -0.00000000000E+00  0.00000000000E+00  0.13282397539E+02  0.13282397784E+02  0.25500000000E-02 0.  1.
          2   -1    0    0  501    0  0.00000000000E+00 -0.00000000000E+00 -0.94651115238E+03  0.94651115238E+03  0.25500000000E-02 0. -1.
         25    2    1    2    0    0  0.29755303434E+01 -0.36213682705E+02 -0.48012144960E+03  0.49744924048E+03  0.12497542116E+03 0.  0.
         23    2    1    2    0    0 -0.29755303434E+01  0.36213682705E+02 -0.45310730524E+03  0.46234430968E+03  0.84473345142E+02 0.  0.
        -11    1    4    4    0    0  0.73522596421E+01 -0.19841829322E+02 -0.39342790637E+02  0.44672240688E+02  0.51100000000E-03 0.  1.
         11    1    4    4    0    0 -0.10327789985E+02  0.56055512027E+02 -0.41376451460E+03  0.41767206900E+03  0.51100000000E-03 0. -1.
    9000005    1    3    3    0    0  0.24430074917E+02  0.38980494907E+02 -0.25534432383E+03  0.25945718579E+03  0.10000000000E+01 0.  0.
    9000005    1    3    3    0    0 -0.21454544574E+02 -0.75194177611E+02 -0.22477712577E+03  0.23799205469E+03  0.10000000000E+01 0.  0.
<mgrwt>
<rscale>  0 0.11932463E+03</rscale>
<asrwt>0</asrwt>
<pdfrwt beam="2">  1        2 0.14561705E+00 0.13015045E+03</pdfrwt>
<pdfrwt beam="1">  1       -2 0.20434465E-02 0.13015045E+03</pdfrwt>
<totfact> 0.20161259E+04</totfact>
</mgrwt>
</event>
<event>
 8    2  0.1628804E-003  0.1482003E+03  0.7818608E-02  0.1210972E+00
         -2   -1    0    0    0  501 -0.00000000000E+00  0.00000000000E+00  0.10453281450E+03  0.10453281453E+03  0.25500000000E-02 0. -1.
          2   -1    0    0  501    0  0.00000000000E+00 -0.00000000000E+00 -0.17741992659E+03  0.17741992661E+03  0.25500000000E-02 0.  1.
         25    2    1    2    0    0  0.40544312281E+02 -0.68514267905E+02 -0.43002193632E+02  0.15431308270E+03  0.12500117067E+03 0.  0.
         23    2    1    2    0    0 -0.40544312281E+02  0.68514267905E+02 -0.29884918458E+02  0.12763965844E+03  0.95187855791E+02 0.  0.
        -11    1    4    4    0    0 -0.69509195034E+02  0.44867342064E+02 -0.53248176217E+01  0.82903318758E+02  0.51100000000E-03 0.  1.
         11    1    4    4    0    0  0.28964882753E+02  0.23646925841E+02 -0.24560100836E+02  0.44736339680E+02  0.51100000000E-03 0. -1.
    9000005    1    3    3    0    0  0.60203749703E+02 -0.73386853804E+02 -0.71848637520E+02  0.11905187316E+03  0.10000000000E+01 0.  0.
    9000005    1    3    3    0    0 -0.19659437421E+02  0.48725858989E+01  0.28846443888E+02  0.35261209537E+02  0.10000000000E+01 0.  0.
<mgrwt>
<rscale>  0 0.14176619E+03</rscale>
<asrwt>0</asrwt>
<pdfrwt beam="2">  1        2 0.27295373E-01 0.14820033E+03</pdfrwt>
<pdfrwt beam="1">  1       -2 0.16081971E-01 0.14820033E+03</pdfrwt>
<totfact> 0.56896476E+03</totfact>
</mgrwt>
</event>
<event>
 8    2  0.1628804E-003  0.2445692E+03  0.7818608E-02  0.1119262E+00
          2   -1    0    0  501    0  0.00000000000E+00  0.00000000000E+00  0.12482962243E+04  0.12482962243E+04  0.25500000000E-02 0. -1.
         -2   -1    0    0    0  501 -0.00000000000E+00 -0.00000000000E+00 -0.56008362667E+02  0.56008362725E+02  0.25500000000E-02 0.  1.
         25    2    1    2    0    0 -0.15466233208E+03  0.14236178486E+03  0.89909746417E+03  0.93176731028E+03  0.12500702254E+03 0.  0.
         23    2    1    2    0    0  0.15466233208E+03 -0.14236178486E+03  0.29319039750E+03  0.37253727678E+03  0.92930612012E+02 0.  0.
        -11    1    4    4    0    0  0.13727919695E+03 -0.68400809797E+02  0.18451925375E+03  0.23994083375E+03  0.51100000000E-03 0.  1.
         11    1    4    4    0    0  0.17383135135E+02 -0.73960975066E+02  0.10867114376E+03  0.13259644303E+03  0.51100000000E-03 0. -1.
    9000005    1    3    3    0    0 -0.10588849397E+03  0.47498142148E+02  0.27296505274E+03  0.29661315999E+03  0.10000000000E+01 0.  0.
    9000005    1    3    3    0    0 -0.48773838115E+02  0.94863642714E+02  0.62613241143E+03  0.63515415029E+03  0.10000000000E+01 0.  0.
<mgrwt>
<rscale>  0 0.24079894E+03</rscale>
<asrwt>0</asrwt>
<pdfrwt beam="1">  1        2 0.19204556E+00 0.24456915E+03</pdfrwt>
<pdfrwt beam="2">  1       -2 0.86166717E-02 0.24456915E+03</pdfrwt>
<totfact> 0.15791540E+03</totfact>
</mgrwt>
</event>
<event>
 8    2  0.1628804E-003  0.1329580E+03  0.7818608E-02  0.1235389E+00
          2   -1    0    0  501    0  0.00000000000E+00  0.00000000000E+00  0.41416105014E+04  0.41416105014E+04  0.25500000000E-02 0. -1.
         -2   -1    0    0    0  501 -0.00000000000E+00 -0.00000000000E+00 -0.58703168864E+01  0.58703174402E+01  0.25500000000E-02 0.  1.
         25    2    1    2    0    0  0.37851432001E+02 -0.24931460252E+02  0.86912450773E+03  0.87923559537E+03  0.12499405431E+03 0.  0.
         23    2    1    2    0    0 -0.37851432001E+02  0.24931460252E+02  0.32666156768E+04  0.32682452235E+04  0.92706808407E+02 0.  0.
        -11    1    4    4    0    0 -0.10030234253E+02 -0.37492244803E+00  0.35002227452E+02  0.36412938536E+02  0.51100000000E-03 0.  1.
         11    1    4    4    0    0 -0.27821197748E+02  0.25306382700E+02  0.32316134494E+04  0.32318322850E+04  0.51100000000E-03 0. -1.
    9000005    1    3    3    0    0  0.11751586109E+02 -0.66038896667E+02  0.27286435186E+03  0.28098966203E+03  0.10000000000E+01 0.  0.
    9000005    1    3    3    0    0  0.26099845892E+02  0.41107436415E+02  0.59626015587E+03  0.59824593334E+03  0.10000000000E+01 0.  0.
<mgrwt>
<rscale>  0 0.12479543E+03</rscale>
<asrwt>0</asrwt>
<pdfrwt beam="1">  1        2 0.63717532E+00 0.13295797E+03</pdfrwt>
<pdfrwt beam="2">  1       -2 0.90311938E-03 0.13295797E+03</pdfrwt>
<totfact> 0.89865505E+02</totfact>
</mgrwt>
</event>
<event>
 8    2  0.1628804E-003  0.1471610E+03  0.7818608E-02  0.1209460E+00
          2   -1    0    0  501    0  0.00000000000E+00  0.00000000000E+00  0.11381642703E+04  0.11381642703E+04  0.25500000000E-02 0. -1.
         -2   -1    0    0    0  501 -0.00000000000E+00 -0.00000000000E+00 -0.33036052152E+02  0.33036052251E+02  0.25500000000E-02 0.  1.
         25    2    1    2    0    0  0.19761926088E+02  0.75102616563E+02  0.16132127328E+03  0.21835960031E+03  0.12500170037E+03 0.  0.
         23    2    1    2    0    0 -0.19761926088E+02 -0.75102616563E+02  0.94380694487E+03  0.95284072225E+03  0.10537056541E+03 0.  0.
        -11    1    4    4    0    0 -0.17882440671E+02 -0.73865065327E+02  0.94637760591E+03  0.94942424791E+03  0.51100000000E-03 0. -1.
         11    1    4    4    0    0 -0.18794854168E+01 -0.12375512362E+01 -0.25706610354E+01  0.34164743398E+01  0.51100000000E-03 0.  1.
    9000005    1    3    3    0    0  0.59304680637E+02  0.45323739248E+00  0.44311230480E+02  0.74038744697E+02  0.10000000000E+01 0.  0.
    9000005    1    3    3    0    0 -0.39542754549E+02  0.74649379171E+02  0.11701004280E+03  0.14432085561E+03  0.10000000000E+01 0.  0.
<mgrwt>
<rscale>  0 0.14291459E+03</rscale>
<asrwt>0</asrwt>
<pdfrwt beam="1">  1        2 0.17510220E+00 0.14716101E+03</pdfrwt>
<pdfrwt beam="2">  1       -2 0.50824695E-02 0.14716101E+03</pdfrwt>
<totfact> 0.40807688E+03</totfact>
</mgrwt>
</event>
<event>
 8    2  0.1628804E-003  0.1575834E+03  0.7818608E-02  0.1199248E+00
          2   -1    0    0  501    0  0.00000000000E+00  0.00000000000E+00  0.63117369200E+03  0.63117369201E+03  0.25500000000E-02 0. -1.
         -2   -1    0    0    0  501 -0.00000000000E+00 -0.00000000000E+00 -0.40210919023E+02  0.40210919104E+02  0.25500000000E-02 0.  1.
         25    2    1    2    0    0  0.95807197841E+02  0.51466270849E+01  0.17877236124E+03  0.23831088447E+03  0.12500805408E+03 0.  0.
         23    2    1    2    0    0 -0.95807197841E+02 -0.51466270849E+01  0.41219041174E+03  0.43307372664E+03  0.91904353819E+02 0.  0.
        -11    1    4    4    0    0 -0.54937925832E+02  0.60357881290E+00  0.36998753807E+03  0.37404454057E+03  0.51100000000E-03 0. -1.
         11    1    4    4    0    0 -0.40869272010E+02 -0.57502058978E+01  0.42202873670E+02  0.59029186076E+02  0.51100000000E-03 0.  1.
    9000005    1    3    3    0    0  0.85609813214E+02 -0.46857124627E+02  0.14719943391E+03  0.17661626084E+03  0.10000000000E+01 0.  0.
    9000005    1    3    3    0    0  0.10197384628E+02  0.52003751712E+02  0.31572927328E+02  0.61694623635E+02  0.10000000000E+01 0.  0.
<mgrwt>
<rscale>  0 0.15100168E+03</rscale>
<asrwt>0</asrwt>
<pdfrwt beam="1">  1        2 0.97103636E-01 0.15758338E+03</pdfrwt>
<pdfrwt beam="2">  1       -2 0.61862958E-02 0.15758338E+03</pdfrwt>
<totfact> 0.65135548E+03</totfact>
</mgrwt>
</event>
<event>
 8    2  0.1628804E-003  0.1579678E+03  0.7818608E-02  0.1198311E+00
         -2   -1    0    0    0  501 -0.00000000000E+00  0.00000000000E+00  0.10363653906E+04  0.10363653906E+04  0.25500000000E-02 0. -1.
          2   -1    0    0  501    0  0.00000000000E+00 -0.00000000000E+00 -0.36660544286E+02  0.36660544375E+02  0.25500000000E-02 0.  1.
         25    2    1    2    0    0 -0.14844845929E+02  0.95436628356E+02  0.16840537894E+03  0.23089867282E+03  0.12500122388E+03 0.  0.
         23    2    1    2    0    0  0.14844845929E+02 -0.95436628356E+02  0.83129946736E+03  0.84212726215E+03  0.93760341968E+02 0.  0.
        -11    1    4    4    0    0  0.39185366020E+01 -0.16423943116E+02  0.17105197528E+02  0.24035153823E+02  0.51100000000E-03 0.  1.
         11    1    4    4    0    0  0.10926309327E+02 -0.79012685240E+02  0.81419426984E+03  0.81809210832E+03  0.51100000000E-03 0. -1.
    9000005    1    3    3    0    0 -0.41496372013E+02  0.44149318937E+02  0.16172667951E+03  0.17270677496E+03  0.10000000000E+01 0.  0.
    9000005    1    3    3    0    0  0.26651526084E+02  0.51287309419E+02  0.66786994266E+01  0.58191897856E+02  0.10000000000E+01 0.  0.
<mgrwt>
<rscale>  0 0.15177309E+03</rscale>
<asrwt>0</asrwt>
<pdfrwt beam="2">  1        2 0.56400827E-02 0.15796780E+03</pdfrwt>
<pdfrwt beam="1">  1       -2 0.15944086E+00 0.15796780E+03</pdfrwt>
<totfact> 0.35835297E+02</totfact>
</mgrwt>
</event>
<event>
 8    2  0.1628804E-003  0.1432812E+03  0.7818608E-02  0.1219621E+00
          2   -1    0    0  501    0  0.00000000000E+00  0.00000000000E+00  0.64404484759E+03  0.64404484760E+03  0.25500000000E-02 0. -1.
         -2   -1    0    0    0  501 -0.00000000000E+00 -0.00000000000E+00 -0.30609552545E+02  0.30609552651E+02  0.25500000000E-02 0.  1.
         25    2    1    2    0    0  0.19785923485E+02  0.67174171717E+02  0.20221103847E+03  0.24782819190E+03  0.12500262600E+03 0.  0.
         23    2    1    2    0    0 -0.19785923485E+02 -0.67174171717E+02  0.41122425657E+03  0.42682620834E+03  0.90395634961E+02 0.  0.
        -11    1    4    4    0    0 -0.93714843987E+01 -0.39493261091E+02  0.50037137493E+02  0.64430253144E+02  0.51100000000E-03 0.  1.
         11    1    4    4    0    0 -0.10414439086E+02 -0.27680910626E+02  0.36118711908E+03  0.36239595520E+03  0.51100000000E-03 0. -1.
    9000005    1    3    3    0    0 -0.30535226300E+02  0.12494866031E+02  0.15787944288E+03  0.16129302591E+03  0.10000000000E+01 0.  0.
    9000005    1    3    3    0    0  0.50321149785E+02  0.54679305686E+02  0.44331595591E+02  0.86535165994E+02  0.10000000000E+01 0.  0.
<mgrwt>
<rscale>  0 0.13542477E+03</rscale>
<asrwt>0</asrwt>
<pdfrwt beam="1">  1        2 0.99083825E-01 0.14328122E+03</pdfrwt>
<pdfrwt beam="2">  1       -2 0.47091618E-02 0.14328122E+03</pdfrwt>
<totfact> 0.95579897E+03</totfact>
</mgrwt>
</event>
<event>
 8    2  0.1628804E-003  0.1386736E+03  0.7818608E-02  0.1228628E+00
         -2   -1    0    0    0  501 -0.00000000000E+00  0.00000000000E+00  0.13905830206E+02  0.13905830440E+02  0.25500000000E-02 0.  1.
          2   -1    0    0  501    0  0.00000000000E+00 -0.00000000000E+00 -0.12930954836E+04  0.12930954836E+04  0.25500000000E-02 0. -1.
         25    2    1    2    0    0  0.56678675038E+02 -0.19832572727E+02 -0.98663045797E+03  0.99632827289E+03  0.12499825445E+03 0.  0.
         23    2    1    2    0    0 -0.56678675038E+02  0.19832572727E+02 -0.29255919543E+03  0.31067304116E+03  0.85563149363E+02 0.  0.
        -11    1    4    4    0    0 -0.28975247465E+02  0.51089697315E+02 -0.12695728984E+03  0.13988522288E+03  0.51100000000E-03 0.  1.
         11    1    4    4    0    0 -0.27703427573E+02 -0.31257124588E+02 -0.16560190559E+03  0.17078781828E+03  0.51100000000E-03 0. -1.
    9000005    1    3    3    0    0 -0.15958196763E+02  0.40396835557E+02 -0.26169852317E+03  0.26528039015E+03  0.10000000000E+01 0.  0.
    9000005    1    3    3    0    0  0.72636871801E+02 -0.60229408283E+02 -0.72493193480E+03  0.73104788274E+03  0.10000000000E+01 0.  0.
<mgrwt>
<rscale>  0 0.12921331E+03</rscale>
<asrwt>0</asrwt>
<pdfrwt beam="2">  1        2 0.19893767E+00 0.13867360E+03</pdfrwt>
<pdfrwt beam="1">  1       -2 0.21393595E-02 0.13867360E+03</pdfrwt>
<totfact> 0.12008545E+04</totfact>
</mgrwt>
</event>
<event>
 8    2  0.1628804E-003  0.2099774E+03  0.7818608E-02  0.1145455E+00
          2   -1    0    0  501    0  0.00000000000E+00  0.00000000000E+00  0.60998999788E+03  0.60998999789E+03  0.25500000000E-02 0. -1.
         -2   -1    0    0    0  501 -0.00000000000E+00 -0.00000000000E+00 -0.73461579758E+02  0.73461579802E+02  0.25500000000E-02 0.  1.
         25    2    1    2    0    0  0.16861855225E+03 -0.57209504779E+01  0.38811791467E+03  0.44127772140E+03  0.12500226509E+03 0.  0.
         23    2    1    2    0    0 -0.16861855225E+03  0.57209504779E+01  0.14841050345E+03  0.24217385629E+03  0.90319176812E+02 0.  0.
        -11    1    4    4    0    0 -0.12900944336E+02 -0.96974693926E+01 -0.10419519637E+02  0.19210457233E+02  0.51100000000E-03 0.  1.
         11    1    4    4    0    0 -0.15571760791E+03  0.15418419871E+02  0.15883002309E+03  0.22296339906E+03  0.51100000000E-03 0. -1.
    9000005    1    3    3    0    0  0.17370449872E+03  0.11700042689E+02  0.38540001215E+03  0.42289988560E+03  0.10000000000E+01 0.  0.
    9000005    1    3    3    0    0 -0.50859464750E+01 -0.17420993167E+02  0.27179025188E+01  0.18377835796E+02  0.10000000000E+01 0.  0.
<mgrwt>
<rscale>  0 0.20516247E+03</rscale>
<asrwt>0</asrwt>
<pdfrwt beam="1">  1        2 0.93844614E-01 0.20997741E+03</pdfrwt>
<pdfrwt beam="2">  1       -2 0.11301782E-01 0.20997741E+03</pdfrwt>
<totfact> 0.26732971E+03</totfact>
</mgrwt>
</event>
<event>
 8    2  0.1628804E-003  0.1267549E+03  0.7818608E-02  0.1249180E+00
          2   -1    0    0  501    0  0.00000000000E+00  0.00000000000E+00  0.10651728927E+04  0.10651728927E+04  0.25500000000E-02 0. -1.
         -2   -1    0    0    0  501 -0.00000000000E+00 -0.00000000000E+00 -0.11043339787E+02  0.11043340081E+02  0.25500000000E-02 0.  1.
         25    2    1    2    0    0  0.15025597271E+02  0.14795461454E+02  0.62883547919E+03  0.64148332264E+03  0.12498847580E+03 0.  0.
         23    2    1    2    0    0 -0.15025597271E+02 -0.14795461454E+02  0.42529407375E+03  0.43473291017E+03  0.87595546504E+02 0.  0.
        -11    1    4    4    0    0  0.22728746016E+02 -0.70918347082E+01  0.33782453917E+02  0.41329701280E+02  0.51100000000E-03 0.  1.
         11    1    4    4    0    0 -0.37754343288E+02 -0.77036267454E+01  0.39151161983E+03  0.39340320889E+03  0.51100000000E-03 0. -1.
    9000005    1    3    3    0    0  0.49530707798E+02  0.52810694929E+02  0.29707621251E+03  0.30577366883E+03  0.10000000000E+01 0.  0.
    9000005    1    3    3    0    0 -0.34505110527E+02 -0.38015233475E+02  0.33175926668E+03  0.33570965380E+03  0.10000000000E+01 0.  0.
<mgrwt>
<rscale>  0 0.11638641E+03</rscale>
<asrwt>0</asrwt>
<pdfrwt beam="1">  1        2 0.16387282E+00 0.12675486E+03</pdfrwt>
<pdfrwt beam="2">  1       -2 0.16989747E-02 0.12675486E+03</pdfrwt>
<totfact> 0.22341006E+04</totfact>
</mgrwt>
</event>
<event>
 8    2  0.1628804E-003  0.1827019E+03  0.7818608E-02  0.1170272E+00
         -2   -1    0    0    0  501 -0.00000000000E+00  0.00000000000E+00  0.17184828159E+03  0.17184828161E+03  0.25500000000E-02 0.  1.
          2   -1    0    0  501    0  0.00000000000E+00 -0.00000000000E+00 -0.18275563877E+03  0.18275563879E+03  0.25500000000E-02 0. -1.
         25    2    1    2    0    0 -0.12254898984E+03  0.52317257976E+02  0.34037416368E+02  0.18584548919E+03  0.12499859898E+03 0.  0.
         23    2    1    2    0    0  0.12254898984E+03 -0.52317257976E+02 -0.44944773545E+02  0.16875843121E+03  0.93295364516E+02 0.  0.
        -11    1    4    4    0    0  0.90173782668E+02 -0.37124072648E+02  0.15288817941E+02  0.98707931823E+02  0.51100000000E-03 0.  1.
         11    1    4    4    0    0  0.32375207176E+02 -0.15193185328E+02 -0.60233591486E+02  0.70050499382E+02  0.51100000000E-03 0. -1.
    9000005    1    3    3    0    0 -0.11766395439E+03  0.83424382493E+02  0.47106397184E+02  0.15173808492E+03  0.10000000000E+01 0.  0.
    9000005    1    3    3    0    0 -0.48850354493E+01 -0.31107124518E+02 -0.13068980815E+02  0.34107404279E+02  0.10000000000E+01 0.  0.
<mgrwt>
<rscale>  0 0.17747199E+03</rscale>
<asrwt>0</asrwt>
<pdfrwt beam="2">  1        2 0.28116252E-01 0.18270194E+03</pdfrwt>
<pdfrwt beam="1">  1       -2 0.26438197E-01 0.18270194E+03</pdfrwt>
<totfact> 0.23816468E+03</totfact>
</mgrwt>
</event>
<event>
 8    2  0.1628804E-003  0.1653431E+03  0.7818608E-02  0.1189698E+00
          2   -1    0    0  501    0  0.00000000000E+00  0.00000000000E+00  0.11497813374E+03  0.11497813377E+03  0.25500000000E-02 0. -1.
         -2   -1    0    0    0  501 -0.00000000000E+00 -0.00000000000E+00 -0.20520070501E+03  0.20520070502E+03  0.25500000000E-02 0.  1.
         25    2    1    2    0    0 -0.10320719947E+03  0.32583394828E+02 -0.51563318270E+02  0.17319671040E+03  0.12499968424E+03 0.  0.
         23    2    1    2    0    0  0.10320719947E+03 -0.32583394828E+02 -0.38659252996E+02  0.14698212839E+03  0.91628623168E+02 0.  0.
        -11    1    4    4    0    0  0.16346213587E+02 -0.47329218521E+02  0.16397234238E+01  0.50099324522E+02  0.51100000000E-03 0.  1.
         11    1    4    4    0    0  0.86860985885E+02  0.14745823693E+02 -0.40298976420E+02  0.96882803872E+02  0.51100000000E-03 0. -1.
    9000005    1    3    3    0    0 -0.75845291722E+02 -0.41132234615E+02 -0.33134870792E+02  0.92429912167E+02  0.10000000000E+01 0.  0.
    9000005    1    3    3    0    0 -0.27361907750E+02  0.73715629443E+02 -0.18428447478E+02  0.80766798230E+02  0.10000000000E+01 0.  0.
<mgrwt>
<rscale>  0 0.15911599E+03</rscale>
<asrwt>0</asrwt>
<pdfrwt beam="1">  1        2 0.17688944E-01 0.16534305E+03</pdfrwt>
<pdfrwt beam="2">  1       -2 0.31569339E-01 0.16534305E+03</pdfrwt>
<totfact> 0.29044802E+03</totfact>
</mgrwt>
</event>
<event>
 8    2  0.1628804E-003  0.1486076E+03  0.7818608E-02  0.1211521E+00
          2   -1    0    0  501    0  0.00000000000E+00  0.00000000000E+00  0.24174494237E+04  0.24174494237E+04  0.25500000000E-02 0. -1.
         -2   -1    0    0    0  501 -0.00000000000E+00 -0.00000000000E+00 -0.76825357869E+01  0.76825362101E+01  0.25500000000E-02 0.  1.
         25    2    1    2    0    0 -0.16292800449E+02 -0.78699477649E+02  0.11663433893E+04  0.11757725656E+04  0.12500064441E+03 0.  0.
         23    2    1    2    0    0  0.16292800449E+02  0.78699477649E+02  0.12434234986E+04  0.12493593943E+04  0.91311752511E+02 0.  0.
        -11    1    4    4    0    0 -0.24589745373E+02  0.25897833297E+01  0.11472477963E+03  0.11735901166E+03  0.51100000000E-03 0.  1.
         11    1    4    4    0    0  0.40882545822E+02  0.76109694319E+02  0.11286987190E+04  0.11320003826E+04  0.51100000000E-03 0. -1.
    9000005    1    3    3    0    0 -0.67620073114E+02 -0.64762157909E+02  0.65275468415E+03  0.65943634194E+03  0.10000000000E+01 0.  0.
    9000005    1    3    3    0    0  0.51327272665E+02 -0.13937319740E+02  0.51358870513E+03  0.51633622364E+03  0.10000000000E+01 0.  0.
<mgrwt>
<rscale>  0 0.14135206E+03</rscale>
<asrwt>0</asrwt>
<pdfrwt beam="1">  1        2 0.37191559E+00 0.14860762E+03</pdfrwt>
<pdfrwt beam="2">  1       -2 0.11819277E-02 0.14860762E+03</pdfrwt>
<totfact> 0.73978085E+03</totfact>
</mgrwt>
</event>
<event>
 8    2  0.1628804E-003  0.1332664E+03  0.7818608E-02  0.1235579E+00
         -2   -1    0    0    0  501 -0.00000000000E+00  0.00000000000E+00  0.24021000741E+02  0.24021000876E+02  0.25500000000E-02 0.  1.
          2   -1    0    0  501    0  0.00000000000E+00 -0.00000000000E+00 -0.10863427543E+04  0.10863427543E+04  0.25500000000E-02 0. -1.
         25    2    1    2    0    0  0.43515453800E+02 -0.15498415387E+02 -0.18993094558E+03  0.23202089934E+03  0.12500455209E+03 0.  0.
         23    2    1    2    0    0 -0.43515453800E+02  0.15498415387E+02 -0.87239080800E+03  0.87834285586E+03  0.91031065897E+02 0.  0.
        -11    1    4    4    0    0  0.22419043326E+02 -0.16410981832E+02 -0.30007655958E+03  0.30136004287E+03  0.51100000000E-03 0.  1.
         11    1    4    4    0    0 -0.65934497126E+02  0.31909397219E+02 -0.57231424843E+03  0.57698281300E+03  0.51100000000E-03 0. -1.
    9000005    1    3    3    0    0 -0.29946736229E+02 -0.44692097374E+02 -0.68178184815E+02  0.86853068243E+02  0.10000000000E+01 0.  0.
    9000005    1    3    3    0    0  0.73462190029E+02  0.29193681987E+02 -0.12175276077E+03  0.14516783110E+03  0.10000000000E+01 0.  0.
<mgrwt>
<rscale>  0 0.12467412E+03</rscale>
<asrwt>0</asrwt>
<pdfrwt beam="2">  1        2 0.16712962E+00 0.13326640E+03</pdfrwt>
<pdfrwt beam="1">  1       -2 0.36955394E-02 0.13326640E+03</pdfrwt>
<totfact> 0.70044145E+03</totfact>
</mgrwt>
</event>
<event>
 8    2  0.1628804E-003  0.1962898E+03  0.7818608E-02  0.1157814E+00
         -2   -1    0    0    0  501 -0.00000000000E+00  0.00000000000E+00  0.49423216871E+02  0.49423216937E+02  0.25500000000E-02 0.  1.
          2   -1    0    0  501    0  0.00000000000E+00 -0.00000000000E+00 -0.69713774604E+03  0.69713774604E+03  0.25500000000E-02 0. -1.
         25    2    1    2    0    0  0.10663733630E+03  0.10739330411E+03 -0.33960110014E+03  0.39224814372E+03  0.12499942309E+03 0.  0.
         23    2    1    2    0    0 -0.10663733630E+03 -0.10739330411E+03 -0.30811342902E+03  0.35431281926E+03  0.87743065165E+02 0.  0.
        -11    1    4    4    0    0 -0.14840356988E+02 -0.74502585686E+02 -0.15791873067E+03  0.17524039764E+03  0.51100000000E-03 0. -1.
         11    1    4    4    0    0 -0.91796979311E+02 -0.32890718426E+02 -0.15019469836E+03  0.17907242162E+03  0.51100000000E-03 0.  1.
    9000005    1    3    3    0    0  0.77935806182E+01  0.80502356922E+02 -0.82716587299E+02  0.11569098143E+03  0.10000000000E+01 0.  0.
    9000005    1    3    3    0    0  0.98843755681E+02  0.26890947190E+02 -0.25688451284E+03  0.27655716229E+03  0.10000000000E+01 0.  0.
<mgrwt>
<rscale>  0 0.19071949E+03</rscale>
<asrwt>0</asrwt>
<pdfrwt beam="2">  1        2 0.10725195E+00 0.19628983E+03</pdfrwt>
<pdfrwt beam="1">  1       -2 0.76035723E-02 0.19628983E+03</pdfrwt>
<totfact> 0.42570383E+03</totfact>
</mgrwt>
</event>
<event>
 8    2  0.1628804E-003  0.1325287E+03  0.7818608E-02  0.1236756E+00
         -2   -1    0    0    0  501 -0.00000000000E+00  0.00000000000E+00  0.11667797747E+02  0.11667798026E+02  0.25500000000E-02 0.  1.
          2   -1    0    0  501    0  0.00000000000E+00 -0.00000000000E+00 -0.14353071901E+04  0.14353071901E+04  0.25500000000E-02 0. -1.
         25    2    1    2    0    0  0.36374585769E+02 -0.24815044488E+02 -0.10970849367E+04  0.11050607301E+04  0.12499984754E+03 0.  0.
         23    2    1    2    0    0 -0.36374585769E+02  0.24815044488E+02 -0.32655445560E+03  0.34191425800E+03  0.91261440009E+02 0.  0.
        -11    1    4    4    0    0  0.92668921168E+01  0.30494852747E+02 -0.37459906567E+02  0.49183899132E+02  0.51100000000E-03 0.  1.
         11    1    4    4    0    0 -0.45641477886E+02 -0.56798082589E+01 -0.28909454903E+03  0.29273035887E+03  0.51100000000E-03 0. -1.
    9000005    1    3    3    0    0  0.42518902092E+02  0.27773865033E+01 -0.11623222796E+03  0.12380024930E+03  0.10000000000E+01 0.  0.
    9000005    1    3    3    0    0 -0.61443163227E+01 -0.27592430991E+02 -0.98085270875E+03  0.98126048078E+03  0.10000000000E+01 0.  0.
<mgrwt>
<rscale>  0 0.12392697E+03</rscale>
<asrwt>0</asrwt>
<pdfrwt beam="2">  1        2 0.22081635E+00 0.13252871E+03</pdfrwt>
<pdfrwt beam="1">  1       -2 0.17950470E-02 0.13252871E+03</pdfrwt>
<totfact> 0.12983075E+04</totfact>
</mgrwt>
</event>
<event>
 8    2  0.1628804E-003  0.2183662E+03  0.7818608E-02  0.1138330E+00
          2   -1    0    0  501    0  0.00000000000E+00  0.00000000000E+00  0.45134137301E+03  0.45134137302E+03  0.25500000000E-02 0. -1.
         -2   -1    0    0    0  501 -0.00000000000E+00 -0.00000000000E+00 -0.10761672768E+03  0.10761672771E+03  0.25500000000E-02 0.  1.
         25    2    1    2    0    0 -0.65559379694E+02 -0.16660436717E+03  0.93841471468E+02  0.23767632601E+03  0.12501506610E+03 0.  0.
         23    2    1    2    0    0  0.65559379694E+02  0.16660436717E+03  0.24988317386E+03  0.32128177472E+03  0.93409478951E+02 0.  0.
        -11    1    4    4    0    0  0.48492009288E+02  0.80696864573E+02  0.58584502311E+02  0.11088553931E+03  0.51100000000E-03 0.  1.
         11    1    4    4    0    0  0.17067370406E+02  0.85907502602E+02  0.19129867155E+03  0.21039623541E+03  0.51100000000E-03 0. -1.
    9000005    1    3    3    0    0 -0.52329835638E+02 -0.16536955380E+03  0.11820845382E+03  0.20990411996E+03  0.10000000000E+01 0.  0.
    9000005    1    3    3    0    0 -0.13229544056E+02 -0.12348133713E+01 -0.24366982352E+02  0.27772206051E+02  0.10000000000E+01 0.  0.
<mgrwt>
<rscale>  0 0.21413888E+03</rscale>
<asrwt>0</asrwt>
<pdfrwt beam="1">  1        2 0.69437135E-01 0.21836624E+03</pdfrwt>
<pdfrwt beam="2">  1       -2 0.16556420E-01 0.21836624E+03</pdfrwt>
<totfact> 0.20126351E+03</totfact>
</mgrwt>
</event>
<event>
 8    2  0.1628804E-003  0.1487762E+03  0.7818608E-02  0.1211252E+00
         -2   -1    0    0    0  501 -0.00000000000E+00  0.00000000000E+00  0.10514504996E+03  0.10514504999E+03  0.25500000000E-02 0.  1.
          2   -1    0    0  501    0  0.00000000000E+00 -0.00000000000E+00 -0.38292480771E+03  0.38292480772E+03  0.25500000000E-02 0. -1.
         25    2    1    2    0    0 -0.77978402288E+02  0.20713101007E+02 -0.32490940200E+03  0.35735205428E+03  0.12499882965E+03 0.  0.
         23    2    1    2    0    0  0.77978402288E+02 -0.20713101007E+02  0.47129644252E+02  0.13071780343E+03  0.91412674122E+02 0.  0.
        -11    1    4    4    0    0  0.78018285706E+02 -0.30903679598E+02  0.14638239808E+01  0.83928738214E+02  0.51100000000E-03 0. -1.
         11    1    4    4    0    0 -0.39883417725E-01  0.10190578591E+02  0.45665820272E+02  0.46789065219E+02  0.51100000000E-03 0.  1.
    9000005    1    3    3    0    0 -0.68446967894E+01  0.54868044819E+02 -0.21530512652E+03  0.22229406138E+03  0.10000000000E+01 0.  0.
    9000005    1    3    3    0    0 -0.71133705499E+02 -0.34154943813E+02 -0.10960427548E+03  0.13505799291E+03  0.10000000000E+01 0.  0.
<mgrwt>
<rscale>  0 0.14155468E+03</rscale>
<asrwt>0</asrwt>
<pdfrwt beam="2">  1        2 0.58911508E-01 0.14877625E+03</pdfrwt>
<pdfrwt beam="1">  1       -2 0.16176162E-01 0.14877625E+03</pdfrwt>
<totfact> 0.24713190E+03</totfact>
</mgrwt>
</event>
<event>
 8    2  0.1628804E-003  0.1284550E+03  0.7818608E-02  0.1243751E+00
          2   -1    0    0  501    0  0.00000000000E+00  0.00000000000E+00  0.42078128876E+03  0.42078128877E+03  0.25500000000E-02 0. -1.
         -2   -1    0    0    0  501 -0.00000000000E+00 -0.00000000000E+00 -0.39106346224E+02  0.39106346307E+02  0.25500000000E-02 0.  1.
         25    2    1    2    0    0 -0.13392289796E+02 -0.26390919699E+02  0.10202832049E+03  0.16404411272E+03  0.12499943467E+03 0.  0.
         23    2    1    2    0    0  0.13392289796E+02  0.26390919699E+02  0.27964662205E+03  0.29584352236E+03  0.91898435409E+02 0.  0.
        -11    1    4    4    0    0  0.56930527917E+01  0.57732284150E+01  0.27262020714E+03  0.27274075302E+03  0.51100000000E-03 0. -1.
         11    1    4    4    0    0  0.76992370039E+01  0.20617691284E+02  0.70264149038E+01  0.23102769336E+02  0.51100000000E-03 0.  1.
    9000005    1    3    3    0    0 -0.78686117338E+00 -0.72201292830E+02  0.89303084145E+02  0.11484636117E+03  0.10000000000E+01 0.  0.
    9000005    1    3    3    0    0 -0.12605428622E+02  0.45810373131E+02  0.12725236346E+02  0.49197751546E+02  0.10000000000E+01 0.  0.
<mgrwt>
<rscale>  0 0.11960437E+03</rscale>
<asrwt>0</asrwt>
<pdfrwt beam="1">  1        2 0.64735585E-01 0.12845502E+03</pdfrwt>
<pdfrwt beam="2">  1       -2 0.60163607E-02 0.12845502E+03</pdfrwt>
<totfact> 0.10516541E+04</totfact>
</mgrwt>
</event>
<event>
 8    2  0.1628804E-003  0.1353416E+03  0.7818608E-02  0.1231248E+00
         -2   -1    0    0    0  501 -0.00000000000E+00  0.00000000000E+00  0.15863686468E+02  0.15863686673E+02  0.25500000000E-02 0.  1.
          2   -1    0    0  501    0  0.00000000000E+00 -0.00000000000E+00 -0.93005746909E+03  0.93005746909E+03  0.25500000000E-02 0. -1.
         25    2    1    2    0    0  0.40173158813E+02  0.32841730634E+02 -0.46705755962E+03  0.48627163287E+03  0.12499949992E+03 0.  0.
         23    2    1    2    0    0 -0.40173158813E+02 -0.32841730634E+02 -0.44713622300E+03  0.45964952289E+03  0.93029135298E+02 0.  0.
        -11    1    4    4    0    0 -0.26290285424E+02  0.24079605881E+02 -0.76358030467E+02  0.84270726495E+02  0.51100000000E-03 0.  1.
         11    1    4    4    0    0 -0.13882873389E+02 -0.56921336514E+02 -0.37077819254E+03  0.37537879640E+03  0.51100000000E-03 0. -1.
    9000005    1    3    3    0    0 -0.92864562137E+01  0.43613129745E+02 -0.39880361079E+03  0.40128999904E+03  0.10000000000E+01 0.  0.
    9000005    1    3    3    0    0  0.49459615026E+02 -0.10771399112E+02 -0.68253948829E+02  0.84981633828E+02  0.10000000000E+01 0.  0.
<mgrwt>
<rscale>  0 0.12747733E+03</rscale>
<asrwt>0</asrwt>
<pdfrwt beam="2">  1        2 0.14308572E+00 0.13534156E+03</pdfrwt>
<pdfrwt beam="1">  1       -2 0.24405679E-02 0.13534156E+03</pdfrwt>
<totfact> 0.15981901E+04</totfact>
</mgrwt>
</event>
<event>
 8    2  0.1628804E-003  0.1300335E+03  0.7818608E-02  0.1240763E+00
          2   -1    0    0  501    0  0.00000000000E+00  0.00000000000E+00  0.18171570618E+04  0.18171570619E+04  0.25500000000E-02 0. -1.
         -2   -1    0    0    0  501 -0.00000000000E+00 -0.00000000000E+00 -0.85076926168E+01  0.85076929989E+01  0.25500000000E-02 0.  1.
         25    2    1    2    0    0 -0.19762586358E+02 -0.29931592201E+02  0.13624896840E+04  0.13686806967E+04  0.12498900160E+03 0.  0.
         23    2    1    2    0    0  0.19762586358E+02  0.29931592201E+02  0.44615968524E+03  0.45698405814E+03  0.92138507868E+02 0.  0.
        -11    1    4    4    0    0  0.56515618777E+02  0.22273952503E+02  0.29924177261E+03  0.30534534973E+03  0.51100000000E-03 0. -1.
         11    1    4    4    0    0 -0.36753032419E+02  0.76576396973E+01  0.14691791263E+03  0.15163870841E+03  0.51100000000E-03 0.  1.
    9000005    1    3    3    0    0 -0.69561958048E+01 -0.13769048654E+02  0.13306102544E+04  0.13307000505E+04  0.10000000000E+01 0.  0.
    9000005    1    3    3    0    0 -0.12806390553E+02 -0.16162543546E+02  0.31879429581E+02  0.37980646168E+02  0.10000000000E+01 0.  0.
<mgrwt>
<rscale>  0 0.12142592E+03</rscale>
<asrwt>0</asrwt>
<pdfrwt beam="1">  1        2 0.27956311E+00 0.13003350E+03</pdfrwt>
<pdfrwt beam="2">  1       -2 0.13088735E-02 0.13003350E+03</pdfrwt>
<totfact> 0.13004639E+04</totfact>
</mgrwt>
</event>
<event>
 8    2  0.1628804E-003  0.1277634E+03  0.7818608E-02  0.1246325E+00
         -2   -1    0    0    0  501 -0.00000000000E+00  0.00000000000E+00  0.33748849584E+02  0.33748849680E+02  0.25500000000E-02 0.  1.
          2   -1    0    0  501    0  0.00000000000E+00 -0.00000000000E+00 -0.36171821743E+03  0.36171821744E+03  0.25500000000E-02 0. -1.
         25    2    1    2    0    0  0.11923404912E+02  0.23600179560E+02 -0.19364786108E+03  0.23199780853E+03  0.12499741199E+03 0.  0.
         23    2    1    2    0    0 -0.11923404912E+02 -0.23600179560E+02 -0.13432150677E+03  0.16346925859E+03  0.89335296845E+02 0.  0.
        -11    1    4    4    0    0  0.28760391877E+02 -0.46166593984E+01 -0.92152022691E+01  0.30551491585E+02  0.51100000000E-03 0.  1.
         11    1    4    4    0    0 -0.40683796790E+02 -0.18983520162E+02 -0.12510630450E+03  0.13291776700E+03  0.51100000000E-03 0. -1.
    9000005    1    3    3    0    0  0.40051995245E+02 -0.14102917958E+02 -0.11687504146E+02  0.44052836131E+02  0.10000000000E+01 0.  0.
    9000005    1    3    3    0    0 -0.28128590333E+02  0.37703097518E+02 -0.18196035693E+03  0.18794497240E+03  0.10000000000E+01 0.  0.
<mgrwt>
<rscale>  0 0.11806452E+03</rscale>
<asrwt>0</asrwt>
<pdfrwt beam="2">  1        2 0.55648954E-01 0.12776341E+03</pdfrwt>
<pdfrwt beam="1">  1       -2 0.51921310E-02 0.12776341E+03</pdfrwt>
<totfact> 0.15422278E+04</totfact>
</mgrwt>
</event>
<event>
 8    2  0.1628804E-003  0.1279353E+03  0.7818608E-02  0.1244775E+00
         -2   -1    0    0    0  501 -0.00000000000E+00  0.00000000000E+00  0.68263315570E+02  0.68263315618E+02  0.25500000000E-02 0.  1.
          2   -1    0    0  501    0  0.00000000000E+00 -0.00000000000E+00 -0.20142721377E+03  0.20142721378E+03  0.25500000000E-02 0. -1.
         25    2    1    2    0    0 -0.54915645906E+01  0.26648138541E+02 -0.11546935341E+03  0.17233866005E+03  0.12500864610E+03 0.  0.
         23    2    1    2    0    0  0.54915645906E+01 -0.26648138541E+02 -0.17694544784E+02  0.97351869351E+02  0.91782400174E+02 0.  0.
        -11    1    4    4    0    0  0.37229454324E+02 -0.47568443208E+00  0.19378889612E+02  0.41973800254E+02  0.51100000000E-03 0.  1.
         11    1    4    4    0    0 -0.31737889733E+02 -0.26172454109E+02 -0.37073434396E+02  0.55378069097E+02  0.51100000000E-03 0. -1.
    9000005    1    3    3    0    0  0.46727984318E+02  0.46236627490E+02 -0.88855589468E+02  0.11053346109E+03  0.10000000000E+01 0.  0.
    9000005    1    3    3    0    0 -0.52219548908E+02 -0.19588488950E+02 -0.26613763945E+02  0.61805198963E+02  0.10000000000E+01 0.  0.
<mgrwt>
<rscale>  0 0.11898855E+03</rscale>
<asrwt>0</asrwt>
<pdfrwt beam="2">  1        2 0.30988802E-01 0.12793530E+03</pdfrwt>
<pdfrwt beam="1">  1       -2 0.10502049E-01 0.12793530E+03</pdfrwt>
<totfact> 0.97456580E+03</totfact>
</mgrwt>
</event>
<event>
 8    2  0.1628804E-003  0.1250022E+03  0.7818608E-02  0.1251009E+00
         -2   -1    0    0    0  501 -0.00000000000E+00  0.00000000000E+00  0.32826257470E+02  0.32826257569E+02  0.25500000000E-02 0.  1.
          2   -1    0    0  501    0  0.00000000000E+00 -0.00000000000E+00 -0.52595922562E+03  0.52595922562E+03  0.25500000000E-02 0. -1.
         25    2    1    2    0    0  0.30374938201E+00  0.85678650994E-02 -0.11465473301E+03  0.16962092202E+03  0.12500182818E+03 0.  0.
         23    2    1    2    0    0 -0.30374938201E+00 -0.85678650994E-02 -0.37847823514E+03  0.38916456117E+03  0.90571457205E+02 0.  0.
        -11    1    4    4    0    0 -0.42210834896E+02 -0.21528789255E+01 -0.11828575333E+03  0.12561014653E+03  0.51100000000E-03 0.  1.
         11    1    4    4    0    0  0.41907085514E+02  0.21443110604E+01 -0.26019248181E+03  0.26355441464E+03  0.51100000000E-03 0. -1.
    9000005    1    3    3    0    0  0.89159278658E+01  0.22816167027E+02  0.20698619122E+02  0.32085886010E+02  0.10000000000E+01 0.  0.
    9000005    1    3    3    0    0 -0.86121784838E+01 -0.22807599161E+02 -0.13535335213E+03  0.13753503601E+03  0.10000000000E+01 0.  0.
<mgrwt>
<rscale>  0 0.11532851E+03</rscale>
<asrwt>0</asrwt>
<pdfrwt beam="2">  1        2 0.80916798E-01 0.12500220E+03</pdfrwt>
<pdfrwt beam="1">  1       -2 0.50501939E-02 0.12500220E+03</pdfrwt>
<totfact> 0.10722372E+04</totfact>
</mgrwt>
</event>
<event>
 8    2  0.1628804E-003  0.1521624E+03  0.7818608E-02  0.1205106E+00
         -2   -1    0    0    0  501 -0.00000000000E+00  0.00000000000E+00  0.66180490443E+02  0.66180490492E+02  0.25500000000E-02 0.  1.
          2   -1    0    0  501    0  0.00000000000E+00 -0.00000000000E+00 -0.33544862816E+03  0.33544862817E+03  0.25500000000E-02 0. -1.
         25    2    1    2    0    0 -0.72828574484E+02 -0.47160352574E+02 -0.20851373527E+03  0.25813052829E+03  0.12500116689E+03 0.  0.
         23    2    1    2    0    0  0.72828574484E+02  0.47160352574E+02 -0.60754402441E+02  0.14349859036E+03  0.96812436720E+02 0.  0.
        -11    1    4    4    0    0  0.57108913423E+01  0.23465908361E+02 -0.67800464153E+02  0.71973370595E+02  0.51100000000E-03 0. -1.
         11    1    4    4    0    0  0.67117683141E+02  0.23694444214E+02  0.70460617122E+01  0.71525219767E+02  0.51100000000E-03 0.  1.
    9000005    1    3    3    0    0 -0.32444796523E+02  0.39049938116E+00 -0.19041900744E+03  0.19316629029E+03  0.10000000000E+01 0.  0.
    9000005    1    3    3    0    0 -0.40383777961E+02 -0.47550851956E+02 -0.18094727834E+02  0.64964238004E+02  0.10000000000E+01 0.  0.
<mgrwt>
<rscale>  0 0.14629138E+03</rscale>
<asrwt>0</asrwt>
<pdfrwt beam="2">  1        2 0.51607480E-01 0.15216239E+03</pdfrwt>
<pdfrwt beam="1">  1       -2 0.10181614E-01 0.15216239E+03</pdfrwt>
<totfact> 0.60106188E+03</totfact>
</mgrwt>
</event>
<event>
 8    2  0.1628804E-003  0.1271193E+03  0.7818608E-02  0.1247391E+00
          2   -1    0    0  501    0  0.00000000000E+00  0.00000000000E+00  0.36721537624E+03  0.36721537625E+03  0.25500000000E-02 0.  1.
         -2   -1    0    0    0  501 -0.00000000000E+00 -0.00000000000E+00 -0.34783160693E+02  0.34783160786E+02  0.25500000000E-02 0. -1.
         25    2    1    2    0    0  0.15163383244E+02 -0.17447760249E+02  0.14421910284E+03  0.19224583289E+03  0.12499983244E+03 0.  0.
         23    2    1    2    0    0 -0.15163383244E+02  0.17447760249E+02  0.18821311270E+03  0.20975270414E+03  0.89653045527E+02 0.  0.
        -11    1    4    4    0    0 -0.26910475152E+02  0.13124928009E+02  0.19376135011E+03  0.19606095533E+03  0.51100000000E-03 0.  1.
         11    1    4    4    0    0  0.11747091908E+02  0.43228322393E+01 -0.55482374091E+01  0.13691748810E+02  0.51100000000E-03 0. -1.
    9000005    1    3    3    0    0  0.33171191255E+02  0.15053377046E+02  0.15023574567E+03  0.15459208055E+03  0.10000000000E+01 0.  0.
    9000005    1    3    3    0    0 -0.18007808011E+02 -0.32501137295E+02 -0.60166428299E+01  0.37653752346E+02  0.10000000000E+01 0.  0.
<mgrwt>
<rscale>  0 0.11743403E+03</rscale>
<asrwt>0</asrwt>
<pdfrwt beam="1">  1        2 0.56494673E-01 0.12711928E+03</pdfrwt>
<pdfrwt beam="2">  1       -2 0.53512555E-02 0.12711928E+03</pdfrwt>
<totfact> 0.14497669E+04</totfact>
</mgrwt>
</event>
<event>
 8    2  0.1628804E-003  0.1266079E+03  0.7818608E-02  0.1247908E+00
         -2   -1    0    0    0  501 -0.00000000000E+00  0.00000000000E+00  0.59551394624E+01  0.59551400084E+01  0.25500000000E-02 0.  1.
          2   -1    0    0  501    0  0.00000000000E+00 -0.00000000000E+00 -0.20249412022E+04  0.20249412022E+04  0.25500000000E-02 0. -1.
         25    2    1    2    0    0  0.17181863832E+02  0.10473264718E+02 -0.12149094990E+04  0.12214887045E+04  0.12499863534E+03 0.  0.
         23    2    1    2    0    0 -0.17181863832E+02 -0.10473264718E+02 -0.80407656375E+03  0.80940763768E+03  0.90535616472E+02 0.  0.
        -11    1    4    4    0    0 -0.50813700405E+02 -0.66351686406E+01 -0.31313331754E+03  0.31729880580E+03  0.51100000000E-03 0.  1.
         11    1    4    4    0    0  0.33631836573E+02 -0.38380960773E+01 -0.49094324621E+03  0.49210883188E+03  0.51100000000E-03 0. -1.
    9000005    1    3    3    0    0  0.55595807764E+02 -0.23412888938E+02 -0.35794418038E+03  0.36299324164E+03  0.10000000000E+01 0.  0.
    9000005    1    3    3    0    0 -0.38413943933E+02  0.33886153656E+02 -0.85696531862E+03  0.85849546290E+03  0.10000000000E+01 0.  0.
<mgrwt>
<rscale>  0 0.11712998E+03</rscale>
<asrwt>0</asrwt>
<pdfrwt beam="2">  1        2 0.31152887E+00 0.12660792E+03</pdfrwt>
<pdfrwt beam="1">  1       -2 0.91617695E-03 0.12660792E+03</pdfrwt>
<totfact> 0.16956758E+04</totfact>
</mgrwt>
</event>
<event>
 8    2  0.1628804E-003  0.1273389E+03  0.7818608E-02  0.1246019E+00
         -2   -1    0    0    0  501 -0.00000000000E+00  0.00000000000E+00  0.22310140984E+04  0.22310140984E+04  0.25500000000E-02 0.  1.
          2   -1    0    0  501    0  0.00000000000E+00 -0.00000000000E+00 -0.65926698125E+01  0.65926703057E+01  0.25500000000E-02 0. -1.
         25    2    1    2    0    0  0.23429580152E+02 -0.64567537667E+01  0.16957263516E+04  0.17005008214E+04  0.12499819638E+03 0.  0.
         23    2    1    2    0    0 -0.23429580152E+02  0.64567537667E+01  0.52869507700E+03  0.53710594734E+03  0.91507810224E+02 0.  0.
        -11    1    4    4    0    0 -0.39785636451E+02 -0.32934063559E+02  0.31329845867E+03  0.31752712264E+03  0.51100000000E-03 0.  1.
         11    1    4    4    0    0  0.16356056299E+02  0.39390817326E+02  0.21539661833E+03  0.21957882470E+03  0.51100000000E-03 0. -1.
    9000005    1    3    3    0    0 -0.20713767527E+02 -0.18267031110E+01  0.14851157641E+04  0.14852616705E+04  0.10000000000E+01 0.  0.
    9000005    1    3    3    0    0  0.44143347680E+02 -0.46300506557E+01  0.21061058755E+03  0.21523915095E+03  0.10000000000E+01 0.  0.
<mgrwt>
<rscale>  0 0.11824570E+03</rscale>
<asrwt>0</asrwt>
<pdfrwt beam="2">  1        2 0.10142572E-02 0.12733885E+03</pdfrwt>
<pdfrwt beam="1">  1       -2 0.34323286E+00 0.12733885E+03</pdfrwt>
<totfact> 0.28567698E+02</totfact>
</mgrwt>
</event>
<event>
 8    2  0.1628804E-003  0.1839837E+03  0.7818608E-02  0.1169296E+00
         -2   -1    0    0    0  501 -0.00000000000E+00  0.00000000000E+00  0.63106301664E+02  0.63106301716E+02  0.25500000000E-02 0.  1.
          2   -1    0    0  501    0  0.00000000000E+00 -0.00000000000E+00 -0.77119655115E+03  0.77119655116E+03  0.25500000000E-02 0. -1.
         25    2    1    2    0    0 -0.11646993558E+03 -0.68245713015E+02 -0.62486112806E+03  0.65138424768E+03  0.12500914173E+03 0.  0.
         23    2    1    2    0    0  0.11646993558E+03  0.68245713015E+02 -0.83229121425E+02  0.18291860520E+03  0.91155944592E+02 0.  0.
        -11    1    4    4    0    0  0.12117982858E+03  0.41477170559E+02 -0.44475516643E+02  0.13558384164E+03  0.51100000000E-03 0.  1.
         11    1    4    4    0    0 -0.47098929980E+01  0.26768542457E+02 -0.38753604782E+02  0.47334763559E+02  0.51100000000E-03 0. -1.
    9000005    1    3    3    0    0 -0.13140782445E+03 -0.75327563188E+02 -0.43146628627E+03  0.45728154816E+03  0.10000000000E+01 0.  0.
    9000005    1    3    3    0    0  0.14937888867E+02  0.70818501722E+01 -0.19339484180E+03  0.19410269952E+03  0.10000000000E+01 0.  0.
<mgrwt>
<rscale>  0 0.17846623E+03</rscale>
<asrwt>0</asrwt>
<pdfrwt beam="2">  1        2 0.11864562E+00 0.18398372E+03</pdfrwt>
<pdfrwt beam="1">  1       -2 0.97086623E-02 0.18398372E+03</pdfrwt>
<totfact> 0.25620133E+03</totfact>
</mgrwt>
</event>
<event>
 8    2  0.1628804E-003  0.1663659E+03  0.7818608E-02  0.1188521E+00
         -2   -1    0    0    0  501 -0.00000000000E+00  0.00000000000E+00  0.76752594460E+03  0.76752594460E+03  0.25500000000E-02 0.  1.
          2   -1    0    0  501    0  0.00000000000E+00 -0.00000000000E+00 -0.36630280828E+02  0.36630280917E+02  0.25500000000E-02 0. -1.
         25    2    1    2    0    0 -0.93723033528E+02  0.57171092021E+02  0.54418388245E+03  0.56904633044E+03  0.12500034996E+03 0.  0.
         23    2    1    2    0    0  0.93723033528E+02 -0.57171092021E+02  0.18671178132E+03  0.23510989508E+03  0.91448524890E+02 0.  0.
        -11    1    4    4    0    0 -0.93211076019E+01 -0.10131150064E+02 -0.30599771534E+01  0.14102719915E+02  0.51100000000E-03 0. -1.
         11    1    4    4    0    0  0.10304414113E+03 -0.47039941957E+02  0.18977175847E+03  0.22100717516E+03  0.51100000000E-03 0.  1.
    9000005    1    3    3    0    0 -0.51274511669E+02  0.22254741680E+01  0.44511265928E+03  0.44806283905E+03  0.10000000000E+01 0.  0.
    9000005    1    3    3    0    0 -0.42448521859E+02  0.54945617853E+02  0.99071223174E+02  0.12098349140E+03  0.10000000000E+01 0.  0.
<mgrwt>
<rscale>  0 0.16015592E+03</rscale>
<asrwt>0</asrwt>
<pdfrwt beam="2">  1        2 0.56354281E-02 0.16636595E+03</pdfrwt>
<pdfrwt beam="1">  1       -2 0.11808091E+00 0.16636595E+03</pdfrwt>
<totfact> 0.76176109E+02</totfact>
</mgrwt>
</event>
<event>
 8    2  0.1628804E-003  0.1288680E+03  0.7818608E-02  0.1242188E+00
          2   -1    0    0  501    0  0.00000000000E+00  0.00000000000E+00  0.16132734440E+04  0.16132734440E+04  0.25500000000E-02 0. -1.
         -2   -1    0    0    0  501 -0.00000000000E+00 -0.00000000000E+00 -0.84868497782E+01  0.84868501613E+01  0.25500000000E-02 0.  1.
         25    2    1    2    0    0  0.25082008529E+02  0.18799352650E+02  0.71531251004E+03  0.72682800509E+03  0.12499775659E+03 0.  0.
         23    2    1    2    0    0 -0.25082008529E+02 -0.18799352650E+02  0.88947408421E+03  0.89493228910E+03  0.93579553225E+02 0.  0.
        -11    1    4    4    0    0  0.18778436569E+02 -0.28594629526E+02  0.67164138916E+03  0.67251203569E+03  0.51100000000E-03 0. -1.
         11    1    4    4    0    0 -0.43860445099E+02  0.97952768765E+01  0.21783269506E+03  0.22242025342E+03  0.51100000000E-03 0.  1.
    9000005    1    3    3    0    0  0.68792384024E+02  0.33320088163E+02  0.32826333157E+03  0.33704663657E+03  0.10000000000E+01 0.  0.
    9000005    1    3    3    0    0 -0.43710375495E+02 -0.14520735513E+02  0.38704917847E+03  0.38978136851E+03  0.10000000000E+01 0.  0.
<mgrwt>
<rscale>  0 0.12055265E+03</rscale>
<asrwt>0</asrwt>
<pdfrwt beam="1">  1        2 0.24819605E+00 0.12886800E+03</pdfrwt>
<pdfrwt beam="2">  1       -2 0.13056685E-02 0.12886800E+03</pdfrwt>
<totfact> 0.16582653E+04</totfact>
</mgrwt>
</event>
<event>
 8    2  0.1628804E-003  0.1447130E+03  0.7818608E-02  0.1217344E+00
          2   -1    0    0  501    0  0.00000000000E+00  0.00000000000E+00  0.28505702173E+03  0.28505702175E+03  0.25500000000E-02 0. -1.
         -2   -1    0    0    0  501 -0.00000000000E+00 -0.00000000000E+00 -0.59957653430E+02  0.59957653484E+02  0.25500000000E-02 0.  1.
         25    2    1    2    0    0  0.64937485892E+02  0.33167284570E+02  0.11626024662E+03  0.18562949680E+03  0.12499967718E+03 0.  0.
         23    2    1    2    0    0 -0.64937485892E+02 -0.33167284570E+02  0.10883912168E+03  0.15938517843E+03  0.90778493357E+02 0.  0.
        -11    1    4    4    0    0  0.27548595316E+01 -0.98815672074E+01  0.82457532629E+02  0.83093196527E+02  0.51100000000E-03 0. -1.
         11    1    4    4    0    0 -0.67692345424E+02 -0.23285717363E+02  0.26381589051E+02  0.76291981906E+02  0.51100000000E-03 0.  1.
    9000005    1    3    3    0    0  0.42691697428E+02 -0.78479949334E+01 -0.15300766988E+02  0.46035698368E+02  0.10000000000E+01 0.  0.
    9000005    1    3    3    0    0  0.22245788464E+02  0.41015279504E+02  0.13156101361E+03  0.13959379843E+03  0.10000000000E+01 0.  0.
<mgrwt>
<rscale>  0 0.13705786E+03</rscale>
<asrwt>0</asrwt>
<pdfrwt beam="1">  1        2 0.43854926E-01 0.14471304E+03</pdfrwt>
<pdfrwt beam="2">  1       -2 0.92242545E-02 0.14471304E+03</pdfrwt>
<totfact> 0.83181026E+03</totfact>
</mgrwt>
</event>
<event>
 8    2  0.1628804E-003  0.1645784E+03  0.7818608E-02  0.1190588E+00
          2   -1    0    0  501    0  0.00000000000E+00  0.00000000000E+00  0.19425355074E+02  0.19425355242E+02  0.25500000000E-02 0. -1.
         -2   -1    0    0    0  501 -0.00000000000E+00 -0.00000000000E+00 -0.12019191498E+04  0.12019191498E+04  0.25500000000E-02 0.  1.
         25    2    1    2    0    0 -0.81662669857E+02  0.69228786205E+02 -0.62901447483E+03  0.65018863475E+03  0.12499853884E+03 0.  0.
         23    2    1    2    0    0  0.81662669857E+02 -0.69228786205E+02 -0.55347931990E+03  0.57115587031E+03  0.91751044367E+02 0.  0.
        -11    1    4    4    0    0  0.47091184631E+02 -0.21845118960E+02 -0.89353875214E+02  0.10333878221E+03  0.51100000000E-03 0. -1.
         11    1    4    4    0    0  0.34571485226E+02 -0.47383667245E+02 -0.46412544469E+03  0.46781708810E+03  0.51100000000E-03 0.  1.
    9000005    1    3    3    0    0 -0.59138588769E+02 -0.23434508046E+02 -0.17346098210E+03  0.18476000963E+03  0.10000000000E+01 0.  0.
    9000005    1    3    3    0    0 -0.22524081088E+02  0.92663294251E+02 -0.45555349274E+03  0.46542862511E+03  0.10000000000E+01 0.  0.
<mgrwt>
<rscale>  0 0.15833641E+03</rscale>
<asrwt>0</asrwt>
<pdfrwt beam="1">  1        2 0.29885171E-02 0.16457840E+03</pdfrwt>
<pdfrwt beam="2">  1       -2 0.18491058E+00 0.16457840E+03</pdfrwt>
<totfact> 0.55945530E+02</totfact>
</mgrwt>
</event>
<event>
 8    2  0.1628804E-003  0.1290777E+03  0.7818608E-02  0.1243392E+00
         -2   -1    0    0    0  501 -0.00000000000E+00  0.00000000000E+00  0.18533815933E+02  0.18533816109E+02  0.25500000000E-02 0.  1.
          2   -1    0    0  501    0  0.00000000000E+00 -0.00000000000E+00 -0.69444878185E+03  0.69444878186E+03  0.25500000000E-02 0. -1.
         25    2    1    2    0    0  0.26142132524E+02 -0.18854900645E+02 -0.43341751820E+03  0.45222982008E+03  0.12498858635E+03 0.  0.
         23    2    1    2    0    0 -0.26142132524E+02  0.18854900645E+02 -0.24249744772E+03  0.26075277788E+03  0.90266719517E+02 0.  0.
        -11    1    4    4    0    0 -0.19799325237E+02 -0.34961981673E+02 -0.81218370960E+02  0.90613339107E+02  0.51100000000E-03 0.  1.
         11    1    4    4    0    0 -0.63428072873E+01  0.53816882318E+02 -0.16127907676E+03  0.17013943878E+03  0.51100000000E-03 0. -1.
    9000005    1    3    3    0    0 -0.24674741444E+02  0.38676574884E+02 -0.23583548098E+03  0.24025839091E+03  0.10000000000E+01 0.  0.
    9000005    1    3    3    0    0  0.50816873968E+02 -0.57531475529E+02 -0.19758203722E+03  0.21197142918E+03  0.10000000000E+01 0.  0.
<mgrwt>
<rscale>  0 0.11982164E+03</rscale>
<asrwt>0</asrwt>
<pdfrwt beam="2">  1        2 0.10683825E+00 0.12907775E+03</pdfrwt>
<pdfrwt beam="1">  1       -2 0.28513568E-02 0.12907775E+03</pdfrwt>
<totfact> 0.18263096E+04</totfact>
</mgrwt>
</event>
<event>
 8    2  0.1628804E-003  0.1893278E+03  0.7818608E-02  0.1163833E+00
          2   -1    0    0  501    0  0.00000000000E+00  0.00000000000E+00  0.12214350533E+04  0.12214350533E+04  0.25500000000E-02 0. -1.
         -2   -1    0    0    0  501 -0.00000000000E+00 -0.00000000000E+00 -0.29093580491E+02  0.29093580603E+02  0.25500000000E-02 0.  1.
         25    2    1    2    0    0  0.12296204959E+03 -0.71438988005E+02  0.43440169678E+03  0.47386690473E+03  0.12498725769E+03 0.  0.
         23    2    1    2    0    0 -0.12296204959E+03  0.71438988005E+02  0.75793977598E+03  0.77666172913E+03  0.92236342251E+02 0.  0.
        -11    1    4    4    0    0 -0.78251606175E+02  0.37146736124E+02  0.23080776079E+03  0.24652670507E+03  0.51100000000E-03 0.  1.
         11    1    4    4    0    0 -0.44710443420E+02  0.34292251881E+02  0.52713201519E+03  0.53013502406E+03  0.51100000000E-03 0. -1.
    9000005    1    3    3    0    0  0.40636192527E+02 -0.23611418312E+02  0.32689347312E+03  0.33025617630E+03  0.10000000000E+01 0.  0.
    9000005    1    3    3    0    0  0.82325857068E+02 -0.47827569693E+02  0.10750822366E+03  0.14361072843E+03  0.10000000000E+01 0.  0.
<mgrwt>
<rscale>  0 0.18416373E+03</rscale>
<asrwt>0</asrwt>
<pdfrwt beam="1">  1        2 0.18791309E+00 0.18932778E+03</pdfrwt>
<pdfrwt beam="2">  1       -2 0.44759353E-02 0.18932778E+03</pdfrwt>
<totfact> 0.44647281E+03</totfact>
</mgrwt>
</event>
<event>
 8    2  0.1628804E-003  0.2462212E+03  0.7818608E-02  0.1117726E+00
         -2   -1    0    0    0  501 -0.00000000000E+00  0.00000000000E+00  0.82913890115E+02  0.82913890155E+02  0.25500000000E-02 0. -1.
          2   -1    0    0  501    0  0.00000000000E+00 -0.00000000000E+00 -0.69612583543E+03  0.69612583544E+03  0.25500000000E-02 0.  1.
         25    2    1    2    0    0 -0.19039832311E+03  0.93533579637E+02 -0.30334352611E+03  0.39069449571E+03  0.12499936874E+03 0.  0.
         23    2    1    2    0    0  0.19039832311E+03 -0.93533579637E+02 -0.30986841921E+03  0.38834522988E+03  0.98962257370E+02 0.  0.
        -11    1    4    4    0    0  0.12458906103E+03 -0.29603014054E+02 -0.24345871509E+03  0.27508347555E+03  0.51100000000E-03 0.  1.
         11    1    4    4    0    0  0.65809262085E+02 -0.63930565583E+02 -0.66409704123E+02  0.11326175433E+03  0.51100000000E-03 0. -1.
    9000005    1    3    3    0    0 -0.27965668088E+02  0.20748338865E+02  0.44694231284E+01  0.35121900580E+02  0.10000000000E+01 0.  0.
    9000005    1    3    3    0    0 -0.16243265502E+03  0.72785240772E+02 -0.30781294923E+03  0.35557259513E+03  0.10000000000E+01 0.  0.
<mgrwt>
<rscale>  0 0.24312820E+03</rscale>
<asrwt>0</asrwt>
<pdfrwt beam="2">  1        2 0.10709628E+00 0.24622123E+03</pdfrwt>
<pdfrwt beam="1">  1       -2 0.12755984E-01 0.24622123E+03</pdfrwt>
<totfact> 0.18852730E+03</totfact>
</mgrwt>
</event>
<event>
 8    2  0.1628804E-003  0.1425514E+03  0.7818608E-02  0.1221360E+00
          2   -1    0    0  501    0  0.00000000000E+00  0.00000000000E+00  0.15101016249E+03  0.15101016251E+03  0.25500000000E-02 0.  1.
         -2   -1    0    0    0  501 -0.00000000000E+00 -0.00000000000E+00 -0.12044806300E+03  0.12044806303E+03  0.25500000000E-02 0. -1.
         25    2    1    2    0    0 -0.47486610608E+02  0.49405802667E+02  0.61584730369E+02  0.15528551837E+03  0.12500000671E+03 0.  0.
         23    2    1    2    0    0  0.47486610608E+02 -0.49405802667E+02 -0.31022630877E+02  0.11617270716E+03  0.88531252895E+02 0.  0.
        -11    1    4    4    0    0  0.24610517819E+02  0.90889740350E+01 -0.44757267652E+02  0.51879668892E+02  0.51100000000E-03 0. -1.
         11    1    4    4    0    0  0.22876092789E+02 -0.58494776702E+02  0.13734636775E+02  0.64293038273E+02  0.51100000000E-03 0.  1.
    9000005    1    3    3    0    0 -0.36700347126E+02  0.38604657191E+02  0.10034789381E+03  0.11361309268E+03  0.10000000000E+01 0.  0.
    9000005    1    3    3    0    0 -0.10786263482E+02  0.10801145476E+02 -0.38763163440E+02  0.41672425696E+02  0.10000000000E+01 0.  0.
<mgrwt>
<rscale>  0 0.13419570E+03</rscale>
<asrwt>0</asrwt>
<pdfrwt beam="1">  1        2 0.23232333E-01 0.14255144E+03</pdfrwt>
<pdfrwt beam="2">  1       -2 0.18530471E-01 0.14255144E+03</pdfrwt>
<totfact> 0.53577240E+03</totfact>
</mgrwt>
</event>
<event>
 8    2  0.1628804E-003  0.1596494E+03  0.7818608E-02  0.1197696E+00
          2   -1    0    0  501    0  0.00000000000E+00  0.00000000000E+00  0.16599709956E+03  0.16599709958E+03  0.25500000000E-02 0. -1.
         -2   -1    0    0    0  501 -0.00000000000E+00 -0.00000000000E+00 -0.13113459983E+03  0.13113459986E+03  0.25500000000E-02 0.  1.
         25    2    1    2    0    0  0.96787433010E+02  0.22286746217E+02  0.40996846968E+02  0.16482925657E+03  0.12499374431E+03 0.  0.
         23    2    1    2    0    0 -0.96787433010E+02 -0.22286746217E+02 -0.61343472455E+01  0.13230244286E+03  0.87188301536E+02 0.  0.
        -11    1    4    4    0    0 -0.36864087985E+02 -0.28747158785E+02  0.35797919206E+02  0.58879972324E+02  0.51100000000E-03 0.  1.
         11    1    4    4    0    0 -0.59923345025E+02  0.64604125676E+01 -0.41932266451E+02  0.73422470535E+02  0.51100000000E-03 0. -1.
    9000005    1    3    3    0    0  0.12668168710E+03  0.23920707965E+02  0.39486719372E+02  0.13483564485E+03  0.10000000000E+01 0.  0.
    9000005    1    3    3    0    0 -0.29894254091E+02 -0.16339617477E+01  0.15101275961E+01  0.29993611720E+02  0.10000000000E+01 0.  0.
<mgrwt>
<rscale>  0 0.15228274E+03</rscale>
<asrwt>0</asrwt>
<pdfrwt beam="1">  1        2 0.25538015E-01 0.15964944E+03</pdfrwt>
<pdfrwt beam="2">  1       -2 0.20174554E-01 0.15964944E+03</pdfrwt>
<totfact> 0.42070700E+03</totfact>
</mgrwt>
</event>
<event>
 8    2  0.1628804E-003  0.2385208E+03  0.7818608E-02  0.1124150E+00
          2   -1    0    0  501    0  0.00000000000E+00  0.00000000000E+00  0.11833356995E+04  0.11833356995E+04  0.25500000000E-02 0. -1.
         -2   -1    0    0    0  501 -0.00000000000E+00 -0.00000000000E+00 -0.20451135098E+03  0.20451135100E+03  0.25500000000E-02 0.  1.
         25    2    1    2    0    0  0.25962942176E+02 -0.20148016170E+03 -0.12023771864E+03  0.26711290042E+03  0.12499545056E+03 0.  0.
         23    2    1    2    0    0 -0.25962942176E+02  0.20148016170E+03  0.10990620672E+04  0.11207341501E+04  0.82699926088E+02 0.  0.
        -11    1    4    4    0    0  0.28707947329E+02  0.81958476995E+02  0.38443208709E+03  0.39411846921E+03  0.51100000000E-03 0. -1.
         11    1    4    4    0    0 -0.54670889505E+02  0.11952168470E+03  0.71462998010E+03  0.72661568090E+03  0.51100000000E-03 0.  1.
    9000005    1    3    3    0    0  0.39076011735E+02 -0.31424548007E+01 -0.26623246514E+02  0.47398385734E+02  0.10000000000E+01 0.  0.
    9000005    1    3    3    0    0 -0.13113069559E+02 -0.19833770690E+03 -0.93614472127E+02  0.21971451468E+03  0.10000000000E+01 0.  0.
<mgrwt>
<rscale>  0 0.23357237E+03</rscale>
<asrwt>0</asrwt>
<pdfrwt beam="1">  1        2 0.18205164E+00 0.23852084E+03</pdfrwt>
<pdfrwt beam="2">  1       -2 0.31463285E-01 0.23852084E+03</pdfrwt>
<totfact> 0.19444717E+02</totfact>
</mgrwt>
</event>
<event>
 8    2  0.1628804E-003  0.2450152E+03  0.7818608E-02  0.1119085E+00
          2   -1    0    0  501    0  0.00000000000E+00  0.00000000000E+00  0.24850385546E+03  0.24850385548E+03  0.25500000000E-02 0. -1.
         -2   -1    0    0    0  501 -0.00000000000E+00 -0.00000000000E+00 -0.22981755805E+03  0.22981755807E+03  0.25500000000E-02 0.  1.
         25    2    1    2    0    0  0.14477302694E+03  0.15315498969E+03  0.37875088970E+02  0.24792529981E+03  0.12496700254E+03 0.  0.
         23    2    1    2    0    0 -0.14477302694E+03 -0.15315498969E+03 -0.19188791558E+02  0.23039611374E+03  0.91095989522E+02 0.  0.
        -11    1    4    4    0    0 -0.73805720179E+02 -0.10661893843E+03 -0.51588318505E+02  0.13955728921E+03  0.51100000000E-03 0.  1.
         11    1    4    4    0    0 -0.70967306763E+02 -0.46536051255E+02  0.32399526947E+02  0.90838824532E+02  0.51100000000E-03 0. -1.
    9000005    1    3    3    0    0  0.20315694024E+02  0.11129199148E+03  0.25937852816E+02  0.11607069828E+03  0.10000000000E+01 0.  0.
    9000005    1    3    3    0    0  0.12445733292E+03  0.41862998210E+02  0.11937236154E+02  0.13185460153E+03  0.10000000000E+01 0.  0.
<mgrwt>
<rscale>  0 0.24106582E+03</rscale>
<asrwt>0</asrwt>
<pdfrwt beam="1">  1        2 0.38231362E-01 0.24501517E+03</pdfrwt>
<pdfrwt beam="2">  1       -2 0.35356547E-01 0.24501517E+03</pdfrwt>
<totfact> 0.10112895E+03</totfact>
</mgrwt>
</event>
<event>
 8    2  0.1628804E-003  0.1696275E+03  0.7818608E-02  0.1184375E+00
         -2   -1    0    0    0  501 -0.00000000000E+00  0.00000000000E+00  0.79786730114E+02  0.79786730154E+02  0.25500000000E-02 0.  1.
          2   -1    0    0  501    0  0.00000000000E+00 -0.00000000000E+00 -0.33536095720E+03  0.33536095721E+03  0.25500000000E-02 0. -1.
         25    2    1    2    0    0  0.93757075539E+02  0.66015106514E+02 -0.18615435852E+03  0.25184704091E+03  0.12500041326E+03 0.  0.
         23    2    1    2    0    0 -0.93757075539E+02 -0.66015106514E+02 -0.69419868565E+02  0.16330064646E+03  0.93271643493E+02 0.  0.
        -11    1    4    4    0    0 -0.28588666245E+02 -0.59826410265E+02  0.21077921327E+01  0.66339686394E+02  0.51100000000E-03 0.  1.
         11    1    4    4    0    0 -0.65168409294E+02 -0.61886962484E+01 -0.71527660697E+02  0.96960960063E+02  0.51100000000E-03 0. -1.
    9000005    1    3    3    0    0 -0.17463194750E+02  0.26880133025E+02 -0.69269288621E+00  0.32077788979E+02  0.10000000000E+01 0.  0.
    9000005    1    3    3    0    0  0.11122027029E+03  0.39134973488E+02 -0.18546166563E+03  0.21976925193E+03  0.10000000000E+01 0.  0.
<mgrwt>
<rscale>  0 0.16388855E+03</rscale>
<asrwt>0</asrwt>
<pdfrwt beam="2">  1        2 0.51593993E-01 0.16962749E+03</pdfrwt>
<pdfrwt beam="1">  1       -2 0.12274882E-01 0.16962749E+03</pdfrwt>
<totfact> 0.44897996E+03</totfact>
</mgrwt>
</event>
<event>
 8    2  0.1628804E-003  0.1551931E+03  0.7818608E-02  0.1201566E+00
         -2   -1    0    0    0  501 -0.00000000000E+00  0.00000000000E+00  0.52779282302E+02  0.52779282364E+02  0.25500000000E-02 0.  1.
          2   -1    0    0  501    0  0.00000000000E+00 -0.00000000000E+00 -0.39218718230E+03  0.39218718231E+03  0.25500000000E-02 0. -1.
         25    2    1    2    0    0 -0.31609391021E+01  0.91951052993E+02 -0.19306320821E+03  0.24770607669E+03  0.12497963987E+03 0.  0.
         23    2    1    2    0    0  0.31609391021E+01 -0.91951052993E+02 -0.14634469179E+03  0.19726038798E+03  0.95025807918E+02 0.  0.
        -11    1    4    4    0    0  0.27260463637E+02 -0.51390495637E+02 -0.18588494999E+02  0.61070844649E+02  0.51100000000E-03 0.  1.
         11    1    4    4    0    0 -0.24099524535E+02 -0.40560557356E+02 -0.12775619679E+03  0.13618954333E+03  0.51100000000E-03 0. -1.
    9000005    1    3    3    0    0 -0.32152333327E+02 -0.13959139018E+02 -0.14217211506E+02  0.37838594101E+02  0.10000000000E+01 0.  0.
    9000005    1    3    3    0    0  0.28991394225E+02  0.10591019201E+03 -0.17884599671E+03  0.20986748259E+03  0.10000000000E+01 0.  0.
<mgrwt>
<rscale>  0 0.14911393E+03</rscale>
<asrwt>0</asrwt>
<pdfrwt beam="2">  1        2 0.60336488E-01 0.15519310E+03</pdfrwt>
<pdfrwt beam="1">  1       -2 0.81198898E-02 0.15519310E+03</pdfrwt>
<totfact> 0.72549103E+03</totfact>
</mgrwt>
</event>
<event>
 8    2  0.1628804E-003  0.1425754E+03  0.7818608E-02  0.1219440E+00
          2   -1    0    0  501    0  0.00000000000E+00  0.00000000000E+00  0.61155816990E+02  0.61155817043E+02  0.25500000000E-02 0. -1.
         -2   -1    0    0    0  501 -0.00000000000E+00 -0.00000000000E+00 -0.30769360820E+03  0.30769360821E+03  0.25500000000E-02 0.  1.
         25    2    1    2    0    0 -0.12037038613E+02 -0.67524853560E+02 -0.19474683127E+03  0.24135877749E+03  0.12499293993E+03 0.  0.
         23    2    1    2    0    0  0.12037038613E+02  0.67524853560E+02 -0.51790959939E+02  0.12749064777E+03  0.94165097517E+02 0.  0.
        -11    1    4    4    0    0  0.26933242612E+02  0.69289976051E+02 -0.71216191225E+02  0.10294778401E+03  0.51100000000E-03 0.  1.
         11    1    4    4    0    0 -0.14896203999E+02 -0.17651224910E+01  0.19425231286E+02  0.24542863764E+02  0.51100000000E-03 0. -1.
    9000005    1    3    3    0    0  0.12274088940E+02 -0.10061273919E+03 -0.13365441011E+03  0.16774408451E+03  0.10000000000E+01 0.  0.
    9000005    1    3    3    0    0 -0.24311127553E+02  0.33087885629E+02 -0.61092421166E+02  0.73614692978E+02  0.10000000000E+01 0.  0.
<mgrwt>
<rscale>  0 0.13555392E+03</rscale>
<asrwt>0</asrwt>
<pdfrwt beam="1">  1        2 0.94085875E-02 0.14257535E+03</pdfrwt>
<pdfrwt beam="2">  1       -2 0.47337477E-01 0.14257535E+03</pdfrwt>
<totfact> 0.28549707E+03</totfact>
</mgrwt>
</event>
<event>
 8    2  0.1628804E-003  0.1441279E+03  0.7818608E-02  0.1217821E+00
         -2   -1    0    0    0  501 -0.00000000000E+00  0.00000000000E+00  0.18326236847E+03  0.18326236849E+03  0.25500000000E-02 0.  1.
          2   -1    0    0  501    0  0.00000000000E+00 -0.00000000000E+00 -0.98380317165E+02  0.98380317198E+02  0.25500000000E-02 0. -1.
         25    2    1    2    0    0 -0.43057550027E+02 -0.57396046229E+02  0.80040955898E+02  0.16486179820E+03  0.12499839658E+03 0.  0.
         23    2    1    2    0    0  0.43057550027E+02  0.57396046229E+02  0.48410954067E+01  0.11678088748E+03  0.92011307672E+02 0.  0.
        -11    1    4    4    0    0  0.55765109207E+01  0.68008496897E+02  0.25305771499E+02  0.72777985652E+02  0.51100000000E-03 0.  1.
         11    1    4    4    0    0  0.37481039106E+02 -0.10612450668E+02 -0.20464676092E+02  0.44002901830E+02  0.51100000000E-03 0. -1.
    9000005    1    3    3    0    0  0.13455120436E+02 -0.18221487901E+02  0.92268270460E+02  0.95013139201E+02  0.10000000000E+01 0.  0.
    9000005    1    3    3    0    0 -0.56512670463E+02 -0.39174558328E+02 -0.12227314562E+02  0.69848659002E+02  0.10000000000E+01 0.  0.
<mgrwt>
<rscale>  0 0.13671327E+03</rscale>
<asrwt>0</asrwt>
<pdfrwt beam="2">  1        2 0.15135434E-01 0.14412792E+03</pdfrwt>
<pdfrwt beam="1">  1       -2 0.28194210E-01 0.14412792E+03</pdfrwt>
<totfact> 0.42360029E+03</totfact>
</mgrwt>
</event>
<event>
 8    2  0.1628804E-003  0.1279721E+03  0.7818608E-02  0.1245805E+00
          2   -1    0    0  501    0  0.00000000000E+00  0.00000000000E+00  0.44142278197E+02  0.44142278270E+02  0.25500000000E-02 0. -1.
         -2   -1    0    0    0  501 -0.00000000000E+00 -0.00000000000E+00 -0.28153579444E+03  0.28153579445E+03  0.25500000000E-02 0.  1.
         25    2    1    2    0    0 -0.13402199682E+02  0.23937445994E+02 -0.11947867837E+03  0.17507719354E+03  0.12499699530E+03 0.  0.
         23    2    1    2    0    0  0.13402199682E+02 -0.23937445994E+02 -0.11791483787E+03  0.15060087918E+03  0.89577316008E+02 0.  0.
        -11    1    4    4    0    0  0.48725970877E+02 -0.30293498334E+02 -0.65502899650E+02  0.87077816590E+02  0.51100000000E-03 0. -1.
         11    1    4    4    0    0 -0.35323771195E+02  0.63560523395E+01 -0.52411938219E+02  0.63523062591E+02  0.51100000000E-03 0.  1.
    9000005    1    3    3    0    0  0.11968444279E+02  0.17943932633E+02 -0.14014289615E+03  0.14179654339E+03  0.10000000000E+01 0.  0.
    9000005    1    3    3    0    0 -0.25370643961E+02  0.59935133612E+01  0.20664217782E+02  0.33280650143E+02  0.10000000000E+01 0.  0.
<mgrwt>
<rscale>  0 0.11837312E+03</rscale>
<asrwt>0</asrwt>
<pdfrwt beam="1">  1        2 0.67911199E-02 0.12797214E+03</pdfrwt>
<pdfrwt beam="2">  1       -2 0.43313198E-01 0.12797214E+03</pdfrwt>
<totfact> 0.50688804E+03</totfact>
</mgrwt>
</event>
<event>
 8    2  0.1628804E-003  0.2096162E+03  0.7818608E-02  0.1145715E+00
         -2   -1    0    0    0  501 -0.00000000000E+00  0.00000000000E+00  0.50285976327E+02  0.50285976392E+02  0.25500000000E-02 0.  1.
          2   -1    0    0  501    0  0.00000000000E+00 -0.00000000000E+00 -0.10944983041E+04  0.10944983041E+04  0.25500000000E-02 0. -1.
         25    2    1    2    0    0 -0.16317636420E+03  0.41079221020E+02 -0.83703152397E+03  0.86287932961E+03  0.12499974844E+03 0.  0.
         23    2    1    2    0    0  0.16317636420E+03 -0.41079221020E+02 -0.20718080376E+03  0.28190495084E+03  0.90733056982E+02 0.  0.
        -11    1    4    4    0    0  0.38820750492E+02 -0.33192082462E+02 -0.11827978167E+03  0.12883660877E+03  0.51100000000E-03 0. -1.
         11    1    4    4    0    0  0.12435561371E+03 -0.78871385579E+01 -0.88901022085E+02  0.15306834207E+03  0.51100000000E-03 0.  1.
    9000005    1    3    3    0    0 -0.18081036825E+03  0.51905534960E+02 -0.72905451211E+03  0.75293296877E+03  0.10000000000E+01 0.  0.
    9000005    1    3    3    0    0  0.17634004045E+02 -0.10826313940E+02 -0.10797701186E+03  0.10994636084E+03  0.10000000000E+01 0.  0.
<mgrwt>
<rscale>  0 0.20484456E+03</rscale>
<asrwt>0</asrwt>
<pdfrwt beam="2">  1        2 0.16838434E+00 0.20961623E+03</pdfrwt>
<pdfrwt beam="1">  1       -2 0.77363049E-02 0.20961623E+03</pdfrwt>
<totfact> 0.22878187E+03</totfact>
</mgrwt>
</event>
<event>
 8    2  0.1628804E-003  0.1332372E+03  0.7818608E-02  0.1236040E+00
          2   -1    0    0  501    0  0.00000000000E+00  0.00000000000E+00  0.61953038388E+02  0.61953038440E+02  0.25500000000E-02 0. -1.
         -2   -1    0    0    0  501 -0.00000000000E+00 -0.00000000000E+00 -0.22417942397E+03  0.22417942398E+03  0.25500000000E-02 0.  1.
         25    2    1    2    0    0 -0.33845522147E+02 -0.31367780318E+02 -0.10678582334E+03  0.17074939243E+03  0.12499074340E+03 0.  0.
         23    2    1    2    0    0  0.33845522147E+02  0.31367780318E+02 -0.55440562239E+02  0.11538307000E+03  0.90056315096E+02 0.  0.
        -11    1    4    4    0    0 -0.19808240090E+02 -0.11496053640E+02 -0.38263643448E+02  0.44594080717E+02  0.51100000000E-03 0.  1.
         11    1    4    4    0    0  0.53653762236E+02  0.42863833958E+02 -0.17176918791E+02  0.70788989279E+02  0.51100000000E-03 0. -1.
    9000005    1    3    3    0    0  0.20984213805E+02  0.33564421294E+02 -0.64831354075E+02  0.75967177630E+02  0.10000000000E+01 0.  0.
    9000005    1    3    3    0    0 -0.54829735952E+02 -0.64932201613E+02 -0.41954469268E+02  0.94782214800E+02  0.10000000000E+01 0.  0.
<mgrwt>
<rscale>  0 0.12438110E+03</rscale>
<asrwt>0</asrwt>
<pdfrwt beam="1">  1        2 0.95312368E-02 0.13323717E+03</pdfrwt>
<pdfrwt beam="2">  1       -2 0.34489142E-01 0.13323717E+03</pdfrwt>
<totfact> 0.51017297E+03</totfact>
</mgrwt>
</event>
<event>
 8    2  0.1628804E-003  0.1489071E+03  0.7818608E-02  0.1211378E+00
          2   -1    0    0  501    0  0.00000000000E+00  0.00000000000E+00  0.24519452687E+03  0.24519452688E+03  0.25500000000E-02 0. -1.
         -2   -1    0    0    0  501 -0.00000000000E+00 -0.00000000000E+00 -0.81155459792E+02  0.81155459832E+02  0.25500000000E-02 0.  1.
         25    2    1    2    0    0  0.56601314112E+01  0.80728848213E+02  0.13645475464E+03  0.20197333478E+03  0.12499657546E+03 0.  0.
         23    2    1    2    0    0 -0.56601314112E+01 -0.80728848213E+02  0.27584312432E+02  0.12437665193E+03  0.90329802567E+02 0.  0.
        -11    1    4    4    0    0 -0.54268482521E+00 -0.29000198194E+02  0.57500158070E+02  0.64401662870E+02  0.51100000000E-03 0. -1.
         11    1    4    4    0    0 -0.51174465860E+01 -0.51728650020E+02 -0.29915845637E+02  0.59974989061E+02  0.51100000000E-03 0.  1.
    9000005    1    3    3    0    0  0.13034979867E+01  0.42280723203E+02 -0.15579080947E+02  0.45089537864E+02  0.10000000000E+01 0.  0.
    9000005    1    3    3    0    0  0.43566334245E+01  0.38448125010E+02  0.15203383559E+03  0.15688379692E+03  0.10000000000E+01 0.  0.
<mgrwt>
<rscale>  0 0.14145985E+03</rscale>
<asrwt>0</asrwt>
<pdfrwt beam="1">  1        2 0.37722234E-01 0.14890711E+03</pdfrwt>
<pdfrwt beam="2">  1       -2 0.12485456E-01 0.14890711E+03</pdfrwt>
<totfact> 0.60569653E+03</totfact>
</mgrwt>
</event>
<event>
 8    2  0.1628804E-003  0.1412679E+03  0.7818608E-02  0.1222575E+00
          2   -1    0    0  501    0  0.00000000000E+00  0.00000000000E+00  0.15368997721E+03  0.15368997723E+03  0.25500000000E-02 0. -1.
         -2   -1    0    0    0  501 -0.00000000000E+00 -0.00000000000E+00 -0.15080935593E+03  0.15080935596E+03  0.25500000000E-02 0.  1.
         25    2    1    2    0    0 -0.26222573033E+02 -0.60383672517E+02  0.85572787911E+02  0.16516454739E+03  0.12499125746E+03 0.  0.
         23    2    1    2    0    0  0.26222573033E+02  0.60383672517E+02 -0.82692166638E+02  0.13933478579E+03  0.90787536949E+02 0.  0.
        -11    1    4    4    0    0  0.56538061189E+02  0.46991052110E+02 -0.35425812997E+02  0.81606982350E+02  0.51100000000E-03 0.  1.
         11    1    4    4    0    0 -0.30315488156E+02  0.13392620407E+02 -0.47266353641E+02  0.57727803443E+02  0.51100000000E-03 0. -1.
    9000005    1    3    3    0    0 -0.32050626688E+02  0.90291552844E+00  0.97330603720E+02  0.10248075111E+03  0.10000000000E+01 0.  0.
    9000005    1    3    3    0    0  0.58280536549E+01 -0.61286588046E+02 -0.11757815809E+02  0.62683796282E+02  0.10000000000E+01 0.  0.
<mgrwt>
<rscale>  0 0.13334486E+03</rscale>
<asrwt>0</asrwt>
<pdfrwt beam="1">  1        2 0.23644612E-01 0.14126792E+03</pdfrwt>
<pdfrwt beam="2">  1       -2 0.23201439E-01 0.14126792E+03</pdfrwt>
<totfact> 0.35813618E+03</totfact>
</mgrwt>
</event>
<event>
 8    2  0.1628804E-003  0.1467489E+03  0.7818608E-02  0.1213899E+00
         -2   -1    0    0    0  501 -0.00000000000E+00  0.00000000000E+00  0.47935688371E+01  0.47935695153E+01  0.25500000000E-02 0.  1.
          2   -1    0    0  501    0  0.00000000000E+00 -0.00000000000E+00 -0.37285906370E+04  0.37285906370E+04  0.25500000000E-02 0. -1.
         25    2    1    2    0    0 -0.76528121080E+02  0.72414604479E+01 -0.19294988178E+04  0.19350712996E+04  0.12500501743E+03 0.  0.
         23    2    1    2    0    0  0.76528121080E+02 -0.72414604479E+01 -0.17942982503E+04  0.17983129069E+04  0.92271924460E+02 0.  0.
        -11    1    4    4    0    0  0.49922279257E+02 -0.35170311595E+02 -0.54348817174E+03  0.54690819852E+03  0.51100000000E-03 0.  1.
         11    1    4    4    0    0  0.26605841824E+02  0.27928851147E+02 -0.12508100786E+04  0.12514047084E+04  0.51100000000E-03 0. -1.
    9000005    1    3    3    0    0 -0.83663060014E+02 -0.44073196956E+02 -0.11799629441E+04  0.11837463849E+04  0.10000000000E+01 0.  0.
    9000005    1    3    3    0    0  0.71349389339E+01  0.51314657404E+02 -0.74953587374E+03  0.75132491469E+03  0.10000000000E+01 0.  0.
<mgrwt>
<rscale>  0 0.13957689E+03</rscale>
<asrwt>0</asrwt>
<pdfrwt beam="2">  1        2 0.57362701E+00 0.14674892E+03</pdfrwt>
<pdfrwt beam="1">  1       -2 0.73747516E-03 0.14674892E+03</pdfrwt>
<totfact> 0.24056905E+03</totfact>
</mgrwt>
</event>
<event>
 8    2  0.1628804E-003  0.1521145E+03  0.7818608E-02  0.1206531E+00
         -2   -1    0    0    0  501 -0.00000000000E+00  0.00000000000E+00  0.78988552611E+01  0.78988556727E+01  0.25500000000E-02 0. -1.
          2   -1    0    0  501    0  0.00000000000E+00 -0.00000000000E+00 -0.25403415924E+04  0.25403415924E+04  0.25500000000E-02 0.  1.
         25    2    1    2    0    0  0.45051205983E+02  0.74051022353E+02 -0.16172430159E+04  0.16243810466E+04  0.12500258858E+03 0.  0.
         23    2    1    2    0    0 -0.45051205983E+02 -0.74051022353E+02 -0.91519972127E+03  0.92385940146E+03  0.91719674989E+02 0.  0.
        -11    1    4    4    0    0 -0.42601250154E+02 -0.89063259553E+02 -0.87990627702E+03  0.88542768596E+03  0.51100000000E-03 0.  1.
         11    1    4    4    0    0 -0.24499558291E+01  0.15012237199E+02 -0.35293444250E+02  0.38431715504E+02  0.51100000000E-03 0. -1.
    9000005    1    3    3    0    0  0.25588280517E+02 -0.25005113531E+02 -0.17576390623E+03  0.17937103037E+03  0.10000000000E+01 0.  0.
    9000005    1    3    3    0    0  0.19462925466E+02  0.99056135884E+02 -0.14414791096E+04  0.14450100162E+04  0.10000000000E+01 0.  0.
<mgrwt>
<rscale>  0 0.14517442E+03</rscale>
<asrwt>0</asrwt>
<pdfrwt beam="2">  1        2 0.39082113E+00 0.15211447E+03</pdfrwt>
<pdfrwt beam="1">  1       -2 0.12152106E-02 0.15211447E+03</pdfrwt>
<totfact> 0.61112301E+03</totfact>
</mgrwt>
</event>
<event>
 8    2  0.1628804E-003  0.1359861E+03  0.7818608E-02  0.1230682E+00
         -2   -1    0    0    0  501 -0.00000000000E+00  0.00000000000E+00  0.28944097614E+02  0.28944097726E+02  0.25500000000E-02 0.  1.
          2   -1    0    0  501    0  0.00000000000E+00 -0.00000000000E+00 -0.50880949546E+03  0.50880949547E+03  0.25500000000E-02 0. -1.
         25    2    1    2    0    0  0.36947806934E+02  0.38769005168E+02 -0.28601302140E+03  0.31669491987E+03  0.12499619059E+03 0.  0.
         23    2    1    2    0    0 -0.36947806934E+02 -0.38769005168E+02 -0.19385237645E+03  0.22105867332E+03  0.91760650599E+02 0.  0.
        -11    1    4    4    0    0 -0.58840218436E+02 -0.43026818285E+01 -0.75223616200E+02  0.95599564910E+02  0.51100000000E-03 0.  1.
         11    1    4    4    0    0  0.21892411502E+02 -0.34466323340E+02 -0.11862876025E+03  0.12545910841E+03  0.51100000000E-03 0. -1.
    9000005    1    3    3    0    0  0.20095921920E+02 -0.28942977504E+02 -0.21223171083E+03  0.21513912035E+03  0.10000000000E+01 0.  0.
    9000005    1    3    3    0    0  0.16851885014E+02  0.67711982672E+02 -0.73781310571E+02  0.10155579952E+03  0.10000000000E+01 0.  0.
<mgrwt>
<rscale>  0 0.12784948E+03</rscale>
<asrwt>0</asrwt>
<pdfrwt beam="2">  1        2 0.78278378E-01 0.13598612E+03</pdfrwt>
<pdfrwt beam="1">  1       -2 0.44529385E-02 0.13598612E+03</pdfrwt>
<totfact> 0.13510435E+04</totfact>
</mgrwt>
</event>
<event>
 8    2  0.1628804E-003  0.1321670E+03  0.7818608E-02  0.1237589E+00
         -2   -1    0    0    0  501 -0.00000000000E+00  0.00000000000E+00  0.11876880093E+02  0.11876880366E+02  0.25500000000E-02 0.  1.
          2   -1    0    0  501    0  0.00000000000E+00 -0.00000000000E+00 -0.12090350797E+04  0.12090350797E+04  0.25500000000E-02 0. -1.
         25    2    1    2    0    0 -0.42899557163E+02  0.16248401368E+01 -0.82121823653E+03  0.83178573863E+03  0.12500044352E+03 0.  0.
         23    2    1    2    0    0  0.42899557163E+02 -0.16248401368E+01 -0.37593996309E+03  0.38912622145E+03  0.90803900013E+02 0.  0.
        -11    1    4    4    0    0  0.16767504789E+02  0.11594209085E+02 -0.11291968930E+02  0.23304151213E+02  0.51100000000E-03 0.  1.
         11    1    4    4    0    0  0.26132052374E+02 -0.13219049222E+02 -0.36464799416E+03  0.36582207024E+03  0.51100000000E-03 0. -1.
    9000005    1    3    3    0    0 -0.16414909280E+02  0.21084133417E+02 -0.31228937666E+02  0.41112485650E+02  0.10000000000E+01 0.  0.
    9000005    1    3    3    0    0 -0.26484647883E+02 -0.19459293280E+02 -0.78998929886E+03  0.79067325298E+03  0.10000000000E+01 0.  0.
<mgrwt>
<rscale>  0 0.12340135E+03</rscale>
<asrwt>0</asrwt>
<pdfrwt beam="2">  1        2 0.18600530E+00 0.13216703E+03</pdfrwt>
<pdfrwt beam="1">  1       -2 0.18272133E-02 0.13216703E+03</pdfrwt>
<totfact> 0.16732747E+04</totfact>
</mgrwt>
</event>
<event>
 8    2  0.1628804E-003  0.1339952E+03  0.7818608E-02  0.1235215E+00
          2   -1    0    0  501    0  0.00000000000E+00  0.00000000000E+00  0.93666129822E+02  0.93666129857E+02  0.25500000000E-02 0.  1.
         -2   -1    0    0    0  501 -0.00000000000E+00 -0.00000000000E+00 -0.14763192787E+03  0.14763192789E+03  0.25500000000E-02 0. -1.
         25    2    1    2    0    0 -0.19113258253E+02 -0.44324407519E+02 -0.29360567815E+02  0.13717418479E+03  0.12499897714E+03 0.  0.
         23    2    1    2    0    0  0.19113258253E+02  0.44324407519E+02 -0.24605230235E+02  0.10412387296E+03  0.88917904962E+02 0.  0.
        -11    1    4    4    0    0 -0.28203716433E+02  0.21812189638E+02 -0.35817582605E+02  0.50538306871E+02  0.51100000000E-03 0. -1.
         11    1    4    4    0    0  0.47316974686E+02  0.22512217881E+02  0.11212352370E+02  0.53585566091E+02  0.51100000000E-03 0.  1.
    9000005    1    3    3    0    0 -0.38438198029E+02 -0.82403715896E+02 -0.15341243545E+02  0.92218334482E+02  0.10000000000E+01 0.  0.
    9000005    1    3    3    0    0  0.19324939776E+02  0.38079308377E+02 -0.14019324269E+02  0.44955850306E+02  0.10000000000E+01 0.  0.
<mgrwt>
<rscale>  0 0.12490653E+03</rscale>
<asrwt>0</asrwt>
<pdfrwt beam="1">  1        2 0.14410174E-01 0.13399520E+03</pdfrwt>
<pdfrwt beam="2">  1       -2 0.22712604E-01 0.13399520E+03</pdfrwt>
<totfact> 0.65204346E+03</totfact>
</mgrwt>
</event>
<event>
 8    2  0.1628804E-003  0.1633903E+03  0.7818608E-02  0.1191901E+00
          2   -1    0    0  501    0  0.00000000000E+00  0.00000000000E+00  0.69927409728E+03  0.69927409728E+03  0.25500000000E-02 0. -1.
         -2   -1    0    0    0  501 -0.00000000000E+00 -0.00000000000E+00 -0.35289279405E+02  0.35289279497E+02  0.25500000000E-02 0.  1.
         25    2    1    2    0    0 -0.15556515871E+01  0.10521745738E+03  0.26064220327E+03  0.30762109377E+03  0.12499298308E+03 0.  0.
         23    2    1    2    0    0  0.15556515871E+01 -0.10521745738E+03  0.40334261461E+03  0.42694228301E+03  0.92310968348E+02 0.  0.
        -11    1    4    4    0    0  0.12069004149E+02 -0.71281431042E+02  0.37382811791E+03  0.38075473078E+03  0.51100000000E-03 0. -1.
         11    1    4    4    0    0 -0.10513352561E+02 -0.33936026336E+02  0.29514496697E+02  0.46187552231E+02  0.51100000000E-03 0.  1.
    9000005    1    3    3    0    0  0.76310561825E+01 -0.20932306304E+02  0.10360491045E+03  0.10597816726E+03  0.10000000000E+01 0.  0.
    9000005    1    3    3    0    0 -0.91867077696E+01  0.12614976368E+03  0.15703729281E+03  0.20164292651E+03  0.10000000000E+01 0.  0.
<mgrwt>
<rscale>  0 0.15719411E+03</rscale>
<asrwt>0</asrwt>
<pdfrwt beam="1">  1        2 0.10758063E+00 0.16339027E+03</pdfrwt>
<pdfrwt beam="2">  1       -2 0.54291202E-02 0.16339027E+03</pdfrwt>
<totfact> 0.70532771E+03</totfact>
</mgrwt>
</event>
<event>
 8    2  0.1628804E-003  0.1402359E+03  0.7818608E-02  0.1223785E+00
         -2   -1    0    0    0  501 -0.00000000000E+00  0.00000000000E+00  0.42939579609E+02  0.42939579685E+02  0.25500000000E-02 0.  1.
          2   -1    0    0  501    0  0.00000000000E+00 -0.00000000000E+00 -0.37041915844E+03  0.37041915845E+03  0.25500000000E-02 0. -1.
         25    2    1    2    0    0  0.41914694388E+02  0.47867514983E+02 -0.17357651876E+03  0.22314773052E+03  0.12497184154E+03 0.  0.
         23    2    1    2    0    0 -0.41914694388E+02 -0.47867514983E+02 -0.15390306007E+03  0.19021100761E+03  0.91901767776E+02 0.  0.
        -11    1    4    4    0    0 -0.10990093426E+02 -0.69648925490E+02 -0.12115293558E+03  0.14017770427E+03  0.51100000000E-03 0. -1.
         11    1    4    4    0    0 -0.30924600962E+02  0.21781410507E+02 -0.32750124492E+02  0.50033303337E+02  0.51100000000E-03 0.  1.
    9000005    1    3    3    0    0  0.35230217499E+02 -0.36652294713E+02 -0.38978208036E+02  0.64069178506E+02  0.10000000000E+01 0.  0.
    9000005    1    3    3    0    0  0.66844768890E+01  0.84519809697E+02 -0.13459831072E+03  0.15907855202E+03  0.10000000000E+01 0.  0.
<mgrwt>
<rscale>  0 0.13250503E+03</rscale>
<asrwt>0</asrwt>
<pdfrwt beam="2">  1        2 0.56987561E-01 0.14023588E+03</pdfrwt>
<pdfrwt beam="1">  1       -2 0.66060894E-02 0.14023588E+03</pdfrwt>
<totfact> 0.10520159E+04</totfact>
</mgrwt>
</event>
<event>
 8    2  0.1628804E-003  0.1562647E+03  0.7818608E-02  0.1200819E+00
         -2   -1    0    0    0  501 -0.00000000000E+00  0.00000000000E+00  0.13404550644E+03  0.13404550646E+03  0.25500000000E-02 0.  1.
          2   -1    0    0  501    0  0.00000000000E+00 -0.00000000000E+00 -0.22000231696E+03  0.22000231697E+03  0.25500000000E-02 0. -1.
         25    2    1    2    0    0  0.75126757855E+02 -0.56136928928E+02 -0.14180361360E+03  0.21101400533E+03  0.12499304413E+03 0.  0.
         23    2    1    2    0    0 -0.75126757855E+02  0.56136928928E+02  0.55846803086E+02  0.14303381811E+03  0.92436049091E+02 0.  0.
        -11    1    4    4    0    0 -0.26083282084E+02  0.19173844269E+01  0.64320788398E+02  0.69434701610E+02  0.51100000000E-03 0.  1.
         11    1    4    4    0    0 -0.49043475771E+02  0.54219544501E+02 -0.84739853117E+01  0.73599116495E+02  0.51100000000E-03 0. -1.
    9000005    1    3    3    0    0  0.71504494387E+00 -0.39294521415E+02 -0.12744927248E+03  0.13337498925E+03  0.10000000000E+01 0.  0.
    9000005    1    3    3    0    0  0.74411712911E+02 -0.16842407513E+02 -0.14354341127E+02  0.77639016083E+02  0.10000000000E+01 0.  0.
<mgrwt>
<rscale>  0 0.14971873E+03</rscale>
<asrwt>0</asrwt>
<pdfrwt beam="2">  1        2 0.33846510E-01 0.15626467E+03</pdfrwt>
<pdfrwt beam="1">  1       -2 0.20622386E-01 0.15626467E+03</pdfrwt>
<totfact> 0.29774823E+03</totfact>
</mgrwt>
</event>
<event>
 8    2  0.1628804E-003  0.1298942E+03  0.7818608E-02  0.1241455E+00
         -2   -1    0    0    0  501 -0.00000000000E+00  0.00000000000E+00  0.16962297738E+02  0.16962297930E+02  0.25500000000E-02 0.  1.
          2   -1    0    0  501    0  0.00000000000E+00 -0.00000000000E+00 -0.82298415267E+03  0.82298415268E+03  0.25500000000E-02 0. -1.
         25    2    1    2    0    0 -0.29740048507E+02 -0.19086279043E+02 -0.34452472333E+03  0.36819804401E+03  0.12499503229E+03 0.  0.
         23    2    1    2    0    0  0.29740048507E+02  0.19086279043E+02 -0.46149713161E+03  0.47174840660E+03  0.91204167174E+02 0.  0.
        -11    1    4    4    0    0  0.22349621323E+01  0.53384552973E+02 -0.23139033714E+03  0.23747924893E+03  0.51100000000E-03 0.  1.
         11    1    4    4    0    0  0.27505086375E+02 -0.34298273930E+02 -0.23010679447E+03  0.23426915767E+03  0.51100000000E-03 0. -1.
    9000005    1    3    3    0    0 -0.19504081154E+02  0.48944830476E+02 -0.87682491404E+02  0.10229968187E+03  0.10000000000E+01 0.  0.
    9000005    1    3    3    0    0 -0.10235967353E+02 -0.68031109519E+02 -0.25684223192E+03  0.26589836214E+03  0.10000000000E+01 0.  0.
<mgrwt>
<rscale>  0 0.12100105E+03</rscale>
<asrwt>0</asrwt>
<pdfrwt beam="2">  1        2 0.12661292E+00 0.12989424E+03</pdfrwt>
<pdfrwt beam="1">  1       -2 0.26095849E-02 0.12989424E+03</pdfrwt>
<totfact> 0.16918996E+04</totfact>
</mgrwt>
</event>
<event>
 8    2  0.1628804E-003  0.1324274E+03  0.7818608E-02  0.1236946E+00
          2   -1    0    0  501    0  0.00000000000E+00  0.00000000000E+00  0.20946817726E+02  0.20946817881E+02  0.25500000000E-02 0. -1.
         -2   -1    0    0    0  501 -0.00000000000E+00 -0.00000000000E+00 -0.78563943475E+03  0.78563943475E+03  0.25500000000E-02 0.  1.
         25    2    1    2    0    0  0.20493578930E+02  0.38629985565E+02 -0.59031231194E+03  0.60498399048E+03  0.12499896221E+03 0.  0.
         23    2    1    2    0    0 -0.20493578930E+02 -0.38629985565E+02 -0.17438030509E+03  0.20160226215E+03  0.91228935874E+02 0.  0.
        -11    1    4    4    0    0 -0.29528625413E+02 -0.46426019080E+02 -0.18013719527E+03  0.18835265882E+03  0.51100000000E-03 0.  1.
         11    1    4    4    0    0  0.90350464834E+01  0.77960335151E+01  0.57568901824E+01  0.13249603328E+02  0.51100000000E-03 0. -1.
    9000005    1    3    3    0    0  0.13944442233E+02 -0.45334842654E+02 -0.24473023647E+03  0.24928614898E+03  0.10000000000E+01 0.  0.
    9000005    1    3    3    0    0  0.65491366969E+01  0.83964828219E+02 -0.34558207547E+03  0.35569784151E+03  0.10000000000E+01 0.  0.
<mgrwt>
<rscale>  0 0.12380670E+03</rscale>
<asrwt>0</asrwt>
<pdfrwt beam="1">  1        2 0.32225880E-02 0.13242735E+03</pdfrwt>
<pdfrwt beam="2">  1       -2 0.12086758E+00 0.13242735E+03</pdfrwt>
<totfact> 0.14903296E+03</totfact>
</mgrwt>
</event>
<event>
 8    2  0.1628804E-003  0.1330280E+03  0.7818608E-02  0.1236523E+00
          2   -1    0    0  501    0  0.00000000000E+00  0.00000000000E+00  0.10798448885E+04  0.10798448885E+04  0.25500000000E-02 0. -1.
         -2   -1    0    0    0  501 -0.00000000000E+00 -0.00000000000E+00 -0.14322335452E+02  0.14322335679E+02  0.25500000000E-02 0.  1.
         25    2    1    2    0    0  0.29597117809E+02 -0.34579359591E+02  0.41220524451E+03  0.43313925525E+03  0.12499891738E+03 0.  0.
         23    2    1    2    0    0 -0.29597117809E+02  0.34579359591E+02  0.65331730849E+03  0.66102796889E+03  0.89792809188E+02 0.  0.
        -11    1    4    4    0    0 -0.27195974170E+02 -0.45572416875E+01  0.55960066390E+02  0.62385242594E+02  0.51100000000E-03 0.  1.
         11    1    4    4    0    0 -0.24011436388E+01  0.39136601279E+02  0.59735724210E+03  0.59864272629E+03  0.51100000000E-03 0. -1.
    9000005    1    3    3    0    0  0.26803980686E+02  0.42370434065E+02  0.22865990419E+03  0.23409412391E+03  0.10000000000E+01 0.  0.
    9000005    1    3    3    0    0  0.27931371230E+01 -0.76949793656E+02  0.18354534032E+03  0.19904513134E+03  0.10000000000E+01 0.  0.
<mgrwt>
<rscale>  0 0.12407447E+03</rscale>
<asrwt>0</asrwt>
<pdfrwt beam="1">  1        2 0.16612995E+00 0.13302801E+03</pdfrwt>
<pdfrwt beam="2">  1       -2 0.22034366E-02 0.13302801E+03</pdfrwt>
<totfact> 0.15083377E+04</totfact>
</mgrwt>
</event>
<event>
 8    2  0.1628804E-003  0.1300884E+03  0.7818608E-02  0.1240891E+00
          2   -1    0    0  501    0  0.00000000000E+00  0.00000000000E+00  0.97323208337E+03  0.97323208337E+03  0.25500000000E-02 0. -1.
         -2   -1    0    0    0  501 -0.00000000000E+00 -0.00000000000E+00 -0.13455022008E+02  0.13455022250E+02  0.25500000000E-02 0.  1.
         25    2    1    2    0    0  0.23413597444E+02 -0.27376231571E+02  0.57043671835E+03  0.58508207133E+03  0.12500130380E+03 0.  0.
         23    2    1    2    0    0 -0.23413597444E+02  0.27376231571E+02  0.38934034301E+03  0.40160503429E+03  0.91668131167E+02 0.  0.
        -11    1    4    4    0    0 -0.20224951845E+02  0.24171867815E+02  0.34472767607E+02  0.46708667050E+02  0.51100000000E-03 0.  1.
         11    1    4    4    0    0 -0.31886455983E+01  0.32043637559E+01  0.35486757540E+03  0.35489636724E+03  0.51100000000E-03 0. -1.
    9000005    1    3    3    0    0 -0.13590388663E+01  0.60777357458E+01  0.51839010847E+03  0.51842848149E+03  0.10000000000E+01 0.  0.
    9000005    1    3    3    0    0  0.24772636310E+02 -0.33453967317E+02  0.52046609880E+02  0.66653589843E+02  0.10000000000E+01 0.  0.
<mgrwt>
<rscale>  0 0.12134705E+03</rscale>
<asrwt>0</asrwt>
<pdfrwt beam="1">  1        2 0.14972804E+00 0.13008836E+03</pdfrwt>
<pdfrwt beam="2">  1       -2 0.20700030E-02 0.13008836E+03</pdfrwt>
<totfact> 0.19059247E+04</totfact>
</mgrwt>
</event>
<event>
 8    2  0.1628804E-003  0.1389467E+03  0.7818608E-02  0.1226093E+00
          2   -1    0    0  501    0  0.00000000000E+00  0.00000000000E+00  0.38198384493E+03  0.38198384494E+03  0.25500000000E-02 0.  1.
         -2   -1    0    0    0  501 -0.00000000000E+00 -0.00000000000E+00 -0.43818323233E+02  0.43818323307E+02  0.25500000000E-02 0. -1.
         25    2    1    2    0    0  0.56297640041E+02 -0.22620930265E+02  0.24656502493E+03  0.28302030859E+03  0.12500021119E+03 0.  0.
         23    2    1    2    0    0 -0.56297640041E+02  0.22620930265E+02  0.91600496769E+02  0.14278185965E+03  0.91185951096E+02 0.  0.
        -11    1    4    4    0    0 -0.20019408447E+02  0.14681385526E+02 -0.15607260112E+02  0.29324160073E+02  0.51100000000E-03 0. -1.
         11    1    4    4    0    0 -0.36278231594E+02  0.79395447389E+01  0.10720775688E+03  0.11345769958E+03  0.51100000000E-03 0.  1.
    9000005    1    3    3    0    0 -0.14512863847E+02 -0.21490337315E+02 -0.54872935504E+00  0.25956866507E+02  0.10000000000E+01 0.  0.
    9000005    1    3    3    0    0  0.70810503888E+02 -0.11305929501E+01  0.24711375428E+03  0.25706344209E+03  0.10000000000E+01 0.  0.
<mgrwt>
<rscale>  0 0.13092294E+03</rscale>
<asrwt>0</asrwt>
<pdfrwt beam="1">  1        2 0.58766746E-01 0.13894669E+03</pdfrwt>
<pdfrwt beam="2">  1       -2 0.67412805E-02 0.13894669E+03</pdfrwt>
<totfact> 0.98645046E+03</totfact>
</mgrwt>
</event>
<event>
 8    2  0.1628804E-003  0.1967791E+03  0.7818608E-02  0.1157144E+00
         -2   -1    0    0    0  501 -0.00000000000E+00  0.00000000000E+00  0.10553336335E+03  0.10553336338E+03  0.25500000000E-02 0.  1.
          2   -1    0    0  501    0  0.00000000000E+00 -0.00000000000E+00 -0.38213995721E+03  0.38213995722E+03  0.25500000000E-02 0. -1.
         25    2    1    2    0    0  0.77858691084E+02  0.13051941584E+03 -0.54762468278E+02  0.20425701411E+03  0.12499882477E+03 0.  0.
         23    2    1    2    0    0 -0.77858691084E+02 -0.13051941584E+03 -0.22184412558E+03  0.28341630649E+03  0.89513647250E+02 0.  0.
        -11    1    4    4    0    0 -0.28225697323E+00 -0.78103874282E+02 -0.13362394584E+03  0.15477614076E+03  0.51100000000E-03 0. -1.
         11    1    4    4    0    0 -0.77576434111E+02 -0.52415541557E+02 -0.88220179739E+02  0.12864016573E+03  0.51100000000E-03 0.  1.
    9000005    1    3    3    0    0  0.58213987014E+02  0.15484579645E+03 -0.47962548379E+02  0.17224254703E+03  0.10000000000E+01 0.  0.
    9000005    1    3    3    0    0  0.19644704070E+02 -0.24326380609E+02 -0.67999198990E+01  0.32014467076E+02  0.10000000000E+01 0.  0.
<mgrwt>
<rscale>  0 0.19146820E+03</rscale>
<asrwt>0</asrwt>
<pdfrwt beam="2">  1        2 0.58790762E-01 0.19677906E+03</pdfrwt>
<pdfrwt beam="1">  1       -2 0.16235902E-01 0.19677906E+03</pdfrwt>
<totfact> 0.24852823E+03</totfact>
</mgrwt>
</event>
<event>
 8    2  0.1628804E-003  0.1476616E+03  0.7818608E-02  0.1213443E+00
          2   -1    0    0  501    0  0.00000000000E+00  0.00000000000E+00  0.10867310577E+04  0.10867310577E+04  0.25500000000E-02 0. -1.
         -2   -1    0    0    0  501 -0.00000000000E+00 -0.00000000000E+00 -0.16529071406E+02  0.16529071603E+02  0.25500000000E-02 0.  1.
         25    2    1    2    0    0 -0.66317029508E+02 -0.42204544440E+02  0.53682946090E+03  0.55676729586E+03  0.12499911868E+03 0.  0.
         23    2    1    2    0    0  0.66317029508E+02  0.42204544440E+02  0.53337252539E+03  0.54649283344E+03  0.89381173602E+02 0.  0.
        -11    1    4    4    0    0  0.80511326351E+02  0.54610551500E+02  0.39310240234E+03  0.40496158427E+03  0.51100000000E-03 0.  1.
         11    1    4    4    0    0 -0.14194296843E+02 -0.12406007060E+02  0.14027012304E+03  0.14153124918E+03  0.51100000000E-03 0. -1.
    9000005    1    3    3    0    0 -0.86380529613E+02 -0.29247726571E+02  0.51898284454E+03  0.52693568710E+03  0.10000000000E+01 0.  0.
    9000005    1    3    3    0    0  0.20063500106E+02 -0.12956817869E+02  0.17846616360E+02  0.29831608761E+02  0.10000000000E+01 0.  0.
<mgrwt>
<rscale>  0 0.13991520E+03</rscale>
<asrwt>0</asrwt>
<pdfrwt beam="1">  1        2 0.16718940E+00 0.14766161E+03</pdfrwt>
<pdfrwt beam="2">  1       -2 0.25429340E-02 0.14766161E+03</pdfrwt>
<totfact> 0.12200497E+04</totfact>
</mgrwt>
</event>
<event>
 8    2  0.1628804E-003  0.1252644E+03  0.7818608E-02  0.1250797E+00
          2   -1    0    0  501    0  0.00000000000E+00  0.00000000000E+00  0.20718036305E+03  0.20718036306E+03  0.25500000000E-02 0. -1.
         -2   -1    0    0    0  501 -0.00000000000E+00 -0.00000000000E+00 -0.57377285401E+02  0.57377285458E+02  0.25500000000E-02 0.  1.
         25    2    1    2    0    0  0.58939438490E+00 -0.79286349331E+01  0.67394367866E+02  0.14224339007E+03  0.12501188168E+03 0.  0.
         23    2    1    2    0    0 -0.58939438490E+00  0.79286349331E+01  0.82408709780E+02  0.12231425845E+03  0.90035391566E+02 0.  0.
        -11    1    4    4    0    0  0.37586240774E+01  0.42115472884E+02  0.12045945750E+02  0.43965271755E+02  0.51100000000E-03 0.  1.
         11    1    4    4    0    0 -0.43480184623E+01 -0.34186837951E+02  0.70362764030E+02  0.78348986693E+02  0.51100000000E-03 0. -1.
    9000005    1    3    3    0    0 -0.12294799357E+01  0.58550006604E+02  0.35388799660E+02  0.68432317187E+02  0.10000000000E+01 0.  0.
    9000005    1    3    3    0    0  0.18188743206E+01 -0.66478641537E+02  0.32005568206E+02  0.73811072886E+02  0.10000000000E+01 0.  0.
<mgrwt>
<rscale>  0 0.11545051E+03</rscale>
<asrwt>0</asrwt>
<pdfrwt beam="1">  1        2 0.31873903E-01 0.12526445E+03</pdfrwt>
<pdfrwt beam="2">  1       -2 0.88272744E-02 0.12526445E+03</pdfrwt>
<totfact> 0.12384215E+04</totfact>
</mgrwt>
</event>
<event>
 8    2  0.1628804E-003  0.2414729E+03  0.7818608E-02  0.1121427E+00
          2   -1    0    0  501    0  0.00000000000E+00  0.00000000000E+00  0.42513127389E+03  0.42513127390E+03  0.25500000000E-02 0.  1.
         -2   -1    0    0    0  501 -0.00000000000E+00 -0.00000000000E+00 -0.21345984620E+03  0.21345984622E+03  0.25500000000E-02 0. -1.
         25    2    1    2    0    0  0.20155488301E+03  0.45420851824E+02  0.30914356749E+03  0.39227399133E+03  0.12498685653E+03 0.  0.
         23    2    1    2    0    0 -0.20155488301E+03 -0.45420851824E+02 -0.97472139805E+02  0.24631712879E+03  0.92108008609E+02 0.  0.
        -11    1    4    4    0    0 -0.13726572598E+03 -0.61763346655E+02 -0.33588386766E+02  0.15422311839E+03  0.51100000000E-03 0.  1.
         11    1    4    4    0    0 -0.64289157026E+02  0.16342494831E+02 -0.63883753039E+02  0.92094010398E+02  0.51100000000E-03 0. -1.
    9000005    1    3    3    0    0  0.33767709882E+02  0.49327380622E+02  0.30822736557E+02  0.67264327831E+02  0.10000000000E+01 0.  0.
    9000005    1    3    3    0    0  0.16778717313E+03 -0.39065287978E+01  0.27832083093E+03  0.32500966349E+03  0.10000000000E+01 0.  0.
<mgrwt>
<rscale>  0 0.23756341E+03</rscale>
<asrwt>0</asrwt>
<pdfrwt beam="1">  1        2 0.65404811E-01 0.24147285E+03</pdfrwt>
<pdfrwt beam="2">  1       -2 0.32839976E-01 0.24147285E+03</pdfrwt>
<totfact> 0.64840371E+02</totfact>
</mgrwt>
</event>
<event>
 8    2  0.1628804E-003  0.1580071E+03  0.7818608E-02  0.1199122E+00
         -2   -1    0    0    0  501 -0.00000000000E+00  0.00000000000E+00  0.65556789649E+02  0.65556789699E+02  0.25500000000E-02 0.  1.
          2   -1    0    0  501    0  0.00000000000E+00 -0.00000000000E+00 -0.36570938470E+03  0.36570938471E+03  0.25500000000E-02 0. -1.
         25    2    1    2    0    0  0.84243665351E+02 -0.47382366222E+02 -0.86742613493E+02  0.18025126791E+03  0.12499661918E+03 0.  0.
         23    2    1    2    0    0 -0.84243665351E+02  0.47382366222E+02 -0.21340998156E+03  0.25101490650E+03  0.90125353131E+02 0.  0.
        -11    1    4    4    0    0 -0.76542435197E+02  0.32066073871E+02 -0.75969277750E+02  0.11250914915E+03  0.51100000000E-03 0.  1.
         11    1    4    4    0    0 -0.77012301532E+01  0.15316292351E+02 -0.13744070381E+03  0.13850575735E+03  0.51100000000E-03 0. -1.
    9000005    1    3    3    0    0  0.92710841546E+02 -0.50048059188E+02 -0.11181504502E+03  0.15363499817E+03  0.10000000000E+01 0.  0.
    9000005    1    3    3    0    0 -0.84671761955E+01  0.26656929660E+01  0.25072431532E+02  0.26616269736E+02  0.10000000000E+01 0.  0.
<mgrwt>
<rscale>  0 0.15110452E+03</rscale>
<asrwt>0</asrwt>
<pdfrwt beam="2">  1        2 0.56262981E-01 0.15800708E+03</pdfrwt>
<pdfrwt beam="1">  1       -2 0.10085660E-01 0.15800708E+03</pdfrwt>
<totfact> 0.55758765E+03</totfact>
</mgrwt>
</event>
<event>
 8    2  0.1628804E-003  0.1511181E+03  0.7818608E-02  0.1208214E+00
          2   -1    0    0  501    0  0.00000000000E+00  0.00000000000E+00  0.26373503000E+04  0.26373503000E+04  0.25500000000E-02 0. -1.
         -2   -1    0    0    0  501 -0.00000000000E+00 -0.00000000000E+00 -0.79169414294E+01  0.79169418401E+01  0.25500000000E-02 0.  1.
         25    2    1    2    0    0 -0.68240658152E+02 -0.50537758863E+02  0.18326859421E+04  0.18389057769E+04  0.12500336655E+03 0.  0.
         23    2    1    2    0    0  0.68240658152E+02  0.50537758863E+02  0.79674741646E+03  0.80636146487E+03  0.90562210144E+02 0.  0.
        -11    1    4    4    0    0  0.15584372684E+02  0.11789040562E+02  0.24439056056E+02  0.31290918978E+02  0.51100000000E-03 0.  1.
         11    1    4    4    0    0  0.52656285468E+02  0.38748718301E+02  0.77230836040E+03  0.77507054589E+03  0.51100000000E-03 0. -1.
    9000005    1    3    3    0    0 -0.18285986470E+02  0.32556792487E+02  0.20788158648E+03  0.21121097518E+03  0.10000000000E+01 0.  0.
    9000005    1    3    3    0    0 -0.49954671682E+02 -0.83094551350E+02  0.16248043556E+04  0.16276948018E+04  0.10000000000E+01 0.  0.
<mgrwt>
<rscale>  0 0.14387029E+03</rscale>
<asrwt>0</asrwt>
<pdfrwt beam="1">  1        2 0.40574552E+00 0.15111815E+03</pdfrwt>
<pdfrwt beam="2">  1       -2 0.12179931E-02 0.15111815E+03</pdfrwt>
<totfact> 0.53957437E+03</totfact>
</mgrwt>
</event>
<event>
 8    2  0.1628804E-003  0.1265159E+03  0.7818608E-02  0.1247912E+00
          2   -1    0    0  501    0  0.00000000000E+00  0.00000000000E+00  0.74580651446E+03  0.74580651446E+03  0.25500000000E-02 0. -1.
         -2   -1    0    0    0  501 -0.00000000000E+00 -0.00000000000E+00 -0.16256167625E+02  0.16256167825E+02  0.25500000000E-02 0.  1.
         25    2    1    2    0    0 -0.10410941912E+02 -0.16509993950E+02  0.45150489180E+03  0.46889545196E+03  0.12500123976E+03 0.  0.
         23    2    1    2    0    0  0.10410941912E+02  0.16509993950E+02  0.27804545503E+03  0.29316723032E+03  0.90866838057E+02 0.  0.
        -11    1    4    4    0    0  0.17462392098E+02 -0.80380839222E+01  0.26263478791E+03  0.26333738389E+03  0.51100000000E-03 0. -1.
         11    1    4    4    0    0 -0.70514501857E+01  0.24548077873E+02  0.15410667122E+02  0.29829846436E+02  0.51100000000E-03 0.  1.
    9000005    1    3    3    0    0  0.76473281023E+01  0.39869931689E+02  0.57082399862E+02  0.70053504223E+02  0.10000000000E+01 0.  0.
    9000005    1    3    3    0    0 -0.18058270015E+02 -0.56379925639E+02  0.39442249194E+03  0.39884194774E+03  0.10000000000E+01 0.  0.
<mgrwt>
<rscale>  0 0.11712752E+03</rscale>
<asrwt>0</asrwt>
<pdfrwt beam="1">  1        2 0.11473942E+00 0.12651592E+03</pdfrwt>
<pdfrwt beam="2">  1       -2 0.25009499E-02 0.12651592E+03</pdfrwt>
<totfact> 0.20280513E+04</totfact>
</mgrwt>
</event>
<event>
 8    2  0.1628804E-003  0.1528534E+03  0.7818608E-02  0.1205624E+00
          2   -1    0    0  501    0  0.00000000000E+00  0.00000000000E+00  0.10000896547E+04  0.10000896547E+04  0.25500000000E-02 0. -1.
         -2   -1    0    0    0  501 -0.00000000000E+00 -0.00000000000E+00 -0.20236825214E+02  0.20236825375E+02  0.25500000000E-02 0.  1.
         25    2    1    2    0    0 -0.86103789475E+02 -0.18030417897E+02  0.44061550487E+03  0.46637559566E+03  0.12500085824E+03 0.  0.
         23    2    1    2    0    0  0.86103789475E+02  0.18030417897E+02  0.53923732458E+03  0.55395088439E+03  0.91354975564E+02 0.  0.
        -11    1    4    4    0    0  0.98953576803E+01 -0.33101062590E+02  0.12642195354E+03  0.13105765443E+03  0.51100000000E-03 0. -1.
         11    1    4    4    0    0  0.76208431794E+02  0.51131480487E+02  0.41281537104E+03  0.42289322996E+03  0.51100000000E-03 0.  1.
    9000005    1    3    3    0    0 -0.11826060816E+03 -0.19225109205E+02  0.32587984801E+03  0.34720865716E+03  0.10000000000E+01 0.  0.
    9000005    1    3    3    0    0  0.32156818690E+02  0.11946913071E+01  0.11473565686E+03  0.11916693850E+03  0.10000000000E+01 0.  0.
<mgrwt>
<rscale>  0 0.14588411E+03</rscale>
<asrwt>0</asrwt>
<pdfrwt beam="1">  1        2 0.15385995E+00 0.15285344E+03</pdfrwt>
<pdfrwt beam="2">  1       -2 0.31133577E-02 0.15285344E+03</pdfrwt>
<totfact> 0.10208283E+04</totfact>
</mgrwt>
</event>
<event>
 8    2  0.1628804E-003  0.1366789E+03  0.7818608E-02  0.1229786E+00
          2   -1    0    0  501    0  0.00000000000E+00  0.00000000000E+00  0.14227705079E+04  0.14227705079E+04  0.25500000000E-02 0.  1.
         -2   -1    0    0    0  501 -0.00000000000E+00 -0.00000000000E+00 -0.11123937736E+02  0.11123938028E+02  0.25500000000E-02 0. -1.
         25    2    1    2    0    0  0.16242390625E+02  0.52832117734E+02  0.60569147717E+03  0.62092133129E+03  0.12500434483E+03 0.  0.
         23    2    1    2    0    0 -0.16242390625E+02 -0.52832117734E+02  0.80595509298E+03  0.81297311462E+03  0.91140689454E+02 0.  0.
        -11    1    4    4    0    0 -0.71876085343E+01  0.21336635807E+02  0.77738707260E+02  0.80933431601E+02  0.51100000000E-03 0. -1.
         11    1    4    4    0    0 -0.90547820908E+01 -0.74168753541E+02  0.72821638572E+03  0.73203968302E+03  0.51100000000E-03 0.  1.
    9000005    1    3    3    0    0  0.33388779327E+02 -0.32704417796E+02  0.15637541137E+03  0.16321353746E+03  0.10000000000E+01 0.  0.
    9000005    1    3    3    0    0 -0.17146388702E+02  0.85536535529E+02  0.44931606580E+03  0.45770779384E+03  0.10000000000E+01 0.  0.
<mgrwt>
<rscale>  0 0.12844183E+03</rscale>
<asrwt>0</asrwt>
<pdfrwt beam="1">  1        2 0.21888775E+00 0.13667895E+03</pdfrwt>
<pdfrwt beam="2">  1       -2 0.17113752E-02 0.13667895E+03</pdfrwt>
<totfact> 0.14146769E+04</totfact>
</mgrwt>
</event>
<event>
 8    2  0.1628804E-003  0.1592818E+03  0.7818608E-02  0.1197120E+00
         -2   -1    0    0    0  501 -0.00000000000E+00  0.00000000000E+00  0.13896226207E+03  0.13896226209E+03  0.25500000000E-02 0. -1.
          2   -1    0    0  501    0  0.00000000000E+00 -0.00000000000E+00 -0.19488206586E+03  0.19488206588E+03  0.25500000000E-02 0.  1.
         25    2    1    2    0    0 -0.98611796389E+02  0.45287217341E+01 -0.10460723003E+03  0.19056069376E+03  0.12500363885E+03 0.  0.
         23    2    1    2    0    0  0.98611796389E+02 -0.45287217341E+01  0.48687426235E+02  0.14328363420E+03  0.91732974713E+02 0.  0.
        -11    1    4    4    0    0  0.64874865628E+02 -0.42956738194E+02  0.49359286474E+02  0.92143196754E+02  0.51100000000E-03 0. -1.
         11    1    4    4    0    0  0.33736930761E+02  0.38428016460E+02 -0.67186023864E+00  0.51140437451E+02  0.51100000000E-03 0.  1.
    9000005    1    3    3    0    0 -0.45375942260E+02 -0.49070910318E+02 -0.92380332560E+02  0.11402655927E+03  0.10000000000E+01 0.  0.
    9000005    1    3    3    0    0 -0.53235854128E+02  0.53599632052E+02 -0.12226897466E+02  0.76534134493E+02  0.10000000000E+01 0.  0.
<mgrwt>
<rscale>  0 0.15276132E+03</rscale>
<asrwt>0</asrwt>
<pdfrwt beam="2">  1        2 0.29981856E-01 0.15928184E+03</pdfrwt>
<pdfrwt beam="1">  1       -2 0.21378810E-01 0.15928184E+03</pdfrwt>
<totfact> 0.31954569E+03</totfact>
</mgrwt>
</event>
<event>
 8    2  0.1628804E-003  0.1946117E+03  0.7818608E-02  0.1158978E+00
         -2   -1    0    0    0  501 -0.00000000000E+00  0.00000000000E+00  0.23284569024E+02  0.23284569164E+02  0.25500000000E-02 0.  1.
          2   -1    0    0  501    0  0.00000000000E+00 -0.00000000000E+00 -0.14648317994E+04  0.14648317994E+04  0.25500000000E-02 0. -1.
         25    2    1    2    0    0  0.80821489977E+02 -0.12535955413E+03 -0.74569699467E+03  0.77067355018E+03  0.12500632794E+03 0.  0.
         23    2    1    2    0    0 -0.80821489977E+02  0.12535955413E+03 -0.69585023570E+03  0.71744281838E+03  0.90936879607E+02 0.  0.
        -11    1    4    4    0    0 -0.62535465538E+02  0.23070978329E+02 -0.35118461760E+03  0.35745431894E+03  0.51100000000E-03 0.  1.
         11    1    4    4    0    0 -0.18286024438E+02  0.10228857581E+03 -0.34466561810E+03  0.35998849944E+03  0.51100000000E-03 0. -1.
    9000005    1    3    3    0    0  0.24500005854E+02 -0.13257972083E+02 -0.43085281388E+03  0.43175360027E+03  0.10000000000E+01 0.  0.
    9000005    1    3    3    0    0  0.56321484122E+02 -0.11210158205E+03 -0.31484418079E+03  0.33891994991E+03  0.10000000000E+01 0.  0.
<mgrwt>
<rscale>  0 0.18942784E+03</rscale>
<asrwt>0</asrwt>
<pdfrwt beam="2">  1        2 0.22535867E+00 0.19461170E+03</pdfrwt>
<pdfrwt beam="1">  1       -2 0.35822425E-02 0.19461170E+03</pdfrwt>
<totfact> 0.46005531E+03</totfact>
</mgrwt>
</event>
<event>
 8    2  0.1628804E-003  0.1417272E+03  0.7818608E-02  0.1217602E+00
         -2   -1    0    0    0  501 -0.00000000000E+00  0.00000000000E+00  0.41330858918E+02  0.41330858997E+02  0.25500000000E-02 0.  1.
          2   -1    0    0  501    0  0.00000000000E+00 -0.00000000000E+00 -0.42701479828E+03  0.42701479829E+03  0.25500000000E-02 0. -1.
         25    2    1    2    0    0  0.63323557182E+02 -0.21237249014E+02 -0.22303863652E+03  0.26425904266E+03  0.12500285840E+03 0.  0.
         23    2    1    2    0    0 -0.63323557182E+02  0.21237249014E+02 -0.16264530284E+03  0.20408661462E+03  0.10361929402E+03 0.  0.
        -11    1    4    4    0    0 -0.14200273066E+01  0.51538034412E+01 -0.13382952401E+03  0.13393625224E+03  0.51100000000E-03 0. -1.
         11    1    4    4    0    0 -0.61903529876E+02  0.16083445572E+02 -0.28815778831E+02  0.70150362383E+02  0.51100000000E-03 0.  1.
    9000005    1    3    3    0    0  0.74368727822E+02 -0.30676754647E+02 -0.23307642627E+03  0.24657127050E+03  0.10000000000E+01 0.  0.
    9000005    1    3    3    0    0 -0.11045170640E+02  0.94395056330E+01  0.10037789747E+02  0.17687772162E+02  0.10000000000E+01 0.  0.
<mgrwt>
<rscale>  0 0.13687141E+03</rscale>
<asrwt>0</asrwt>
<pdfrwt beam="2">  1        2 0.65694581E-01 0.14172723E+03</pdfrwt>
<pdfrwt beam="1">  1       -2 0.63585940E-02 0.14172723E+03</pdfrwt>
<totfact> 0.95841186E+03</totfact>
</mgrwt>
</event>
<event>
 8    2  0.1628804E-003  0.1318209E+03  0.7818608E-02  0.1238325E+00
          2   -1    0    0  501    0  0.00000000000E+00  0.00000000000E+00  0.71446333404E+03  0.71446333404E+03  0.25500000000E-02 0. -1.
         -2   -1    0    0    0  501 -0.00000000000E+00 -0.00000000000E+00 -0.18779984505E+02  0.18779984678E+02  0.25500000000E-02 0.  1.
         25    2    1    2    0    0  0.73235735739E+00  0.41855174458E+02  0.40769450496E+03  0.42847586615E+03  0.12499746605E+03 0.  0.
         23    2    1    2    0    0 -0.73235735739E+00 -0.41855174458E+02  0.28798884457E+03  0.30476745257E+03  0.90516482327E+02 0.  0.
        -11    1    4    4    0    0  0.85526773824E+01 -0.32986615302E+02  0.27037676751E+02  0.43500586707E+02  0.51100000000E-03 0.  1.
         11    1    4    4    0    0 -0.92850347398E+01 -0.88685591558E+01  0.26095116782E+03  0.26126686586E+03  0.51100000000E-03 0. -1.
    9000005    1    3    3    0    0 -0.40206387978E+02 -0.20846390187E+02  0.24787118981E+03  0.25197669010E+03  0.10000000000E+01 0.  0.
    9000005    1    3    3    0    0  0.40938745335E+02  0.62701564645E+02  0.15982331516E+03  0.17649917605E+03  0.10000000000E+01 0.  0.
<mgrwt>
<rscale>  0 0.12293974E+03</rscale>
<asrwt>0</asrwt>
<pdfrwt beam="1">  1        2 0.10991742E+00 0.13182093E+03</pdfrwt>
<pdfrwt beam="2">  1       -2 0.28892288E-02 0.13182093E+03</pdfrwt>
<totfact> 0.17348062E+04</totfact>
</mgrwt>
</event>
<event>
 8    2  0.1628804E-003  0.2282315E+03  0.7818608E-02  0.1130958E+00
          2   -1    0    0  501    0  0.00000000000E+00  0.00000000000E+00  0.61479942724E+03  0.61479942724E+03  0.25500000000E-02 0. -1.
         -2   -1    0    0    0  501 -0.00000000000E+00 -0.00000000000E+00 -0.12170503905E+03  0.12170503908E+03  0.25500000000E-02 0.  1.
         25    2    1    2    0    0  0.93819778638E+02  0.16632040342E+03  0.47139883903E+03  0.52374277856E+03  0.12500002078E+03 0.  0.
         23    2    1    2    0    0 -0.93819778638E+02 -0.16632040342E+03  0.21695549154E+02  0.21276168776E+03  0.91280948006E+02 0.  0.
        -11    1    4    4    0    0 -0.53990108610E+02 -0.17618889518E+02  0.14678842168E+02  0.58658550129E+02  0.51100000000E-03 0.  1.
         11    1    4    4    0    0 -0.39829670028E+02 -0.14870151390E+03  0.70167069852E+01  0.15410313763E+03  0.51100000000E-03 0. -1.
    9000005    1    3    3    0    0 -0.68854910913E+01  0.19949808169E+02  0.12757297382E+01  0.21166773961E+02  0.10000000000E+01 0.  0.
    9000005    1    3    3    0    0  0.10070526973E+03  0.14637059525E+03  0.47012310929E+03  0.50257600460E+03  0.10000000000E+01 0.  0.
<mgrwt>
<rscale>  0 0.22396887E+03</rscale>
<asrwt>0</asrwt>
<pdfrwt beam="1">  1        2 0.94584530E-01 0.22823153E+03</pdfrwt>
<pdfrwt beam="2">  1       -2 0.18723852E-01 0.22823153E+03</pdfrwt>
<totfact> 0.11546483E+03</totfact>
</mgrwt>
</event>
<event>
 8    2  0.1628804E-003  0.1541781E+03  0.7818608E-02  0.1203655E+00
         -2   -1    0    0    0  501 -0.00000000000E+00  0.00000000000E+00  0.53548414244E+02  0.53548414305E+02  0.25500000000E-02 0.  1.
          2   -1    0    0  501    0  0.00000000000E+00 -0.00000000000E+00 -0.37831001512E+03  0.37831001513E+03  0.25500000000E-02 0. -1.
         25    2    1    2    0    0  0.90252542539E+02 -0.16318369280E+00 -0.19905632198E+03  0.25178226800E+03  0.12500137238E+03 0.  0.
         23    2    1    2    0    0 -0.90252542539E+02  0.16318369280E+00 -0.12570527890E+03  0.18007616143E+03  0.92087234235E+02 0.  0.
        -11    1    4    4    0    0 -0.78632683771E+02  0.12446111969E+02 -0.33566111732E+02  0.86398428905E+02  0.51100000000E-03 0.  1.
         11    1    4    4    0    0 -0.11619858769E+02 -0.12282928276E+02 -0.92139167168E+02  0.93677732528E+02  0.51100000000E-03 0. -1.
    9000005    1    3    3    0    0  0.12028846470E+03 -0.13522962345E+02 -0.15059785833E+03  0.19321723574E+03  0.10000000000E+01 0.  0.
    9000005    1    3    3    0    0 -0.30035922162E+02  0.13359778652E+02 -0.48458463643E+02  0.58565032267E+02  0.10000000000E+01 0.  0.
<mgrwt>
<rscale>  0 0.14743963E+03</rscale>
<asrwt>0</asrwt>
<pdfrwt beam="2">  1        2 0.58201539E-01 0.15417812E+03</pdfrwt>
<pdfrwt beam="1">  1       -2 0.82382178E-02 0.15417812E+03</pdfrwt>
<totfact> 0.73698240E+03</totfact>
</mgrwt>
</event>
<event>
 8    2  0.1628804E-003  0.1335541E+03  0.7818608E-02  0.1234450E+00
         -2   -1    0    0    0  501 -0.00000000000E+00  0.00000000000E+00  0.14519276638E+04  0.14519276638E+04  0.25500000000E-02 0.  1.
          2   -1    0    0  501    0  0.00000000000E+00 -0.00000000000E+00 -0.99255952077E+01  0.99255955352E+01  0.25500000000E-02 0. -1.
         25    2    1    2    0    0 -0.32628317445E+02 -0.33869248905E+02  0.69998443396E+03  0.71261133017E+03  0.12499986791E+03 0.  0.
         23    2    1    2    0    0  0.32628317445E+02  0.33869248905E+02  0.74201763467E+03  0.74924192920E+03  0.92528726353E+02 0.  0.
        -11    1    4    4    0    0  0.99867304116E+01  0.51044534050E+02  0.66694944843E+03  0.66897447336E+03  0.51100000000E-03 0.  1.
         11    1    4    4    0    0  0.22641587033E+02 -0.17175285145E+02  0.75068186237E+02  0.80267455848E+02  0.51100000000E-03 0. -1.
    9000005    1    3    3    0    0 -0.61611443646E+02 -0.62272667897E+02  0.56174592831E+03  0.56853614057E+03  0.10000000000E+01 0.  0.
    9000005    1    3    3    0    0  0.28983126202E+02  0.28403418992E+02  0.13823850565E+03  0.14407518960E+03  0.10000000000E+01 0.  0.
<mgrwt>
<rscale>  0 0.12539682E+03</rscale>
<asrwt>0</asrwt>
<pdfrwt beam="2">  1        2 0.15270146E-02 0.13355411E+03</pdfrwt>
<pdfrwt beam="1">  1       -2 0.22337349E+00 0.13355411E+03</pdfrwt>
<totfact> 0.80062478E+02</totfact>
</mgrwt>
</event>
<event>
 8    2  0.1628804E-003  0.1981530E+03  0.7818608E-02  0.1155728E+00
          2   -1    0    0  501    0  0.00000000000E+00  0.00000000000E+00  0.36710401668E+03  0.36710401669E+03  0.25500000000E-02 0. -1.
         -2   -1    0    0    0  501 -0.00000000000E+00 -0.00000000000E+00 -0.11116265829E+03  0.11116265831E+03  0.25500000000E-02 0.  1.
         25    2    1    2    0    0 -0.62364993505E+02 -0.14052901455E+03  0.22007600472E+03  0.29613856559E+03  0.12500722312E+03 0.  0.
         23    2    1    2    0    0  0.62364993505E+02  0.14052901455E+03  0.35865353678E+02  0.18212810941E+03  0.90810397520E+02 0.  0.
        -11    1    4    4    0    0  0.22869584566E+02  0.53725654130E+02  0.60034138275E+02  0.83747009311E+02  0.51100000000E-03 0. -1.
         11    1    4    4    0    0  0.39495408939E+02  0.86803360423E+02 -0.24168784597E+02  0.98381100102E+02  0.51100000000E-03 0.  1.
    9000005    1    3    3    0    0 -0.82287731296E+02 -0.33813206318E+02  0.11082930203E+03  0.14212226367E+03  0.10000000000E+01 0.  0.
    9000005    1    3    3    0    0  0.19922737791E+02 -0.10671580823E+03  0.10924670269E+03  0.15401630192E+03  0.10000000000E+01 0.  0.
<mgrwt>
<rscale>  0 0.19306236E+03</rscale>
<asrwt>0</asrwt>
<pdfrwt beam="1">  1        2 0.56477540E-01 0.19815298E+03</pdfrwt>
<pdfrwt beam="2">  1       -2 0.17101948E-01 0.19815298E+03</pdfrwt>
<totfact> 0.23802934E+03</totfact>
</mgrwt>
</event>
<event>
 8    2  0.1628804E-003  0.1254778E+03  0.7818608E-02  0.1249761E+00
         -2   -1    0    0    0  501 -0.00000000000E+00  0.00000000000E+00  0.48770478597E+01  0.48770485264E+01  0.25500000000E-02 0.  1.
          2   -1    0    0  501    0  0.00000000000E+00 -0.00000000000E+00 -0.28887801371E+04  0.28887801371E+04  0.25500000000E-02 0. -1.
         25    2    1    2    0    0 -0.39835918454E+00 -0.10949976699E+02 -0.22060484516E+04  0.22096140939E+04  0.12499844985E+03 0.  0.
         23    2    1    2    0    0  0.39835918454E+00  0.10949976699E+02 -0.67785463772E+03  0.68404309181E+03  0.91148126113E+02 0.  0.
        -11    1    4    4    0    0  0.74762405133E+01 -0.10463906340E+01 -0.66514308467E+03  0.66518592303E+03  0.51100000000E-03 0. -1.
         11    1    4    4    0    0 -0.70778813287E+01  0.11996367333E+02 -0.12711553043E+02  0.18857168777E+02  0.51100000000E-03 0.  1.
    9000005    1    3    3    0    0  0.48282149129E+02  0.96000720957E+00 -0.17755962633E+04  0.17762531289E+04  0.10000000000E+01 0.  0.
    9000005    1    3    3    0    0 -0.48680508313E+02 -0.11909983908E+02 -0.43045218823E+03  0.43336096497E+03  0.10000000000E+01 0.  0.
<mgrwt>
<rscale>  0 0.11604888E+03</rscale>
<asrwt>0</asrwt>
<pdfrwt beam="2">  1        2 0.44442635E+00 0.12547778E+03</pdfrwt>
<pdfrwt beam="1">  1       -2 0.75031742E-03 0.12547778E+03</pdfrwt>
<totfact> 0.78152647E+03</totfact>
</mgrwt>
</event>
<event>
 8    2  0.1628804E-003  0.1317796E+03  0.7818608E-02  0.1238324E+00
         -2   -1    0    0    0  501 -0.00000000000E+00  0.00000000000E+00  0.21611434907E+03  0.21611434909E+03  0.25500000000E-02 0. -1.
          2   -1    0    0  501    0  0.00000000000E+00 -0.00000000000E+00 -0.90258850219E+02  0.90258850255E+02  0.25500000000E-02 0.  1.
         25    2    1    2    0    0 -0.24757697688E+02  0.33547673610E+02 -0.16179153951E+02  0.13276906170E+03  0.12500987450E+03 0.  0.
         23    2    1    2    0    0  0.24757697688E+02 -0.33547673610E+02  0.14203465280E+03  0.17360413765E+03  0.90698202910E+02 0.  0.
        -11    1    4    4    0    0  0.40590574344E+02  0.19083419822E+02  0.64975275634E+02  0.78952885202E+02  0.51100000000E-03 0.  1.
         11    1    4    4    0    0 -0.15832876657E+02 -0.52631093432E+02  0.77059377170E+02  0.94651252444E+02  0.51100000000E-03 0. -1.
    9000005    1    3    3    0    0 -0.37085936356E+02 -0.40636222931E+02  0.31584487276E+01  0.55114835461E+02  0.10000000000E+01 0.  0.
    9000005    1    3    3    0    0  0.12328238669E+02  0.74183896541E+02 -0.19337602679E+02  0.77654226235E+02  0.10000000000E+01 0.  0.
<mgrwt>
<rscale>  0 0.12294003E+03</rscale>
<asrwt>0</asrwt>
<pdfrwt beam="2">  1        2 0.13885977E-01 0.13177958E+03</pdfrwt>
<pdfrwt beam="1">  1       -2 0.33248361E-01 0.13177958E+03</pdfrwt>
<totfact> 0.34623064E+03</totfact>
</mgrwt>
</event>
<event>
 8    2  0.1628804E-003  0.1411149E+03  0.7818608E-02  0.1222745E+00
         -2   -1    0    0    0  501 -0.00000000000E+00  0.00000000000E+00  0.15497538552E+02  0.15497538762E+02  0.25500000000E-02 0. -1.
          2   -1    0    0  501    0  0.00000000000E+00 -0.00000000000E+00 -0.10977313145E+04  0.10977313145E+04  0.25500000000E-02 0.  1.
         25    2    1    2    0    0  0.59162981179E+02 -0.27996823602E+02 -0.73238820576E+03  0.74585916369E+03  0.12501730943E+03 0.  0.
         23    2    1    2    0    0 -0.59162981179E+02  0.27996823602E+02 -0.34984557020E+03  0.36736968958E+03  0.91019148328E+02 0.  0.
        -11    1    4    4    0    0 -0.26700589743E+02  0.20271524277E+02 -0.32247102343E+03  0.32420890972E+03  0.51100000000E-03 0.  1.
         11    1    4    4    0    0 -0.32462391436E+02  0.77252993245E+01 -0.27374546771E+02  0.43160779865E+02  0.51100000000E-03 0. -1.
    9000005    1    3    3    0    0  0.38657163506E+02 -0.68531195320E+02 -0.26968630324E+03  0.28093166994E+03  0.10000000000E+01 0.  0.
    9000005    1    3    3    0    0  0.20505817674E+02  0.40534371718E+02 -0.46270190252E+03  0.46492749375E+03  0.10000000000E+01 0.  0.
<mgrwt>
<rscale>  0 0.13322641E+03</rscale>
<asrwt>0</asrwt>
<pdfrwt beam="2">  1        2 0.16888168E+00 0.14111488E+03</pdfrwt>
<pdfrwt beam="1">  1       -2 0.23842376E-02 0.14111488E+03</pdfrwt>
<totfact> 0.13178041E+04</totfact>
</mgrwt>
</event>
<event>
 8    2  0.1628804E-003  0.1395479E+03  0.7818608E-02  0.1225389E+00
         -2   -1    0    0    0  501 -0.00000000000E+00  0.00000000000E+00  0.35142078243E+03  0.35142078243E+03  0.25500000000E-02 0.  1.
          2   -1    0    0  501    0  0.00000000000E+00 -0.00000000000E+00 -0.11494685390E+03  0.11494685393E+03  0.25500000000E-02 0. -1.
         25    2    1    2    0    0 -0.61734144299E+02 -0.62150112088E+01 -0.58755359981E+02  0.15141267699E+03  0.12499550188E+03 0.  0.
         23    2    1    2    0    0  0.61734144299E+02  0.62150112088E+01  0.29522928851E+03  0.31495495938E+03  0.90479625923E+02 0.  0.
        -11    1    4    4    0    0 -0.82080414011E+01 -0.15377121260E+02  0.16205252972E+03  0.16298727003E+03  0.51100000000E-03 0.  1.
         11    1    4    4    0    0  0.69942185700E+02  0.21592132468E+02  0.13317675878E+03  0.15196768934E+03  0.51100000000E-03 0. -1.
    9000005    1    3    3    0    0 -0.64279555167E+02  0.49577355744E+02 -0.48656037488E+02  0.94647690934E+02  0.10000000000E+01 0.  0.
    9000005    1    3    3    0    0  0.25454108687E+01 -0.55792366953E+02 -0.10099322493E+02  0.56764986052E+02  0.10000000000E+01 0.  0.
<mgrwt>
<rscale>  0 0.13140261E+03</rscale>
<asrwt>0</asrwt>
<pdfrwt beam="2">  1        2 0.17684132E-01 0.13954786E+03</pdfrwt>
<pdfrwt beam="1">  1       -2 0.54064735E-01 0.13954786E+03</pdfrwt>
<totfact> 0.10321310E+03</totfact>
</mgrwt>
</event>
<event>
 8    2  0.1628804E-003  0.1655450E+03  0.7818608E-02  0.1189547E+00
         -2   -1    0    0    0  501 -0.00000000000E+00  0.00000000000E+00  0.22237691289E+03  0.22237691291E+03  0.25500000000E-02 0.  1.
          2   -1    0    0  501    0  0.00000000000E+00 -0.00000000000E+00 -0.22392612081E+03  0.22392612083E+03  0.25500000000E-02 0. -1.
         25    2    1    2    0    0 -0.10578123535E+03 -0.24306776990E+02 -0.16239683021E+03  0.23190054856E+03  0.12499857919E+03 0.  0.
         23    2    1    2    0    0  0.10578123535E+03  0.24306776990E+02  0.16084762229E+03  0.21440248518E+03  0.91191989199E+02 0.  0.
        -11    1    4    4    0    0  0.10211081506E+03 -0.11302484400E+02  0.97476574706E+02  0.14161937481E+03  0.51100000000E-03 0.  1.
         11    1    4    4    0    0  0.36704202866E+01  0.35609261390E+02  0.63371047588E+02  0.72783110365E+02  0.51100000000E-03 0. -1.
    9000005    1    3    3    0    0 -0.10245876862E+03  0.32445248787E+02 -0.11916399210E+03  0.16047289630E+03  0.10000000000E+01 0.  0.
    9000005    1    3    3    0    0 -0.33224667298E+01 -0.56752025777E+02 -0.43232838114E+02  0.71427652253E+02  0.10000000000E+01 0.  0.
<mgrwt>
<rscale>  0 0.15924908E+03</rscale>
<asrwt>0</asrwt>
<pdfrwt beam="2">  1        2 0.34450173E-01 0.16554496E+03</pdfrwt>
<pdfrwt beam="1">  1       -2 0.34211833E-01 0.16554496E+03</pdfrwt>
<totfact> 0.11940535E+03</totfact>
</mgrwt>
</event>
<event>
 8    2  0.1628804E-003  0.1348385E+03  0.7818608E-02  0.1233573E+00
          2   -1    0    0  501    0  0.00000000000E+00  0.00000000000E+00  0.30241033224E+04  0.30241033224E+04  0.25500000000E-02 0. -1.
         -2   -1    0    0    0  501 -0.00000000000E+00 -0.00000000000E+00 -0.48274180341E+01  0.48274187076E+01  0.25500000000E-02 0.  1.
         25    2    1    2    0    0 -0.21030294751E+02  0.45985090620E+02  0.19831214520E+04  0.19877002084E+04  0.12499809214E+03 0.  0.
         23    2    1    2    0    0  0.21030294751E+02 -0.45985090620E+02  0.10361544523E+04  0.10412305327E+04  0.89376010947E+02 0.  0.
        -11    1    4    4    0    0 -0.21164949877E+02  0.11964712084E+02  0.45867437094E+03  0.45931828615E+03  0.51100000000E-03 0. -1.
         11    1    4    4    0    0  0.42195244628E+02 -0.57949802704E+02  0.57748008134E+03  0.58191224652E+03  0.51100000000E-03 0.  1.
    9000005    1    3    3    0    0  0.38223435060E+02 -0.14142754899E+02  0.10427682035E+04  0.10435648398E+04  0.10000000000E+01 0.  0.
    9000005    1    3    3    0    0 -0.59253729812E+02  0.60127845519E+02  0.94035324853E+03  0.94413536864E+03  0.10000000000E+01 0.  0.
<mgrwt>
<rscale>  0 0.12596247E+03</rscale>
<asrwt>0</asrwt>
<pdfrwt beam="1">  1        2 0.46524604E+00 0.13483851E+03</pdfrwt>
<pdfrwt beam="2">  1       -2 0.74268075E-03 0.13483851E+03</pdfrwt>
<totfact> 0.66357752E+03</totfact>
</mgrwt>
</event>
<event>
 8    2  0.1628804E-003  0.1282905E+03  0.7818608E-02  0.1245079E+00
         -2   -1    0    0    0  501 -0.00000000000E+00  0.00000000000E+00  0.63033724684E+01  0.63033729842E+01  0.25500000000E-02 0.  1.
          2   -1    0    0  501    0  0.00000000000E+00 -0.00000000000E+00 -0.19749513996E+04  0.19749513996E+04  0.25500000000E-02 0. -1.
         25    2    1    2    0    0 -0.10594483505E+02 -0.27053003100E+02 -0.10680856602E+04  0.10757627169E+04  0.12495734256E+03 0.  0.
         23    2    1    2    0    0  0.10594483505E+02  0.27053003100E+02 -0.90056236687E+03  0.90549205564E+03  0.89772925449E+02 0.  0.
        -11    1    4    4    0    0  0.16918159864E+02  0.52203168691E+02 -0.79104661514E+03  0.79294775507E+03  0.51100000000E-03 0. -1.
         11    1    4    4    0    0 -0.63236763592E+01 -0.25150165590E+02 -0.10951575174E+03  0.11254430057E+03  0.51100000000E-03 0.  1.
    9000005    1    3    3    0    0  0.36032627303E+02  0.17306716183E+01 -0.85437138101E+03  0.85513320725E+03  0.10000000000E+01 0.  0.
    9000005    1    3    3    0    0 -0.46627110809E+02 -0.28783674719E+02 -0.21371427923E+03  0.22062950967E+03  0.10000000000E+01 0.  0.
<mgrwt>
<rscale>  0 0.11880633E+03</rscale>
<asrwt>0</asrwt>
<pdfrwt beam="2">  1        2 0.30383818E+00 0.12829047E+03</pdfrwt>
<pdfrwt beam="1">  1       -2 0.96975122E-03 0.12829047E+03</pdfrwt>
<totfact> 0.16592275E+04</totfact>
</mgrwt>
</event>
<event>
 8    2  0.1628804E-003  0.1354293E+03  0.7818608E-02  0.1234242E+00
         -2   -1    0    0    0  501 -0.00000000000E+00  0.00000000000E+00  0.38955341990E+01  0.38955350336E+01  0.25500000000E-02 0. -1.
          2   -1    0    0  501    0  0.00000000000E+00 -0.00000000000E+00 -0.36079144855E+04  0.36079144855E+04  0.25500000000E-02 0.  1.
         25    2    1    2    0    0  0.16986520511E+02  0.49274581529E+02 -0.22834217320E+04  0.22874343490E+04  0.12499827397E+03 0.  0.
         23    2    1    2    0    0 -0.16986520511E+02 -0.49274581529E+02 -0.13205972193E+04  0.13243756715E+04  0.85307546527E+02 0.  0.
        -11    1    4    4    0    0 -0.20293524225E+02 -0.18330106261E+02 -0.11824644204E+04  0.11827805906E+04  0.51100000000E-03 0.  1.
         11    1    4    4    0    0  0.33070037137E+01 -0.30944475269E+02 -0.13813279882E+03  0.14159508090E+03  0.51100000000E-03 0. -1.
    9000005    1    3    3    0    0 -0.50576044429E+02  0.21156777179E+02 -0.62573905685E+03  0.62813685830E+03  0.10000000000E+01 0.  0.
    9000005    1    3    3    0    0  0.67562564940E+02  0.28117804350E+02 -0.16576826751E+04  0.16592974907E+04  0.10000000000E+01 0.  0.
<mgrwt>
<rscale>  0 0.12553111E+03</rscale>
<asrwt>0</asrwt>
<pdfrwt beam="2">  1        2 0.55506109E+00 0.13542930E+03</pdfrwt>
<pdfrwt beam="1">  1       -2 0.59931590E-03 0.13542930E+03</pdfrwt>
<totfact> 0.39102207E+03</totfact>
</mgrwt>
</event>
<event>
 8    2  0.1628804E-003  0.1686020E+03  0.7818608E-02  0.1186251E+00
         -2   -1    0    0    0  501 -0.00000000000E+00  0.00000000000E+00  0.17434737696E+02  0.17434737883E+02  0.25500000000E-02 0. -1.
          2   -1    0    0  501    0  0.00000000000E+00 -0.00000000000E+00 -0.14282581454E+04  0.14282581454E+04  0.25500000000E-02 0.  1.
         25    2    1    2    0    0 -0.95876743133E+02 -0.60073477239E+02 -0.66615754581E+03  0.68716264248E+03  0.12500179534E+03 0.  0.
         23    2    1    2    0    0  0.95876743133E+02  0.60073477239E+02 -0.74466586192E+03  0.75853024083E+03  0.89664417720E+02 0.  0.
        -11    1    4    4    0    0  0.76488174944E+02  0.43073455301E+01 -0.28610319856E+03  0.29618243425E+03  0.51100000000E-03 0. -1.
         11    1    4    4    0    0  0.19388568189E+02  0.55766131709E+02 -0.45856266337E+03  0.46234780659E+03  0.51100000000E-03 0.  1.
    9000005    1    3    3    0    0 -0.11344014426E+03 -0.87289954557E+01 -0.42436552178E+03  0.43935402327E+03  0.10000000000E+01 0.  0.
    9000005    1    3    3    0    0  0.17563401125E+02 -0.51344481783E+02 -0.24179202404E+03  0.24780861921E+03  0.10000000000E+01 0.  0.
<mgrwt>
<rscale>  0 0.16218529E+03</rscale>
<asrwt>0</asrwt>
<pdfrwt beam="2">  1        2 0.21973193E+00 0.16860196E+03</pdfrwt>
<pdfrwt beam="1">  1       -2 0.26822685E-02 0.16860196E+03</pdfrwt>
<totfact> 0.73608215E+03</totfact>
</mgrwt>
</event>
<event>
 8    2  0.1628804E-003  0.1634464E+03  0.7818608E-02  0.1192293E+00
          2   -1    0    0  501    0  0.00000000000E+00  0.00000000000E+00  0.78942431920E+03  0.78942431921E+03  0.25500000000E-02 0. -1.
         -2   -1    0    0    0  501 -0.00000000000E+00 -0.00000000000E+00 -0.61342223249E+02  0.61342223302E+02  0.25500000000E-02 0.  1.
         25    2    1    2    0    0 -0.11013668519E+02  0.10472352156E+03  0.68699465430E+03  0.70617021609E+03  0.12500560865E+03 0.  0.
         23    2    1    2    0    0  0.11013668519E+02 -0.10472352156E+03  0.41087441659E+02  0.14459632642E+03  0.90175400703E+02 0.  0.
        -11    1    4    4    0    0  0.38517770250E+02 -0.43207377528E+02 -0.11629994595E+02  0.59040264840E+02  0.51100000000E-03 0.  1.
         11    1    4    4    0    0 -0.27504101732E+02 -0.61516144029E+02  0.52717436255E+02  0.85556061584E+02  0.51100000000E-03 0. -1.
    9000005    1    3    3    0    0 -0.34731113175E+02 -0.16164420692E+02  0.12101587675E+03  0.12693849355E+03  0.10000000000E+01 0.  0.
    9000005    1    3    3    0    0  0.23717444656E+02  0.12088794225E+03  0.56597877754E+03  0.57923172254E+03  0.10000000000E+01 0.  0.
<mgrwt>
<rscale>  0 0.15685574E+03</rscale>
<asrwt>0</asrwt>
<pdfrwt beam="1">  1        2 0.12144990E+00 0.16344638E+03</pdfrwt>
<pdfrwt beam="2">  1       -2 0.94372647E-02 0.16344638E+03</pdfrwt>
<totfact> 0.25952117E+03</totfact>
</mgrwt>
</event>
<event>
 8    2  0.1628804E-003  0.1302566E+03  0.7818608E-02  0.1242201E+00
         -2   -1    0    0    0  501 -0.00000000000E+00  0.00000000000E+00  0.76965438340E+01  0.76965442565E+01  0.25500000000E-02 0.  1.
          2   -1    0    0  501    0  0.00000000000E+00 -0.00000000000E+00 -0.19960273476E+04  0.19960273476E+04  0.25500000000E-02 0. -1.
         25    2    1    2    0    0  0.29609652340E+02  0.21541820348E+02 -0.71160983229E+03  0.72343301643E+03  0.12500397719E+03 0.  0.
         23    2    1    2    0    0 -0.29609652340E+02 -0.21541820348E+02 -0.12767209715E+04  0.12802908754E+04  0.88246842226E+02 0.  0.
        -11    1    4    4    0    0  0.27777279590E+02  0.46888513305E+01 -0.59165702848E+03  0.59232727604E+03  0.51100000000E-03 0. -1.
         11    1    4    4    0    0 -0.57386931930E+02 -0.26230671679E+02 -0.68506394299E+03  0.68796359938E+03  0.51100000000E-03 0.  1.
    9000005    1    3    3    0    0  0.42385631770E+02  0.34863597350E+02 -0.12487013235E+03  0.13640220729E+03  0.10000000000E+01 0.  0.
    9000005    1    3    3    0    0 -0.12775979430E+02 -0.13321777002E+02 -0.58673969994E+03  0.58703080914E+03  0.10000000000E+01 0.  0.
<mgrwt>
<rscale>  0 0.12054478E+03</rscale>
<asrwt>0</asrwt>
<pdfrwt beam="2">  1        2 0.30708072E+00 0.13025658E+03</pdfrwt>
<pdfrwt beam="1">  1       -2 0.11840853E-02 0.13025658E+03</pdfrwt>
<totfact> 0.12171686E+04</totfact>
</mgrwt>
</event>
<event>
 8    2  0.1628804E-003  0.1389563E+03  0.7818608E-02  0.1225993E+00
          2   -1    0    0  501    0  0.00000000000E+00  0.00000000000E+00  0.76469004667E+03  0.76469004668E+03  0.25500000000E-02 0. -1.
         -2   -1    0    0    0  501 -0.00000000000E+00 -0.00000000000E+00 -0.20382893031E+02  0.20382893191E+02  0.25500000000E-02 0.  1.
         25    2    1    2    0    0 -0.60601248849E+02 -0.33461431547E+01  0.45049539523E+03  0.47143924667E+03  0.12500061657E+03 0.  0.
         23    2    1    2    0    0  0.60601248849E+02  0.33461431547E+01  0.29381175841E+03  0.31363369320E+03  0.91416826086E+02 0.  0.
        -11    1    4    4    0    0  0.18059546015E+02  0.24635581245E+02  0.21883937540E+02  0.37576133224E+02  0.51100000000E-03 0.  1.
         11    1    4    4    0    0  0.42541702834E+02 -0.21289438090E+02  0.27192782087E+03  0.27605755997E+03  0.51100000000E-03 0. -1.
    9000005    1    3    3    0    0 -0.96067278409E+02 -0.54592832611E+01  0.25122123546E+03  0.26902013847E+03  0.10000000000E+01 0.  0.
    9000005    1    3    3    0    0  0.35466029560E+02  0.21131401064E+01  0.19927415977E+03  0.20241910821E+03  0.10000000000E+01 0.  0.
<mgrwt>
<rscale>  0 0.13099069E+03</rscale>
<asrwt>0</asrwt>
<pdfrwt beam="1">  1        2 0.11764460E+00 0.13895633E+03</pdfrwt>
<pdfrwt beam="2">  1       -2 0.31358303E-02 0.13895633E+03</pdfrwt>
<totfact> 0.14222839E+04</totfact>
</mgrwt>
</event>
<event>
 8    2  0.1628804E-003  0.2122616E+03  0.7818608E-02  0.1143387E+00
          2   -1    0    0  501    0  0.00000000000E+00  0.00000000000E+00  0.82308811510E+03  0.82308811510E+03  0.25500000000E-02 0. -1.
         -2   -1    0    0    0  501 -0.00000000000E+00 -0.00000000000E+00 -0.51236041653E+02  0.51236041717E+02  0.25500000000E-02 0.  1.
         25    2    1    2    0    0  0.92397533759E+02  0.14454453308E+03  0.46154651831E+03  0.50801591277E+03  0.12499821111E+03 0.  0.
         23    2    1    2    0    0 -0.92397533759E+02 -0.14454453308E+03  0.31030555513E+03  0.36630824404E+03  0.91987856916E+02 0.  0.
        -11    1    4    4    0    0 -0.12074610569E+02 -0.74191392303E+02  0.67360087871E+02  0.10093334608E+03  0.51100000000E-03 0. -1.
         11    1    4    4    0    0 -0.80322923190E+02 -0.70353140775E+02  0.24294546726E+03  0.26537489796E+03  0.51100000000E-03 0.  1.
    9000005    1    3    3    0    0 -0.15491032104E+01  0.97735146324E+01  0.19263213584E+03  0.19288872717E+03  0.10000000000E+01 0.  0.
    9000005    1    3    3    0    0  0.93946636969E+02  0.13477101845E+03  0.26891438247E+03  0.31512718561E+03  0.10000000000E+01 0.  0.
<mgrwt>
<rscale>  0 0.20771711E+03</rscale>
<asrwt>0</asrwt>
<pdfrwt beam="1">  1        2 0.12662895E+00 0.21226158E+03</pdfrwt>
<pdfrwt beam="2">  1       -2 0.78824675E-02 0.21226158E+03</pdfrwt>
<totfact> 0.32831929E+03</totfact>
</mgrwt>
</event>
<event>
 8    2  0.1628804E-003  0.5423348E+03  0.7818608E-02  0.1003688E+00
          2   -1    0    0  501    0  0.00000000000E+00  0.00000000000E+00  0.26227903996E+04  0.26227903996E+04  0.25500000000E-02 0.  1.
         -2   -1    0    0    0  501 -0.00000000000E+00 -0.00000000000E+00 -0.11085206877E+03  0.11085206880E+03  0.25500000000E-02 0. -1.
         25    2    1    2    0    0  0.43170052088E+03 -0.30354211688E+03  0.12203029891E+04  0.13353900063E+04  0.12499570945E+03 0.  0.
         23    2    1    2    0    0 -0.43170052088E+03  0.30354211688E+03  0.12916353417E+04  0.13982524620E+04  0.91021619373E+02 0.  0.
        -11    1    4    4    0    0 -0.21512674678E+03  0.19348145384E+03  0.77812026346E+03  0.83017211142E+03  0.51100000000E-03 0. -1.
         11    1    4    4    0    0 -0.21657377410E+03  0.11006066304E+03  0.51351507825E+03  0.56808035063E+03  0.51100000000E-03 0.  1.
    9000005    1    3    3    0    0  0.12179660850E+03 -0.15280190448E+03  0.50213060566E+03  0.53881256574E+03  0.10000000000E+01 0.  0.
    9000005    1    3    3    0    0  0.30990391238E+03 -0.15074021240E+03  0.71817238340E+03  0.79657744057E+03  0.10000000000E+01 0.  0.
<mgrwt>
<rscale>  0 0.54062456E+03</rscale>
<asrwt>0</asrwt>
<pdfrwt beam="1">  1        2 0.40350616E+00 0.54233484E+03</pdfrwt>
<pdfrwt beam="2">  1       -2 0.17054167E-01 0.54233484E+03</pdfrwt>
<totfact> 0.89206095E+01</totfact>
</mgrwt>
</event>
<event>
 8    2  0.1628804E-003  0.1704575E+03  0.7818608E-02  0.1183126E+00
         -2   -1    0    0    0  501 -0.00000000000E+00  0.00000000000E+00  0.18296913406E+02  0.18296913583E+02  0.25500000000E-02 0.  1.
          2   -1    0    0  501    0  0.00000000000E+00 -0.00000000000E+00 -0.14441115772E+04  0.14441115772E+04  0.25500000000E-02 0. -1.
         25    2    1    2    0    0 -0.11240100099E+03 -0.28229155234E+02 -0.63182964939E+03  0.65441917413E+03  0.12499951759E+03 0.  0.
         23    2    1    2    0    0  0.11240100099E+03  0.28229155234E+02 -0.79398501445E+03  0.80798931670E+03  0.94887630880E+02 0.  0.
        -11    1    4    4    0    0  0.74893917635E+02  0.40980896332E+02 -0.28621683985E+03  0.29867810796E+03  0.51100000000E-03 0.  1.
         11    1    4    4    0    0  0.37507083358E+02 -0.12751741098E+02 -0.50776817461E+03  0.50931120874E+03  0.51100000000E-03 0. -1.
    9000005    1    3    3    0    0 -0.79432361502E+02 -0.13640304487E+02 -0.60268055148E+03  0.60804638400E+03  0.10000000000E+01 0.  0.
    9000005    1    3    3    0    0 -0.32968639491E+02 -0.14588850747E+02 -0.29149097904E+02  0.46372790132E+02  0.10000000000E+01 0.  0.
<mgrwt>
<rscale>  0 0.16503523E+03</rscale>
<asrwt>0</asrwt>
<pdfrwt beam="2">  1        2 0.22217092E+00 0.17045747E+03</pdfrwt>
<pdfrwt beam="1">  1       -2 0.28149109E-02 0.17045747E+03</pdfrwt>
<totfact> 0.67262520E+03</totfact>
</mgrwt>
</event>
<event>
 8    2  0.1628804E-003  0.1381007E+03  0.7818608E-02  0.1227352E+00
         -2   -1    0    0    0  501 -0.00000000000E+00  0.00000000000E+00  0.14442283129E+02  0.14442283354E+02  0.25500000000E-02 0.  1.
          2   -1    0    0  501    0  0.00000000000E+00 -0.00000000000E+00 -0.10543015341E+04  0.10543015341E+04  0.25500000000E-02 0. -1.
         25    2    1    2    0    0  0.54183235029E+02 -0.22643689631E+02 -0.57565073746E+03  0.59198444244E+03  0.12499299547E+03 0.  0.
         23    2    1    2    0    0 -0.54183235029E+02  0.22643689631E+02 -0.46420851356E+03  0.47675937506E+03  0.91440680291E+02 0.  0.
        -11    1    4    4    0    0 -0.45930024189E+02 -0.26786998312E+01 -0.43422321224E+03  0.43665379948E+03  0.51100000000E-03 0. -1.
         11    1    4    4    0    0 -0.82532108397E+01  0.25322389462E+02 -0.29985301321E+02  0.40105575582E+02  0.51100000000E-03 0.  1.
    9000005    1    3    3    0    0  0.55768984363E+02 -0.68270056565E+02 -0.44319437837E+03  0.45187745824E+03  0.10000000000E+01 0.  0.
    9000005    1    3    3    0    0 -0.15857493345E+01  0.45626366935E+02 -0.13245635909E+03  0.14010698421E+03  0.10000000000E+01 0.  0.
<mgrwt>
<rscale>  0 0.13007026E+03</rscale>
<asrwt>0</asrwt>
<pdfrwt beam="2">  1        2 0.16220018E+00 0.13810072E+03</pdfrwt>
<pdfrwt beam="1">  1       -2 0.22218906E-02 0.13810072E+03</pdfrwt>
<totfact> 0.15455070E+04</totfact>
</mgrwt>
</event>
<event>
 8    2  0.1628804E-003  0.1333389E+03  0.7818608E-02  0.1236075E+00
         -2   -1    0    0    0  501 -0.00000000000E+00  0.00000000000E+00  0.90957603563E+02  0.90957603599E+02  0.25500000000E-02 0.  1.
          2   -1    0    0  501    0  0.00000000000E+00 -0.00000000000E+00 -0.23912719291E+03  0.23912719293E+03  0.25500000000E-02 0. -1.
         25    2    1    2    0    0 -0.44366981322E+02  0.13625141385E+02  0.19146223175E+02  0.13470648933E+03  0.12500074758E+03 0.  0.
         23    2    1    2    0    0  0.44366981322E+02 -0.13625141385E+02 -0.16731581252E+03  0.19537830720E+03  0.89576940630E+02 0.  0.
        -11    1    4    4    0    0  0.17608896690E+02 -0.29049848184E+02 -0.10508626853E+02  0.35558376801E+02  0.51100000000E-03 0.  1.
         11    1    4    4    0    0  0.26758084633E+02  0.15424706798E+02 -0.15680718567E+03  0.15981993039E+03  0.51100000000E-03 0. -1.
    9000005    1    3    3    0    0 -0.99110620972E+01  0.63424673812E+02 -0.13932184716E+02  0.65696454782E+02  0.10000000000E+01 0.  0.
    9000005    1    3    3    0    0 -0.34455919225E+02 -0.49799532426E+02  0.33078407891E+02  0.69010034547E+02  0.10000000000E+01 0.  0.
<mgrwt>
<rscale>  0 0.12435865E+03</rscale>
<asrwt>0</asrwt>
<pdfrwt beam="2">  1        2 0.36788799E-01 0.13333889E+03</pdfrwt>
<pdfrwt beam="1">  1       -2 0.13993478E-01 0.13333889E+03</pdfrwt>
<totfact> 0.51412491E+03</totfact>
</mgrwt>
</event>
<event>
 8    2  0.1628804E-003  0.1322480E+03  0.7818608E-02  0.1236945E+00
         -2   -1    0    0    0  501 -0.00000000000E+00  0.00000000000E+00  0.17839647780E+02  0.17839647962E+02  0.25500000000E-02 0.  1.
          2   -1    0    0  501    0  0.00000000000E+00 -0.00000000000E+00 -0.93182424334E+03  0.93182424334E+03  0.25500000000E-02 0. -1.
         25    2    1    2    0    0  0.35302345286E+02 -0.24839781466E+02 -0.30752184308E+03  0.33475247701E+03  0.12500506615E+03 0.  0.
         23    2    1    2    0    0 -0.35302345286E+02  0.24839781466E+02 -0.60646275248E+03  0.61491141430E+03  0.91954918122E+02 0.  0.
        -11    1    4    4    0    0  0.19724486483E+02  0.39896709165E+02 -0.25882931912E+03  0.26262791018E+03  0.51100000000E-03 0.  1.
         11    1    4    4    0    0 -0.55026831768E+02 -0.15056927699E+02 -0.34763343336E+03  0.35228350412E+03  0.51100000000E-03 0. -1.
    9000005    1    3    3    0    0  0.29890238684E+01 -0.71038307621E+02 -0.12606835548E+03  0.14473978605E+03  0.10000000000E+01 0.  0.
    9000005    1    3    3    0    0  0.32313321417E+02  0.46198526154E+02 -0.18145348761E+03  0.19001269096E+03  0.10000000000E+01 0.  0.
<mgrwt>
<rscale>  0 0.12380736E+03</rscale>
<asrwt>0</asrwt>
<pdfrwt beam="2">  1        2 0.14335754E+00 0.13224801E+03</pdfrwt>
<pdfrwt beam="1">  1       -2 0.27445619E-02 0.13224801E+03</pdfrwt>
<totfact> 0.13407010E+04</totfact>
</mgrwt>
</event>
<event>
 8    2  0.1628804E-003  0.1567495E+03  0.7818608E-02  0.1200608E+00
          2   -1    0    0  501    0  0.00000000000E+00  0.00000000000E+00  0.22420730127E+02  0.22420730272E+02  0.25500000000E-02 0. -1.
         -2   -1    0    0    0  501 -0.00000000000E+00 -0.00000000000E+00 -0.10771964388E+04  0.10771964388E+04  0.25500000000E-02 0.  1.
         25    2    1    2    0    0 -0.76882824271E+02  0.55087766428E+02 -0.77462994009E+03  0.79033027408E+03  0.12499906948E+03 0.  0.
         23    2    1    2    0    0  0.76882824271E+02 -0.55087766428E+02 -0.28014576858E+03  0.30928689498E+03  0.90725415846E+02 0.  0.
        -11    1    4    4    0    0 -0.13928096871E-01 -0.52705708276E+02 -0.92142853258E+02  0.10615176534E+03  0.51100000000E-03 0. -1.
         11    1    4    4    0    0  0.76896752368E+02 -0.23820581516E+01 -0.18800291532E+03  0.20313512964E+03  0.51100000000E-03 0.  1.
    9000005    1    3    3    0    0 -0.12921082811E+02 -0.39772112135E+02 -0.23664963660E+03  0.24031817615E+03  0.10000000000E+01 0.  0.
    9000005    1    3    3    0    0 -0.63961741460E+02  0.94859878563E+02 -0.53798030348E+03  0.55001209793E+03  0.10000000000E+01 0.  0.
<mgrwt>
<rscale>  0 0.14988982E+03</rscale>
<asrwt>0</asrwt>
<pdfrwt beam="1">  1        2 0.34493439E-02 0.15674948E+03</pdfrwt>
<pdfrwt beam="2">  1       -2 0.16572249E+00 0.15674948E+03</pdfrwt>
<totfact> 0.61964528E+02</totfact>
</mgrwt>
</event>
<event>
 8    2  0.1628804E-003  0.1860332E+03  0.7818608E-02  0.1165211E+00
          2   -1    0    0  501    0  0.00000000000E+00  0.00000000000E+00  0.37529331465E+04  0.37529331465E+04  0.25500000000E-02 0. -1.
         -2   -1    0    0    0  501 -0.00000000000E+00 -0.00000000000E+00 -0.89986042351E+01  0.89986045964E+01  0.25500000000E-02 0.  1.
         25    2    1    2    0    0  0.13776934418E+03  0.16127289177E+01  0.15360739874E+04  0.15472981795E+04  0.12500147389E+03 0.  0.
         23    2    1    2    0    0 -0.13776934418E+03 -0.16127289177E+01  0.22078605549E+04  0.22146335716E+04  0.10474079224E+03 0.  0.
        -11    1    4    4    0    0 -0.15122563440E+02 -0.14262231660E+02  0.65311181228E+02  0.68539430772E+02  0.51100000000E-03 0.  1.
         11    1    4    4    0    0 -0.12264678074E+03  0.12649502743E+02  0.21425493737E+04  0.21460941409E+04  0.51100000000E-03 0. -1.
    9000005    1    3    3    0    0  0.13607603097E+03  0.44145339883E+02  0.11396494360E+04  0.11485936331E+04  0.10000000000E+01 0.  0.
    9000005    1    3    3    0    0  0.16933132104E+01 -0.42532610966E+02  0.39642455144E+03  0.39870454636E+03  0.10000000000E+01 0.  0.
<mgrwt>
<rscale>  0 0.18270443E+03</rscale>
<asrwt>0</asrwt>
<pdfrwt beam="1">  1        2 0.57737435E+00 0.18603323E+03</pdfrwt>
<pdfrwt beam="2">  1       -2 0.13844006E-02 0.18603323E+03</pdfrwt>
<totfact> 0.92459730E+02</totfact>
</mgrwt>
</event>
<event>
 8    2  0.1628804E-003  0.1576865E+03  0.7818608E-02  0.1197039E+00
         -2   -1    0    0    0  501 -0.00000000000E+00  0.00000000000E+00  0.28339003936E+02  0.28339004050E+02  0.25500000000E-02 0.  1.
          2   -1    0    0  501    0  0.00000000000E+00 -0.00000000000E+00 -0.78298231769E+03  0.78298231769E+03  0.25500000000E-02 0. -1.
         25    2    1    2    0    0 -0.45259960577E+02 -0.84802585442E+02 -0.36603729910E+03  0.39855781939E+03  0.12500035415E+03 0.  0.
         23    2    1    2    0    0  0.45259960577E+02  0.84802585442E+02 -0.38860601465E+03  0.41276350235E+03  0.10059389503E+03 0.  0.
        -11    1    4    4    0    0  0.31938602231E+01 -0.18783374345E+02 -0.20205550763E+02  0.27771931456E+02  0.51100000000E-03 0.  1.
         11    1    4    4    0    0  0.42066100354E+02  0.10358595979E+03 -0.36840046389E+03  0.38499157089E+03  0.51100000000E-03 0. -1.
    9000005    1    3    3    0    0 -0.14588976374E+02 -0.11704998079E+02  0.48041232099E+01  0.19337135556E+02  0.10000000000E+01 0.  0.
    9000005    1    3    3    0    0 -0.30670984203E+02 -0.73097587363E+02 -0.37084142231E+03  0.37922068384E+03  0.10000000000E+01 0.  0.
<mgrwt>
<rscale>  0 0.15282924E+03</rscale>
<asrwt>0</asrwt>
<pdfrwt beam="2">  1        2 0.12045880E+00 0.15768650E+03</pdfrwt>
<pdfrwt beam="1">  1       -2 0.43598474E-02 0.15768650E+03</pdfrwt>
<totfact> 0.85357395E+03</totfact>
</mgrwt>
</event>
<event>
 8    2  0.1628804E-003  0.1260281E+03  0.7818608E-02  0.1249568E+00
         -2   -1    0    0    0  501 -0.00000000000E+00  0.00000000000E+00  0.18783048844E+02  0.18783049017E+02  0.25500000000E-02 0.  1.
          2   -1    0    0  501    0  0.00000000000E+00 -0.00000000000E+00 -0.72632399915E+03  0.72632399915E+03  0.25500000000E-02 0. -1.
         25    2    1    2    0    0  0.16105819388E+01  0.15982006528E+02 -0.26666717240E+03  0.29494822976E+03  0.12500023559E+03 0.  0.
         23    2    1    2    0    0 -0.16105819388E+01 -0.15982006528E+02 -0.44087377791E+03  0.45015881841E+03  0.89527957869E+02 0.  0.
        -11    1    4    4    0    0  0.39165534636E+02 -0.23781515571E+02 -0.29326695196E+03  0.29682487211E+03  0.51100000000E-03 0. -1.
         11    1    4    4    0    0 -0.40776116575E+02  0.77995090425E+01 -0.14760682594E+03  0.15333394630E+03  0.51100000000E-03 0.  1.
    9000005    1    3    3    0    0 -0.55565487195E+02 -0.13449694793E+02 -0.86913990436E+02  0.10403585627E+03  0.10000000000E+01 0.  0.
    9000005    1    3    3    0    0  0.57176069134E+02  0.29431701322E+02 -0.17975318196E+03  0.19091237349E+03  0.10000000000E+01 0.  0.
<mgrwt>
<rscale>  0 0.11616095E+03</rscale>
<asrwt>0</asrwt>
<pdfrwt beam="2">  1        2 0.11174213E+00 0.12602808E+03</pdfrwt>
<pdfrwt beam="1">  1       -2 0.28897004E-02 0.12602808E+03</pdfrwt>
<totfact> 0.16945800E+04</totfact>
</mgrwt>
</event>
<event>
 8    2  0.1628804E-003  0.1421760E+03  0.7818608E-02  0.1221598E+00
         -2   -1    0    0    0  501 -0.00000000000E+00  0.00000000000E+00  0.37479597970E+02  0.37479598057E+02  0.25500000000E-02 0.  1.
          2   -1    0    0  501    0  0.00000000000E+00 -0.00000000000E+00 -0.58943833508E+03  0.58943833508E+03  0.25500000000E-02 0. -1.
         25    2    1    2    0    0  0.38173407079E+02 -0.55957005729E+02 -0.46096959589E+03  0.48239713513E+03  0.12500252854E+03 0.  0.
         23    2    1    2    0    0 -0.38173407079E+02  0.55957005729E+02 -0.90989141210E+02  0.14452079801E+03  0.89547985689E+02 0.  0.
        -11    1    4    4    0    0 -0.61483152858E+02  0.33570443253E+02 -0.31474464216E+02  0.76797100489E+02  0.51100000000E-03 0.  1.
         11    1    4    4    0    0  0.23309745779E+02  0.22386562476E+02 -0.59514676995E+02  0.67723697520E+02  0.51100000000E-03 0. -1.
    9000005    1    3    3    0    0  0.81253525225E+02 -0.39532689057E+02 -0.23512315666E+03  0.25189058669E+03  0.10000000000E+01 0.  0.
    9000005    1    3    3    0    0 -0.43080118146E+02 -0.16424316672E+02 -0.22584643924E+03  0.23050654844E+03  0.10000000000E+01 0.  0.
<mgrwt>
<rscale>  0 0.13402855E+03</rscale>
<asrwt>0</asrwt>
<pdfrwt beam="2">  1        2 0.90682814E-01 0.14217604E+03</pdfrwt>
<pdfrwt beam="1">  1       -2 0.57660924E-02 0.14217604E+03</pdfrwt>
<totfact> 0.77954711E+03</totfact>
</mgrwt>
</event>
<event>
 8    2  0.1628804E-003  0.1434442E+03  0.7818608E-02  0.1218977E+00
          2   -1    0    0  501    0  0.00000000000E+00  0.00000000000E+00  0.40880790345E+03  0.40880790346E+03  0.25500000000E-02 0.  1.
         -2   -1    0    0    0  501 -0.00000000000E+00 -0.00000000000E+00 -0.43350472041E+02  0.43350472116E+02  0.25500000000E-02 0. -1.
         25    2    1    2    0    0 -0.52644929994E+02 -0.46686267770E+02  0.25363854917E+03  0.29139104742E+03  0.12500053056E+03 0.  0.
         23    2    1    2    0    0  0.52644929994E+02  0.46686267770E+02  0.11181888224E+03  0.16076732815E+03  0.91605540900E+02 0.  0.
        -11    1    4    4    0    0 -0.53226529707E+01  0.44379536672E+02  0.13645433614E+02  0.46734053629E+02  0.51100000000E-03 0. -1.
         11    1    4    4    0    0  0.57967582965E+02  0.23067310981E+01  0.98173448625E+02  0.11403327452E+03  0.51100000000E-03 0.  1.
    9000005    1    3    3    0    0 -0.32880877158E+02  0.19806865934E+02  0.12363511835E+02  0.40340060061E+02  0.10000000000E+01 0.  0.
    9000005    1    3    3    0    0 -0.19764052837E+02 -0.66493133704E+02  0.24127503733E+03  0.25105098736E+03  0.10000000000E+01 0.  0.
<mgrwt>
<rscale>  0 0.13588375E+03</rscale>
<asrwt>0</asrwt>
<pdfrwt beam="1">  1        2 0.62893524E-01 0.14344417E+03</pdfrwt>
<pdfrwt beam="2">  1       -2 0.66693034E-02 0.14344417E+03</pdfrwt>
<totfact> 0.93462864E+03</totfact>
</mgrwt>
</event>
<event>
 8    2  0.1628804E-003  0.1395802E+03  0.7818608E-02  0.1225155E+00
         -2   -1    0    0    0  501 -0.00000000000E+00  0.00000000000E+00  0.36184870289E+02  0.36184870378E+02  0.25500000000E-02 0.  1.
          2   -1    0    0  501    0  0.00000000000E+00 -0.00000000000E+00 -0.43207225801E+03  0.43207225801E+03  0.25500000000E-02 0. -1.
         25    2    1    2    0    0  0.33292053489E+02 -0.52434883490E+02 -0.20932397642E+03  0.25159326068E+03  0.12499945553E+03 0.  0.
         23    2    1    2    0    0 -0.33292053489E+02  0.52434883490E+02 -0.18656341130E+03  0.21666386771E+03  0.90992017816E+02 0.  0.
        -11    1    4    4    0    0 -0.64186604770E+02  0.41977259983E+02 -0.11793952070E+03  0.14068312312E+03  0.51100000000E-03 0.  1.
         11    1    4    4    0    0  0.30894551280E+02  0.10457623507E+02 -0.68623890600E+02  0.75980744597E+02  0.51100000000E-03 0. -1.
    9000005    1    3    3    0    0  0.28423130716E+02 -0.10948485556E+01 -0.19635591556E+03  0.19840796009E+03  0.10000000000E+01 0.  0.
    9000005    1    3    3    0    0  0.48689227735E+01 -0.51340034935E+02 -0.12968060865E+02  0.53185300588E+02  0.10000000000E+01 0.  0.
<mgrwt>
<rscale>  0 0.13156286E+03</rscale>
<asrwt>0</asrwt>
<pdfrwt beam="2">  1        2 0.66472651E-01 0.13958023E+03</pdfrwt>
<pdfrwt beam="1">  1       -2 0.55669034E-02 0.13958023E+03</pdfrwt>
<totfact> 0.11565618E+04</totfact>
</mgrwt>
</event>
<event>
 8    2  0.1628804E-003  0.1273698E+03  0.7818608E-02  0.1246194E+00
          2   -1    0    0  501    0  0.00000000000E+00  0.00000000000E+00  0.10452117788E+04  0.10452117788E+04  0.25500000000E-02 0. -1.
         -2   -1    0    0    0  501 -0.00000000000E+00 -0.00000000000E+00 -0.14728218728E+02  0.14728218949E+02  0.25500000000E-02 0.  1.
         25    2    1    2    0    0  0.24540544794E+01  0.24344434177E+02  0.81276528326E+03  0.82268491934E+03  0.12499758788E+03 0.  0.
         23    2    1    2    0    0 -0.24540544794E+01 -0.24344434177E+02  0.21771827679E+03  0.23725507839E+03  0.91049713426E+02 0.  0.
        -11    1    4    4    0    0  0.69454912556E+01  0.27484924850E+02  0.26118776897E+02  0.38546743697E+02  0.51100000000E-03 0.  1.
         11    1    4    4    0    0 -0.93995457350E+01 -0.51829359027E+02  0.19159949989E+03  0.19870833469E+03  0.51100000000E-03 0. -1.
    9000005    1    3    3    0    0  0.14876999431E+02 -0.40689559416E+02  0.13717771268E+03  0.14385996738E+03  0.10000000000E+01 0.  0.
    9000005    1    3    3    0    0 -0.12422944952E+02  0.65033993593E+02  0.67558757059E+03  0.67882495197E+03  0.10000000000E+01 0.  0.
<mgrwt>
<rscale>  0 0.11814214E+03</rscale>
<asrwt>0</asrwt>
<pdfrwt beam="1">  1        2 0.16080181E+00 0.12736982E+03</pdfrwt>
<pdfrwt beam="2">  1       -2 0.22658798E-02 0.12736982E+03</pdfrwt>
<totfact> 0.15124733E+04</totfact>
</mgrwt>
</event>
<event>
 8    2  0.1628804E-003  0.1710069E+03  0.7818608E-02  0.1183420E+00
          2   -1    0    0  501    0  0.00000000000E+00  0.00000000000E+00  0.69055460116E+03  0.69055460116E+03  0.25500000000E-02 0. -1.
         -2   -1    0    0    0  501 -0.00000000000E+00 -0.00000000000E+00 -0.39467848955E+02  0.39467849037E+02  0.25500000000E-02 0.  1.
         25    2    1    2    0    0  0.34502502572E+02  0.11151977629E+03  0.44447830409E+03  0.47623976132E+03  0.12496505219E+03 0.  0.
         23    2    1    2    0    0 -0.34502502572E+02 -0.11151977629E+03  0.20660844811E+03  0.25378268888E+03  0.89952871863E+02 0.  0.
        -11    1    4    4    0    0  0.26771539156E+02 -0.65080748904E+02  0.93699552419E+02  0.11718287123E+03  0.51100000000E-03 0.  1.
         11    1    4    4    0    0 -0.61274041728E+02 -0.46439027385E+02  0.11290889569E+03  0.13659981765E+03  0.51100000000E-03 0. -1.
    9000005    1    3    3    0    0  0.33113273242E+02 -0.18838001265E+02  0.13845909871E+03  0.14360808185E+03  0.10000000000E+01 0.  0.
    9000005    1    3    3    0    0  0.13892293294E+01  0.13035777755E+03  0.30601920538E+03  0.33263167947E+03  0.10000000000E+01 0.  0.
<mgrwt>
<rscale>  0 0.16476469E+03</rscale>
<asrwt>0</asrwt>
<pdfrwt beam="1">  1        2 0.10623916E+00 0.17100686E+03</pdfrwt>
<pdfrwt beam="2">  1       -2 0.60719771E-02 0.17100686E+03</pdfrwt>
<totfact> 0.60528406E+03</totfact>
</mgrwt>
</event>
<event>
 8    2  0.1628804E-003  0.1705616E+03  0.7818608E-02  0.1182995E+00
          2   -1    0    0  501    0  0.00000000000E+00  0.00000000000E+00  0.21134260325E+04  0.21134260325E+04  0.25500000000E-02 0. -1.
         -2   -1    0    0    0  501 -0.00000000000E+00 -0.00000000000E+00 -0.12555314204E+02  0.12555314463E+02  0.25500000000E-02 0.  1.
         25    2    1    2    0    0 -0.51853593984E+02 -0.10381560740E+03  0.13060406497E+04  0.13171307570E+04  0.12499910648E+03 0.  0.
         23    2    1    2    0    0  0.51853593984E+02  0.10381560740E+03  0.79483006856E+03  0.80885059000E+03  0.94962958639E+02 0.  0.
        -11    1    4    4    0    0 -0.35862836320E+01  0.76081862543E+01  0.24955785104E+01  0.87734736981E+01  0.51100000000E-03 0.  1.
         11    1    4    4    0    0  0.55439877615E+02  0.96207421143E+02  0.79233449005E+03  0.80007711630E+03  0.51100000000E-03 0. -1.
    9000005    1    3    3    0    0  0.27357739567E+02  0.56813823512E+01  0.41035292405E+03  0.41130432322E+03  0.10000000000E+01 0.  0.
    9000005    1    3    3    0    0 -0.79211333551E+02 -0.10949698975E+03  0.89568772568E+03  0.90582643373E+03  0.10000000000E+01 0.  0.
<mgrwt>
<rscale>  0 0.16515669E+03</rscale>
<asrwt>0</asrwt>
<pdfrwt beam="1">  1        2 0.32514264E+00 0.17056158E+03</pdfrwt>
<pdfrwt beam="2">  1       -2 0.19315858E-02 0.17056158E+03</pdfrwt>
<totfact> 0.52515923E+03</totfact>
</mgrwt>
</event>
<event>
 8    2  0.1628804E-003  0.1354040E+03  0.7818608E-02  0.1230964E+00
          2   -1    0    0  501    0  0.00000000000E+00  0.00000000000E+00  0.17163831434E+03  0.17163831436E+03  0.25500000000E-02 0. -1.
         -2   -1    0    0    0  501 -0.00000000000E+00 -0.00000000000E+00 -0.86427314790E+02  0.86427314828E+02  0.25500000000E-02 0.  1.
         25    2    1    2    0    0 -0.47769711050E+02  0.20667031432E+02  0.34901660814E+02  0.13982976973E+03  0.12500066837E+03 0.  0.
         23    2    1    2    0    0  0.47769711050E+02 -0.20667031432E+02  0.50309338740E+02  0.11823585946E+03  0.93485920954E+02 0.  0.
        -11    1    4    4    0    0  0.35109175145E+02 -0.85562133432E+00 -0.22510461514E+02  0.41714591513E+02  0.51100000000E-03 0.  1.
         11    1    4    4    0    0  0.12660535905E+02 -0.19811410098E+02  0.72819800254E+02  0.76521267951E+02  0.51100000000E-03 0. -1.
    9000005    1    3    3    0    0  0.33087992541E+02  0.36458431406E+02  0.29178215971E+02  0.57239852885E+02  0.10000000000E+01 0.  0.
    9000005    1    3    3    0    0 -0.80857703591E+02 -0.15791399974E+02  0.57234448429E+01  0.82589916842E+02  0.10000000000E+01 0.  0.
<mgrwt>
<rscale>  0 0.12766388E+03</rscale>
<asrwt>0</asrwt>
<pdfrwt beam="1">  1        2 0.26405894E-01 0.13540398E+03</pdfrwt>
<pdfrwt beam="2">  1       -2 0.13296510E-01 0.13540398E+03</pdfrwt>
<totfact> 0.79975660E+03</totfact>
</mgrwt>
</event>
<event>
 8    2  0.1628804E-003  0.1358876E+03  0.7818608E-02  0.1230969E+00
          2   -1    0    0  501    0  0.00000000000E+00  0.00000000000E+00  0.60267902083E+03  0.60267902084E+03  0.25500000000E-02 0. -1.
         -2   -1    0    0    0  501 -0.00000000000E+00 -0.00000000000E+00 -0.24294659493E+02  0.24294659627E+02  0.25500000000E-02 0.  1.
         25    2    1    2    0    0  0.36787265588E+02  0.38560274270E+02  0.31032489458E+03  0.33877275686E+03  0.12500097173E+03 0.  0.
         23    2    1    2    0    0 -0.36787265588E+02 -0.38560274270E+02  0.26805946676E+03  0.28820092360E+03  0.91453250273E+02 0.  0.
        -11    1    4    4    0    0 -0.48531557519E+02 -0.28316701531E+02  0.26670353126E+03  0.27255810619E+03  0.51100000000E-03 0. -1.
         11    1    4    4    0    0  0.11744291931E+02 -0.10243572738E+02  0.13559354985E+01  0.15642817417E+02  0.51100000000E-03 0.  1.
    9000005    1    3    3    0    0 -0.16513260587E+02 -0.23330185239E+02  0.19706562368E+03  0.19913022211E+03  0.10000000000E+01 0.  0.
    9000005    1    3    3    0    0  0.53300526175E+02  0.61890459508E+02  0.11325927090E+03  0.13964253476E+03  0.10000000000E+01 0.  0.
<mgrwt>
<rscale>  0 0.12766034E+03</rscale>
<asrwt>0</asrwt>
<pdfrwt beam="1">  1        2 0.92719840E-01 0.13588760E+03</pdfrwt>
<pdfrwt beam="2">  1       -2 0.37376403E-02 0.13588760E+03</pdfrwt>
<totfact> 0.14504236E+04</totfact>
</mgrwt>
</event>
<event>
 8    2  0.1628804E-003  0.1441869E+03  0.7818608E-02  0.1217765E+00
         -2   -1    0    0    0  501 -0.00000000000E+00  0.00000000000E+00  0.54279384010E+01  0.54279390000E+01  0.25500000000E-02 0.  1.
          2   -1    0    0  501    0  0.00000000000E+00 -0.00000000000E+00 -0.31422705082E+04  0.31422705082E+04  0.25500000000E-02 0. -1.
         25    2    1    2    0    0 -0.53984040847E+02  0.47461582925E+02 -0.18126616259E+04  0.18183872037E+04  0.12499189512E+03 0.  0.
         23    2    1    2    0    0  0.53984040847E+02 -0.47461582925E+02 -0.13241809439E+04  0.13293112435E+04  0.91903925612E+02 0.  0.
        -11    1    4    4    0    0  0.76941876752E+02 -0.25881495639E+02 -0.10902341829E+04  0.10932522480E+04  0.51100000000E-03 0. -1.
         11    1    4    4    0    0 -0.22957835905E+02 -0.21580087286E+02 -0.23394676099E+03  0.23605899554E+03  0.51100000000E-03 0.  1.
    9000005    1    3    3    0    0 -0.72146767072E+02 -0.17249924864E+02 -0.77180497814E+03  0.77536226384E+03  0.10000000000E+01 0.  0.
    9000005    1    3    3    0    0  0.18162726225E+02  0.64711507789E+02 -0.10408566478E+04  0.10430249398E+04  0.10000000000E+01 0.  0.
<mgrwt>
<rscale>  0 0.13675378E+03</rscale>
<asrwt>0</asrwt>
<pdfrwt beam="2">  1        2 0.48342478E+00 0.14418687E+03</pdfrwt>
<pdfrwt beam="1">  1       -2 0.83507000E-03 0.14418687E+03</pdfrwt>
<totfact> 0.47824729E+03</totfact>
</mgrwt>
</event>
<event>
 8    2  0.1628804E-003  0.1267568E+03  0.7818608E-02  0.1248042E+00
         -2   -1    0    0    0  501 -0.00000000000E+00  0.00000000000E+00  0.56146639567E+01  0.56146645358E+01  0.25500000000E-02 0.  1.
          2   -1    0    0  501    0  0.00000000000E+00 -0.00000000000E+00 -0.21618495140E+04  0.21618495140E+04  0.25500000000E-02 0. -1.
         25    2    1    2    0    0  0.10572325512E+01 -0.21004294039E+02 -0.13674941775E+04  0.13733563268E+04  0.12499990782E+03 0.  0.
         23    2    1    2    0    0 -0.10572325512E+01  0.21004294039E+02 -0.78874067262E+03  0.79410785175E+03  0.89739252528E+02 0.  0.
        -11    1    4    4    0    0  0.29743814033E+02  0.19876647000E+02 -0.13557555540E+03  0.14021592916E+03  0.51100000000E-03 0.  1.
         11    1    4    4    0    0 -0.30801046584E+02  0.11276470386E+01 -0.65316511723E+03  0.65389192258E+03  0.51100000000E-03 0. -1.
    9000005    1    3    3    0    0  0.50845209379E+02 -0.11571539136E+01 -0.10603219119E+04  0.10615413940E+04  0.10000000000E+01 0.  0.
    9000005    1    3    3    0    0 -0.49787976828E+02 -0.19847140125E+02 -0.30717226560E+03  0.31181493287E+03  0.10000000000E+01 0.  0.
<mgrwt>
<rscale>  0 0.11705137E+03</rscale>
<asrwt>0</asrwt>
<pdfrwt beam="2">  1        2 0.33259157E+00 0.12675676E+03</pdfrwt>
<pdfrwt beam="1">  1       -2 0.86379622E-03 0.12675676E+03</pdfrwt>
<totfact> 0.15689842E+04</totfact>
</mgrwt>
</event>
<event>
 8    2  0.1628804E-003  0.1448378E+03  0.7818608E-02  0.1216583E+00
          2   -1    0    0  501    0  0.00000000000E+00  0.00000000000E+00  0.62694000687E+03  0.62694000688E+03  0.25500000000E-02 0. -1.
         -2   -1    0    0    0  501 -0.00000000000E+00 -0.00000000000E+00 -0.28501281754E+02  0.28501281869E+02  0.25500000000E-02 0.  1.
         25    2    1    2    0    0  0.72501934044E+02 -0.98182738849E+01  0.38827084779E+03  0.41440588781E+03  0.12500023866E+03 0.  0.
         23    2    1    2    0    0 -0.72501934044E+02  0.98182738849E+01  0.21016787733E+03  0.24103540094E+03  0.92599130136E+02 0.  0.
        -11    1    4    4    0    0 -0.35723218131E+02  0.11008479774E+02  0.19914351987E+03  0.20262151033E+03  0.51100000000E-03 0. -1.
         11    1    4    4    0    0 -0.36778715913E+02 -0.11902058886E+01  0.11024357461E+02  0.38413890612E+02  0.51100000000E-03 0.  1.
    9000005    1    3    3    0    0  0.41236961561E+02  0.24986325436E+02  0.35176345701E+03  0.35505398624E+03  0.10000000000E+01 0.  0.
    9000005    1    3    3    0    0  0.31264972483E+02 -0.34804599320E+02  0.36507390777E+02  0.59351901567E+02  0.10000000000E+01 0.  0.
<mgrwt>
<rscale>  0 0.13760864E+03</rscale>
<asrwt>0</asrwt>
<pdfrwt beam="1">  1        2 0.96452306E-01 0.14483780E+03</pdfrwt>
<pdfrwt beam="2">  1       -2 0.43848127E-02 0.14483780E+03</pdfrwt>
<totfact> 0.10979650E+04</totfact>
</mgrwt>
</event>
<event>
 8    2  0.1628804E-003  0.1287846E+03  0.7818608E-02  0.1242801E+00
         -2   -1    0    0    0  501 -0.00000000000E+00  0.00000000000E+00  0.12939933190E+02  0.12939933442E+02  0.25500000000E-02 0.  1.
          2   -1    0    0  501    0  0.00000000000E+00 -0.00000000000E+00 -0.10603857406E+04  0.10603857406E+04  0.25500000000E-02 0. -1.
         25    2    1    2    0    0  0.26145284721E+02 -0.16658190215E+02 -0.45462105244E+03  0.47251008059E+03  0.12499761486E+03 0.  0.
         23    2    1    2    0    0 -0.26145284721E+02  0.16658190215E+02 -0.59282475496E+03  0.60081559345E+03  0.92612720629E+02 0.  0.
        -11    1    4    4    0    0 -0.51292600511E+02 -0.12311252542E+02 -0.44415201530E+03  0.44727341806E+03  0.51100000000E-03 0. -1.
         11    1    4    4    0    0  0.25147315789E+02  0.28969442757E+02 -0.14867273967E+03  0.15354217539E+03  0.51100000000E-03 0.  1.
    9000005    1    3    3    0    0  0.59938915982E+02  0.71745144401E+01 -0.39708246591E+03  0.40164615278E+03  0.10000000000E+01 0.  0.
    9000005    1    3    3    0    0 -0.33793631261E+02 -0.23832704655E+02 -0.57538586532E+02  0.70863927813E+02  0.10000000000E+01 0.  0.
<mgrwt>
<rscale>  0 0.12017972E+03</rscale>
<asrwt>0</asrwt>
<pdfrwt beam="2">  1        2 0.16313620E+00 0.12878461E+03</pdfrwt>
<pdfrwt beam="1">  1       -2 0.19907598E-02 0.12878461E+03</pdfrwt>
<totfact> 0.17898684E+04</totfact>
</mgrwt>
</event>
<event>
 8    2  0.1628804E-003  0.2105028E+03  0.7818608E-02  0.1144744E+00
          2   -1    0    0  501    0  0.00000000000E+00  0.00000000000E+00  0.57560456906E+03  0.57560456907E+03  0.25500000000E-02 0. -1.
         -2   -1    0    0    0  501 -0.00000000000E+00 -0.00000000000E+00 -0.71939186957E+02  0.71939187002E+02  0.25500000000E-02 0.  1.
         25    2    1    2    0    0  0.16174588923E+03  0.50226150529E+02  0.22146635202E+03  0.30554669067E+03  0.12500814463E+03 0.  0.
         23    2    1    2    0    0 -0.16174588923E+03 -0.50226150529E+02  0.28219903008E+03  0.34199706540E+03  0.92958599825E+02 0.  0.
        -11    1    4    4    0    0 -0.51315846379E+02  0.22927623838E+02  0.52883951268E+02  0.77173209901E+02  0.51100000000E-03 0.  1.
         11    1    4    4    0    0 -0.11043004285E+03 -0.73153774367E+02  0.22931507882E+03  0.26482385550E+03  0.51100000000E-03 0. -1.
    9000005    1    3    3    0    0 -0.14509446972E+02 -0.43731636769E+00 -0.38273839390E+01  0.15045403446E+02  0.10000000000E+01 0.  0.
    9000005    1    3    3    0    0  0.17625533620E+03  0.50663466897E+02  0.22529373596E+03  0.29050128723E+03  0.10000000000E+01 0.  0.
<mgrwt>
<rscale>  0 0.20603662E+03</rscale>
<asrwt>0</asrwt>
<pdfrwt beam="1">  1        2 0.88554551E-01 0.21050281E+03</pdfrwt>
<pdfrwt beam="2">  1       -2 0.11067567E-01 0.21050281E+03</pdfrwt>
<totfact> 0.29561533E+03</totfact>
</mgrwt>
</event>
<event>
 8    2  0.1628804E-003  0.2581826E+03  0.7818608E-02  0.1110310E+00
          2   -1    0    0  501    0  0.00000000000E+00  0.00000000000E+00  0.39666876324E+03  0.39666876325E+03  0.25500000000E-02 0. -1.
         -2   -1    0    0    0  501 -0.00000000000E+00 -0.00000000000E+00 -0.16008853351E+03  0.16008853353E+03  0.25500000000E-02 0.  1.
         25    2    1    2    0    0 -0.20581001596E+03 -0.93132899574E+02  0.10473090273E+03  0.27861586644E+03  0.12500695738E+03 0.  0.
         23    2    1    2    0    0  0.20581001596E+03  0.93132899574E+02  0.13184932700E+03  0.27814143033E+03  0.94588110162E+02 0.  0.
        -11    1    4    4    0    0  0.11986638984E+03  0.93246007976E+02  0.51145329301E+02  0.16024548083E+03  0.51100000000E-03 0.  1.
         11    1    4    4    0    0  0.85943626125E+02 -0.11310840185E+00  0.80703997698E+02  0.11789594951E+03  0.51100000000E-03 0. -1.
    9000005    1    3    3    0    0 -0.43705804374E+02 -0.30738882459E+02  0.89509630747E+02  0.10424994114E+03  0.10000000000E+01 0.  0.
    9000005    1    3    3    0    0 -0.16210421159E+03 -0.62394017115E+02  0.15221271980E+02  0.17436592530E+03  0.10000000000E+01 0.  0.
<mgrwt>
<rscale>  0 0.25479715E+03</rscale>
<asrwt>0</asrwt>
<pdfrwt beam="1">  1        2 0.61025963E-01 0.25818257E+03</pdfrwt>
<pdfrwt beam="2">  1       -2 0.24629006E-01 0.25818257E+03</pdfrwt>
<totfact> 0.11762579E+03</totfact>
</mgrwt>
</event>
<event>
 8    2  0.1628804E-003  0.1460506E+03  0.7818608E-02  0.1215533E+00
         -2   -1    0    0    0  501 -0.00000000000E+00  0.00000000000E+00  0.32767696571E+03  0.32767696572E+03  0.25500000000E-02 0.  1.
          2   -1    0    0  501    0  0.00000000000E+00 -0.00000000000E+00 -0.56841002414E+02  0.56841002471E+02  0.25500000000E-02 0. -1.
         25    2    1    2    0    0  0.47656371549E+02  0.58605754845E+02  0.19828979738E+03  0.24627143805E+03  0.12500005280E+03 0.  0.
         23    2    1    2    0    0 -0.47656371549E+02 -0.58605754845E+02  0.72546165915E+02  0.13824653015E+03  0.90240748325E+02 0.  0.
        -11    1    4    4    0    0 -0.58066399759E+02 -0.61773117003E+01  0.59200204066E+02  0.83153653693E+02  0.51100000000E-03 0.  1.
         11    1    4    4    0    0  0.10410028210E+02 -0.52428443145E+02  0.13345961849E+02  0.55092876453E+02  0.51100000000E-03 0. -1.
    9000005    1    3    3    0    0 -0.24956464951E+02  0.37128200464E+01 -0.29276402518E+01  0.25420095456E+02  0.10000000000E+01 0.  0.
    9000005    1    3    3    0    0  0.72612836500E+02  0.54892934799E+02  0.20121743763E+03  0.22085134259E+03  0.10000000000E+01 0.  0.
<mgrwt>
<rscale>  0 0.13837430E+03</rscale>
<asrwt>0</asrwt>
<pdfrwt beam="2">  1        2 0.87447695E-02 0.14605060E+03</pdfrwt>
<pdfrwt beam="1">  1       -2 0.50411841E-01 0.14605060E+03</pdfrwt>
<totfact> 0.27657627E+03</totfact>
</mgrwt>
</event>
<event>
 8    2  0.1628804E-003  0.1824173E+03  0.7818608E-02  0.1169021E+00
          2   -1    0    0  501    0  0.00000000000E+00  0.00000000000E+00  0.84368569885E+02  0.84368569924E+02  0.25500000000E-02 0. -1.
         -2   -1    0    0    0  501 -0.00000000000E+00 -0.00000000000E+00 -0.36522818234E+03  0.36522818235E+03  0.25500000000E-02 0.  1.
         25    2    1    2    0    0 -0.11485535779E+03  0.66836041334E+02 -0.15793199689E+03  0.24128531509E+03  0.12496910819E+03 0.  0.
         23    2    1    2    0    0  0.11485535779E+03 -0.66836041334E+02 -0.12292761556E+03  0.20831143718E+03  0.10307107529E+03 0.  0.
        -11    1    4    4    0    0  0.55192546220E+02  0.21792669936E+02 -0.28964747906E+02  0.66031009705E+02  0.51100000000E-03 0.  1.
         11    1    4    4    0    0  0.59662811565E+02 -0.88628711270E+02 -0.93962867655E+02  0.14228042748E+03  0.51100000000E-03 0. -1.
    9000005    1    3    3    0    0 -0.12681974752E+03  0.20523366654E+02 -0.14045415721E+03  0.19034922437E+03  0.10000000000E+01 0.  0.
    9000005    1    3    3    0    0  0.11964389734E+02  0.46312674680E+02 -0.17477839679E+02  0.50936090718E+02  0.10000000000E+01 0.  0.
<mgrwt>
<rscale>  0 0.17874720E+03</rscale>
<asrwt>0</asrwt>
<pdfrwt beam="1">  1        2 0.12979780E-01 0.18241734E+03</pdfrwt>
<pdfrwt beam="2">  1       -2 0.56188950E-01 0.18241734E+03</pdfrwt>
<totfact> 0.13855214E+03</totfact>
</mgrwt>
</event>
<event>
 8    2  0.1628804E-003  0.1358864E+03  0.7818608E-02  0.1231034E+00
         -2   -1    0    0    0  501 -0.00000000000E+00  0.00000000000E+00  0.12195195120E+03  0.12195195122E+03  0.25500000000E-02 0.  1.
          2   -1    0    0  501    0  0.00000000000E+00 -0.00000000000E+00 -0.14008894030E+03  0.14008894032E+03  0.25500000000E-02 0. -1.
         25    2    1    2    0    0  0.49105478319E+02  0.20716829616E+02 -0.59741257628E+02  0.14843897220E+03  0.12499830228E+03 0.  0.
         23    2    1    2    0    0 -0.49105478319E+02 -0.20716829616E+02  0.41604268524E+02  0.11360191935E+03  0.91290447964E+02 0.  0.
        -11    1    4    4    0    0  0.22910717310E+02 -0.21451023242E+02  0.23868360934E+02  0.39430267811E+02  0.51100000000E-03 0.  1.
         11    1    4    4    0    0 -0.72016195629E+02  0.73419362519E+00  0.17735907590E+02  0.74171651535E+02  0.51100000000E-03 0. -1.
    9000005    1    3    3    0    0  0.47221852345E+02  0.58466831229E+02  0.29597885980E+01  0.75219904556E+02  0.10000000000E+01 0.  0.
    9000005    1    3    3    0    0  0.18836259747E+01 -0.37750001612E+02 -0.62701046226E+02  0.73219067642E+02  0.10000000000E+01 0.  0.
<mgrwt>
<rscale>  0 0.12761755E+03</rscale>
<asrwt>0</asrwt>
<pdfrwt beam="2">  1        2 0.21552145E-01 0.13588639E+03</pdfrwt>
<pdfrwt beam="1">  1       -2 0.18761839E-01 0.13588639E+03</pdfrwt>
<totfact> 0.56888851E+03</totfact>
</mgrwt>
</event>
<event>
 8    2  0.1628804E-003  0.2248868E+03  0.7818608E-02  0.1133639E+00
          2   -1    0    0  501    0  0.00000000000E+00  0.00000000000E+00  0.15321382350E+04  0.15321382350E+04  0.25500000000E-02 0. -1.
         -2   -1    0    0    0  501 -0.00000000000E+00 -0.00000000000E+00 -0.30681451254E+02  0.30681451360E+02  0.25500000000E-02 0.  1.
         25    2    1    2    0    0  0.15374144133E+03 -0.10638371716E+03  0.71546821602E+03  0.74997922260E+03  0.12498055904E+03 0.  0.
         23    2    1    2    0    0 -0.15374144133E+03  0.10638371716E+03  0.78598856769E+03  0.81284046373E+03  0.89317774691E+02 0.  0.
        -11    1    4    4    0    0 -0.70814225733E+02  0.86127435094E+02  0.31436610408E+03  0.33355454882E+03  0.51100000000E-03 0.  1.
         11    1    4    4    0    0 -0.82927215593E+02  0.20256282062E+02  0.47162246361E+03  0.47928591491E+03  0.51100000000E-03 0. -1.
    9000005    1    3    3    0    0  0.15353737605E+03 -0.61565820272E+02  0.42477526037E+03  0.45584986332E+03  0.10000000000E+01 0.  0.
    9000005    1    3    3    0    0  0.20406528035E+00 -0.44817896884E+02  0.29069295565E+03  0.29412935928E+03  0.10000000000E+01 0.  0.
<mgrwt>
<rscale>  0 0.22032819E+03</rscale>
<asrwt>0</asrwt>
<pdfrwt beam="1">  1        2 0.23571356E+00 0.22488679E+03</pdfrwt>
<pdfrwt beam="2">  1       -2 0.47202235E-02 0.22488679E+03</pdfrwt>
<totfact> 0.28024462E+03</totfact>
</mgrwt>
</event>
<event>
 8    2  0.1628804E-003  0.1501322E+03  0.7818608E-02  0.1209923E+00
          2   -1    0    0  501    0  0.00000000000E+00  0.00000000000E+00  0.12576163768E+04  0.12576163768E+04  0.25500000000E-02 0. -1.
         -2   -1    0    0    0  501 -0.00000000000E+00 -0.00000000000E+00 -0.15352464620E+02  0.15352464832E+02  0.25500000000E-02 0.  1.
         25    2    1    2    0    0  0.56520633076E+02  0.61006535905E+02  0.81025097564E+03  0.82404267333E+03  0.12499321800E+03 0.  0.
         23    2    1    2    0    0 -0.56520633076E+02 -0.61006535905E+02  0.43201293658E+03  0.44892616835E+03  0.89348463169E+02 0.  0.
        -11    1    4    4    0    0 -0.62449415602E+02 -0.50315311757E+02  0.18529352702E+03  0.20190406450E+03  0.51100000000E-03 0.  1.
         11    1    4    4    0    0  0.59287825263E+01 -0.10691224148E+02  0.24671940956E+03  0.24702210385E+03  0.51100000000E-03 0. -1.
    9000005    1    3    3    0    0  0.81554227209E+02  0.61289256277E+02  0.76929656038E+03  0.77603199852E+03  0.10000000000E+01 0.  0.
    9000005    1    3    3    0    0 -0.25033594134E+02 -0.28272037167E+00  0.40954415258E+02  0.48010674805E+02  0.10000000000E+01 0.  0.
<mgrwt>
<rscale>  0 0.14256141E+03</rscale>
<asrwt>0</asrwt>
<pdfrwt beam="1">  1        2 0.19347949E+00 0.15013222E+03</pdfrwt>
<pdfrwt beam="2">  1       -2 0.23619171E-02 0.15013222E+03</pdfrwt>
<totfact> 0.10909595E+04</totfact>
</mgrwt>
</event>
<event>
 8    2  0.1628804E-003  0.1301383E+03  0.7818608E-02  0.1240398E+00
         -2   -1    0    0    0  501 -0.00000000000E+00  0.00000000000E+00  0.19563958486E+02  0.19563958653E+02  0.25500000000E-02 0. -1.
          2   -1    0    0  501    0  0.00000000000E+00 -0.00000000000E+00 -0.93100796123E+03  0.93100796124E+03  0.25500000000E-02 0.  1.
         25    2    1    2    0    0 -0.30567997111E+02 -0.19427110934E+02 -0.74842800553E+03  0.75965812297E+03  0.12499667694E+03 0.  0.
         23    2    1    2    0    0  0.30567997111E+02  0.19427110934E+02 -0.16301599722E+03  0.19091379692E+03  0.92531332093E+02 0.  0.
        -11    1    4    4    0    0 -0.16148936450E+02 -0.12318127731E+02 -0.11500159510E+03  0.11678138248E+03  0.51100000000E-03 0.  1.
         11    1    4    4    0    0  0.46716933561E+02  0.31745238665E+02 -0.48014402124E+02  0.74132414441E+02  0.51100000000E-03 0. -1.
    9000005    1    3    3    0    0 -0.42744687466E+02 -0.22348788480E+02 -0.74510311575E+03  0.74666339789E+03  0.10000000000E+01 0.  0.
    9000005    1    3    3    0    0  0.12176690355E+02  0.29216775459E+01 -0.33248897751E+01  0.12994725072E+02  0.10000000000E+01 0.  0.
<mgrwt>
<rscale>  0 0.12165075E+03</rscale>
<asrwt>0</asrwt>
<pdfrwt beam="2">  1        2 0.14323196E+00 0.13013833E+03</pdfrwt>
<pdfrwt beam="1">  1       -2 0.30098405E-02 0.13013833E+03</pdfrwt>
<totfact> 0.11712064E+04</totfact>
</mgrwt>
</event>
<event>
 8    2  0.1628804E-003  0.1281553E+03  0.7818608E-02  0.1245833E+00
          2   -1    0    0  501    0  0.00000000000E+00  0.00000000000E+00  0.17107397617E+04  0.17107397617E+04  0.25500000000E-02 0. -1.
         -2   -1    0    0    0  501 -0.00000000000E+00 -0.00000000000E+00 -0.91138726716E+01  0.91138730283E+01  0.25500000000E-02 0.  1.
         25    2    1    2    0    0 -0.11601950958E+02 -0.25739881230E+02  0.56228119614E+03  0.57670089460E+03  0.12500652604E+03 0.  0.
         23    2    1    2    0    0  0.11601950958E+02  0.25739881230E+02  0.11393446929E+04  0.11431527401E+04  0.88852187901E+02 0.  0.
        -11    1    4    4    0    0  0.18503612352E+02  0.52502815126E+02  0.96744896520E+03  0.96904923999E+03  0.51100000000E-03 0. -1.
         11    1    4    4    0    0 -0.69016613946E+01 -0.26762933896E+02  0.17189572770E+03  0.17410350014E+03  0.51100000000E-03 0.  1.
    9000005    1    3    3    0    0 -0.10627776678E+02  0.48706381291E+02  0.16009728966E+03  0.16768244802E+03  0.10000000000E+01 0.  0.
    9000005    1    3    3    0    0 -0.97417428022E+00 -0.74446262521E+02  0.40218390647E+03  0.40901844658E+03  0.10000000000E+01 0.  0.
<mgrwt>
<rscale>  0 0.11835633E+03</rscale>
<asrwt>0</asrwt>
<pdfrwt beam="1">  1        2 0.26319070E+00 0.12815529E+03</pdfrwt>
<pdfrwt beam="2">  1       -2 0.14021344E-02 0.12815529E+03</pdfrwt>
<totfact> 0.13339704E+04</totfact>
</mgrwt>
</event>
<event>
 8    2  0.1628804E-003  0.1290167E+03  0.7818608E-02  0.1246930E+00
          2   -1    0    0  501    0  0.00000000000E+00  0.00000000000E+00  0.72976064226E+03  0.72976064226E+03  0.25500000000E-02 0. -1.
         -2   -1    0    0    0  501 -0.00000000000E+00 -0.00000000000E+00 -0.18247878229E+02  0.18247878407E+02  0.25500000000E-02 0.  1.
         25    2    1    2    0    0  0.23665734731E+02  0.21449061007E+02  0.53268346899E+03  0.54808483645E+03  0.12500072239E+03 0.  0.
         23    2    1    2    0    0 -0.23665734731E+02 -0.21449061007E+02  0.17882929504E+03  0.19992368422E+03  0.83483133192E+02 0.  0.
        -11    1    4    4    0    0  0.31871443515E+01 -0.28008572855E+02  0.11695192380E+02  0.30519101684E+02  0.51100000000E-03 0.  1.
         11    1    4    4    0    0 -0.26852879083E+02  0.65595118487E+01  0.16713410266E+03  0.16940458254E+03  0.51100000000E-03 0. -1.
    9000005    1    3    3    0    0  0.38403034655E+02  0.67135962223E+02  0.26214740820E+03  0.27332086294E+03  0.10000000000E+01 0.  0.
    9000005    1    3    3    0    0 -0.14737299923E+02 -0.45686901216E+02  0.27053606079E+03  0.27476397351E+03  0.10000000000E+01 0.  0.
<mgrwt>
<rscale>  0 0.11770633E+03</rscale>
<asrwt>0</asrwt>
<pdfrwt beam="1">  1        2 0.11227088E+00 0.12901670E+03</pdfrwt>
<pdfrwt beam="2">  1       -2 0.28073655E-02 0.12901670E+03</pdfrwt>
<totfact> 0.17611390E+04</totfact>
</mgrwt>
</event>
<event>
 8    2  0.1628804E-003  0.1423757E+03  0.7818608E-02  0.1220408E+00
         -2   -1    0    0    0  501 -0.00000000000E+00  0.00000000000E+00  0.33411073598E+02  0.33411073696E+02  0.25500000000E-02 0.  1.
          2   -1    0    0  501    0  0.00000000000E+00 -0.00000000000E+00 -0.54146940256E+03  0.54146940257E+03  0.25500000000E-02 0. -1.
         25    2    1    2    0    0  0.49991743099E+02 -0.46354904431E+02 -0.19462719210E+03  0.24114432482E+03  0.12499155948E+03 0.  0.
         23    2    1    2    0    0 -0.49991743099E+02  0.46354904431E+02 -0.31343113686E+03  0.33373615145E+03  0.92156332863E+02 0.  0.
        -11    1    4    4    0    0 -0.69295506253E+02  0.29436854302E+02 -0.14520562073E+03  0.16356365082E+03  0.51100000000E-03 0.  1.
         11    1    4    4    0    0  0.19303763154E+02  0.16918050129E+02 -0.16822551613E+03  0.17017250062E+03  0.51100000000E-03 0. -1.
    9000005    1    3    3    0    0  0.58770061585E+01  0.14723084613E+02  0.12835414776E+02  0.20421956185E+02  0.10000000000E+01 0.  0.
    9000005    1    3    3    0    0  0.44114736941E+02 -0.61077989044E+02 -0.20746260688E+03  0.22072236863E+03  0.10000000000E+01 0.  0.
<mgrwt>
<rscale>  0 0.13486660E+03</rscale>
<asrwt>0</asrwt>
<pdfrwt beam="2">  1        2 0.83302978E-01 0.14237571E+03</pdfrwt>
<pdfrwt beam="1">  1       -2 0.51401656E-02 0.14237571E+03</pdfrwt>
<totfact> 0.10202075E+04</totfact>
</mgrwt>
</event>
<event>
 8    2  0.1628804E-003  0.1846397E+03  0.7818608E-02  0.1168291E+00
          2   -1    0    0  501    0  0.00000000000E+00  0.00000000000E+00  0.12229824267E+04  0.12229824267E+04  0.25500000000E-02 0. -1.
         -2   -1    0    0    0  501 -0.00000000000E+00 -0.00000000000E+00 -0.27397489296E+02  0.27397489414E+02  0.25500000000E-02 0.  1.
         25    2    1    2    0    0  0.34757465226E+02  0.13137449987E+03  0.44299583668E+03  0.47993452358E+03  0.12499797998E+03 0.  0.
         23    2    1    2    0    0 -0.34757465226E+02 -0.13137449987E+03  0.75258910073E+03  0.77044539255E+03  0.93425947974E+02 0.  0.
        -11    1    4    4    0    0 -0.34006995157E+02 -0.45295977997E+02  0.12826191395E+03  0.14021169678E+03  0.51100000000E-03 0.  1.
         11    1    4    4    0    0 -0.75047006864E+00 -0.86078521871E+02  0.62432718678E+03  0.63023369577E+03  0.51100000000E-03 0. -1.
    9000005    1    3    3    0    0  0.14444143329E+02  0.75422707865E+02  0.75669457786E+02  0.10781504988E+03  0.10000000000E+01 0.  0.
    9000005    1    3    3    0    0  0.20313321897E+02  0.55951792003E+02  0.36732637890E+03  0.37211947370E+03  0.10000000000E+01 0.  0.
<mgrwt>
<rscale>  0 0.17949672E+03</rscale>
<asrwt>0</asrwt>
<pdfrwt beam="1">  1        2 0.18815112E+00 0.18463975E+03</pdfrwt>
<pdfrwt beam="2">  1       -2 0.42149988E-02 0.18463975E+03</pdfrwt>
<totfact> 0.48739501E+03</totfact>
</mgrwt>
</event>
<event>
 8    2  0.1628804E-003  0.2001238E+03  0.7818608E-02  0.1154088E+00
          2   -1    0    0  501    0  0.00000000000E+00  0.00000000000E+00  0.10962909123E+03  0.10962909126E+03  0.25500000000E-02 0. -1.
         -2   -1    0    0    0  501 -0.00000000000E+00 -0.00000000000E+00 -0.37222658557E+03  0.37222658558E+03  0.25500000000E-02 0.  1.
         25    2    1    2    0    0  0.13614559544E+03 -0.76739721189E+02 -0.21869264871E+03  0.29643887749E+03  0.12499970209E+03 0.  0.
         23    2    1    2    0    0 -0.13614559544E+03  0.76739721189E+02 -0.43904845626E+02  0.18541679934E+03  0.89594341583E+02 0.  0.
        -11    1    4    4    0    0 -0.80462105561E+02  0.84797396041E+02 -0.49825476850E+01  0.11700245548E+03  0.51100000000E-03 0. -1.
         11    1    4    4    0    0 -0.55683489875E+02 -0.80576748522E+01 -0.38922297941E+02  0.68414343861E+02  0.51100000000E-03 0.  1.
    9000005    1    3    3    0    0  0.11845644766E+03 -0.10641534906E+03 -0.20422900265E+03  0.25897228043E+03  0.10000000000E+01 0.  0.
    9000005    1    3    3    0    0  0.17689147778E+02  0.29675627867E+02 -0.14463646066E+02  0.37466597069E+02  0.10000000000E+01 0.  0.
<mgrwt>
<rscale>  0 0.19493006E+03</rscale>
<asrwt>0</asrwt>
<pdfrwt beam="1">  1        2 0.16866014E-01 0.20012380E+03</pdfrwt>
<pdfrwt beam="2">  1       -2 0.57265628E-01 0.20012380E+03</pdfrwt>
<totfact> 0.98030601E+02</totfact>
</mgrwt>
</event>
<event>
 8    2  0.1628804E-003  0.1373148E+03  0.7818608E-02  0.1228558E+00
         -2   -1    0    0    0  501 -0.00000000000E+00  0.00000000000E+00  0.22531735831E+02  0.22531735976E+02  0.25500000000E-02 0.  1.
          2   -1    0    0  501    0  0.00000000000E+00 -0.00000000000E+00 -0.76548391602E+03  0.76548391603E+03  0.25500000000E-02 0. -1.
         25    2    1    2    0    0 -0.70788240074E+01  0.56397970393E+02 -0.26979077609E+03  0.30272498791E+03  0.12499805849E+03 0.  0.
         23    2    1    2    0    0  0.70788240074E+01 -0.56397970393E+02 -0.47316140410E+03  0.48529066409E+03  0.91621359492E+02 0.  0.
        -11    1    4    4    0    0 -0.20732016524E+02 -0.71267784561E+02 -0.37182026665E+03  0.37915593668E+03  0.51100000000E-03 0. -1.
         11    1    4    4    0    0  0.27810840531E+02  0.14869814167E+02 -0.10134113745E+03  0.10613472742E+03  0.51100000000E-03 0.  1.
    9000005    1    3    3    0    0 -0.28056491170E+02 -0.89838214217E+01 -0.59207641067E+01  0.30065448471E+02  0.10000000000E+01 0.  0.
    9000005    1    3    3    0    0  0.20977667163E+02  0.65381791815E+02 -0.26387001199E+03  0.27265953944E+03  0.10000000000E+01 0.  0.
<mgrwt>
<rscale>  0 0.12925984E+03</rscale>
<asrwt>0</asrwt>
<pdfrwt beam="2">  1        2 0.11776674E+00 0.13731480E+03</pdfrwt>
<pdfrwt beam="1">  1       -2 0.34664215E-02 0.13731480E+03</pdfrwt>
<totfact> 0.12242337E+04</totfact>
</mgrwt>
</event>
<event>
 8    2  0.1628804E-003  0.2091023E+03  0.7818608E-02  0.1146114E+00
          2   -1    0    0  501    0  0.00000000000E+00  0.00000000000E+00  0.16994170203E+04  0.16994170203E+04  0.25500000000E-02 0. -1.
         -2   -1    0    0    0  501 -0.00000000000E+00 -0.00000000000E+00 -0.23521072544E+02  0.23521072682E+02  0.25500000000E-02 0.  1.
         25    2    1    2    0    0  0.16078092782E+03  0.47441768749E+02  0.87837042538E+03  0.90291659636E+03  0.12499019016E+03 0.  0.
         23    2    1    2    0    0 -0.16078092782E+03 -0.47441768749E+02  0.79752552233E+03  0.82002149657E+03  0.91033334018E+02 0.  0.
        -11    1    4    4    0    0 -0.55271835580E+02 -0.94988055613E+01  0.11061028098E+03  0.12401547232E+03  0.51100000000E-03 0.  1.
         11    1    4    4    0    0 -0.10550909224E+03 -0.37942963188E+02  0.68691524135E+03  0.69600602426E+03  0.51100000000E-03 0. -1.
    9000005    1    3    3    0    0  0.43225389837E+02  0.74735417587E+02  0.30519119093E+03  0.31716948149E+03  0.10000000000E+01 0.  0.
    9000005    1    3    3    0    0  0.11755553798E+03 -0.27293648838E+02  0.57317923445E+03  0.58574711487E+03  0.10000000000E+01 0.  0.
<mgrwt>
<rscale>  0 0.20435691E+03</rscale>
<asrwt>0</asrwt>
<pdfrwt beam="1">  1        2 0.26144886E+00 0.20910231E+03</pdfrwt>
<pdfrwt beam="2">  1       -2 0.36186254E-02 0.20910231E+03</pdfrwt>
<totfact> 0.34138459E+03</totfact>
</mgrwt>
</event>
<event>
 8    2  0.1628804E-003  0.1464576E+03  0.7818608E-02  0.1213557E+00
         -2   -1    0    0    0  501 -0.00000000000E+00  0.00000000000E+00  0.41273735553E+03  0.41273735554E+03  0.25500000000E-02 0.  1.
          2   -1    0    0  501    0  0.00000000000E+00 -0.00000000000E+00 -0.48239405956E+02  0.48239406024E+02  0.25500000000E-02 0. -1.
         25    2    1    2    0    0  0.29552356279E+01 -0.76258767824E+02  0.12589158634E+03  0.19312822616E+03  0.12500274853E+03 0.  0.
         23    2    1    2    0    0 -0.29552356279E+01  0.76258767824E+02  0.23860636323E+03  0.26784853540E+03  0.94792975762E+02 0.  0.
        -11    1    4    4    0    0  0.34369287356E+01 -0.17880755157E+01 -0.81180270955E+01  0.89951129714E+01  0.51100000000E-03 0. -1.
         11    1    4    4    0    0 -0.63921643635E+01  0.78046843340E+02  0.24672439033E+03  0.25885342243E+03  0.51100000000E-03 0.  1.
    9000005    1    3    3    0    0  0.45904017018E+01  0.20928222990E+02  0.85012168202E+02  0.87676285549E+02  0.10000000000E+01 0.  0.
    9000005    1    3    3    0    0 -0.16351660740E+01 -0.97186990814E+02  0.40879418142E+02  0.10545194061E+03  0.10000000000E+01 0.  0.
<mgrwt>
<rscale>  0 0.13983075E+03</rscale>
<asrwt>0</asrwt>
<pdfrwt beam="2">  1        2 0.74214469E-02 0.14645757E+03</pdfrwt>
<pdfrwt beam="1">  1       -2 0.63498057E-01 0.14645757E+03</pdfrwt>
<totfact> 0.21271895E+03</totfact>
</mgrwt>
</event>
<event>
 8    2  0.1628804E-003  0.1386829E+03  0.7818608E-02  0.1226938E+00
         -2   -1    0    0    0  501 -0.00000000000E+00  0.00000000000E+00  0.58683286661E+02  0.58683286717E+02  0.25500000000E-02 0.  1.
          2   -1    0    0  501    0  0.00000000000E+00 -0.00000000000E+00 -0.26691129125E+03  0.26691129127E+03  0.25500000000E-02 0. -1.
         25    2    1    2    0    0 -0.14973729289E+02 -0.58170248599E+02 -0.14309681276E+03  0.19927278494E+03  0.12499981843E+03 0.  0.
         23    2    1    2    0    0  0.14973729289E+02  0.58170248599E+02 -0.65131191836E+02  0.12632179304E+03  0.90039618258E+02 0.  0.
        -11    1    4    4    0    0 -0.27523410002E+02 -0.80902653927E+01 -0.10701411687E+02  0.30618796590E+02  0.51100000000E-03 0. -1.
         11    1    4    4    0    0  0.42497139291E+02  0.66260513991E+02 -0.54429780150E+02  0.95702996451E+02  0.51100000000E-03 0.  1.
    9000005    1    3    3    0    0  0.34428125680E+02 -0.35126971227E+02 -0.13558824783E+03  0.14423721050E+03  0.10000000000E+01 0.  0.
    9000005    1    3    3    0    0 -0.49401854969E+02 -0.23043277372E+02 -0.75085649301E+01  0.55035574438E+02  0.10000000000E+01 0.  0.
<mgrwt>
<rscale>  0 0.13034985E+03</rscale>
<asrwt>0</asrwt>
<pdfrwt beam="2">  1        2 0.41063275E-01 0.13868289E+03</pdfrwt>
<pdfrwt beam="1">  1       -2 0.90281981E-02 0.13868289E+03</pdfrwt>
<totfact> 0.91965650E+03</totfact>
</mgrwt>
</event>
<event>
 8    2  0.1628804E-003  0.1485513E+03  0.7818608E-02  0.1211366E+00
         -2   -1    0    0    0  501 -0.00000000000E+00  0.00000000000E+00  0.33167522348E+02  0.33167522446E+02  0.25500000000E-02 0. -1.
          2   -1    0    0  501    0  0.00000000000E+00 -0.00000000000E+00 -0.89083113128E+03  0.89083113128E+03  0.25500000000E-02 0.  1.
         25    2    1    2    0    0 -0.69076034374E+02  0.40869981615E+02 -0.73861972206E+03  0.75340996933E+03  0.12500253659E+03 0.  0.
         23    2    1    2    0    0  0.69076034374E+02 -0.40869981615E+02 -0.11904388687E+03  0.17058868439E+03  0.92125991554E+02 0.  0.
        -11    1    4    4    0    0  0.40896380059E+02 -0.36273644537E+02 -0.71755780259E+01  0.55134200912E+02  0.51100000000E-03 0.  1.
         11    1    4    4    0    0  0.28179654315E+02 -0.45963370771E+01 -0.11186830885E+03  0.11545448348E+03  0.51100000000E-03 0. -1.
    9000005    1    3    3    0    0 -0.90875772169E+00 -0.18366792625E+02 -0.46308552180E+03  0.46345157828E+03  0.10000000000E+01 0.  0.
    9000005    1    3    3    0    0 -0.68167276652E+02  0.59236774239E+02 -0.27553420026E+03  0.28995839105E+03  0.10000000000E+01 0.  0.
<mgrwt>
<rscale>  0 0.14146903E+03</rscale>
<asrwt>0</asrwt>
<pdfrwt beam="2">  1        2 0.13705092E+00 0.14855130E+03</pdfrwt>
<pdfrwt beam="1">  1       -2 0.51026964E-02 0.14855130E+03</pdfrwt>
<totfact> 0.57025538E+03</totfact>
</mgrwt>
</event>
<event>
 8    2  0.1628804E-003  0.2591807E+03  0.7818608E-02  0.1110191E+00
          2   -1    0    0  501    0  0.00000000000E+00  0.00000000000E+00  0.81585227073E+03  0.81585227074E+03  0.25500000000E-02 0. -1.
         -2   -1    0    0    0  501 -0.00000000000E+00 -0.00000000000E+00 -0.10043837142E+03  0.10043837145E+03  0.25500000000E-02 0.  1.
         25    2    1    2    0    0 -0.15746156974E+03  0.16356495058E+03  0.14649141975E+03  0.29771529377E+03  0.12500808406E+03 0.  0.
         23    2    1    2    0    0  0.15746156974E+03 -0.16356495058E+03  0.56892247957E+03  0.61857534842E+03  0.86110597018E+02 0.  0.
        -11    1    4    4    0    0  0.85758290458E+02 -0.58601571245E+02  0.35350499010E+03  0.36844864847E+03  0.51100000000E-03 0. -1.
         11    1    4    4    0    0  0.71703279283E+02 -0.10496337933E+03  0.21541748947E+03  0.25012669995E+03  0.51100000000E-03 0.  1.
    9000005    1    3    3    0    0 -0.10445356557E+03  0.14077628864E+03  0.16121479334E+03  0.23815902333E+03  0.10000000000E+01 0.  0.
    9000005    1    3    3    0    0 -0.53008004167E+02  0.22788661940E+02 -0.14723373587E+02  0.59556270438E+02  0.10000000000E+01 0.  0.
<mgrwt>
<rscale>  0 0.25499062E+03</rscale>
<asrwt>0</asrwt>
<pdfrwt beam="1">  1        2 0.12551573E+00 0.25918075E+03</pdfrwt>
<pdfrwt beam="2">  1       -2 0.15452058E-01 0.25918075E+03</pdfrwt>
<totfact> 0.11284004E+03</totfact>
</mgrwt>
</event>
<event>
 8    2  0.1628804E-003  0.2253849E+03  0.7818608E-02  0.1133216E+00
         -2   -1    0    0    0  501 -0.00000000000E+00  0.00000000000E+00  0.19875973108E+03  0.19875973110E+03  0.25500000000E-02 0.  1.
          2   -1    0    0  501    0  0.00000000000E+00 -0.00000000000E+00 -0.23628050916E+03  0.23628050918E+03  0.25500000000E-02 0. -1.
         25    2    1    2    0    0  0.15881066318E+03  0.99755227854E+02 -0.23446918718E+02  0.22660119908E+03  0.12500565268E+03 0.  0.
         23    2    1    2    0    0 -0.15881066318E+03 -0.99755227854E+02 -0.14073859364E+02  0.20843904120E+03  0.89871175334E+02 0.  0.
        -11    1    4    4    0    0 -0.89116123100E+02 -0.61417730066E+02 -0.52280495106E+02  0.12019596970E+03  0.51100000000E-03 0. -1.
         11    1    4    4    0    0 -0.69694540077E+02 -0.38337497788E+02  0.38206635741E+02  0.88243071502E+02  0.51100000000E-03 0.  1.
    9000005    1    3    3    0    0  0.17861897498E+03  0.99008142135E+02 -0.28276445623E+02  0.20617445965E+03  0.10000000000E+01 0.  0.
    9000005    1    3    3    0    0 -0.19808311806E+02  0.74708571840E+00  0.48295269045E+01  0.20426739432E+02  0.10000000000E+01 0.  0.
<mgrwt>
<rscale>  0 0.22089724E+03</rscale>
<asrwt>0</asrwt>
<pdfrwt beam="2">  1        2 0.36350847E-01 0.22538488E+03</pdfrwt>
<pdfrwt beam="1">  1       -2 0.30578420E-01 0.22538488E+03</pdfrwt>
<totfact> 0.13944865E+03</totfact>
</mgrwt>
</event>
<event>
 8    2  0.1628804E-003  0.1445316E+03  0.7818608E-02  0.1218623E+00
         -2   -1    0    0    0  501 -0.00000000000E+00  0.00000000000E+00  0.10045645209E+03  0.10045645213E+03  0.25500000000E-02 0. -1.
          2   -1    0    0  501    0  0.00000000000E+00 -0.00000000000E+00 -0.20000053340E+03  0.20000053342E+03  0.25500000000E-02 0.  1.
         25    2    1    2    0    0 -0.43702876122E+02  0.57913356709E+02  0.68463076453E+01  0.14469364663E+03  0.12500192471E+03 0.  0.
         23    2    1    2    0    0  0.43702876122E+02 -0.57913356709E+02 -0.10639038895E+03  0.15576333891E+03  0.87632212236E+02 0.  0.
        -11    1    4    4    0    0  0.10671905099E+02 -0.71273512809E+02 -0.93100569306E+02  0.11773495314E+03  0.51100000000E-03 0.  1.
         11    1    4    4    0    0  0.33030971024E+02  0.13360156100E+02 -0.13289819648E+02  0.38028385771E+02  0.51100000000E-03 0. -1.
    9000005    1    3    3    0    0 -0.84640404023E+01  0.29578660497E+02  0.64468891251E+02  0.71440710214E+02  0.10000000000E+01 0.  0.
    9000005    1    3    3    0    0 -0.35238835720E+02  0.28334696212E+02 -0.57622583606E+02  0.73252936417E+02  0.10000000000E+01 0.  0.
<mgrwt>
<rscale>  0 0.13613748E+03</rscale>
<asrwt>0</asrwt>
<pdfrwt beam="2">  1        2 0.30769313E-01 0.14453159E+03</pdfrwt>
<pdfrwt beam="1">  1       -2 0.15454839E-01 0.14453159E+03</pdfrwt>
<totfact> 0.53234371E+03</totfact>
</mgrwt>
</event>
<event>
 8    2  0.1628804E-003  0.1259748E+03  0.7818608E-02  0.1248857E+00
         -2   -1    0    0    0  501 -0.00000000000E+00  0.00000000000E+00  0.10729971544E+02  0.10729971847E+02  0.25500000000E-02 0. -1.
          2   -1    0    0  501    0  0.00000000000E+00 -0.00000000000E+00 -0.11221599404E+04  0.11221599405E+04  0.25500000000E-02 0.  1.
         25    2    1    2    0    0  0.12675016062E+01 -0.15498342481E+02 -0.58416689159E+03  0.59759569651E+03  0.12501141579E+03 0.  0.
         23    2    1    2    0    0 -0.12675016062E+01  0.15498342481E+02 -0.52726307732E+03  0.53529421579E+03  0.91058989551E+02 0.  0.
        -11    1    4    4    0    0  0.63653638239E+01  0.12819083327E+02 -0.52700638917E+03  0.52720070275E+03  0.51100000000E-03 0.  1.
         11    1    4    4    0    0 -0.76328654301E+01  0.26792591543E+01 -0.25668814736E+00  0.80935130417E+01  0.51100000000E-03 0. -1.
    9000005    1    3    3    0    0  0.57347443641E+02  0.11352089949E+02 -0.19794143188E+03  0.20639624437E+03  0.10000000000E+01 0.  0.
    9000005    1    3    3    0    0 -0.56079942035E+02 -0.26850432430E+02 -0.38622545971E+03  0.39119945213E+03  0.10000000000E+01 0.  0.
<mgrwt>
<rscale>  0 0.11657463E+03</rscale>
<asrwt>0</asrwt>
<pdfrwt beam="2">  1        2 0.17263990E+00 0.12597484E+03</pdfrwt>
<pdfrwt beam="1">  1       -2 0.16507658E-02 0.12597484E+03</pdfrwt>
<totfact> 0.21594593E+04</totfact>
</mgrwt>
</event>
<event>
 8    2  0.1628804E-003  0.1253712E+03  0.7818608E-02  0.1248151E+00
         -2   -1    0    0    0  501 -0.00000000000E+00  0.00000000000E+00  0.20592081774E+02  0.20592081932E+02  0.25500000000E-02 0.  1.
          2   -1    0    0  501    0  0.00000000000E+00 -0.00000000000E+00 -0.22690985109E+04  0.22690985109E+04  0.25500000000E-02 0. -1.
         25    2    1    2    0    0  0.85665612983E+01  0.46715460739E+01 -0.21468857394E+04  0.21505432587E+04  0.12499088101E+03 0.  0.
         23    2    1    2    0    0 -0.85665612983E+01 -0.46715460739E+01 -0.10162068979E+03  0.13914733416E+03  0.94551608636E+02 0.  0.
        -11    1    4    4    0    0 -0.12199208986E+02 -0.24444199612E+02  0.73878448738E+01  0.28300527321E+02  0.51100000000E-03 0.  1.
         11    1    4    4    0    0  0.36326476873E+01  0.19772653538E+02 -0.10900853466E+03  0.11084680684E+03  0.51100000000E-03 0. -1.
    9000005    1    3    3    0    0  0.42560740053E+02 -0.38249043054E+02 -0.15755637147E+04  0.15766028114E+04  0.10000000000E+01 0.  0.
    9000005    1    3    3    0    0 -0.33994178755E+02  0.42920589128E+02 -0.57132202469E+03  0.57394044731E+03  0.10000000000E+01 0.  0.
<mgrwt>
<rscale>  0 0.11698780E+03</rscale>
<asrwt>0</asrwt>
<pdfrwt beam="2">  1        2 0.34909188E+00 0.12537117E+03</pdfrwt>
<pdfrwt beam="1">  1       -2 0.31680144E-02 0.12537117E+03</pdfrwt>
<totfact> 0.21146458E+03</totfact>
</mgrwt>
</event>
<event>
 8    2  0.1628804E-003  0.1732029E+03  0.7818608E-02  0.1179611E+00
          2   -1    0    0  501    0  0.00000000000E+00  0.00000000000E+00  0.30854731385E+03  0.30854731386E+03  0.25500000000E-02 0. -1.
         -2   -1    0    0    0  501 -0.00000000000E+00 -0.00000000000E+00 -0.88545445726E+02  0.88545445763E+02  0.25500000000E-02 0.  1.
         25    2    1    2    0    0  0.40479493733E+02 -0.11285513437E+03  0.14234198221E+03  0.22418847113E+03  0.12499743965E+03 0.  0.
         23    2    1    2    0    0 -0.40479493733E+02  0.11285513437E+03  0.77659885909E+02  0.17290428849E+03  0.97416447965E+02 0.  0.
        -11    1    4    4    0    0  0.23862751743E+01  0.24805464699E+02 -0.21956645072E+02  0.33212944031E+02  0.51100000000E-03 0.  1.
         11    1    4    4    0    0 -0.42865768907E+02  0.88049669671E+02  0.99616530981E+02  0.13969134446E+03  0.51100000000E-03 0. -1.
    9000005    1    3    3    0    0 -0.45133335618E+02 -0.31132245082E+02  0.45794898834E+02  0.71445135783E+02  0.10000000000E+01 0.  0.
    9000005    1    3    3    0    0  0.85612829351E+02 -0.81722889288E+02  0.96547083378E+02  0.15274333534E+03  0.10000000000E+01 0.  0.
<mgrwt>
<rscale>  0 0.16832015E+03</rscale>
<asrwt>0</asrwt>
<pdfrwt beam="1">  1        2 0.47468818E-01 0.17320286E+03</pdfrwt>
<pdfrwt beam="2">  1       -2 0.13622376E-01 0.17320286E+03</pdfrwt>
<totfact> 0.41510381E+03</totfact>
</mgrwt>
</event>
<event>
 8    2  0.1628804E-003  0.2350691E+03  0.7818608E-02  0.1125900E+00
         -2   -1    0    0    0  501 -0.00000000000E+00  0.00000000000E+00  0.21532181148E+03  0.21532181149E+03  0.25500000000E-02 0.  1.
          2   -1    0    0  501    0  0.00000000000E+00 -0.00000000000E+00 -0.25396458773E+03  0.25396458774E+03  0.25500000000E-02 0. -1.
         25    2    1    2    0    0 -0.15991785645E+03 -0.11856735282E+03 -0.75286210971E+02  0.24683094613E+03  0.12500225773E+03 0.  0.
         23    2    1    2    0    0  0.15991785645E+03  0.11856735282E+03  0.36643434721E+02  0.22245545310E+03  0.92259142314E+02 0.  0.
        -11    1    4    4    0    0  0.57429530431E+02  0.33894969034E+01  0.36778151709E+02  0.68280832583E+02  0.51100000000E-03 0. -1.
         11    1    4    4    0    0  0.10248832602E+03  0.11517785591E+03 -0.13471698857E+00  0.15417462052E+03  0.51100000000E-03 0.  1.
    9000005    1    3    3    0    0 -0.13055856567E+03 -0.14220842476E+03 -0.79714761586E+02  0.20886411457E+03  0.10000000000E+01 0.  0.
    9000005    1    3    3    0    0 -0.29359290786E+02  0.23641071940E+02  0.44285506154E+01  0.37966831557E+02  0.10000000000E+01 0.  0.
<mgrwt>
<rscale>  0 0.23105434E+03</rscale>
<asrwt>0</asrwt>
<pdfrwt beam="2">  1        2 0.39071475E-01 0.23506914E+03</pdfrwt>
<pdfrwt beam="1">  1       -2 0.33126433E-01 0.23506914E+03</pdfrwt>
<totfact> 0.11142985E+03</totfact>
</mgrwt>
</event>
<event>
 8    2  0.1628804E-003  0.1461887E+03  0.7818608E-02  0.1214936E+00
         -2   -1    0    0    0  501 -0.00000000000E+00  0.00000000000E+00  0.40418640935E+02  0.40418641015E+02  0.25500000000E-02 0.  1.
          2   -1    0    0  501    0  0.00000000000E+00 -0.00000000000E+00 -0.64583892902E+03  0.64583892902E+03  0.25500000000E-02 0. -1.
         25    2    1    2    0    0  0.21354620160E+02 -0.72737819310E+02 -0.12812444074E+03  0.19438880950E+03  0.12499730711E+03 0.  0.
         23    2    1    2    0    0 -0.21354620160E+02  0.72737819310E+02 -0.47729584735E+03  0.49186876054E+03  0.91524540623E+02 0.  0.
        -11    1    4    4    0    0 -0.14385511221E+02  0.41833569294E+02 -0.44291010345E+03  0.44511386206E+03  0.51100000000E-03 0. -1.
         11    1    4    4    0    0 -0.69691089388E+01  0.30904250017E+02 -0.34385743893E+02  0.46754898480E+02  0.51100000000E-03 0.  1.
    9000005    1    3    3    0    0 -0.70443924494E+01 -0.44199230606E+02  0.13811063385E+02  0.46850196616E+02  0.10000000000E+01 0.  0.
    9000005    1    3    3    0    0  0.28399012610E+02 -0.28538588705E+02 -0.14193550412E+03  0.14753861289E+03  0.10000000000E+01 0.  0.
<mgrwt>
<rscale>  0 0.13881243E+03</rscale>
<asrwt>0</asrwt>
<pdfrwt beam="2">  1        2 0.99359828E-01 0.14618870E+03</pdfrwt>
<pdfrwt beam="1">  1       -2 0.62182529E-02 0.14618870E+03</pdfrwt>
<totfact> 0.62681542E+03</totfact>
</mgrwt>
</event>
<event>
 8    2  0.1628804E-003  0.1360090E+03  0.7818608E-02  0.1230780E+00
         -2   -1    0    0    0  501 -0.00000000000E+00  0.00000000000E+00  0.23222017022E+02  0.23222017162E+02  0.25500000000E-02 0. -1.
          2   -1    0    0  501    0  0.00000000000E+00 -0.00000000000E+00 -0.63203646328E+03  0.63203646329E+03  0.25500000000E-02 0.  1.
         25    2    1    2    0    0  0.39758614415E+02 -0.35968330248E+02 -0.32559021281E+03  0.35285610232E+03  0.12499589619E+03 0.  0.
         23    2    1    2    0    0 -0.39758614415E+02  0.35968330248E+02 -0.28322423345E+03  0.30240237813E+03  0.91415336154E+02 0.  0.
        -11    1    4    4    0    0 -0.12360691889E+02  0.33423833492E+02 -0.26914454315E+03  0.27149350721E+03  0.51100000000E-03 0.  1.
         11    1    4    4    0    0 -0.27397922526E+02  0.25444967560E+01 -0.14079690303E+02  0.30908870923E+02  0.51100000000E-03 0. -1.
    9000005    1    3    3    0    0  0.22057966559E+02  0.21461740917E+02 -0.11190136063E+02  0.32762468726E+02  0.10000000000E+01 0.  0.
    9000005    1    3    3    0    0  0.17700647856E+02 -0.57430071165E+02 -0.31440007675E+03  0.32009363359E+03  0.10000000000E+01 0.  0.
<mgrwt>
<rscale>  0 0.12778477E+03</rscale>
<asrwt>0</asrwt>
<pdfrwt beam="2">  1        2 0.97236366E-01 0.13600898E+03</pdfrwt>
<pdfrwt beam="1">  1       -2 0.35726185E-02 0.13600898E+03</pdfrwt>
<totfact> 0.14685448E+04</totfact>
</mgrwt>
</event>
<event>
 8    2  0.1628804E-003  0.1338153E+03  0.7818608E-02  0.1234460E+00
         -2   -1    0    0    0  501 -0.00000000000E+00  0.00000000000E+00  0.84185309896E+01  0.84185313758E+01  0.25500000000E-02 0. -1.
          2   -1    0    0  501    0  0.00000000000E+00 -0.00000000000E+00 -0.22037918863E+04  0.22037918863E+04  0.25500000000E-02 0.  1.
         25    2    1    2    0    0 -0.44540660349E+02 -0.17245996847E+02 -0.17471634656E+04  0.17522804283E+04  0.12500091619E+03 0.  0.
         23    2    1    2    0    0  0.44540660349E+02  0.17245996847E+02 -0.44820988974E+03  0.45992998941E+03  0.91445038480E+02 0.  0.
        -11    1    4    4    0    0  0.30973353590E+02  0.46871058126E+02 -0.15411594257E+03  0.16403648520E+03  0.51100000000E-03 0. -1.
         11    1    4    4    0    0  0.13567306758E+02 -0.29625061279E+02 -0.29409394718E+03  0.29589350421E+03  0.51100000000E-03 0.  1.
    9000005    1    3    3    0    0 -0.53015461309E+02 -0.52367591886E+02 -0.60896664391E+03  0.61350988355E+03  0.10000000000E+01 0.  0.
    9000005    1    3    3    0    0  0.84748009601E+01  0.35121595039E+02 -0.11381968217E+04  0.11387705448E+04  0.10000000000E+01 0.  0.
<mgrwt>
<rscale>  0 0.12539053E+03</rscale>
<asrwt>0</asrwt>
<pdfrwt beam="2">  1        2 0.33904445E+00 0.13381526E+03</pdfrwt>
<pdfrwt beam="1">  1       -2 0.12951604E-02 0.13381526E+03</pdfrwt>
<totfact> 0.83761547E+03</totfact>
</mgrwt>
</event>
<event>
 8    2  0.1628804E-003  0.1342032E+03  0.7818608E-02  0.1234812E+00
         -2   -1    0    0    0  501 -0.00000000000E+00  0.00000000000E+00  0.74654840274E+02  0.74654840318E+02  0.25500000000E-02 0.  1.
          2   -1    0    0  501    0  0.00000000000E+00 -0.00000000000E+00 -0.33691745622E+03  0.33691745623E+03  0.25500000000E-02 0. -1.
         25    2    1    2    0    0 -0.15795147308E+02  0.46220820411E+02 -0.42189059079E+01  0.13426945837E+03  0.12499854945E+03 0.  0.
         23    2    1    2    0    0  0.15795147308E+02 -0.46220820411E+02 -0.25804371004E+03  0.27730283818E+03  0.89019418417E+02 0.  0.
        -11    1    4    4    0    0  0.15766605874E+02 -0.44407070340E+00 -0.56128986392E+00  0.15782842144E+02  0.51100000000E-03 0.  1.
         11    1    4    4    0    0  0.28541433826E-01 -0.45776749708E+02 -0.25748242017E+03  0.26151999603E+03  0.51100000000E-03 0. -1.
    9000005    1    3    3    0    0 -0.65019797214E+02 -0.17782794974E+01 -0.71707225829E+01  0.65445821640E+02  0.10000000000E+01 0.  0.
    9000005    1    3    3    0    0  0.49224649906E+02  0.47999099909E+02  0.29518166750E+01  0.68823636726E+02  0.10000000000E+01 0.  0.
<mgrwt>
<rscale>  0 0.12516445E+03</rscale>
<asrwt>0</asrwt>
<pdfrwt beam="2">  1        2 0.51833454E-01 0.13420316E+03</pdfrwt>
<pdfrwt beam="1">  1       -2 0.11485360E-01 0.13420316E+03</pdfrwt>
<totfact> 0.49082480E+03</totfact>
</mgrwt>
</event>
<event>
 8    2  0.1628804E-003  0.1881847E+03  0.7818608E-02  0.1165039E+00
         -2   -1    0    0    0  501 -0.00000000000E+00  0.00000000000E+00  0.26156734682E+02  0.26156734807E+02  0.25500000000E-02 0.  1.
          2   -1    0    0  501    0  0.00000000000E+00 -0.00000000000E+00 -0.12622519342E+04  0.12622519342E+04  0.25500000000E-02 0. -1.
         25    2    1    2    0    0 -0.37042173681E+02  0.13570603414E+03 -0.78065382132E+03  0.80301549574E+03  0.12500098926E+03 0.  0.
         23    2    1    2    0    0  0.37042173681E+02 -0.13570603414E+03 -0.45544137820E+03  0.48539317327E+03  0.91604767081E+02 0.  0.
        -11    1    4    4    0    0  0.48054046276E+02 -0.45316675857E+02 -0.28050729332E+03  0.28817899660E+03  0.51100000000E-03 0. -1.
         11    1    4    4    0    0 -0.11011872595E+02 -0.90389358288E+02 -0.17493408488E+03  0.19721417667E+03  0.51100000000E-03 0.  1.
    9000005    1    3    3    0    0 -0.11531221120E+01  0.14153934836E+03 -0.48812469150E+03  0.50823363848E+03  0.10000000000E+01 0.  0.
    9000005    1    3    3    0    0 -0.35889051569E+02 -0.58333142144E+01 -0.29252912982E+03  0.29478185726E+03  0.10000000000E+01 0.  0.
<mgrwt>
<rscale>  0 0.18288594E+03</rscale>
<asrwt>0</asrwt>
<pdfrwt beam="2">  1        2 0.19419256E+00 0.18818474E+03</pdfrwt>
<pdfrwt beam="1">  1       -2 0.40241140E-02 0.18818474E+03</pdfrwt>
<totfact> 0.49715611E+03</totfact>
</mgrwt>
</event>
<event>
 8    2  0.1628804E-003  0.1359768E+03  0.7818608E-02  0.1242881E+00
          2   -1    0    0  501    0  0.00000000000E+00  0.00000000000E+00  0.47368174906E+03  0.47368174907E+03  0.25500000000E-02 0.  1.
         -2   -1    0    0    0  501 -0.00000000000E+00 -0.00000000000E+00 -0.29403324600E+02  0.29403324711E+02  0.25500000000E-02 0. -1.
         25    2    1    2    0    0  0.36587271539E+02  0.39067321869E+02  0.17661083293E+03  0.22289249258E+03  0.12499917146E+03 0.  0.
         23    2    1    2    0    0 -0.36587271539E+02 -0.39067321869E+02  0.26766759153E+03  0.28019258120E+03  0.63222297677E+02 0.  0.
        -11    1    4    4    0    0 -0.38622618415E+02 -0.17468305284E+02  0.73741728298E+02  0.85056985812E+02  0.51100000000E-03 0. -1.
         11    1    4    4    0    0  0.20353468762E+01 -0.21599016585E+02  0.19392586323E+03  0.19513559538E+03  0.51100000000E-03 0.  1.
    9000005    1    3    3    0    0 -0.13403695729E+02 -0.21825417276E+02 -0.39075102788E+01  0.25928296031E+02  0.10000000000E+01 0.  0.
    9000005    1    3    3    0    0  0.49990967268E+02  0.60892739146E+02  0.18051834321E+03  0.19696419655E+03  0.10000000000E+01 0.  0.
<mgrwt>
<rscale>  0 0.12013080E+03</rscale>
<asrwt>0</asrwt>
<pdfrwt beam="1">  1        2 0.72874109E-01 0.13597675E+03</pdfrwt>
<pdfrwt beam="2">  1       -2 0.45235888E-02 0.13597675E+03</pdfrwt>
<totfact> 0.14271752E+04</totfact>
</mgrwt>
</event>
<event>
 8    2  0.1628804E-003  0.1982965E+03  0.7818608E-02  0.1155064E+00
         -2   -1    0    0    0  501 -0.00000000000E+00  0.00000000000E+00  0.25271892448E+02  0.25271892577E+02  0.25500000000E-02 0.  1.
          2   -1    0    0  501    0  0.00000000000E+00 -0.00000000000E+00 -0.24589181707E+04  0.24589181707E+04  0.25500000000E-02 0. -1.
         25    2    1    2    0    0 -0.12470834505E+03  0.90246410751E+02 -0.20547151336E+04  0.20642615540E+04  0.12499958856E+03 0.  0.
         23    2    1    2    0    0  0.12470834505E+03 -0.90246410751E+02 -0.37893114468E+03  0.41992850930E+03  0.95155423036E+02 0.  0.
        -11    1    4    4    0    0  0.57320302638E+02 -0.69792611835E+02 -0.11207089191E+03  0.14393231248E+03  0.51100000000E-03 0.  1.
         11    1    4    4    0    0  0.67388042409E+02 -0.20453798916E+02 -0.26686025277E+03  0.27599619682E+03  0.51100000000E-03 0. -1.
    9000005    1    3    3    0    0 -0.14856786168E+03  0.71870550096E+02 -0.15815955853E+04  0.15901834425E+04  0.10000000000E+01 0.  0.
    9000005    1    3    3    0    0  0.23859516637E+02  0.18375860655E+02 -0.47311954828E+03  0.47407811145E+03  0.10000000000E+01 0.  0.
<mgrwt>
<rscale>  0 0.19381595E+03</rscale>
<asrwt>0</asrwt>
<pdfrwt beam="2">  1        2 0.37829491E+00 0.19829645E+03</pdfrwt>
<pdfrwt beam="1">  1       -2 0.38879854E-02 0.19829645E+03</pdfrwt>
<totfact> 0.12249282E+03</totfact>
</mgrwt>
</event>
<event>
 8    2  0.1628804E-003  0.1289957E+03  0.7818608E-02  0.1243134E+00
          2   -1    0    0  501    0  0.00000000000E+00  0.00000000000E+00  0.35480719451E+03  0.35480719452E+03  0.25500000000E-02 0. -1.
         -2   -1    0    0    0  501 -0.00000000000E+00 -0.00000000000E+00 -0.48271906920E+02  0.48271906988E+02  0.25500000000E-02 0.  1.
         25    2    1    2    0    0 -0.30537647363E+02  0.91185420143E+01  0.68152335756E+02  0.14589249546E+03  0.12499673455E+03 0.  0.
         23    2    1    2    0    0  0.30537647363E+02 -0.91185420143E+01  0.23838295183E+03  0.25718660605E+03  0.91119827103E+02 0.  0.
        -11    1    4    4    0    0 -0.47473181993E+01  0.27134147492E+02  0.22831584361E+02  0.35778208939E+02  0.51100000000E-03 0.  1.
         11    1    4    4    0    0  0.35284965562E+02 -0.36252689507E+02  0.21555136747E+03  0.22140839711E+03  0.51100000000E-03 0. -1.
    9000005    1    3    3    0    0 -0.11959664469E+02 -0.48714951675E+02  0.68782977256E+02  0.85136819596E+02  0.10000000000E+01 0.  0.
    9000005    1    3    3    0    0 -0.18577982894E+02  0.57833493689E+02 -0.63064149936E+00  0.60755675861E+02  0.10000000000E+01 0.  0.
<mgrwt>
<rscale>  0 0.11997746E+03</rscale>
<asrwt>0</asrwt>
<pdfrwt beam="1">  1        2 0.54585724E-01 0.12899566E+03</pdfrwt>
<pdfrwt beam="2">  1       -2 0.74264470E-02 0.12899566E+03</pdfrwt>
<totfact> 0.91517014E+03</totfact>
</mgrwt>
</event>
<event>
 8    2  0.1628804E-003  0.1799293E+03  0.7818608E-02  0.1173293E+00
         -2   -1    0    0    0  501 -0.00000000000E+00  0.00000000000E+00  0.48610110853E+02  0.48610110920E+02  0.25500000000E-02 0.  1.
          2   -1    0    0  501    0  0.00000000000E+00 -0.00000000000E+00 -0.59283767767E+03  0.59283767767E+03  0.25500000000E-02 0. -1.
         25    2    1    2    0    0 -0.11618676797E+03 -0.57008764967E+02 -0.30827964382E+03  0.35694660208E+03  0.12500069443E+03 0.  0.
         23    2    1    2    0    0  0.11618676797E+03  0.57008764967E+02 -0.23594792299E+03  0.28450118651E+03  0.92304595925E+02 0.  0.
        -11    1    4    4    0    0  0.56623964099E+02  0.37548652571E+02 -0.20224277539E+03  0.21335021635E+03  0.51100000000E-03 0. -1.
         11    1    4    4    0    0  0.59562803870E+02  0.19460112396E+02 -0.33705147598E+02  0.71150970156E+02  0.51100000000E-03 0.  1.
    9000005    1    3    3    0    0 -0.34481759267E+02  0.38637589853E+02 -0.11769617985E+03  0.12858944678E+03  0.10000000000E+01 0.  0.
    9000005    1    3    3    0    0 -0.81705008702E+02 -0.95646354820E+02 -0.19058346397E+03  0.22835715530E+03  0.10000000000E+01 0.  0.
<mgrwt>
<rscale>  0 0.17444195E+03</rscale>
<asrwt>0</asrwt>
<pdfrwt beam="2">  1        2 0.91205792E-01 0.17992926E+03</pdfrwt>
<pdfrwt beam="1">  1       -2 0.74784790E-02 0.17992926E+03</pdfrwt>
<totfact> 0.52648448E+03</totfact>
</mgrwt>
</event>
<event>
 8    2  0.1628804E-003  0.1301036E+03  0.7818608E-02  0.1241094E+00
         -2   -1    0    0    0  501 -0.00000000000E+00  0.00000000000E+00  0.87771133065E+01  0.87771136769E+01  0.25500000000E-02 0.  1.
          2   -1    0    0  501    0  0.00000000000E+00 -0.00000000000E+00 -0.16799200403E+04  0.16799200403E+04  0.25500000000E-02 0. -1.
         25    2    1    2    0    0  0.18429519790E+02  0.31018093563E+02 -0.12259305971E+04  0.12328149829E+04  0.12500073568E+03 0.  0.
         23    2    1    2    0    0 -0.18429519790E+02 -0.31018093563E+02 -0.44521232988E+03  0.45588217103E+03  0.91174370608E+02 0.  0.
        -11    1    4    4    0    0 -0.24353118987E+02  0.14303419067E+02 -0.33999374962E+03  0.34116478714E+03  0.51100000000E-03 0. -1.
         11    1    4    4    0    0  0.59235991966E+01 -0.45321512630E+02 -0.10521858026E+03  0.11471738389E+03  0.51100000000E-03 0.  1.
    9000005    1    3    3    0    0  0.32574139639E+02 -0.34564915004E+02 -0.82010890343E+03  0.82148367081E+03  0.10000000000E+01 0.  0.
    9000005    1    3    3    0    0 -0.14144619848E+02  0.65583008566E+02 -0.40582169365E+03  0.41133131211E+03  0.10000000000E+01 0.  0.
<mgrwt>
<rscale>  0 0.12122246E+03</rscale>
<asrwt>0</asrwt>
<pdfrwt beam="2">  1        2 0.25844898E+00 0.13010363E+03</pdfrwt>
<pdfrwt beam="1">  1       -2 0.13503265E-02 0.13010363E+03</pdfrwt>
<totfact> 0.14612240E+04</totfact>
</mgrwt>
</event>
<event>
 8    2  0.1628804E-003  0.1851627E+03  0.7818608E-02  0.1168126E+00
          2   -1    0    0  501    0  0.00000000000E+00  0.00000000000E+00  0.16417747077E+04  0.16417747077E+04  0.25500000000E-02 0.  1.
         -2   -1    0    0    0  501 -0.00000000000E+00 -0.00000000000E+00 -0.19873847115E+02  0.19873847278E+02  0.25500000000E-02 0. -1.
         25    2    1    2    0    0  0.13344484065E+03  0.29193492236E+02  0.10682776180E+04  0.10842058282E+04  0.12500169331E+03 0.  0.
         23    2    1    2    0    0 -0.13344484065E+03 -0.29193492236E+02  0.55362324256E+03  0.57744272674E+03  0.91003420147E+02 0.  0.
        -11    1    4    4    0    0 -0.64147402885E+02  0.31049313156E+02  0.27470603096E+03  0.28379984600E+03  0.51100000000E-03 0.  1.
         11    1    4    4    0    0 -0.69297437761E+02 -0.60242805391E+02  0.27891721160E+03  0.29364288074E+03  0.51100000000E-03 0. -1.
    9000005    1    3    3    0    0  0.14915247610E+03  0.45829541166E+02  0.10021435446E+04  0.10142186608E+04  0.10000000000E+01 0.  0.
    9000005    1    3    3    0    0 -0.15707635452E+02 -0.16636048930E+02  0.66134073384E+02  0.69987167380E+02  0.10000000000E+01 0.  0.
<mgrwt>
<rscale>  0 0.17966670E+03</rscale>
<asrwt>0</asrwt>
<pdfrwt beam="1">  1        2 0.25258076E+00 0.18516266E+03</pdfrwt>
<pdfrwt beam="2">  1       -2 0.30575146E-02 0.18516266E+03</pdfrwt>
<totfact> 0.46961646E+03</totfact>
</mgrwt>
</event>
<event>
 8    2  0.1628804E-003  0.1279804E+03  0.7818608E-02  0.1245787E+00
          2   -1    0    0  501    0  0.00000000000E+00  0.00000000000E+00  0.12674997441E+04  0.12674997441E+04  0.25500000000E-02 0. -1.
         -2   -1    0    0    0  501 -0.00000000000E+00 -0.00000000000E+00 -0.10722150218E+02  0.10722150521E+02  0.25500000000E-02 0.  1.
         25    2    1    2    0    0  0.26490026700E+02 -0.72212405162E+01  0.52036339097E+03  0.53587036996E+03  0.12500050767E+03 0.  0.
         23    2    1    2    0    0 -0.26490026700E+02  0.72212405162E+01  0.73641420296E+03  0.74235152470E+03  0.89588169306E+02 0.  0.
        -11    1    4    4    0    0 -0.50862536312E+02  0.29115569403E+01  0.24131985832E+03  0.24663890363E+03  0.51100000000E-03 0.  1.
         11    1    4    4    0    0  0.24372509612E+02  0.43096835759E+01  0.49509434464E+03  0.49571262107E+03  0.51100000000E-03 0. -1.
    9000005    1    3    3    0    0 -0.11285130315E+02  0.27993041964E+02  0.43534432246E+03  0.43639047155E+03  0.10000000000E+01 0.  0.
    9000005    1    3    3    0    0  0.37775157015E+02 -0.35214282480E+02  0.85019068506E+02  0.99479898410E+02  0.10000000000E+01 0.  0.
<mgrwt>
<rscale>  0 0.11838426E+03</rscale>
<asrwt>0</asrwt>
<pdfrwt beam="1">  1        2 0.19499998E+00 0.12798045E+03</pdfrwt>
<pdfrwt beam="2">  1       -2 0.16495615E-02 0.12798045E+03</pdfrwt>
<totfact> 0.17984910E+04</totfact>
</mgrwt>
</event>
<event>
 8    2  0.1628804E-003  0.1575527E+03  0.7818608E-02  0.1199549E+00
          2   -1    0    0  501    0  0.00000000000E+00  0.00000000000E+00  0.25806580902E+04  0.25806580902E+04  0.25500000000E-02 0. -1.
         -2   -1    0    0    0  501 -0.00000000000E+00 -0.00000000000E+00 -0.83306509193E+01  0.83306513096E+01  0.25500000000E-02 0.  1.
         25    2    1    2    0    0  0.88206153913E+02  0.37659879606E+02  0.15986738323E+04  0.16064186518E+04  0.12499708286E+03 0.  0.
         23    2    1    2    0    0 -0.88206153913E+02 -0.37659879606E+02  0.97365360691E+03  0.98257008961E+03  0.90796710525E+02 0.  0.
        -11    1    4    4    0    0 -0.50982352002E+02  0.21491307831E+02  0.28067186318E+03  0.28607301744E+03  0.51100000000E-03 0.  1.
         11    1    4    4    0    0 -0.37223801911E+02 -0.59151187437E+02  0.69298174373E+03  0.69649707218E+03  0.51100000000E-03 0. -1.
    9000005    1    3    3    0    0 -0.16718730597E+02  0.30882847462E+02  0.81061524371E+03  0.81137620100E+03  0.10000000000E+01 0.  0.
    9000005    1    3    3    0    0  0.10492488451E+03  0.67770321434E+01  0.78805858862E+03  0.79504245085E+03  0.10000000000E+01 0.  0.
<mgrwt>
<rscale>  0 0.15075473E+03</rscale>
<asrwt>0</asrwt>
<pdfrwt beam="1">  1        2 0.39702488E+00 0.15755273E+03</pdfrwt>
<pdfrwt beam="2">  1       -2 0.12816368E-02 0.15755273E+03</pdfrwt>
<totfact> 0.53832940E+03</totfact>
</mgrwt>
</event>
<event>
 8    2  0.1628804E-003  0.1685189E+03  0.7818608E-02  0.1186063E+00
         -2   -1    0    0    0  501 -0.00000000000E+00  0.00000000000E+00  0.13394879603E+03  0.13394879606E+03  0.25500000000E-02 0.  1.
          2   -1    0    0  501    0  0.00000000000E+00 -0.00000000000E+00 -0.19393788634E+03  0.19393788636E+03  0.25500000000E-02 0. -1.
         25    2    1    2    0    0 -0.30111165484E+02 -0.10893947879E+03 -0.69733215901E+02  0.18237695957E+03  0.12499656657E+03 0.  0.
         23    2    1    2    0    0  0.30111165484E+02  0.10893947879E+03  0.97441255923E+01  0.14550972285E+03  0.91124305940E+02 0.  0.
        -11    1    4    4    0    0 -0.10336759468E+02  0.10252244482E+03  0.15331449754E+02  0.10417655034E+03  0.51100000000E-03 0. -1.
         11    1    4    4    0    0  0.40447924953E+02  0.64170339692E+01 -0.55873241622E+01  0.41333172507E+02  0.51100000000E-03 0.  1.
    9000005    1    3    3    0    0  0.40307407314E+02 -0.33718998382E+01 -0.26256185803E+02  0.48233225952E+02  0.10000000000E+01 0.  0.
    9000005    1    3    3    0    0 -0.70418572798E+02 -0.10556757896E+03 -0.43477030099E+02  0.13414373361E+03  0.10000000000E+01 0.  0.
<mgrwt>
<rscale>  0 0.16235496E+03</rscale>
<asrwt>0</asrwt>
<pdfrwt beam="2">  1        2 0.29836598E-01 0.16851894E+03</pdfrwt>
<pdfrwt beam="1">  1       -2 0.20607507E-01 0.16851894E+03</pdfrwt>
<totfact> 0.34298296E+03</totfact>
</mgrwt>
</event>
<event>
 8    2  0.1628804E-003  0.1664888E+03  0.7818608E-02  0.1188604E+00
          2   -1    0    0  501    0  0.00000000000E+00  0.00000000000E+00  0.60689290750E+03  0.60689290751E+03  0.25500000000E-02 0. -1.
         -2   -1    0    0    0  501 -0.00000000000E+00 -0.00000000000E+00 -0.46753015118E+02  0.46753015188E+02  0.25500000000E-02 0.  1.
         25    2    1    2    0    0 -0.18095190530E+02 -0.10846609441E+03  0.16816346888E+03  0.23663784794E+03  0.12500475691E+03 0.  0.
         23    2    1    2    0    0  0.18095190530E+02  0.10846609441E+03  0.39197642350E+03  0.41700807476E+03  0.90321028995E+02 0.  0.
        -11    1    4    4    0    0  0.23850247188E+01  0.10515804627E+03  0.21547279008E+03  0.23977578340E+03  0.51100000000E-03 0.  1.
         11    1    4    4    0    0  0.15710165811E+02  0.33080481455E+01  0.17650363341E+03  0.17723229136E+03  0.51100000000E-03 0. -1.
    9000005    1    3    3    0    0 -0.42625067090E+02  0.11195916220E+02  0.50461268663E+02  0.67004361944E+02  0.10000000000E+01 0.  0.
    9000005    1    3    3    0    0  0.24529876560E+02 -0.11966201063E+03  0.11770220022E+03  0.16963348599E+03  0.10000000000E+01 0.  0.
<mgrwt>
<rscale>  0 0.16008199E+03</rscale>
<asrwt>0</asrwt>
<pdfrwt beam="1">  1        2 0.93368136E-01 0.16648879E+03</pdfrwt>
<pdfrwt beam="2">  1       -2 0.71927719E-02 0.16648879E+03</pdfrwt>
<totfact> 0.54238014E+03</totfact>
</mgrwt>
</event>
<event>
 8    2  0.1628804E-003  0.1302311E+03  0.7818608E-02  0.1240579E+00
         -2   -1    0    0    0  501 -0.00000000000E+00  0.00000000000E+00  0.86508914552E+03  0.86508914552E+03  0.25500000000E-02 0.  1.
          2   -1    0    0  501    0  0.00000000000E+00 -0.00000000000E+00 -0.22716923366E+02  0.22716923509E+02  0.25500000000E-02 0. -1.
         25    2    1    2    0    0  0.32701822343E+02  0.16093799155E+02  0.20531810598E+03  0.24313710583E+03  0.12502682924E+03 0.  0.
         23    2    1    2    0    0 -0.32701822343E+02 -0.16093799155E+02  0.63705411617E+03  0.64466896320E+03  0.91824319422E+02 0.  0.
        -11    1    4    4    0    0 -0.24828860925E+02  0.37022997402E+02  0.32211956074E+03  0.32518946183E+03  0.51100000000E-03 0. -1.
         11    1    4    4    0    0 -0.78729614179E+01 -0.53116796557E+02  0.31493455543E+03  0.31947950138E+03  0.51100000000E-03 0.  1.
    9000005    1    3    3    0    0  0.71119164054E+02  0.15072023410E+02  0.18683063855E+03  0.20047889886E+03  0.10000000000E+01 0.  0.
    9000005    1    3    3    0    0 -0.38417341710E+02  0.10217757444E+01  0.18487467432E+02  0.42658206969E+02  0.10000000000E+01 0.  0.
<mgrwt>
<rscale>  0 0.12153961E+03</rscale>
<asrwt>0</asrwt>
<pdfrwt beam="2">  1        2 0.34949114E-02 0.13023105E+03</pdfrwt>
<pdfrwt beam="1">  1       -2 0.13309063E+00 0.13023105E+03</pdfrwt>
<totfact> 0.10564717E+03</totfact>
</mgrwt>
</event>
<event>
 8    2  0.1628804E-003  0.3504899E+03  0.7818608E-02  0.1063482E+00
         -2   -1    0    0    0  501 -0.00000000000E+00  0.00000000000E+00  0.80837206026E+02  0.80837206066E+02  0.25500000000E-02 0.  1.
          2   -1    0    0  501    0  0.00000000000E+00 -0.00000000000E+00 -0.15243709481E+04  0.15243709482E+04  0.25500000000E-02 0. -1.
         25    2    1    2    0    0  0.60246817871E+02 -0.32185382014E+03 -0.87591309131E+03  0.94343356358E+03  0.12499433894E+03 0.  0.
         23    2    1    2    0    0 -0.60246817871E+02  0.32185382014E+03 -0.56762065081E+03  0.66177459063E+03  0.92373399737E+02 0.  0.
        -11    1    4    4    0    0  0.12831114699E+02  0.18159478526E+03 -0.30002122379E+03  0.35093309657E+03  0.51100000000E-03 0.  1.
         11    1    4    4    0    0 -0.73077932570E+02  0.14025903487E+03 -0.26759942702E+03  0.31084149407E+03  0.51100000000E-03 0. -1.
    9000005    1    3    3    0    0  0.39288606665E+02 -0.26001360421E+03 -0.53279757796E+03  0.59415900908E+03  0.10000000000E+01 0.  0.
    9000005    1    3    3    0    0  0.20958211206E+02 -0.61840215922E+02 -0.34311551335E+03  0.34927455451E+03  0.10000000000E+01 0.  0.
<mgrwt>
<rscale>  0 0.34789473E+03</rscale>
<asrwt>0</asrwt>
<pdfrwt beam="2">  1        2 0.23451859E+00 0.35048986E+03</pdfrwt>
<pdfrwt beam="1">  1       -2 0.12436494E-01 0.35048986E+03</pdfrwt>
<totfact> 0.61420255E+02</totfact>
</mgrwt>
</event>
<event>
 8    2  0.1628804E-003  0.2106722E+03  0.7818608E-02  0.1144788E+00
         -2   -1    0    0    0  501 -0.00000000000E+00  0.00000000000E+00  0.15405927129E+03  0.15405927131E+03  0.25500000000E-02 0.  1.
          2   -1    0    0  501    0  0.00000000000E+00 -0.00000000000E+00 -0.28494577858E+03  0.28494577859E+03  0.25500000000E-02 0. -1.
         25    2    1    2    0    0  0.14496653786E+03  0.87998805317E+02 -0.12788942424E+03  0.24645181902E+03  0.12499482961E+03 0.  0.
         23    2    1    2    0    0 -0.14496653786E+03 -0.87998805317E+02 -0.29970830424E+01  0.19255323088E+03  0.91151946658E+02 0.  0.
        -11    1    4    4    0    0 -0.54671382913E+02 -0.29131561341E+02  0.42948252207E+02  0.75380105756E+02  0.51100000000E-03 0. -1.
         11    1    4    4    0    0 -0.90295154945E+02 -0.58867243976E+02 -0.45945335250E+02  0.11717312512E+03  0.51100000000E-03 0.  1.
    9000005    1    3    3    0    0  0.92882871839E+02  0.11419838405E+03 -0.65701243770E+02  0.16120220915E+03  0.10000000000E+01 0.  0.
    9000005    1    3    3    0    0  0.52083666020E+02 -0.26199578738E+02 -0.62188180474E+02  0.85249609869E+02  0.10000000000E+01 0.  0.
<mgrwt>
<rscale>  0 0.20598236E+03</rscale>
<asrwt>0</asrwt>
<pdfrwt beam="2">  1        2 0.43837812E-01 0.21067224E+03</pdfrwt>
<pdfrwt beam="1">  1       -2 0.23701427E-01 0.21067224E+03</pdfrwt>
<totfact> 0.17921318E+03</totfact>
</mgrwt>
</event>
<event>
 8    2  0.1628804E-003  0.1268485E+03  0.7818608E-02  0.1246289E+00
          2   -1    0    0  501    0  0.00000000000E+00  0.00000000000E+00  0.23227477368E+02  0.23227477508E+02  0.25500000000E-02 0.  1.
         -2   -1    0    0    0  501 -0.00000000000E+00 -0.00000000000E+00 -0.62460906040E+03  0.62460906041E+03  0.25500000000E-02 0. -1.
         25    2    1    2    0    0 -0.20205502823E+02 -0.75959269820E+01 -0.46135922742E+03  0.47847976017E+03  0.12499833486E+03 0.  0.
         23    2    1    2    0    0  0.20205502823E+02  0.75959269820E+01 -0.14002235562E+03  0.16935677775E+03  0.92787378697E+02 0.  0.
        -11    1    4    4    0    0  0.55779685050E+01 -0.64356110226E+01  0.12702200468E+02  0.15293028440E+02  0.51100000000E-03 0.  1.
         11    1    4    4    0    0  0.14627534318E+02  0.14031538005E+02 -0.15272455609E+03  0.15406374931E+03  0.51100000000E-03 0. -1.
    9000005    1    3    3    0    0 -0.69511756988E+02  0.86443316143E+01 -0.32738477340E+03  0.33479605535E+03  0.10000000000E+01 0.  0.
    9000005    1    3    3    0    0  0.49306254165E+02 -0.16240258596E+02 -0.13397445402E+03  0.14368370481E+03  0.10000000000E+01 0.  0.
<mgrwt>
<rscale>  0 0.11808578E+03</rscale>
<asrwt>0</asrwt>
<pdfrwt beam="1">  1        2 0.35734585E-02 0.12684851E+03</pdfrwt>
<pdfrwt beam="2">  1       -2 0.96093689E-01 0.12684851E+03</pdfrwt>
<totfact> 0.22144941E+03</totfact>
</mgrwt>
</event>
<event>
 8    2  0.1628804E-003  0.2802990E+03  0.7818608E-02  0.1097357E+00
         -2   -1    0    0    0  501 -0.00000000000E+00  0.00000000000E+00  0.12171387525E+03  0.12171387527E+03  0.25500000000E-02 0.  1.
          2   -1    0    0  501    0  0.00000000000E+00 -0.00000000000E+00 -0.78282796471E+03  0.78282796472E+03  0.25500000000E-02 0. -1.
         25    2    1    2    0    0  0.20126887709E+03 -0.14977853226E+03 -0.12785665479E+03  0.30808252189E+03  0.12499898602E+03 0.  0.
         23    2    1    2    0    0 -0.20126887709E+03  0.14977853226E+03 -0.53325743467E+03  0.59645931810E+03  0.91964432790E+02 0.  0.
        -11    1    4    4    0    0 -0.16269172375E+03  0.74850300347E+02 -0.31271998237E+03  0.36036780074E+03  0.51100000000E-03 0. -1.
         11    1    4    4    0    0 -0.38577153343E+02  0.74928231918E+02 -0.22053745230E+03  0.23609151736E+03  0.51100000000E-03 0.  1.
    9000005    1    3    3    0    0  0.64311040500E+02 -0.11432964425E+03 -0.97350199184E+02  0.16335617149E+03  0.10000000000E+01 0.  0.
    9000005    1    3    3    0    0  0.13695783659E+03 -0.35448888017E+02 -0.30506455611E+02  0.14472635040E+03  0.10000000000E+01 0.  0.
<mgrwt>
<rscale>  0 0.27696735E+03</rscale>
<asrwt>0</asrwt>
<pdfrwt beam="2">  1        2 0.12043507E+00 0.28029898E+03</pdfrwt>
<pdfrwt beam="1">  1       -2 0.18725212E-01 0.28029898E+03</pdfrwt>
<totfact> 0.86070449E+02</totfact>
</mgrwt>
</event>
<event>
 8    2  0.1628804E-003  0.1333168E+03  0.7818608E-02  0.1234494E+00
         -2   -1    0    0    0  501 -0.00000000000E+00  0.00000000000E+00  0.26064917235E+03  0.26064917236E+03  0.25500000000E-02 0.  1.
          2   -1    0    0  501    0  0.00000000000E+00 -0.00000000000E+00 -0.92487432523E+02  0.92487432558E+02  0.25500000000E-02 0. -1.
         25    2    1    2    0    0  0.27935481007E+02 -0.36982876042E+02 -0.23101610669E+02  0.13530353591E+03  0.12500095277E+03 0.  0.
         23    2    1    2    0    0 -0.27935481007E+02  0.36982876042E+02  0.19126335050E+03  0.21783306902E+03  0.93388717166E+02 0.  0.
        -11    1    4    4    0    0  0.22710702726E+02  0.36136708088E+02  0.13747713775E+03  0.14394999511E+03  0.51100000000E-03 0.  1.
         11    1    4    4    0    0 -0.50646183733E+02  0.84616795322E+00  0.53786212749E+02  0.73883073901E+02  0.51100000000E-03 0. -1.
    9000005    1    3    3    0    0  0.36454331709E+02  0.15101700866E+02 -0.59344893305E+02  0.71272687832E+02  0.10000000000E+01 0.  0.
    9000005    1    3    3    0    0 -0.85188507019E+01 -0.52084576907E+02  0.36243282637E+02  0.64030848075E+02  0.10000000000E+01 0.  0.
<mgrwt>
<rscale>  0 0.12536900E+03</rscale>
<asrwt>0</asrwt>
<pdfrwt beam="2">  1        2 0.14228836E-01 0.13331677E+03</pdfrwt>
<pdfrwt beam="1">  1       -2 0.40099873E-01 0.13331677E+03</pdfrwt>
<totfact> 0.23758225E+03</totfact>
</mgrwt>
</event>
<event>
 8    2  0.1628804E-003  0.4877377E+03  0.7818608E-02  0.1017541E+00
          2   -1    0    0  501    0  0.00000000000E+00  0.00000000000E+00  0.80731000325E+03  0.80731000325E+03  0.25500000000E-02 0. -1.
         -2   -1    0    0    0  501 -0.00000000000E+00 -0.00000000000E+00 -0.32488464775E+03  0.32488464776E+03  0.25500000000E-02 0.  1.
         25    2    1    2    0    0 -0.35530021009E+03  0.30988005178E+03  0.57761080716E+02  0.49114597128E+03  0.12499654744E+03 0.  0.
         23    2    1    2    0    0  0.35530021009E+03 -0.30988005178E+03  0.42466427478E+03  0.64104867974E+03  0.91322383512E+02 0.  0.
        -11    1    4    4    0    0  0.12434169328E+03 -0.12233654643E+03  0.10161466511E+03  0.20187280016E+03  0.51100000000E-03 0.  1.
         11    1    4    4    0    0  0.23095851681E+03 -0.18754350535E+03  0.32304960967E+03  0.43917587957E+03  0.51100000000E-03 0. -1.
    9000005    1    3    3    0    0  0.78021832278E+01 -0.25689442542E+01 -0.16784720892E+01  0.84433883161E+01  0.10000000000E+01 0.  0.
    9000005    1    3    3    0    0 -0.36310239332E+03  0.31244899604E+03  0.59439552806E+02  0.48270258296E+03  0.10000000000E+01 0.  0.
<mgrwt>
<rscale>  0 0.48584528E+03</rscale>
<asrwt>0</asrwt>
<pdfrwt beam="1">  1        2 0.12420154E+00 0.48773766E+03</pdfrwt>
<pdfrwt beam="2">  1       -2 0.49982254E-01 0.48773766E+03</pdfrwt>
<totfact> 0.13290566E+02</totfact>
</mgrwt>
</event>
<event>
 8    2  0.1628804E-003  0.1349202E+03  0.7818608E-02  0.1232602E+00
         -2   -1    0    0    0  501 -0.00000000000E+00  0.00000000000E+00  0.27262745890E+03  0.27262745892E+03  0.25500000000E-02 0.  1.
          2   -1    0    0  501    0  0.00000000000E+00 -0.00000000000E+00 -0.65664923971E+02  0.65664924021E+02  0.25500000000E-02 0. -1.
         25    2    1    2    0    0  0.34611950892E+02 -0.37152229397E+02  0.18896587677E+03  0.23218861890E+03  0.12500070747E+03 0.  0.
         23    2    1    2    0    0 -0.34611950892E+02  0.37152229397E+02  0.17996658163E+02  0.10610376404E+03  0.91410359064E+02 0.  0.
        -11    1    4    4    0    0  0.41557426345E+01  0.41637807797E+01 -0.33312468863E+02  0.33827915236E+02  0.51100000000E-03 0. -1.
         11    1    4    4    0    0 -0.38767693527E+02  0.32988448617E+02  0.51309127026E+02  0.72275848802E+02  0.51100000000E-03 0.  1.
    9000005    1    3    3    0    0  0.71563536816E+01 -0.53025031007E+02  0.19292817924E+03  0.20021276097E+03  0.10000000000E+01 0.  0.
    9000005    1    3    3    0    0  0.27455597211E+02  0.15872801610E+02 -0.39623024717E+01  0.31975857925E+02  0.10000000000E+01 0.  0.
<mgrwt>
<rscale>  0 0.12659183E+03</rscale>
<asrwt>0</asrwt>
<pdfrwt beam="2">  1        2 0.10102296E-01 0.13492017E+03</pdfrwt>
<pdfrwt beam="1">  1       -2 0.41942686E-01 0.13492017E+03</pdfrwt>
<totfact> 0.32941600E+03</totfact>
</mgrwt>
</event>
<event>
 8    2  0.1628804E-003  0.1540042E+03  0.7818608E-02  0.1204377E+00
          2   -1    0    0  501    0  0.00000000000E+00  0.00000000000E+00  0.73053728029E+03  0.73053728029E+03  0.25500000000E-02 0. -1.
         -2   -1    0    0    0  501 -0.00000000000E+00 -0.00000000000E+00 -0.30202188490E+02  0.30202188598E+02  0.25500000000E-02 0.  1.
         25    2    1    2    0    0  0.78473925507E+02 -0.43960107645E+02  0.50140991801E+03  0.52452759326E+03  0.12500656850E+03 0.  0.
         23    2    1    2    0    0 -0.78473925507E+02  0.43960107645E+02  0.19892517379E+03  0.23621187563E+03  0.90189674418E+02 0.  0.
        -11    1    4    4    0    0 -0.73852758791E+02  0.15346408195E+02  0.19217968103E+03  0.20645283245E+03  0.51100000000E-03 0. -1.
         11    1    4    4    0    0 -0.46211667154E+01  0.28613699451E+02  0.67454927608E+01  0.29759043179E+02  0.51100000000E-03 0.  1.
    9000005    1    3    3    0    0  0.30539516459E+02  0.29596033396E+02  0.54823101031E+02  0.69391351514E+02  0.10000000000E+01 0.  0.
    9000005    1    3    3    0    0  0.47934409048E+02 -0.73556141041E+02  0.44658681698E+03  0.45513624175E+03  0.10000000000E+01 0.  0.
<mgrwt>
<rscale>  0 0.14686622E+03</rscale>
<asrwt>0</asrwt>
<pdfrwt beam="1">  1        2 0.11239035E+00 0.15400419E+03</pdfrwt>
<pdfrwt beam="2">  1       -2 0.46464905E-02 0.15400419E+03</pdfrwt>
<totfact> 0.84355189E+03</totfact>
</mgrwt>
</event>
<event>
 8    2  0.1628804E-003  0.1321706E+03  0.7818608E-02  0.1237650E+00
          2   -1    0    0  501    0  0.00000000000E+00  0.00000000000E+00  0.44064566788E+03  0.44064566789E+03  0.25500000000E-02 0. -1.
         -2   -1    0    0    0  501 -0.00000000000E+00 -0.00000000000E+00 -0.32003494289E+02  0.32003494391E+02  0.25500000000E-02 0.  1.
         25    2    1    2    0    0 -0.11367906832E+02 -0.41334611054E+02  0.18322600411E+03  0.22592217341E+03  0.12502511939E+03 0.  0.
         23    2    1    2    0    0  0.11367906832E+02  0.41334611054E+02  0.22541616948E+03  0.24672698887E+03  0.90686152170E+02 0.  0.
        -11    1    4    4    0    0 -0.32564245904E+02  0.42633668843E+02  0.15165378346E+03  0.16086307802E+03  0.51100000000E-03 0. -1.
         11    1    4    4    0    0  0.43932152736E+02 -0.12990577885E+01  0.73762386022E+02  0.85863910854E+02  0.51100000000E-03 0.  1.
    9000005    1    3    3    0    0  0.29436300187E+02 -0.32904525296E+02  0.68505374999E+01  0.44689298693E+02  0.10000000000E+01 0.  0.
    9000005    1    3    3    0    0 -0.40804207019E+02 -0.84300857582E+01  0.17637546661E+03  0.18123287472E+03  0.10000000000E+01 0.  0.
<mgrwt>
<rscale>  0 0.12336311E+03</rscale>
<asrwt>0</asrwt>
<pdfrwt beam="1">  1        2 0.67791632E-01 0.13217057E+03</pdfrwt>
<pdfrwt beam="2">  1       -2 0.49236152E-02 0.13217057E+03</pdfrwt>
<totfact> 0.13565976E+04</totfact>
</mgrwt>
</event>
<event>
 8    2  0.1628804E-003  0.1353020E+03  0.7818608E-02  0.1232030E+00
          2   -1    0    0  501    0  0.00000000000E+00  0.00000000000E+00  0.39053878266E+02  0.39053878350E+02  0.25500000000E-02 0. -1.
         -2   -1    0    0    0  501 -0.00000000000E+00 -0.00000000000E+00 -0.37017749921E+03  0.37017749922E+03  0.25500000000E-02 0.  1.
         25    2    1    2    0    0 -0.49164406022E+02 -0.16320484902E+02 -0.19588742089E+03  0.23807248404E+03  0.12499251556E+03 0.  0.
         23    2    1    2    0    0  0.49164406022E+02  0.16320484902E+02 -0.13523620006E+03  0.17115889354E+03  0.91230696500E+02 0.  0.
        -11    1    4    4    0    0  0.15857048827E+02 -0.35994414093E+02 -0.31906866720E+02  0.50646737186E+02  0.51100000000E-03 0. -1.
         11    1    4    4    0    0  0.33307357194E+02  0.52314898995E+02 -0.10332933334E+03  0.12051215635E+03  0.51100000000E-03 0.  1.
    9000005    1    3    3    0    0 -0.25156991381E+02  0.32922959065E+02 -0.78094983947E+01  0.42175629386E+02  0.10000000000E+01 0.  0.
    9000005    1    3    3    0    0 -0.24007414641E+02 -0.49243443966E+02 -0.18807792250E+03  0.19589685465E+03  0.10000000000E+01 0.  0.
<mgrwt>
<rscale>  0 0.12696513E+03</rscale>
<asrwt>0</asrwt>
<pdfrwt beam="1">  1        2 0.60082892E-02 0.13530198E+03</pdfrwt>
<pdfrwt beam="2">  1       -2 0.56950382E-01 0.13530198E+03</pdfrwt>
<totfact> 0.34678081E+03</totfact>
</mgrwt>
</event>
<event>
 8    2  0.1628804E-003  0.1920033E+03  0.7818608E-02  0.1161533E+00
          2   -1    0    0  501    0  0.00000000000E+00  0.00000000000E+00  0.22527350388E+03  0.22527350390E+03  0.25500000000E-02 0. -1.
         -2   -1    0    0    0  501 -0.00000000000E+00 -0.00000000000E+00 -0.14683089735E+03  0.14683089737E+03  0.25500000000E-02 0.  1.
         25    2    1    2    0    0 -0.88394539619E+02 -0.11588268492E+03  0.33536423304E+02  0.19491010917E+03  0.12499147040E+03 0.  0.
         23    2    1    2    0    0  0.88394539619E+02  0.11588268492E+03  0.44906183227E+02  0.17719429210E+03  0.90215633686E+02 0.  0.
        -11    1    4    4    0    0  0.40536185521E+02  0.90171571494E+02  0.66049360555E+02  0.11889748808E+03  0.51100000000E-03 0.  1.
         11    1    4    4    0    0  0.47858354098E+02  0.25711113423E+02 -0.21143177328E+02  0.58296804014E+02  0.51100000000E-03 0. -1.
    9000005    1    3    3    0    0 -0.24806946839E+02 -0.48524837896E+02  0.75575757135E+02  0.93181218982E+02  0.10000000000E+01 0.  0.
    9000005    1    3    3    0    0 -0.63587592780E+02 -0.67357847021E+02 -0.42039333831E+02  0.10172889019E+03  0.10000000000E+01 0.  0.
<mgrwt>
<rscale>  0 0.18663379E+03</rscale>
<asrwt>0</asrwt>
<pdfrwt beam="1">  1        2 0.34657462E-01 0.19200328E+03</pdfrwt>
<pdfrwt beam="2">  1       -2 0.22589369E-01 0.19200328E+03</pdfrwt>
<totfact> 0.25028690E+03</totfact>
</mgrwt>
</event>
<event>
 8    2  0.1628804E-003  0.1421113E+03  0.7818608E-02  0.1221000E+00
          2   -1    0    0  501    0  0.00000000000E+00  0.00000000000E+00  0.16676245771E+04  0.16676245771E+04  0.25500000000E-02 0.  1.
         -2   -1    0    0    0  501 -0.00000000000E+00 -0.00000000000E+00 -0.15203259056E+02  0.15203259270E+02  0.25500000000E-02 0. -1.
         25    2    1    2    0    0 -0.22404139472E+02  0.63787501236E+02  0.38652201695E+03  0.41181898906E+03  0.12499927752E+03 0.  0.
         23    2    1    2    0    0  0.22404139472E+02 -0.63787501236E+02  0.12658993011E+04  0.12710088473E+04  0.91605996907E+02 0.  0.
        -11    1    4    4    0    0 -0.15368341622E+01 -0.58417517481E+02  0.11857258430E+04  0.11871650024E+04  0.51100000000E-03 0.  1.
         11    1    4    4    0    0  0.23940973635E+02 -0.53699837559E+01  0.80173458037E+02  0.83843844843E+02  0.51100000000E-03 0. -1.
    9000005    1    3    3    0    0 -0.21172829743E+02  0.69768522604E+02  0.92745834832E+02  0.11797764765E+03  0.10000000000E+01 0.  0.
    9000005    1    3    3    0    0 -0.12313097292E+01 -0.59810213679E+01  0.29377618212E+03  0.29384134141E+03  0.10000000000E+01 0.  0.
<mgrwt>
<rscale>  0 0.13444890E+03</rscale>
<asrwt>0</asrwt>
<pdfrwt beam="1">  1        2 0.25655761E+00 0.14211126E+03</pdfrwt>
<pdfrwt beam="2">  1       -2 0.23389631E-02 0.14211126E+03</pdfrwt>
<totfact> 0.67151000E+03</totfact>
</mgrwt>
</event>
<event>
 8    2  0.1628804E-003  0.1944506E+03  0.7818608E-02  0.1159061E+00
         -2   -1    0    0    0  501 -0.00000000000E+00  0.00000000000E+00  0.33158699488E+02  0.33158699586E+02  0.25500000000E-02 0.  1.
          2   -1    0    0  501    0  0.00000000000E+00 -0.00000000000E+00 -0.10371658417E+04  0.10371658417E+04  0.25500000000E-02 0. -1.
         25    2    1    2    0    0  0.13889427081E+03 -0.53838174888E+02 -0.57898480848E+03  0.61076547250E+03  0.12498354458E+03 0.  0.
         23    2    1    2    0    0 -0.13889427081E+03  0.53838174888E+02 -0.42502233375E+03  0.45955906880E+03  0.91435146372E+02 0.  0.
        -11    1    4    4    0    0 -0.82315200779E+02  0.94130059405E+01 -0.33078635365E+03  0.34100441159E+03  0.51100000000E-03 0. -1.
         11    1    4    4    0    0 -0.56579070030E+02  0.44425168948E+02 -0.94235980096E+02  0.11855465721E+03  0.51100000000E-03 0.  1.
    9000005    1    3    3    0    0  0.14626908418E+03 -0.64011301935E+01 -0.43210749583E+03  0.45623843263E+03  0.10000000000E+01 0.  0.
    9000005    1    3    3    0    0 -0.73748133747E+01 -0.47437044695E+02 -0.14687731264E+03  0.15452703987E+03  0.10000000000E+01 0.  0.
<mgrwt>
<rscale>  0 0.18933654E+03</rscale>
<asrwt>0</asrwt>
<pdfrwt beam="2">  1        2 0.15956395E+00 0.19445065E+03</pdfrwt>
<pdfrwt beam="1">  1       -2 0.51013392E-02 0.19445065E+03</pdfrwt>
<totfact> 0.46811960E+03</totfact>
</mgrwt>
</event>
<event>
 8    2  0.1628804E-003  0.1421533E+03  0.7818608E-02  0.1220933E+00
         -2   -1    0    0    0  501 -0.00000000000E+00  0.00000000000E+00  0.87115542617E+02  0.87115542654E+02  0.25500000000E-02 0.  1.
          2   -1    0    0  501    0  0.00000000000E+00 -0.00000000000E+00 -0.18844705987E+03  0.18844705989E+03  0.25500000000E-02 0. -1.
         25    2    1    2    0    0 -0.62818043437E+02 -0.25238693279E+02 -0.50955953070E+02  0.15101017987E+03  0.12499786818E+03 0.  0.
         23    2    1    2    0    0  0.62818043437E+02  0.25238693279E+02 -0.50375564187E+02  0.12455242268E+03  0.91610645170E+02 0.  0.
        -11    1    4    4    0    0  0.90209977938E+01 -0.17341759940E+02 -0.52385502637E+02  0.55913825891E+02  0.51100000000E-03 0. -1.
         11    1    4    4    0    0  0.53797045643E+02  0.42580453219E+02  0.20099384494E+01  0.68638596789E+02  0.51100000000E-03 0.  1.
    9000005    1    3    3    0    0 -0.91861101207E+02 -0.30022484521E+02 -0.66877663252E+02  0.11753056340E+03  0.10000000000E+01 0.  0.
    9000005    1    3    3    0    0  0.29043057770E+02  0.47837912422E+01  0.15921710182E+02  0.33479616462E+02  0.10000000000E+01 0.  0.
<mgrwt>
<rscale>  0 0.13449580E+03</rscale>
<asrwt>0</asrwt>
<pdfrwt beam="2">  1        2 0.28991855E-01 0.14215332E+03</pdfrwt>
<pdfrwt beam="1">  1       -2 0.13402391E-01 0.14215332E+03</pdfrwt>
<totfact> 0.71542956E+03</totfact>
</mgrwt>
</event>
<event>
 8    2  0.1628804E-003  0.1304209E+03  0.7818608E-02  0.1240080E+00
         -2   -1    0    0    0  501 -0.00000000000E+00  0.00000000000E+00  0.19100724583E+02  0.19100724753E+02  0.25500000000E-02 0. -1.
          2   -1    0    0  501    0  0.00000000000E+00 -0.00000000000E+00 -0.94766516675E+03  0.94766516676E+03  0.25500000000E-02 0.  1.
         25    2    1    2    0    0  0.11272380327E+02 -0.35613656794E+02 -0.26020268298E+03  0.29105849748E+03  0.12495684703E+03 0.  0.
         23    2    1    2    0    0 -0.11272380327E+02  0.35613656794E+02 -0.66836175919E+03  0.67570739403E+03  0.92074111899E+02 0.  0.
        -11    1    4    4    0    0  0.17546095674E+02  0.44584964971E+01 -0.54404337605E+03  0.54434450368E+03  0.51100000000E-03 0.  1.
         11    1    4    4    0    0 -0.28818476001E+02  0.31155160297E+02 -0.12431838314E+03  0.13136289034E+03  0.51100000000E-03 0. -1.
    9000005    1    3    3    0    0  0.56375575506E+02 -0.47000173628E+02 -0.21070405389E+03  0.22312422585E+03  0.10000000000E+01 0.  0.
    9000005    1    3    3    0    0 -0.45103195179E+02  0.11386516834E+02 -0.49498629087E+02  0.67934271634E+02  0.10000000000E+01 0.  0.
<mgrwt>
<rscale>  0 0.12184754E+03</rscale>
<asrwt>0</asrwt>
<pdfrwt beam="2">  1        2 0.14579460E+00 0.13042091E+03</pdfrwt>
<pdfrwt beam="1">  1       -2 0.29385738E-02 0.13042091E+03</pdfrwt>
<totfact> 0.11850054E+04</totfact>
</mgrwt>
</event>
<event>
 8    2  0.1628804E-003  0.1527894E+03  0.7818608E-02  0.1206092E+00
         -2   -1    0    0    0  501 -0.00000000000E+00  0.00000000000E+00  0.16924363541E+03  0.16924363543E+03  0.25500000000E-02 0.  1.
          2   -1    0    0  501    0  0.00000000000E+00 -0.00000000000E+00 -0.24335003990E+03  0.24335003992E+03  0.25500000000E-02 0. -1.
         25    2    1    2    0    0  0.87370804838E+02 -0.92687126160E+01  0.11098642359E+03  0.18884542737E+03  0.12500017059E+03 0.  0.
         23    2    1    2    0    0 -0.87370804838E+02  0.92687126160E+01 -0.18509282808E+03  0.22374824797E+03  0.89913051847E+02 0.  0.
        -11    1    4    4    0    0 -0.34002775940E+02  0.42115518807E+02 -0.45415725501E+02  0.70657581469E+02  0.51100000000E-03 0. -1.
         11    1    4    4    0    0 -0.53368028898E+02 -0.32846806191E+02 -0.13967710258E+03  0.15309066651E+03  0.51100000000E-03 0.  1.
    9000005    1    3    3    0    0  0.15827198922E+01 -0.54922326163E+02  0.31855144445E+02  0.63519423337E+02  0.10000000000E+01 0.  0.
    9000005    1    3    3    0    0  0.85788084946E+02  0.45653613547E+02  0.79131279141E+02  0.12532600403E+03  0.10000000000E+01 0.  0.
<mgrwt>
<rscale>  0 0.14551762E+03</rscale>
<asrwt>0</asrwt>
<pdfrwt beam="2">  1        2 0.37438468E-01 0.15278943E+03</pdfrwt>
<pdfrwt beam="1">  1       -2 0.26037482E-01 0.15278943E+03</pdfrwt>
<totfact> 0.17823008E+03</totfact>
</mgrwt>
</event>
<event>
 8    2  0.1628804E-003  0.1282160E+03  0.7818608E-02  0.1244653E+00
          2   -1    0    0  501    0  0.00000000000E+00  0.00000000000E+00  0.29235830180E+03  0.29235830181E+03  0.25500000000E-02 0. -1.
         -2   -1    0    0    0  501 -0.00000000000E+00 -0.00000000000E+00 -0.42815663023E+02  0.42815663098E+02  0.25500000000E-02 0.  1.
         25    2    1    2    0    0 -0.47257978781E+01 -0.28144831152E+02  0.13590330076E+03  0.18683963288E+03  0.12499950628E+03 0.  0.
         23    2    1    2    0    0  0.47257978781E+01  0.28144831152E+02  0.11363933802E+03  0.14833433203E+03  0.90965434247E+02 0.  0.
        -11    1    4    4    0    0  0.19733409839E+02 -0.26712384172E+02  0.19974296122E+02  0.38754760196E+02  0.51100000000E-03 0.  1.
         11    1    4    4    0    0 -0.15007611961E+02  0.54857215324E+02  0.93665041896E+02  0.10957957184E+03  0.51100000000E-03 0. -1.
    9000005    1    3    3    0    0 -0.43390652555E+02 -0.13461314700E+02  0.69880497362E+00  0.45447156688E+02  0.10000000000E+01 0.  0.
    9000005    1    3    3    0    0  0.38664854677E+02 -0.14683516452E+02  0.13520449578E+03  0.14139247619E+03  0.10000000000E+01 0.  0.
<mgrwt>
<rscale>  0 0.11906174E+03</rscale>
<asrwt>0</asrwt>
<pdfrwt beam="1">  1        2 0.44978200E-01 0.12821599E+03</pdfrwt>
<pdfrwt beam="2">  1       -2 0.65870252E-02 0.12821599E+03</pdfrwt>
<totfact> 0.13486635E+04</totfact>
</mgrwt>
</event>
<event>
 8    2  0.1628804E-003  0.1256694E+03  0.7818608E-02  0.1248914E+00
         -2   -1    0    0    0  501 -0.00000000000E+00  0.00000000000E+00  0.73420566656E+01  0.73420571084E+01  0.25500000000E-02 0.  1.
          2   -1    0    0  501    0  0.00000000000E+00 -0.00000000000E+00 -0.16295732278E+04  0.16295732278E+04  0.25500000000E-02 0. -1.
         25    2    1    2    0    0  0.71925161186E+01  0.10727839505E+02 -0.96207397697E+03  0.97024694340E+03  0.12500390069E+03 0.  0.
         23    2    1    2    0    0 -0.71925161186E+01 -0.10727839505E+02 -0.66015719415E+03  0.66666834149E+03  0.92045302619E+02 0.  0.
        -11    1    4    4    0    0  0.19749248219E+02  0.23675546506E+01 -0.59060084058E+03  0.59093569110E+03  0.51100000000E-03 0. -1.
         11    1    4    4    0    0 -0.26941764337E+02 -0.13095394156E+02 -0.69556353567E+02  0.75732650392E+02  0.51100000000E-03 0.  1.
    9000005    1    3    3    0    0 -0.63258896336E+00 -0.57232410930E+02 -0.44378413850E+03  0.44746095988E+03  0.10000000000E+01 0.  0.
    9000005    1    3    3    0    0  0.78251050820E+01  0.67960250435E+02 -0.51828983847E+03  0.52278598353E+03  0.10000000000E+01 0.  0.
<mgrwt>
<rscale>  0 0.11654162E+03</rscale>
<asrwt>0</asrwt>
<pdfrwt beam="2">  1        2 0.25070329E+00 0.12566938E+03</pdfrwt>
<pdfrwt beam="1">  1       -2 0.11295485E-02 0.12566938E+03</pdfrwt>
<totfact> 0.19992539E+04</totfact>
</mgrwt>
</event>
<event>
 8    2  0.1628804E-003  0.1320934E+03  0.7818608E-02  0.1237920E+00
         -2   -1    0    0    0  501 -0.00000000000E+00  0.00000000000E+00  0.61549576190E+01  0.61549581472E+01  0.25500000000E-02 0.  1.
          2   -1    0    0  501    0  0.00000000000E+00 -0.00000000000E+00 -0.23716856260E+04  0.23716856260E+04  0.25500000000E-02 0. -1.
         25    2    1    2    0    0  0.27920256094E+02 -0.32314847857E+02 -0.10048271980E+04  0.10134724278E+04  0.12499949574E+03 0.  0.
         23    2    1    2    0    0 -0.27920256094E+02  0.32314847857E+02 -0.13607034704E+04  0.13643681564E+04  0.90347892702E+02 0.  0.
        -11    1    4    4    0    0 -0.24403072533E+02  0.47273934551E+02 -0.39775927261E+03  0.40130135034E+03  0.51100000000E-03 0.  1.
         11    1    4    4    0    0 -0.35171835604E+01 -0.14959086694E+02 -0.96294419782E+03  0.96306680608E+03  0.51100000000E-03 0. -1.
    9000005    1    3    3    0    0  0.77040968642E+02 -0.27414428936E+02 -0.56630526939E+03  0.57217962206E+03  0.10000000000E+01 0.  0.
    9000005    1    3    3    0    0 -0.49120712548E+02 -0.49004189216E+01 -0.43852192861E+03  0.44129280571E+03  0.10000000000E+01 0.  0.
<mgrwt>
<rscale>  0 0.12319346E+03</rscale>
<asrwt>0</asrwt>
<pdfrwt beam="2">  1        2 0.36487398E+00 0.13209339E+03</pdfrwt>
<pdfrwt beam="1">  1       -2 0.94691849E-03 0.13209339E+03</pdfrwt>
<totfact> 0.10720469E+04</totfact>
</mgrwt>
</event>
<event>
 8    2  0.1628804E-003  0.1433679E+03  0.7818608E-02  0.1217997E+00
          2   -1    0    0  501    0  0.00000000000E+00  0.00000000000E+00  0.21586753676E+03  0.21586753677E+03  0.25500000000E-02 0. -1.
         -2   -1    0    0    0  501 -0.00000000000E+00 -0.00000000000E+00 -0.13217887089E+03  0.13217887091E+03  0.25500000000E-02 0.  1.
         25    2    1    2    0    0  0.16317429598E+02 -0.68283726733E+02 -0.65619599050E+02  0.15767149218E+03  0.12500176728E+03 0.  0.
         23    2    1    2    0    0 -0.16317429598E+02  0.68283726733E+02  0.14930826492E+03  0.19037491550E+03  0.94977495411E+02 0.  0.
        -11    1    4    4    0    0 -0.28641707705E+02 -0.33173744719E+01  0.96069044261E+02  0.10030261043E+03  0.51100000000E-03 0. -1.
         11    1    4    4    0    0  0.12324278107E+02  0.71601101205E+02  0.53239220657E+02  0.90072305072E+02  0.51100000000E-03 0.  1.
    9000005    1    3    3    0    0  0.21375908621E+02  0.32560617161E+02 -0.34409642349E+02  0.51982177195E+02  0.10000000000E+01 0.  0.
    9000005    1    3    3    0    0 -0.50584790238E+01 -0.10084434389E+03 -0.31209956701E+02  0.10568931499E+03  0.10000000000E+01 0.  0.
<mgrwt>
<rscale>  0 0.13658703E+03</rscale>
<asrwt>0</asrwt>
<pdfrwt beam="1">  1        2 0.33210390E-01 0.14336795E+03</pdfrwt>
<pdfrwt beam="2">  1       -2 0.20335211E-01 0.14336795E+03</pdfrwt>
<totfact> 0.30997129E+03</totfact>
</mgrwt>
</event>
<event>
 8    2  0.1628804E-003  0.1738721E+03  0.7818608E-02  0.1176359E+00
          2   -1    0    0  501    0  0.00000000000E+00  0.00000000000E+00  0.63135008502E+03  0.63135008503E+03  0.25500000000E-02 0. -1.
         -2   -1    0    0    0  501 -0.00000000000E+00 -0.00000000000E+00 -0.45416933114E+02  0.45416933185E+02  0.25500000000E-02 0.  1.
         25    2    1    2    0    0  0.17273639528E+02 -0.11961111671E+03  0.31898079399E+03  0.36329086750E+03  0.12500523833E+03 0.  0.
         23    2    1    2    0    0 -0.17273639528E+02  0.11961111671E+03  0.26695235792E+03  0.31347615071E+03  0.11134872161E+03 0.  0.
        -11    1    4    4    0    0  0.11715170069E+02 -0.16559622237E+02  0.13697026771E+02  0.24476005414E+02  0.51100000000E-03 0. -1.
         11    1    4    4    0    0 -0.28988809597E+02  0.13617073895E+03  0.25325533115E+03  0.28900014530E+03  0.51100000000E-03 0.  1.
    9000005    1    3    3    0    0 -0.11497602577E+02  0.24179093366E+02  0.59142104493E+02  0.64927744030E+02  0.10000000000E+01 0.  0.
    9000005    1    3    3    0    0  0.28771242105E+02 -0.14379021008E+03  0.25983868950E+03  0.29836312347E+03  0.10000000000E+01 0.  0.
<mgrwt>
<rscale>  0 0.17143536E+03</rscale>
<asrwt>0</asrwt>
<pdfrwt beam="1">  1        2 0.97130774E-01 0.17387210E+03</pdfrwt>
<pdfrwt beam="2">  1       -2 0.69872211E-02 0.17387210E+03</pdfrwt>
<totfact> 0.54286638E+03</totfact>
</mgrwt>
</event>
<event>
 8    2  0.1628804E-003  0.1310801E+03  0.7818608E-02  0.1238804E+00
         -2   -1    0    0    0  501 -0.00000000000E+00  0.00000000000E+00  0.60729149787E+02  0.60729149841E+02  0.25500000000E-02 0.  1.
          2   -1    0    0  501    0  0.00000000000E+00 -0.00000000000E+00 -0.22131133348E+03  0.22131133349E+03  0.25500000000E-02 0. -1.
         25    2    1    2    0    0 -0.14182401949E+02 -0.36818044264E+02 -0.98446389536E+02  0.16393196551E+03  0.12500115517E+03 0.  0.
         23    2    1    2    0    0  0.14182401949E+02  0.36818044264E+02 -0.62135794154E+02  0.11810851783E+03  0.92369129905E+02 0.  0.
        -11    1    4    4    0    0  0.13585745052E+02  0.65155712482E+02 -0.24345470923E+02  0.70869889886E+02  0.51100000000E-03 0.  1.
         11    1    4    4    0    0  0.59665689754E+00 -0.28337668218E+02 -0.37790323231E+02  0.47238627940E+02  0.51100000000E-03 0. -1.
    9000005    1    3    3    0    0 -0.25540394334E+02 -0.58577580324E+02 -0.11688445182E+03  0.13321643944E+03  0.10000000000E+01 0.  0.
    9000005    1    3    3    0    0  0.11357992384E+02  0.21759536060E+02  0.18438062287E+02  0.30715526065E+02  0.10000000000E+01 0.  0.
<mgrwt>
<rscale>  0 0.12264007E+03</rscale>
<asrwt>0</asrwt>
<pdfrwt beam="2">  1        2 0.34047897E-01 0.13108012E+03</pdfrwt>
<pdfrwt beam="1">  1       -2 0.93429462E-02 0.13108012E+03</pdfrwt>
<totfact> 0.10601455E+04</totfact>
</mgrwt>
</event>
<event>
 8    2  0.1628804E-003  0.1353068E+03  0.7818608E-02  0.1231395E+00
         -2   -1    0    0    0  501 -0.00000000000E+00  0.00000000000E+00  0.14619129063E+02  0.14619129285E+02  0.25500000000E-02 0.  1.
          2   -1    0    0  501    0  0.00000000000E+00 -0.00000000000E+00 -0.99974973594E+03  0.99974973595E+03  0.25500000000E-02 0. -1.
         25    2    1    2    0    0  0.47660220193E+02 -0.20278811515E+02 -0.53113452452E+03  0.54809835606E+03  0.12500079197E+03 0.  0.
         23    2    1    2    0    0 -0.47660220193E+02  0.20278811515E+02 -0.45399608236E+03  0.46627050917E+03  0.92806347513E+02 0.  0.
        -11    1    4    4    0    0 -0.80135846802E+01  0.39793969390E+02 -0.80361882819E+02  0.90032270602E+02  0.51100000000E-03 0.  1.
         11    1    4    4    0    0 -0.39646635513E+02 -0.19515157875E+02 -0.37363419954E+03  0.37623823857E+03  0.51100000000E-03 0. -1.
    9000005    1    3    3    0    0  0.30569345067E+02 -0.27862575075E+02 -0.43243715236E+02  0.59848365517E+02  0.10000000000E+01 0.  0.
    9000005    1    3    3    0    0  0.17090875126E+02  0.75837635603E+01 -0.48789080929E+03  0.48824999055E+03  0.10000000000E+01 0.  0.
<mgrwt>
<rscale>  0 0.12738082E+03</rscale>
<asrwt>0</asrwt>
<pdfrwt beam="2">  1        2 0.15380760E+00 0.13530678E+03</pdfrwt>
<pdfrwt beam="1">  1       -2 0.22490976E-02 0.13530678E+03</pdfrwt>
<totfact> 0.16329923E+04</totfact>
</mgrwt>
</event>
<event>
 8    2  0.1628804E-003  0.1368760E+03  0.7818608E-02  0.1229703E+00
         -2   -1    0    0    0  501 -0.00000000000E+00  0.00000000000E+00  0.11435672251E+02  0.11435672535E+02  0.25500000000E-02 0.  1.
          2   -1    0    0  501    0  0.00000000000E+00 -0.00000000000E+00 -0.16408177886E+04  0.16408177886E+04  0.25500000000E-02 0. -1.
         25    2    1    2    0    0 -0.28466412328E+02 -0.47808960597E+02 -0.51733780276E+03  0.53513871630E+03  0.12505602815E+03 0.  0.
         23    2    1    2    0    0  0.28466412328E+02  0.47808960597E+02 -0.11120443136E+04  0.11171147449E+04  0.90591193828E+02 0.  0.
        -11    1    4    4    0    0 -0.30366298160E+02  0.25806361135E+02 -0.58176251136E+03  0.58312580115E+03  0.51100000000E-03 0. -1.
         11    1    4    4    0    0  0.58832710487E+02  0.22002599462E+02 -0.53028180224E+03  0.53398894370E+03  0.51100000000E-03 0.  1.
    9000005    1    3    3    0    0 -0.52872304401E+01 -0.73600606321E+02 -0.16089698963E+03  0.17701368684E+03  0.10000000000E+01 0.  0.
    9000005    1    3    3    0    0 -0.23179181887E+02  0.25791645724E+02 -0.35644081313E+03  0.35812502946E+03  0.10000000000E+01 0.  0.
<mgrwt>
<rscale>  0 0.12849723E+03</rscale>
<asrwt>0</asrwt>
<pdfrwt beam="2">  1        2 0.25243332E+00 0.13687602E+03</pdfrwt>
<pdfrwt beam="1">  1       -2 0.17593355E-02 0.13687602E+03</pdfrwt>
<totfact> 0.10472206E+04</totfact>
</mgrwt>
</event>
<event>
 8    2  0.1628804E-003  0.1944158E+03  0.7818608E-02  0.1159207E+00
          2   -1    0    0  501    0  0.00000000000E+00  0.00000000000E+00  0.25301944804E+03  0.25301944806E+03  0.25500000000E-02 0. -1.
         -2   -1    0    0    0  501 -0.00000000000E+00 -0.00000000000E+00 -0.13641457326E+03  0.13641457328E+03  0.25500000000E-02 0.  1.
         25    2    1    2    0    0 -0.86787519921E+02  0.12099826743E+03  0.37336509281E+02  0.19796849765E+03  0.12499942720E+03 0.  0.
         23    2    1    2    0    0  0.86787519921E+02 -0.12099826743E+03  0.79268365506E+02  0.19146552368E+03  0.90569965517E+02 0.  0.
        -11    1    4    4    0    0  0.80808129292E+02 -0.76385805788E+02  0.92400814742E+02  0.14457750742E+03  0.51100000000E-03 0.  1.
         11    1    4    4    0    0  0.59793906290E+01 -0.44612461646E+02 -0.13132449235E+02  0.46888016269E+02  0.51100000000E-03 0. -1.
    9000005    1    3    3    0    0 -0.61789926262E+02 -0.12860935788E+01  0.39097812002E+02  0.73138826402E+02  0.10000000000E+01 0.  0.
    9000005    1    3    3    0    0 -0.24997593659E+02  0.12228436101E+03 -0.17613027209E+01  0.12482967125E+03  0.10000000000E+01 0.  0.
<mgrwt>
<rscale>  0 0.18917523E+03</rscale>
<asrwt>0</asrwt>
<pdfrwt beam="1">  1        2 0.38926069E-01 0.19441582E+03</pdfrwt>
<pdfrwt beam="2">  1       -2 0.20986857E-01 0.19441582E+03</pdfrwt>
<totfact> 0.25078004E+03</totfact>
</mgrwt>
</event>
<event>
 8    2  0.1628804E-003  0.1355124E+03  0.7818608E-02  0.1231543E+00
          2   -1    0    0  501    0  0.00000000000E+00  0.00000000000E+00  0.10408167915E+04  0.10408167915E+04  0.25500000000E-02 0. -1.
         -2   -1    0    0    0  501 -0.00000000000E+00 -0.00000000000E+00 -0.14243404302E+02  0.14243404531E+02  0.25500000000E-02 0.  1.
         25    2    1    2    0    0  0.22499587354E+02 -0.47248084196E+02  0.50073318137E+03  0.51874591227E+03  0.12499995871E+03 0.  0.
         23    2    1    2    0    0 -0.22499587354E+02  0.47248084196E+02  0.52584020585E+03  0.53631428379E+03  0.91577704799E+02 0.  0.
        -11    1    4    4    0    0 -0.24154250191E+02 -0.73583005310E+01  0.37563150403E+03  0.37647921484E+03  0.51100000000E-03 0. -1.
         11    1    4    4    0    0  0.16546628375E+01  0.54606384727E+02  0.15020870182E+03  0.15983506894E+03  0.51100000000E-03 0.  1.
    9000005    1    3    3    0    0 -0.60914403758E+01  0.37795567274E+02  0.23926888451E+03  0.24231427867E+03  0.10000000000E+01 0.  0.
    9000005    1    3    3    0    0  0.28591027730E+02 -0.85043651470E+02  0.26146429685E+03  0.27643163359E+03  0.10000000000E+01 0.  0.
<mgrwt>
<rscale>  0 0.12728351E+03</rscale>
<asrwt>0</asrwt>
<pdfrwt beam="1">  1        2 0.16012574E+00 0.13551237E+03</pdfrwt>
<pdfrwt beam="2">  1       -2 0.21912918E-02 0.13551237E+03</pdfrwt>
<totfact> 0.16039565E+04</totfact>
</mgrwt>
</event>
<event>
 8    2  0.1628804E-003  0.1271604E+03  0.7818608E-02  0.1246716E+00
          2   -1    0    0  501    0  0.00000000000E+00  0.00000000000E+00  0.54482345345E+03  0.54482345345E+03  0.25500000000E-02 0. -1.
         -2   -1    0    0    0  501 -0.00000000000E+00 -0.00000000000E+00 -0.27151877154E+02  0.27151877274E+02  0.25500000000E-02 0.  1.
         25    2    1    2    0    0 -0.23014864455E+02 -0.39358872743E+01  0.17254116865E+03  0.21433669250E+03  0.12499835070E+03 0.  0.
         23    2    1    2    0    0  0.23014864455E+02  0.39358872743E+01  0.34513040764E+03  0.35763863823E+03  0.90803205232E+02 0.  0.
        -11    1    4    4    0    0  0.12750839197E+02 -0.10334664218E+00  0.34631077415E+03  0.34654544705E+03  0.51100000000E-03 0. -1.
         11    1    4    4    0    0  0.10264025258E+02  0.40392339164E+01 -0.11803665065E+01  0.11093191177E+02  0.51100000000E-03 0.  1.
    9000005    1    3    3    0    0 -0.40089360302E+02 -0.39452335781E+02  0.24892940603E+02  0.61516681476E+02  0.10000000000E+01 0.  0.
    9000005    1    3    3    0    0  0.17074495846E+02  0.35516448506E+02  0.14764822805E+03  0.15282001102E+03  0.10000000000E+01 0.  0.
<mgrwt>
<rscale>  0 0.11783246E+03</rscale>
<asrwt>0</asrwt>
<pdfrwt beam="1">  1        2 0.83818990E-01 0.12716038E+03</pdfrwt>
<pdfrwt beam="2">  1       -2 0.41772120E-02 0.12716038E+03</pdfrwt>
<totfact> 0.13706324E+04</totfact>
</mgrwt>
</event>
<event>
 8    2  0.1628804E-003  0.1342898E+03  0.7818608E-02  0.1231156E+00
         -2   -1    0    0    0  501 -0.00000000000E+00  0.00000000000E+00  0.59364558634E+01  0.59364564111E+01  0.25500000000E-02 0.  1.
          2   -1    0    0  501    0  0.00000000000E+00 -0.00000000000E+00 -0.29424909206E+04  0.29424909206E+04  0.25500000000E-02 0. -1.
         25    2    1    2    0    0 -0.90567854874E+01 -0.48235143937E+02 -0.10258798953E+04  0.10346319667E+04  0.12500036986E+03 0.  0.
         23    2    1    2    0    0  0.90567854874E+01  0.48235143937E+02 -0.19106745694E+04  0.19137954103E+04  0.97605879757E+02 0.  0.
        -11    1    4    4    0    0 -0.41068683785E+02  0.14810812482E+02 -0.11095761018E+04  0.11104346548E+04  0.51100000000E-03 0.  1.
         11    1    4    4    0    0  0.50125469272E+02  0.33424331455E+02 -0.80109846764E+03  0.80336075548E+03  0.51100000000E-03 0. -1.
    9000005    1    3    3    0    0 -0.27936594938E+02 -0.51138370622E+02 -0.19478421218E+03  0.20331619611E+03  0.10000000000E+01 0.  0.
    9000005    1    3    3    0    0  0.18879809451E+02  0.29032266854E+01 -0.83109568313E+03  0.83131577060E+03  0.10000000000E+01 0.  0.
<mgrwt>
<rscale>  0 0.12753741E+03</rscale>
<asrwt>0</asrwt>
<pdfrwt beam="2">  1        2 0.45268975E+00 0.13428979E+03</pdfrwt>
<pdfrwt beam="1">  1       -2 0.91330330E-03 0.13428979E+03</pdfrwt>
<totfact> 0.55066177E+03</totfact>
</mgrwt>
</event>
<event>
 8    2  0.1628804E-003  0.1289186E+03  0.7818608E-02  0.1242900E+00
          2   -1    0    0  501    0  0.00000000000E+00  0.00000000000E+00  0.13398227327E+04  0.13398227327E+04  0.25500000000E-02 0.  1.
         -2   -1    0    0    0  501 -0.00000000000E+00 -0.00000000000E+00 -0.11237674530E+02  0.11237674819E+02  0.25500000000E-02 0. -1.
         25    2    1    2    0    0 -0.46660406822E+01 -0.31219024798E+02  0.48291876043E+03  0.49983050867E+03  0.12499443499E+03 0.  0.
         23    2    1    2    0    0  0.46660406822E+01  0.31219024798E+02  0.84566629778E+03  0.85122989889E+03  0.91893710978E+02 0.  0.
        -11    1    4    4    0    0  0.20319601107E+02  0.60570190522E+02  0.56240737533E+03  0.56602446060E+03  0.51100000000E-03 0.  1.
         11    1    4    4    0    0 -0.15653560425E+02 -0.29351165724E+02  0.28325892245E+03  0.28520543829E+03  0.51100000000E-03 0. -1.
    9000005    1    3    3    0    0  0.45917885481E+02 -0.56027694377E+02  0.28239969469E+03  0.29154440881E+03  0.10000000000E+01 0.  0.
    9000005    1    3    3    0    0 -0.50583926164E+02  0.24808669580E+02  0.20051906574E+03  0.20828609987E+03  0.10000000000E+01 0.  0.
<mgrwt>
<rscale>  0 0.12011939E+03</rscale>
<asrwt>0</asrwt>
<pdfrwt beam="1">  1        2 0.20612654E+00 0.12891861E+03</pdfrwt>
<pdfrwt beam="2">  1       -2 0.17288733E-02 0.12891861E+03</pdfrwt>
<totfact> 0.15374324E+04</totfact>
</mgrwt>
</event>
<event>
 8    2  0.1628804E-003  0.1313386E+03  0.7818608E-02  0.1238476E+00
          2   -1    0    0  501    0  0.00000000000E+00  0.00000000000E+00  0.71183298865E+03  0.71183298866E+03  0.25500000000E-02 0. -1.
         -2   -1    0    0    0  501 -0.00000000000E+00 -0.00000000000E+00 -0.19523106571E+02  0.19523106738E+02  0.25500000000E-02 0.  1.
         25    2    1    2    0    0 -0.35258292820E+02 -0.19572763620E+02  0.32487292629E+03  0.35041724492E+03  0.12499434792E+03 0.  0.
         23    2    1    2    0    0  0.35258292820E+02  0.19572763620E+02  0.36743695579E+03  0.38093885048E+03  0.92077418696E+02 0.  0.
        -11    1    4    4    0    0  0.43655210950E+02  0.28102134354E+02  0.36506334864E+03  0.36873670270E+03  0.51100000000E-03 0. -1.
         11    1    4    4    0    0 -0.83969181300E+01 -0.85293707334E+01  0.23736071513E+01  0.12202147776E+02  0.51100000000E-03 0.  1.
    9000005    1    3    3    0    0  0.36126411056E+02 -0.42228323201E+02  0.15845847202E+03  0.16792390006E+03  0.10000000000E+01 0.  0.
    9000005    1    3    3    0    0 -0.71384703876E+02  0.22655559581E+02  0.16641445427E+03  0.18249334486E+03  0.10000000000E+01 0.  0.
<mgrwt>
<rscale>  0 0.12284531E+03</rscale>
<asrwt>0</asrwt>
<pdfrwt beam="1">  1        2 0.10951275E+00 0.13133860E+03</pdfrwt>
<pdfrwt beam="2">  1       -2 0.30035553E-02 0.13133860E+03</pdfrwt>
<totfact> 0.16455127E+04</totfact>
</mgrwt>
</event>
<event>
 8    2  0.1628804E-003  0.1647519E+03  0.7818608E-02  0.1190302E+00
         -2   -1    0    0    0  501 -0.00000000000E+00  0.00000000000E+00  0.72068337619E+02  0.72068337664E+02  0.25500000000E-02 0.  1.
          2   -1    0    0  501    0  0.00000000000E+00 -0.00000000000E+00 -0.34316544900E+03  0.34316544901E+03  0.25500000000E-02 0. -1.
         25    2    1    2    0    0  0.10303202156E+02  0.10682522275E+03 -0.97985115180E+02  0.19168795216E+03  0.12500161605E+03 0.  0.
         23    2    1    2    0    0 -0.10303202156E+02 -0.10682522275E+03 -0.17311199620E+03  0.22354583451E+03  0.92125961096E+02 0.  0.
        -11    1    4    4    0    0  0.76273475519E+01 -0.11899841081E+03 -0.15300349852E+03  0.19398161966E+03  0.51100000000E-03 0. -1.
         11    1    4    4    0    0 -0.17930549708E+02  0.12173188062E+02 -0.20108497683E+02  0.29564214851E+02  0.51100000000E-03 0.  1.
    9000005    1    3    3    0    0  0.61420025579E+02  0.39409213433E+02 -0.17808821069E+02  0.75124295361E+02  0.10000000000E+01 0.  0.
    9000005    1    3    3    0    0 -0.51116823423E+02  0.67416009320E+02 -0.80176294112E+02  0.11656365680E+03  0.10000000000E+01 0.  0.
<mgrwt>
<rscale>  0 0.15858609E+03</rscale>
<asrwt>0</asrwt>
<pdfrwt beam="2">  1        2 0.52794684E-01 0.16475190E+03</pdfrwt>
<pdfrwt beam="1">  1       -2 0.11087437E-01 0.16475190E+03</pdfrwt>
<totfact> 0.51479069E+03</totfact>
</mgrwt>
</event>
<event>
 8    2  0.1628804E-003  0.1253904E+03  0.7818608E-02  0.1250559E+00
          2   -1    0    0  501    0  0.00000000000E+00  0.00000000000E+00  0.33922718565E+02  0.33922718661E+02  0.25500000000E-02 0. -1.
         -2   -1    0    0    0  501 -0.00000000000E+00 -0.00000000000E+00 -0.35401331740E+03  0.35401331741E+03  0.25500000000E-02 0.  1.
         25    2    1    2    0    0 -0.91808211652E+01 -0.37939782744E+01 -0.21792166961E+03  0.25142118904E+03  0.12499631380E+03 0.  0.
         23    2    1    2    0    0  0.91808211652E+01  0.37939782744E+01 -0.10216892923E+03  0.13651484704E+03  0.89995175501E+02 0.  0.
        -11    1    4    4    0    0  0.12092684880E+02 -0.17726547032E+02  0.89819127291E+01  0.23262378508E+02  0.51100000000E-03 0. -1.
         11    1    4    4    0    0 -0.29118637153E+01  0.21520525306E+02 -0.11115084196E+03  0.11325246853E+03  0.51100000000E-03 0.  1.
    9000005    1    3    3    0    0 -0.35327922280E+02  0.15509208460E+02 -0.85387780480E+01  0.39528576628E+02  0.10000000000E+01 0.  0.
    9000005    1    3    3    0    0  0.26147101115E+02 -0.19303186735E+02 -0.20938289156E+03  0.21189261241E+03  0.10000000000E+01 0.  0.
<mgrwt>
<rscale>  0 0.11558741E+03</rscale>
<asrwt>0</asrwt>
<pdfrwt beam="1">  1        2 0.52188800E-02 0.12539043E+03</pdfrwt>
<pdfrwt beam="2">  1       -2 0.54463585E-01 0.12539043E+03</pdfrwt>
<totfact> 0.45278097E+03</totfact>
</mgrwt>
</event>
<event>
 8    2  0.1628804E-003  0.1449643E+03  0.7818608E-02  0.1215399E+00
         -2   -1    0    0    0  501 -0.00000000000E+00  0.00000000000E+00  0.12777761839E+02  0.12777762094E+02  0.25500000000E-02 0.  1.
          2   -1    0    0  501    0  0.00000000000E+00 -0.00000000000E+00 -0.14384510353E+04  0.14384510353E+04  0.25500000000E-02 0. -1.
         25    2    1    2    0    0  0.36791221404E+02 -0.63532078111E+02 -0.63062736240E+03  0.64707458475E+03  0.12499891639E+03 0.  0.
         23    2    1    2    0    0 -0.36791221404E+02  0.63532078111E+02 -0.79504591105E+03  0.80415421264E+03  0.95791847795E+02 0.  0.
        -11    1    4    4    0    0 -0.42053496354E+02  0.64095946298E+02 -0.31911221490E+03  0.32819109157E+03  0.51100000000E-03 0.  1.
         11    1    4    4    0    0  0.52622749500E+01 -0.56386818638E+00 -0.47593369615E+03  0.47596312107E+03  0.51100000000E-03 0. -1.
    9000005    1    3    3    0    0  0.82814183492E+02 -0.47771065318E+02 -0.44693364017E+03  0.45704588652E+03  0.10000000000E+01 0.  0.
    9000005    1    3    3    0    0 -0.46022962088E+02 -0.15761012794E+02 -0.18369372223E+03  0.19002869823E+03  0.10000000000E+01 0.  0.
<mgrwt>
<rscale>  0 0.13847243E+03</rscale>
<asrwt>0</asrwt>
<pdfrwt beam="2">  1        2 0.22130003E+00 0.14496430E+03</pdfrwt>
<pdfrwt beam="1">  1       -2 0.19658107E-02 0.14496430E+03</pdfrwt>
<totfact> 0.11386273E+04</totfact>
</mgrwt>
</event>
<event>
 8    2  0.1628804E-003  0.1547086E+03  0.7818608E-02  0.1203155E+00
          2   -1    0    0  501    0  0.00000000000E+00  0.00000000000E+00  0.16426050439E+04  0.16426050439E+04  0.25500000000E-02 0. -1.
         -2   -1    0    0    0  501 -0.00000000000E+00 -0.00000000000E+00 -0.12531144205E+02  0.12531144465E+02  0.25500000000E-02 0.  1.
         25    2    1    2    0    0  0.44216698924E+02  0.79717942843E+02  0.76395691601E+03  0.77946451587E+03  0.12499878041E+03 0.  0.
         23    2    1    2    0    0 -0.44216698924E+02 -0.79717942843E+02  0.86611698368E+03  0.87567167250E+03  0.91280785014E+02 0.  0.
        -11    1    4    4    0    0  0.10981747405E+02 -0.69666672430E+02  0.39753004747E+03  0.40373776472E+03  0.51100000000E-03 0.  1.
         11    1    4    4    0    0 -0.55198446329E+02 -0.10051270414E+02  0.46858693622E+03  0.47193390778E+03  0.51100000000E-03 0. -1.
    9000005    1    3    3    0    0 -0.40331697581E+01  0.61412037333E+02  0.66511609392E+03  0.66795817473E+03  0.10000000000E+01 0.  0.
    9000005    1    3    3    0    0  0.48249868682E+02  0.18305905510E+02  0.98840822090E+02  0.11150634115E+03  0.10000000000E+01 0.  0.
<mgrwt>
<rscale>  0 0.14783846E+03</rscale>
<asrwt>0</asrwt>
<pdfrwt beam="1">  1        2 0.25270864E+00 0.15470864E+03</pdfrwt>
<pdfrwt beam="2">  1       -2 0.19278671E-02 0.15470864E+03</pdfrwt>
<totfact> 0.91926675E+03</totfact>
</mgrwt>
</event>
<event>
 8    2  0.1628804E-003  0.1866020E+03  0.7818608E-02  0.1166906E+00
          2   -1    0    0  501    0  0.00000000000E+00  0.00000000000E+00  0.11091266556E+04  0.11091266556E+04  0.25500000000E-02 0. -1.
         -2   -1    0    0    0  501 -0.00000000000E+00 -0.00000000000E+00 -0.30518932875E+02  0.30518932981E+02  0.25500000000E-02 0.  1.
         25    2    1    2    0    0 -0.48658635172E+02  0.12971952235E+03  0.73776148754E+03  0.76099430445E+03  0.12500200664E+03 0.  0.
         23    2    1    2    0    0  0.48658635172E+02 -0.12971952235E+03  0.34084623523E+03  0.37865128417E+03  0.89475257361E+02 0.  0.
        -11    1    4    4    0    0  0.55984726957E+02 -0.34943510935E+02  0.10094847873E+03  0.12060652539E+03  0.51100000000E-03 0.  1.
         11    1    4    4    0    0 -0.73260917847E+01 -0.94776011412E+02  0.23989775650E+03  0.25804475878E+03  0.51100000000E-03 0. -1.
    9000005    1    3    3    0    0 -0.72335895194E+02  0.55487093983E+02  0.23211125648E+03  0.24937508841E+03  0.10000000000E+01 0.  0.
    9000005    1    3    3    0    0  0.23677260021E+02  0.74232428365E+02  0.50565023105E+03  0.51161921605E+03  0.10000000000E+01 0.  0.
<mgrwt>
<rscale>  0 0.18092962E+03</rscale>
<asrwt>0</asrwt>
<pdfrwt beam="1">  1        2 0.17063485E+00 0.18660203E+03</pdfrwt>
<pdfrwt beam="2">  1       -2 0.46952211E-02 0.18660203E+03</pdfrwt>
<totfact> 0.48093442E+03</totfact>
</mgrwt>
</event>
<event>
 8    2  0.1628804E-003  0.1759650E+03  0.7818608E-02  0.1178409E+00
         -2   -1    0    0    0  501 -0.00000000000E+00  0.00000000000E+00  0.22895858118E+02  0.22895858260E+02  0.25500000000E-02 0.  1.
          2   -1    0    0  501    0  0.00000000000E+00 -0.00000000000E+00 -0.11864118043E+04  0.11864118043E+04  0.25500000000E-02 0. -1.
         25    2    1    2    0    0 -0.53110242700E+02  0.11188134880E+03 -0.55376490078E+03  0.58105013907E+03  0.12500225877E+03 0.  0.
         23    2    1    2    0    0  0.53110242700E+02 -0.11188134880E+03 -0.60975104537E+03  0.62825752345E+03  0.87023240324E+02 0.  0.
        -11    1    4    4    0    0  0.43609421283E+02 -0.11889870855E+03 -0.59914408521E+03  0.61238249433E+03  0.51100000000E-03 0. -1.
         11    1    4    4    0    0  0.95008214164E+01  0.70173597517E+01 -0.10606960152E+02  0.15875029115E+02  0.51100000000E-03 0.  1.
    9000005    1    3    3    0    0  0.82791141265E+01  0.52722783226E+02 -0.61403424901E+02  0.81361023785E+02  0.10000000000E+01 0.  0.
    9000005    1    3    3    0    0 -0.61389356826E+02  0.59158565574E+02 -0.49236147588E+03  0.49968911529E+03  0.10000000000E+01 0.  0.
<mgrwt>
<rscale>  0 0.16946333E+03</rscale>
<asrwt>0</asrwt>
<pdfrwt beam="2">  1        2 0.18252485E+00 0.17596505E+03</pdfrwt>
<pdfrwt beam="1">  1       -2 0.35224406E-02 0.17596505E+03</pdfrwt>
<totfact> 0.66709807E+03</totfact>
</mgrwt>
</event>
<event>
 8    2  0.1628804E-003  0.1379722E+03  0.7818608E-02  0.1227420E+00
         -2   -1    0    0    0  501 -0.00000000000E+00  0.00000000000E+00  0.22461510940E+02  0.22461511084E+02  0.25500000000E-02 0.  1.
          2   -1    0    0  501    0  0.00000000000E+00 -0.00000000000E+00 -0.67915877120E+03  0.67915877121E+03  0.25500000000E-02 0. -1.
         25    2    1    2    0    0 -0.37922635823E+02  0.44411338545E+02 -0.35215762914E+03  0.37822126051E+03  0.12500333132E+03 0.  0.
         23    2    1    2    0    0  0.37922635823E+02 -0.44411338545E+02 -0.30453963113E+03  0.32339902179E+03  0.91826178542E+02 0.  0.
        -11    1    4    4    0    0  0.10548144648E+02 -0.70025198580E+02 -0.21369617230E+03  0.22512406768E+03  0.51100000000E-03 0. -1.
         11    1    4    4    0    0  0.27374491175E+02  0.25613860035E+02 -0.90843458825E+02  0.98274954106E+02  0.51100000000E-03 0.  1.
    9000005    1    3    3    0    0 -0.53522395656E+01  0.42039316253E+02 -0.34110723555E+03  0.34373114018E+03  0.10000000000E+01 0.  0.
    9000005    1    3    3    0    0 -0.32570396257E+02  0.23720222923E+01 -0.11050393582E+02  0.34490120331E+02  0.10000000000E+01 0.  0.
<mgrwt>
<rscale>  0 0.13002423E+03</rscale>
<asrwt>0</asrwt>
<pdfrwt beam="2">  1        2 0.10448595E+00 0.13797219E+03</pdfrwt>
<pdfrwt beam="1">  1       -2 0.34556176E-02 0.13797219E+03</pdfrwt>
<totfact> 0.14201889E+04</totfact>
</mgrwt>
</event>
<event>
 8    2  0.1628804E-003  0.1292211E+03  0.7818608E-02  0.1242149E+00
         -2   -1    0    0    0  501 -0.00000000000E+00  0.00000000000E+00  0.42318025594E+02  0.42318025671E+02  0.25500000000E-02 0.  1.
          2   -1    0    0  501    0  0.00000000000E+00 -0.00000000000E+00 -0.30683143042E+03  0.30683143043E+03  0.25500000000E-02 0. -1.
         25    2    1    2    0    0 -0.32659809397E+02  0.23683300667E+01 -0.13663322898E+03  0.18806046473E+03  0.12500330793E+03 0.  0.
         23    2    1    2    0    0  0.32659809397E+02 -0.23683300667E+01 -0.12788017584E+03  0.16108899137E+03  0.92325790715E+02 0.  0.
        -11    1    4    4    0    0  0.15025875120E+02 -0.31337326700E+02 -0.12176576930E+03  0.12662822569E+03  0.51100000000E-03 0. -1.
         11    1    4    4    0    0  0.17633934277E+02  0.28968996633E+02 -0.61144065447E+01  0.34460765686E+02  0.51100000000E-03 0.  1.
    9000005    1    3    3    0    0  0.12688874412E+02 -0.49999682164E+02 -0.26638734699E+02  0.58065462512E+02  0.10000000000E+01 0.  0.
    9000005    1    3    3    0    0 -0.45348683809E+02  0.52368012231E+02 -0.10999449428E+03  0.12999500222E+03  0.10000000000E+01 0.  0.
<mgrwt>
<rscale>  0 0.12057666E+03</rscale>
<asrwt>0</asrwt>
<pdfrwt beam="2">  1        2 0.47204834E-01 0.12922112E+03</pdfrwt>
<pdfrwt beam="1">  1       -2 0.65104657E-02 0.12922112E+03</pdfrwt>
<totfact> 0.13053529E+04</totfact>
</mgrwt>
</event>
<event>
 8    2  0.1628804E-003  0.1374703E+03  0.7818608E-02  0.1227650E+00
          2   -1    0    0  501    0  0.00000000000E+00  0.00000000000E+00  0.22851904845E+04  0.22851904845E+04  0.25500000000E-02 0. -1.
         -2   -1    0    0    0  501 -0.00000000000E+00 -0.00000000000E+00 -0.10703691276E+02  0.10703691579E+02  0.25500000000E-02 0.  1.
         25    2    1    2    0    0  0.37727584034E+02 -0.43006393496E+02  0.51589028513E+03  0.53389218039E+03  0.12500061405E+03 0.  0.
         23    2    1    2    0    0 -0.37727584034E+02  0.43006393496E+02  0.17585965081E+04  0.17620019957E+04  0.93361844720E+02 0.  0.
        -11    1    4    4    0    0  0.10621232995E+00  0.63054263747E+02  0.12573525744E+04  0.12589326224E+04  0.51100000000E-03 0. -1.
         11    1    4    4    0    0 -0.37833796364E+02 -0.20047870252E+02  0.50124393369E+03  0.50306937326E+03  0.51100000000E-03 0.  1.
    9000005    1    3    3    0    0 -0.26187919265E+02  0.29712296926E+02  0.12174109358E+03  0.12802547235E+03  0.10000000000E+01 0.  0.
    9000005    1    3    3    0    0  0.63915503299E+02 -0.72718690421E+02  0.39414919155E+03  0.40586670804E+03  0.10000000000E+01 0.  0.
<mgrwt>
<rscale>  0 0.12986917E+03</rscale>
<asrwt>0</asrwt>
<pdfrwt beam="1">  1        2 0.35156799E+00 0.13747027E+03</pdfrwt>
<pdfrwt beam="2">  1       -2 0.16467207E-02 0.13747027E+03</pdfrwt>
<totfact> 0.53783093E+03</totfact>
</mgrwt>
</event>
<event>
 8    2  0.1628804E-003  0.1332327E+03  0.7818608E-02  0.1236354E+00
          2   -1    0    0  501    0  0.00000000000E+00  0.00000000000E+00  0.96593212578E+03  0.96593212578E+03  0.25500000000E-02 0. -1.
         -2   -1    0    0    0  501 -0.00000000000E+00 -0.00000000000E+00 -0.14778944322E+02  0.14778944542E+02  0.25500000000E-02 0.  1.
         25    2    1    2    0    0  0.43733556446E+02 -0.14591672755E+02  0.63974389562E+03  0.65347012117E+03  0.12500162559E+03 0.  0.
         23    2    1    2    0    0 -0.43733556446E+02  0.14591672755E+02  0.31140928583E+03  0.32724094916E+03  0.89360811478E+02 0.  0.
        -11    1    4    4    0    0  0.25600225978E+02  0.10854948271E+02  0.55456027699E+02  0.62036863883E+02  0.51100000000E-03 0.  1.
         11    1    4    4    0    0 -0.69333782424E+02  0.37367244835E+01  0.25595325813E+03  0.26520408527E+03  0.51100000000E-03 0. -1.
    9000005    1    3    3    0    0  0.32822272173E+02 -0.41312947017E+02  0.10103313403E+03  0.11398576803E+03  0.10000000000E+01 0.  0.
    9000005    1    3    3    0    0  0.10911284273E+02  0.26721274262E+02  0.53871076159E+03  0.53948435314E+03  0.10000000000E+01 0.  0.
<mgrwt>
<rscale>  0 0.12418146E+03</rscale>
<asrwt>0</asrwt>
<pdfrwt beam="1">  1        2 0.14860500E+00 0.13323268E+03</pdfrwt>
<pdfrwt beam="2">  1       -2 0.22736829E-02 0.13323268E+03</pdfrwt>
<totfact> 0.16827264E+04</totfact>
</mgrwt>
</event>
<event>
 8    2  0.1628804E-003  0.2078721E+03  0.7818608E-02  0.1146537E+00
          2   -1    0    0  501    0  0.00000000000E+00  0.00000000000E+00  0.33837611986E+04  0.33837611986E+04  0.25500000000E-02 0.  1.
         -2   -1    0    0    0  501 -0.00000000000E+00 -0.00000000000E+00 -0.14540183791E+02  0.14540184015E+02  0.25500000000E-02 0. -1.
         25    2    1    2    0    0 -0.81797822370E+02  0.14455219335E+03  0.24718595610E+04  0.24805847103E+04  0.12499838195E+03 0.  0.
         23    2    1    2    0    0  0.81797822370E+02 -0.14455219335E+03  0.89736145388E+03  0.91771667236E+03  0.96747565650E+02 0.  0.
        -11    1    4    4    0    0 -0.47360069197E+01 -0.38921996317E+02  0.40109275794E+03  0.40300465510E+03  0.51100000000E-03 0.  1.
         11    1    4    4    0    0  0.86533829289E+02 -0.10563019703E+03  0.49626869595E+03  0.51471201726E+03  0.51100000000E-03 0. -1.
    9000005    1    3    3    0    0 -0.83353154815E+02  0.48141003361E+02  0.17002949110E+04  0.17030176420E+04  0.10000000000E+01 0.  0.
    9000005    1    3    3    0    0  0.15553324453E+01  0.96411189987E+02  0.77156464999E+03  0.77756706832E+03  0.10000000000E+01 0.  0.
<mgrwt>
<rscale>  0 0.20384195E+03</rscale>
<asrwt>0</asrwt>
<pdfrwt beam="1">  1        2 0.52057810E+00 0.20787211E+03</pdfrwt>
<pdfrwt beam="2">  1       -2 0.22369537E-02 0.20787211E+03</pdfrwt>
<totfact> 0.80413997E+02</totfact>
</mgrwt>
</event>
<event>
 8    2  0.1628804E-003  0.1394126E+03  0.7818608E-02  0.1225471E+00
         -2   -1    0    0    0  501 -0.00000000000E+00  0.00000000000E+00  0.41598163214E+02  0.41598163292E+02  0.25500000000E-02 0.  1.
          2   -1    0    0  501    0  0.00000000000E+00 -0.00000000000E+00 -0.37523261677E+03  0.37523261678E+03  0.25500000000E-02 0. -1.
         25    2    1    2    0    0  0.36429149604E+02 -0.49825777073E+02 -0.20103868995E+03  0.24464755703E+03  0.12500472512E+03 0.  0.
         23    2    1    2    0    0 -0.36429149604E+02  0.49825777073E+02 -0.13259576361E+03  0.17218322304E+03  0.90861074003E+02 0.  0.
        -11    1    4    4    0    0 -0.63869862552E+02  0.34735592530E+02 -0.11557273647E+03  0.13653929159E+03  0.51100000000E-03 0. -1.
         11    1    4    4    0    0  0.27440712948E+02  0.15090184543E+02 -0.17023027135E+02  0.35643931457E+02  0.51100000000E-03 0.  1.
    9000005    1    3    3    0    0  0.38548110372E+02 -0.64625294169E+02 -0.44570985883E+02  0.87464039710E+02  0.10000000000E+01 0.  0.
    9000005    1    3    3    0    0 -0.21189607677E+01  0.14799517096E+02 -0.15646770407E+03  0.15718351732E+03  0.10000000000E+01 0.  0.
<mgrwt>
<rscale>  0 0.13134675E+03</rscale>
<asrwt>0</asrwt>
<pdfrwt beam="2">  1        2 0.57728093E-01 0.13941260E+03</pdfrwt>
<pdfrwt beam="1">  1       -2 0.63997177E-02 0.13941260E+03</pdfrwt>
<totfact> 0.10886268E+04</totfact>
</mgrwt>
</event>
<event>
 8    2  0.1628804E-003  0.1312477E+03  0.7818608E-02  0.1237611E+00
         -2   -1    0    0    0  501 -0.00000000000E+00  0.00000000000E+00  0.34071750144E+02  0.34071750239E+02  0.25500000000E-02 0.  1.
          2   -1    0    0  501    0  0.00000000000E+00 -0.00000000000E+00 -0.40942799649E+03  0.40942799649E+03  0.25500000000E-02 0. -1.
         25    2    1    2    0    0 -0.24576869662E+02 -0.31579462395E+02 -0.17864183564E+03  0.22167286780E+03  0.12499867963E+03 0.  0.
         23    2    1    2    0    0  0.24576869662E+02  0.31579462395E+02 -0.19671441070E+03  0.22182687893E+03  0.94389193624E+02 0.  0.
        -11    1    4    4    0    0 -0.18278976308E+01  0.37828921363E+00  0.10477064892E+02  0.10642048745E+02  0.51100000000E-03 0.  1.
         11    1    4    4    0    0  0.26404767293E+02  0.31201173182E+02 -0.20719147559E+03  0.21118483019E+03  0.51100000000E-03 0. -1.
    9000005    1    3    3    0    0  0.45991346506E+02 -0.85741449967E+01 -0.11404244830E+03  0.12326962290E+03  0.10000000000E+01 0.  0.
    9000005    1    3    3    0    0 -0.70568216168E+02 -0.23005317399E+02 -0.64599387344E+02  0.98403244901E+02  0.10000000000E+01 0.  0.
<mgrwt>
<rscale>  0 0.12338779E+03</rscale>
<asrwt>0</asrwt>
<pdfrwt beam="2">  1        2 0.62988919E-01 0.13124769E+03</pdfrwt>
<pdfrwt beam="1">  1       -2 0.52418080E-02 0.13124769E+03</pdfrwt>
<totfact> 0.13354537E+04</totfact>
</mgrwt>
</event>
<event>
 8    2  0.1628804E-003  0.1271055E+03  0.7818608E-02  0.1249893E+00
         -2   -1    0    0    0  501 -0.00000000000E+00  0.00000000000E+00  0.19876189116E+02  0.19876189280E+02  0.25500000000E-02 0.  1.
          2   -1    0    0  501    0  0.00000000000E+00 -0.00000000000E+00 -0.87936660919E+03  0.87936660919E+03  0.25500000000E-02 0. -1.
         25    2    1    2    0    0 -0.72993591878E+01  0.21868008926E+02 -0.22295851238E+03  0.25664431256E+03  0.12499725785E+03 0.  0.
         23    2    1    2    0    0  0.72993591878E+01 -0.21868008926E+02 -0.63653190769E+03  0.64259848591E+03  0.85020315952E+02 0.  0.
        -11    1    4    4    0    0  0.29956176602E+02 -0.25515901031E+02 -0.13698708476E+03  0.14252682243E+03  0.51100000000E-03 0.  1.
         11    1    4    4    0    0 -0.22656817414E+02  0.36478921052E+01 -0.49954482294E+03  0.50007166348E+03  0.51100000000E-03 0. -1.
    9000005    1    3    3    0    0 -0.42264720285E+02  0.47843193968E+02 -0.58781588179E+02  0.86784519926E+02  0.10000000000E+01 0.  0.
    9000005    1    3    3    0    0  0.34965361097E+02 -0.25975185042E+02 -0.16417692420E+03  0.16985979264E+03  0.10000000000E+01 0.  0.
<mgrwt>
<rscale>  0 0.11597264E+03</rscale>
<asrwt>0</asrwt>
<pdfrwt beam="2">  1        2 0.13528714E+00 0.12710549E+03</pdfrwt>
<pdfrwt beam="1">  1       -2 0.30578759E-02 0.12710549E+03</pdfrwt>
<totfact> 0.12310204E+04</totfact>
</mgrwt>
</event>
<event>
 8    2  0.1628804E-003  0.1385815E+03  0.7818608E-02  0.1226125E+00
          2   -1    0    0  501    0  0.00000000000E+00  0.00000000000E+00  0.71695545469E+03  0.71695545469E+03  0.25500000000E-02 0. -1.
         -2   -1    0    0    0  501 -0.00000000000E+00 -0.00000000000E+00 -0.66198544835E+02  0.66198544884E+02  0.25500000000E-02 0.  1.
         25    2    1    2    0    0  0.59831985994E+02 -0.58781349587E+00  0.65815532911E+03  0.67258699992E+03  0.12499849262E+03 0.  0.
         23    2    1    2    0    0 -0.59831985994E+02  0.58781349587E+00 -0.73984192583E+01  0.11056699965E+03  0.92682861047E+02 0.  0.
        -11    1    4    4    0    0 -0.46497475289E+02 -0.17224264000E+02 -0.44944532259E+02  0.66923101085E+02  0.51100000000E-03 0.  1.
         11    1    4    4    0    0 -0.13334510705E+02  0.17812077495E+02  0.37546113000E+02  0.43643898567E+02  0.51100000000E-03 0. -1.
    9000005    1    3    3    0    0 -0.10694912311E+02  0.22011687306E+02  0.24589141509E+02  0.34706215691E+02  0.10000000000E+01 0.  0.
    9000005    1    3    3    0    0  0.70526898305E+02 -0.22599500802E+02  0.63356618760E+03  0.63788078423E+03  0.10000000000E+01 0.  0.
<mgrwt>
<rscale>  0 0.13090063E+03</rscale>
<asrwt>0</asrwt>
<pdfrwt beam="1">  1        2 0.11030084E+00 0.13858151E+03</pdfrwt>
<pdfrwt beam="2">  1       -2 0.10184392E-01 0.13858151E+03</pdfrwt>
<totfact> 0.25783222E+03</totfact>
</mgrwt>
</event>
<event>
 8    2  0.1628804E-003  0.1353887E+03  0.7818608E-02  0.1231551E+00
         -2   -1    0    0    0  501 -0.00000000000E+00  0.00000000000E+00  0.56255777802E+01  0.56255783581E+01  0.25500000000E-02 0.  1.
          2   -1    0    0  501    0  0.00000000000E+00 -0.00000000000E+00 -0.26036445425E+04  0.26036445425E+04  0.25500000000E-02 0. -1.
         25    2    1    2    0    0 -0.68565793135E+01 -0.51555280400E+02 -0.15698049028E+04  0.15756324198E+04  0.12500051948E+03 0.  0.
         23    2    1    2    0    0  0.68565793135E+01  0.51555280400E+02 -0.10282140619E+04  0.10336377011E+04  0.92074862444E+02 0.  0.
        -11    1    4    4    0    0  0.22883691644E+02  0.43157138452E+02 -0.99154351453E+03  0.99274606176E+03  0.51100000000E-03 0. -1.
         11    1    4    4    0    0 -0.16027112330E+02  0.83981419478E+01 -0.36670547411E+02  0.40891639311E+02  0.51100000000E-03 0.  1.
    9000005    1    3    3    0    0 -0.43134987134E+02  0.21449085941E+02 -0.38091355172E+03  0.38394898657E+03  0.10000000000E+01 0.  0.
    9000005    1    3    3    0    0  0.36278407821E+02 -0.73004366341E+02 -0.11888913511E+04  0.11916834333E+04  0.10000000000E+01 0.  0.
<mgrwt>
<rscale>  0 0.12727856E+03</rscale>
<asrwt>0</asrwt>
<pdfrwt beam="2">  1        2 0.40055974E+00 0.13538866E+03</pdfrwt>
<pdfrwt beam="1">  1       -2 0.86547563E-03 0.13538866E+03</pdfrwt>
<totfact> 0.91746186E+03</totfact>
</mgrwt>
</event>
<event>
 8    2  0.1628804E-003  0.1654849E+03  0.7818608E-02  0.1189563E+00
         -2   -1    0    0    0  501 -0.00000000000E+00  0.00000000000E+00  0.33199434358E+03  0.33199434359E+03  0.25500000000E-02 0.  1.
          2   -1    0    0  501    0  0.00000000000E+00 -0.00000000000E+00 -0.10963125310E+03  0.10963125313E+03  0.25500000000E-02 0. -1.
         25    2    1    2    0    0  0.20356478180E+01  0.10841561413E+03  0.24732144277E+03  0.29757881685E+03  0.12500866742E+03 0.  0.
         23    2    1    2    0    0 -0.20356478180E+01 -0.10841561413E+03 -0.24958352290E+02  0.14404677987E+03  0.91479321123E+02 0.  0.
        -11    1    4    4    0    0  0.29022486631E+02 -0.67575415298E+02  0.19578064749E+02  0.76105466969E+02  0.51100000000E-03 0.  1.
         11    1    4    4    0    0 -0.31058134449E+02 -0.40840198835E+02 -0.44536417039E+02  0.67941312905E+02  0.51100000000E-03 0. -1.
    9000005    1    3    3    0    0  0.38051183130E+02  0.61409691529E+02  0.22146993725E+03  0.23295702578E+03  0.10000000000E+01 0.  0.
    9000005    1    3    3    0    0 -0.36015535311E+02  0.47005922604E+02  0.25851505519E+02  0.64621791071E+02  0.10000000000E+01 0.  0.
<mgrwt>
<rscale>  0 0.15923553E+03</rscale>
<asrwt>0</asrwt>
<pdfrwt beam="2">  1        2 0.16866347E-01 0.16548491E+03</pdfrwt>
<pdfrwt beam="1">  1       -2 0.51076053E-01 0.16548491E+03</pdfrwt>
<totfact> 0.12284019E+03</totfact>
</mgrwt>
</event>
<event>
 8    2  0.1628804E-003  0.1360049E+03  0.7818608E-02  0.1232536E+00
          2   -1    0    0  501    0  0.00000000000E+00  0.00000000000E+00  0.29467927507E+02  0.29467927618E+02  0.25500000000E-02 0. -1.
         -2   -1    0    0    0  501 -0.00000000000E+00 -0.00000000000E+00 -0.48614759562E+03  0.48614759562E+03  0.25500000000E-02 0.  1.
         25    2    1    2    0    0  0.40538906815E+02 -0.34992737823E+02 -0.28542227061E+03  0.31616956625E+03  0.12501770834E+03 0.  0.
         23    2    1    2    0    0 -0.40538906815E+02  0.34992737823E+02 -0.17125739750E+03  0.19944595699E+03  0.87072951567E+02 0.  0.
        -11    1    4    4    0    0 -0.45721070671E+02  0.52226456949E+02 -0.77764901558E+02  0.10423722475E+03  0.51100000000E-03 0. -1.
         11    1    4    4    0    0  0.51821638558E+01 -0.17233719126E+02 -0.93492495939E+02  0.95208732238E+02  0.51100000000E-03 0.  1.
    9000005    1    3    3    0    0  0.82038276407E+01 -0.77135438891E+02 -0.12437630059E+03  0.14658663946E+03  0.10000000000E+01 0.  0.
    9000005    1    3    3    0    0  0.32335079174E+02  0.42142701068E+02 -0.16104597002E+03  0.16958292679E+03  0.10000000000E+01 0.  0.
<mgrwt>
<rscale>  0 0.12663485E+03</rscale>
<asrwt>0</asrwt>
<pdfrwt beam="1">  1        2 0.45335277E-02 0.13600486E+03</pdfrwt>
<pdfrwt beam="2">  1       -2 0.74791932E-01 0.13600486E+03</pdfrwt>
<totfact> 0.28298109E+03</totfact>
</mgrwt>
</event>
<event>
 8    2  0.1628804E-003  0.1506446E+03  0.7818608E-02  0.1208512E+00
          2   -1    0    0  501    0  0.00000000000E+00  0.00000000000E+00  0.71510248317E+03  0.71510248318E+03  0.25500000000E-02 0. -1.
         -2   -1    0    0    0  501 -0.00000000000E+00 -0.00000000000E+00 -0.28856496974E+02  0.28856497086E+02  0.25500000000E-02 0.  1.
         25    2    1    2    0    0  0.48768183149E+02  0.68483649649E+02  0.26649416533E+03  0.30612569233E+03  0.12500181357E+03 0.  0.
         23    2    1    2    0    0 -0.48768183149E+02 -0.68483649649E+02  0.41975182087E+03  0.43783328793E+03  0.91858864242E+02 0.  0.
        -11    1    4    4    0    0  0.25590366075E+02 -0.12913350276E+02  0.14551018538E+03  0.14830655920E+03  0.51100000000E-03 0. -1.
         11    1    4    4    0    0 -0.74358549224E+02 -0.55570299373E+02  0.27424163549E+03  0.28952672873E+03  0.51100000000E-03 0.  1.
    9000005    1    3    3    0    0  0.37810080053E+02  0.64141064022E+02  0.50876307296E+02  0.90183573291E+02  0.10000000000E+01 0.  0.
    9000005    1    3    3    0    0  0.10958103096E+02  0.43425856270E+01  0.21561785804E+03  0.21594211904E+03  0.10000000000E+01 0.  0.
<mgrwt>
<rscale>  0 0.14364121E+03</rscale>
<asrwt>0</asrwt>
<pdfrwt beam="1">  1        2 0.11001576E+00 0.15064461E+03</pdfrwt>
<pdfrwt beam="2">  1       -2 0.44394612E-02 0.15064461E+03</pdfrwt>
<totfact> 0.92557214E+03</totfact>
</mgrwt>
</event>
<event>
 8    2  0.1628804E-003  0.1690731E+03  0.7818608E-02  0.1185490E+00
         -2   -1    0    0    0  501 -0.00000000000E+00  0.00000000000E+00  0.31808321902E+02  0.31808322005E+02  0.25500000000E-02 0.  1.
          2   -1    0    0  501    0  0.00000000000E+00 -0.00000000000E+00 -0.80787127264E+03  0.80787127264E+03  0.25500000000E-02 0. -1.
         25    2    1    2    0    0 -0.37219559732E+02  0.10759223719E+03 -0.33578015523E+03  0.37594418055E+03  0.12499731641E+03 0.  0.
         23    2    1    2    0    0  0.37219559732E+02 -0.10759223719E+03 -0.44028279551E+03  0.46373541410E+03  0.90775597713E+02 0.  0.
        -11    1    4    4    0    0  0.18272077963E+02 -0.46284290227E+02 -0.59415807756E+02  0.77500597201E+02  0.51100000000E-03 0.  1.
         11    1    4    4    0    0  0.18947481769E+02 -0.61307946966E+02 -0.38086698775E+03  0.38623481690E+03  0.51100000000E-03 0. -1.
    9000005    1    3    3    0    0 -0.36541857375E+02 -0.19006383137E+02 -0.63893901757E+02  0.76026183793E+02  0.10000000000E+01 0.  0.
    9000005    1    3    3    0    0 -0.67770235667E+00  0.12659862033E+03 -0.27188625347E+03  0.29991799675E+03  0.10000000000E+01 0.  0.
<mgrwt>
<rscale>  0 0.16287407E+03</rscale>
<asrwt>0</asrwt>
<pdfrwt beam="2">  1        2 0.12428787E+00 0.16907310E+03</pdfrwt>
<pdfrwt beam="1">  1       -2 0.48935886E-02 0.16907310E+03</pdfrwt>
<totfact> 0.69242454E+03</totfact>
</mgrwt>
</event>
<event>
 8    2  0.1628804E-003  0.1319149E+03  0.7818608E-02  0.1237769E+00
          2   -1    0    0  501    0  0.00000000000E+00  0.00000000000E+00  0.23187191763E+04  0.23187191763E+04  0.25500000000E-02 0. -1.
         -2   -1    0    0    0  501 -0.00000000000E+00 -0.00000000000E+00 -0.81557303489E+01  0.81557307475E+01  0.25500000000E-02 0.  1.
         25    2    1    2    0    0 -0.94921223247E+01  0.41065686878E+02  0.64926685569E+03  0.66253225519E+03  0.12500019301E+03 0.  0.
         23    2    1    2    0    0  0.94921223247E+01 -0.41065686878E+02  0.16612965903E+04  0.16643426519E+04  0.91398090470E+02 0.  0.
        -11    1    4    4    0    0 -0.19959280916E+02 -0.57537032316E+02  0.76879473347E+03  0.77120310243E+03  0.51100000000E-03 0.  1.
         11    1    4    4    0    0  0.29451403241E+02  0.16471345438E+02  0.89250185683E+03  0.89313954947E+03  0.51100000000E-03 0. -1.
    9000005    1    3    3    0    0  0.44353634417E+02  0.34517631778E+02  0.14761495534E+03  0.15795533176E+03  0.10000000000E+01 0.  0.
    9000005    1    3    3    0    0 -0.53845756742E+02  0.65480551008E+01  0.50165190034E+03  0.50457692343E+03  0.10000000000E+01 0.  0.
<mgrwt>
<rscale>  0 0.12328837E+03</rscale>
<asrwt>0</asrwt>
<pdfrwt beam="1">  1        2 0.35672554E+00 0.13191489E+03</pdfrwt>
<pdfrwt beam="2">  1       -2 0.12547295E-02 0.13191489E+03</pdfrwt>
<totfact> 0.76371857E+03</totfact>
</mgrwt>
</event>
<event>
 8    2  0.1628804E-003  0.1291536E+03  0.7818608E-02  0.1242333E+00
          2   -1    0    0  501    0  0.00000000000E+00  0.00000000000E+00  0.21511826461E+03  0.21511826463E+03  0.25500000000E-02 0. -1.
         -2   -1    0    0    0  501 -0.00000000000E+00 -0.00000000000E+00 -0.74064837964E+02  0.74064838008E+02  0.25500000000E-02 0.  1.
         25    2    1    2    0    0 -0.24032493923E+01 -0.32399434889E+02  0.15522434020E+02  0.13008307061E+03  0.12500064125E+03 0.  0.
         23    2    1    2    0    0  0.24032493923E+01  0.32399434889E+02  0.12553099263E+03  0.15910003202E+03  0.92191599888E+02 0.  0.
        -11    1    4    4    0    0  0.11928394937E+02 -0.40005289111E+01  0.12048206400E+03  0.12113718910E+03  0.51100000000E-03 0. -1.
         11    1    4    4    0    0 -0.95251455445E+01  0.36399963800E+02  0.50489286327E+01  0.37962842924E+02  0.51100000000E-03 0.  1.
    9000005    1    3    3    0    0  0.16348147618E+02  0.45752698644E+02  0.91922831125E+01  0.49457754019E+02  0.10000000000E+01 0.  0.
    9000005    1    3    3    0    0 -0.18751397011E+02 -0.78152133533E+02  0.63301509075E+01  0.80625316595E+02  0.10000000000E+01 0.  0.
<mgrwt>
<rscale>  0 0.12046409E+03</rscale>
<asrwt>0</asrwt>
<pdfrwt beam="1">  1        2 0.33095117E-01 0.12915363E+03</pdfrwt>
<pdfrwt beam="2">  1       -2 0.11394591E-01 0.12915363E+03</pdfrwt>
<totfact> 0.79871875E+03</totfact>
</mgrwt>
</event>
<event>
 8    2  0.1628804E-003  0.1265985E+03  0.7818608E-02  0.1247948E+00
          2   -1    0    0  501    0  0.00000000000E+00  0.00000000000E+00  0.43541155991E+03  0.43541155991E+03  0.25500000000E-02 0. -1.
         -2   -1    0    0    0  501 -0.00000000000E+00 -0.00000000000E+00 -0.28018871113E+02  0.28018871229E+02  0.25500000000E-02 0.  1.
         25    2    1    2    0    0  0.19951203197E+02 -0.18956746174E+01  0.20709281530E+03  0.24272331365E+03  0.12500211497E+03 0.  0.
         23    2    1    2    0    0 -0.19951203197E+02  0.18956746174E+01  0.20029987349E+03  0.22070711750E+03  0.90498333146E+02 0.  0.
        -11    1    4    4    0    0  0.25756903291E+02  0.94961249158E+01  0.14929470985E+03  0.15179757852E+03  0.51100000000E-03 0. -1.
         11    1    4    4    0    0 -0.45708106488E+02 -0.76004502984E+01  0.51005163639E+02  0.68909538973E+02  0.51100000000E-03 0.  1.
    9000005    1    3    3    0    0 -0.27561435134E+02  0.73100097124E+01  0.18885018083E+03  0.19099335001E+03  0.10000000000E+01 0.  0.
    9000005    1    3    3    0    0  0.47512638331E+02 -0.92056843298E+01  0.18242634471E+02  0.51729963634E+02  0.10000000000E+01 0.  0.
<mgrwt>
<rscale>  0 0.11710638E+03</rscale>
<asrwt>0</asrwt>
<pdfrwt beam="1">  1        2 0.66986392E-01 0.12659847E+03</pdfrwt>
<pdfrwt beam="2">  1       -2 0.43105957E-02 0.12659847E+03</pdfrwt>
<totfact> 0.16700722E+04</totfact>
</mgrwt>
</event>
<event>
 8    2  0.1628804E-003  0.1826801E+03  0.7818608E-02  0.1170473E+00
         -2   -1    0    0    0  501 -0.00000000000E+00  0.00000000000E+00  0.26402794612E+02  0.26402794736E+02  0.25500000000E-02 0. -1.
          2   -1    0    0  501    0  0.00000000000E+00 -0.00000000000E+00 -0.17802765997E+04  0.17802765997E+04  0.25500000000E-02 0.  1.
         25    2    1    2    0    0  0.28482893431E+02  0.13013476179E+03 -0.36269953016E+03  0.40610706969E+03  0.12500268568E+03 0.  0.
         23    2    1    2    0    0 -0.28482893431E+02 -0.13013476179E+03 -0.13911742749E+04  0.14005723247E+04  0.92144680727E+02 0.  0.
        -11    1    4    4    0    0 -0.26597882956E+02 -0.23233111308E+01 -0.44533939113E+03  0.44613901246E+03  0.51100000000E-03 0.  1.
         11    1    4    4    0    0 -0.18850104753E+01 -0.12781145066E+03 -0.94583488379E+03  0.95443331227E+03  0.51100000000E-03 0. -1.
    9000005    1    3    3    0    0  0.40277233935E+01  0.27906998956E+02  0.27795614785E+00  0.28215251303E+02  0.10000000000E+01 0.  0.
    9000005    1    3    3    0    0  0.24455170038E+02  0.10222776284E+03 -0.36297748631E+03  0.37789181838E+03  0.10000000000E+01 0.  0.
<mgrwt>
<rscale>  0 0.17726891E+03</rscale>
<asrwt>0</asrwt>
<pdfrwt beam="2">  1        2 0.27388861E+00 0.18268006E+03</pdfrwt>
<pdfrwt beam="1">  1       -2 0.40619698E-02 0.18268006E+03</pdfrwt>
<totfact> 0.26064372E+03</totfact>
</mgrwt>
</event>
<event>
 8    2  0.1628804E-003  0.1339416E+03  0.7818608E-02  0.1233622E+00
          2   -1    0    0  501    0  0.00000000000E+00  0.00000000000E+00  0.10828452042E+03  0.10828452045E+03  0.25500000000E-02 0. -1.
         -2   -1    0    0    0  501 -0.00000000000E+00 -0.00000000000E+00 -0.19855789411E+03  0.19855789413E+03  0.25500000000E-02 0.  1.
         25    2    1    2    0    0  0.86104650535E+01  0.47353324571E+02 -0.13755866380E+03  0.19199672527E+03  0.12499551620E+03 0.  0.
         23    2    1    2    0    0 -0.86104650535E+01 -0.47353324571E+02  0.47285290113E+02  0.11484568930E+03  0.92936302023E+02 0.  0.
        -11    1    4    4    0    0  0.18105291361E+02  0.20998010496E+02  0.33976942358E+00  0.27727846357E+02  0.51100000000E-03 0. -1.
         11    1    4    4    0    0 -0.26715756415E+02 -0.68351335067E+02  0.46945520689E+02  0.87117842944E+02  0.51100000000E-03 0.  1.
    9000005    1    3    3    0    0 -0.43440978292E+02 -0.17084977097E+02 -0.27303405931E+02  0.54087808356E+02  0.10000000000E+01 0.  0.
    9000005    1    3    3    0    0  0.52051443346E+02  0.64438301668E+02 -0.11025525787E+03  0.13790891692E+03  0.10000000000E+01 0.  0.
<mgrwt>
<rscale>  0 0.12593064E+03</rscale>
<asrwt>0</asrwt>
<pdfrwt beam="1">  1        2 0.16659157E-01 0.13394162E+03</pdfrwt>
<pdfrwt beam="2">  1       -2 0.30547368E-01 0.13394162E+03</pdfrwt>
<totfact> 0.32675988E+03</totfact>
</mgrwt>
</event>
<event>
 8    2  0.1628804E-003  0.1434264E+03  0.7818608E-02  0.1219155E+00
          2   -1    0    0  501    0  0.00000000000E+00  0.00000000000E+00  0.20558584914E+03  0.20558584916E+03  0.25500000000E-02 0. -1.
         -2   -1    0    0    0  501 -0.00000000000E+00 -0.00000000000E+00 -0.10667354560E+03  0.10667354563E+03  0.25500000000E-02 0.  1.
         25    2    1    2    0    0 -0.25118568309E+02  0.65693261307E+02 -0.22231886106E+02  0.14513917809E+03  0.12499830879E+03 0.  0.
         23    2    1    2    0    0  0.25118568309E+02 -0.65693261307E+02  0.12114418965E+03  0.16712021670E+03  0.91141127312E+02 0.  0.
        -11    1    4    4    0    0 -0.29553337680E+00 -0.64349440920E+02  0.27326382452E+02  0.69911866410E+02  0.51100000000E-03 0.  1.
         11    1    4    4    0    0  0.25414101686E+02 -0.13438203871E+01  0.93817807201E+02  0.97208350290E+02  0.51100000000E-03 0. -1.
    9000005    1    3    3    0    0 -0.22056446582E+01  0.32397852628E+02 -0.73198256268E+02  0.80084146022E+02  0.10000000000E+01 0.  0.
    9000005    1    3    3    0    0 -0.22912923651E+02  0.33295408679E+02  0.50966370163E+02  0.65055032064E+02  0.10000000000E+01 0.  0.
<mgrwt>
<rscale>  0 0.13575695E+03</rscale>
<asrwt>0</asrwt>
<pdfrwt beam="1">  1        2 0.31628592E-01 0.14342637E+03</pdfrwt>
<pdfrwt beam="2">  1       -2 0.16411315E-01 0.14342637E+03</pdfrwt>
<totfact> 0.46784505E+03</totfact>
</mgrwt>
</event>
<event>
 8    2  0.1628804E-003  0.3722156E+03  0.7818608E-02  0.1054578E+00
          2   -1    0    0  501    0  0.00000000000E+00  0.00000000000E+00  0.11975729908E+04  0.11975729908E+04  0.25500000000E-02 0. -1.
         -2   -1    0    0    0  501 -0.00000000000E+00 -0.00000000000E+00 -0.15705359467E+03  0.15705359469E+03  0.25500000000E-02 0.  1.
         25    2    1    2    0    0  0.30010555634E+03 -0.18126282444E+03  0.16679985080E+03  0.40788068364E+03  0.12499962155E+03 0.  0.
         23    2    1    2    0    0 -0.30010555634E+03  0.18126282444E+03  0.87371954530E+03  0.94674590182E+03  0.10011194885E+03 0.  0.
        -11    1    4    4    0    0 -0.26806363349E+03  0.11817946863E+03  0.72878156169E+03  0.78545977813E+03  0.51100000000E-03 0. -1.
         11    1    4    4    0    0 -0.32041922852E+02  0.63083355816E+02  0.14493798362E+03  0.16128612369E+03  0.51100000000E-03 0.  1.
    9000005    1    3    3    0    0  0.20503367572E+03 -0.75922984108E+02  0.50472137959E+02  0.22439149807E+03  0.10000000000E+01 0.  0.
    9000005    1    3    3    0    0  0.95071880619E+02 -0.10533984034E+03  0.11632771284E+03  0.18348918557E+03  0.10000000000E+01 0.  0.
<mgrwt>
<rscale>  0 0.37029999E+03</rscale>
<asrwt>0</asrwt>
<pdfrwt beam="1">  1        2 0.18424199E+00 0.37221561E+03</pdfrwt>
<pdfrwt beam="2">  1       -2 0.24162092E-01 0.37221561E+03</pdfrwt>
<totfact> 0.30120746E+02</totfact>
</mgrwt>
</event>
<event>
 8    2  0.1628804E-003  0.1267847E+03  0.7818608E-02  0.1247374E+00
          2   -1    0    0  501    0  0.00000000000E+00  0.00000000000E+00  0.44504519990E+02  0.44504520063E+02  0.25500000000E-02 0. -1.
         -2   -1    0    0    0  501 -0.00000000000E+00 -0.00000000000E+00 -0.31789799082E+03  0.31789799083E+03  0.25500000000E-02 0.  1.
         25    2    1    2    0    0  0.19149447032E+02  0.90937562586E+01 -0.22247932469E+03  0.25606915204E+03  0.12499985195E+03 0.  0.
         23    2    1    2    0    0 -0.19149447032E+02 -0.90937562586E+01 -0.50914146147E+02  0.10633335886E+03  0.90912789002E+02 0.  0.
        -11    1    4    4    0    0 -0.37524073087E+02  0.31118041634E+02 -0.31553172481E+02  0.58068849395E+02  0.51100000000E-03 0.  1.
         11    1    4    4    0    0  0.18374626055E+02 -0.40211797892E+02 -0.19360973666E+02  0.48264509466E+02  0.51100000000E-03 0. -1.
    9000005    1    3    3    0    0  0.72639213900E+02  0.51496366338E+01 -0.11915663028E+03  0.13965055207E+03  0.10000000000E+01 0.  0.
    9000005    1    3    3    0    0 -0.53489766868E+02  0.39441196248E+01 -0.10332269441E+03  0.11641859997E+03  0.10000000000E+01 0.  0.
<mgrwt>
<rscale>  0 0.11744395E+03</rscale>
<asrwt>0</asrwt>
<pdfrwt beam="1">  1        2 0.68468494E-02 0.12678470E+03</pdfrwt>
<pdfrwt beam="2">  1       -2 0.48907382E-01 0.12678470E+03</pdfrwt>
<totfact> 0.39593544E+03</totfact>
</mgrwt>
</event>
<event>
 8    2  0.1628804E-003  0.1385733E+03  0.7818608E-02  0.1227923E+00
         -2   -1    0    0    0  501 -0.00000000000E+00  0.00000000000E+00  0.22480937124E+02  0.22480937269E+02  0.25500000000E-02 0.  1.
          2   -1    0    0  501    0  0.00000000000E+00 -0.00000000000E+00 -0.66785923360E+03  0.66785923361E+03  0.25500000000E-02 0. -1.
         25    2    1    2    0    0  0.59652318922E+02  0.44792563106E+01 -0.35158864731E+03  0.37791154917E+03  0.12499639672E+03 0.  0.
         23    2    1    2    0    0 -0.59652318922E+02 -0.44792563106E+01 -0.29378964917E+03  0.31242862170E+03  0.87868212738E+02 0.  0.
        -11    1    4    4    0    0 -0.34970198297E+02  0.30964947939E+02 -0.23431567769E+03  0.23892588721E+03  0.51100000000E-03 0.  1.
         11    1    4    4    0    0 -0.24682120625E+02 -0.35444204250E+02 -0.59473971484E+02  0.73502734492E+02  0.51100000000E-03 0. -1.
    9000005    1    3    3    0    0  0.54012233064E+02 -0.28568886337E+02 -0.33493401674E+03  0.34046335802E+03  0.10000000000E+01 0.  0.
    9000005    1    3    3    0    0  0.56400858585E+01  0.33048142648E+02 -0.16654630567E+02  0.37448191148E+02  0.10000000000E+01 0.  0.
<mgrwt>
<rscale>  0 0.12968539E+03</rscale>
<asrwt>0</asrwt>
<pdfrwt beam="2">  1        2 0.10274756E+00 0.13857331E+03</pdfrwt>
<pdfrwt beam="1">  1       -2 0.34586062E-02 0.13857331E+03</pdfrwt>
<totfact> 0.14470499E+04</totfact>
</mgrwt>
</event>
<event>
 8    2  0.1628804E-003  0.1622675E+03  0.7818608E-02  0.1193348E+00
          2   -1    0    0  501    0  0.00000000000E+00  0.00000000000E+00  0.11296579461E+04  0.11296579461E+04  0.25500000000E-02 0. -1.
         -2   -1    0    0    0  501 -0.00000000000E+00 -0.00000000000E+00 -0.25737146410E+02  0.25737146536E+02  0.25500000000E-02 0.  1.
         25    2    1    2    0    0  0.31488802446E+02 -0.98556876820E+02  0.85781115639E+03  0.87302388730E+03  0.12500290048E+03 0.  0.
         23    2    1    2    0    0 -0.31488802446E+02  0.98556876820E+02  0.24610964329E+03  0.28237120533E+03  0.91970312757E+02 0.  0.
        -11    1    4    4    0    0 -0.29108233713E+02  0.50230420689E+01  0.12970011518E+03  0.13302120169E+03  0.51100000000E-03 0. -1.
         11    1    4    4    0    0 -0.23805687334E+01  0.93533834751E+02  0.11640952812E+03  0.14935000364E+03  0.51100000000E-03 0.  1.
    9000005    1    3    3    0    0  0.21338514167E+02  0.25520406522E+02  0.27882373775E+03  0.28080295595E+03  0.10000000000E+01 0.  0.
    9000005    1    3    3    0    0  0.10150288279E+02 -0.12407728334E+03  0.57898741864E+03  0.59222093135E+03  0.10000000000E+01 0.  0.
<mgrwt>
<rscale>  0 0.15594916E+03</rscale>
<asrwt>0</asrwt>
<pdfrwt beam="1">  1        2 0.17379355E+00 0.16226746E+03</pdfrwt>
<pdfrwt beam="2">  1       -2 0.39595606E-02 0.16226746E+03</pdfrwt>
<totfact> 0.60174232E+03</totfact>
</mgrwt>
</event>
<event>
 8    2  0.1628804E-003  0.1425174E+03  0.7818608E-02  0.1220728E+00
         -2   -1    0    0    0  501 -0.00000000000E+00  0.00000000000E+00  0.31170781143E+03  0.31170781144E+03  0.25500000000E-02 0.  1.
          2   -1    0    0  501    0  0.00000000000E+00 -0.00000000000E+00 -0.53969324479E+02  0.53969324539E+02  0.25500000000E-02 0. -1.
         25    2    1    2    0    0  0.34543477537E+01  0.68365315142E+02  0.11393353949E+03  0.18246111628E+03  0.12500183479E+03 0.  0.
         23    2    1    2    0    0 -0.34543477537E+01 -0.68365315142E+02  0.14380494746E+03  0.18321601970E+03  0.90567643926E+02 0.  0.
        -11    1    4    4    0    0  0.11163921239E+02 -0.23895953120E+02  0.13244664575E+03  0.13504726463E+03  0.51100000000E-03 0. -1.
         11    1    4    4    0    0 -0.14618268993E+02 -0.44469362022E+02  0.11358301713E+02  0.48168755070E+02  0.51100000000E-03 0.  1.
    9000005    1    3    3    0    0  0.50866431680E+02 -0.90997242799E+01  0.42104058117E+02  0.66662962458E+02  0.10000000000E+01 0.  0.
    9000005    1    3    3    0    0 -0.47412083926E+02  0.77465039422E+02  0.71829481372E+02  0.11579815382E+03  0.10000000000E+01 0.  0.
<mgrwt>
<rscale>  0 0.13464032E+03</rscale>
<asrwt>0</asrwt>
<pdfrwt beam="2">  1        2 0.83029730E-02 0.14251739E+03</pdfrwt>
<pdfrwt beam="1">  1       -2 0.47955048E-01 0.14251739E+03</pdfrwt>
<totfact> 0.32518075E+03</totfact>
</mgrwt>
</event>
<event>
 8    2  0.1628804E-003  0.1392219E+03  0.7818608E-02  0.1224673E+00
          2   -1    0    0  501    0  0.00000000000E+00  0.00000000000E+00  0.68763724136E+02  0.68763724183E+02  0.25500000000E-02 0. -1.
         -2   -1    0    0    0  501 -0.00000000000E+00 -0.00000000000E+00 -0.28125146541E+03  0.28125146542E+03  0.25500000000E-02 0.  1.
         25    2    1    2    0    0 -0.60288553650E+02  0.11078297701E+02 -0.41032270948E+02  0.14514260981E+03  0.12500116616E+03 0.  0.
         23    2    1    2    0    0  0.60288553650E+02 -0.11078297701E+02 -0.17145547032E+03  0.20487257980E+03  0.93906108785E+02 0.  0.
        -11    1    4    4    0    0  0.12465619151E+00  0.35169815482E+02 -0.41650100097E+02  0.54512955328E+02  0.51100000000E-03 0. -1.
         11    1    4    4    0    0  0.60163897458E+02 -0.46248113183E+02 -0.12980537023E+03  0.15035962447E+03  0.51100000000E-03 0.  1.
    9000005    1    3    3    0    0 -0.38625439681E+02  0.11281138541E+02 -0.86146538102E+02  0.95086353933E+02  0.10000000000E+01 0.  0.
    9000005    1    3    3    0    0 -0.21663113968E+02 -0.20284084000E+00  0.45114267154E+02  0.50056255873E+02  0.10000000000E+01 0.  0.
<mgrwt>
<rscale>  0 0.13189324E+03</rscale>
<asrwt>0</asrwt>
<pdfrwt beam="1">  1        2 0.10579035E-01 0.13922187E+03</pdfrwt>
<pdfrwt beam="2">  1       -2 0.43269456E-01 0.13922187E+03</pdfrwt>
<totfact> 0.29386575E+03</totfact>
</mgrwt>
</event>
<event>
 8    2  0.1628804E-003  0.1529689E+03  0.7818608E-02  0.1205730E+00
          2   -1    0    0  501    0  0.00000000000E+00  0.00000000000E+00  0.95092942967E+03  0.95092942968E+03  0.25500000000E-02 0. -1.
         -2   -1    0    0    0  501 -0.00000000000E+00 -0.00000000000E+00 -0.22360169102E+02  0.22360169247E+02  0.25500000000E-02 0.  1.
         25    2    1    2    0    0 -0.12229859901E+02  0.87321477409E+02  0.36510811416E+03  0.39585784422E+03  0.12499955167E+03 0.  0.
         23    2    1    2    0    0  0.12229859901E+02 -0.87321477409E+02  0.56346114641E+03  0.57743175470E+03  0.90356836661E+02 0.  0.
        -11    1    4    4    0    0  0.11438338434E+02 -0.13228677229E+02  0.12465202075E+02  0.21475910933E+02  0.51100000000E-03 0.  1.
         11    1    4    4    0    0  0.79152146696E+00 -0.74092800180E+02  0.55099594434E+03  0.55595584377E+03  0.51100000000E-03 0. -1.
    9000005    1    3    3    0    0  0.54736815398E+02  0.27133316203E+02  0.11851045865E+03  0.13333440898E+03  0.10000000000E+01 0.  0.
    9000005    1    3    3    0    0 -0.66966675299E+02  0.60188161206E+02  0.24659765551E+03  0.26252343525E+03  0.10000000000E+01 0.  0.
<mgrwt>
<rscale>  0 0.14580082E+03</rscale>
<asrwt>0</asrwt>
<pdfrwt beam="1">  1        2 0.14629682E+00 0.15296894E+03</pdfrwt>
<pdfrwt beam="2">  1       -2 0.34400263E-02 0.15296894E+03</pdfrwt>
<totfact> 0.94356837E+03</totfact>
</mgrwt>
</event>
<event>
 8    2  0.1628804E-003  0.1454790E+03  0.7818608E-02  0.1216320E+00
          2   -1    0    0  501    0  0.00000000000E+00  0.00000000000E+00  0.56239751059E+03  0.56239751060E+03  0.25500000000E-02 0. -1.
         -2   -1    0    0    0  501 -0.00000000000E+00 -0.00000000000E+00 -0.38716073765E+02  0.38716073849E+02  0.25500000000E-02 0.  1.
         25    2    1    2    0    0 -0.41892920193E+02  0.61507006256E+02  0.42077045781E+03  0.44520996721E+03  0.12500403255E+03 0.  0.
         23    2    1    2    0    0  0.41892920193E+02 -0.61507006256E+02  0.10291097901E+03  0.15590361724E+03  0.90427538312E+02 0.  0.
        -11    1    4    4    0    0 -0.11533846314E+02 -0.61838488216E+02  0.64541174040E+02  0.90125420290E+02  0.51100000000E-03 0.  1.
         11    1    4    4    0    0  0.53426766506E+02  0.33148196068E+00  0.38369804975E+02  0.65778196948E+02  0.51100000000E-03 0. -1.
    9000005    1    3    3    0    0 -0.16791923042E+02  0.30203082427E+02  0.15381602856E+02  0.37838982200E+02  0.10000000000E+01 0.  0.
    9000005    1    3    3    0    0 -0.25100997150E+02  0.31303923829E+02  0.40538885496E+03  0.40737098501E+03  0.10000000000E+01 0.  0.
<mgrwt>
<rscale>  0 0.13780049E+03</rscale>
<asrwt>0</asrwt>
<pdfrwt beam="1">  1        2 0.86522690E-01 0.14547899E+03</pdfrwt>
<pdfrwt beam="2">  1       -2 0.59563193E-02 0.14547899E+03</pdfrwt>
<totfact> 0.78360353E+03</totfact>
</mgrwt>
</event>
<event>
 8    2  0.1628804E-003  0.1359698E+03  0.7818608E-02  0.1230606E+00
         -2   -1    0    0    0  501 -0.00000000000E+00  0.00000000000E+00  0.55607837731E+02  0.55607837790E+02  0.25500000000E-02 0.  1.
          2   -1    0    0  501    0  0.00000000000E+00 -0.00000000000E+00 -0.27837022504E+03  0.27837022505E+03  0.25500000000E-02 0. -1.
         25    2    1    2    0    0 -0.28354003323E+02 -0.45374238014E+02 -0.16165198849E+03  0.21123244980E+03  0.12500004595E+03 0.  0.
         23    2    1    2    0    0  0.28354003323E+02  0.45374238014E+02 -0.61110398821E+02  0.12274561304E+03  0.92028439604E+02 0.  0.
        -11    1    4    4    0    0  0.61074063572E+02  0.40270266669E+02 -0.45339329765E+02  0.86066198025E+02  0.51100000000E-03 0.  1.
         11    1    4    4    0    0 -0.32720060249E+02  0.51039713455E+01 -0.15771069056E+02  0.36679415012E+02  0.51100000000E-03 0. -1.
    9000005    1    3    3    0    0 -0.61393138403E+02 -0.67122932320E+02 -0.82800388046E+02  0.12301020180E+03  0.10000000000E+01 0.  0.
    9000005    1    3    3    0    0  0.33039135079E+02  0.21748694306E+02 -0.78851600440E+02  0.88222248003E+02  0.10000000000E+01 0.  0.
<mgrwt>
<rscale>  0 0.12789988E+03</rscale>
<asrwt>0</asrwt>
<pdfrwt beam="2">  1        2 0.42826188E-01 0.13596979E+03</pdfrwt>
<pdfrwt beam="1">  1       -2 0.85550521E-02 0.13596979E+03</pdfrwt>
<totfact> 0.95498622E+03</totfact>
</mgrwt>
</event>
<event>
 8    2  0.1628804E-003  0.1552189E+03  0.7818608E-02  0.1202195E+00
          2   -1    0    0  501    0  0.00000000000E+00  0.00000000000E+00  0.12107919769E+04  0.12107919769E+04  0.25500000000E-02 0. -1.
         -2   -1    0    0    0  501 -0.00000000000E+00 -0.00000000000E+00 -0.74357003965E+02  0.74357004009E+02  0.25500000000E-02 0.  1.
         25    2    1    2    0    0  0.92010004720E+02 -0.15687788548E+00  0.11440325916E+04  0.11545143867E+04  0.12500813128E+03 0.  0.
         23    2    1    2    0    0 -0.92010004720E+02  0.15687788548E+00 -0.75976186714E+01  0.13063459420E+03  0.92421901156E+02 0.  0.
        -11    1    4    4    0    0 -0.81191580823E+02  0.29381203633E+02 -0.30917463047E+02  0.91712689662E+02  0.51100000000E-03 0. -1.
         11    1    4    4    0    0 -0.10818423897E+02 -0.29224325747E+02  0.23319844375E+02  0.38921904539E+02  0.51100000000E-03 0.  1.
    9000005    1    3    3    0    0  0.94030025310E+02  0.33457244643E+02  0.10480321833E+04  0.10527741876E+04  0.10000000000E+01 0.  0.
    9000005    1    3    3    0    0 -0.20200205898E+01 -0.33614122528E+02  0.96000408286E+02  0.10174019907E+03  0.10000000000E+01 0.  0.
<mgrwt>
<rscale>  0 0.14860691E+03</rscale>
<asrwt>0</asrwt>
<pdfrwt beam="1">  1        2 0.18627567E+00 0.15521887E+03</pdfrwt>
<pdfrwt beam="2">  1       -2 0.11439540E-01 0.15521887E+03</pdfrwt>
<totfact> 0.10609151E+03</totfact>
</mgrwt>
</event>
<event>
 8    2  0.1628804E-003  0.1304284E+03  0.7818608E-02  0.1240621E+00
          2   -1    0    0  501    0  0.00000000000E+00  0.00000000000E+00  0.11216000311E+04  0.11216000312E+04  0.25500000000E-02 0. -1.
         -2   -1    0    0    0  501 -0.00000000000E+00 -0.00000000000E+00 -0.11657304202E+02  0.11657304481E+02  0.25500000000E-02 0.  1.
         25    2    1    2    0    0 -0.16616932864E+02  0.33329790877E+02  0.63077654559E+03  0.64412003151E+03  0.12499826838E+03 0.  0.
         23    2    1    2    0    0  0.16616932864E+02 -0.33329790877E+02  0.47916618135E+03  0.48913730413E+03  0.90928958636E+02 0.  0.
        -11    1    4    4    0    0 -0.12681308753E+02 -0.49288879725E+02  0.40004959150E+03  0.40327395764E+03  0.51100000000E-03 0. -1.
         11    1    4    4    0    0  0.29298241617E+02  0.15959088847E+02  0.79116589855E+02  0.85863346483E+02  0.51100000000E-03 0.  1.
    9000005    1    3    3    0    0  0.32203146602E+01  0.17775806952E+02  0.63360991667E+01  0.19170182367E+02  0.10000000000E+01 0.  0.
    9000005    1    3    3    0    0 -0.19837247524E+02  0.15553983925E+02  0.62444044643E+03  0.62494984914E+03  0.10000000000E+01 0.  0.
<mgrwt>
<rscale>  0 0.12151322E+03</rscale>
<asrwt>0</asrwt>
<pdfrwt beam="1">  1        2 0.17255384E+00 0.13042839E+03</pdfrwt>
<pdfrwt beam="2">  1       -2 0.17934315E-02 0.13042839E+03</pdfrwt>
<totfact> 0.19220202E+04</totfact>
</mgrwt>
</event>
<event>
 8    2  0.1628804E-003  0.2532805E+03  0.7818608E-02  0.1113660E+00
          2   -1    0    0  501    0  0.00000000000E+00  0.00000000000E+00  0.60043100891E+03  0.60043100891E+03  0.25500000000E-02 0. -1.
         -2   -1    0    0    0  501 -0.00000000000E+00 -0.00000000000E+00 -0.13053441768E+03  0.13053441771E+03  0.25500000000E-02 0.  1.
         25    2    1    2    0    0  0.13031567737E+03 -0.17760743823E+03  0.65521045295E+02  0.26161810048E+03  0.12499778095E+03 0.  0.
         23    2    1    2    0    0 -0.13031567737E+03  0.17760743823E+03  0.40437554593E+03  0.46934732613E+03  0.90778590661E+02 0.  0.
        -11    1    4    4    0    0 -0.31440083107E+02  0.43889219685E+02  0.35218778609E+02  0.64460102368E+02  0.51100000000E-03 0.  1.
         11    1    4    4    0    0 -0.98875594263E+02  0.13371821854E+03  0.36915676732E+03  0.40488722377E+03  0.51100000000E-03 0. -1.
    9000005    1    3    3    0    0  0.32866490659E+02 -0.14263505322E+03  0.59173317457E+02  0.15788428077E+03  0.10000000000E+01 0.  0.
    9000005    1    3    3    0    0  0.97449186711E+02 -0.34972385008E+02  0.63477278375E+01  0.10373381971E+03  0.10000000000E+01 0.  0.
<mgrwt>
<rscale>  0 0.24943860E+03</rscale>
<asrwt>0</asrwt>
<pdfrwt beam="1">  1        2 0.92374001E-01 0.25328052E+03</pdfrwt>
<pdfrwt beam="2">  1       -2 0.20082218E-01 0.25328052E+03</pdfrwt>
<totfact> 0.10537099E+03</totfact>
</mgrwt>
</event>
<event>
 8    2  0.1628804E-003  0.1283633E+03  0.7818608E-02  0.1243817E+00
         -2   -1    0    0    0  501 -0.00000000000E+00  0.00000000000E+00  0.81086386667E+01  0.81086390677E+01  0.25500000000E-02 0.  1.
          2   -1    0    0  501    0  0.00000000000E+00 -0.00000000000E+00 -0.20351986868E+04  0.20351986868E+04  0.25500000000E-02 0. -1.
         25    2    1    2    0    0  0.10271191591E+02  0.27319017509E+02 -0.63364297481E+03  0.64651416489E+03  0.12500127913E+03 0.  0.
         23    2    1    2    0    0 -0.10271191591E+02 -0.27319017509E+02 -0.13934470733E+04  0.13967931610E+04  0.92111683888E+02 0.  0.
        -11    1    4    4    0    0 -0.13511559803E+02  0.15385358151E+02 -0.77806784287E+02  0.80455995272E+02  0.51100000000E-03 0.  1.
         11    1    4    4    0    0  0.32403682120E+01 -0.42704375660E+02 -0.13156402891E+04  0.13163371657E+04  0.51100000000E-03 0. -1.
    9000005    1    3    3    0    0  0.47844290304E+02  0.60269935535E+02 -0.42954209465E+03  0.43638165901E+03  0.10000000000E+01 0.  0.
    9000005    1    3    3    0    0 -0.37573098713E+02 -0.32950918026E+02 -0.20410088016E+03  0.21013250588E+03  0.10000000000E+01 0.  0.
<mgrwt>
<rscale>  0 0.11956474E+03</rscale>
<asrwt>0</asrwt>
<pdfrwt beam="2">  1        2 0.31310708E+00 0.12836334E+03</pdfrwt>
<pdfrwt beam="1">  1       -2 0.12474845E-02 0.12836334E+03</pdfrwt>
<totfact> 0.10780236E+04</totfact>
</mgrwt>
</event>
<event>
 8    2  0.1628804E-003  0.1903058E+03  0.7818608E-02  0.1162780E+00
          2   -1    0    0  501    0  0.00000000000E+00  0.00000000000E+00  0.23438179147E+04  0.23438179147E+04  0.25500000000E-02 0. -1.
         -2   -1    0    0    0  501 -0.00000000000E+00 -0.00000000000E+00 -0.14981930072E+02  0.14981930289E+02  0.25500000000E-02 0.  1.
         25    2    1    2    0    0 -0.90564022569E+02  0.11131436387E+03  0.15349443037E+04  0.15466965810E+04  0.12499427353E+03 0.  0.
         23    2    1    2    0    0  0.90564022569E+02 -0.11131436387E+03  0.79389168092E+03  0.81210326399E+03  0.93032147976E+02 0.  0.
        -11    1    4    4    0    0  0.62846551246E+02 -0.85569222506E+01  0.25205225301E+03  0.25991007708E+03  0.51100000000E-03 0.  1.
         11    1    4    4    0    0  0.27717471323E+02 -0.10275744162E+03  0.54183942791E+03  0.55219318691E+03  0.51100000000E-03 0. -1.
    9000005    1    3    3    0    0  0.21584838240E+02  0.56522886564E+02  0.68018223370E+03  0.68286866452E+03  0.10000000000E+01 0.  0.
    9000005    1    3    3    0    0 -0.11214886081E+03  0.54791477304E+02  0.85476206999E+03  0.86382791647E+03  0.10000000000E+01 0.  0.
<mgrwt>
<rscale>  0 0.18528937E+03</rscale>
<asrwt>0</asrwt>
<pdfrwt beam="1">  1        2 0.36058736E+00 0.19030580E+03</pdfrwt>
<pdfrwt beam="2">  1       -2 0.23049124E-02 0.19030580E+03</pdfrwt>
<totfact> 0.30681319E+03</totfact>
</mgrwt>
</event>
<event>
 8    2  0.1628804E-003  0.1475602E+03  0.7818608E-02  0.1213170E+00
         -2   -1    0    0    0  501 -0.00000000000E+00  0.00000000000E+00  0.33472573245E+03  0.33472573246E+03  0.25500000000E-02 0. -1.
          2   -1    0    0  501    0  0.00000000000E+00 -0.00000000000E+00 -0.54296080027E+02  0.54296080086E+02  0.25500000000E-02 0.  1.
         25    2    1    2    0    0  0.44770916242E+02  0.64380483176E+02  0.17852481703E+03  0.23161418395E+03  0.12499895343E+03 0.  0.
         23    2    1    2    0    0 -0.44770916242E+02 -0.64380483176E+02  0.10190483540E+03  0.15740762859E+03  0.90792535528E+02 0.  0.
        -11    1    4    4    0    0 -0.36078689311E+02 -0.34857400831E+02  0.11383585294E+03  0.12439980558E+03  0.51100000000E-03 0. -1.
         11    1    4    4    0    0 -0.86922269311E+01 -0.29523082345E+02 -0.11931017540E+02  0.33007823012E+02  0.51100000000E-03 0.  1.
    9000005    1    3    3    0    0  0.73888544715E+02  0.40999284635E+02  0.50940155628E+02  0.98672984327E+02  0.10000000000E+01 0.  0.
    9000005    1    3    3    0    0 -0.29117628473E+02  0.23381198542E+02  0.12758466140E+03  0.13294119963E+03  0.10000000000E+01 0.  0.
<mgrwt>
<rscale>  0 0.14011811E+03</rscale>
<asrwt>0</asrwt>
<pdfrwt beam="2">  1        2 0.83532431E-02 0.14756022E+03</pdfrwt>
<pdfrwt beam="1">  1       -2 0.51496266E-01 0.14756022E+03</pdfrwt>
<totfact> 0.28090820E+03</totfact>
</mgrwt>
</event>
<event>
 8    2  0.1628804E-003  0.2435044E+03  0.7818608E-02  0.1119902E+00
          2   -1    0    0  501    0  0.00000000000E+00  0.00000000000E+00  0.31323036897E+03  0.31323036898E+03  0.25500000000E-02 0. -1.
         -2   -1    0    0    0  501 -0.00000000000E+00 -0.00000000000E+00 -0.18872688599E+03  0.18872688600E+03  0.25500000000E-02 0.  1.
         25    2    1    2    0    0  0.20094454320E+03 -0.57343263666E+02  0.51070724242E+01  0.24355799185E+03  0.12500981511E+03 0.  0.
         23    2    1    2    0    0 -0.20094454320E+03  0.57343263666E+02  0.11939641056E+03  0.25839926313E+03  0.94062303838E+02 0.  0.
        -11    1    4    4    0    0 -0.13114421677E+03  0.82525208904E+02  0.79731213748E+02  0.17425923833E+03  0.51100000000E-03 0.  1.
         11    1    4    4    0    0 -0.69800326432E+02 -0.25181945238E+02  0.39665196810E+02  0.84140024805E+02  0.51100000000E-03 0. -1.
    9000005    1    3    3    0    0 -0.16422752225E+02 -0.14186834953E+02  0.30355885927E+01  0.21935994956E+02  0.10000000000E+01 0.  0.
    9000005    1    3    3    0    0  0.21736729543E+03 -0.43156428713E+02  0.20714838315E+01  0.22162199689E+03  0.10000000000E+01 0.  0.
<mgrwt>
<rscale>  0 0.23983649E+03</rscale>
<asrwt>0</asrwt>
<pdfrwt beam="1">  1        2 0.48189287E-01 0.24350444E+03</pdfrwt>
<pdfrwt beam="2">  1       -2 0.29034906E-01 0.24350444E+03</pdfrwt>
<totfact> 0.11314600E+03</totfact>
</mgrwt>
</event>
<event>
 8    2  0.1628804E-003  0.1622867E+03  0.7818608E-02  0.1193561E+00
         -2   -1    0    0    0  501 -0.00000000000E+00  0.00000000000E+00  0.36561616208E+02  0.36561616297E+02  0.25500000000E-02 0.  1.
          2   -1    0    0  501    0  0.00000000000E+00 -0.00000000000E+00 -0.61846504285E+03  0.61846504286E+03  0.25500000000E-02 0. -1.
         25    2    1    2    0    0  0.86956056205E+02  0.56126577670E+02 -0.29200128893E+03  0.33406844397E+03  0.12500169632E+03 0.  0.
         23    2    1    2    0    0 -0.86956056205E+02 -0.56126577670E+02 -0.28990213771E+03  0.32095821519E+03  0.90881120241E+02 0.  0.
        -11    1    4    4    0    0 -0.77241428640E+02 -0.50337724979E+02 -0.12322443369E+03  0.15389732263E+03  0.51100000000E-03 0.  1.
         11    1    4    4    0    0 -0.97146275646E+01 -0.57888526911E+01 -0.16667770402E+03  0.16706089256E+03  0.51100000000E-03 0. -1.
    9000005    1    3    3    0    0  0.34073343789E+02 -0.38069503966E+02 -0.12647850462E+03  0.13641148053E+03  0.10000000000E+01 0.  0.
    9000005    1    3    3    0    0  0.52882712416E+02  0.94196081637E+02 -0.16552278431E+03  0.19765696344E+03  0.10000000000E+01 0.  0.
<mgrwt>
<rscale>  0 0.15576621E+03</rscale>
<asrwt>0</asrwt>
<pdfrwt beam="2">  1        2 0.95148460E-01 0.16228670E+03</pdfrwt>
<pdfrwt beam="1">  1       -2 0.56248645E-02 0.16228670E+03</pdfrwt>
<totfact> 0.77188778E+03</totfact>
</mgrwt>
</event>
<event>
 8    2  0.1628804E-003  0.3229325E+03  0.7818608E-02  0.1075638E+00
          2   -1    0    0  501    0  0.00000000000E+00  0.00000000000E+00  0.12267046975E+04  0.12267046975E+04  0.25500000000E-02 0. -1.
         -2   -1    0    0    0  501 -0.00000000000E+00 -0.00000000000E+00 -0.13091955470E+03  0.13091955473E+03  0.25500000000E-02 0.  1.
         25    2    1    2    0    0 -0.66488442375E+02 -0.29024081687E+03  0.13927972308E+03  0.35168774632E+03  0.12499993962E+03 0.  0.
         23    2    1    2    0    0  0.66488442375E+02  0.29024081687E+03  0.95650541972E+03  0.10059365059E+04  0.91352018141E+02 0.  0.
        -11    1    4    4    0    0  0.43318645525E+02  0.17851008850E+03  0.43682367632E+03  0.47387475237E+03  0.51100000000E-03 0.  1.
         11    1    4    4    0    0  0.23169796850E+02  0.11173072838E+03  0.51968174340E+03  0.53206175354E+03  0.51100000000E-03 0. -1.
    9000005    1    3    3    0    0 -0.42963958193E+02 -0.19670218903E+02  0.18403145724E+01  0.47299111758E+02  0.10000000000E+01 0.  0.
    9000005    1    3    3    0    0 -0.23524484182E+02 -0.27057059797E+03  0.13743940850E+03  0.30438863456E+03  0.10000000000E+01 0.  0.
<mgrwt>
<rscale>  0 0.32002469E+03</rscale>
<asrwt>0</asrwt>
<pdfrwt beam="1">  1        2 0.18872379E+00 0.32293255E+03</pdfrwt>
<pdfrwt beam="2">  1       -2 0.20141471E-01 0.32293255E+03</pdfrwt>
<totfact> 0.40062042E+02</totfact>
</mgrwt>
</event>
<event>
 8    2  0.1628804E-003  0.1314786E+03  0.7818608E-02  0.1239116E+00
          2   -1    0    0  501    0  0.00000000000E+00  0.00000000000E+00  0.90004529918E+03  0.90004529918E+03  0.25500000000E-02 0. -1.
         -2   -1    0    0    0  501 -0.00000000000E+00 -0.00000000000E+00 -0.15025013761E+02  0.15025013977E+02  0.25500000000E-02 0.  1.
         25    2    1    2    0    0 -0.30806522847E+02  0.26695326613E+02  0.56601331716E+03  0.58108320386E+03  0.12499972918E+03 0.  0.
         23    2    1    2    0    0  0.30806522847E+02 -0.26695326613E+02  0.31900696826E+03  0.33398710930E+03  0.90112491183E+02 0.  0.
        -11    1    4    4    0    0 -0.44395662462E+01 -0.38397528644E+02  0.26865137347E+03  0.27141783364E+03  0.51100000000E-03 0. -1.
         11    1    4    4    0    0  0.35246089093E+02  0.11702202031E+02  0.50355594791E+02  0.62569275653E+02  0.51100000000E-03 0.  1.
    9000005    1    3    3    0    0  0.32561518188E+02  0.35050531378E+02  0.40543101602E+03  0.40824514813E+03  0.10000000000E+01 0.  0.
    9000005    1    3    3    0    0 -0.63368041035E+02 -0.83552047645E+01  0.16058230114E+03  0.17283805573E+03  0.10000000000E+01 0.  0.
<mgrwt>
<rscale>  0 0.12244594E+03</rscale>
<asrwt>0</asrwt>
<pdfrwt beam="1">  1        2 0.13846850E+00 0.13147857E+03</pdfrwt>
<pdfrwt beam="2">  1       -2 0.23115408E-02 0.13147857E+03</pdfrwt>
<totfact> 0.18024884E+04</totfact>
</mgrwt>
</event>
<event>
 8    2  0.1628804E-003  0.1355773E+03  0.7818608E-02  0.1231606E+00
          2   -1    0    0  501    0  0.00000000000E+00  0.00000000000E+00  0.69166541170E+03  0.69166541171E+03  0.25500000000E-02 0. -1.
         -2   -1    0    0    0  501 -0.00000000000E+00 -0.00000000000E+00 -0.25631421933E+02  0.25631422060E+02  0.25500000000E-02 0.  1.
         25    2    1    2    0    0 -0.32738631834E+02  0.41075756746E+02  0.21513901706E+03  0.25429510185E+03  0.12498866492E+03 0.  0.
         23    2    1    2    0    0  0.32738631834E+02 -0.41075756746E+02  0.45089497271E+03  0.46300173192E+03  0.91133372239E+02 0.  0.
        -11    1    4    4    0    0  0.27112548414E+02  0.45072873772E-01  0.37913948082E+03  0.38010766663E+03  0.51100000000E-03 0. -1.
         11    1    4    4    0    0  0.56260834200E+01 -0.41120829620E+02  0.71755491889E+02  0.82894065287E+02  0.51100000000E-03 0.  1.
    9000005    1    3    3    0    0  0.18096426327E+02  0.16573529888E+02 -0.66446822329E+01  0.25442372938E+02  0.10000000000E+01 0.  0.
    9000005    1    3    3    0    0 -0.50835058161E+02  0.24502226858E+02  0.22178369929E+03  0.22885272891E+03  0.10000000000E+01 0.  0.
<mgrwt>
<rscale>  0 0.12724210E+03</rscale>
<asrwt>0</asrwt>
<pdfrwt beam="1">  1        2 0.10641005E+00 0.13557729E+03</pdfrwt>
<pdfrwt beam="2">  1       -2 0.39432960E-02 0.13557729E+03</pdfrwt>
<totfact> 0.11416653E+04</totfact>
</mgrwt>
</event>
<event>
 8    2  0.1628804E-003  0.2252777E+03  0.7818608E-02  0.1133102E+00
          2   -1    0    0  501    0  0.00000000000E+00  0.00000000000E+00  0.82005450689E+03  0.82005450689E+03  0.25500000000E-02 0. -1.
         -2   -1    0    0    0  501 -0.00000000000E+00 -0.00000000000E+00 -0.65271772729E+02  0.65271772779E+02  0.25500000000E-02 0.  1.
         25    2    1    2    0    0  0.15840543182E+03 -0.10017031995E+03  0.23685414787E+03  0.32687909610E+03  0.12499472899E+03 0.  0.
         23    2    1    2    0    0 -0.15840543182E+03  0.10017031995E+03  0.51792858628E+03  0.55844718356E+03  0.92124168992E+02 0.  0.
        -11    1    4    4    0    0 -0.86779674304E+02  0.69816329907E+02  0.17993392656E+03  0.21161580688E+03  0.51100000000E-03 0.  1.
         11    1    4    4    0    0 -0.71625757519E+02  0.30353990044E+02  0.33799465972E+03  0.34683137668E+03  0.51100000000E-03 0. -1.
    9000005    1    3    3    0    0  0.84082988975E+02  0.17454587106E+02  0.98007054124E+02  0.13031114420E+03  0.10000000000E+01 0.  0.
    9000005    1    3    3    0    0  0.74322442849E+02 -0.11762490706E+03  0.13884709375E+03  0.19656795190E+03  0.10000000000E+01 0.  0.
<mgrwt>
<rscale>  0 0.22105024E+03</rscale>
<asrwt>0</asrwt>
<pdfrwt beam="1">  1        2 0.12616224E+00 0.22527773E+03</pdfrwt>
<pdfrwt beam="2">  1       -2 0.10041811E-01 0.22527773E+03</pdfrwt>
<totfact> 0.22559069E+03</totfact>
</mgrwt>
</event>
<event>
 8    2  0.1628804E-003  0.1339895E+03  0.7818608E-02  0.1234633E+00
         -2   -1    0    0    0  501 -0.00000000000E+00  0.00000000000E+00  0.13237670451E+02  0.13237670697E+02  0.25500000000E-02 0.  1.
          2   -1    0    0  501    0  0.00000000000E+00 -0.00000000000E+00 -0.13234421906E+04  0.13234421906E+04  0.25500000000E-02 0. -1.
         25    2    1    2    0    0 -0.39602102566E+01 -0.48101279841E+02 -0.42624604000E+03  0.44680966086E+03  0.12499508005E+03 0.  0.
         23    2    1    2    0    0  0.39602102566E+01  0.48101279841E+02 -0.88395848016E+03  0.88987020045E+03  0.90315904521E+02 0.  0.
        -11    1    4    4    0    0 -0.25757134279E+02  0.25673095145E+02 -0.12993974639E+03  0.13493285542E+03  0.51100000000E-03 0.  1.
         11    1    4    4    0    0  0.29717344536E+02  0.22428184697E+02 -0.75401873377E+03  0.75493734502E+03  0.51100000000E-03 0. -1.
    9000005    1    3    3    0    0  0.21316050548E+02 -0.63259733919E+02 -0.40499364850E+03  0.41045952696E+03  0.10000000000E+01 0.  0.
    9000005    1    3    3    0    0 -0.25276260804E+02  0.15158454078E+02 -0.21252391497E+02  0.36350133901E+02  0.10000000000E+01 0.  0.
<mgrwt>
<rscale>  0 0.12527986E+03</rscale>
<asrwt>0</asrwt>
<pdfrwt beam="2">  1        2 0.20360639E+00 0.13398950E+03</pdfrwt>
<pdfrwt beam="1">  1       -2 0.20365657E-02 0.13398950E+03</pdfrwt>
<totfact> 0.12401353E+04</totfact>
</mgrwt>
</event>
<event>
 8    2  0.1628804E-003  0.1954836E+03  0.7818608E-02  0.1157507E+00
          2   -1    0    0  501    0  0.00000000000E+00  0.00000000000E+00  0.52815010229E+03  0.52815010229E+03  0.25500000000E-02 0. -1.
         -2   -1    0    0    0  501 -0.00000000000E+00 -0.00000000000E+00 -0.70326476864E+02  0.70326476911E+02  0.25500000000E-02 0.  1.
         25    2    1    2    0    0  0.86250256566E+02 -0.12308393498E+03  0.16604025967E+03  0.25648235005E+03  0.12500026499E+03 0.  0.
         23    2    1    2    0    0 -0.86250256566E+02  0.12308393498E+03  0.29178336575E+03  0.34199422916E+03  0.96092447364E+02 0.  0.
        -11    1    4    4    0    0 -0.73304299435E+02  0.13203242523E+03  0.20971634059E+03  0.25843185782E+03  0.51100000000E-03 0.  1.
         11    1    4    4    0    0 -0.12945957132E+02 -0.89484902516E+01  0.82067025162E+02  0.83562371334E+02  0.51100000000E-03 0. -1.
    9000005    1    3    3    0    0  0.88870207448E+02 -0.59209012365E+02  0.15985791945E+03  0.19224769264E+03  0.10000000000E+01 0.  0.
    9000005    1    3    3    0    0 -0.26199508820E+01 -0.63874922611E+02  0.61823402258E+01  0.64234657404E+02  0.10000000000E+01 0.  0.
<mgrwt>
<rscale>  0 0.19106209E+03</rscale>
<asrwt>0</asrwt>
<pdfrwt beam="1">  1        2 0.81253858E-01 0.19548357E+03</pdfrwt>
<pdfrwt beam="2">  1       -2 0.10819459E-01 0.19548357E+03</pdfrwt>
<totfact> 0.33717605E+03</totfact>
</mgrwt>
</event>
<event>
 8    2  0.1628804E-003  0.1610246E+03  0.7818608E-02  0.1195268E+00
         -2   -1    0    0    0  501 -0.00000000000E+00  0.00000000000E+00  0.71970614565E+02  0.71970614610E+02  0.25500000000E-02 0.  1.
          2   -1    0    0  501    0  0.00000000000E+00 -0.00000000000E+00 -0.30791094678E+03  0.30791094679E+03  0.25500000000E-02 0. -1.
         25    2    1    2    0    0 -0.10011112270E+03  0.16786699709E+02 -0.11336260729E+03  0.19692636165E+03  0.12499952403E+03 0.  0.
         23    2    1    2    0    0  0.10011112270E+03 -0.16786699709E+02 -0.12257772493E+03  0.18295519975E+03  0.90240103570E+02 0.  0.
        -11    1    4    4    0    0  0.41862127345E+02 -0.52735219805E+02 -0.58531486195E+02  0.89215334950E+02  0.51100000000E-03 0. -1.
         11    1    4    4    0    0  0.58248995352E+02  0.35948520097E+02 -0.64046238733E+02  0.93739864800E+02  0.51100000000E-03 0.  1.
    9000005    1    3    3    0    0  0.77196905437E+01  0.12755936859E+02 -0.83685379821E+02  0.85009119175E+02  0.10000000000E+01 0.  0.
    9000005    1    3    3    0    0 -0.10783081324E+03  0.40307628499E+01 -0.29677227468E+02  0.11191724248E+03  0.10000000000E+01 0.  0.
<mgrwt>
<rscale>  0 0.15431592E+03</rscale>
<asrwt>0</asrwt>
<pdfrwt beam="2">  1        2 0.47370914E-01 0.16102457E+03</pdfrwt>
<pdfrwt beam="1">  1       -2 0.11072402E-01 0.16102457E+03</pdfrwt>
<totfact> 0.57843796E+03</totfact>
</mgrwt>
</event>
<event>
 8    2  0.1628804E-003  0.1462081E+03  0.7818608E-02  0.1214091E+00
          2   -1    0    0  501    0  0.00000000000E+00  0.00000000000E+00  0.11299623727E+02  0.11299624015E+02  0.25500000000E-02 0. -1.
         -2   -1    0    0    0  501 -0.00000000000E+00 -0.00000000000E+00 -0.16221101015E+04  0.16221101015E+04  0.25500000000E-02 0.  1.
         25    2    1    2    0    0 -0.54140105267E+02 -0.53131091362E+02 -0.10121241373E+04  0.10226299842E+04  0.12499100535E+03 0.  0.
         23    2    1    2    0    0  0.54140105267E+02  0.53131091362E+02 -0.59868634046E+03  0.61077974130E+03  0.94193918389E+02 0.  0.
        -11    1    4    4    0    0 -0.75543692100E+01 -0.13298860898E+02 -0.25107946441E+03  0.25154487800E+03  0.51100000000E-03 0.  1.
         11    1    4    4    0    0  0.61694474477E+02  0.66429952260E+02 -0.34760687605E+03  0.35923486330E+03  0.51100000000E-03 0. -1.
    9000005    1    3    3    0    0  0.37427589147E+02  0.41335360069E+01 -0.30183967119E+03  0.30418102777E+03  0.10000000000E+01 0.  0.
    9000005    1    3    3    0    0 -0.91567694413E+02 -0.57264627369E+02 -0.71028446610E+03  0.71844895643E+03  0.10000000000E+01 0.  0.
<mgrwt>
<rscale>  0 0.13943487E+03</rscale>
<asrwt>0</asrwt>
<pdfrwt beam="1">  1        2 0.17384050E-02 0.14620812E+03</pdfrwt>
<pdfrwt beam="2">  1       -2 0.24955522E+00 0.14620812E+03</pdfrwt>
<totfact> 0.47272995E+02</totfact>
</mgrwt>
</event>
<event>
 8    2  0.1628804E-003  0.1317199E+03  0.7818608E-02  0.1237701E+00
         -2   -1    0    0    0  501 -0.00000000000E+00  0.00000000000E+00  0.57077520995E+01  0.57077526692E+01  0.25500000000E-02 0.  1.
          2   -1    0    0  501    0  0.00000000000E+00 -0.00000000000E+00 -0.24191012138E+04  0.24191012138E+04  0.25500000000E-02 0. -1.
         25    2    1    2    0    0  0.41540031652E+02 -0.55006632544E+00 -0.12031777847E+04  0.12103664431E+04  0.12499707294E+03 0.  0.
         23    2    1    2    0    0 -0.41540031652E+02  0.55006632544E+00 -0.12102156770E+04  0.12144425234E+04  0.92318908409E+02 0.  0.
        -11    1    4    4    0    0 -0.64706208018E+02  0.52776845722E+01 -0.55236491284E+03  0.55616701111E+03  0.51100000000E-03 0.  1.
         11    1    4    4    0    0  0.23166176365E+02 -0.47276182467E+01 -0.65785076419E+03  0.65827551226E+03  0.51100000000E-03 0. -1.
    9000005    1    3    3    0    0  0.28038743413E+02  0.51581695884E+01 -0.11908376070E+04  0.11911792409E+04  0.10000000000E+01 0.  0.
    9000005    1    3    3    0    0  0.13501288240E+02 -0.57082359138E+01 -0.12340177706E+02  0.19187202172E+02  0.10000000000E+01 0.  0.
<mgrwt>
<rscale>  0 0.12333094E+03</rscale>
<asrwt>0</asrwt>
<pdfrwt beam="2">  1        2 0.37216860E+00 0.13171995E+03</pdfrwt>
<pdfrwt beam="1">  1       -2 0.87811768E-03 0.13171995E+03</pdfrwt>
<totfact> 0.11271030E+04</totfact>
</mgrwt>
</event>
<event>
 8    2  0.1628804E-003  0.1358892E+03  0.7818608E-02  0.1231330E+00
          2   -1    0    0  501    0  0.00000000000E+00  0.00000000000E+00  0.25286620429E+03  0.25286620431E+03  0.25500000000E-02 0. -1.
         -2   -1    0    0    0  501 -0.00000000000E+00 -0.00000000000E+00 -0.94203156319E+02  0.94203156354E+02  0.25500000000E-02 0.  1.
         25    2    1    2    0    0  0.17982153116E+02  0.50177794447E+02  0.19344294210E+03  0.23640231882E+03  0.12499886243E+03 0.  0.
         23    2    1    2    0    0 -0.17982153116E+02 -0.50177794447E+02 -0.34779894127E+02  0.11066704184E+03  0.90533884416E+02 0.  0.
        -11    1    4    4    0    0 -0.31161384186E+01  0.19860055185E+01 -0.53242214395E+02  0.53370290710E+02  0.51100000000E-03 0.  1.
         11    1    4    4    0    0 -0.14866014698E+02 -0.52163799966E+02  0.18462320268E+02  0.57296751128E+02  0.51100000000E-03 0. -1.
    9000005    1    3    3    0    0  0.41087771259E+02  0.65016286065E+02  0.53273425065E+02  0.93564844994E+02  0.10000000000E+01 0.  0.
    9000005    1    3    3    0    0 -0.23105618143E+02 -0.14838491618E+02  0.14016951704E+03  0.14283747383E+03  0.10000000000E+01 0.  0.
<mgrwt>
<rscale>  0 0.12742302E+03</rscale>
<asrwt>0</asrwt>
<pdfrwt beam="1">  1        2 0.38902493E-01 0.13588924E+03</pdfrwt>
<pdfrwt beam="2">  1       -2 0.14492793E-01 0.13588924E+03</pdfrwt>
<totfact> 0.45806997E+03</totfact>
</mgrwt>
</event>
<event>
 8    2  0.1628804E-003  0.1719834E+03  0.7818608E-02  0.1182121E+00
         -2   -1    0    0    0  501 -0.00000000000E+00  0.00000000000E+00  0.20566315066E+02  0.20566315224E+02  0.25500000000E-02 0.  1.
          2   -1    0    0  501    0  0.00000000000E+00 -0.00000000000E+00 -0.12790776104E+04  0.12790776104E+04  0.25500000000E-02 0. -1.
         25    2    1    2    0    0  0.99134840362E+02 -0.64224935356E+02 -0.58157155468E+03  0.60646825816E+03  0.12500286414E+03 0.  0.
         23    2    1    2    0    0 -0.99134840362E+02  0.64224935356E+02 -0.67693974069E+03  0.69317566751E+03  0.91063354881E+02 0.  0.
        -11    1    4    4    0    0 -0.89863955846E+02  0.16971688661E+02 -0.31372380486E+03  0.32678157003E+03  0.51100000000E-03 0.  1.
         11    1    4    4    0    0 -0.92708845159E+01  0.47253246695E+02 -0.36321593584E+03  0.36639409748E+03  0.51100000000E-03 0. -1.
    9000005    1    3    3    0    0  0.36558338235E+01 -0.65180916072E+02 -0.34903572877E+03  0.35508992791E+03  0.10000000000E+01 0.  0.
    9000005    1    3    3    0    0  0.95479006538E+02  0.95598071640E+00 -0.23253582591E+03  0.25137833025E+03  0.10000000000E+01 0.  0.
<mgrwt>
<rscale>  0 0.16596599E+03</rscale>
<asrwt>0</asrwt>
<pdfrwt beam="2">  1        2 0.19678111E+00 0.17198336E+03</pdfrwt>
<pdfrwt beam="1">  1       -2 0.31640495E-02 0.17198336E+03</pdfrwt>
<totfact> 0.69445757E+03</totfact>
</mgrwt>
</event>
<event>
 8    2  0.1628804E-003  0.1393933E+03  0.7818608E-02  0.1227294E+00
          2   -1    0    0  501    0  0.00000000000E+00  0.00000000000E+00  0.10790833899E+04  0.10790833899E+04  0.25500000000E-02 0. -1.
         -2   -1    0    0    0  501 -0.00000000000E+00 -0.00000000000E+00 -0.17175029372E+02  0.17175029561E+02  0.25500000000E-02 0.  1.
         25    2    1    2    0    0 -0.51536240035E+02 -0.33888321062E+02  0.35346432842E+03  0.37995726366E+03  0.12500435353E+03 0.  0.
         23    2    1    2    0    0  0.51536240035E+02  0.33888321062E+02  0.70844403208E+03  0.71630115578E+03  0.85965090799E+02 0.  0.
        -11    1    4    4    0    0  0.57431231702E+02 -0.12573805202E+02  0.37358570833E+03  0.37818345868E+03  0.51100000000E-03 0.  1.
         11    1    4    4    0    0 -0.58949916666E+01  0.46462126264E+02  0.33485832375E+03  0.33811769710E+03  0.51100000000E-03 0. -1.
    9000005    1    3    3    0    0 -0.30521859854E+02  0.45120818748E+02  0.18229481323E+03  0.19026263727E+03  0.10000000000E+01 0.  0.
    9000005    1    3    3    0    0 -0.21014380181E+02 -0.79009139810E+02  0.17116951520E+03  0.18969462639E+03  0.10000000000E+01 0.  0.
<mgrwt>
<rscale>  0 0.13010875E+03</rscale>
<asrwt>0</asrwt>
<pdfrwt beam="1">  1        2 0.16601284E+00 0.13939330E+03</pdfrwt>
<pdfrwt beam="2">  1       -2 0.26423120E-02 0.13939330E+03</pdfrwt>
<totfact> 0.11614724E+04</totfact>
</mgrwt>
</event>
<event>
 8    2  0.1628804E-003  0.1495071E+03  0.7818608E-02  0.1209940E+00
          2   -1    0    0  501    0  0.00000000000E+00  0.00000000000E+00  0.16878126399E+04  0.16878126399E+04  0.25500000000E-02 0. -1.
         -2   -1    0    0    0  501 -0.00000000000E+00 -0.00000000000E+00 -0.11482891930E+02  0.11482892214E+02  0.25500000000E-02 0.  1.
         25    2    1    2    0    0  0.39884801712E+02  0.71668899961E+02  0.10800887993E+04  0.10903871673E+04  0.12500052719E+03 0.  0.
         23    2    1    2    0    0 -0.39884801712E+02 -0.71668899961E+02  0.59624094872E+03  0.60890836478E+03  0.92406163969E+02 0.  0.
        -11    1    4    4    0    0  0.87237704225E+01  0.18713681508E+02  0.11622489309E+03  0.11804461792E+03  0.51100000000E-03 0. -1.
         11    1    4    4    0    0 -0.48608572134E+02 -0.90382581470E+02  0.48001605564E+03  0.49086374686E+03  0.51100000000E-03 0.  1.
    9000005    1    3    3    0    0  0.37984756322E+02  0.71610535033E+02  0.31402097761E+03  0.32431633450E+03  0.10000000000E+01 0.  0.
    9000005    1    3    3    0    0  0.19000453899E+01  0.58364928449E-01  0.76606782165E+03  0.76607083285E+03  0.10000000000E+01 0.  0.
<mgrwt>
<rscale>  0 0.14254841E+03</rscale>
<asrwt>0</asrwt>
<pdfrwt beam="1">  1        2 0.25966360E+00 0.14950706E+03</pdfrwt>
<pdfrwt beam="2">  1       -2 0.17665980E-02 0.14950706E+03</pdfrwt>
<totfact> 0.98793251E+03</totfact>
</mgrwt>
</event>
<event>
 8    2  0.1628804E-003  0.1565588E+03  0.7818608E-02  0.1201050E+00
          2   -1    0    0  501    0  0.00000000000E+00  0.00000000000E+00  0.40257455525E+03  0.40257455525E+03  0.25500000000E-02 0. -1.
         -2   -1    0    0    0  501 -0.00000000000E+00 -0.00000000000E+00 -0.51362011592E+02  0.51362011656E+02  0.25500000000E-02 0.  1.
         25    2    1    2    0    0 -0.25138744338E+02 -0.90836317867E+02  0.20786040225E+03  0.26022413957E+03  0.12500985113E+03 0.  0.
         23    2    1    2    0    0  0.25138744338E+02  0.90836317867E+02  0.14335214140E+03  0.19371242734E+03  0.89952626152E+02 0.  0.
        -11    1    4    4    0    0  0.14058854643E+02  0.91328011257E+02  0.61240399276E+02  0.11085505644E+03  0.51100000000E-03 0.  1.
         11    1    4    4    0    0  0.11079889694E+02 -0.49169339025E+00  0.82111742124E+02  0.82857370903E+02  0.51100000000E-03 0. -1.
    9000005    1    3    3    0    0  0.35573537274E+01 -0.76494087434E+02  0.21422550102E+03  0.22750289112E+03  0.10000000000E+01 0.  0.
    9000005    1    3    3    0    0 -0.28696098065E+02 -0.14342230433E+02 -0.63650987693E+01  0.32721248452E+02  0.10000000000E+01 0.  0.
<mgrwt>
<rscale>  0 0.14953170E+03</rscale>
<asrwt>0</asrwt>
<pdfrwt beam="1">  1        2 0.61934547E-01 0.15655879E+03</pdfrwt>
<pdfrwt beam="2">  1       -2 0.79018480E-02 0.15655879E+03</pdfrwt>
<totfact> 0.73620599E+03</totfact>
</mgrwt>
</event>
<event>
 8    2  0.1628804E-003  0.1378702E+03  0.7818608E-02  0.1227810E+00
         -2   -1    0    0    0  501 -0.00000000000E+00  0.00000000000E+00  0.94996851143E+02  0.94996851177E+02  0.25500000000E-02 0.  1.
          2   -1    0    0  501    0  0.00000000000E+00 -0.00000000000E+00 -0.16502709978E+03  0.16502709980E+03  0.25500000000E-02 0. -1.
         25    2    1    2    0    0 -0.57952215164E+02 -0.50130951055E+01 -0.63079529054E+02  0.15161532150E+03  0.12499835344E+03 0.  0.
         23    2    1    2    0    0  0.57952215164E+02  0.50130951055E+01 -0.69507195871E+01  0.10840862948E+03  0.91216928687E+02 0.  0.
        -11    1    4    4    0    0  0.27607019824E+02  0.33930949468E+02 -0.36624538589E+02  0.57050974597E+02  0.51100000000E-03 0. -1.
         11    1    4    4    0    0  0.30345195339E+02 -0.28917854363E+02  0.29673819001E+02  0.51357654887E+02  0.51100000000E-03 0.  1.
    9000005    1    3    3    0    0 -0.70546020281E+02  0.24361103101E+02  0.66175851606E+01  0.74933282026E+02  0.10000000000E+01 0.  0.
    9000005    1    3    3    0    0  0.12593805118E+02 -0.29374198206E+02 -0.69697114214E+02  0.76682039471E+02  0.10000000000E+01 0.  0.
<mgrwt>
<rscale>  0 0.12976125E+03</rscale>
<asrwt>0</asrwt>
<pdfrwt beam="2">  1        2 0.25388785E-01 0.13787015E+03</pdfrwt>
<pdfrwt beam="1">  1       -2 0.14614900E-01 0.13787015E+03</pdfrwt>
<totfact> 0.71728569E+03</totfact>
</mgrwt>
</event>
<event>
 8    2  0.1628804E-003  0.2696222E+03  0.7818608E-02  0.1103466E+00
          2   -1    0    0  501    0  0.00000000000E+00  0.00000000000E+00  0.96533389751E+03  0.96533389751E+03  0.25500000000E-02 0. -1.
         -2   -1    0    0    0  501 -0.00000000000E+00 -0.00000000000E+00 -0.71767981050E+02  0.71767981096E+02  0.25500000000E-02 0.  1.
         25    2    1    2    0    0 -0.10152785143E+03  0.21624721410E+03  0.48190600135E+03  0.55220426261E+03  0.12500156516E+03 0.  0.
         23    2    1    2    0    0  0.10152785143E+03 -0.21624721410E+03  0.41165991511E+03  0.48489761599E+03  0.92687917583E+02 0.  0.
        -11    1    4    4    0    0  0.18828575390E+02 -0.96152537886E+02  0.24262078581E+03  0.26165754623E+03  0.51100000000E-03 0. -1.
         11    1    4    4    0    0  0.82699276037E+02 -0.12009467622E+03  0.16903912930E+03  0.22324006976E+03  0.51100000000E-03 0.  1.
    9000005    1    3    3    0    0 -0.70076862659E+02  0.24376866523E+02  0.15501819899E+03  0.17186227137E+03  0.10000000000E+01 0.  0.
    9000005    1    3    3    0    0 -0.31450988767E+02  0.19187034758E+03  0.32688780236E+03  0.38034199125E+03  0.10000000000E+01 0.  0.
<mgrwt>
<rscale>  0 0.26621400E+03</rscale>
<asrwt>0</asrwt>
<pdfrwt beam="1">  1        2 0.14851290E+00 0.26962224E+03</pdfrwt>
<pdfrwt beam="2">  1       -2 0.11041229E-01 0.26962224E+03</pdfrwt>
<totfact> 0.15614434E+03</totfact>
</mgrwt>
</event>
<event>
 8    2  0.1628804E-003  0.1271573E+03  0.7818608E-02  0.1246000E+00
         -2   -1    0    0    0  501 -0.00000000000E+00  0.00000000000E+00  0.94736520422E+01  0.94736523853E+01  0.25500000000E-02 0.  1.
          2   -1    0    0  501    0  0.00000000000E+00 -0.00000000000E+00 -0.13332263657E+04  0.13332263657E+04  0.25500000000E-02 0. -1.
         25    2    1    2    0    0  0.10281551543E+02 -0.20928764638E+02 -0.65653025389E+03  0.66873085798E+03  0.12500105058E+03 0.  0.
         23    2    1    2    0    0 -0.10281551543E+02  0.20928764638E+02 -0.66722245975E+03  0.67396916009E+03  0.92221984743E+02 0.  0.
        -11    1    4    4    0    0  0.64420640089E+01  0.46823505771E+01 -0.18341011295E+01  0.81724245384E+01  0.51100000000E-03 0.  1.
         11    1    4    4    0    0 -0.16723615551E+02  0.16246414061E+02 -0.66538835862E+03  0.66579673555E+03  0.51100000000E-03 0. -1.
    9000005    1    3    3    0    0  0.85868066623E+01  0.52743749411E+02 -0.28033722216E+03  0.28538674545E+03  0.10000000000E+01 0.  0.
    9000005    1    3    3    0    0  0.16947448802E+01 -0.73672514049E+02 -0.37619303174E+03  0.38334411253E+03  0.10000000000E+01 0.  0.
<mgrwt>
<rscale>  0 0.11825754E+03</rscale>
<asrwt>0</asrwt>
<pdfrwt beam="2">  1        2 0.20511160E+00 0.12715733E+03</pdfrwt>
<pdfrwt beam="1">  1       -2 0.14574860E-02 0.12715733E+03</pdfrwt>
<totfact> 0.19808304E+04</totfact>
</mgrwt>
</event>
<event>
 8    2  0.1628804E-003  0.1397224E+03  0.7818608E-02  0.1224642E+00
         -2   -1    0    0    0  501 -0.00000000000E+00  0.00000000000E+00  0.10137988518E+03  0.10137988521E+03  0.25500000000E-02 0.  1.
          2   -1    0    0  501    0  0.00000000000E+00 -0.00000000000E+00 -0.20284084416E+03  0.20284084418E+03  0.25500000000E-02 0. -1.
         25    2    1    2    0    0 -0.45904673604E+02  0.42321575055E+02 -0.12864579618E+03  0.18992651416E+03  0.12499594046E+03 0.  0.
         23    2    1    2    0    0  0.45904673604E+02 -0.42321575055E+02  0.27184837197E+02  0.11429421524E+03  0.91792142853E+02 0.  0.
        -11    1    4    4    0    0  0.49483319979E+02 -0.66827253695E+02  0.91447250405E+01  0.83654687788E+02  0.51100000000E-03 0.  1.
         11    1    4    4    0    0 -0.35786463744E+01  0.24505678640E+02  0.18040112156E+02  0.30639527450E+02  0.51100000000E-03 0. -1.
    9000005    1    3    3    0    0  0.27853417157E+02  0.16163946521E+02  0.73231505103E+01  0.33041103914E+02  0.10000000000E+01 0.  0.
    9000005    1    3    3    0    0 -0.73758090762E+02  0.26157628535E+02 -0.13596894669E+03  0.15688541024E+03  0.10000000000E+01 0.  0.
<mgrwt>
<rscale>  0 0.13191497E+03</rscale>
<asrwt>0</asrwt>
<pdfrwt beam="2">  1        2 0.31206284E-01 0.13972237E+03</pdfrwt>
<pdfrwt beam="1">  1       -2 0.15596905E-01 0.13972237E+03</pdfrwt>
<totfact> 0.51541100E+03</totfact>
</mgrwt>
</event>
<event>
 8    2  0.1628804E-003  0.1378635E+03  0.7818608E-02  0.1226434E+00
         -2   -1    0    0    0  501 -0.00000000000E+00  0.00000000000E+00  0.15798824303E+02  0.15798824508E+02  0.25500000000E-02 0. -1.
          2   -1    0    0  501    0  0.00000000000E+00 -0.00000000000E+00 -0.10063308910E+04  0.10063308910E+04  0.25500000000E-02 0.  1.
         25    2    1    2    0    0  0.60777427477E+01  0.57836882579E+02 -0.46883268111E+03  0.48868232801E+03  0.12499716351E+03 0.  0.
         23    2    1    2    0    0 -0.60777427477E+01 -0.57836882579E+02 -0.52169938558E+03  0.53344738750E+03  0.94941152149E+02 0.  0.
        -11    1    4    4    0    0  0.37740523773E+02 -0.47599220562E+01 -0.26351283194E+03  0.26624427992E+03  0.51100000000E-03 0. -1.
         11    1    4    4    0    0 -0.43818266521E+02 -0.53076960523E+02 -0.25818655364E+03  0.26720310758E+03  0.51100000000E-03 0.  1.
    9000005    1    3    3    0    0  0.62246964250E+02  0.80235450422E+01 -0.21037176871E+03  0.21953665504E+03  0.10000000000E+01 0.  0.
    9000005    1    3    3    0    0 -0.56169221502E+02  0.49813337537E+02 -0.25846091240E+03  0.26914567297E+03  0.10000000000E+01 0.  0.
<mgrwt>
<rscale>  0 0.13069125E+03</rscale>
<asrwt>0</asrwt>
<pdfrwt beam="2">  1        2 0.15482009E+00 0.13786346E+03</pdfrwt>
<pdfrwt beam="1">  1       -2 0.24305892E-02 0.13786346E+03</pdfrwt>
<totfact> 0.14468952E+04</totfact>
</mgrwt>
</event>
<event>
 8    2  0.1628804E-003  0.1515208E+03  0.7818608E-02  0.1207191E+00
         -2   -1    0    0    0  501 -0.00000000000E+00  0.00000000000E+00  0.12359364358E+02  0.12359364621E+02  0.25500000000E-02 0.  1.
          2   -1    0    0  501    0  0.00000000000E+00 -0.00000000000E+00 -0.15649892904E+04  0.15649892904E+04  0.25500000000E-02 0. -1.
         25    2    1    2    0    0 -0.83168197290E+02  0.20407151678E+02 -0.79035781082E+03  0.80475091518E+03  0.12500066193E+03 0.  0.
         23    2    1    2    0    0  0.83168197290E+02 -0.20407151678E+02 -0.76227211523E+03  0.77259773985E+03  0.92277240321E+02 0.  0.
        -11    1    4    4    0    0  0.62786242799E+02  0.33377458750E+01 -0.70083942064E+03  0.70365413830E+03  0.51100000000E-03 0. -1.
         11    1    4    4    0    0  0.20381954492E+02 -0.23744897553E+02 -0.61432694590E+02  0.68943601542E+02  0.51100000000E-03 0.  1.
    9000005    1    3    3    0    0 -0.96489836582E+02 -0.28288634702E+02 -0.49545724746E+03  0.50555852231E+03  0.10000000000E+01 0.  0.
    9000005    1    3    3    0    0  0.13321639291E+02  0.48695786380E+02 -0.29490056336E+03  0.29919239288E+03  0.10000000000E+01 0.  0.
<mgrwt>
<rscale>  0 0.14466144E+03</rscale>
<asrwt>0</asrwt>
<pdfrwt beam="2">  1        2 0.24076743E+00 0.15152084E+03</pdfrwt>
<pdfrwt beam="1">  1       -2 0.19014419E-02 0.15152084E+03</pdfrwt>
<totfact> 0.10281341E+04</totfact>
</mgrwt>
</event>
<event>
 8    2  0.1628804E-003  0.1556335E+03  0.7818608E-02  0.1202707E+00
          2   -1    0    0  501    0  0.00000000000E+00  0.00000000000E+00  0.15538964908E+03  0.15538964910E+03  0.25500000000E-02 0. -1.
         -2   -1    0    0    0  501 -0.00000000000E+00 -0.00000000000E+00 -0.14798149827E+03  0.14798149829E+03  0.25500000000E-02 0.  1.
         25    2    1    2    0    0 -0.60858711512E+02  0.69941635913E+02  0.57570775933E+02  0.16594030937E+03  0.12500470724E+03 0.  0.
         23    2    1    2    0    0  0.60858711512E+02 -0.69941635913E+02 -0.50162625121E+02  0.13743083803E+03  0.88177837811E+02 0.  0.
        -11    1    4    4    0    0  0.41723418111E+01 -0.44782744223E+02  0.15058152523E+02  0.47430481486E+02  0.51100000000E-03 0. -1.
         11    1    4    4    0    0  0.56686369701E+02 -0.25158891690E+02 -0.65220777644E+02  0.90000356542E+02  0.51100000000E-03 0.  1.
    9000005    1    3    3    0    0 -0.21993476208E+02  0.27237755107E+02 -0.39623666903E+02  0.52883298666E+02  0.10000000000E+01 0.  0.
    9000005    1    3    3    0    0 -0.38865235304E+02  0.42703880806E+02  0.97194442836E+02  0.11305701070E+03  0.10000000000E+01 0.  0.
<mgrwt>
<rscale>  0 0.14819603E+03</rscale>
<asrwt>0</asrwt>
<pdfrwt beam="1">  1        2 0.23906100E-01 0.15563352E+03</pdfrwt>
<pdfrwt beam="2">  1       -2 0.22766384E-01 0.15563352E+03</pdfrwt>
<totfact> 0.36746727E+03</totfact>
</mgrwt>
</event>
<event>
 8    2  0.1628804E-003  0.1525028E+03  0.7818608E-02  0.1206204E+00
         -2   -1    0    0    0  501 -0.00000000000E+00  0.00000000000E+00  0.53455726915E+02  0.53455726976E+02  0.25500000000E-02 0. -1.
          2   -1    0    0  501    0  0.00000000000E+00 -0.00000000000E+00 -0.41653181308E+03  0.41653181308E+03  0.25500000000E-02 0.  1.
         25    2    1    2    0    0  0.40754849556E+02  0.77275044511E+02 -0.28038852270E+03  0.31917838386E+03  0.12499890718E+03 0.  0.
         23    2    1    2    0    0 -0.40754849556E+02 -0.77275044511E+02 -0.82687563463E+02  0.15080915620E+03  0.90960310991E+02 0.  0.
        -11    1    4    4    0    0  0.50197423358E+01 -0.78907721219E+02 -0.41930146636E+02  0.89497281960E+02  0.51100000000E-03 0. -1.
         11    1    4    4    0    0 -0.45774591892E+02  0.16326767074E+01 -0.40757416828E+02  0.61311874240E+02  0.51100000000E-03 0.  1.
    9000005    1    3    3    0    0  0.80459260955E+01  0.83970333544E+02 -0.80797759306E+02  0.11681195038E+03  0.10000000000E+01 0.  0.
    9000005    1    3    3    0    0  0.32708923460E+02 -0.66952890324E+01 -0.19959076339E+03  0.20236643348E+03  0.10000000000E+01 0.  0.
<mgrwt>
<rscale>  0 0.14543005E+03</rscale>
<asrwt>0</asrwt>
<pdfrwt beam="2">  1        2 0.64081815E-01 0.15250284E+03</pdfrwt>
<pdfrwt beam="1">  1       -2 0.82239583E-02 0.15250284E+03</pdfrwt>
<totfact> 0.66602303E+03</totfact>
</mgrwt>
</event>
<event>
 8    2  0.1628804E-003  0.2985726E+03  0.7818608E-02  0.1087602E+00
          2   -1    0    0  501    0  0.00000000000E+00  0.00000000000E+00  0.84334393236E+03  0.84334393237E+03  0.25500000000E-02 0. -1.
         -2   -1    0    0    0  501 -0.00000000000E+00 -0.00000000000E+00 -0.11018957491E+03  0.11018957494E+03  0.25500000000E-02 0.  1.
         25    2    1    2    0    0 -0.40599412429E+02 -0.26808945664E+03  0.23800068460E+03  0.38182444863E+03  0.12500125859E+03 0.  0.
         23    2    1    2    0    0  0.40599412429E+02  0.26808945664E+03  0.49515367285E+03  0.57170905868E+03  0.90298499362E+02 0.  0.
        -11    1    4    4    0    0 -0.19572242890E+02  0.16586811011E+03  0.29866068706E+03  0.34218928773E+03  0.51100000000E-03 0.  1.
         11    1    4    4    0    0  0.60171655319E+02  0.10222134653E+03  0.19649298579E+03  0.22951977095E+03  0.51100000000E-03 0. -1.
    9000005    1    3    3    0    0 -0.41297358942E+01 -0.20589848041E+03  0.23086200579E+03  0.30936952771E+03  0.10000000000E+01 0.  0.
    9000005    1    3    3    0    0 -0.36469676535E+02 -0.62190976228E+02  0.71386788063E+01  0.72454920922E+02  0.10000000000E+01 0.  0.
<mgrwt>
<rscale>  0 0.29532348E+03</rscale>
<asrwt>0</asrwt>
<pdfrwt beam="1">  1        2 0.12974522E+00 0.29857258E+03</pdfrwt>
<pdfrwt beam="2">  1       -2 0.16952242E-01 0.29857258E+03</pdfrwt>
<totfact> 0.92492399E+02</totfact>
</mgrwt>
</event>
<event>
 8    2  0.1628804E-003  0.1719248E+03  0.7818608E-02  0.1182327E+00
         -2   -1    0    0    0  501 -0.00000000000E+00  0.00000000000E+00  0.11101407085E+02  0.11101407378E+02  0.25500000000E-02 0.  1.
          2   -1    0    0  501    0  0.00000000000E+00 -0.00000000000E+00 -0.24540924545E+04  0.24540924545E+04  0.25500000000E-02 0. -1.
         25    2    1    2    0    0 -0.11799193484E+03  0.34071084571E+01 -0.10112681353E+04  0.10257784270E+04  0.12499773836E+03 0.  0.
         23    2    1    2    0    0  0.11799193484E+03 -0.34071084571E+01 -0.14317229121E+04  0.14394154350E+04  0.90291706372E+02 0.  0.
        -11    1    4    4    0    0  0.99184219624E+02 -0.84926275990E+01 -0.66170322168E+03  0.66914930152E+03  0.51100000000E-03 0.  1.
         11    1    4    4    0    0  0.18807715212E+02  0.50855191419E+01 -0.77001969044E+03  0.77026613344E+03  0.51100000000E-03 0. -1.
    9000005    1    3    3    0    0  0.17898011766E+02 -0.15406305235E+02 -0.57110311614E+02  0.61808419805E+02  0.10000000000E+01 0.  0.
    9000005    1    3    3    0    0 -0.13588994660E+03  0.18813413692E+02 -0.95415782372E+03  0.96397000715E+03  0.10000000000E+01 0.  0.
<mgrwt>
<rscale>  0 0.16577509E+03</rscale>
<asrwt>0</asrwt>
<pdfrwt beam="2">  1        2 0.37755225E+00 0.17192481E+03</pdfrwt>
<pdfrwt beam="1">  1       -2 0.17079108E-02 0.17192481E+03</pdfrwt>
<totfact> 0.41559468E+03</totfact>
</mgrwt>
</event>
<event>
 8    2  0.1628804E-003  0.1979748E+03  0.7818608E-02  0.1157540E+00
         -2   -1    0    0    0  501 -0.00000000000E+00  0.00000000000E+00  0.13248549064E+03  0.13248549066E+03  0.25500000000E-02 0.  1.
          2   -1    0    0  501    0  0.00000000000E+00 -0.00000000000E+00 -0.53842471217E+03  0.53842471217E+03  0.25500000000E-02 0. -1.
         25    2    1    2    0    0  0.61334994274E+02  0.14073961968E+03  0.32005103885E+02  0.20054514556E+03  0.12499762663E+03 0.  0.
         23    2    1    2    0    0 -0.61334994274E+02 -0.14073961968E+03 -0.43794432541E+03  0.47036505728E+03  0.76670938908E+02 0.  0.
        -11    1    4    4    0    0  0.74944110784E+00 -0.93722160372E+02 -0.23873473751E+03  0.25647354620E+03  0.51100000000E-03 0.  1.
         11    1    4    4    0    0 -0.62084435382E+02 -0.47017459309E+02 -0.19920958791E+03  0.21389151108E+03  0.51100000000E-03 0. -1.
    9000005    1    3    3    0    0 -0.23167975842E+02  0.76504672792E+02 -0.19903731356E+02  0.82382513833E+02  0.10000000000E+01 0.  0.
    9000005    1    3    3    0    0  0.84502970116E+02  0.64234946889E+02  0.51908835241E+02  0.11816263173E+03  0.10000000000E+01 0.  0.
<mgrwt>
<rscale>  0 0.19102471E+03</rscale>
<asrwt>0</asrwt>
<pdfrwt beam="2">  1        2 0.82834570E-01 0.19797482E+03</pdfrwt>
<pdfrwt beam="1">  1       -2 0.20382383E-01 0.19797482E+03</pdfrwt>
<totfact> 0.11620030E+03</totfact>
</mgrwt>
</event>
<event>
 8    2  0.1628804E-003  0.2134800E+03  0.7818608E-02  0.1142170E+00
         -2   -1    0    0    0  501 -0.00000000000E+00  0.00000000000E+00  0.18540065307E+03  0.18540065309E+03  0.25500000000E-02 0.  1.
          2   -1    0    0  501    0  0.00000000000E+00 -0.00000000000E+00 -0.25871620834E+03  0.25871620835E+03  0.25500000000E-02 0. -1.
         25    2    1    2    0    0  0.12003766097E+03  0.12466340946E+03  0.39474184149E+02  0.21709890600E+03  0.12499487214E+03 0.  0.
         23    2    1    2    0    0 -0.12003766097E+03 -0.12466340946E+03 -0.11278973941E+03  0.22701795544E+03  0.94157427033E+02 0.  0.
        -11    1    4    4    0    0 -0.17646693488E+02 -0.84688306057E+02 -0.40985407306E+02  0.95725224399E+02  0.51100000000E-03 0.  1.
         11    1    4    4    0    0 -0.10239096749E+03 -0.39975103401E+02 -0.71804332107E+02  0.13129273104E+03  0.51100000000E-03 0. -1.
    9000005    1    3    3    0    0  0.12453251799E+03  0.10854940569E+03 -0.93602237172E+01  0.16546883483E+03  0.10000000000E+01 0.  0.
    9000005    1    3    3    0    0 -0.44948570202E+01  0.16114003772E+02  0.48834407866E+02  0.51630071168E+02  0.10000000000E+01 0.  0.
<mgrwt>
<rscale>  0 0.20923955E+03</rscale>
<asrwt>0</asrwt>
<pdfrwt beam="2">  1        2 0.39802494E-01 0.21348003E+03</pdfrwt>
<pdfrwt beam="1">  1       -2 0.28523177E-01 0.21348003E+03</pdfrwt>
<totfact> 0.14321119E+03</totfact>
</mgrwt>
</event>
<event>
 8    2  0.1628804E-003  0.1289329E+03  0.7818608E-02  0.1238512E+00
          2   -1    0    0  501    0  0.00000000000E+00  0.00000000000E+00  0.62448488204E+02  0.62448488256E+02  0.25500000000E-02 0. -1.
         -2   -1    0    0    0  501 -0.00000000000E+00 -0.00000000000E+00 -0.23361183061E+03  0.23361183062E+03  0.25500000000E-02 0.  1.
         25    2    1    2    0    0  0.84525052497E+01  0.30416081667E+02 -0.59576671953E+02  0.14203190880E+03  0.12500840135E+03 0.  0.
         23    2    1    2    0    0 -0.84525052497E+01 -0.30416081667E+02 -0.11158667045E+03  0.15402841008E+03  0.10137348381E+03 0.  0.
        -11    1    4    4    0    0 -0.36406905731E+02 -0.26547775862E+02 -0.68740518796E+01  0.45579598261E+02  0.51100000000E-03 0. -1.
         11    1    4    4    0    0  0.27954400482E+02 -0.38683058059E+01 -0.10471261857E+03  0.10844881182E+03  0.51100000000E-03 0.  1.
    9000005    1    3    3    0    0  0.27510168634E+02 -0.36031926154E+02 -0.57018198497E+02  0.72850422377E+02  0.10000000000E+01 0.  0.
    9000005    1    3    3    0    0 -0.19057663384E+02  0.66448007822E+02 -0.25584734554E+01  0.69181486422E+02  0.10000000000E+01 0.  0.
<mgrwt>
<rscale>  0 0.12282265E+03</rscale>
<asrwt>0</asrwt>
<pdfrwt beam="1">  1        2 0.96074598E-02 0.12893286E+03</pdfrwt>
<pdfrwt beam="2">  1       -2 0.35940281E-01 0.12893286E+03</pdfrwt>
<totfact> 0.46705427E+03</totfact>
</mgrwt>
</event>
<event>
 8    2  0.1628804E-003  0.1465630E+03  0.7818608E-02  0.1213405E+00
         -2   -1    0    0    0  501 -0.00000000000E+00  0.00000000000E+00  0.28712156394E+02  0.28712156507E+02  0.25500000000E-02 0.  1.
          2   -1    0    0  501    0  0.00000000000E+00 -0.00000000000E+00 -0.64779430271E+03  0.64779430271E+03  0.25500000000E-02 0. -1.
         25    2    1    2    0    0 -0.94428410169E+01  0.75936446077E+02 -0.39724001003E+03  0.42341508035E+03  0.12500077444E+03 0.  0.
         23    2    1    2    0    0  0.94428410169E+01 -0.75936446077E+02 -0.22184213629E+03  0.25309137887E+03  0.94793467803E+02 0.  0.
        -11    1    4    4    0    0  0.23230662355E+02  0.57745934104E+00 -0.13308500091E+03  0.13509853663E+03  0.51100000000E-03 0.  1.
         11    1    4    4    0    0 -0.13787821338E+02 -0.76513905418E+02 -0.88757135380E+02  0.11799284224E+03  0.51100000000E-03 0. -1.
    9000005    1    3    3    0    0 -0.33451116687E+02  0.98649177346E+02 -0.35383558160E+03  0.36885126569E+03  0.10000000000E+01 0.  0.
    9000005    1    3    3    0    0  0.24008275670E+02 -0.22712731269E+02 -0.43404428428E+02  0.54563814653E+02  0.10000000000E+01 0.  0.
<mgrwt>
<rscale>  0 0.13994334E+03</rscale>
<asrwt>0</asrwt>
<pdfrwt beam="2">  1        2 0.99660651E-01 0.14656297E+03</pdfrwt>
<pdfrwt beam="1">  1       -2 0.44172553E-02 0.14656297E+03</pdfrwt>
<totfact> 0.10463299E+04</totfact>
</mgrwt>
</event>
<event>
 8    2  0.1628804E-003  0.1914196E+03  0.7818608E-02  0.1162256E+00
          2   -1    0    0  501    0  0.00000000000E+00  0.00000000000E+00  0.29444656865E+04  0.29444656865E+04  0.25500000000E-02 0. -1.
         -2   -1    0    0    0  501 -0.00000000000E+00 -0.00000000000E+00 -0.12257569772E+02  0.12257570037E+02  0.25500000000E-02 0.  1.
         25    2    1    2    0    0 -0.11340961257E+03 -0.90304409068E+02  0.10902021579E+04  0.11068794902E+04  0.12499933689E+03 0.  0.
         23    2    1    2    0    0  0.11340961257E+03  0.90304409068E+02  0.18420059588E+04  0.18498437663E+04  0.88990903878E+02 0.  0.
        -11    1    4    4    0    0  0.10070278731E+02  0.46574076351E+02  0.88497682525E+03  0.88625872990E+03  0.51100000000E-03 0. -1.
         11    1    4    4    0    0  0.10333933383E+03  0.43730332717E+02  0.95702913357E+03  0.96358503643E+03  0.51100000000E-03 0.  1.
    9000005    1    3    3    0    0 -0.22932692070E+02 -0.43066501687E+02  0.98382334325E+02  0.10982128956E+03  0.10000000000E+01 0.  0.
    9000005    1    3    3    0    0 -0.90476920496E+02 -0.47237907381E+02  0.99181982357E+03  0.99705820064E+03  0.10000000000E+01 0.  0.
<mgrwt>
<rscale>  0 0.18585302E+03</rscale>
<asrwt>0</asrwt>
<pdfrwt beam="1">  1        2 0.45299508E+00 0.19141959E+03</pdfrwt>
<pdfrwt beam="2">  1       -2 0.18857785E-02 0.19141959E+03</pdfrwt>
<totfact> 0.19160530E+03</totfact>
</mgrwt>
</event>
<event>
 8    2  0.1628804E-003  0.1685479E+03  0.7818608E-02  0.1185966E+00
         -2   -1    0    0    0  501 -0.00000000000E+00  0.00000000000E+00  0.12573394898E+03  0.12573394900E+03  0.25500000000E-02 0.  1.
          2   -1    0    0  501    0  0.00000000000E+00 -0.00000000000E+00 -0.22974728979E+03  0.22974728980E+03  0.25500000000E-02 0. -1.
         25    2    1    2    0    0 -0.79699017316E+02 -0.80190114387E+02 -0.12323149062E+03  0.20879273714E+03  0.12500407591E+03 0.  0.
         23    2    1    2    0    0  0.79699017316E+02  0.80190114387E+02  0.19218149807E+02  0.14668850167E+03  0.91464700474E+02 0.  0.
        -11    1    4    4    0    0  0.75820208033E+02  0.34773355361E+02  0.44523934634E+02  0.94553006006E+02  0.51100000000E-03 0.  1.
         11    1    4    4    0    0  0.38788092832E+01  0.45416759026E+02 -0.25305784827E+02  0.52135495661E+02  0.51100000000E-03 0. -1.
    9000005    1    3    3    0    0 -0.57277536316E+02  0.15210363905E+02 -0.11871295831E+02  0.60448316778E+02  0.10000000000E+01 0.  0.
    9000005    1    3    3    0    0 -0.22421481000E+02 -0.95400478292E+02 -0.11136019479E+03  0.14834442036E+03  0.10000000000E+01 0.  0.
<mgrwt>
<rscale>  0 0.16244326E+03</rscale>
<asrwt>0</asrwt>
<pdfrwt beam="2">  1        2 0.35345737E-01 0.16854794E+03</pdfrwt>
<pdfrwt beam="1">  1       -2 0.19343684E-01 0.16854794E+03</pdfrwt>
<totfact> 0.31787802E+03</totfact>
</mgrwt>
</event>
<event>
 8    2  0.1628804E-003  0.1287821E+03  0.7818608E-02  0.1243418E+00
         -2   -1    0    0    0  501 -0.00000000000E+00  0.00000000000E+00  0.46298059569E+03  0.46298059569E+03  0.25500000000E-02 0.  1.
          2   -1    0    0  501    0  0.00000000000E+00 -0.00000000000E+00 -0.29685824721E+02  0.29685824831E+02  0.25500000000E-02 0. -1.
         25    2    1    2    0    0 -0.25553675139E+02  0.17515772435E+02  0.31311502681E+03  0.33856440173E+03  0.12500016602E+03 0.  0.
         23    2    1    2    0    0  0.25553675139E+02 -0.17515772435E+02  0.12017974415E+03  0.15410201880E+03  0.91348063445E+02 0.  0.
        -11    1    4    4    0    0 -0.26959123648E+01 -0.15083202282E+02  0.12448366666E+03  0.12542310074E+03  0.51100000000E-03 0.  1.
         11    1    4    4    0    0  0.28249587504E+02 -0.24325701525E+01 -0.43039225040E+01  0.28678918056E+02  0.51100000000E-03 0. -1.
    9000005    1    3    3    0    0 -0.46154722851E+02  0.38289948987E+02  0.63911514735E+02  0.87647363626E+02  0.10000000000E+01 0.  0.
    9000005    1    3    3    0    0  0.20601047712E+02 -0.20774176552E+02  0.24920351208E+03  0.25091703810E+03  0.10000000000E+01 0.  0.
<mgrwt>
<rscale>  0 0.11980554E+03</rscale>
<asrwt>0</asrwt>
<pdfrwt beam="2">  1        2 0.45670500E-02 0.12878212E+03</pdfrwt>
<pdfrwt beam="1">  1       -2 0.71227783E-01 0.12878212E+03</pdfrwt>
<totfact> 0.30996859E+03</totfact>
</mgrwt>
</event>
<event>
 8    2  0.1628804E-003  0.4320049E+03  0.7818608E-02  0.1033944E+00
          2   -1    0    0  501    0  0.00000000000E+00  0.00000000000E+00  0.30776370178E+04  0.30776370178E+04  0.25500000000E-02 0. -1.
         -2   -1    0    0    0  501 -0.00000000000E+00 -0.00000000000E+00 -0.62986829447E+02  0.62986829499E+02  0.25500000000E-02 0.  1.
         25    2    1    2    0    0  0.34622944797E+03  0.22611688249E+03  0.18979775294E+04  0.19465217568E+04  0.12499829022E+03 0.  0.
         23    2    1    2    0    0 -0.34622944797E+03 -0.22611688249E+03  0.11166726590E+04  0.11941020905E+04  0.88984830199E+02 0.  0.
        -11    1    4    4    0    0 -0.22384728062E+03 -0.93695850811E+02  0.63593664477E+03  0.68066286344E+03  0.51100000000E-03 0.  1.
         11    1    4    4    0    0 -0.12238216735E+03 -0.13242103168E+03  0.48073601424E+03  0.51343922708E+03  0.51100000000E-03 0. -1.
    9000005    1    3    3    0    0  0.31978366148E+03  0.23321927408E+03  0.18438733550E+04  0.18858745369E+04  0.10000000000E+01 0.  0.
    9000005    1    3    3    0    0  0.26445786490E+02 -0.71023915903E+01  0.54104174410E+02  0.60647219870E+02  0.10000000000E+01 0.  0.
<mgrwt>
<rscale>  0 0.42973376E+03</rscale>
<asrwt>0</asrwt>
<pdfrwt beam="1">  1        2 0.47348253E+00 0.43200492E+03</pdfrwt>
<pdfrwt beam="2">  1       -2 0.96902832E-02 0.43200492E+03</pdfrwt>
<totfact> 0.12525531E+02</totfact>
</mgrwt>
</event>
<event>
 8    2  0.1628804E-003  0.1388734E+03  0.7818608E-02  0.1226176E+00
         -2   -1    0    0    0  501 -0.00000000000E+00  0.00000000000E+00  0.10148063122E+02  0.10148063443E+02  0.25500000000E-02 0.  1.
          2   -1    0    0  501    0  0.00000000000E+00 -0.00000000000E+00 -0.15214131344E+04  0.15214131344E+04  0.25500000000E-02 0. -1.
         25    2    1    2    0    0  0.29816674590E+02  0.52752922948E+02 -0.86927314834E+03  0.88029632796E+03  0.12495564666E+03 0.  0.
         23    2    1    2    0    0 -0.29816674590E+02 -0.52752922948E+02 -0.64199192294E+03  0.65126486989E+03  0.91216208346E+02 0.  0.
        -11    1    4    4    0    0 -0.13815751847E+02 -0.75743278327E+02 -0.37598276219E+03  0.38378503967E+03  0.51100000000E-03 0.  1.
         11    1    4    4    0    0 -0.16000922743E+02  0.22990355379E+02 -0.26600916075E+03  0.26747983021E+03  0.51100000000E-03 0. -1.
    9000005    1    3    3    0    0  0.79098432215E+02  0.30450122527E+02 -0.53508563240E+03  0.54175770040E+03  0.10000000000E+01 0.  0.
    9000005    1    3    3    0    0 -0.49281757625E+02  0.22302800422E+02 -0.33418751594E+03  0.33853862756E+03  0.10000000000E+01 0.  0.
<mgrwt>
<rscale>  0 0.13086608E+03</rscale>
<asrwt>0</asrwt>
<pdfrwt beam="2">  1        2 0.23406338E+00 0.13887339E+03</pdfrwt>
<pdfrwt beam="1">  1       -2 0.15612417E-02 0.13887339E+03</pdfrwt>
<totfact> 0.14356235E+04</totfact>
</mgrwt>
</event>
<event>
 8    2  0.1628804E-003  0.1565265E+03  0.7818608E-02  0.1200841E+00
         -2   -1    0    0    0  501 -0.00000000000E+00  0.00000000000E+00  0.14487798066E+02  0.14487798291E+02  0.25500000000E-02 0.  1.
          2   -1    0    0  501    0  0.00000000000E+00 -0.00000000000E+00 -0.14286836598E+04  0.14286836598E+04  0.25500000000E-02 0. -1.
         25    2    1    2    0    0  0.64103395965E+02  0.69039725914E+02 -0.73967818992E+03  0.75605844050E+03  0.12499924673E+03 0.  0.
         23    2    1    2    0    0 -0.64103395965E+02 -0.69039725914E+02 -0.67451767177E+03  0.68711301755E+03  0.90964169994E+02 0.  0.
        -11    1    4    4    0    0 -0.59341590543E+02 -0.69383131593E+02 -0.67598180848E+03  0.68211938011E+03  0.51100000000E-03 0. -1.
         11    1    4    4    0    0 -0.47618054221E+01  0.34340567893E+00  0.14641367095E+01  0.49936374422E+01  0.51100000000E-03 0.  1.
    9000005    1    3    3    0    0 -0.24888344390E+02  0.26050280303E+02 -0.41769717035E+03  0.41924929685E+03  0.10000000000E+01 0.  0.
    9000005    1    3    3    0    0  0.88991740355E+02  0.42989445612E+02 -0.32198101957E+03  0.33680914365E+03  0.10000000000E+01 0.  0.
<mgrwt>
<rscale>  0 0.14970095E+03</rscale>
<asrwt>0</asrwt>
<pdfrwt beam="2">  1        2 0.21979737E+00 0.15652649E+03</pdfrwt>
<pdfrwt beam="1">  1       -2 0.22288932E-02 0.15652649E+03</pdfrwt>
<totfact> 0.96266063E+03</totfact>
</mgrwt>
</event>
<event>
 8    2  0.1628804E-003  0.1275504E+03  0.7818608E-02  0.1247007E+00
         -2   -1    0    0    0  501 -0.00000000000E+00  0.00000000000E+00  0.58745718954E+02  0.58745719009E+02  0.25500000000E-02 0.  1.
          2   -1    0    0  501    0  0.00000000000E+00 -0.00000000000E+00 -0.25525985770E+03  0.25525985771E+03  0.25500000000E-02 0. -1.
         25    2    1    2    0    0  0.16880427516E+02  0.18951604498E+02 -0.17932601275E+03  0.22006120547E+03  0.12500001264E+03 0.  0.
         23    2    1    2    0    0 -0.16880427516E+02 -0.18951604498E+02 -0.17188125998E+02  0.93944371248E+02  0.88803159108E+02 0.  0.
        -11    1    4    4    0    0 -0.49825131367E+02  0.69016032388E+01 -0.64568939039E+01  0.50713581240E+02  0.51100000000E-03 0. -1.
         11    1    4    4    0    0  0.32944703852E+02 -0.25853207737E+02 -0.10731232094E+02  0.43230790008E+02  0.51100000000E-03 0.  1.
    9000005    1    3    3    0    0 -0.69875651804E+01 -0.35573381540E+02 -0.59519313339E+01  0.36752102361E+02  0.10000000000E+01 0.  0.
    9000005    1    3    3    0    0  0.23867992696E+02  0.54524986038E+02 -0.17337408142E+03  0.18330910311E+03  0.10000000000E+01 0.  0.
<mgrwt>
<rscale>  0 0.11766054E+03</rscale>
<asrwt>0</asrwt>
<pdfrwt beam="2">  1        2 0.39270747E-01 0.12755044E+03</pdfrwt>
<pdfrwt beam="1">  1       -2 0.90378031E-02 0.12755044E+03</pdfrwt>
<totfact> 0.95669306E+03</totfact>
</mgrwt>
</event>
<event>
 8    2  0.1628804E-003  0.2226997E+03  0.7818608E-02  0.1135000E+00
         -2   -1    0    0    0  501 -0.00000000000E+00  0.00000000000E+00  0.42599530070E+02  0.42599530147E+02  0.25500000000E-02 0. -1.
          2   -1    0    0  501    0  0.00000000000E+00 -0.00000000000E+00 -0.19887959025E+04  0.19887959025E+04  0.25500000000E-02 0.  1.
         25    2    1    2    0    0 -0.24015271283E+02 -0.18273766529E+03 -0.30706932645E+03  0.37932404459E+03  0.12500148794E+03 0.  0.
         23    2    1    2    0    0  0.24015271283E+02  0.18273766529E+03 -0.16391270460E+04  0.16520713881E+04  0.92911844297E+02 0.  0.
        -11    1    4    4    0    0  0.56384225087E+02  0.85603882878E+02 -0.91989010425E+03  0.92558360482E+03  0.51100000000E-03 0.  1.
         11    1    4    4    0    0 -0.32368953804E+02  0.97133782408E+02 -0.71923694176E+03  0.72648778328E+03  0.51100000000E-03 0. -1.
    9000005    1    3    3    0    0  0.36654376253E+02 -0.51751439408E+02 -0.16505435944E+03  0.17682108571E+03  0.10000000000E+01 0.  0.
    9000005    1    3    3    0    0 -0.60669647536E+02 -0.13098622588E+03 -0.14201496700E+03  0.20250295888E+03  0.10000000000E+01 0.  0.
<mgrwt>
<rscale>  0 0.21850883E+03</rscale>
<asrwt>0</asrwt>
<pdfrwt beam="2">  1        2 0.30596853E+00 0.22269971E+03</pdfrwt>
<pdfrwt beam="1">  1       -2 0.65537754E-02 0.22269971E+03</pdfrwt>
<totfact> 0.97879872E+02</totfact>
</mgrwt>
</event>
<event>
 8    2  0.1628804E-003  0.1399015E+03  0.7818608E-02  0.1224352E+00
         -2   -1    0    0    0  501 -0.00000000000E+00  0.00000000000E+00  0.59977281985E+02  0.59977282039E+02  0.25500000000E-02 0.  1.
          2   -1    0    0  501    0  0.00000000000E+00 -0.00000000000E+00 -0.29337213443E+03  0.29337213444E+03  0.25500000000E-02 0. -1.
         25    2    1    2    0    0  0.28984931390E+01 -0.62786819417E+02 -0.18519644303E+03  0.23209941587E+03  0.12498732089E+03 0.  0.
         23    2    1    2    0    0 -0.28984931390E+01  0.62786819417E+02 -0.48198409410E+02  0.12125000060E+03  0.91803540355E+02 0.  0.
        -11    1    4    4    0    0 -0.32177255969E+02  0.55683163530E+02  0.11570973005E+00  0.64311771018E+02  0.51100000000E-03 0.  1.
         11    1    4    4    0    0  0.29278762830E+02  0.71036558868E+01 -0.48314119140E+02  0.56938229586E+02  0.51100000000E-03 0. -1.
    9000005    1    3    3    0    0 -0.31376400671E+02  0.97039749586E+01 -0.29498136208E+01  0.32990105326E+02  0.10000000000E+01 0.  0.
    9000005    1    3    3    0    0  0.34274893810E+02 -0.72490794376E+02 -0.18224662941E+03  0.19910931055E+03  0.10000000000E+01 0.  0.
<mgrwt>
<rscale>  0 0.13211437E+03</rscale>
<asrwt>0</asrwt>
<pdfrwt beam="2">  1        2 0.45134174E-01 0.13990145E+03</pdfrwt>
<pdfrwt beam="1">  1       -2 0.92272743E-02 0.13990145E+03</pdfrwt>
<totfact> 0.80454130E+03</totfact>
</mgrwt>
</event>
<event>
 8    2  0.1628804E-003  0.1391996E+03  0.7818608E-02  0.1225745E+00
          2   -1    0    0  501    0  0.00000000000E+00  0.00000000000E+00  0.21345613632E+03  0.21345613634E+03  0.25500000000E-02 0.  1.
         -2   -1    0    0    0  501 -0.00000000000E+00 -0.00000000000E+00 -0.72652457745E+02  0.72652457790E+02  0.25500000000E-02 0. -1.
         25    2    1    2    0    0  0.61056837898E+02  0.48014918807E+01  0.73934686122E+02  0.15761622494E+03  0.12500217908E+03 0.  0.
         23    2    1    2    0    0 -0.61056837898E+02 -0.48014918807E+01  0.66868992454E+02  0.12849236919E+03  0.91037547248E+02 0.  0.
        -11    1    4    4    0    0 -0.33407998258E+02 -0.11797142432E+02 -0.17440433857E+02  0.39489690434E+02  0.51100000000E-03 0. -1.
         11    1    4    4    0    0 -0.27648839640E+02  0.69956505518E+01  0.84309426311E+02  0.89002678753E+02  0.51100000000E-03 0.  1.
    9000005    1    3    3    0    0  0.23378141563E+02  0.30176865412E+02  0.98727074281E+02  0.10585469241E+03  0.10000000000E+01 0.  0.
    9000005    1    3    3    0    0  0.37678696335E+02 -0.25375373531E+02 -0.24792388158E+02  0.51761532531E+02  0.10000000000E+01 0.  0.
<mgrwt>
<rscale>  0 0.13116005E+03</rscale>
<asrwt>0</asrwt>
<pdfrwt beam="1">  1        2 0.32839405E-01 0.13919963E+03</pdfrwt>
<pdfrwt beam="2">  1       -2 0.11177301E-01 0.13919963E+03</pdfrwt>
<totfact> 0.83490299E+03</totfact>
</mgrwt>
</event>
<event>
 8    2  0.1628804E-003  0.1378947E+03  0.7818608E-02  0.1226961E+00
         -2   -1    0    0    0  501 -0.00000000000E+00  0.00000000000E+00  0.11386434643E+03  0.11386434646E+03  0.25500000000E-02 0.  1.
          2   -1    0    0  501    0  0.00000000000E+00 -0.00000000000E+00 -0.13613855723E+03  0.13613855725E+03  0.25500000000E-02 0. -1.
         25    2    1    2    0    0  0.56058875740E+02  0.15695407591E+02 -0.90527709544E+00  0.13789763668E+03  0.12500398117E+03 0.  0.
         23    2    1    2    0    0 -0.56058875740E+02 -0.15695407591E+02 -0.21368933701E+02  0.11210526702E+03  0.93391735171E+02 0.  0.
        -11    1    4    4    0    0 -0.20924257875E+02  0.11661029181E+02  0.33662147929E+02  0.41315183318E+02  0.51100000000E-03 0.  1.
         11    1    4    4    0    0 -0.35134617864E+02 -0.27356436773E+02 -0.55031081630E+02  0.70790083705E+02  0.51100000000E-03 0. -1.
    9000005    1    3    3    0    0 -0.30189673656E+02  0.37665205370E+02  0.58444006572E+01  0.48633744561E+02  0.10000000000E+01 0.  0.
    9000005    1    3    3    0    0  0.86248549395E+02 -0.21969797778E+02 -0.67496777527E+01  0.89263892123E+02  0.10000000000E+01 0.  0.
<mgrwt>
<rscale>  0 0.13033406E+03</rscale>
<asrwt>0</asrwt>
<pdfrwt beam="2">  1        2 0.20944393E-01 0.13789467E+03</pdfrwt>
<pdfrwt beam="1">  1       -2 0.17517592E-01 0.13789467E+03</pdfrwt>
<totfact> 0.65946399E+03</totfact>
</mgrwt>
</event>
<event>
 8    2  0.1628804E-003  0.1632675E+03  0.7818608E-02  0.1192433E+00
          2   -1    0    0  501    0  0.00000000000E+00  0.00000000000E+00  0.50045197031E+03  0.50045197031E+03  0.25500000000E-02 0. -1.
         -2   -1    0    0    0  501 -0.00000000000E+00 -0.00000000000E+00 -0.45545137404E+02  0.45545137475E+02  0.25500000000E-02 0.  1.
         25    2    1    2    0    0 -0.55430716559E+02  0.89209837982E+02  0.24329138367E+03  0.29299653206E+03  0.12500124359E+03 0.  0.
         23    2    1    2    0    0  0.55430716559E+02 -0.89209837982E+02  0.21161544923E+03  0.25300057573E+03  0.90538574298E+02 0.  0.
        -11    1    4    4    0    0  0.73734086014E+02 -0.81953180741E+02  0.13708310875E+03  0.17591139241E+03  0.51100000000E-03 0.  1.
         11    1    4    4    0    0 -0.18303369455E+02 -0.72566572410E+01  0.74532340478E+02  0.77089183321E+02  0.51100000000E-03 0. -1.
    9000005    1    3    3    0    0 -0.56753098625E+02  0.42781220994E+02  0.34333373952E+02  0.78936225145E+02  0.10000000000E+01 0.  0.
    9000005    1    3    3    0    0  0.13223820654E+01  0.46428616988E+02  0.20895800972E+03  0.21406030691E+03  0.10000000000E+01 0.  0.
<mgrwt>
<rscale>  0 0.15673539E+03</rscale>
<asrwt>0</asrwt>
<pdfrwt beam="1">  1        2 0.76992610E-01 0.16326748E+03</pdfrwt>
<pdfrwt beam="2">  1       -2 0.70069443E-02 0.16326748E+03</pdfrwt>
<totfact> 0.70097421E+03</totfact>
</mgrwt>
</event>
<event>
 8    2  0.1628804E-003  0.1280189E+03  0.7818608E-02  0.1244443E+00
          2   -1    0    0  501    0  0.00000000000E+00  0.00000000000E+00  0.12477084165E+04  0.12477084165E+04  0.25500000000E-02 0. -1.
         -2   -1    0    0    0  501 -0.00000000000E+00 -0.00000000000E+00 -0.10275172683E+02  0.10275172999E+02  0.25500000000E-02 0.  1.
         25    2    1    2    0    0 -0.25726888728E+02 -0.10142514332E+02  0.79242082748E+03  0.80269521293E+03  0.12499637452E+03 0.  0.
         23    2    1    2    0    0  0.25726888728E+02  0.10142514332E+02  0.44501241638E+03  0.45528837661E+03  0.92123350694E+02 0.  0.
        -11    1    4    4    0    0  0.18613386690E+00 -0.51242197642E+01  0.40691708435E+03  0.40694938974E+03  0.51100000000E-03 0. -1.
         11    1    4    4    0    0  0.25540754861E+02  0.15266734096E+02  0.38095332030E+02  0.48338986870E+02  0.51100000000E-03 0.  1.
    9000005    1    3    3    0    0 -0.33287288340E+02  0.32344061180E+02  0.68986702877E+03  0.69142729136E+03  0.10000000000E+01 0.  0.
    9000005    1    3    3    0    0  0.75603996118E+01 -0.42486575512E+02  0.10255379871E+03  0.11126792158E+03  0.10000000000E+01 0.  0.
<mgrwt>
<rscale>  0 0.11918780E+03</rscale>
<asrwt>0</asrwt>
<pdfrwt beam="1">  1        2 0.19195523E+00 0.12801889E+03</pdfrwt>
<pdfrwt beam="2">  1       -2 0.15807951E-02 0.12801889E+03</pdfrwt>
<totfact> 0.19603598E+04</totfact>
</mgrwt>
</event>
<event>
 8    2  0.1628804E-003  0.1607884E+03  0.7818608E-02  0.1195529E+00
         -2   -1    0    0    0  501 -0.00000000000E+00  0.00000000000E+00  0.14968963216E+02  0.14968963433E+02  0.25500000000E-02 0.  1.
          2   -1    0    0  501    0  0.00000000000E+00 -0.00000000000E+00 -0.16082321600E+04  0.16082321600E+04  0.25500000000E-02 0. -1.
         25    2    1    2    0    0  0.97052068071E+02 -0.28435115995E+02 -0.10975422008E+04  0.11092573126E+04  0.12500097311E+03 0.  0.
         23    2    1    2    0    0 -0.97052068071E+02  0.28435115995E+02 -0.49572099600E+03  0.51394381085E+03  0.90395105499E+02 0.  0.
        -11    1    4    4    0    0 -0.23540653428E+02  0.12863705213E+02 -0.23143712132E+02  0.35429771198E+02  0.51100000000E-03 0.  1.
         11    1    4    4    0    0 -0.73511414643E+02  0.15571410782E+02 -0.47257728386E+03  0.47851403965E+03  0.51100000000E-03 0. -1.
    9000005    1    3    3    0    0  0.42608589246E+02 -0.76654828281E+02 -0.56346292899E+03  0.57024812750E+03  0.10000000000E+01 0.  0.
    9000005    1    3    3    0    0  0.54443478825E+02  0.48219712286E+02 -0.53407927181E+03  0.53900918509E+03  0.10000000000E+01 0.  0.
<mgrwt>
<rscale>  0 0.15409554E+03</rscale>
<asrwt>0</asrwt>
<pdfrwt beam="2">  1        2 0.24742020E+00 0.16078838E+03</pdfrwt>
<pdfrwt beam="1">  1       -2 0.23029187E-02 0.16078838E+03</pdfrwt>
<totfact> 0.73978731E+03</totfact>
</mgrwt>
</event>
<event>
 8    2  0.1628804E-003  0.1423178E+03  0.7818608E-02  0.1220157E+00
         -2   -1    0    0    0  501 -0.00000000000E+00  0.00000000000E+00  0.95441070160E+02  0.95441070194E+02  0.25500000000E-02 0.  1.
          2   -1    0    0  501    0  0.00000000000E+00 -0.00000000000E+00 -0.23743641935E+03  0.23743641936E+03  0.25500000000E-02 0. -1.
         25    2    1    2    0    0 -0.65718729971E+02  0.17568811982E+02 -0.16215312116E+03  0.21574981668E+03  0.12500693610E+03 0.  0.
         23    2    1    2    0    0  0.65718729971E+02 -0.17568811982E+02  0.20157771970E+02  0.11712767288E+03  0.93193032782E+02 0.  0.
        -11    1    4    4    0    0  0.76626357507E+02  0.17514202647E+02  0.15135967758E+02  0.80046508227E+02  0.51100000000E-03 0. -1.
         11    1    4    4    0    0 -0.10907627536E+02 -0.35083014629E+02  0.50218042125E+01  0.37081164649E+02  0.51100000000E-03 0.  1.
    9000005    1    3    3    0    0  0.16895930352E+02 -0.94918908781E+01 -0.11543179272E+03  0.11705155798E+03  0.10000000000E+01 0.  0.
    9000005    1    3    3    0    0 -0.82614660323E+02  0.27060702860E+02 -0.46721328438E+02  0.98698258701E+02  0.10000000000E+01 0.  0.
<mgrwt>
<rscale>  0 0.13504454E+03</rscale>
<asrwt>0</asrwt>
<pdfrwt beam="2">  1        2 0.36528680E-01 0.14231777E+03</pdfrwt>
<pdfrwt beam="1">  1       -2 0.14683242E-01 0.14231777E+03</pdfrwt>
<totfact> 0.48085881E+03</totfact>
</mgrwt>
</event>
<event>
 8    2  0.1628804E-003  0.1367369E+03  0.7818608E-02  0.1230531E+00
          2   -1    0    0  501    0  0.00000000000E+00  0.00000000000E+00  0.22532024245E+04  0.22532024245E+04  0.25500000000E-02 0. -1.
         -2   -1    0    0    0  501 -0.00000000000E+00 -0.00000000000E+00 -0.66824341582E+01  0.66824346447E+01  0.25500000000E-02 0.  1.
         25    2    1    2    0    0  0.80189578660E+00 -0.55421986822E+02  0.10694633039E+04  0.10781691574E+04  0.12499893630E+03 0.  0.
         23    2    1    2    0    0 -0.80189578660E+00  0.55421986822E+02  0.11770566864E+04  0.11817157017E+04  0.88979305602E+02 0.  0.
        -11    1    4    4    0    0 -0.18629413643E+02  0.45730865666E+01  0.85255369843E+03  0.85276947464E+03  0.51100000000E-03 0. -1.
         11    1    4    4    0    0  0.17827517856E+02  0.50848900256E+02  0.32450298802E+03  0.32894622704E+03  0.51100000000E-03 0.  1.
    9000005    1    3    3    0    0  0.99146330850E+01 -0.94056872983E+02  0.65251726900E+03  0.65933662241E+03  0.10000000000E+01 0.  0.
    9000005    1    3    3    0    0 -0.91127372984E+01  0.38634886161E+02  0.41694603487E+03  0.41883253504E+03  0.10000000000E+01 0.  0.
<mgrwt>
<rscale>  0 0.12794896E+03</rscale>
<asrwt>0</asrwt>
<pdfrwt beam="1">  1        2 0.34664697E+00 0.13673688E+03</pdfrwt>
<pdfrwt beam="2">  1       -2 0.10280655E-02 0.13673688E+03</pdfrwt>
<totfact> 0.11002822E+04</totfact>
</mgrwt>
</event>
<event>
 8    2  0.1628804E-003  0.1676882E+03  0.7818608E-02  0.1187126E+00
          2   -1    0    0  501    0  0.00000000000E+00  0.00000000000E+00  0.21339758728E+04  0.21339758728E+04  0.25500000000E-02 0. -1.
         -2   -1    0    0    0  501 -0.00000000000E+00 -0.00000000000E+00 -0.12875607747E+02  0.12875608000E+02  0.25500000000E-02 0.  1.
         25    2    1    2    0    0 -0.91914227859E+02 -0.63608026414E+02  0.14975810096E+04  0.15069400136E+04  0.12500047205E+03 0.  0.
         23    2    1    2    0    0  0.91914227859E+02  0.63608026414E+02  0.62351925550E+03  0.63991146723E+03  0.90643353921E+02 0.  0.
        -11    1    4    4    0    0  0.71955262552E+02  0.71235231395E+01  0.21055516277E+03  0.22262475370E+03  0.51100000000E-03 0.  1.
         11    1    4    4    0    0  0.19958965307E+02  0.56484503274E+02  0.41296409273E+03  0.41728671354E+03  0.51100000000E-03 0. -1.
    9000005    1    3    3    0    0 -0.96756575161E+02 -0.52685635082E+02  0.64978970850E+03  0.65906393943E+03  0.10000000000E+01 0.  0.
    9000005    1    3    3    0    0  0.48423473025E+01 -0.10922391332E+02  0.84779130107E+03  0.84787607416E+03  0.10000000000E+01 0.  0.
<mgrwt>
<rscale>  0 0.16139886E+03</rscale>
<asrwt>0</asrwt>
<pdfrwt beam="1">  1        2 0.32830419E+00 0.16768818E+03</pdfrwt>
<pdfrwt beam="2">  1       -2 0.19808615E-02 0.16768818E+03</pdfrwt>
<totfact> 0.49384114E+03</totfact>
</mgrwt>
</event>
<event>
 8    2  0.1628804E-003  0.1404361E+03  0.7818608E-02  0.1223782E+00
          2   -1    0    0  501    0  0.00000000000E+00  0.00000000000E+00  0.38130095111E+03  0.38130095112E+03  0.25500000000E-02 0.  1.
         -2   -1    0    0    0  501 -0.00000000000E+00 -0.00000000000E+00 -0.43004020918E+02  0.43004020993E+02  0.25500000000E-02 0. -1.
         25    2    1    2    0    0 -0.54924939227E+02  0.32873516453E+02  0.22679229699E+03  0.26675276360E+03  0.12499949553E+03 0.  0.
         23    2    1    2    0    0  0.54924939227E+02 -0.32873516453E+02  0.11150463320E+03  0.15755220851E+03  0.91060409331E+02 0.  0.
        -11    1    4    4    0    0  0.26529214871E+02 -0.63005294604E+02  0.56392421063E+02  0.88620378827E+02  0.51100000000E-03 0. -1.
         11    1    4    4    0    0  0.28395724356E+02  0.30131778151E+02  0.55112212138E+02  0.68931829681E+02  0.51100000000E-03 0.  1.
    9000005    1    3    3    0    0 -0.85877160878E+02  0.32007062394E+02  0.21479198611E+03  0.23352930459E+03  0.10000000000E+01 0.  0.
    9000005    1    3    3    0    0  0.30952221650E+02  0.86645405856E+00  0.12000310879E+02  0.33223459015E+02  0.10000000000E+01 0.  0.
<mgrwt>
<rscale>  0 0.13250747E+03</rscale>
<asrwt>0</asrwt>
<pdfrwt beam="1">  1        2 0.58661685E-01 0.14043607E+03</pdfrwt>
<pdfrwt beam="2">  1       -2 0.66160032E-02 0.14043607E+03</pdfrwt>
<totfact> 0.10178240E+04</totfact>
</mgrwt>
</event>
<event>
 8    2  0.1628804E-003  0.1410221E+03  0.7818608E-02  0.1223093E+00
         -2   -1    0    0    0  501 -0.00000000000E+00  0.00000000000E+00  0.11608273702E+03  0.11608273705E+03  0.25500000000E-02 0.  1.
          2   -1    0    0  501    0  0.00000000000E+00 -0.00000000000E+00 -0.14012899795E+03  0.14012899797E+03  0.25500000000E-02 0. -1.
         25    2    1    2    0    0  0.43892556620E+02  0.48330292821E+02  0.45161584472E+01  0.14109435987E+03  0.12499939587E+03 0.  0.
         23    2    1    2    0    0 -0.43892556620E+02 -0.48330292821E+02 -0.28562419375E+02  0.11511737515E+03  0.90409206002E+02 0.  0.
        -11    1    4    4    0    0  0.15356599043E+02 -0.14996256574E+02  0.21738108628E+02  0.30549275153E+02  0.51100000000E-03 0.  1.
         11    1    4    4    0    0 -0.59249155663E+02 -0.33334036247E+02 -0.50300528004E+02  0.84568099996E+02  0.51100000000E-03 0. -1.
    9000005    1    3    3    0    0  0.84265620041E+02  0.14209727986E+02  0.16115291696E+02  0.86967314071E+02  0.10000000000E+01 0.  0.
    9000005    1    3    3    0    0 -0.40373063421E+02  0.34120564835E+02 -0.11599133249E+02  0.54127045798E+02  0.10000000000E+01 0.  0.
<mgrwt>
<rscale>  0 0.13298457E+03</rscale>
<asrwt>0</asrwt>
<pdfrwt beam="2">  1        2 0.21558307E-01 0.14102206E+03</pdfrwt>
<pdfrwt beam="1">  1       -2 0.17858883E-01 0.14102206E+03</pdfrwt>
<totfact> 0.61914419E+03</totfact>
</mgrwt>
</event>
<event>
 8    2  0.1628804E-003  0.1420980E+03  0.7818608E-02  0.1221431E+00
          2   -1    0    0  501    0  0.00000000000E+00  0.00000000000E+00  0.32226419944E+03  0.32226419945E+03  0.25500000000E-02 0. -1.
         -2   -1    0    0    0  501 -0.00000000000E+00 -0.00000000000E+00 -0.77405089960E+02  0.77405090002E+02  0.25500000000E-02 0.  1.
         25    2    1    2    0    0  0.19047144331E+02  0.64812383276E+02  0.14108278284E+02  0.14279668210E+03  0.12501363993E+03 0.  0.
         23    2    1    2    0    0 -0.19047144331E+02 -0.64812383276E+02  0.23075083119E+03  0.25687260735E+03  0.90411014689E+02 0.  0.
        -11    1    4    4    0    0  0.72266164504E+01 -0.66503610370E+02  0.82073158391E+02  0.10588180914E+03  0.51100000000E-03 0.  1.
         11    1    4    4    0    0 -0.26273760782E+02  0.16912270943E+01  0.14867767280E+03  0.15099079821E+03  0.51100000000E-03 0. -1.
    9000005    1    3    3    0    0  0.33758179379E+02  0.28157449534E+02 -0.50565255163E+02  0.67009713243E+02  0.10000000000E+01 0.  0.
    9000005    1    3    3    0    0 -0.14711035048E+02  0.36654933742E+02  0.64673533447E+02  0.75786968856E+02  0.10000000000E+01 0.  0.
<mgrwt>
<rscale>  0 0.13414576E+03</rscale>
<asrwt>0</asrwt>
<pdfrwt beam="1">  1        2 0.49579108E-01 0.14209803E+03</pdfrwt>
<pdfrwt beam="2">  1       -2 0.11908475E-01 0.14209803E+03</pdfrwt>
<totfact> 0.48723642E+03</totfact>
</mgrwt>
</event>
<event>
 8    2  0.1628804E-003  0.1379651E+03  0.7818608E-02  0.1219411E+00
         -2   -1    0    0    0  501 -0.00000000000E+00  0.00000000000E+00  0.62142204250E+02  0.62142204303E+02  0.25500000000E-02 0.  1.
          2   -1    0    0  501    0  0.00000000000E+00 -0.00000000000E+00 -0.29821009877E+03  0.29821009878E+03  0.25500000000E-02 0. -1.
         25    2    1    2    0    0 -0.34663984501E+02 -0.46985592471E+02 -0.15847074298E+03  0.21011267081E+03  0.12500048133E+03 0.  0.
         23    2    1    2    0    0  0.34663984501E+02  0.46985592471E+02 -0.77597151542E+02  0.15023963228E+03  0.11463590824E+03 0.  0.
        -11    1    4    4    0    0  0.56326275894E+02  0.55608002119E+02 -0.93131969598E+02  0.12222300527E+03  0.51100000000E-03 0. -1.
         11    1    4    4    0    0 -0.21662291393E+02 -0.86224096484E+01  0.15534818056E+02  0.28016627007E+02  0.51100000000E-03 0.  1.
    9000005    1    3    3    0    0 -0.39562690665E+02 -0.87651480764E+02 -0.10025849095E+03  0.13892715207E+03  0.10000000000E+01 0.  0.
    9000005    1    3    3    0    0  0.48987061644E+01  0.40665888293E+02 -0.58212252025E+02  0.71185518742E+02  0.10000000000E+01 0.  0.
<mgrwt>
<rscale>  0 0.13557470E+03</rscale>
<asrwt>0</asrwt>
<pdfrwt beam="2">  1        2 0.45878476E-01 0.13796506E+03</pdfrwt>
<pdfrwt beam="1">  1       -2 0.95603393E-02 0.13796506E+03</pdfrwt>
<totfact> 0.74734946E+03</totfact>
</mgrwt>
</event>
<event>
 8    2  0.1628804E-003  0.2286423E+03  0.7818608E-02  0.1130694E+00
          2   -1    0    0  501    0  0.00000000000E+00  0.00000000000E+00  0.90107193934E+03  0.90107193934E+03  0.25500000000E-02 0. -1.
         -2   -1    0    0    0  501 -0.00000000000E+00 -0.00000000000E+00 -0.64609028651E+02  0.64609028701E+02  0.25500000000E-02 0.  1.
         25    2    1    2    0    0 -0.14857363753E+03  0.12073848935E+03  0.62848637876E+03  0.66878429884E+03  0.12500160606E+03 0.  0.
         23    2    1    2    0    0  0.14857363753E+03 -0.12073848935E+03  0.20797653193E+03  0.29689666920E+03  0.90782629216E+02 0.  0.
        -11    1    4    4    0    0  0.33646752480E+02 -0.44413204347E+01  0.87351586356E+02  0.93713013605E+02  0.51100000000E-03 0. -1.
         11    1    4    4    0    0  0.11492688505E+03 -0.11629716892E+03  0.12062494558E+03  0.20318365559E+03  0.51100000000E-03 0.  1.
    9000005    1    3    3    0    0 -0.12985064703E+03  0.12014934174E+03  0.37533731186E+03  0.41494114345E+03  0.10000000000E+01 0.  0.
    9000005    1    3    3    0    0 -0.18722990500E+02  0.58914760633E+00  0.25314906690E+03  0.25384315539E+03  0.10000000000E+01 0.  0.
<mgrwt>
<rscale>  0 0.22433150E+03</rscale>
<asrwt>0</asrwt>
<pdfrwt beam="1">  1        2 0.13862644E+00 0.22864232E+03</pdfrwt>
<pdfrwt beam="2">  1       -2 0.99398512E-02 0.22864232E+03</pdfrwt>
<totfact> 0.20272780E+03</totfact>
</mgrwt>
</event>
<event>
 8    2  0.1628804E-003  0.1272050E+03  0.7818608E-02  0.1248776E+00
         -2   -1    0    0    0  501 -0.00000000000E+00  0.00000000000E+00  0.76621195507E+02  0.76621195549E+02  0.25500000000E-02 0.  1.
          2   -1    0    0  501    0  0.00000000000E+00 -0.00000000000E+00 -0.15401187647E+03  0.15401187649E+03  0.25500000000E-02 0. -1.
         25    2    1    2    0    0  0.46789215054E+01 -0.23113727515E+02 -0.50053700702E+02  0.13669853245E+03  0.12499991645E+03 0.  0.
         23    2    1    2    0    0 -0.46789215054E+01  0.23113727515E+02 -0.27336980258E+02  0.93934539589E+02  0.86719378066E+02 0.  0.
        -11    1    4    4    0    0 -0.25783782304E+02  0.47238135133E+02 -0.30273306228E+02  0.61747209742E+02  0.51100000000E-03 0. -1.
         11    1    4    4    0    0  0.21104860798E+02 -0.24124407618E+02  0.29363259705E+01  0.32187329847E+02  0.51100000000E-03 0.  1.
    9000005    1    3    3    0    0  0.40869704958E+02 -0.47316285338E+02 -0.65438483166E+02  0.90511649640E+02  0.10000000000E+01 0.  0.
    9000005    1    3    3    0    0 -0.36190783452E+02  0.24202557823E+02  0.15384782464E+02  0.46186882808E+02  0.10000000000E+01 0.  0.
<mgrwt>
<rscale>  0 0.11662195E+03</rscale>
<asrwt>0</asrwt>
<pdfrwt beam="2">  1        2 0.23694135E-01 0.12720501E+03</pdfrwt>
<pdfrwt beam="1">  1       -2 0.11787876E-01 0.12720501E+03</pdfrwt>
<totfact> 0.10876047E+04</totfact>
</mgrwt>
</event>
<event>
 8    2  0.1628804E-003  0.1335159E+03  0.7818608E-02  0.1235667E+00
         -2   -1    0    0    0  501 -0.00000000000E+00  0.00000000000E+00  0.17218358833E+02  0.17218359022E+02  0.25500000000E-02 0.  1.
          2   -1    0    0  501    0  0.00000000000E+00 -0.00000000000E+00 -0.83896343427E+03  0.83896343427E+03  0.25500000000E-02 0. -1.
         25    2    1    2    0    0  0.25376371517E+02 -0.39458337752E+02 -0.55514307683E+03  0.57097314142E+03  0.12500228725E+03 0.  0.
         23    2    1    2    0    0 -0.25376371517E+02  0.39458337752E+02 -0.26660199860E+03  0.28520865187E+03  0.89813299662E+02 0.  0.
        -11    1    4    4    0    0 -0.33816347857E+02 -0.21308731195E+02 -0.10348466572E+03  0.11093549228E+03  0.51100000000E-03 0.  1.
         11    1    4    4    0    0  0.84399763402E+01  0.60767068947E+02 -0.16311733288E+03  0.17427315959E+03  0.51100000000E-03 0. -1.
    9000005    1    3    3    0    0  0.74579575955E+02 -0.10817771035E+02 -0.27757312676E+03  0.28762297895E+03  0.10000000000E+01 0.  0.
    9000005    1    3    3    0    0 -0.49203204438E+02 -0.28640566717E+02 -0.27756995008E+03  0.28335016247E+03  0.10000000000E+01 0.  0.
<mgrwt>
<rscale>  0 0.12461835E+03</rscale>
<asrwt>0</asrwt>
<pdfrwt beam="2">  1        2 0.12907127E+00 0.13351589E+03</pdfrwt>
<pdfrwt beam="1">  1       -2 0.26489789E-02 0.13351589E+03</pdfrwt>
<totfact> 0.16188679E+04</totfact>
</mgrwt>
</event>
<event>
 8    2  0.1628804E-003  0.1416856E+03  0.7818608E-02  0.1221891E+00
         -2   -1    0    0    0  501 -0.00000000000E+00  0.00000000000E+00  0.19754839628E+02  0.19754839793E+02  0.25500000000E-02 0.  1.
          2   -1    0    0  501    0  0.00000000000E+00 -0.00000000000E+00 -0.88673819157E+03  0.88673819158E+03  0.25500000000E-02 0. -1.
         25    2    1    2    0    0  0.66675275239E+02 -0.11688840967E+01 -0.35478832808E+03  0.38203345835E+03  0.12501138721E+03 0.  0.
         23    2    1    2    0    0 -0.66675275239E+02  0.11688840967E+01 -0.51219502386E+03  0.52445957302E+03  0.90923828833E+02 0.  0.
        -11    1    4    4    0    0 -0.54507946111E+02  0.53265030045E+01 -0.50798649176E+03  0.51093029234E+03  0.51100000000E-03 0. -1.
         11    1    4    4    0    0 -0.12167329129E+02 -0.41576189078E+01 -0.42085321065E+01  0.13529280685E+02  0.51100000000E-03 0.  1.
    9000005    1    3    3    0    0  0.65710192155E+02  0.49026345186E+02 -0.14756623789E+03  0.16881411802E+03  0.10000000000E+01 0.  0.
    9000005    1    3    3    0    0  0.96508308410E+00 -0.50195229283E+02 -0.20722209019E+03  0.21321934033E+03  0.10000000000E+01 0.  0.
<mgrwt>
<rscale>  0 0.13382275E+03</rscale>
<asrwt>0</asrwt>
<pdfrwt beam="2">  1        2 0.13642123E+00 0.14168559E+03</pdfrwt>
<pdfrwt beam="1">  1       -2 0.30392068E-02 0.14168559E+03</pdfrwt>
<totfact> 0.12373449E+04</totfact>
</mgrwt>
</event>
<event>
 8    2  0.1628804E-003  0.1835380E+03  0.7818608E-02  0.1169942E+00
         -2   -1    0    0    0  501 -0.00000000000E+00  0.00000000000E+00  0.83852145191E+03  0.83852145191E+03  0.25500000000E-02 0.  1.
          2   -1    0    0  501    0  0.00000000000E+00 -0.00000000000E+00 -0.37024800500E+02  0.37024800588E+02  0.25500000000E-02 0. -1.
         25    2    1    2    0    0  0.54458754240E+02 -0.12286660298E+03  0.51294408688E+03  0.54479156566E+03  0.12499702280E+03 0.  0.
         23    2    1    2    0    0 -0.54458754240E+02  0.12286660298E+03  0.28855256453E+03  0.33075468684E+03  0.89856120153E+02 0.  0.
        -11    1    4    4    0    0 -0.26236552548E+02  0.12076375298E+03  0.26993636704E+03  0.29688025023E+03  0.51100000000E-03 0.  1.
         11    1    4    4    0    0 -0.28222201692E+02  0.21028499956E+01  0.18616197486E+02  0.33874436609E+02  0.51100000000E-03 0. -1.
    9000005    1    3    3    0    0 -0.11558747388E+02  0.32378956897E+01 -0.42608164711E+00  0.12052806945E+02  0.10000000000E+01 0.  0.
    9000005    1    3    3    0    0  0.66017501628E+02 -0.12610449867E+03  0.51337016853E+03  0.53273875872E+03  0.10000000000E+01 0.  0.
<mgrwt>
<rscale>  0 0.17780732E+03</rscale>
<asrwt>0</asrwt>
<pdfrwt beam="2">  1        2 0.56961233E-02 0.18353804E+03</pdfrwt>
<pdfrwt beam="1">  1       -2 0.12900330E+00 0.18353804E+03</pdfrwt>
<totfact> 0.60766319E+02</totfact>
</mgrwt>
</event>
<event>
 8    2  0.1628804E-003  0.1478597E+03  0.7818608E-02  0.1212608E+00
         -2   -1    0    0    0  501 -0.00000000000E+00  0.00000000000E+00  0.37403930033E+02  0.37403930120E+02  0.25500000000E-02 0.  1.
          2   -1    0    0  501    0  0.00000000000E+00 -0.00000000000E+00 -0.54094813634E+03  0.54094813634E+03  0.25500000000E-02 0. -1.
         25    2    1    2    0    0 -0.76667184616E+02  0.18972122639E+02 -0.36952970239E+03  0.39801343427E+03  0.12499877711E+03 0.  0.
         23    2    1    2    0    0  0.76667184616E+02 -0.18972122639E+02 -0.13401450392E+03  0.18033863219E+03  0.91237801189E+02 0.  0.
        -11    1    4    4    0    0  0.67618812986E+02 -0.61152924364E-01 -0.14249441035E+03  0.15772433100E+03  0.51100000000E-03 0. -1.
         11    1    4    4    0    0  0.90483716298E+01 -0.18910969715E+02  0.84799064347E+01  0.22614301185E+02  0.51100000000E-03 0.  1.
    9000005    1    3    3    0    0 -0.66215600567E+02 -0.11178557730E+02 -0.35772453235E+03  0.36397432184E+03  0.10000000000E+01 0.  0.
    9000005    1    3    3    0    0 -0.10451584049E+02  0.30150680369E+02 -0.11805170040E+02  0.34039112437E+02  0.10000000000E+01 0.  0.
<mgrwt>
<rscale>  0 0.14053695E+03</rscale>
<asrwt>0</asrwt>
<pdfrwt beam="2">  1        2 0.83222785E-01 0.14785971E+03</pdfrwt>
<pdfrwt beam="1">  1       -2 0.57544512E-02 0.14785971E+03</pdfrwt>
<totfact> 0.86329035E+03</totfact>
</mgrwt>
</event>
<event>
 8    2  0.1628804E-003  0.1484690E+03  0.7818608E-02  0.1211589E+00
         -2   -1    0    0    0  501 -0.00000000000E+00  0.00000000000E+00  0.67894837111E+01  0.67894841900E+01  0.25500000000E-02 0.  1.
          2   -1    0    0  501    0  0.00000000000E+00 -0.00000000000E+00 -0.28127485498E+04  0.28127485498E+04  0.25500000000E-02 0. -1.
         25    2    1    2    0    0  0.60008660899E+02  0.53079619900E+02 -0.12419670722E+04  0.12508098431E+04  0.12499827974E+03 0.  0.
         23    2    1    2    0    0 -0.60008660899E+02 -0.53079619900E+02 -0.15639919939E+04  0.15687281908E+04  0.91753442774E+02 0.  0.
        -11    1    4    4    0    0 -0.20199996783E+02 -0.37105648680E+02 -0.21817507862E+03  0.22222788746E+03  0.51100000000E-03 0.  1.
         11    1    4    4    0    0 -0.39808664116E+02 -0.15973971220E+02 -0.13458169153E+04  0.13465003034E+04  0.51100000000E-03 0. -1.
    9000005    1    3    3    0    0  0.78101538481E+02 -0.81010713444E+01 -0.85704147617E+03  0.86063149463E+03  0.10000000000E+01 0.  0.
    9000005    1    3    3    0    0 -0.18092877582E+02  0.61180691245E+02 -0.38492559599E+03  0.39017834851E+03  0.10000000000E+01 0.  0.
<mgrwt>
<rscale>  0 0.14130120E+03</rscale>
<asrwt>0</asrwt>
<pdfrwt beam="2">  1        2 0.43272962E+00 0.14846904E+03</pdfrwt>
<pdfrwt beam="1">  1       -2 0.10445382E-02 0.14846904E+03</pdfrwt>
<totfact> 0.53811712E+03</totfact>
</mgrwt>
</event>
<event>
 8    2  0.1628804E-003  0.1936049E+03  0.7818608E-02  0.1159853E+00
         -2   -1    0    0    0  501 -0.00000000000E+00  0.00000000000E+00  0.30200880290E+03  0.30200880291E+03  0.25500000000E-02 0.  1.
          2   -1    0    0  501    0  0.00000000000E+00 -0.00000000000E+00 -0.11406711989E+03  0.11406711992E+03  0.25500000000E-02 0. -1.
         25    2    1    2    0    0  0.12771159457E+03  0.74479340928E+02  0.69451050690E+02  0.20568493804E+03  0.12500168671E+03 0.  0.
         23    2    1    2    0    0 -0.12771159457E+03 -0.74479340928E+02  0.11849063233E+03  0.21039098479E+03  0.91470830978E+02 0.  0.
        -11    1    4    4    0    0 -0.38715459136E+02 -0.72827223071E+02  0.39781398160E+02  0.91571015262E+02  0.51100000000E-03 0. -1.
         11    1    4    4    0    0 -0.88996135434E+02 -0.16521178569E+01  0.78709234166E+02  0.11881996953E+03  0.51100000000E-03 0.  1.
    9000005    1    3    3    0    0  0.65607201075E+02 -0.93332469239E+01  0.76392861466E+02  0.10113497720E+03  0.10000000000E+01 0.  0.
    9000005    1    3    3    0    0  0.62104393495E+02  0.83812587852E+02 -0.69418107761E+01  0.10454996084E+03  0.10000000000E+01 0.  0.
<mgrwt>
<rscale>  0 0.18846548E+03</rscale>
<asrwt>0</asrwt>
<pdfrwt beam="2">  1        2 0.17548788E-01 0.19360487E+03</pdfrwt>
<pdfrwt beam="1">  1       -2 0.46462892E-01 0.19360487E+03</pdfrwt>
<totfact> 0.14219409E+03</totfact>
</mgrwt>
</event>
<event>
 8    2  0.1628804E-003  0.1511279E+03  0.7818608E-02  0.1209277E+00
         -2   -1    0    0    0  501 -0.00000000000E+00  0.00000000000E+00  0.55195162810E+03  0.55195162811E+03  0.25500000000E-02 0.  1.
          2   -1    0    0  501    0  0.00000000000E+00 -0.00000000000E+00 -0.71803781907E+02  0.71803781953E+02  0.25500000000E-02 0. -1.
         25    2    1    2    0    0 -0.24563887571E+02 -0.81308630375E+02  0.25584602045E+02  0.15327819956E+03  0.12500062661E+03 0.  0.
         23    2    1    2    0    0  0.24563887571E+02  0.81308630375E+02  0.45456324415E+03  0.47047721050E+03  0.86640548923E+02 0.  0.
        -11    1    4    4    0    0  0.44333317887E+02  0.88264542893E+02  0.34191126342E+03  0.35589237791E+03  0.51100000000E-03 0.  1.
         11    1    4    4    0    0 -0.19769430317E+02 -0.69559125181E+01  0.11265198074E+03  0.11458483258E+03  0.51100000000E-03 0. -1.
    9000005    1    3    3    0    0 -0.20427393920E-01 -0.10379615987E+03 -0.10312714812E+02  0.10431200941E+03  0.10000000000E+01 0.  0.
    9000005    1    3    3    0    0 -0.24543460177E+02  0.22487529497E+02  0.35897316857E+02  0.48966190150E+02  0.10000000000E+01 0.  0.
<mgrwt>
<rscale>  0 0.14305427E+03</rscale>
<asrwt>0</asrwt>
<pdfrwt beam="2">  1        2 0.11046736E-01 0.15112787E+03</pdfrwt>
<pdfrwt beam="1">  1       -2 0.84915632E-01 0.15112787E+03</pdfrwt>
<totfact> 0.69545698E+02</totfact>
</mgrwt>
</event>
<event>
 8    2  0.1628804E-003  0.2552010E+03  0.7818608E-02  0.1112439E+00
         -2   -1    0    0    0  501 -0.00000000000E+00  0.00000000000E+00  0.28530407691E+02  0.28530407805E+02  0.25500000000E-02 0.  1.
          2   -1    0    0  501    0  0.00000000000E+00 -0.00000000000E+00 -0.21570144828E+04  0.21570144828E+04  0.25500000000E-02 0. -1.
         25    2    1    2    0    0  0.15029426979E+03 -0.16405803173E+03 -0.10379940434E+04  0.10689056117E+04  0.12499666915E+03 0.  0.
         23    2    1    2    0    0 -0.15029426979E+03  0.16405803173E+03 -0.10904900318E+04  0.11166392789E+04  0.90616580254E+02 0.  0.
        -11    1    4    4    0    0 -0.14291612726E+03  0.11226886332E+03 -0.72536520475E+03  0.74778606390E+03  0.51100000000E-03 0.  1.
         11    1    4    4    0    0 -0.73781425297E+01  0.51789168407E+02 -0.36512482701E+03  0.36885321505E+03  0.51100000000E-03 0. -1.
    9000005    1    3    3    0    0  0.13307668636E+03 -0.62876445922E+02 -0.71510481818E+03  0.73009503004E+03  0.10000000000E+01 0.  0.
    9000005    1    3    3    0    0  0.17217583429E+02 -0.10118158581E+03 -0.32288922517E+03  0.33881058162E+03  0.10000000000E+01 0.  0.
<mgrwt>
<rscale>  0 0.25137536E+03</rscale>
<asrwt>0</asrwt>
<pdfrwt beam="2">  1        2 0.33184825E+00 0.25520104E+03</pdfrwt>
<pdfrwt beam="1">  1       -2 0.43892952E-02 0.25520104E+03</pdfrwt>
<totfact> 0.14673420E+03</totfact>
</mgrwt>
</event>
<event>
 8    2  0.1628804E-003  0.1895987E+03  0.7818608E-02  0.1164469E+00
         -2   -1    0    0    0  501 -0.00000000000E+00  0.00000000000E+00  0.13395138643E+02  0.13395138886E+02  0.25500000000E-02 0.  1.
          2   -1    0    0  501    0  0.00000000000E+00 -0.00000000000E+00 -0.28291697345E+04  0.28291697345E+04  0.25500000000E-02 0. -1.
         25    2    1    2    0    0  0.14189076651E+03 -0.13827027125E+02 -0.20600319635E+04  0.20687385925E+04  0.12499398879E+03 0.  0.
         23    2    1    2    0    0 -0.14189076651E+03  0.13827027125E+02 -0.75574263238E+03  0.77382628089E+03  0.85650512555E+02 0.  0.
        -11    1    4    4    0    0 -0.94172635069E+02 -0.52189195828E+01 -0.64359990872E+03  0.65047410773E+03  0.51100000000E-03 0. -1.
         11    1    4    4    0    0 -0.47718131441E+02  0.19045946708E+02 -0.11214272366E+03  0.12335217316E+03  0.51100000000E-03 0.  1.
    9000005    1    3    3    0    0  0.13777802537E+03 -0.33418401403E+02 -0.20076989588E+04  0.20126986070E+04  0.10000000000E+01 0.  0.
    9000005    1    3    3    0    0  0.41127411438E+01  0.19591374278E+02 -0.52333004731E+02  0.56039985457E+02  0.10000000000E+01 0.  0.
<mgrwt>
<rscale>  0 0.18348832E+03</rscale>
<asrwt>0</asrwt>
<pdfrwt beam="2">  1        2 0.43525641E+00 0.18959872E+03</pdfrwt>
<pdfrwt beam="1">  1       -2 0.20607928E-02 0.18959872E+03</pdfrwt>
<totfact> 0.19600988E+03</totfact>
</mgrwt>
</event>
<event>
 8    2  0.1628804E-003  0.1747810E+03  0.7818608E-02  0.1178760E+00
         -2   -1    0    0    0  501 -0.00000000000E+00  0.00000000000E+00  0.29360194492E+02  0.29360194603E+02  0.25500000000E-02 0.  1.
          2   -1    0    0  501    0  0.00000000000E+00 -0.00000000000E+00 -0.91874796208E+03  0.91874796209E+03  0.25500000000E-02 0. -1.
         25    2    1    2    0    0 -0.10653000833E+03  0.59789004246E+02 -0.44897514441E+03  0.48179568411E+03  0.12500013288E+03 0.  0.
         23    2    1    2    0    0  0.10653000833E+03 -0.59789004246E+02 -0.44041262318E+03  0.46631247258E+03  0.92523919749E+02 0.  0.
        -11    1    4    4    0    0  0.40584220046E+01  0.72436022096E+01 -0.16139340867E+03  0.16160684678E+03  0.51100000000E-03 0. -1.
         11    1    4    4    0    0  0.10247158633E+03 -0.67032606456E+02 -0.27901921451E+03  0.30470562580E+03  0.51100000000E-03 0.  1.
    9000005    1    3    3    0    0 -0.29674116541E+02 -0.24423914255E+02 -0.33608438494E+02  0.51064742416E+02  0.10000000000E+01 0.  0.
    9000005    1    3    3    0    0 -0.76855891791E+02  0.84212918501E+02 -0.41536670592E+03  0.43073094169E+03  0.10000000000E+01 0.  0.
<mgrwt>
<rscale>  0 0.16912869E+03</rscale>
<asrwt>0</asrwt>
<pdfrwt beam="2">  1        2 0.14134582E+00 0.17478101E+03</pdfrwt>
<pdfrwt beam="1">  1       -2 0.45169537E-02 0.17478101E+03</pdfrwt>
<totfact> 0.66225662E+03</totfact>
</mgrwt>
</event>
<event>
 8    2  0.1628804E-003  0.1261838E+03  0.7818608E-02  0.1246021E+00
          2   -1    0    0  501    0  0.00000000000E+00  0.00000000000E+00  0.16616072236E+03  0.16616072238E+03  0.25500000000E-02 0. -1.
         -2   -1    0    0    0  501 -0.00000000000E+00 -0.00000000000E+00 -0.98676566204E+02  0.98676566237E+02  0.25500000000E-02 0.  1.
         25    2    1    2    0    0 -0.14541940038E+02 -0.93498743554E+01  0.10131357453E+03  0.16182336875E+03  0.12499389633E+03 0.  0.
         23    2    1    2    0    0  0.14541940038E+02  0.93498743554E+01 -0.33829418375E+02  0.10301391986E+03  0.95752545486E+02 0.  0.
        -11    1    4    4    0    0  0.47900710106E+02  0.19404018395E+02 -0.42724909213E+02  0.67055289321E+02  0.51100000000E-03 0. -1.
         11    1    4    4    0    0 -0.33358770068E+02 -0.10054144039E+02  0.88954908378E+01  0.35958630540E+02  0.51100000000E-03 0.  1.
    9000005    1    3    3    0    0 -0.62022172088E+02  0.11536483188E+02  0.21551853282E+02  0.66673252919E+02  0.10000000000E+01 0.  0.
    9000005    1    3    3    0    0  0.47480232050E+02 -0.20886357543E+02  0.79761721245E+02  0.95150115832E+02  0.10000000000E+01 0.  0.
<mgrwt>
<rscale>  0 0.11824475E+03</rscale>
<asrwt>0</asrwt>
<pdfrwt beam="1">  1        2 0.25563188E-01 0.12618384E+03</pdfrwt>
<pdfrwt beam="2">  1       -2 0.15181010E-01 0.12618384E+03</pdfrwt>
<totfact> 0.66491386E+03</totfact>
</mgrwt>
</event>
<event>
 8    2  0.1628804E-003  0.1270668E+03  0.7818608E-02  0.1244179E+00
         -2   -1    0    0    0  501 -0.00000000000E+00  0.00000000000E+00  0.61004639452E+02  0.61004639506E+02  0.25500000000E-02 0.  1.
          2   -1    0    0  501    0  0.00000000000E+00 -0.00000000000E+00 -0.26675715978E+03  0.26675715979E+03  0.25500000000E-02 0. -1.
         25    2    1    2    0    0  0.94062554903E+01 -0.20804116896E+02 -0.37299430788E+02  0.13242817152E+03  0.12499873661E+03 0.  0.
         23    2    1    2    0    0 -0.94062554903E+01  0.20804116896E+02 -0.16845308954E+03  0.19533362778E+03  0.96215871050E+02 0.  0.
        -11    1    4    4    0    0  0.42046006851E+02 -0.10094751138E+01 -0.85894523128E+02  0.95638668099E+02  0.51100000000E-03 0.  1.
         11    1    4    4    0    0 -0.51452262342E+02  0.21813592009E+02 -0.82558566413E+02  0.99694959676E+02  0.51100000000E-03 0. -1.
    9000005    1    3    3    0    0  0.25346221961E+02 -0.65719046094E+02  0.22612643233E+01  0.70480758392E+02  0.10000000000E+01 0.  0.
    9000005    1    3    3    0    0 -0.15939966471E+02  0.44914929198E+02 -0.39560695111E+02  0.61947413131E+02  0.10000000000E+01 0.  0.
<mgrwt>
<rscale>  0 0.11934650E+03</rscale>
<asrwt>0</asrwt>
<pdfrwt beam="2">  1        2 0.41039563E-01 0.12706681E+03</pdfrwt>
<pdfrwt beam="1">  1       -2 0.93853293E-02 0.12706681E+03</pdfrwt>
<totfact> 0.86064948E+03</totfact>
</mgrwt>
</event>
<event>
 8    2  0.1628804E-003  0.2682400E+03  0.7818608E-02  0.1104763E+00
          2   -1    0    0  501    0  0.00000000000E+00  0.00000000000E+00  0.41678540628E+03  0.41678540629E+03  0.25500000000E-02 0.  1.
         -2   -1    0    0    0  501 -0.00000000000E+00 -0.00000000000E+00 -0.17515139823E+03  0.17515139824E+03  0.25500000000E-02 0. -1.
         25    2    1    2    0    0  0.13420436019E+03 -0.19574776377E+03  0.20499759010E+03  0.33760436302E+03  0.12499878666E+03 0.  0.
         23    2    1    2    0    0 -0.13420436019E+03  0.19574776377E+03  0.36636417952E+02  0.25433244151E+03  0.83754202091E+02 0.  0.
        -11    1    4    4    0    0 -0.12214099630E+03  0.18237324439E+03  0.69456138415E+01  0.21960570302E+03  0.51100000000E-03 0. -1.
         11    1    4    4    0    0 -0.12063363885E+02  0.13374519380E+02  0.29690804111E+02  0.34726738486E+02  0.51100000000E-03 0.  1.
    9000005    1    3    3    0    0  0.28588792298E+02 -0.26411175960E+02  0.10977648545E+03  0.11647637536E+03  0.10000000000E+01 0.  0.
    9000005    1    3    3    0    0  0.10561556789E+03 -0.16933658781E+03  0.95221104653E+02  0.22112798766E+03  0.10000000000E+01 0.  0.
<mgrwt>
<rscale>  0 0.26400051E+03</rscale>
<asrwt>0</asrwt>
<pdfrwt beam="1">  1        2 0.64120831E-01 0.26823999E+03</pdfrwt>
<pdfrwt beam="2">  1       -2 0.26946369E-01 0.26823999E+03</pdfrwt>
<totfact> 0.94991923E+02</totfact>
</mgrwt>
</event>
