<event>
 5    1  0.3289127E-002  0.1250012E+03  0.7818608E-02  0.1235067E+00
          4   -1    0    0  501    0  0.00000000000E+00  0.00000000000E+00  0.13650296801E+02  0.13709248804E+02  0.12700000000E+01 0. -1.
         -4   -1    0    0    0  501 -0.00000000000E+00 -0.00000000000E+00 -0.28549435393E+03  0.28549717867E+03  0.12700000000E+01 0. -1.
         25    2    1    2    0    0  0.00000000000E+00  0.00000000000E+00 -0.27184405713E+03  0.29920642747E+03  0.12500117936E+03 0.  0.
    9000005    1    3    3    0    0  0.25813516947E+00 -0.61149964272E+02 -0.10508795016E+03  0.12158890588E+03  0.10000000000E+01 0.  0.
    9000005    1    3    3    0    0 -0.25813516947E+00  0.61149964272E+02 -0.16675610697E+03  0.17761752159E+03  0.10000000000E+01 0.  0.
<mgrwt>
<rscale>  0 0.12500118E+03</rscale>
<asrwt>0</asrwt>
<pdfrwt beam="1">  1        4 0.21047979E-02 0.12500118E+03</pdfrwt>
<pdfrwt beam="2">  1       -4 0.43926956E-01 0.12500118E+03</pdfrwt>
<totfact> 0.75696511E+03</totfact>
</mgrwt>
</event>
<event>
 5    1  0.3289127E-002  0.1249995E+03  0.7818608E-02  0.1235070E+00
         -4   -1    0    0    0  501 -0.00000000000E+00  0.00000000000E+00  0.65626899349E+02  0.65639186605E+02  0.12700000000E+01 0.  1.
          4   -1    0    0  501    0  0.00000000000E+00 -0.00000000000E+00 -0.59496998924E+02  0.59510551846E+02  0.12700000000E+01 0.  1.
         25    2    1    2    0    0  0.00000000000E+00  0.00000000000E+00  0.61299004247E+01  0.12514973845E+03  0.12499952542E+03 0.  0.
    9000005    1    3    3    0    0  0.40803794424E+02 -0.28584838245E+02  0.40835312502E+02  0.64424881560E+02  0.10000000000E+01 0.  0.
    9000005    1    3    3    0    0 -0.40803794424E+02  0.28584838245E+02 -0.34705412078E+02  0.60724856890E+02  0.10000000000E+01 0.  0.
<mgrwt>
<rscale>  0 0.12499953E+03</rscale>
<asrwt>0</asrwt>
<pdfrwt beam="2">  1        4 0.91553722E-02 0.12499953E+03</pdfrwt>
<pdfrwt beam="1">  1       -4 0.10098434E-01 0.12499953E+03</pdfrwt>
<totfact> 0.10449723E+04</totfact>
</mgrwt>
</event>
<event>
 5    1  0.3289127E-002  0.1249970E+03  0.7818608E-02  0.1235074E+00
          4   -1    0    0  501    0  0.00000000000E+00  0.00000000000E+00  0.24982034117E+02  0.25014294486E+02  0.12700000000E+01 0.  1.
         -4   -1    0    0    0  501 -0.00000000000E+00 -0.00000000000E+00 -0.15621909858E+03  0.15622426080E+03  0.12700000000E+01 0.  1.
         25    2    1    2    0    0  0.00000000000E+00  0.00000000000E+00 -0.13123706446E+03  0.18123855528E+03  0.12499698729E+03 0.  0.
    9000005    1    3    3    0    0  0.57938746292E+02  0.29422729548E+01 -0.99296769543E+02  0.11500610303E+03  0.10000000000E+01 0.  0.
    9000005    1    3    3    0    0 -0.57938746292E+02 -0.29422729548E+01 -0.31940294920E+02  0.66232452254E+02  0.10000000000E+01 0.  0.
<mgrwt>
<rscale>  0 0.12499699E+03</rscale>
<asrwt>0</asrwt>
<pdfrwt beam="1">  1        4 0.38462686E-02 0.12499699E+03</pdfrwt>
<pdfrwt beam="2">  1       -4 0.24036585E-01 0.12499699E+03</pdfrwt>
<totfact> 0.93400842E+03</totfact>
</mgrwt>
</event>
<event>
 5    1  0.3289127E-002  0.1249995E+03  0.7818608E-02  0.1235070E+00
         -4   -1    0    0    0  501 -0.00000000000E+00  0.00000000000E+00  0.99699132590E+01  0.10050476128E+02  0.12700000000E+01 0. -1.
          4   -1    0    0  501    0  0.00000000000E+00 -0.00000000000E+00 -0.39014246024E+03  0.39014452730E+03  0.12700000000E+01 0. -1.
         25    2    1    2    0    0  0.00000000000E+00  0.00000000000E+00 -0.38017254698E+03  0.40019500343E+03  0.12499950116E+03 0.  0.
    9000005    1    3    3    0    0 -0.29356282937E+02 -0.10940375214E+02 -0.36320037056E+03  0.36455039752E+03  0.10000000000E+01 0.  0.
    9000005    1    3    3    0    0  0.29356282937E+02  0.10940375214E+02 -0.16972176419E+02  0.35644605905E+02  0.10000000000E+01 0.  0.
<mgrwt>
<rscale>  0 0.12499950E+03</rscale>
<asrwt>0</asrwt>
<pdfrwt beam="2">  1        4 0.60028261E-01 0.12499950E+03</pdfrwt>
<pdfrwt beam="1">  1       -4 0.15401893E-02 0.12499950E+03</pdfrwt>
<totfact> 0.64534544E+03</totfact>
</mgrwt>
</event>
<event>
 5    1  0.3289127E-002  0.1250043E+03  0.7818608E-02  0.1235063E+00
          4   -1    0    0  501    0  0.00000000000E+00  0.00000000000E+00  0.30550313550E+02  0.30576699593E+02  0.12700000000E+01 0.  1.
         -4   -1    0    0    0  501 -0.00000000000E+00 -0.00000000000E+00 -0.12778689531E+03  0.12779320605E+03  0.12700000000E+01 0.  1.
         25    2    1    2    0    0  0.00000000000E+00  0.00000000000E+00 -0.97236581757E+02  0.15836990564E+03  0.12500429665E+03 0.  0.
    9000005    1    3    3    0    0 -0.56201427044E+02 -0.13990089653E+02 -0.78362372390E+02  0.97447341764E+02  0.10000000000E+01 0.  0.
    9000005    1    3    3    0    0  0.56201427044E+02  0.13990089653E+02 -0.18874209367E+02  0.60922563878E+02  0.10000000000E+01 0.  0.
<mgrwt>
<rscale>  0 0.12500430E+03</rscale>
<asrwt>0</asrwt>
<pdfrwt beam="1">  1        4 0.47025634E-02 0.12500430E+03</pdfrwt>
<pdfrwt beam="2">  1       -4 0.19662037E-01 0.12500430E+03</pdfrwt>
<totfact> 0.97648545E+03</totfact>
</mgrwt>
</event>
<event>
 5    1  0.3289127E-002  0.1250001E+03  0.7818608E-02  0.1235069E+00
          4   -1    0    0  501    0  0.00000000000E+00  0.00000000000E+00  0.79564706871E+03  0.79564808228E+03  0.12700000000E+01 0. -1.
         -4   -1    0    0    0  501 -0.00000000000E+00 -0.00000000000E+00 -0.48263689208E+01  0.49906649817E+01  0.12700000000E+01 0. -1.
         25    2    1    2    0    0  0.00000000000E+00  0.00000000000E+00  0.79082069978E+03  0.80063874726E+03  0.12500009765E+03 0.  0.
    9000005    1    3    3    0    0 -0.48655203422E+02  0.35051333162E+02  0.50806216766E+03  0.51158976826E+03  0.10000000000E+01 0.  0.
    9000005    1    3    3    0    0  0.48655203422E+02 -0.35051333162E+02  0.28275853212E+03  0.28904897900E+03  0.10000000000E+01 0.  0.
<mgrwt>
<rscale>  0 0.12500010E+03</rscale>
<asrwt>0</asrwt>
<pdfrwt beam="1">  1        4 0.12242008E+00 0.12500010E+03</pdfrwt>
<pdfrwt beam="2">  1       -4 0.75523367E-03 0.12500010E+03</pdfrwt>
<totfact> 0.38236107E+03</totfact>
</mgrwt>
</event>
<event>
 5    1  0.3289127E-002  0.1249976E+03  0.7818608E-02  0.1235073E+00
          4   -1    0    0  501    0  0.00000000000E+00  0.00000000000E+00  0.74631249081E+01  0.75704117057E+01  0.12700000000E+01 0.  1.
         -4   -1    0    0    0  501 -0.00000000000E+00 -0.00000000000E+00 -0.51954330512E+03  0.51954485735E+03  0.12700000000E+01 0.  1.
         25    2    1    2    0    0  0.00000000000E+00  0.00000000000E+00 -0.51208018022E+03  0.52711526906E+03  0.12499758358E+03 0.  0.
    9000005    1    3    3    0    0 -0.15686218833E+02 -0.28234755369E+02 -0.48163363148E+03  0.48271649428E+03  0.10000000000E+01 0.  0.
    9000005    1    3    3    0    0  0.15686218833E+02  0.28234755369E+02 -0.30446548731E+02  0.44398774777E+02  0.10000000000E+01 0.  0.
<mgrwt>
<rscale>  0 0.12499758E+03</rscale>
<asrwt>0</asrwt>
<pdfrwt beam="1">  1        4 0.11565457E-02 0.12499758E+03</pdfrwt>
<pdfrwt beam="2">  1       -4 0.79938084E-01 0.12499758E+03</pdfrwt>
<totfact> 0.53823135E+03</totfact>
</mgrwt>
</event>
<event>
 5    1  0.3289127E-002  0.1250016E+03  0.7818608E-02  0.1235067E+00
         -4   -1    0    0    0  501 -0.00000000000E+00  0.00000000000E+00  0.10896414403E+03  0.10897154484E+03  0.12700000000E+01 0. -1.
          4   -1    0    0  501    0  0.00000000000E+00 -0.00000000000E+00 -0.35829973024E+02  0.35852473651E+02  0.12700000000E+01 0. -1.
         25    2    1    2    0    0  0.00000000000E+00  0.00000000000E+00  0.73134171009E+02  0.14482401849E+03  0.12500155744E+03 0.  0.
    9000005    1    3    3    0    0  0.20175262626E+02 -0.50582538849E+02  0.10511907758E+01  0.54476962658E+02  0.10000000000E+01 0.  0.
    9000005    1    3    3    0    0 -0.20175262626E+02  0.50582538849E+02  0.72082980233E+02  0.90347055833E+02  0.10000000000E+01 0.  0.
<mgrwt>
<rscale>  0 0.12500156E+03</rscale>
<asrwt>0</asrwt>
<pdfrwt beam="2">  1        4 0.55146036E-02 0.12500156E+03</pdfrwt>
<pdfrwt beam="1">  1       -4 0.16766015E-01 0.12500156E+03</pdfrwt>
<totfact> 0.10034213E+04</totfact>
</mgrwt>
</event>
<event>
 5    1  0.3289127E-002  0.1250035E+03  0.7818608E-02  0.1235064E+00
          4   -1    0    0  501    0  0.00000000000E+00  0.00000000000E+00  0.13156992922E+02  0.13218145208E+02  0.12700000000E+01 0.  1.
         -4   -1    0    0    0  501 -0.00000000000E+00 -0.00000000000E+00 -0.29616110212E+03  0.29616382512E+03  0.12700000000E+01 0.  1.
         25    2    1    2    0    0  0.00000000000E+00  0.00000000000E+00 -0.28300410919E+03  0.30938197032E+03  0.12500351091E+03 0.  0.
    9000005    1    3    3    0    0 -0.57608319389E+02  0.10094546552E+02 -0.87004503961E+02  0.10483988765E+03  0.10000000000E+01 0.  0.
    9000005    1    3    3    0    0  0.57608319389E+02 -0.10094546552E+02 -0.19599960523E+03  0.20454208267E+03  0.10000000000E+01 0.  0.
<mgrwt>
<rscale>  0 0.12500351E+03</rscale>
<asrwt>0</asrwt>
<pdfrwt beam="1">  1        4 0.20290665E-02 0.12500351E+03</pdfrwt>
<pdfrwt beam="2">  1       -4 0.45568155E-01 0.12500351E+03</pdfrwt>
<totfact> 0.74431057E+03</totfact>
</mgrwt>
</event>
<event>
 5    1  0.3289127E-002  0.1250090E+03  0.7818608E-02  0.1235055E+00
         -4   -1    0    0    0  501 -0.00000000000E+00  0.00000000000E+00  0.20103151628E+03  0.20103552780E+03  0.12700000000E+01 0.  1.
          4   -1    0    0  501    0  0.00000000000E+00 -0.00000000000E+00 -0.19408882923E+02  0.19450389105E+02  0.12700000000E+01 0.  1.
         25    2    1    2    0    0  0.00000000000E+00  0.00000000000E+00  0.18162263335E+03  0.22048591690E+03  0.12500903410E+03 0.  0.
    9000005    1    3    3    0    0 -0.51656393083E+02 -0.31601433573E+02  0.63556740628E+02  0.87792327851E+02  0.10000000000E+01 0.  0.
    9000005    1    3    3    0    0  0.51656393083E+02  0.31601433573E+02  0.11806589273E+03  0.13269358905E+03  0.10000000000E+01 0.  0.
<mgrwt>
<rscale>  0 0.12500903E+03</rscale>
<asrwt>0</asrwt>
<pdfrwt beam="2">  1        4 0.29894836E-02 0.12500903E+03</pdfrwt>
<pdfrwt beam="1">  1       -4 0.30931425E-01 0.12500903E+03</pdfrwt>
<totfact> 0.86774009E+03</totfact>
</mgrwt>
</event>
<event>
 5    1  0.3289127E-002  0.1250022E+03  0.7818608E-02  0.1235066E+00
          4   -1    0    0  501    0  0.00000000000E+00  0.00000000000E+00  0.12653418427E+02  0.12716992486E+02  0.12700000000E+01 0. -1.
         -4   -1    0    0    0  501 -0.00000000000E+00 -0.00000000000E+00 -0.30788334357E+03  0.30788596290E+03  0.12700000000E+01 0. -1.
         25    2    1    2    0    0  0.00000000000E+00  0.00000000000E+00 -0.29522992515E+03  0.32060295538E+03  0.12500218518E+03 0.  0.
    9000005    1    3    3    0    0 -0.27013756718E+02  0.43086948600E+02 -0.54461631969E+02  0.74520450538E+02  0.10000000000E+01 0.  0.
    9000005    1    3    3    0    0  0.27013756718E+02 -0.43086948600E+02 -0.24076829318E+03  0.24608250485E+03  0.10000000000E+01 0.  0.
<mgrwt>
<rscale>  0 0.12500219E+03</rscale>
<asrwt>0</asrwt>
<pdfrwt beam="1">  1        4 0.19517718E-02 0.12500219E+03</pdfrwt>
<pdfrwt beam="2">  1       -4 0.47371755E-01 0.12500219E+03</pdfrwt>
<totfact> 0.73080931E+03</totfact>
</mgrwt>
</event>
<event>
 5    1  0.3289127E-002  0.1249998E+03  0.7818608E-02  0.1235070E+00
          4   -1    0    0  501    0  0.00000000000E+00  0.00000000000E+00  0.21269868518E+03  0.21270247666E+03  0.12700000000E+01 0.  1.
         -4   -1    0    0    0  501 -0.00000000000E+00 -0.00000000000E+00 -0.18339211391E+02  0.18383132879E+02  0.12700000000E+01 0.  1.
         25    2    1    2    0    0  0.00000000000E+00  0.00000000000E+00  0.19435947379E+03  0.23108560954E+03  0.12499981554E+03 0.  0.
    9000005    1    3    3    0    0  0.61247812959E+02 -0.11342480362E+02  0.10647700322E+03  0.12336246863E+03  0.10000000000E+01 0.  0.
    9000005    1    3    3    0    0 -0.61247812959E+02  0.11342480362E+02  0.87882470572E+02  0.10772314091E+03  0.10000000000E+01 0.  0.
<mgrwt>
<rscale>  0 0.12499982E+03</rscale>
<asrwt>0</asrwt>
<pdfrwt beam="1">  1        4 0.32726548E-01 0.12499982E+03</pdfrwt>
<pdfrwt beam="2">  1       -4 0.28250871E-02 0.12499982E+03</pdfrwt>
<totfact> 0.85143526E+03</totfact>
</mgrwt>
</event>
<event>
 5    1  0.3289127E-002  0.1249993E+03  0.7818608E-02  0.1235070E+00
         -4   -1    0    0    0  501 -0.00000000000E+00  0.00000000000E+00  0.68772356959E+02  0.68784082328E+02  0.12700000000E+01 0.  1.
          4   -1    0    0  501    0  0.00000000000E+00 -0.00000000000E+00 -0.56775403828E+02  0.56789606266E+02  0.12700000000E+01 0.  1.
         25    2    1    2    0    0  0.00000000000E+00  0.00000000000E+00  0.11996953131E+02  0.12557368859E+03  0.12499929753E+03 0.  0.
    9000005    1    3    3    0    0  0.19879745967E+02 -0.21342955760E+02 -0.49522835977E+02  0.57482495975E+02  0.10000000000E+01 0.  0.
    9000005    1    3    3    0    0 -0.19879745967E+02  0.21342955760E+02  0.61519789108E+02  0.68091192618E+02  0.10000000000E+01 0.  0.
<mgrwt>
<rscale>  0 0.12499930E+03</rscale>
<asrwt>0</asrwt>
<pdfrwt beam="2">  1        4 0.87366719E-02 0.12499930E+03</pdfrwt>
<pdfrwt beam="1">  1       -4 0.10582357E-01 0.12499930E+03</pdfrwt>
<totfact> 0.10440493E+04</totfact>
</mgrwt>
</event>
<event>
 5    1  0.3289127E-002  0.1250102E+03  0.7818608E-02  0.1235053E+00
          4   -1    0    0  501    0  0.00000000000E+00  0.00000000000E+00  0.10166565928E+03  0.10167359134E+03  0.12700000000E+01 0. -1.
         -4   -1    0    0    0  501 -0.00000000000E+00 -0.00000000000E+00 -0.38408883621E+02  0.38429874330E+02  0.12700000000E+01 0. -1.
         25    2    1    2    0    0  0.00000000000E+00  0.00000000000E+00  0.63256775655E+02  0.14010346567E+03  0.12501024529E+03 0.  0.
    9000005    1    3    3    0    0  0.10489046246E+01 -0.23595872518E+02  0.96476541310E+02  0.99330702323E+02  0.10000000000E+01 0.  0.
    9000005    1    3    3    0    0 -0.10489046246E+01  0.23595872518E+02 -0.33219765655E+02  0.40772763347E+02  0.10000000000E+01 0.  0.
<mgrwt>
<rscale>  0 0.12501025E+03</rscale>
<asrwt>0</asrwt>
<pdfrwt beam="1">  1        4 0.15643096E-01 0.12501025E+03</pdfrwt>
<pdfrwt beam="2">  1       -4 0.59112838E-02 0.12501025E+03</pdfrwt>
<totfact> 0.10129104E+04</totfact>
</mgrwt>
</event>
<event>
 5    1  0.3289127E-002  0.1249984E+03  0.7818608E-02  0.1235072E+00
          4   -1    0    0  501    0  0.00000000000E+00  0.00000000000E+00  0.10008450360E+02  0.10088705497E+02  0.12700000000E+01 0. -1.
         -4   -1    0    0    0  501 -0.00000000000E+00 -0.00000000000E+00 -0.38864546037E+03  0.38864753539E+03  0.12700000000E+01 0. -1.
         25    2    1    2    0    0  0.00000000000E+00  0.00000000000E+00 -0.37863701001E+03  0.39873624089E+03  0.12499841778E+03 0.  0.
    9000005    1    3    3    0    0 -0.72106347215E+01  0.37890475006E+02 -0.34616026959E+03  0.34830390982E+03  0.10000000000E+01 0.  0.
    9000005    1    3    3    0    0  0.72106347215E+01 -0.37890475006E+02 -0.32476740419E+02  0.50432331073E+02  0.10000000000E+01 0.  0.
<mgrwt>
<rscale>  0 0.12499842E+03</rscale>
<asrwt>0</asrwt>
<pdfrwt beam="1">  1        4 0.15460950E-02 0.12499842E+03</pdfrwt>
<pdfrwt beam="2">  1       -4 0.59797931E-01 0.12499842E+03</pdfrwt>
<totfact> 0.64678151E+03</totfact>
</mgrwt>
</event>
<event>
 5    1  0.3289127E-002  0.1250070E+03  0.7818608E-02  0.1235058E+00
          4   -1    0    0  501    0  0.00000000000E+00  0.00000000000E+00  0.53461925364E+02  0.53477007803E+02  0.12700000000E+01 0. -1.
         -4   -1    0    0    0  501 -0.00000000000E+00 -0.00000000000E+00 -0.73043304681E+02  0.73054344558E+02  0.12700000000E+01 0. -1.
         25    2    1    2    0    0  0.00000000000E+00  0.00000000000E+00 -0.19581379318E+02  0.12653135236E+03  0.12500701066E+03 0.  0.
    9000005    1    3    3    0    0 -0.13071576239E+02 -0.45738912013E+02  0.31234697709E+02  0.56916785912E+02  0.10000000000E+01 0.  0.
    9000005    1    3    3    0    0  0.13071576239E+02  0.45738912013E+02 -0.50816077027E+02  0.69614566449E+02  0.10000000000E+01 0.  0.
<mgrwt>
<rscale>  0 0.12500701E+03</rscale>
<asrwt>0</asrwt>
<pdfrwt beam="1">  1        4 0.82269210E-02 0.12500701E+03</pdfrwt>
<pdfrwt beam="2">  1       -4 0.11239441E-01 0.12500701E+03</pdfrwt>
<totfact> 0.10417696E+04</totfact>
</mgrwt>
</event>
<event>
 5    1  0.3289127E-002  0.1249954E+03  0.7818608E-02  0.1235077E+00
         -4   -1    0    0    0  501 -0.00000000000E+00  0.00000000000E+00  0.56590421048E+02  0.56604669899E+02  0.12700000000E+01 0.  1.
          4   -1    0    0  501    0  0.00000000000E+00 -0.00000000000E+00 -0.68992801536E+02  0.69004489447E+02  0.12700000000E+01 0.  1.
         25    2    1    2    0    0  0.00000000000E+00  0.00000000000E+00 -0.12402380488E+02  0.12560915935E+03  0.12499536739E+03 0.  0.
    9000005    1    3    3    0    0 -0.10678633452E+02  0.47768786518E+02  0.32836321339E+02  0.58950099041E+02  0.10000000000E+01 0.  0.
    9000005    1    3    3    0    0  0.10678633452E+02 -0.47768786518E+02 -0.45238701827E+02  0.66659060305E+02  0.10000000000E+01 0.  0.
<mgrwt>
<rscale>  0 0.12499537E+03</rscale>
<asrwt>0</asrwt>
<pdfrwt beam="2">  1        4 0.10616272E-01 0.12499537E+03</pdfrwt>
<pdfrwt beam="1">  1       -4 0.87082137E-02 0.12499537E+03</pdfrwt>
<totfact> 0.10440636E+04</totfact>
</mgrwt>
</event>
<event>
 5    1  0.3289127E-002  0.1250018E+03  0.7818608E-02  0.1235067E+00
         -4   -1    0    0    0  501 -0.00000000000E+00  0.00000000000E+00  0.16109363654E+03  0.16109864256E+03  0.12700000000E+01 0. -1.
          4   -1    0    0  501    0  0.00000000000E+00 -0.00000000000E+00 -0.24226993269E+02  0.24260257683E+02  0.12700000000E+01 0. -1.
         25    2    1    2    0    0  0.00000000000E+00  0.00000000000E+00  0.13686664327E+03  0.18535890024E+03  0.12500177542E+03 0.  0.
    9000005    1    3    3    0    0  0.36050546046E+01 -0.44748185011E+02  0.39683072103E+01  0.45079307255E+02  0.10000000000E+01 0.  0.
    9000005    1    3    3    0    0 -0.36050546046E+01  0.44748185011E+02  0.13289833606E+03  0.14027959299E+03  0.10000000000E+01 0.  0.
<mgrwt>
<rscale>  0 0.12500178E+03</rscale>
<asrwt>0</asrwt>
<pdfrwt beam="2">  1        4 0.37301736E-02 0.12500178E+03</pdfrwt>
<pdfrwt beam="1">  1       -4 0.24786580E-01 0.12500178E+03</pdfrwt>
<totfact> 0.92657494E+03</totfact>
</mgrwt>
</event>
<event>
 5    1  0.3289127E-002  0.1249985E+03  0.7818608E-02  0.1235072E+00
          4   -1    0    0  501    0  0.00000000000E+00  0.00000000000E+00  0.59940611413E+02  0.59954064054E+02  0.12700000000E+01 0. -1.
         -4   -1    0    0    0  501 -0.00000000000E+00 -0.00000000000E+00 -0.65140178976E+02  0.65152558024E+02  0.12700000000E+01 0. -1.
         25    2    1    2    0    0  0.00000000000E+00  0.00000000000E+00 -0.51995675625E+01  0.12510662208E+03  0.12499852553E+03 0.  0.
    9000005    1    3    3    0    0 -0.54295549058E+02  0.15908093921E+02 -0.29157306854E+02  0.63657070642E+02  0.10000000000E+01 0.  0.
    9000005    1    3    3    0    0  0.54295549058E+02 -0.15908093921E+02  0.23957739291E+02  0.61449551436E+02  0.10000000000E+01 0.  0.
<mgrwt>
<rscale>  0 0.12499853E+03</rscale>
<asrwt>0</asrwt>
<pdfrwt beam="1">  1        4 0.92236196E-02 0.12499853E+03</pdfrwt>
<pdfrwt beam="2">  1       -4 0.10023553E-01 0.12499853E+03</pdfrwt>
<totfact> 0.10450895E+04</totfact>
</mgrwt>
</event>
<event>
 5    1  0.3289127E-002  0.1249992E+03  0.7818608E-02  0.1235070E+00
         -4   -1    0    0    0  501 -0.00000000000E+00  0.00000000000E+00  0.19715125562E+02  0.19755988356E+02  0.12700000000E+01 0.  1.
          4   -1    0    0  501    0  0.00000000000E+00 -0.00000000000E+00 -0.19788424884E+03  0.19788832416E+03  0.12700000000E+01 0.  1.
         25    2    1    2    0    0  0.00000000000E+00  0.00000000000E+00 -0.17816912327E+03  0.21764431251E+03  0.12499924112E+03 0.  0.
    9000005    1    3    3    0    0 -0.37234503645E+02  0.15434772362E+02 -0.59348210580E+01  0.40753681558E+02  0.10000000000E+01 0.  0.
    9000005    1    3    3    0    0  0.37234503645E+02 -0.15434772362E+02 -0.17223430222E+03  0.17689063095E+03  0.10000000000E+01 0.  0.
<mgrwt>
<rscale>  0 0.12499924E+03</rscale>
<asrwt>0</asrwt>
<pdfrwt beam="2">  1        4 0.30447186E-01 0.12499924E+03</pdfrwt>
<pdfrwt beam="1">  1       -4 0.30365532E-02 0.12499924E+03</pdfrwt>
<totfact> 0.87243964E+03</totfact>
</mgrwt>
</event>
<event>
 5    1  0.3289127E-002  0.1250000E+03  0.7818608E-02  0.1235069E+00
         -4   -1    0    0    0  501 -0.00000000000E+00  0.00000000000E+00  0.25406472094E+02  0.25438194202E+02  0.12700000000E+01 0. -1.
          4   -1    0    0  501    0  0.00000000000E+00 -0.00000000000E+00 -0.15362000283E+03  0.15362525238E+03  0.12700000000E+01 0. -1.
         25    2    1    2    0    0  0.00000000000E+00  0.00000000000E+00 -0.12821353074E+03  0.17906344658E+03  0.12500003375E+03 0.  0.
    9000005    1    3    3    0    0  0.12440596370E+02 -0.19059507992E+02 -0.14747842301E+03  0.14922774051E+03  0.10000000000E+01 0.  0.
    9000005    1    3    3    0    0 -0.12440596370E+02  0.19059507992E+02  0.19264892273E+02  0.29835706079E+02  0.10000000000E+01 0.  0.
<mgrwt>
<rscale>  0 0.12500003E+03</rscale>
<asrwt>0</asrwt>
<pdfrwt beam="2">  1        4 0.23636690E-01 0.12500003E+03</pdfrwt>
<pdfrwt beam="1">  1       -4 0.39115321E-02 0.12500003E+03</pdfrwt>
<totfact> 0.93785787E+03</totfact>
</mgrwt>
</event>
<event>
 5    1  0.3289127E-002  0.1250024E+03  0.7818608E-02  0.1235066E+00
          4   -1    0    0  501    0  0.00000000000E+00  0.00000000000E+00  0.40027773311E+02  0.40047915504E+02  0.12700000000E+01 0.  1.
         -4   -1    0    0    0  501 -0.00000000000E+00 -0.00000000000E+00 -0.97543434975E+02  0.97551702223E+02  0.12700000000E+01 0.  1.
         25    2    1    2    0    0  0.00000000000E+00  0.00000000000E+00 -0.57515661663E+02  0.13759961773E+03  0.12500241383E+03 0.  0.
    9000005    1    3    3    0    0 -0.47774744270E+02 -0.16420888262E+02  0.11737088558E+02  0.51873220540E+02  0.10000000000E+01 0.  0.
    9000005    1    3    3    0    0  0.47774744270E+02  0.16420888262E+02 -0.69252750222E+02  0.85726397187E+02  0.10000000000E+01 0.  0.
<mgrwt>
<rscale>  0 0.12500241E+03</rscale>
<asrwt>0</asrwt>
<pdfrwt beam="1">  1        4 0.61603043E-02 0.12500241E+03</pdfrwt>
<pdfrwt beam="2">  1       -4 0.15008868E-01 0.12500241E+03</pdfrwt>
<totfact> 0.10183009E+04</totfact>
</mgrwt>
</event>
<event>
 5    1  0.3289127E-002  0.1250018E+03  0.7818608E-02  0.1235066E+00
          4   -1    0    0  501    0  0.00000000000E+00  0.00000000000E+00  0.51568251701E+03  0.51568408086E+03  0.12700000000E+01 0. -1.
         -4   -1    0    0    0  501 -0.00000000000E+00 -0.00000000000E+00 -0.75203179449E+01  0.76268002460E+01  0.12700000000E+01 0. -1.
         25    2    1    2    0    0  0.00000000000E+00  0.00000000000E+00  0.50816219906E+03  0.52331088110E+03  0.12500183088E+03 0.  0.
    9000005    1    3    3    0    0  0.27653046338E+02  0.44812384951E+02  0.11319536389E+03  0.12484803252E+03  0.10000000000E+01 0.  0.
    9000005    1    3    3    0    0 -0.27653046338E+02 -0.44812384951E+02  0.39496683517E+03  0.39846284859E+03  0.10000000000E+01 0.  0.
<mgrwt>
<rscale>  0 0.12500183E+03</rscale>
<asrwt>0</asrwt>
<pdfrwt beam="1">  1        4 0.79344096E-01 0.12500183E+03</pdfrwt>
<pdfrwt beam="2">  1       -4 0.11652830E-02 0.12500183E+03</pdfrwt>
<totfact> 0.54097844E+03</totfact>
</mgrwt>
</event>
<event>
 5    1  0.3289127E-002  0.1249996E+03  0.7818608E-02  0.1235070E+00
          4   -1    0    0  501    0  0.00000000000E+00  0.00000000000E+00  0.67634603982E+03  0.67634723218E+03  0.12700000000E+01 0. -1.
         -4   -1    0    0    0  501 -0.00000000000E+00 -0.00000000000E+00 -0.57044573805E+01  0.58441196091E+01  0.12700000000E+01 0. -1.
         25    2    1    2    0    0  0.00000000000E+00  0.00000000000E+00  0.67064158244E+03  0.68219135179E+03  0.12499963345E+03 0.  0.
    9000005    1    3    3    0    0  0.14765363687E+02  0.35690350537E+02  0.67210783989E+02  0.77524877109E+02  0.10000000000E+01 0.  0.
    9000005    1    3    3    0    0 -0.14765363687E+02 -0.35690350537E+02  0.60343079845E+03  0.60466647469E+03  0.10000000000E+01 0.  0.
<mgrwt>
<rscale>  0 0.12499963E+03</rscale>
<asrwt>0</asrwt>
<pdfrwt beam="1">  1        4 0.10406408E+00 0.12499963E+03</pdfrwt>
<pdfrwt beam="2">  1       -4 0.88844374E-03 0.12499963E+03</pdfrwt>
<totfact> 0.44043963E+03</totfact>
</mgrwt>
</event>
<event>
 5    1  0.3289127E-002  0.1249990E+03  0.7818608E-02  0.1235071E+00
         -4   -1    0    0    0  501 -0.00000000000E+00  0.00000000000E+00  0.23024370814E+02  0.23059370143E+02  0.12700000000E+01 0.  1.
          4   -1    0    0  501    0  0.00000000000E+00 -0.00000000000E+00 -0.16948834021E+03  0.16949309829E+03  0.12700000000E+01 0.  1.
         25    2    1    2    0    0  0.00000000000E+00  0.00000000000E+00 -0.14646396940E+03  0.19255246843E+03  0.12499903507E+03 0.  0.
    9000005    1    3    3    0    0  0.50296660045E+02 -0.29395370619E+02 -0.38398200735E+02  0.69780109238E+02  0.10000000000E+01 0.  0.
    9000005    1    3    3    0    0 -0.50296660045E+02  0.29395370619E+02 -0.10806576866E+03  0.12277235919E+03  0.10000000000E+01 0.  0.
<mgrwt>
<rscale>  0 0.12499904E+03</rscale>
<asrwt>0</asrwt>
<pdfrwt beam="2">  1        4 0.26078187E-01 0.12499904E+03</pdfrwt>
<pdfrwt beam="1">  1       -4 0.35452693E-02 0.12499904E+03</pdfrwt>
<totfact> 0.91407056E+03</totfact>
</mgrwt>
</event>
<event>
 5    1  0.3289127E-002  0.1250078E+03  0.7818608E-02  0.1235057E+00
          4   -1    0    0  501    0  0.00000000000E+00  0.00000000000E+00  0.32648768759E+02  0.32673460200E+02  0.12700000000E+01 0.  1.
         -4   -1    0    0    0  501 -0.00000000000E+00 -0.00000000000E+00 -0.11958624050E+03  0.11959298398E+03  0.12700000000E+01 0.  1.
         25    2    1    2    0    0  0.00000000000E+00  0.00000000000E+00 -0.86937471745E+02  0.15226644418E+03  0.12500778388E+03 0.  0.
    9000005    1    3    3    0    0 -0.43592878306E+02 -0.15255349973E+02 -0.94752667627E+02  0.10541410135E+03  0.10000000000E+01 0.  0.
    9000005    1    3    3    0    0  0.43592878306E+02  0.15255349973E+02  0.78151958822E+01  0.46852342828E+02  0.10000000000E+01 0.  0.
<mgrwt>
<rscale>  0 0.12500778E+03</rscale>
<asrwt>0</asrwt>
<pdfrwt beam="1">  1        4 0.50253056E-02 0.12500778E+03</pdfrwt>
<pdfrwt beam="2">  1       -4 0.18400301E-01 0.12500778E+03</pdfrwt>
<totfact> 0.98836509E+03</totfact>
</mgrwt>
</event>
<event>
 5    1  0.3289127E-002  0.1249956E+03  0.7818608E-02  0.1235076E+00
         -4   -1    0    0    0  501 -0.00000000000E+00  0.00000000000E+00  0.49568580994E+02  0.49584847704E+02  0.12700000000E+01 0. -1.
          4   -1    0    0  501    0  0.00000000000E+00 -0.00000000000E+00 -0.78765109996E+02  0.78775348001E+02  0.12700000000E+01 0. -1.
         25    2    1    2    0    0  0.00000000000E+00  0.00000000000E+00 -0.29196529001E+02  0.12836019570E+03  0.12499561007E+03 0.  0.
    9000005    1    3    3    0    0 -0.49426685930E+02 -0.36386216131E+02 -0.25337685462E+01  0.61435934024E+02  0.10000000000E+01 0.  0.
    9000005    1    3    3    0    0  0.49426685930E+02  0.36386216131E+02 -0.26662760455E+02  0.66924261680E+02  0.10000000000E+01 0.  0.
<mgrwt>
<rscale>  0 0.12499561E+03</rscale>
<asrwt>0</asrwt>
<pdfrwt beam="2">  1        4 0.12119748E-01 0.12499561E+03</pdfrwt>
<pdfrwt beam="1">  1       -4 0.76279743E-02 0.12499561E+03</pdfrwt>
<totfact> 0.10380745E+04</totfact>
</mgrwt>
</event>
<event>
 5    1  0.3289127E-002  0.1249968E+03  0.7818608E-02  0.1235074E+00
          4   -1    0    0  501    0  0.00000000000E+00  0.00000000000E+00  0.13676459891E+03  0.13677049541E+03  0.12700000000E+01 0.  1.
         -4   -1    0    0    0  501 -0.00000000000E+00 -0.00000000000E+00 -0.28539744083E+02  0.28567987194E+02  0.12700000000E+01 0.  1.
         25    2    1    2    0    0  0.00000000000E+00  0.00000000000E+00  0.10822485483E+03  0.16533848261E+03  0.12499677847E+03 0.  0.
    9000005    1    3    3    0    0  0.74739045237E+01 -0.25258387667E+02  0.12906888013E+03  0.13173314394E+03  0.10000000000E+01 0.  0.
    9000005    1    3    3    0    0 -0.74739045237E+01  0.25258387667E+02 -0.20844025295E+02  0.33605338666E+02  0.10000000000E+01 0.  0.
<mgrwt>
<rscale>  0 0.12499678E+03</rscale>
<asrwt>0</asrwt>
<pdfrwt beam="1">  1        4 0.21043333E-01 0.12499678E+03</pdfrwt>
<pdfrwt beam="2">  1       -4 0.43933561E-02 0.12499678E+03</pdfrwt>
<totfact> 0.96330299E+03</totfact>
</mgrwt>
</event>
<event>
 5    1  0.3289127E-002  0.1249984E+03  0.7818608E-02  0.1235072E+00
         -4   -1    0    0    0  501 -0.00000000000E+00  0.00000000000E+00  0.14202551313E+03  0.14203119122E+03  0.12700000000E+01 0.  1.
          4   -1    0    0  501    0  0.00000000000E+00 -0.00000000000E+00 -0.27482249484E+02  0.27511578229E+02  0.12700000000E+01 0.  1.
         25    2    1    2    0    0  0.00000000000E+00  0.00000000000E+00  0.11454326364E+03  0.16954276945E+03  0.12499836569E+03 0.  0.
    9000005    1    3    3    0    0 -0.88056842249E+01  0.59943401016E+02  0.36505746128E+02  0.70741931698E+02  0.10000000000E+01 0.  0.
    9000005    1    3    3    0    0  0.88056842249E+01 -0.59943401016E+02  0.78037517517E+02  0.98800837751E+02  0.10000000000E+01 0.  0.
<mgrwt>
<rscale>  0 0.12499837E+03</rscale>
<asrwt>0</asrwt>
<pdfrwt beam="2">  1        4 0.42307312E-02 0.12499837E+03</pdfrwt>
<pdfrwt beam="1">  1       -4 0.21852772E-01 0.12499837E+03</pdfrwt>
<totfact> 0.95537419E+03</totfact>
</mgrwt>
</event>
<event>
 5    1  0.3289127E-002  0.1250006E+03  0.7818608E-02  0.1235068E+00
         -4   -1    0    0    0  501 -0.00000000000E+00  0.00000000000E+00  0.53068013943E+03  0.53068165908E+03  0.12700000000E+01 0. -1.
          4   -1    0    0  501    0  0.00000000000E+00 -0.00000000000E+00 -0.73045841694E+01  0.74141654883E+01  0.12700000000E+01 0. -1.
         25    2    1    2    0    0  0.00000000000E+00  0.00000000000E+00  0.52337555526E+03  0.53809582457E+03  0.12500057830E+03 0.  0.
    9000005    1    3    3    0    0  0.45374720557E+02 -0.42609135288E+02  0.28561011445E+03  0.29231582433E+03  0.10000000000E+01 0.  0.
    9000005    1    3    3    0    0 -0.45374720557E+02  0.42609135288E+02  0.23776544081E+03  0.24578000024E+03  0.10000000000E+01 0.  0.
<mgrwt>
<rscale>  0 0.12500058E+03</rscale>
<asrwt>0</asrwt>
<pdfrwt beam="2">  1        4 0.11323286E-02 0.12500058E+03</pdfrwt>
<pdfrwt beam="1">  1       -4 0.81651629E-01 0.12500058E+03</pdfrwt>
<totfact> 0.53024517E+03</totfact>
</mgrwt>
</event>
<event>
 5    1  0.3289127E-002  0.1249880E+03  0.7818608E-02  0.1235088E+00
          4   -1    0    0  501    0  0.00000000000E+00  0.00000000000E+00  0.19729999610E+02  0.19770831662E+02  0.12700000000E+01 0. -1.
         -4   -1    0    0    0  501 -0.00000000000E+00 -0.00000000000E+00 -0.19769993654E+03  0.19770401566E+03  0.12700000000E+01 0. -1.
         25    2    1    2    0    0  0.00000000000E+00  0.00000000000E+00 -0.17796993693E+03  0.21747484732E+03  0.12498804249E+03 0.  0.
    9000005    1    3    3    0    0  0.37485154360E+02 -0.30353528923E+02 -0.19865867196E+02  0.52173999223E+02  0.10000000000E+01 0.  0.
    9000005    1    3    3    0    0 -0.37485154360E+02  0.30353528923E+02 -0.15810406974E+03  0.16530084810E+03  0.10000000000E+01 0.  0.
<mgrwt>
<rscale>  0 0.12498804E+03</rscale>
<asrwt>0</asrwt>
<pdfrwt beam="1">  1        4 0.30388394E-02 0.12498804E+03</pdfrwt>
<pdfrwt beam="2">  1       -4 0.30418828E-01 0.12498804E+03</pdfrwt>
<totfact> 0.87292824E+03</totfact>
</mgrwt>
</event>
<event>
 5    1  0.3289127E-002  0.1249999E+03  0.7818608E-02  0.1235070E+00
          4   -1    0    0  501    0  0.00000000000E+00  0.00000000000E+00  0.82037523420E+02  0.82047353089E+02  0.12700000000E+01 0.  1.
         -4   -1    0    0    0  501 -0.00000000000E+00 -0.00000000000E+00 -0.47594142427E+02  0.47611083724E+02  0.12700000000E+01 0.  1.
         25    2    1    2    0    0  0.00000000000E+00  0.00000000000E+00  0.34443380993E+02  0.12965843681E+03  0.12499985497E+03 0.  0.
    9000005    1    3    3    0    0 -0.29528266785E+02 -0.51376051754E+02 -0.33628983853E+01  0.59360983135E+02  0.10000000000E+01 0.  0.
    9000005    1    3    3    0    0  0.29528266785E+02  0.51376051754E+02  0.37806279378E+02  0.70297453678E+02  0.10000000000E+01 0.  0.
<mgrwt>
<rscale>  0 0.12499985E+03</rscale>
<asrwt>0</asrwt>
<pdfrwt beam="1">  1        4 0.12623217E-01 0.12499985E+03</pdfrwt>
<pdfrwt beam="2">  1       -4 0.73242351E-02 0.12499985E+03</pdfrwt>
<totfact> 0.10351853E+04</totfact>
</mgrwt>
</event>
<event>
 5    1  0.3289127E-002  0.1250022E+03  0.7818608E-02  0.1235066E+00
         -4   -1    0    0    0  501 -0.00000000000E+00  0.00000000000E+00  0.14534143511E+03  0.14534698366E+03  0.12700000000E+01 0. -1.
          4   -1    0    0  501    0  0.00000000000E+00 -0.00000000000E+00 -0.26856227320E+02  0.26886238969E+02  0.12700000000E+01 0. -1.
         25    2    1    2    0    0  0.00000000000E+00  0.00000000000E+00  0.11848520779E+03  0.17223322263E+03  0.12500215403E+03 0.  0.
    9000005    1    3    3    0    0  0.46212035490E+01  0.44522035672E+02  0.11933006366E+03  0.12745285903E+03  0.10000000000E+01 0.  0.
    9000005    1    3    3    0    0 -0.46212035490E+01 -0.44522035672E+02 -0.84485586933E+00  0.44780363599E+02  0.10000000000E+01 0.  0.
<mgrwt>
<rscale>  0 0.12500215E+03</rscale>
<asrwt>0</asrwt>
<pdfrwt beam="2">  1        4 0.41344626E-02 0.12500215E+03</pdfrwt>
<pdfrwt beam="1">  1       -4 0.22362957E-01 0.12500215E+03</pdfrwt>
<totfact> 0.95029432E+03</totfact>
</mgrwt>
</event>
<event>
 5    1  0.3289127E-002  0.1250007E+03  0.7818608E-02  0.1235068E+00
         -4   -1    0    0    0  501 -0.00000000000E+00  0.00000000000E+00  0.11902419177E+04  0.11902425952E+04  0.12700000000E+01 0. -1.
          4   -1    0    0  501    0  0.00000000000E+00 -0.00000000000E+00 -0.31583687848E+01  0.34041435606E+01  0.12700000000E+01 0. -1.
         25    2    1    2    0    0  0.00000000000E+00  0.00000000000E+00  0.11870835489E+04  0.11936467388E+04  0.12500073988E+03 0.  0.
    9000005    1    3    3    0    0  0.58965583213E+02  0.11322167502E+02  0.75898275128E+03  0.76135467965E+03  0.10000000000E+01 0.  0.
    9000005    1    3    3    0    0 -0.58965583213E+02 -0.11322167502E+02  0.42810079763E+03  0.43229205916E+03  0.10000000000E+01 0.  0.
<mgrwt>
<rscale>  0 0.12500074E+03</rscale>
<asrwt>0</asrwt>
<pdfrwt beam="2">  1        4 0.50486002E-03 0.12500074E+03</pdfrwt>
<pdfrwt beam="1">  1       -4 0.18313337E+00 0.12500074E+03</pdfrwt>
<totfact> 0.24879203E+03</totfact>
</mgrwt>
</event>
<event>
 5    1  0.3289127E-002  0.1249965E+03  0.7818608E-02  0.1235075E+00
          4   -1    0    0  501    0  0.00000000000E+00  0.00000000000E+00  0.39759547604E+02  0.39779825611E+02  0.12700000000E+01 0. -1.
         -4   -1    0    0    0  501 -0.00000000000E+00 -0.00000000000E+00 -0.98191894052E+02  0.98200106709E+02  0.12700000000E+01 0. -1.
         25    2    1    2    0    0  0.00000000000E+00  0.00000000000E+00 -0.58432346448E+02  0.13797993232E+03  0.12499649040E+03 0.  0.
    9000005    1    3    3    0    0 -0.21694356635E+02  0.29579788883E+02 -0.85061781611E+02  0.92639709148E+02  0.10000000000E+01 0.  0.
    9000005    1    3    3    0    0  0.21694356635E+02 -0.29579788883E+02  0.26629435163E+02  0.45340223172E+02  0.10000000000E+01 0.  0.
<mgrwt>
<rscale>  0 0.12499649E+03</rscale>
<asrwt>0</asrwt>
<pdfrwt beam="1">  1        4 0.61190451E-02 0.12499649E+03</pdfrwt>
<pdfrwt beam="2">  1       -4 0.15108637E-01 0.12499649E+03</pdfrwt>
<totfact> 0.10176430E+04</totfact>
</mgrwt>
</event>
<event>
 5    1  0.3289127E-002  0.1249986E+03  0.7818608E-02  0.1235072E+00
         -4   -1    0    0    0  501 -0.00000000000E+00  0.00000000000E+00  0.12717426152E+02  0.12780681826E+02  0.12700000000E+01 0.  1.
          4   -1    0    0  501    0  0.00000000000E+00 -0.00000000000E+00 -0.30632364692E+03  0.30632627958E+03  0.12700000000E+01 0.  1.
         25    2    1    2    0    0  0.00000000000E+00  0.00000000000E+00 -0.29360622077E+03  0.31910696141E+03  0.12499855977E+03 0.  0.
    9000005    1    3    3    0    0  0.47670755026E+02 -0.31555885494E+02 -0.82377009963E+02  0.10027585235E+03  0.10000000000E+01 0.  0.
    9000005    1    3    3    0    0 -0.47670755026E+02  0.31555885494E+02 -0.21122921081E+03  0.21883110906E+03  0.10000000000E+01 0.  0.
<mgrwt>
<rscale>  0 0.12499856E+03</rscale>
<asrwt>0</asrwt>
<pdfrwt beam="2">  1        4 0.47131778E-01 0.12499856E+03</pdfrwt>
<pdfrwt beam="1">  1       -4 0.19615957E-02 0.12499856E+03</pdfrwt>
<totfact> 0.73264808E+03</totfact>
</mgrwt>
</event>
<event>
 5    1  0.3289127E-002  0.1249991E+03  0.7818608E-02  0.1235071E+00
          4   -1    0    0  501    0  0.00000000000E+00  0.00000000000E+00  0.21355945540E+02  0.21393674530E+02  0.12700000000E+01 0. -1.
         -4   -1    0    0    0  501 -0.00000000000E+00 -0.00000000000E+00 -0.18270752440E+03  0.18271193823E+03  0.12700000000E+01 0. -1.
         25    2    1    2    0    0  0.00000000000E+00  0.00000000000E+00 -0.16135157886E+03  0.20410561276E+03  0.12499907664E+03 0.  0.
    9000005    1    3    3    0    0  0.43714696916E+02  0.35413710895E+02 -0.36254677416E+02  0.66936591490E+02  0.10000000000E+01 0.  0.
    9000005    1    3    3    0    0 -0.43714696916E+02 -0.35413710895E+02 -0.12509690144E+03  0.13716902127E+03  0.10000000000E+01 0.  0.
<mgrwt>
<rscale>  0 0.12499908E+03</rscale>
<asrwt>0</asrwt>
<pdfrwt beam="1">  1        4 0.32887720E-02 0.12499908E+03</pdfrwt>
<pdfrwt beam="2">  1       -4 0.28112091E-01 0.12499908E+03</pdfrwt>
<totfact> 0.89449499E+03</totfact>
</mgrwt>
</event>
<event>
 5    1  0.3289127E-002  0.1250088E+03  0.7818608E-02  0.1235056E+00
         -4   -1    0    0    0  501 -0.00000000000E+00  0.00000000000E+00  0.25629661418E+03  0.25629976071E+03  0.12700000000E+01 0. -1.
          4   -1    0    0  501    0  0.00000000000E+00 -0.00000000000E+00 -0.15213576168E+02  0.15266492715E+02  0.12700000000E+01 0. -1.
         25    2    1    2    0    0  0.00000000000E+00  0.00000000000E+00  0.24108303801E+03  0.27156625342E+03  0.12500879482E+03 0.  0.
    9000005    1    3    3    0    0  0.33288708306E+02  0.45355575598E+02  0.17965785998E+03  0.18826367943E+03  0.10000000000E+01 0.  0.
    9000005    1    3    3    0    0 -0.33288708306E+02 -0.45355575598E+02  0.61425178029E+02  0.83302573996E+02  0.10000000000E+01 0.  0.
<mgrwt>
<rscale>  0 0.12500879E+03</rscale>
<asrwt>0</asrwt>
<pdfrwt beam="2">  1        4 0.23448630E-02 0.12500879E+03</pdfrwt>
<pdfrwt beam="1">  1       -4 0.39434557E-01 0.12500879E+03</pdfrwt>
<totfact> 0.79294301E+03</totfact>
</mgrwt>
</event>
<event>
 5    1  0.3289127E-002  0.1250024E+03  0.7818608E-02  0.1235065E+00
          4   -1    0    0  501    0  0.00000000000E+00  0.00000000000E+00  0.27144327722E+02  0.27174021188E+02  0.12700000000E+01 0.  1.
         -4   -1    0    0    0  501 -0.00000000000E+00 -0.00000000000E+00 -0.14380113022E+03  0.14380673821E+03  0.12700000000E+01 0.  1.
         25    2    1    2    0    0  0.00000000000E+00  0.00000000000E+00 -0.11665680250E+03  0.17098075939E+03  0.12500244203E+03 0.  0.
    9000005    1    3    3    0    0  0.31643098432E+02  0.19961180760E+02  0.10140053417E+02  0.38775702431E+02  0.10000000000E+01 0.  0.
    9000005    1    3    3    0    0 -0.31643098432E+02 -0.19961180760E+02 -0.12679685592E+03  0.13220505696E+03  0.10000000000E+01 0.  0.
<mgrwt>
<rscale>  0 0.12500244E+03</rscale>
<asrwt>0</asrwt>
<pdfrwt beam="1">  1        4 0.41787660E-02 0.12500244E+03</pdfrwt>
<pdfrwt beam="2">  1       -4 0.22125966E-01 0.12500244E+03</pdfrwt>
<totfact> 0.95260931E+03</totfact>
</mgrwt>
</event>
<event>
 5    1  0.3289127E-002  0.1249972E+03  0.7818608E-02  0.1235074E+00
          4   -1    0    0  501    0  0.00000000000E+00  0.00000000000E+00  0.43112214548E+02  0.43130916328E+02  0.12700000000E+01 0.  1.
         -4   -1    0    0    0  501 -0.00000000000E+00 -0.00000000000E+00 -0.90559711861E+02  0.90568616597E+02  0.12700000000E+01 0.  1.
         25    2    1    2    0    0  0.00000000000E+00  0.00000000000E+00 -0.47447497312E+02  0.13369953292E+03  0.12499720038E+03 0.  0.
    9000005    1    3    3    0    0  0.76595802281E+01  0.61408513683E+02 -0.33011619160E+02  0.70145860331E+02  0.10000000000E+01 0.  0.
    9000005    1    3    3    0    0 -0.76595802281E+01 -0.61408513683E+02 -0.14435878152E+02  0.63553672593E+02  0.10000000000E+01 0.  0.
<mgrwt>
<rscale>  0 0.12499720E+03</rscale>
<asrwt>0</asrwt>
<pdfrwt beam="1">  1        4 0.66347720E-02 0.12499720E+03</pdfrwt>
<pdfrwt beam="2">  1       -4 0.13934387E-01 0.12499720E+03</pdfrwt>
<totfact> 0.10266203E+04</totfact>
</mgrwt>
</event>
<event>
 5    1  0.3289127E-002  0.1249997E+03  0.7818608E-02  0.1235070E+00
         -4   -1    0    0    0  501 -0.00000000000E+00  0.00000000000E+00  0.44604376343E+02  0.44622452744E+02  0.12700000000E+01 0. -1.
          4   -1    0    0  501    0  0.00000000000E+00 -0.00000000000E+00 -0.87534687631E+02  0.87543900065E+02  0.12700000000E+01 0. -1.
         25    2    1    2    0    0  0.00000000000E+00  0.00000000000E+00 -0.42930311288E+02  0.13216635281E+03  0.12499973275E+03 0.  0.
    9000005    1    3    3    0    0 -0.45663301032E+02  0.42242140382E+02 -0.15147839390E+02  0.64031183991E+02  0.10000000000E+01 0.  0.
    9000005    1    3    3    0    0  0.45663301032E+02 -0.42242140382E+02 -0.27782471898E+02  0.68135168818E+02  0.10000000000E+01 0.  0.
<mgrwt>
<rscale>  0 0.12499973E+03</rscale>
<asrwt>0</asrwt>
<pdfrwt beam="2">  1        4 0.13468974E-01 0.12499973E+03</pdfrwt>
<pdfrwt beam="1">  1       -4 0.68643109E-02 0.12499973E+03</pdfrwt>
<totfact> 0.10298211E+04</totfact>
</mgrwt>
</event>
<event>
 5    1  0.3289127E-002  0.1250015E+03  0.7818608E-02  0.1235067E+00
         -4   -1    0    0    0  501 -0.00000000000E+00  0.00000000000E+00  0.10498058098E+03  0.10498826260E+03  0.12700000000E+01 0. -1.
          4   -1    0    0  501    0  0.00000000000E+00 -0.00000000000E+00 -0.37190274239E+02  0.37211952354E+02  0.12700000000E+01 0. -1.
         25    2    1    2    0    0  0.00000000000E+00  0.00000000000E+00  0.67790306742E+02  0.14220021495E+03  0.12500150177E+03 0.  0.
    9000005    1    3    3    0    0  0.45558621082E+02 -0.28498576882E+02  0.70183802528E+02  0.88399790591E+02  0.10000000000E+01 0.  0.
    9000005    1    3    3    0    0 -0.45558621082E+02  0.28498576882E+02 -0.23934957865E+01  0.53800424359E+02  0.10000000000E+01 0.  0.
<mgrwt>
<rscale>  0 0.12500150E+03</rscale>
<asrwt>0</asrwt>
<pdfrwt beam="2">  1        4 0.57238390E-02 0.12500150E+03</pdfrwt>
<pdfrwt beam="1">  1       -4 0.16153117E-01 0.12500150E+03</pdfrwt>
<totfact> 0.10087846E+04</totfact>
</mgrwt>
</event>
<event>
 5    1  0.3289127E-002  0.1249976E+03  0.7818608E-02  0.1235073E+00
         -4   -1    0    0    0  501 -0.00000000000E+00  0.00000000000E+00  0.10362410845E+04  0.10362418627E+04  0.12700000000E+01 0. -1.
          4   -1    0    0  501    0  0.00000000000E+00 -0.00000000000E+00 -0.36617150099E+01  0.38757008158E+01  0.12700000000E+01 0. -1.
         25    2    1    2    0    0  0.00000000000E+00  0.00000000000E+00  0.10325793695E+04  0.10401175636E+04  0.12499756690E+03 0.  0.
    9000005    1    3    3    0    0 -0.14330924272E+02  0.28671797017E+02  0.96266472369E+03  0.96319874251E+03  0.10000000000E+01 0.  0.
    9000005    1    3    3    0    0  0.14330924272E+02 -0.28671797017E+02  0.69914645805E+02  0.76918821056E+02  0.10000000000E+01 0.  0.
<mgrwt>
<rscale>  0 0.12499757E+03</rscale>
<asrwt>0</asrwt>
<pdfrwt beam="2">  1        4 0.57986087E-03 0.12499757E+03</pdfrwt>
<pdfrwt beam="1">  1       -4 0.15943828E+00 0.12499757E+03</pdfrwt>
<totfact> 0.29306895E+03</totfact>
</mgrwt>
</event>
<event>
 5    1  0.3289127E-002  0.1249997E+03  0.7818608E-02  0.1235070E+00
         -4   -1    0    0    0  501 -0.00000000000E+00  0.00000000000E+00  0.34390147787E+03  0.34390382287E+03  0.12700000000E+01 0.  1.
          4   -1    0    0  501    0  0.00000000000E+00 -0.00000000000E+00 -0.11320681538E+02  0.11391695681E+02  0.12700000000E+01 0.  1.
         25    2    1    2    0    0  0.00000000000E+00  0.00000000000E+00  0.33258079633E+03  0.35529551855E+03  0.12499967764E+03 0.  0.
    9000005    1    3    3    0    0  0.60139038107E+02 -0.15605434013E+02  0.14722395817E+03  0.15980027326E+03  0.10000000000E+01 0.  0.
    9000005    1    3    3    0    0 -0.60139038107E+02  0.15605434013E+02  0.18535683816E+03  0.19549524529E+03  0.10000000000E+01 0.  0.
<mgrwt>
<rscale>  0 0.12499968E+03</rscale>
<asrwt>0</asrwt>
<pdfrwt beam="2">  1        4 0.17472860E-02 0.12499968E+03</pdfrwt>
<pdfrwt beam="1">  1       -4 0.52913572E-01 0.12499968E+03</pdfrwt>
<totfact> 0.69146371E+03</totfact>
</mgrwt>
</event>
<event>
 5    1  0.3289127E-002  0.1250005E+03  0.7818608E-02  0.1235068E+00
         -4   -1    0    0    0  501 -0.00000000000E+00  0.00000000000E+00  0.61800178710E+02  0.61813226648E+02  0.12700000000E+01 0. -1.
          4   -1    0    0  501    0  0.00000000000E+00 -0.00000000000E+00 -0.63182187435E+02  0.63194950029E+02  0.12700000000E+01 0. -1.
         25    2    1    2    0    0  0.00000000000E+00  0.00000000000E+00 -0.13820087251E+01  0.12500817668E+03  0.12500053715E+03 0.  0.
    9000005    1    3    3    0    0 -0.45672690347E+02 -0.27618918074E+01  0.41875206787E+02  0.62033504119E+02  0.10000000000E+01 0.  0.
    9000005    1    3    3    0    0  0.45672690347E+02  0.27618918074E+01 -0.43257215512E+02  0.62974672557E+02  0.10000000000E+01 0.  0.
<mgrwt>
<rscale>  0 0.12500054E+03</rscale>
<asrwt>0</asrwt>
<pdfrwt beam="2">  1        4 0.97223220E-02 0.12500054E+03</pdfrwt>
<pdfrwt beam="1">  1       -4 0.95097051E-02 0.12500054E+03</pdfrwt>
<totfact> 0.10452558E+04</totfact>
</mgrwt>
</event>
<event>
 5    1  0.3289127E-002  0.1250025E+03  0.7818608E-02  0.1235065E+00
         -4   -1    0    0    0  501 -0.00000000000E+00  0.00000000000E+00  0.29496954038E+02  0.29524281490E+02  0.12700000000E+01 0. -1.
          4   -1    0    0  501    0  0.00000000000E+00 -0.00000000000E+00 -0.13234251241E+03  0.13234860592E+03  0.12700000000E+01 0. -1.
         25    2    1    2    0    0  0.00000000000E+00  0.00000000000E+00 -0.10284555837E+03  0.16187288741E+03  0.12500249119E+03 0.  0.
    9000005    1    3    3    0    0  0.43211237171E+02  0.40662474664E+02 -0.76823683749E+02  0.97074848691E+02  0.10000000000E+01 0.  0.
    9000005    1    3    3    0    0 -0.43211237171E+02 -0.40662474664E+02 -0.26021874619E+02  0.64798038723E+02  0.10000000000E+01 0.  0.
<mgrwt>
<rscale>  0 0.12500249E+03</rscale>
<asrwt>0</asrwt>
<pdfrwt beam="2">  1        4 0.20362957E-01 0.12500249E+03</pdfrwt>
<pdfrwt beam="1">  1       -4 0.45405638E-02 0.12500249E+03</pdfrwt>
<totfact> 0.96977488E+03</totfact>
</mgrwt>
</event>
<event>
 5    1  0.3289127E-002  0.1249979E+03  0.7818608E-02  0.1235073E+00
          4   -1    0    0  501    0  0.00000000000E+00  0.00000000000E+00  0.64381882265E+02  0.64394407087E+02  0.12700000000E+01 0.  1.
         -4   -1    0    0    0  501 -0.00000000000E+00 -0.00000000000E+00 -0.60646021699E+02  0.60659317899E+02  0.12700000000E+01 0.  1.
         25    2    1    2    0    0  0.00000000000E+00  0.00000000000E+00  0.37358605664E+01  0.12505372499E+03  0.12499790990E+03 0.  0.
    9000005    1    3    3    0    0  0.45219269031E+02  0.24445455757E+02  0.37419086882E+02  0.63588919333E+02  0.10000000000E+01 0.  0.
    9000005    1    3    3    0    0 -0.45219269031E+02 -0.24445455757E+02 -0.33683226316E+02  0.61464805652E+02  0.10000000000E+01 0.  0.
<mgrwt>
<rscale>  0 0.12499791E+03</rscale>
<asrwt>0</asrwt>
<pdfrwt beam="1">  1        4 0.99068912E-02 0.12499791E+03</pdfrwt>
<pdfrwt beam="2">  1       -4 0.93321434E-02 0.12499791E+03</pdfrwt>
<totfact> 0.10452190E+04</totfact>
</mgrwt>
</event>
<event>
 5    1  0.3289127E-002  0.1249861E+03  0.7818608E-02  0.1235091E+00
         -4   -1    0    0    0  501 -0.00000000000E+00  0.00000000000E+00  0.28974133378E+02  0.29001953469E+02  0.12700000000E+01 0.  1.
          4   -1    0    0  501    0  0.00000000000E+00 -0.00000000000E+00 -0.13469313958E+03  0.13469912676E+03  0.12700000000E+01 0.  1.
         25    2    1    2    0    0  0.00000000000E+00  0.00000000000E+00 -0.10571900620E+03  0.16370108022E+03  0.12498614081E+03 0.  0.
    9000005    1    3    3    0    0  0.16396320446E+02  0.50894213243E+02 -0.10513242986E+02  0.54503105818E+02  0.10000000000E+01 0.  0.
    9000005    1    3    3    0    0 -0.16396320446E+02 -0.50894213243E+02 -0.95205763211E+02  0.10919797441E+03  0.10000000000E+01 0.  0.
<mgrwt>
<rscale>  0 0.12498614E+03</rscale>
<asrwt>0</asrwt>
<pdfrwt beam="2">  1        4 0.20724622E-01 0.12498614E+03</pdfrwt>
<pdfrwt beam="1">  1       -4 0.44601596E-02 0.12498614E+03</pdfrwt>
<totfact> 0.96664051E+03</totfact>
</mgrwt>
</event>
<event>
 5    1  0.3289127E-002  0.1249993E+03  0.7818608E-02  0.1235070E+00
         -4   -1    0    0    0  501 -0.00000000000E+00  0.00000000000E+00  0.55778844029E+01  0.57206375879E+01  0.12700000000E+01 0. -1.
          4   -1    0    0  501    0  0.00000000000E+00 -0.00000000000E+00 -0.69131109941E+03  0.69131226596E+03  0.12700000000E+01 0. -1.
         25    2    1    2    0    0  0.00000000000E+00  0.00000000000E+00 -0.68573321501E+03  0.69703290355E+03  0.12499930586E+03 0.  0.
    9000005    1    3    3    0    0  0.52491085487E+02 -0.31698436520E+02 -0.27569559374E+03  0.28243435581E+03  0.10000000000E+01 0.  0.
    9000005    1    3    3    0    0 -0.52491085487E+02  0.31698436520E+02 -0.41003762127E+03  0.41459854774E+03  0.10000000000E+01 0.  0.
<mgrwt>
<rscale>  0 0.12499931E+03</rscale>
<asrwt>0</asrwt>
<pdfrwt beam="2">  1        4 0.10636656E+00 0.12499931E+03</pdfrwt>
<pdfrwt beam="1">  1       -4 0.86920736E-03 0.12499931E+03</pdfrwt>
<totfact> 0.43244460E+03</totfact>
</mgrwt>
</event>
<event>
 5    1  0.3289127E-002  0.1249967E+03  0.7818608E-02  0.1235074E+00
         -4   -1    0    0    0  501 -0.00000000000E+00  0.00000000000E+00  0.44828096200E+02  0.44846082426E+02  0.12700000000E+01 0.  1.
          4   -1    0    0  501    0  0.00000000000E+00 -0.00000000000E+00 -0.87093775453E+02  0.87103034520E+02  0.12700000000E+01 0.  1.
         25    2    1    2    0    0  0.00000000000E+00  0.00000000000E+00 -0.42265679252E+02  0.13194911695E+03  0.12499672724E+03 0.  0.
    9000005    1    3    3    0    0  0.57071010804E+02 -0.11751853076E+02 -0.44968348498E+02  0.73609501367E+02  0.10000000000E+01 0.  0.
    9000005    1    3    3    0    0 -0.57071010804E+02  0.11751853076E+02  0.27026692454E+01  0.58339615579E+02  0.10000000000E+01 0.  0.
<mgrwt>
<rscale>  0 0.12499673E+03</rscale>
<asrwt>0</asrwt>
<pdfrwt beam="2">  1        4 0.13401138E-01 0.12499673E+03</pdfrwt>
<pdfrwt beam="1">  1       -4 0.68987260E-02 0.12499673E+03</pdfrwt>
<totfact> 0.10303545E+04</totfact>
</mgrwt>
</event>
<event>
 5    1  0.3289127E-002  0.1249998E+03  0.7818608E-02  0.1235070E+00
         -4   -1    0    0    0  501 -0.00000000000E+00  0.00000000000E+00  0.31586676190E+02  0.31612197214E+02  0.12700000000E+01 0. -1.
          4   -1    0    0  501    0  0.00000000000E+00 -0.00000000000E+00 -0.12358846058E+03  0.12359498569E+03  0.12700000000E+01 0. -1.
         25    2    1    2    0    0  0.00000000000E+00  0.00000000000E+00 -0.92001784387E+02  0.15520718290E+03  0.12499976518E+03 0.  0.
    9000005    1    3    3    0    0  0.43826773971E+02  0.10848996861E+02  0.76461177995E+01  0.45803383794E+02  0.10000000000E+01 0.  0.
    9000005    1    3    3    0    0 -0.43826773971E+02 -0.10848996861E+02 -0.99647902187E+02  0.10940379911E+03  0.10000000000E+01 0.  0.
<mgrwt>
<rscale>  0 0.12499977E+03</rscale>
<asrwt>0</asrwt>
<pdfrwt beam="2">  1        4 0.19016074E-01 0.12499977E+03</pdfrwt>
<pdfrwt beam="1">  1       -4 0.48619538E-02 0.12499977E+03</pdfrwt>
<totfact> 0.98275361E+03</totfact>
</mgrwt>
</event>
<event>
 5    1  0.3289127E-002  0.1250017E+03  0.7818608E-02  0.1235067E+00
          4   -1    0    0  501    0  0.00000000000E+00  0.00000000000E+00  0.31326328853E+02  0.31352061804E+02  0.12700000000E+01 0. -1.
         -4   -1    0    0    0  501 -0.00000000000E+00 -0.00000000000E+00 -0.12461873980E+03  0.12462521097E+03  0.12700000000E+01 0. -1.
         25    2    1    2    0    0  0.00000000000E+00  0.00000000000E+00 -0.93292410943E+02  0.15597727277E+03  0.12500174271E+03 0.  0.
    9000005    1    3    3    0    0 -0.27148698676E+02 -0.56278614147E+02 -0.47909304248E+02  0.78744115232E+02  0.10000000000E+01 0.  0.
    9000005    1    3    3    0    0  0.27148698676E+02  0.56278614147E+02 -0.45383106695E+02  0.77233157539E+02  0.10000000000E+01 0.  0.
<mgrwt>
<rscale>  0 0.12500174E+03</rscale>
<asrwt>0</asrwt>
<pdfrwt beam="1">  1        4 0.48219125E-02 0.12500174E+03</pdfrwt>
<pdfrwt beam="2">  1       -4 0.19174591E-01 0.12500174E+03</pdfrwt>
<totfact> 0.98120144E+03</totfact>
</mgrwt>
</event>
<event>
 5    1  0.3289127E-002  0.1249923E+03  0.7818608E-02  0.1235081E+00
         -4   -1    0    0    0  501 -0.00000000000E+00  0.00000000000E+00  0.55694855320E+03  0.55695000118E+03  0.12700000000E+01 0.  1.
          4   -1    0    0  501    0  0.00000000000E+00 -0.00000000000E+00 -0.69538372052E+01  0.70688578905E+01  0.12700000000E+01 0.  1.
         25    2    1    2    0    0  0.00000000000E+00  0.00000000000E+00  0.54999471600E+03  0.56401885907E+03  0.12499234281E+03 0.  0.
    9000005    1    3    3    0    0  0.52430309606E+02  0.28358198612E+02  0.19037922138E+03  0.19949529500E+03  0.10000000000E+01 0.  0.
    9000005    1    3    3    0    0 -0.52430309606E+02 -0.28358198612E+02  0.35961549461E+03  0.36452356407E+03  0.10000000000E+01 0.  0.
<mgrwt>
<rscale>  0 0.12499234E+03</rscale>
<asrwt>0</asrwt>
<pdfrwt beam="2">  1        4 0.10787801E-02 0.12499234E+03</pdfrwt>
<pdfrwt beam="1">  1       -4 0.85693361E-01 0.12499234E+03</pdfrwt>
<totfact> 0.51229177E+03</totfact>
</mgrwt>
</event>
<event>
 5    1  0.3289127E-002  0.1250018E+03  0.7818608E-02  0.1235067E+00
          4   -1    0    0  501    0  0.00000000000E+00  0.00000000000E+00  0.29611711749E+02  0.29638933393E+02  0.12700000000E+01 0. -1.
         -4   -1    0    0    0  501 -0.00000000000E+00 -0.00000000000E+00 -0.13182855163E+03  0.13183466890E+03  0.12700000000E+01 0. -1.
         25    2    1    2    0    0  0.00000000000E+00  0.00000000000E+00 -0.10221683988E+03  0.16147360229E+03  0.12500176752E+03 0.  0.
    9000005    1    3    3    0    0 -0.58037241717E+02 -0.13552770443E+02 -0.75391007814E+02  0.96108288259E+02  0.10000000000E+01 0.  0.
    9000005    1    3    3    0    0  0.58037241717E+02  0.13552770443E+02 -0.26825832064E+02  0.65365314034E+02  0.10000000000E+01 0.  0.
<mgrwt>
<rscale>  0 0.12500177E+03</rscale>
<asrwt>0</asrwt>
<pdfrwt beam="1">  1        4 0.45582126E-02 0.12500177E+03</pdfrwt>
<pdfrwt beam="2">  1       -4 0.20283880E-01 0.12500177E+03</pdfrwt>
<totfact> 0.97055581E+03</totfact>
</mgrwt>
</event>
<event>
 5    1  0.3289127E-002  0.1250022E+03  0.7818608E-02  0.1235066E+00
         -4   -1    0    0    0  501 -0.00000000000E+00  0.00000000000E+00  0.28575215157E+03  0.28575497376E+03  0.12700000000E+01 0.  1.
          4   -1    0    0  501    0  0.00000000000E+00 -0.00000000000E+00 -0.13638147443E+02  0.13697151736E+02  0.12700000000E+01 0.  1.
         25    2    1    2    0    0  0.00000000000E+00  0.00000000000E+00  0.27211400413E+03  0.29945212550E+03  0.12500217686E+03 0.  0.
    9000005    1    3    3    0    0 -0.50312042259E+02 -0.88069813802E+01  0.22231506313E+03  0.22810929795E+03  0.10000000000E+01 0.  0.
    9000005    1    3    3    0    0  0.50312042259E+02  0.88069813802E+01  0.49798941001E+02  0.71342827545E+02  0.10000000000E+01 0.  0.
<mgrwt>
<rscale>  0 0.12500218E+03</rscale>
<asrwt>0</asrwt>
<pdfrwt beam="2">  1        4 0.21029325E-02 0.12500218E+03</pdfrwt>
<pdfrwt beam="1">  1       -4 0.43966623E-01 0.12500218E+03</pdfrwt>
<totfact> 0.75663958E+03</totfact>
</mgrwt>
</event>
<event>
 5    1  0.3289127E-002  0.1250025E+03  0.7818608E-02  0.1235065E+00
          4   -1    0    0  501    0  0.00000000000E+00  0.00000000000E+00  0.40500665813E+01  0.42445187375E+01  0.12700000000E+01 0. -1.
         -4   -1    0    0    0  501 -0.00000000000E+00 -0.00000000000E+00 -0.94172202969E+03  0.94172288604E+03  0.12700000000E+01 0. -1.
         25    2    1    2    0    0  0.00000000000E+00  0.00000000000E+00 -0.93767196311E+03  0.94596740478E+03  0.12500248203E+03 0.  0.
    9000005    1    3    3    0    0 -0.51600923072E+01  0.15730732714E+01 -0.93999385330E+03  0.94000986450E+03  0.10000000000E+01 0.  0.
    9000005    1    3    3    0    0  0.51600923072E+01 -0.15730732714E+01  0.23218901948E+01  0.59575402821E+01  0.10000000000E+01 0.  0.
<mgrwt>
<rscale>  0 0.12500248E+03</rscale>
<asrwt>0</asrwt>
<pdfrwt beam="1">  1        4 0.63811165E-03 0.12500248E+03</pdfrwt>
<pdfrwt beam="2">  1       -4 0.14489517E+00 0.12500248E+03</pdfrwt>
<totfact> 0.32457858E+03</totfact>
</mgrwt>
</event>
<event>
 5    1  0.3289127E-002  0.1250001E+03  0.7818608E-02  0.1235069E+00
         -4   -1    0    0    0  501 -0.00000000000E+00  0.00000000000E+00  0.10221423085E+03  0.10222212034E+03  0.12700000000E+01 0.  1.
          4   -1    0    0  501    0  0.00000000000E+00 -0.00000000000E+00 -0.38196444739E+02  0.38217552129E+02  0.12700000000E+01 0.  1.
         25    2    1    2    0    0  0.00000000000E+00  0.00000000000E+00  0.64017786108E+02  0.14043967247E+03  0.12500009867E+03 0.  0.
    9000005    1    3    3    0    0  0.29728861727E+02 -0.21217140460E+02 -0.24962188882E+02  0.44250233250E+02  0.10000000000E+01 0.  0.
    9000005    1    3    3    0    0 -0.29728861727E+02  0.21217140460E+02  0.88979974990E+02  0.96189439224E+02  0.10000000000E+01 0.  0.
<mgrwt>
<rscale>  0 0.12500010E+03</rscale>
<asrwt>0</asrwt>
<pdfrwt beam="2">  1        4 0.58786067E-02 0.12500010E+03</pdfrwt>
<pdfrwt beam="1">  1       -4 0.15727497E-01 0.12500010E+03</pdfrwt>
<totfact> 0.10124459E+04</totfact>
</mgrwt>
</event>
<event>
 5    1  0.3289127E-002  0.1249989E+03  0.7818608E-02  0.1235071E+00
          4   -1    0    0  501    0  0.00000000000E+00  0.00000000000E+00  0.31505625449E+02  0.31531212075E+02  0.12700000000E+01 0.  1.
         -4   -1    0    0    0  501 -0.00000000000E+00 -0.00000000000E+00 -0.12390440584E+03  0.12391091432E+03  0.12700000000E+01 0.  1.
         25    2    1    2    0    0  0.00000000000E+00  0.00000000000E+00 -0.92398780395E+02  0.15544212639E+03  0.12499888015E+03 0.  0.
    9000005    1    3    3    0    0 -0.65908380747E+01  0.35251430262E+02 -0.10984035918E+03  0.11555088484E+03  0.10000000000E+01 0.  0.
    9000005    1    3    3    0    0  0.65908380747E+01 -0.35251430262E+02  0.17441578789E+02  0.39891241553E+02  0.10000000000E+01 0.  0.
<mgrwt>
<rscale>  0 0.12499888E+03</rscale>
<asrwt>0</asrwt>
<pdfrwt beam="1">  1        4 0.48494882E-02 0.12499888E+03</pdfrwt>
<pdfrwt beam="2">  1       -4 0.19064685E-01 0.12499888E+03</pdfrwt>
<totfact> 0.98231248E+03</totfact>
</mgrwt>
</event>
<event>
 5    1  0.3289127E-002  0.1249969E+03  0.7818608E-02  0.1235074E+00
         -4   -1    0    0    0  501 -0.00000000000E+00  0.00000000000E+00  0.25274375218E+04  0.25274378409E+04  0.12700000000E+01 0. -1.
          4   -1    0    0  501    0  0.00000000000E+00 -0.00000000000E+00 -0.12841794522E+01  0.18061054414E+01  0.12700000000E+01 0. -1.
         25    2    1    2    0    0  0.00000000000E+00  0.00000000000E+00  0.25261533424E+04  0.25292439463E+04  0.12499692372E+03 0.  0.
    9000005    1    3    3    0    0 -0.34893857554E+02  0.47601680377E+02  0.16785271572E+04  0.16795648004E+04  0.10000000000E+01 0.  0.
    9000005    1    3    3    0    0  0.34893857554E+02 -0.47601680377E+02  0.84762618510E+03  0.84967914588E+03  0.10000000000E+01 0.  0.
<mgrwt>
<rscale>  0 0.12499692E+03</rscale>
<asrwt>0</asrwt>
<pdfrwt beam="2">  1        4 0.23774167E-03 0.12499692E+03</pdfrwt>
<pdfrwt beam="1">  1       -4 0.38887197E+00 0.12499692E+03</pdfrwt>
<totfact> 0.44441768E+02</totfact>
</mgrwt>
</event>
<event>
 5    1  0.3289127E-002  0.1249982E+03  0.7818608E-02  0.1235072E+00
          4   -1    0    0  501    0  0.00000000000E+00  0.00000000000E+00  0.23048356814E+03  0.23048706707E+03  0.12700000000E+01 0.  1.
         -4   -1    0    0    0  501 -0.00000000000E+00 -0.00000000000E+00 -0.16920151481E+02  0.16967746643E+02  0.12700000000E+01 0.  1.
         25    2    1    2    0    0  0.00000000000E+00  0.00000000000E+00  0.21356341666E+03  0.24745481371E+03  0.12499820755E+03 0.  0.
    9000005    1    3    3    0    0  0.39296941620E+02  0.30064079804E+02  0.18234794213E+03  0.18894409362E+03  0.10000000000E+01 0.  0.
    9000005    1    3    3    0    0 -0.39296941620E+02 -0.30064079804E+02  0.31215474538E+02  0.58510720092E+02  0.10000000000E+01 0.  0.
<mgrwt>
<rscale>  0 0.12499821E+03</rscale>
<asrwt>0</asrwt>
<pdfrwt beam="1">  1        4 0.35462942E-01 0.12499821E+03</pdfrwt>
<pdfrwt beam="2">  1       -4 0.26070305E-02 0.12499821E+03</pdfrwt>
<totfact> 0.82702785E+03</totfact>
</mgrwt>
</event>
<event>
 5    1  0.3289127E-002  0.1250447E+03  0.7818608E-02  0.1235000E+00
          4   -1    0    0  501    0  0.00000000000E+00  0.00000000000E+00  0.50303639281E+02  0.50319668371E+02  0.12700000000E+01 0.  1.
         -4   -1    0    0    0  501 -0.00000000000E+00 -0.00000000000E+00 -0.77675324010E+02  0.77685705635E+02  0.12700000000E+01 0.  1.
         25    2    1    2    0    0  0.00000000000E+00  0.00000000000E+00 -0.27371684728E+02  0.12800537401E+03  0.12504465862E+03 0.  0.
    9000005    1    3    3    0    0  0.46866011731E+02  0.41261407656E+02 -0.10595278639E+02  0.63341824624E+02  0.10000000000E+01 0.  0.
    9000005    1    3    3    0    0 -0.46866011731E+02 -0.41261407656E+02 -0.16776406090E+02  0.64663549381E+02  0.10000000000E+01 0.  0.
<mgrwt>
<rscale>  0 0.12504466E+03</rscale>
<asrwt>0</asrwt>
<pdfrwt beam="1">  1        4 0.77410531E-02 0.12504466E+03</pdfrwt>
<pdfrwt beam="2">  1       -4 0.11952081E-01 0.12504466E+03</pdfrwt>
<totfact> 0.10376906E+04</totfact>
</mgrwt>
</event>
<event>
 5    1  0.3289127E-002  0.1249985E+03  0.7818608E-02  0.1235072E+00
          4   -1    0    0  501    0  0.00000000000E+00  0.00000000000E+00  0.20406410788E+03  0.20406805978E+03  0.12700000000E+01 0.  1.
         -4   -1    0    0    0  501 -0.00000000000E+00 -0.00000000000E+00 -0.19116607955E+02  0.19158747341E+02  0.12700000000E+01 0.  1.
         25    2    1    2    0    0  0.00000000000E+00  0.00000000000E+00  0.18494749992E+03  0.22322680712E+03  0.12499851876E+03 0.  0.
    9000005    1    3    3    0    0 -0.68546072941E+01  0.61927951798E+02  0.83890479283E+02  0.10450200653E+03  0.10000000000E+01 0.  0.
    9000005    1    3    3    0    0  0.68546072941E+01 -0.61927951798E+02  0.10105702064E+03  0.11872480059E+03  0.10000000000E+01 0.  0.
<mgrwt>
<rscale>  0 0.12499852E+03</rscale>
<asrwt>0</asrwt>
<pdfrwt beam="1">  1        4 0.31398024E-01 0.12499852E+03</pdfrwt>
<pdfrwt beam="2">  1       -4 0.29445620E-02 0.12499852E+03</pdfrwt>
<totfact> 0.86363166E+03</totfact>
</mgrwt>
</event>
<event>
 5    1  0.3289127E-002  0.1250308E+03  0.7818608E-02  0.1235021E+00
          4   -1    0    0  501    0  0.00000000000E+00  0.00000000000E+00  0.30004482894E+03  0.30004751670E+03  0.12700000000E+01 0. -1.
         -4   -1    0    0    0  501 -0.00000000000E+00 -0.00000000000E+00 -0.12991588291E+02  0.13053515477E+02  0.12700000000E+01 0. -1.
         25    2    1    2    0    0  0.00000000000E+00  0.00000000000E+00  0.28705324065E+03  0.31310103217E+03  0.12503076973E+03 0.  0.
    9000005    1    3    3    0    0  0.41145315598E+02  0.39218996727E+02  0.20864074348E+03  0.21624760470E+03  0.10000000000E+01 0.  0.
    9000005    1    3    3    0    0 -0.41145315598E+02 -0.39218996727E+02  0.78412497173E+02  0.96853427471E+02  0.10000000000E+01 0.  0.
<mgrwt>
<rscale>  0 0.12503077E+03</rscale>
<asrwt>0</asrwt>
<pdfrwt beam="1">  1        4 0.46165713E-01 0.12503077E+03</pdfrwt>
<pdfrwt beam="2">  1       -4 0.20036763E-02 0.12503077E+03</pdfrwt>
<totfact> 0.73933787E+03</totfact>
</mgrwt>
</event>
<event>
 5    1  0.3289127E-002  0.1250004E+03  0.7818608E-02  0.1235069E+00
         -4   -1    0    0    0  501 -0.00000000000E+00  0.00000000000E+00  0.10927066940E+03  0.10927804945E+03  0.12700000000E+01 0. -1.
          4   -1    0    0  501    0  0.00000000000E+00 -0.00000000000E+00 -0.35728755660E+02  0.35751319990E+02  0.12700000000E+01 0. -1.
         25    2    1    2    0    0  0.00000000000E+00  0.00000000000E+00  0.73541913745E+02  0.14502936944E+03  0.12500041969E+03 0.  0.
    9000005    1    3    3    0    0 -0.32687477016E+02  0.17142293725E+02 -0.21736756960E+02  0.42846423316E+02  0.10000000000E+01 0.  0.
    9000005    1    3    3    0    0  0.32687477016E+02 -0.17142293725E+02  0.95278670705E+02  0.10218294613E+03  0.10000000000E+01 0.  0.
<mgrwt>
<rscale>  0 0.12500042E+03</rscale>
<asrwt>0</asrwt>
<pdfrwt beam="2">  1        4 0.54990350E-02 0.12500042E+03</pdfrwt>
<pdfrwt beam="1">  1       -4 0.16813176E-01 0.12500042E+03</pdfrwt>
<totfact> 0.10030297E+04</totfact>
</mgrwt>
</event>
<event>
 5    1  0.3289127E-002  0.1250047E+03  0.7818608E-02  0.1235062E+00
          4   -1    0    0  501    0  0.00000000000E+00  0.00000000000E+00  0.48741258553E+01  0.50368643871E+01  0.12700000000E+01 0.  1.
         -4   -1    0    0    0  501 -0.00000000000E+00 -0.00000000000E+00 -0.78816286880E+03  0.78816389200E+03  0.12700000000E+01 0.  1.
         25    2    1    2    0    0  0.00000000000E+00  0.00000000000E+00 -0.78328874295E+03  0.79320075639E+03  0.12500474036E+03 0.  0.
    9000005    1    3    3    0    0  0.18857450816E+02  0.27515683828E+02 -0.56309370764E+02  0.65455798395E+02  0.10000000000E+01 0.  0.
    9000005    1    3    3    0    0 -0.18857450816E+02 -0.27515683828E+02 -0.72697937218E+03  0.72774495800E+03  0.10000000000E+01 0.  0.
<mgrwt>
<rscale>  0 0.12500474E+03</rscale>
<asrwt>0</asrwt>
<pdfrwt beam="1">  1        4 0.76246320E-03 0.12500474E+03</pdfrwt>
<pdfrwt beam="2">  1       -4 0.12126832E+00 0.12500474E+03</pdfrwt>
<totfact> 0.38566104E+03</totfact>
</mgrwt>
</event>
<event>
 5    1  0.3289127E-002  0.1249986E+03  0.7818608E-02  0.1235071E+00
         -4   -1    0    0    0  501 -0.00000000000E+00  0.00000000000E+00  0.57182796795E+02  0.57196898074E+02  0.12700000000E+01 0.  1.
          4   -1    0    0  501    0  0.00000000000E+00 -0.00000000000E+00 -0.68281672455E+02  0.68293482070E+02  0.12700000000E+01 0.  1.
         25    2    1    2    0    0  0.00000000000E+00  0.00000000000E+00 -0.11098875660E+02  0.12549038014E+03  0.12499860186E+03 0.  0.
    9000005    1    3    3    0    0 -0.74737955000E+00  0.46437178879E+02 -0.47525326636E+02  0.66457707080E+02  0.10000000000E+01 0.  0.
    9000005    1    3    3    0    0  0.74737955000E+00 -0.46437178879E+02  0.36426450976E+02  0.59032673065E+02  0.10000000000E+01 0.  0.
<mgrwt>
<rscale>  0 0.12499860E+03</rscale>
<asrwt>0</asrwt>
<pdfrwt beam="2">  1        4 0.10506866E-01 0.12499860E+03</pdfrwt>
<pdfrwt beam="1">  1       -4 0.87993465E-02 0.12499860E+03</pdfrwt>
<totfact> 0.10442496E+04</totfact>
</mgrwt>
</event>
<event>
 5    1  0.3289127E-002  0.1249992E+03  0.7818608E-02  0.1235071E+00
          4   -1    0    0  501    0  0.00000000000E+00  0.00000000000E+00  0.13620704964E+02  0.13679784491E+02  0.12700000000E+01 0.  1.
         -4   -1    0    0    0  501 -0.00000000000E+00 -0.00000000000E+00 -0.28610292009E+03  0.28610573882E+03  0.12700000000E+01 0.  1.
         25    2    1    2    0    0  0.00000000000E+00  0.00000000000E+00 -0.27248221513E+03  0.29978552331E+03  0.12499920970E+03 0.  0.
    9000005    1    3    3    0    0 -0.35723328750E+02 -0.25825741410E+01 -0.25905592382E+03  0.26152207855E+03  0.10000000000E+01 0.  0.
    9000005    1    3    3    0    0  0.35723328750E+02  0.25825741410E+01 -0.13426291308E+02  0.38263444754E+02  0.10000000000E+01 0.  0.
<mgrwt>
<rscale>  0 0.12499921E+03</rscale>
<asrwt>0</asrwt>
<pdfrwt beam="1">  1        4 0.21002547E-02 0.12499921E+03</pdfrwt>
<pdfrwt beam="2">  1       -4 0.44020591E-01 0.12499921E+03</pdfrwt>
<totfact> 0.75627079E+03</totfact>
</mgrwt>
</event>
<event>
 5    1  0.3289127E-002  0.1250019E+03  0.7818608E-02  0.1235066E+00
         -4   -1    0    0    0  501 -0.00000000000E+00  0.00000000000E+00  0.97659144933E+02  0.97667402387E+02  0.12700000000E+01 0. -1.
          4   -1    0    0  501    0  0.00000000000E+00 -0.00000000000E+00 -0.39980029918E+02  0.40000196152E+02  0.12700000000E+01 0. -1.
         25    2    1    2    0    0  0.00000000000E+00  0.00000000000E+00  0.57679115015E+02  0.13766759854E+03  0.12500194950E+03 0.  0.
    9000005    1    3    3    0    0 -0.53427111207E+02  0.26654616865E+02  0.49160307232E+02  0.77347660723E+02  0.10000000000E+01 0.  0.
    9000005    1    3    3    0    0  0.53427111207E+02 -0.26654616865E+02  0.85188077827E+01  0.60319937816E+02  0.10000000000E+01 0.  0.
<mgrwt>
<rscale>  0 0.12500195E+03</rscale>
<asrwt>0</asrwt>
<pdfrwt beam="2">  1        4 0.61529604E-02 0.12500195E+03</pdfrwt>
<pdfrwt beam="1">  1       -4 0.15026670E-01 0.12500195E+03</pdfrwt>
<totfact> 0.10181698E+04</totfact>
</mgrwt>
</event>
<event>
 5    1  0.3289127E-002  0.1250011E+03  0.7818608E-02  0.1235068E+00
         -4   -1    0    0    0  501 -0.00000000000E+00  0.00000000000E+00  0.28656789298E+01  0.31344881128E+01  0.12700000000E+01 0. -1.
          4   -1    0    0  501    0  0.00000000000E+00 -0.00000000000E+00 -0.13018012983E+04  0.13018019178E+04  0.12700000000E+01 0. -1.
         25    2    1    2    0    0  0.00000000000E+00  0.00000000000E+00 -0.12989356194E+04  0.13049364059E+04  0.12500112070E+03 0.  0.
    9000005    1    3    3    0    0  0.57404775655E+02 -0.18784217387E+02 -0.81687778473E+03  0.81910833855E+03  0.10000000000E+01 0.  0.
    9000005    1    3    3    0    0 -0.57404775655E+02  0.18784217387E+02 -0.48205783463E+03  0.48582806735E+03  0.10000000000E+01 0.  0.
<mgrwt>
<rscale>  0 0.12500112E+03</rscale>
<asrwt>0</asrwt>
<pdfrwt beam="2">  1        4 0.20029740E+00 0.12500112E+03</pdfrwt>
<pdfrwt beam="1">  1       -4 0.46160000E-03 0.12500112E+03</pdfrwt>
<totfact> 0.22111834E+03</totfact>
</mgrwt>
</event>
<event>
 5    1  0.3289127E-002  0.1249976E+03  0.7818608E-02  0.1235073E+00
         -4   -1    0    0    0  501 -0.00000000000E+00  0.00000000000E+00  0.38202310196E+02  0.38223414346E+02  0.12700000000E+01 0. -1.
          4   -1    0    0  501    0  0.00000000000E+00 -0.00000000000E+00 -0.10219447609E+03  0.10220236711E+03  0.12700000000E+01 0. -1.
         25    2    1    2    0    0  0.00000000000E+00  0.00000000000E+00 -0.63992165894E+02  0.14042578146E+03  0.12499761119E+03 0.  0.
    9000005    1    3    3    0    0 -0.58110834356E+02  0.70275466055E+01 -0.56579526333E+02  0.81415589913E+02  0.10000000000E+01 0.  0.
    9000005    1    3    3    0    0  0.58110834356E+02 -0.70275466055E+01 -0.74126395604E+01  0.59010191544E+02  0.10000000000E+01 0.  0.
<mgrwt>
<rscale>  0 0.12499761E+03</rscale>
<asrwt>0</asrwt>
<pdfrwt beam="2">  1        4 0.15724457E-01 0.12499761E+03</pdfrwt>
<pdfrwt beam="1">  1       -4 0.58795089E-02 0.12499761E+03</pdfrwt>
<totfact> 0.10125314E+04</totfact>
</mgrwt>
</event>
<event>
 5    1  0.3289127E-002  0.1250006E+03  0.7818608E-02  0.1235068E+00
         -4   -1    0    0    0  501 -0.00000000000E+00  0.00000000000E+00  0.70553164083E+02  0.70564593545E+02  0.12700000000E+01 0.  1.
          4   -1    0    0  501    0  0.00000000000E+00 -0.00000000000E+00 -0.55343407194E+02  0.55357977021E+02  0.12700000000E+01 0.  1.
         25    2    1    2    0    0  0.00000000000E+00  0.00000000000E+00  0.15209756889E+02  0.12592257057E+03  0.12500062829E+03 0.  0.
    9000005    1    3    3    0    0 -0.64424440664E+01 -0.48742698324E+02 -0.31253363853E+02  0.58267731015E+02  0.10000000000E+01 0.  0.
    9000005    1    3    3    0    0  0.64424440664E+01  0.48742698324E+02  0.46463120743E+02  0.67654839551E+02  0.10000000000E+01 0.  0.
<mgrwt>
<rscale>  0 0.12500063E+03</rscale>
<asrwt>0</asrwt>
<pdfrwt beam="2">  1        4 0.85163703E-02 0.12500063E+03</pdfrwt>
<pdfrwt beam="1">  1       -4 0.10856333E-01 0.12500063E+03</pdfrwt>
<totfact> 0.10432507E+04</totfact>
</mgrwt>
</event>
<event>
 5    1  0.3289127E-002  0.1250009E+03  0.7818608E-02  0.1235068E+00
         -4   -1    0    0    0  501 -0.00000000000E+00  0.00000000000E+00  0.14228622986E+03  0.14229189754E+03  0.12700000000E+01 0. -1.
          4   -1    0    0  501    0  0.00000000000E+00 -0.00000000000E+00 -0.27432951278E+02  0.27462332673E+02  0.12700000000E+01 0. -1.
         25    2    1    2    0    0  0.00000000000E+00  0.00000000000E+00  0.11485327858E+03  0.16975423022E+03  0.12500089230E+03 0.  0.
    9000005    1    3    3    0    0  0.51055041775E+02 -0.47056942696E+01  0.89061084963E+01  0.52048819562E+02  0.10000000000E+01 0.  0.
    9000005    1    3    3    0    0 -0.51055041775E+02  0.47056942696E+01  0.10594717008E+03  0.11770541065E+03  0.10000000000E+01 0.  0.
<mgrwt>
<rscale>  0 0.12500089E+03</rscale>
<asrwt>0</asrwt>
<pdfrwt beam="2">  1        4 0.42231502E-02 0.12500089E+03</pdfrwt>
<pdfrwt beam="1">  1       -4 0.21892885E-01 0.12500089E+03</pdfrwt>
<totfact> 0.95492552E+03</totfact>
</mgrwt>
</event>
<event>
 5    1  0.3289127E-002  0.1250019E+03  0.7818608E-02  0.1235066E+00
          4   -1    0    0  501    0  0.00000000000E+00  0.00000000000E+00  0.94561667876E+02  0.94570195789E+02  0.12700000000E+01 0. -1.
         -4   -1    0    0    0  501 -0.00000000000E+00 -0.00000000000E+00 -0.41290127579E+02  0.41309654265E+02  0.12700000000E+01 0. -1.
         25    2    1    2    0    0  0.00000000000E+00  0.00000000000E+00  0.53271540297E+02  0.13587985005E+03  0.12500190656E+03 0.  0.
    9000005    1    3    3    0    0 -0.29163598959E+02  0.19820306713E+02  0.82720313700E+02  0.89927806384E+02  0.10000000000E+01 0.  0.
    9000005    1    3    3    0    0  0.29163598959E+02 -0.19820306713E+02 -0.29448773402E+02  0.45952043669E+02  0.10000000000E+01 0.  0.
<mgrwt>
<rscale>  0 0.12500191E+03</rscale>
<asrwt>0</asrwt>
<pdfrwt beam="1">  1        4 0.14550107E-01 0.12500191E+03</pdfrwt>
<pdfrwt beam="2">  1       -4 0.63544853E-02 0.12500191E+03</pdfrwt>
<totfact> 0.10219120E+04</totfact>
</mgrwt>
</event>
<event>
 5    1  0.3289127E-002  0.1250010E+03  0.7818608E-02  0.1235068E+00
         -4   -1    0    0    0  501 -0.00000000000E+00  0.00000000000E+00  0.71283060120E+03  0.71283173253E+03  0.12700000000E+01 0.  1.
          4   -1    0    0  501    0  0.00000000000E+00 -0.00000000000E+00 -0.54052670406E+01  0.55524599756E+01  0.12700000000E+01 0.  1.
         25    2    1    2    0    0  0.00000000000E+00  0.00000000000E+00  0.70742533416E+03  0.71838419251E+03  0.12500097854E+03 0.  0.
    9000005    1    3    3    0    0 -0.20994489561E+02 -0.52430613244E+02  0.19997848654E+03  0.20780311084E+03  0.10000000000E+01 0.  0.
    9000005    1    3    3    0    0  0.20994489561E+02  0.52430613244E+02  0.50744684762E+03  0.51058108167E+03  0.10000000000E+01 0.  0.
<mgrwt>
<rscale>  0 0.12500098E+03</rscale>
<asrwt>0</asrwt>
<pdfrwt beam="2">  1        4 0.84298892E-03 0.12500098E+03</pdfrwt>
<pdfrwt beam="1">  1       -4 0.10967768E+00 0.12500098E+03</pdfrwt>
<totfact> 0.42132903E+03</totfact>
</mgrwt>
</event>
<event>
 5    1  0.3289127E-002  0.1250025E+03  0.7818608E-02  0.1235065E+00
          4   -1    0    0  501    0  0.00000000000E+00  0.00000000000E+00  0.94998578394E+02  0.95007067089E+02  0.12700000000E+01 0.  1.
         -4   -1    0    0    0  501 -0.00000000000E+00 -0.00000000000E+00 -0.41100531153E+02  0.41120147873E+02  0.12700000000E+01 0.  1.
         25    2    1    2    0    0  0.00000000000E+00  0.00000000000E+00  0.53898047241E+02  0.13612721496E+03  0.12500247660E+03 0.  0.
    9000005    1    3    3    0    0 -0.36116296778E+02 -0.43080419228E+02  0.56674736303E+02  0.79833170730E+02  0.10000000000E+01 0.  0.
    9000005    1    3    3    0    0  0.36116296778E+02  0.43080419228E+02 -0.27766890620E+01  0.56294044232E+02  0.10000000000E+01 0.  0.
<mgrwt>
<rscale>  0 0.12500248E+03</rscale>
<asrwt>0</asrwt>
<pdfrwt beam="1">  1        4 0.14617328E-01 0.12500248E+03</pdfrwt>
<pdfrwt beam="2">  1       -4 0.63253206E-02 0.12500248E+03</pdfrwt>
<totfact> 0.10213796E+04</totfact>
</mgrwt>
</event>
<event>
 5    1  0.3289127E-002  0.1250018E+03  0.7818608E-02  0.1235066E+00
          4   -1    0    0  501    0  0.00000000000E+00  0.00000000000E+00  0.47081711613E+02  0.47098837230E+02  0.12700000000E+01 0. -1.
         -4   -1    0    0    0  501 -0.00000000000E+00 -0.00000000000E+00 -0.82932826613E+02  0.82942550178E+02  0.12700000000E+01 0. -1.
         25    2    1    2    0    0  0.00000000000E+00  0.00000000000E+00 -0.35851115000E+02  0.13004138741E+03  0.12500183996E+03 0.  0.
    9000005    1    3    3    0    0 -0.25285151219E+02  0.82076604764E+01  0.40911271433E+02  0.48799966116E+02  0.10000000000E+01 0.  0.
    9000005    1    3    3    0    0  0.25285151219E+02 -0.82076604764E+01 -0.76762386433E+02  0.81241421292E+02  0.10000000000E+01 0.  0.
<mgrwt>
<rscale>  0 0.12500184E+03</rscale>
<asrwt>0</asrwt>
<pdfrwt beam="1">  1        4 0.72454056E-02 0.12500184E+03</pdfrwt>
<pdfrwt beam="2">  1       -4 0.12760962E-01 0.12500184E+03</pdfrwt>
<totfact> 0.10343193E+04</totfact>
</mgrwt>
</event>
<event>
 5    1  0.3289127E-002  0.1250194E+03  0.7818608E-02  0.1235039E+00
         -4   -1    0    0    0  501 -0.00000000000E+00  0.00000000000E+00  0.82486037371E+02  0.82495813598E+02  0.12700000000E+01 0. -1.
          4   -1    0    0  501    0  0.00000000000E+00 -0.00000000000E+00 -0.47350105848E+02  0.47367134427E+02  0.12700000000E+01 0. -1.
         25    2    1    2    0    0  0.00000000000E+00  0.00000000000E+00  0.35135931523E+02  0.12986294802E+03  0.12501940484E+03 0.  0.
    9000005    1    3    3    0    0 -0.52471355818E+02  0.19039322222E+02 -0.11641275107E+02  0.57028574050E+02  0.10000000000E+01 0.  0.
    9000005    1    3    3    0    0  0.52471355818E+02 -0.19039322222E+02  0.46777206630E+02  0.72834373974E+02  0.10000000000E+01 0.  0.
<mgrwt>
<rscale>  0 0.12501940E+03</rscale>
<asrwt>0</asrwt>
<pdfrwt beam="2">  1        4 0.72866937E-02 0.12501940E+03</pdfrwt>
<pdfrwt beam="1">  1       -4 0.12692221E-01 0.12501940E+03</pdfrwt>
<totfact> 0.10342909E+04</totfact>
</mgrwt>
</event>
<event>
 5    1  0.3289127E-002  0.1249993E+03  0.7818608E-02  0.1235070E+00
         -4   -1    0    0    0  501 -0.00000000000E+00  0.00000000000E+00  0.16639242781E+02  0.16687639148E+02  0.12700000000E+01 0. -1.
          4   -1    0    0  501    0  0.00000000000E+00 -0.00000000000E+00 -0.23436763130E+03  0.23437107224E+03  0.12700000000E+01 0. -1.
         25    2    1    2    0    0  0.00000000000E+00  0.00000000000E+00 -0.21772838852E+03  0.25105871138E+03  0.12499930158E+03 0.  0.
    9000005    1    3    3    0    0  0.25699307703E+02 -0.33901110241E+02 -0.20080495360E+03  0.20526414466E+03  0.10000000000E+01 0.  0.
    9000005    1    3    3    0    0 -0.25699307703E+02  0.33901110241E+02 -0.16923434915E+02  0.45794566722E+02  0.10000000000E+01 0.  0.
<mgrwt>
<rscale>  0 0.12499930E+03</rscale>
<asrwt>0</asrwt>
<pdfrwt beam="2">  1        4 0.36060544E-01 0.12499930E+03</pdfrwt>
<pdfrwt beam="1">  1       -4 0.25638712E-02 0.12499930E+03</pdfrwt>
<totfact> 0.82178731E+03</totfact>
</mgrwt>
</event>
<event>
 5    1  0.3289127E-002  0.1250016E+03  0.7818608E-02  0.1235067E+00
          4   -1    0    0  501    0  0.00000000000E+00  0.00000000000E+00  0.37281100284E+02  0.37302725616E+02  0.12700000000E+01 0.  1.
         -4   -1    0    0    0  501 -0.00000000000E+00 -0.00000000000E+00 -0.10472513816E+03  0.10473283851E+03  0.12700000000E+01 0.  1.
         25    2    1    2    0    0  0.00000000000E+00  0.00000000000E+00 -0.67444037872E+02  0.14203556412E+03  0.12500161291E+03 0.  0.
    9000005    1    3    3    0    0 -0.27520764944E+02  0.51060299495E+02 -0.72978413445E+01  0.58470549647E+02  0.10000000000E+01 0.  0.
    9000005    1    3    3    0    0  0.27520764944E+02 -0.51060299495E+02 -0.60146196527E+02  0.83565014476E+02  0.10000000000E+01 0.  0.
<mgrwt>
<rscale>  0 0.12500161E+03</rscale>
<asrwt>0</asrwt>
<pdfrwt beam="1">  1        4 0.57378097E-02 0.12500161E+03</pdfrwt>
<pdfrwt beam="2">  1       -4 0.16113815E-01 0.12500161E+03</pdfrwt>
<totfact> 0.10091204E+04</totfact>
</mgrwt>
</event>
<event>
 5    1  0.3289127E-002  0.1249987E+03  0.7818608E-02  0.1235071E+00
         -4   -1    0    0    0  501 -0.00000000000E+00  0.00000000000E+00  0.76116668399E+03  0.76116774348E+03  0.12700000000E+01 0. -1.
          4   -1    0    0  501    0  0.00000000000E+00 -0.00000000000E+00 -0.50521678570E+01  0.52093473733E+01  0.12700000000E+01 0. -1.
         25    2    1    2    0    0  0.00000000000E+00  0.00000000000E+00  0.75611451613E+03  0.76637709086E+03  0.12499873551E+03 0.  0.
    9000005    1    3    3    0    0 -0.55082291731E+02  0.17461152416E+02  0.23216588953E+03  0.23925081184E+03  0.10000000000E+01 0.  0.
    9000005    1    3    3    0    0  0.55082291731E+02 -0.17461152416E+02  0.52394862660E+03  0.52712627901E+03  0.10000000000E+01 0.  0.
<mgrwt>
<rscale>  0 0.12499874E+03</rscale>
<asrwt>0</asrwt>
<pdfrwt beam="2">  1        4 0.78942916E-03 0.12499874E+03</pdfrwt>
<pdfrwt beam="1">  1       -4 0.11711469E+00 0.12499874E+03</pdfrwt>
<totfact> 0.39803916E+03</totfact>
</mgrwt>
</event>
<event>
 5    1  0.3289127E-002  0.1249771E+03  0.7818608E-02  0.1235105E+00
         -4   -1    0    0    0  501 -0.00000000000E+00  0.00000000000E+00  0.91320140354E+02  0.91328970948E+02  0.12700000000E+01 0. -1.
          4   -1    0    0  501    0  0.00000000000E+00 -0.00000000000E+00 -0.42739311186E+02  0.42758176067E+02  0.12700000000E+01 0. -1.
         25    2    1    2    0    0  0.00000000000E+00  0.00000000000E+00  0.48580829169E+02  0.13408714702E+03  0.12497706202E+03 0.  0.
    9000005    1    3    3    0    0 -0.32402373458E+02 -0.19834537717E+02 -0.28928740857E+02  0.47761854442E+02  0.10000000000E+01 0.  0.
    9000005    1    3    3    0    0  0.32402373458E+02  0.19834537717E+02  0.77509570026E+02  0.86325292573E+02  0.10000000000E+01 0.  0.
<mgrwt>
<rscale>  0 0.12497706E+03</rscale>
<asrwt>0</asrwt>
<pdfrwt beam="2">  1        4 0.65774091E-02 0.12497706E+03</pdfrwt>
<pdfrwt beam="1">  1       -4 0.14051383E-01 0.12497706E+03</pdfrwt>
<totfact> 0.10262656E+04</totfact>
</mgrwt>
</event>
<event>
 5    1  0.3289127E-002  0.1250004E+03  0.7818608E-02  0.1235069E+00
          4   -1    0    0  501    0  0.00000000000E+00  0.00000000000E+00  0.18828709362E+03  0.18829137665E+03  0.12700000000E+01 0. -1.
         -4   -1    0    0    0  501 -0.00000000000E+00 -0.00000000000E+00 -0.20722412494E+02  0.20761292820E+02  0.12700000000E+01 0. -1.
         25    2    1    2    0    0  0.00000000000E+00  0.00000000000E+00  0.16756468112E+03  0.20905266947E+03  0.12500038502E+03 0.  0.
    9000005    1    3    3    0    0  0.28861413789E+02 -0.15668562768E+02  0.17270062257E+03  0.17579815159E+03  0.10000000000E+01 0.  0.
    9000005    1    3    3    0    0 -0.28861413789E+02  0.15668562768E+02 -0.51359414514E+01  0.33254517884E+02  0.10000000000E+01 0.  0.
<mgrwt>
<rscale>  0 0.12500039E+03</rscale>
<asrwt>0</asrwt>
<pdfrwt beam="1">  1        4 0.28970566E-01 0.12500039E+03</pdfrwt>
<pdfrwt beam="2">  1       -4 0.31913837E-02 0.12500039E+03</pdfrwt>
<totfact> 0.88630063E+03</totfact>
</mgrwt>
</event>
<event>
 5    1  0.3289127E-002  0.1250034E+03  0.7818608E-02  0.1235064E+00
         -4   -1    0    0    0  501 -0.00000000000E+00  0.00000000000E+00  0.15947013958E+04  0.15947019015E+04  0.12700000000E+01 0. -1.
          4   -1    0    0  501    0  0.00000000000E+00 -0.00000000000E+00 -0.22845069214E+01  0.26137849709E+01  0.12700000000E+01 0. -1.
         25    2    1    2    0    0  0.00000000000E+00  0.00000000000E+00  0.15924168889E+04  0.15973156865E+04  0.12500341707E+03 0.  0.
    9000005    1    3    3    0    0  0.40494544628E+02 -0.15267575201E+02  0.13722982537E+04  0.13729808463E+04  0.10000000000E+01 0.  0.
    9000005    1    3    3    0    0 -0.40494544628E+02  0.15267575201E+02  0.22011863517E+03  0.22433484024E+03  0.10000000000E+01 0.  0.
<mgrwt>
<rscale>  0 0.12500342E+03</rscale>
<asrwt>0</asrwt>
<pdfrwt beam="2">  1        4 0.37682957E-03 0.12500342E+03</pdfrwt>
<pdfrwt beam="1">  1       -4 0.24536470E+00 0.12500342E+03</pdfrwt>
<totfact> 0.16093376E+03</totfact>
</mgrwt>
</event>
<event>
 5    1  0.3289127E-002  0.1249886E+03  0.7818608E-02  0.1235087E+00
         -4   -1    0    0    0  501 -0.00000000000E+00  0.00000000000E+00  0.29061867866E+02  0.29089604051E+02  0.12700000000E+01 0. -1.
          4   -1    0    0  501    0  0.00000000000E+00 -0.00000000000E+00 -0.13429224191E+03  0.13429824696E+03  0.12700000000E+01 0. -1.
         25    2    1    2    0    0  0.00000000000E+00  0.00000000000E+00 -0.10523037404E+03  0.16338785101E+03  0.12498863243E+03 0.  0.
    9000005    1    3    3    0    0 -0.11098758276E+02  0.61453569073E+02 -0.49746446740E+02  0.79846305803E+02  0.10000000000E+01 0.  0.
    9000005    1    3    3    0    0  0.11098758276E+02 -0.61453569073E+02 -0.55483927303E+02  0.83541545210E+02  0.10000000000E+01 0.  0.
<mgrwt>
<rscale>  0 0.12498863E+03</rscale>
<asrwt>0</asrwt>
<pdfrwt beam="2">  1        4 0.20662940E-01 0.12498863E+03</pdfrwt>
<pdfrwt beam="1">  1       -4 0.44736522E-02 0.12498863E+03</pdfrwt>
<totfact> 0.96718283E+03</totfact>
</mgrwt>
</event>
<event>
 5    1  0.3289127E-002  0.1250004E+03  0.7818608E-02  0.1235069E+00
         -4   -1    0    0    0  501 -0.00000000000E+00  0.00000000000E+00  0.10856425478E+02  0.10930456265E+02  0.12700000000E+01 0. -1.
          4   -1    0    0  501    0  0.00000000000E+00 -0.00000000000E+00 -0.35851443453E+03  0.35851668394E+03  0.12700000000E+01 0. -1.
         25    2    1    2    0    0  0.00000000000E+00  0.00000000000E+00 -0.34765800905E+03  0.36944714021E+03  0.12500039260E+03 0.  0.
    9000005    1    3    3    0    0 -0.33961206347E+02  0.45402525412E+02 -0.96163245015E+02  0.11163835605E+03  0.10000000000E+01 0.  0.
    9000005    1    3    3    0    0  0.33961206347E+02 -0.45402525412E+02 -0.25149476403E+03  0.25780878415E+03  0.10000000000E+01 0.  0.
<mgrwt>
<rscale>  0 0.12500039E+03</rscale>
<asrwt>0</asrwt>
<pdfrwt beam="2">  1        4 0.55161925E-01 0.12500039E+03</pdfrwt>
<pdfrwt beam="1">  1       -4 0.16760873E-02 0.12500039E+03</pdfrwt>
<totfact> 0.67636233E+03</totfact>
</mgrwt>
</event>
<event>
 5    1  0.3289127E-002  0.1249982E+03  0.7818608E-02  0.1235072E+00
          4   -1    0    0  501    0  0.00000000000E+00  0.00000000000E+00  0.10118062197E+04  0.10118070167E+04  0.12700000000E+01 0.  1.
         -4   -1    0    0    0  501 -0.00000000000E+00 -0.00000000000E+00 -0.37552885596E+01  0.39642265533E+01  0.12700000000E+01 0.  1.
         25    2    1    2    0    0  0.00000000000E+00  0.00000000000E+00  0.10080509311E+04  0.10157712432E+04  0.12499815569E+03 0.  0.
    9000005    1    3    3    0    0 -0.52604839930E+02 -0.17175643034E+02  0.26810220562E+03  0.27375548315E+03  0.10000000000E+01 0.  0.
    9000005    1    3    3    0    0  0.52604839930E+02  0.17175643034E+02  0.73994872547E+03  0.74201576009E+03  0.10000000000E+01 0.  0.
<mgrwt>
<rscale>  0 0.12499816E+03</rscale>
<asrwt>0</asrwt>
<pdfrwt beam="1">  1        4 0.15567893E+00 0.12499816E+03</pdfrwt>
<pdfrwt beam="2">  1       -4 0.59386902E-03 0.12499816E+03</pdfrwt>
<totfact> 0.30089167E+03</totfact>
</mgrwt>
</event>
<event>
 5    1  0.3289127E-002  0.1250013E+03  0.7818608E-02  0.1235067E+00
          4   -1    0    0  501    0  0.00000000000E+00  0.00000000000E+00  0.98944858433E+02  0.98953008596E+02  0.12700000000E+01 0.  1.
         -4   -1    0    0    0  501 -0.00000000000E+00 -0.00000000000E+00 -0.39459876116E+02  0.39480308042E+02  0.12700000000E+01 0.  1.
         25    2    1    2    0    0  0.00000000000E+00  0.00000000000E+00  0.59484982317E+02  0.13843331664E+03  0.12500128013E+03 0.  0.
    9000005    1    3    3    0    0 -0.30007279352E+02  0.51316117090E+02  0.83956116105E+01  0.60043875471E+02  0.10000000000E+01 0.  0.
    9000005    1    3    3    0    0  0.30007279352E+02 -0.51316117090E+02  0.51089370706E+02  0.78389441167E+02  0.10000000000E+01 0.  0.
<mgrwt>
<rscale>  0 0.12500128E+03</rscale>
<asrwt>0</asrwt>
<pdfrwt beam="1">  1        4 0.15224485E-01 0.12500128E+03</pdfrwt>
<pdfrwt beam="2">  1       -4 0.60729488E-02 0.12500128E+03</pdfrwt>
<totfact> 0.10165866E+04</totfact>
</mgrwt>
</event>
<event>
 5    1  0.3289127E-002  0.1249934E+03  0.7818608E-02  0.1235080E+00
         -4   -1    0    0    0  501 -0.00000000000E+00  0.00000000000E+00  0.12577089578E+02  0.12641047515E+02  0.12700000000E+01 0.  1.
          4   -1    0    0  501    0  0.00000000000E+00 -0.00000000000E+00 -0.30969885646E+03  0.30970146043E+03  0.12700000000E+01 0.  1.
         25    2    1    2    0    0  0.00000000000E+00  0.00000000000E+00 -0.29712176688E+03  0.32234250794E+03  0.12499339212E+03 0.  0.
    9000005    1    3    3    0    0  0.27330485636E+02 -0.56194595515E+02 -0.14798997792E+03  0.16064501727E+03  0.10000000000E+01 0.  0.
    9000005    1    3    3    0    0 -0.27330485636E+02  0.56194595515E+02 -0.14913178896E+03  0.16169749067E+03  0.10000000000E+01 0.  0.
<mgrwt>
<rscale>  0 0.12499339E+03</rscale>
<asrwt>0</asrwt>
<pdfrwt beam="2">  1        4 0.47651093E-01 0.12499339E+03</pdfrwt>
<pdfrwt beam="1">  1       -4 0.19400572E-02 0.12499339E+03</pdfrwt>
<totfact> 0.72889055E+03</totfact>
</mgrwt>
</event>
<event>
 5    1  0.3289127E-002  0.1250038E+03  0.7818608E-02  0.1235063E+00
          4   -1    0    0  501    0  0.00000000000E+00  0.00000000000E+00  0.40944650670E+02  0.40964342037E+02  0.12700000000E+01 0. -1.
         -4   -1    0    0    0  501 -0.00000000000E+00 -0.00000000000E+00 -0.95362097593E+02  0.95370553932E+02  0.12700000000E+01 0. -1.
         25    2    1    2    0    0  0.00000000000E+00  0.00000000000E+00 -0.54417446922E+02  0.13633489597E+03  0.12500378126E+03 0.  0.
    9000005    1    3    3    0    0  0.29448483808E+02 -0.26404148634E+02  0.25562032197E+02  0.47104243479E+02  0.10000000000E+01 0.  0.
    9000005    1    3    3    0    0 -0.29448483808E+02  0.26404148634E+02 -0.79979479119E+02  0.89230652490E+02  0.10000000000E+01 0.  0.
<mgrwt>
<rscale>  0 0.12500378E+03</rscale>
<asrwt>0</asrwt>
<pdfrwt beam="1">  1        4 0.63013422E-02 0.12500378E+03</pdfrwt>
<pdfrwt beam="2">  1       -4 0.14673257E-01 0.12500378E+03</pdfrwt>
<totfact> 0.10209140E+04</totfact>
</mgrwt>
</event>
<event>
 5    1  0.3289127E-002  0.1249982E+03  0.7818608E-02  0.1235072E+00
          4   -1    0    0  501    0  0.00000000000E+00  0.00000000000E+00  0.67479575223E+02  0.67491525188E+02  0.12700000000E+01 0.  1.
         -4   -1    0    0    0  501 -0.00000000000E+00 -0.00000000000E+00 -0.57862138089E+02  0.57876073850E+02  0.12700000000E+01 0.  1.
         25    2    1    2    0    0  0.00000000000E+00  0.00000000000E+00  0.96174371335E+01  0.12536759904E+03  0.12499815915E+03 0.  0.
    9000005    1    3    3    0    0  0.30009126191E+02 -0.34043056397E+02 -0.38279373059E+02  0.59378344078E+02  0.10000000000E+01 0.  0.
    9000005    1    3    3    0    0 -0.30009126191E+02  0.34043056397E+02  0.47896810192E+02  0.65989254960E+02  0.10000000000E+01 0.  0.
<mgrwt>
<rscale>  0 0.12499816E+03</rscale>
<asrwt>0</asrwt>
<pdfrwt beam="1">  1        4 0.10383464E-01 0.12499816E+03</pdfrwt>
<pdfrwt beam="2">  1       -4 0.89038587E-02 0.12499816E+03</pdfrwt>
<totfact> 0.10445318E+04</totfact>
</mgrwt>
</event>
<event>
 5    1  0.3289127E-002  0.1250005E+03  0.7818608E-02  0.1235068E+00
          4   -1    0    0  501    0  0.00000000000E+00  0.00000000000E+00  0.15415836057E+03  0.15416359179E+03  0.12700000000E+01 0.  1.
         -4   -1    0    0    0  501 -0.00000000000E+00 -0.00000000000E+00 -0.25317830546E+02  0.25349663579E+02  0.12700000000E+01 0.  1.
         25    2    1    2    0    0  0.00000000000E+00  0.00000000000E+00  0.12884053003E+03  0.17951325537E+03  0.12500050670E+03 0.  0.
    9000005    1    3    3    0    0  0.52396884924E+02  0.16875590342E+02  0.21938328748E+02  0.59266426983E+02  0.10000000000E+01 0.  0.
    9000005    1    3    3    0    0 -0.52396884924E+02 -0.16875590342E+02  0.10690220128E+03  0.12024682839E+03  0.10000000000E+01 0.  0.
<mgrwt>
<rscale>  0 0.12500051E+03</rscale>
<asrwt>0</asrwt>
<pdfrwt beam="1">  1        4 0.23719522E-01 0.12500051E+03</pdfrwt>
<pdfrwt beam="2">  1       -4 0.38979020E-02 0.12500051E+03</pdfrwt>
<totfact> 0.93703627E+03</totfact>
</mgrwt>
</event>
<event>
 5    1  0.3289127E-002  0.1249985E+03  0.7818608E-02  0.1235072E+00
          4   -1    0    0  501    0  0.00000000000E+00  0.00000000000E+00  0.23554770623E+01  0.26760366573E+01  0.12700000000E+01 0.  1.
         -4   -1    0    0    0  501 -0.00000000000E+00 -0.00000000000E+00 -0.15523551052E+04  0.15523556247E+04  0.12700000000E+01 0.  1.
         25    2    1    2    0    0  0.00000000000E+00  0.00000000000E+00 -0.15499996281E+04  0.15550316613E+04  0.12499848239E+03 0.  0.
    9000005    1    3    3    0    0 -0.83544258517E+01 -0.32677612380E+02 -0.12054321658E+03  0.12517703402E+03  0.10000000000E+01 0.  0.
    9000005    1    3    3    0    0  0.83544258517E+01  0.32677612380E+02 -0.14294564115E+04  0.14298546273E+04  0.10000000000E+01 0.  0.
<mgrwt>
<rscale>  0 0.12499848E+03</rscale>
<asrwt>0</asrwt>
<pdfrwt beam="1">  1        4 0.38708072E-03 0.12499848E+03</pdfrwt>
<pdfrwt beam="2">  1       -4 0.23884779E+00 0.12499848E+03</pdfrwt>
<totfact> 0.16874320E+03</totfact>
</mgrwt>
</event>
<event>
 5    1  0.3289127E-002  0.1249967E+03  0.7818608E-02  0.1235075E+00
         -4   -1    0    0    0  501 -0.00000000000E+00  0.00000000000E+00  0.29435141864E+02  0.29462526649E+02  0.12700000000E+01 0.  1.
          4   -1    0    0  501    0  0.00000000000E+00 -0.00000000000E+00 -0.13260778765E+03  0.13261386898E+03  0.12700000000E+01 0.  1.
         25    2    1    2    0    0  0.00000000000E+00  0.00000000000E+00 -0.10317264578E+03  0.16207639562E+03  0.12499665268E+03 0.  0.
    9000005    1    3    3    0    0 -0.19102959760E+02  0.39222614889E+02  0.64261445416E+01  0.44109317882E+02  0.10000000000E+01 0.  0.
    9000005    1    3    3    0    0  0.19102959760E+02 -0.39222614889E+02 -0.10959879033E+03  0.11796707774E+03  0.10000000000E+01 0.  0.
<mgrwt>
<rscale>  0 0.12499665E+03</rscale>
<asrwt>0</asrwt>
<pdfrwt beam="2">  1        4 0.20403772E-01 0.12499665E+03</pdfrwt>
<pdfrwt beam="1">  1       -4 0.45310578E-02 0.12499665E+03</pdfrwt>
<totfact> 0.96951252E+03</totfact>
</mgrwt>
</event>
<event>
 5    1  0.3289127E-002  0.1250173E+03  0.7818608E-02  0.1235042E+00
         -4   -1    0    0    0  501 -0.00000000000E+00  0.00000000000E+00  0.36771301149E+03  0.36771520464E+03  0.12700000000E+01 0.  1.
          4   -1    0    0  501    0  0.00000000000E+00 -0.00000000000E+00 -0.10585852497E+02  0.10661762195E+02  0.12700000000E+01 0.  1.
         25    2    1    2    0    0  0.00000000000E+00  0.00000000000E+00  0.35712715899E+03  0.37837696683E+03  0.12501728415E+03 0.  0.
    9000005    1    3    3    0    0  0.31248956272E+02 -0.30302229539E+02  0.42817810205E+02  0.61066252987E+02  0.10000000000E+01 0.  0.
    9000005    1    3    3    0    0 -0.31248956272E+02  0.30302229539E+02  0.31430934879E+03  0.31731071384E+03  0.10000000000E+01 0.  0.
<mgrwt>
<rscale>  0 0.12501728E+03</rscale>
<asrwt>0</asrwt>
<pdfrwt beam="2">  1        4 0.16346006E-02 0.12501728E+03</pdfrwt>
<pdfrwt beam="1">  1       -4 0.56577241E-01 0.12501728E+03</pdfrwt>
<totfact> 0.66686084E+03</totfact>
</mgrwt>
</event>
<event>
 5    1  0.3289127E-002  0.1250009E+03  0.7818608E-02  0.1235068E+00
         -4   -1    0    0    0  501 -0.00000000000E+00  0.00000000000E+00  0.25081812570E+02  0.25113944768E+02  0.12700000000E+01 0.  1.
          4   -1    0    0  501    0  0.00000000000E+00 -0.00000000000E+00 -0.15560806053E+03  0.15561324301E+03  0.12700000000E+01 0.  1.
         25    2    1    2    0    0  0.00000000000E+00  0.00000000000E+00 -0.13052624796E+03  0.18072718778E+03  0.12500085999E+03 0.  0.
    9000005    1    3    3    0    0  0.21890651988E+02 -0.25403982908E+01  0.19284476432E+02  0.29300943656E+02  0.10000000000E+01 0.  0.
    9000005    1    3    3    0    0 -0.21890651988E+02  0.25403982908E+01 -0.14981072439E+03  0.15142624412E+03  0.10000000000E+01 0.  0.
<mgrwt>
<rscale>  0 0.12500086E+03</rscale>
<asrwt>0</asrwt>
<pdfrwt beam="2">  1        4 0.23942571E-01 0.12500086E+03</pdfrwt>
<pdfrwt beam="1">  1       -4 0.38616109E-02 0.12500086E+03</pdfrwt>
<totfact> 0.93484468E+03</totfact>
</mgrwt>
</event>
<event>
 5    1  0.3289127E-002  0.1249992E+03  0.7818608E-02  0.1235071E+00
         -4   -1    0    0    0  501 -0.00000000000E+00  0.00000000000E+00  0.25242696810E+03  0.25243016286E+03  0.12700000000E+01 0.  1.
          4   -1    0    0  501    0  0.00000000000E+00 -0.00000000000E+00 -0.15445208982E+02  0.15497334625E+02  0.12700000000E+01 0.  1.
         25    2    1    2    0    0  0.00000000000E+00  0.00000000000E+00  0.23698175911E+03  0.26792749749E+03  0.12499915902E+03 0.  0.
    9000005    1    3    3    0    0  0.40483956935E+02 -0.15787874145E+02  0.22227293375E+02  0.48818647154E+02  0.10000000000E+01 0.  0.
    9000005    1    3    3    0    0 -0.40483956935E+02  0.15787874145E+02  0.21475446574E+03  0.21910885033E+03  0.10000000000E+01 0.  0.
<mgrwt>
<rscale>  0 0.12499916E+03</rscale>
<asrwt>0</asrwt>
<pdfrwt beam="2">  1        4 0.23804413E-02 0.12499916E+03</pdfrwt>
<pdfrwt beam="1">  1       -4 0.38839175E-01 0.12499916E+03</pdfrwt>
<totfact> 0.79807753E+03</totfact>
</mgrwt>
</event>
<event>
 5    1  0.3289127E-002  0.1249997E+03  0.7818608E-02  0.1235070E+00
          4   -1    0    0  501    0  0.00000000000E+00  0.00000000000E+00  0.30345648202E+02  0.30372212050E+02  0.12700000000E+01 0.  1.
         -4   -1    0    0    0  501 -0.00000000000E+00 -0.00000000000E+00 -0.12863861759E+03  0.12864488655E+03  0.12700000000E+01 0.  1.
         25    2    1    2    0    0  0.00000000000E+00  0.00000000000E+00 -0.98292969389E+02  0.15901709860E+03  0.12499971926E+03 0.  0.
    9000005    1    3    3    0    0 -0.51259433410E+02  0.22998134154E+02 -0.83957320241E+02  0.10102611202E+03  0.10000000000E+01 0.  0.
    9000005    1    3    3    0    0  0.51259433410E+02 -0.22998134154E+02 -0.14335649148E+02  0.57990986580E+02  0.10000000000E+01 0.  0.
<mgrwt>
<rscale>  0 0.12499972E+03</rscale>
<asrwt>0</asrwt>
<pdfrwt beam="1">  1        4 0.46710870E-02 0.12499972E+03</pdfrwt>
<pdfrwt beam="2">  1       -4 0.19793082E-01 0.12499972E+03</pdfrwt>
<totfact> 0.97533231E+03</totfact>
</mgrwt>
</event>
<event>
 5    1  0.3289127E-002  0.1250016E+03  0.7818608E-02  0.1235067E+00
         -4   -1    0    0    0  501 -0.00000000000E+00  0.00000000000E+00  0.60709266347E+01  0.62023423159E+01  0.12700000000E+01 0.  1.
          4   -1    0    0  501    0  0.00000000000E+00 -0.00000000000E+00 -0.63642978728E+03  0.63643105443E+03  0.12700000000E+01 0.  1.
         25    2    1    2    0    0  0.00000000000E+00  0.00000000000E+00 -0.63035886065E+03  0.64263339675E+03  0.12500155764E+03 0.  0.
    9000005    1    3    3    0    0  0.12497413532E+01  0.26196931514E+02 -0.60679289195E+03  0.60736023478E+03  0.10000000000E+01 0.  0.
    9000005    1    3    3    0    0 -0.12497413532E+01 -0.26196931514E+02 -0.23565968702E+02  0.35273161965E+02  0.10000000000E+01 0.  0.
<mgrwt>
<rscale>  0 0.12500156E+03</rscale>
<asrwt>0</asrwt>
<pdfrwt beam="2">  1        4 0.97922429E-01 0.12500156E+03</pdfrwt>
<pdfrwt beam="1">  1       -4 0.94419558E-03 0.12500156E+03</pdfrwt>
<totfact> 0.46280852E+03</totfact>
</mgrwt>
</event>
<event>
 5    1  0.3289127E-002  0.1250037E+03  0.7818608E-02  0.1235064E+00
         -4   -1    0    0    0  501 -0.00000000000E+00  0.00000000000E+00  0.17534974178E+04  0.17534978777E+04  0.12700000000E+01 0. -1.
          4   -1    0    0  501    0  0.00000000000E+00 -0.00000000000E+00 -0.20463280524E+01  0.24083933437E+01  0.12700000000E+01 0. -1.
         25    2    1    2    0    0  0.00000000000E+00  0.00000000000E+00  0.17514510897E+04  0.17559062711E+04  0.12500365173E+03 0.  0.
    9000005    1    3    3    0    0  0.37814227665E+02  0.37070123954E+02  0.13418961898E+04  0.13429409868E+04  0.10000000000E+01 0.  0.
    9000005    1    3    3    0    0 -0.37814227665E+02 -0.37070123954E+02  0.40955489997E+03  0.41296528425E+03  0.10000000000E+01 0.  0.
<mgrwt>
<rscale>  0 0.12500365E+03</rscale>
<asrwt>0</asrwt>
<pdfrwt beam="2">  1        4 0.34270622E-03 0.12500365E+03</pdfrwt>
<pdfrwt beam="1">  1       -4 0.26979675E+00 0.12500365E+03</pdfrwt>
<totfact> 0.13394137E+03</totfact>
</mgrwt>
</event>
<event>
 5    1  0.3289127E-002  0.1249993E+03  0.7818608E-02  0.1235070E+00
          4   -1    0    0  501    0  0.00000000000E+00  0.00000000000E+00  0.95837993309E+01  0.96675803392E+01  0.12700000000E+01 0.  1.
         -4   -1    0    0    0  501 -0.00000000000E+00 -0.00000000000E+00 -0.40572551477E+03  0.40572750244E+03  0.12700000000E+01 0.  1.
         25    2    1    2    0    0  0.00000000000E+00  0.00000000000E+00 -0.39614171544E+03  0.41539508278E+03  0.12499926434E+03 0.  0.
    9000005    1    3    3    0    0 -0.20384242108E+02  0.21843072653E+02 -0.38046976921E+03  0.38164234885E+03  0.10000000000E+01 0.  0.
    9000005    1    3    3    0    0  0.20384242108E+02 -0.21843072653E+02 -0.15671946227E+02  0.33752733931E+02  0.10000000000E+01 0.  0.
<mgrwt>
<rscale>  0 0.12499926E+03</rscale>
<asrwt>0</asrwt>
<pdfrwt beam="1">  1        4 0.14810286E-02 0.12499926E+03</pdfrwt>
<pdfrwt beam="2">  1       -4 0.62425894E-01 0.12499926E+03</pdfrwt>
<totfact> 0.63083555E+03</totfact>
</mgrwt>
</event>
<event>
 5    1  0.3289127E-002  0.1249925E+03  0.7818608E-02  0.1235081E+00
          4   -1    0    0  501    0  0.00000000000E+00  0.00000000000E+00  0.71723841977E+02  0.71735084916E+02  0.12700000000E+01 0.  1.
         -4   -1    0    0    0  501 -0.00000000000E+00 -0.00000000000E+00 -0.54432942209E+02  0.54447755671E+02  0.12700000000E+01 0.  1.
         25    2    1    2    0    0  0.00000000000E+00  0.00000000000E+00  0.17290899767E+02  0.12618284059E+03  0.12499253595E+03 0.  0.
    9000005    1    3    3    0    0  0.21094896138E+02 -0.48027739579E+02  0.42926524937E+02  0.67788973700E+02  0.10000000000E+01 0.  0.
    9000005    1    3    3    0    0 -0.21094896138E+02  0.48027739579E+02 -0.25635625170E+02  0.58393866887E+02  0.10000000000E+01 0.  0.
<mgrwt>
<rscale>  0 0.12499254E+03</rscale>
<asrwt>0</asrwt>
<pdfrwt beam="1">  1        4 0.11036442E-01 0.12499254E+03</pdfrwt>
<pdfrwt beam="2">  1       -4 0.83763031E-02 0.12499254E+03</pdfrwt>
<totfact> 0.10428711E+04</totfact>
</mgrwt>
</event>
<event>
 5    1  0.3289127E-002  0.1249974E+03  0.7818608E-02  0.1235073E+00
         -4   -1    0    0    0  501 -0.00000000000E+00  0.00000000000E+00  0.15681503643E+02  0.15732846421E+02  0.12700000000E+01 0.  1.
          4   -1    0    0  501    0  0.00000000000E+00 -0.00000000000E+00 -0.24862859293E+03  0.24863183650E+03  0.12700000000E+01 0.  1.
         25    2    1    2    0    0  0.00000000000E+00  0.00000000000E+00 -0.23294708928E+03  0.26436468292E+03  0.12499735665E+03 0.  0.
    9000005    1    3    3    0    0  0.41705425523E+02 -0.36259846282E+02 -0.17816978020E+03  0.18654648093E+03  0.10000000000E+01 0.  0.
    9000005    1    3    3    0    0 -0.41705425523E+02  0.36259846282E+02 -0.54777309083E+02  0.77818201989E+02  0.10000000000E+01 0.  0.
<mgrwt>
<rscale>  0 0.12499736E+03</rscale>
<asrwt>0</asrwt>
<pdfrwt beam="2">  1        4 0.38254749E-01 0.12499736E+03</pdfrwt>
<pdfrwt beam="1">  1       -4 0.24167382E-02 0.12499736E+03</pdfrwt>
<totfact> 0.80302140E+03</totfact>
</mgrwt>
</event>
<event>
 5    1  0.3289127E-002  0.1250045E+03  0.7818608E-02  0.1235062E+00
         -4   -1    0    0    0  501 -0.00000000000E+00  0.00000000000E+00  0.19599022872E+02  0.19640127228E+02  0.12700000000E+01 0.  1.
          4   -1    0    0  501    0  0.00000000000E+00 -0.00000000000E+00 -0.19907072804E+03  0.19907477907E+03  0.12700000000E+01 0.  1.
         25    2    1    2    0    0  0.00000000000E+00  0.00000000000E+00 -0.17947170517E+03  0.21871490630E+03  0.12500446905E+03 0.  0.
    9000005    1    3    3    0    0  0.20763668982E+02  0.34740774559E+01 -0.19268839651E+03  0.19383760552E+03  0.10000000000E+01 0.  0.
    9000005    1    3    3    0    0 -0.20763668982E+02 -0.34740774559E+01  0.13216691345E+02  0.24877300776E+02  0.10000000000E+01 0.  0.
<mgrwt>
<rscale>  0 0.12500447E+03</rscale>
<asrwt>0</asrwt>
<pdfrwt beam="2">  1        4 0.30629738E-01 0.12500447E+03</pdfrwt>
<pdfrwt beam="1">  1       -4 0.30187079E-02 0.12500447E+03</pdfrwt>
<totfact> 0.87063417E+03</totfact>
</mgrwt>
</event>
<event>
 5    1  0.3289127E-002  0.1250004E+03  0.7818608E-02  0.1235069E+00
          4   -1    0    0  501    0  0.00000000000E+00  0.00000000000E+00  0.39787724780E+03  0.39787927467E+03  0.12700000000E+01 0.  1.
         -4   -1    0    0    0  501 -0.00000000000E+00 -0.00000000000E+00 -0.97746626223E+01  0.98568214643E+01  0.12700000000E+01 0.  1.
         25    2    1    2    0    0  0.00000000000E+00  0.00000000000E+00  0.38810258517E+03  0.40773609614E+03  0.12500042990E+03 0.  0.
    9000005    1    3    3    0    0 -0.60147306397E+02 -0.14710604445E+02  0.22157050654E+03  0.23006214317E+03  0.10000000000E+01 0.  0.
    9000005    1    3    3    0    0  0.60147306397E+02  0.14710604445E+02  0.16653207863E+03  0.17767395297E+03  0.10000000000E+01 0.  0.
<mgrwt>
<rscale>  0 0.12500043E+03</rscale>
<asrwt>0</asrwt>
<pdfrwt beam="1">  1        4 0.61218351E-01 0.12500043E+03</pdfrwt>
<pdfrwt beam="2">  1       -4 0.15102703E-02 0.12500043E+03</pdfrwt>
<totfact> 0.63806675E+03</totfact>
</mgrwt>
</event>
<event>
 5    1  0.3289127E-002  0.1249982E+03  0.7818608E-02  0.1235072E+00
         -4   -1    0    0    0  501 -0.00000000000E+00  0.00000000000E+00  0.11654225422E+02  0.11723219275E+02  0.12700000000E+01 0.  1.
          4   -1    0    0  501    0  0.00000000000E+00 -0.00000000000E+00 -0.33411000196E+03  0.33411241568E+03  0.12700000000E+01 0.  1.
         25    2    1    2    0    0  0.00000000000E+00  0.00000000000E+00 -0.32245577654E+03  0.34583563495E+03  0.12499823431E+03 0.  0.
    9000005    1    3    3    0    0  0.51386629211E+02 -0.23704743010E+02 -0.87889386678E+02  0.10453728901E+03  0.10000000000E+01 0.  0.
    9000005    1    3    3    0    0 -0.51386629211E+02  0.23704743010E+02 -0.23456638986E+03  0.24129834594E+03  0.10000000000E+01 0.  0.
<mgrwt>
<rscale>  0 0.12499823E+03</rscale>
<asrwt>0</asrwt>
<pdfrwt beam="2">  1        4 0.51407024E-01 0.12499823E+03</pdfrwt>
<pdfrwt beam="1">  1       -4 0.17984509E-02 0.12499823E+03</pdfrwt>
<totfact> 0.70187876E+03</totfact>
</mgrwt>
</event>
<event>
 5    1  0.3289127E-002  0.1249990E+03  0.7818608E-02  0.1235071E+00
          4   -1    0    0  501    0  0.00000000000E+00  0.00000000000E+00  0.55493752218E+02  0.55508282583E+02  0.12700000000E+01 0.  1.
         -4   -1    0    0    0  501 -0.00000000000E+00 -0.00000000000E+00 -0.70360224526E+02  0.70371685324E+02  0.12700000000E+01 0.  1.
         25    2    1    2    0    0  0.00000000000E+00  0.00000000000E+00 -0.14866472307E+02  0.12587996791E+03  0.12499901728E+03 0.  0.
    9000005    1    3    3    0    0 -0.42765807065E+02 -0.31436179866E+02  0.25784699515E+02  0.59016933058E+02  0.10000000000E+01 0.  0.
    9000005    1    3    3    0    0  0.42765807065E+02  0.31436179866E+02 -0.40651171822E+02  0.66863034848E+02  0.10000000000E+01 0.  0.
<mgrwt>
<rscale>  0 0.12499902E+03</rscale>
<asrwt>0</asrwt>
<pdfrwt beam="1">  1        4 0.85394997E-02 0.12499902E+03</pdfrwt>
<pdfrwt beam="2">  1       -4 0.10826649E-01 0.12499902E+03</pdfrwt>
<totfact> 0.10433821E+04</totfact>
</mgrwt>
</event>
<event>
 5    1  0.3289127E-002  0.1249957E+03  0.7818608E-02  0.1235076E+00
          4   -1    0    0  501    0  0.00000000000E+00  0.00000000000E+00  0.15873979902E+01  0.20329122901E+01  0.12700000000E+01 0.  1.
         -4   -1    0    0    0  501 -0.00000000000E+00 -0.00000000000E+00 -0.21573702116E+04  0.21573705854E+04  0.12700000000E+01 0.  1.
         25    2    1    2    0    0  0.00000000000E+00  0.00000000000E+00 -0.21557828136E+04  0.21594034977E+04  0.12499570565E+03 0.  0.
    9000005    1    3    3    0    0 -0.24526362262E+02 -0.55810161719E+02 -0.84059870008E+03  0.84280691215E+03  0.10000000000E+01 0.  0.
    9000005    1    3    3    0    0  0.24526362262E+02  0.55810161719E+02 -0.13151841135E+04  0.13165965856E+04  0.10000000000E+01 0.  0.
<mgrwt>
<rscale>  0 0.12499571E+03</rscale>
<asrwt>0</asrwt>
<pdfrwt beam="1">  1        4 0.27851589E-03 0.12499571E+03</pdfrwt>
<pdfrwt beam="2">  1       -4 0.33193535E+00 0.12499571E+03</pdfrwt>
<totfact> 0.79223931E+02</totfact>
</mgrwt>
</event>
<event>
 5    1  0.3289127E-002  0.1249994E+03  0.7818608E-02  0.1235070E+00
         -4   -1    0    0    0  501 -0.00000000000E+00  0.00000000000E+00  0.15660725379E+03  0.15661240321E+03  0.12700000000E+01 0. -1.
          4   -1    0    0  501    0  0.00000000000E+00 -0.00000000000E+00 -0.24921001753E+02  0.24953341026E+02  0.12700000000E+01 0. -1.
         25    2    1    2    0    0  0.00000000000E+00  0.00000000000E+00  0.13168625203E+03  0.18156574423E+03  0.12499940202E+03 0.  0.
    9000005    1    3    3    0    0  0.50555301264E+02  0.29769500227E+01  0.11902471595E+03  0.12935448862E+03  0.10000000000E+01 0.  0.
    9000005    1    3    3    0    0 -0.50555301264E+02 -0.29769500227E+01  0.12661536079E+02  0.52211255618E+02  0.10000000000E+01 0.  0.
<mgrwt>
<rscale>  0 0.12499940E+03</rscale>
<asrwt>0</asrwt>
<pdfrwt beam="2">  1        4 0.38368840E-02 0.12499940E+03</pdfrwt>
<pdfrwt beam="1">  1       -4 0.24096307E-01 0.12499940E+03</pdfrwt>
<totfact> 0.93337172E+03</totfact>
</mgrwt>
</event>
<event>
 5    1  0.3289127E-002  0.1249998E+03  0.7818608E-02  0.1235070E+00
          4   -1    0    0  501    0  0.00000000000E+00  0.00000000000E+00  0.16697217085E+03  0.16697700063E+03  0.12700000000E+01 0. -1.
         -4   -1    0    0    0  501 -0.00000000000E+00 -0.00000000000E+00 -0.23372141808E+02  0.23406621129E+02  0.12700000000E+01 0. -1.
         25    2    1    2    0    0  0.00000000000E+00  0.00000000000E+00  0.14360002904E+03  0.19038362175E+03  0.12499982037E+03 0.  0.
    9000005    1    3    3    0    0 -0.19390318208E+02  0.58635630916E+02  0.57261494893E+02  0.84225889431E+02  0.10000000000E+01 0.  0.
    9000005    1    3    3    0    0  0.19390318208E+02 -0.58635630916E+02  0.86338534148E+02  0.10615773232E+03  0.10000000000E+01 0.  0.
<mgrwt>
<rscale>  0 0.12499982E+03</rscale>
<asrwt>0</asrwt>
<pdfrwt beam="1">  1        4 0.25691050E-01 0.12499982E+03</pdfrwt>
<pdfrwt beam="2">  1       -4 0.35987379E-02 0.12499982E+03</pdfrwt>
<totfact> 0.91780977E+03</totfact>
</mgrwt>
</event>
<event>
 5    1  0.3289127E-002  0.1249998E+03  0.7818608E-02  0.1235070E+00
          4   -1    0    0  501    0  0.00000000000E+00  0.00000000000E+00  0.93233996506E+02  0.93242645847E+02  0.12700000000E+01 0.  1.
         -4   -1    0    0    0  501 -0.00000000000E+00 -0.00000000000E+00 -0.41876885939E+02  0.41896139153E+02  0.12700000000E+01 0.  1.
         25    2    1    2    0    0  0.00000000000E+00  0.00000000000E+00  0.51357110568E+02  0.13513878500E+03  0.12499975362E+03 0.  0.
    9000005    1    3    3    0    0  0.45644407938E+02 -0.71479787897E+01 -0.19814688682E+02  0.50280487909E+02  0.10000000000E+01 0.  0.
    9000005    1    3    3    0    0 -0.45644407938E+02  0.71479787897E+01  0.71171799249E+02  0.84858297091E+02  0.10000000000E+01 0.  0.
<mgrwt>
<rscale>  0 0.12499975E+03</rscale>
<asrwt>0</asrwt>
<pdfrwt beam="1">  1        4 0.14345838E-01 0.12499975E+03</pdfrwt>
<pdfrwt beam="2">  1       -4 0.64447443E-02 0.12499975E+03</pdfrwt>
<totfact> 0.10235203E+04</totfact>
</mgrwt>
</event>
<event>
 5    1  0.3289127E-002  0.1250019E+03  0.7818608E-02  0.1235066E+00
          4   -1    0    0  501    0  0.00000000000E+00  0.00000000000E+00  0.13017156291E+03  0.13017775805E+03  0.12700000000E+01 0. -1.
         -4   -1    0    0    0  501 -0.00000000000E+00 -0.00000000000E+00 -0.29989031769E+02  0.30015911221E+02  0.12700000000E+01 0. -1.
         25    2    1    2    0    0  0.00000000000E+00  0.00000000000E+00  0.10018253115E+03  0.16019366927E+03  0.12500188850E+03 0.  0.
    9000005    1    3    3    0    0 -0.25454529910E+02 -0.42704698461E+02  0.98616152422E+02  0.11044351444E+03  0.10000000000E+01 0.  0.
    9000005    1    3    3    0    0  0.25454529910E+02  0.42704698461E+02  0.15663787240E+01  0.49750154833E+02  0.10000000000E+01 0.  0.
<mgrwt>
<rscale>  0 0.12500189E+03</rscale>
<asrwt>0</asrwt>
<pdfrwt beam="1">  1        4 0.20028938E-01 0.12500189E+03</pdfrwt>
<pdfrwt beam="2">  1       -4 0.46162414E-02 0.12500189E+03</pdfrwt>
<totfact> 0.97301330E+03</totfact>
</mgrwt>
</event>
<event>
 5    1  0.3289127E-002  0.1250002E+03  0.7818608E-02  0.1235069E+00
          4   -1    0    0  501    0  0.00000000000E+00  0.00000000000E+00  0.88871105062E+03  0.88871195806E+03  0.12700000000E+01 0. -1.
         -4   -1    0    0    0  501 -0.00000000000E+00 -0.00000000000E+00 -0.43027552986E+01  0.44862682888E+01  0.12700000000E+01 0. -1.
         25    2    1    2    0    0  0.00000000000E+00  0.00000000000E+00  0.88440829533E+03  0.89319822635E+03  0.12500015486E+03 0.  0.
    9000005    1    3    3    0    0 -0.47952548142E+02 -0.29879851280E+02  0.25140154829E+03  0.25767419520E+03  0.10000000000E+01 0.  0.
    9000005    1    3    3    0    0  0.47952548142E+02  0.29879851280E+02  0.63300674703E+03  0.63552403115E+03  0.10000000000E+01 0.  0.
<mgrwt>
<rscale>  0 0.12500015E+03</rscale>
<asrwt>0</asrwt>
<pdfrwt beam="1">  1        4 0.13673877E+00 0.12500015E+03</pdfrwt>
<pdfrwt beam="2">  1       -4 0.67614952E-03 0.12500015E+03</pdfrwt>
<totfact> 0.34421638E+03</totfact>
</mgrwt>
</event>
<event>
 5    1  0.3289127E-002  0.1249989E+03  0.7818608E-02  0.1235071E+00
          4   -1    0    0  501    0  0.00000000000E+00  0.00000000000E+00  0.32840985685E+02  0.32865532717E+02  0.12700000000E+01 0. -1.
         -4   -1    0    0    0  501 -0.00000000000E+00 -0.00000000000E+00 -0.11886997905E+03  0.11887676316E+03  0.12700000000E+01 0. -1.
         25    2    1    2    0    0  0.00000000000E+00  0.00000000000E+00 -0.86028993363E+02  0.15174229587E+03  0.12499894663E+03 0.  0.
    9000005    1    3    3    0    0  0.34057962217E+01 -0.52379872773E+02 -0.84180308828E+02  0.99209752112E+02  0.10000000000E+01 0.  0.
    9000005    1    3    3    0    0 -0.34057962217E+01  0.52379872773E+02 -0.18486845347E+01  0.52532543763E+02  0.10000000000E+01 0.  0.
<mgrwt>
<rscale>  0 0.12499895E+03</rscale>
<asrwt>0</asrwt>
<pdfrwt beam="1">  1        4 0.50548695E-02 0.12499895E+03</pdfrwt>
<pdfrwt beam="2">  1       -4 0.18290099E-01 0.12499895E+03</pdfrwt>
<totfact> 0.98959871E+03</totfact>
</mgrwt>
</event>
<event>
 5    1  0.3289127E-002  0.1250045E+03  0.7818608E-02  0.1235062E+00
         -4   -1    0    0    0  501 -0.00000000000E+00  0.00000000000E+00  0.32734376272E+03  0.32734622633E+03  0.12700000000E+01 0.  1.
          4   -1    0    0  501    0  0.00000000000E+00 -0.00000000000E+00 -0.11897729412E+02  0.11965319267E+02  0.12700000000E+01 0.  1.
         25    2    1    2    0    0  0.00000000000E+00  0.00000000000E+00  0.31544603331E+03  0.33931154560E+03  0.12500450010E+03 0.  0.
    9000005    1    3    3    0    0 -0.37934949736E+02 -0.34258128218E+02  0.60123579825E+02  0.78921002347E+02  0.10000000000E+01 0.  0.
    9000005    1    3    3    0    0  0.37934949736E+02  0.34258128218E+02  0.25532245348E+03  0.26039054325E+03  0.10000000000E+01 0.  0.
<mgrwt>
<rscale>  0 0.12500450E+03</rscale>
<asrwt>0</asrwt>
<pdfrwt beam="2">  1        4 0.18358085E-02 0.12500450E+03</pdfrwt>
<pdfrwt beam="1">  1       -4 0.50365972E-01 0.12500450E+03</pdfrwt>
<totfact> 0.70909575E+03</totfact>
</mgrwt>
</event>
<event>
 5    1  0.3289127E-002  0.1250003E+03  0.7818608E-02  0.1235069E+00
          4   -1    0    0  501    0  0.00000000000E+00  0.00000000000E+00  0.11502497720E+04  0.11502504731E+04  0.12700000000E+01 0.  1.
         -4   -1    0    0    0  501 -0.00000000000E+00 -0.00000000000E+00 -0.32765589134E+01  0.35140771637E+01  0.12700000000E+01 0.  1.
         25    2    1    2    0    0  0.00000000000E+00  0.00000000000E+00  0.11469732130E+04  0.11537645502E+04  0.12500034370E+03 0.  0.
    9000005    1    3    3    0    0 -0.22647584823E+02 -0.57396589441E+02  0.66485513891E+03  0.66771299022E+03  0.10000000000E+01 0.  0.
    9000005    1    3    3    0    0  0.22647584823E+02  0.57396589441E+02  0.48211807413E+03  0.48605156000E+03  0.10000000000E+01 0.  0.
<mgrwt>
<rscale>  0 0.12500034E+03</rscale>
<asrwt>0</asrwt>
<pdfrwt beam="1">  1        4 0.17697998E+00 0.12500034E+03</pdfrwt>
<pdfrwt beam="2">  1       -4 0.52241011E-03 0.12500034E+03</pdfrwt>
<totfact> 0.25955788E+03</totfact>
</mgrwt>
</event>
<event>
 5    1  0.3289127E-002  0.1250012E+03  0.7818608E-02  0.1235067E+00
         -4   -1    0    0    0  501 -0.00000000000E+00  0.00000000000E+00  0.43459001538E+03  0.43459187103E+03  0.12700000000E+01 0. -1.
          4   -1    0    0  501    0  0.00000000000E+00 -0.00000000000E+00 -0.89417840965E+01  0.90315227303E+01  0.12700000000E+01 0. -1.
         25    2    1    2    0    0  0.00000000000E+00  0.00000000000E+00  0.42564823128E+03  0.44362339376E+03  0.12500119479E+03 0.  0.
    9000005    1    3    3    0    0  0.48222126161E+02 -0.25087716292E+02  0.10340592695E+03  0.11682702037E+03  0.10000000000E+01 0.  0.
    9000005    1    3    3    0    0 -0.48222126161E+02  0.25087716292E+02  0.32224230433E+03  0.32679637339E+03  0.10000000000E+01 0.  0.
<mgrwt>
<rscale>  0 0.12500119E+03</rscale>
<asrwt>0</asrwt>
<pdfrwt beam="2">  1        4 0.13827052E-02 0.12500119E+03</pdfrwt>
<pdfrwt beam="1">  1       -4 0.66867030E-01 0.12500119E+03</pdfrwt>
<totfact> 0.60518624E+03</totfact>
</mgrwt>
</event>
<event>
 5    1  0.3289127E-002  0.1250054E+03  0.7818608E-02  0.1235061E+00
          4   -1    0    0  501    0  0.00000000000E+00  0.00000000000E+00  0.85866129655E+02  0.85875521087E+02  0.12700000000E+01 0. -1.
         -4   -1    0    0    0  501 -0.00000000000E+00 -0.00000000000E+00 -0.45475535651E+02  0.45493265905E+02  0.12700000000E+01 0. -1.
         25    2    1    2    0    0  0.00000000000E+00  0.00000000000E+00  0.40390594004E+02  0.13136878699E+03  0.12500543233E+03 0.  0.
    9000005    1    3    3    0    0  0.32811423879E+02 -0.53071034285E+02  0.16484947161E+02  0.64543610838E+02  0.10000000000E+01 0.  0.
    9000005    1    3    3    0    0 -0.32811423879E+02  0.53071034285E+02  0.23905646843E+02  0.66825176154E+02  0.10000000000E+01 0.  0.
<mgrwt>
<rscale>  0 0.12500543E+03</rscale>
<asrwt>0</asrwt>
<pdfrwt beam="1">  1        4 0.13212260E-01 0.12500543E+03</pdfrwt>
<pdfrwt beam="2">  1       -4 0.69983226E-02 0.12500543E+03</pdfrwt>
<totfact> 0.10313926E+04</totfact>
</mgrwt>
</event>
<event>
 5    1  0.3289127E-002  0.1249948E+03  0.7818608E-02  0.1235077E+00
          4   -1    0    0  501    0  0.00000000000E+00  0.00000000000E+00  0.25781833358E+03  0.25782146154E+03  0.12700000000E+01 0.  1.
         -4   -1    0    0    0  501 -0.00000000000E+00 -0.00000000000E+00 -0.15120069633E+02  0.15173312285E+02  0.12700000000E+01 0.  1.
         25    2    1    2    0    0  0.00000000000E+00  0.00000000000E+00  0.24269826395E+03  0.27299477383E+03  0.12499479674E+03 0.  0.
    9000005    1    3    3    0    0  0.25758251114E+02 -0.55763355362E+02  0.96267203453E+02  0.11419900946E+03  0.10000000000E+01 0.  0.
    9000005    1    3    3    0    0 -0.25758251114E+02  0.55763355362E+02  0.14643106050E+03  0.15879576437E+03  0.10000000000E+01 0.  0.
<mgrwt>
<rscale>  0 0.12499480E+03</rscale>
<asrwt>0</asrwt>
<pdfrwt beam="1">  1        4 0.39668696E-01 0.12499480E+03</pdfrwt>
<pdfrwt beam="2">  1       -4 0.23305007E-02 0.12499480E+03</pdfrwt>
<totfact> 0.79125364E+03</totfact>
</mgrwt>
</event>
<event>
 5    1  0.3289127E-002  0.1249959E+03  0.7818608E-02  0.1235076E+00
          4   -1    0    0  501    0  0.00000000000E+00  0.00000000000E+00  0.81952255229E+02  0.81962095124E+02  0.12700000000E+01 0. -1.
         -4   -1    0    0    0  501 -0.00000000000E+00 -0.00000000000E+00 -0.47640626154E+02  0.47657550926E+02  0.12700000000E+01 0. -1.
         25    2    1    2    0    0  0.00000000000E+00  0.00000000000E+00  0.34311629075E+02  0.12961964605E+03  0.12499585894E+03 0.  0.
    9000005    1    3    3    0    0  0.26382865115E+02  0.48233808907E+02 -0.13648861163E+02  0.56655514333E+02  0.10000000000E+01 0.  0.
    9000005    1    3    3    0    0 -0.26382865115E+02 -0.48233808907E+02  0.47960490237E+02  0.72964131717E+02  0.10000000000E+01 0.  0.
<mgrwt>
<rscale>  0 0.12499586E+03</rscale>
<asrwt>0</asrwt>
<pdfrwt beam="1">  1        4 0.12610098E-01 0.12499586E+03</pdfrwt>
<pdfrwt beam="2">  1       -4 0.73313860E-02 0.12499586E+03</pdfrwt>
<totfact> 0.10353619E+04</totfact>
</mgrwt>
</event>
<event>
 5    1  0.3289127E-002  0.1249957E+03  0.7818608E-02  0.1235076E+00
         -4   -1    0    0    0  501 -0.00000000000E+00  0.00000000000E+00  0.46983885316E+02  0.47001046577E+02  0.12700000000E+01 0.  1.
          4   -1    0    0  501    0  0.00000000000E+00 -0.00000000000E+00 -0.83097309474E+02  0.83107013795E+02  0.12700000000E+01 0.  1.
         25    2    1    2    0    0  0.00000000000E+00  0.00000000000E+00 -0.36113424159E+02  0.13010806037E+03  0.12499571180E+03 0.  0.
    9000005    1    3    3    0    0 -0.77846088528E+01 -0.61480731062E+02 -0.26416479903E+02  0.67374407882E+02  0.10000000000E+01 0.  0.
    9000005    1    3    3    0    0  0.77846088528E+01  0.61480731062E+02 -0.96969442553E+01  0.62733652491E+02  0.10000000000E+01 0.  0.
<mgrwt>
<rscale>  0 0.12499571E+03</rscale>
<asrwt>0</asrwt>
<pdfrwt beam="2">  1        4 0.12786268E-01 0.12499571E+03</pdfrwt>
<pdfrwt beam="1">  1       -4 0.72303567E-02 0.12499571E+03</pdfrwt>
<totfact> 0.10343198E+04</totfact>
</mgrwt>
</event>
<event>
 5    1  0.3289127E-002  0.1249976E+03  0.7818608E-02  0.1235073E+00
          4   -1    0    0  501    0  0.00000000000E+00  0.00000000000E+00  0.42370809482E+02  0.42389838360E+02  0.12700000000E+01 0. -1.
         -4   -1    0    0    0  501 -0.00000000000E+00 -0.00000000000E+00 -0.92144410953E+02  0.92153162561E+02  0.12700000000E+01 0. -1.
         25    2    1    2    0    0  0.00000000000E+00  0.00000000000E+00 -0.49773601471E+02  0.13454300092E+03  0.12499763075E+03 0.  0.
    9000005    1    3    3    0    0 -0.39515143095E+02  0.34766562708E+01 -0.76860472016E+02  0.86498935433E+02  0.10000000000E+01 0.  0.
    9000005    1    3    3    0    0  0.39515143095E+02 -0.34766562708E+01  0.27086870545E+02  0.48044065487E+02  0.10000000000E+01 0.  0.
<mgrwt>
<rscale>  0 0.12499763E+03</rscale>
<asrwt>0</asrwt>
<pdfrwt beam="1">  1        4 0.65207231E-02 0.12499763E+03</pdfrwt>
<pdfrwt beam="2">  1       -4 0.14178200E-01 0.12499763E+03</pdfrwt>
<totfact> 0.10248260E+04</totfact>
</mgrwt>
</event>
<event>
 5    1  0.3289127E-002  0.1250022E+03  0.7818608E-02  0.1235066E+00
          4   -1    0    0  501    0  0.00000000000E+00  0.00000000000E+00  0.12723619148E+03  0.12724252953E+03  0.12700000000E+01 0. -1.
         -4   -1    0    0    0  501 -0.00000000000E+00 -0.00000000000E+00 -0.30681625498E+02  0.30707898710E+02  0.12700000000E+01 0. -1.
         25    2    1    2    0    0  0.00000000000E+00  0.00000000000E+00  0.96554565978E+02  0.15795042824E+03  0.12500221426E+03 0.  0.
    9000005    1    3    3    0    0 -0.23655746060E+02  0.21516636735E+02 -0.19566881535E+02  0.37502304342E+02  0.10000000000E+01 0.  0.
    9000005    1    3    3    0    0  0.23655746060E+02 -0.21516636735E+02  0.11612144751E+03  0.12044812390E+03  0.10000000000E+01 0.  0.
<mgrwt>
<rscale>  0 0.12500221E+03</rscale>
<asrwt>0</asrwt>
<pdfrwt beam="1">  1        4 0.19577307E-01 0.12500221E+03</pdfrwt>
<pdfrwt beam="2">  1       -4 0.47227588E-02 0.12500221E+03</pdfrwt>
<totfact> 0.97734522E+03</totfact>
</mgrwt>
</event>
<event>
 5    1  0.3289127E-002  0.1249956E+03  0.7818608E-02  0.1235076E+00
          4   -1    0    0  501    0  0.00000000000E+00  0.00000000000E+00  0.78728361968E+02  0.78738604751E+02  0.12700000000E+01 0.  1.
         -4   -1    0    0    0  501 -0.00000000000E+00 -0.00000000000E+00 -0.49591716205E+02  0.49607975328E+02  0.12700000000E+01 0.  1.
         25    2    1    2    0    0  0.00000000000E+00  0.00000000000E+00  0.29136645763E+02  0.12834658008E+03  0.12499560189E+03 0.  0.
    9000005    1    3    3    0    0 -0.29653034518E+02 -0.53379695808E+02  0.93530500936E+00  0.61078385507E+02  0.10000000000E+01 0.  0.
    9000005    1    3    3    0    0  0.29653034518E+02  0.53379695808E+02  0.28201340753E+02  0.67268194572E+02  0.10000000000E+01 0.  0.
<mgrwt>
<rscale>  0 0.12499560E+03</rscale>
<asrwt>0</asrwt>
<pdfrwt beam="1">  1        4 0.12114094E-01 0.12499560E+03</pdfrwt>
<pdfrwt beam="2">  1       -4 0.76315335E-02 0.12499560E+03</pdfrwt>
<totfact> 0.10381040E+04</totfact>
</mgrwt>
</event>
<event>
 5    1  0.3289127E-002  0.1249997E+03  0.7818608E-02  0.1235070E+00
          4   -1    0    0  501    0  0.00000000000E+00  0.00000000000E+00  0.33693716513E+02  0.33717642748E+02  0.12700000000E+01 0. -1.
         -4   -1    0    0    0  501 -0.00000000000E+00 -0.00000000000E+00 -0.11586494292E+03  0.11587190297E+03  0.12700000000E+01 0. -1.
         25    2    1    2    0    0  0.00000000000E+00  0.00000000000E+00 -0.82171226408E+02  0.14958954572E+03  0.12499968696E+03 0.  0.
    9000005    1    3    3    0    0  0.16527908719E+02  0.53715233037E+02 -0.73787651131E+02  0.92758371516E+02  0.10000000000E+01 0.  0.
    9000005    1    3    3    0    0 -0.16527908719E+02 -0.53715233037E+02 -0.83835752763E+01  0.56831174202E+02  0.10000000000E+01 0.  0.
<mgrwt>
<rscale>  0 0.12499969E+03</rscale>
<asrwt>0</asrwt>
<pdfrwt beam="1">  1        4 0.51860246E-02 0.12499969E+03</pdfrwt>
<pdfrwt beam="2">  1       -4 0.17827752E-01 0.12499969E+03</pdfrwt>
<totfact> 0.99386279E+03</totfact>
</mgrwt>
</event>
<event>
 5    1  0.3289127E-002  0.1249849E+03  0.7818608E-02  0.1235093E+00
         -4   -1    0    0    0  501 -0.00000000000E+00  0.00000000000E+00  0.20692418555E+02  0.20731355133E+02  0.12700000000E+01 0. -1.
          4   -1    0    0  501    0  0.00000000000E+00 -0.00000000000E+00 -0.18851291162E+03  0.18851718952E+03  0.12700000000E+01 0. -1.
         25    2    1    2    0    0  0.00000000000E+00  0.00000000000E+00 -0.16782049306E+03  0.20924854466E+03  0.12498494129E+03 0.  0.
    9000005    1    3    3    0    0 -0.17864516912E+02  0.53128013570E+02 -0.13014281890E+03  0.14170349362E+03  0.10000000000E+01 0.  0.
    9000005    1    3    3    0    0  0.17864516912E+02 -0.53128013570E+02 -0.37677674156E+02  0.67545051041E+02  0.10000000000E+01 0.  0.
<mgrwt>
<rscale>  0 0.12498494E+03</rscale>
<asrwt>0</asrwt>
<pdfrwt beam="2">  1        4 0.29005310E-01 0.12498494E+03</pdfrwt>
<pdfrwt beam="1">  1       -4 0.31867733E-02 0.12498494E+03</pdfrwt>
<totfact> 0.88628587E+03</totfact>
</mgrwt>
</event>
<event>
 5    1  0.3289127E-002  0.1249949E+03  0.7818608E-02  0.1235077E+00
          4   -1    0    0  501    0  0.00000000000E+00  0.00000000000E+00  0.43054436214E+01  0.44888467090E+01  0.12700000000E+01 0. -1.
         -4   -1    0    0    0  501 -0.00000000000E+00 -0.00000000000E+00 -0.88810422068E+03  0.88810512874E+03  0.12700000000E+01 0. -1.
         25    2    1    2    0    0  0.00000000000E+00  0.00000000000E+00 -0.88379877706E+03  0.89259397545E+03  0.12499490659E+03 0.  0.
    9000005    1    3    3    0    0 -0.31141047372E+01  0.60182027407E+02 -0.55996602988E+03  0.56320025630E+03  0.10000000000E+01 0.  0.
    9000005    1    3    3    0    0  0.31141047372E+01 -0.60182027407E+02 -0.32383274718E+03  0.32939371915E+03  0.10000000000E+01 0.  0.
<mgrwt>
<rscale>  0 0.12499491E+03</rscale>
<asrwt>0</asrwt>
<pdfrwt beam="1">  1        4 0.67655443E-03 0.12499491E+03</pdfrwt>
<pdfrwt beam="2">  1       -4 0.13664545E+00 0.12499491E+03</pdfrwt>
<totfact> 0.34448633E+03</totfact>
</mgrwt>
</event>
<event>
 5    1  0.3289127E-002  0.1249972E+03  0.7818608E-02  0.1235074E+00
         -4   -1    0    0    0  501 -0.00000000000E+00  0.00000000000E+00  0.38921750113E+02  0.38942464379E+02  0.12700000000E+01 0.  1.
          4   -1    0    0  501    0  0.00000000000E+00 -0.00000000000E+00 -0.10030577010E+03  0.10031380969E+03  0.12700000000E+01 0.  1.
         25    2    1    2    0    0  0.00000000000E+00  0.00000000000E+00 -0.61384019986E+02  0.13925627407E+03  0.12499724780E+03 0.  0.
    9000005    1    3    3    0    0 -0.41104429461E+02  0.37265418469E+02  0.13420933707E+01  0.55507537772E+02  0.10000000000E+01 0.  0.
    9000005    1    3    3    0    0  0.41104429461E+02 -0.37265418469E+02 -0.62726113357E+02  0.83748736300E+02  0.10000000000E+01 0.  0.
<mgrwt>
<rscale>  0 0.12499725E+03</rscale>
<asrwt>0</asrwt>
<pdfrwt beam="2">  1        4 0.15433869E-01 0.12499725E+03</pdfrwt>
<pdfrwt beam="1">  1       -4 0.59901734E-02 0.12499725E+03</pdfrwt>
<totfact> 0.10149652E+04</totfact>
</mgrwt>
</event>
<event>
 5    1  0.3289127E-002  0.1250033E+03  0.7818608E-02  0.1235064E+00
          4   -1    0    0  501    0  0.00000000000E+00  0.00000000000E+00  0.14953520431E+02  0.15007353973E+02  0.12700000000E+01 0.  1.
         -4   -1    0    0    0  501 -0.00000000000E+00 -0.00000000000E+00 -0.26071510043E+03  0.26071819363E+03  0.12700000000E+01 0.  1.
         25    2    1    2    0    0  0.00000000000E+00  0.00000000000E+00 -0.24576157999E+03  0.27572554760E+03  0.12500329356E+03 0.  0.
    9000005    1    3    3    0    0  0.33227196850E+02  0.45369707525E+02 -0.62756545636E+02  0.84272421299E+02  0.10000000000E+01 0.  0.
    9000005    1    3    3    0    0 -0.33227196850E+02 -0.45369707525E+02 -0.18300503436E+03  0.19145312630E+03  0.10000000000E+01 0.  0.
<mgrwt>
<rscale>  0 0.12500329E+03</rscale>
<asrwt>0</asrwt>
<pdfrwt beam="1">  1        4 0.23049208E-02 0.12500329E+03</pdfrwt>
<pdfrwt beam="2">  1       -4 0.40114391E-01 0.12500329E+03</pdfrwt>
<totfact> 0.78742536E+03</totfact>
</mgrwt>
</event>
<event>
 5    1  0.3289127E-002  0.1250046E+03  0.7818608E-02  0.1235062E+00
         -4   -1    0    0    0  501 -0.00000000000E+00  0.00000000000E+00  0.27483298498E+02  0.27512626125E+02  0.12700000000E+01 0.  1.
          4   -1    0    0  501    0  0.00000000000E+00 -0.00000000000E+00 -0.14203416919E+03  0.14203984694E+03  0.12700000000E+01 0.  1.
         25    2    1    2    0    0  0.00000000000E+00  0.00000000000E+00 -0.11455087069E+03  0.16955247306E+03  0.12500455650E+03 0.  0.
    9000005    1    3    3    0    0  0.28468443887E+01  0.61968816655E+02 -0.47008506934E+02  0.77839825827E+02  0.10000000000E+01 0.  0.
    9000005    1    3    3    0    0 -0.28468443887E+01 -0.61968816655E+02 -0.67542363758E+02  0.91712647234E+02  0.10000000000E+01 0.  0.
<mgrwt>
<rscale>  0 0.12500456E+03</rscale>
<asrwt>0</asrwt>
<pdfrwt beam="2">  1        4 0.21854103E-01 0.12500456E+03</pdfrwt>
<pdfrwt beam="1">  1       -4 0.42308926E-02 0.12500456E+03</pdfrwt>
<totfact> 0.95522332E+03</totfact>
</mgrwt>
</event>
<event>
 5    1  0.3289127E-002  0.1249995E+03  0.7818608E-02  0.1235070E+00
         -4   -1    0    0    0  501 -0.00000000000E+00  0.00000000000E+00  0.13367844798E+03  0.13368448060E+03  0.12700000000E+01 0.  1.
          4   -1    0    0  501    0  0.00000000000E+00 -0.00000000000E+00 -0.29200516148E+02  0.29228120763E+02  0.12700000000E+01 0.  1.
         25    2    1    2    0    0  0.00000000000E+00  0.00000000000E+00  0.10447793183E+03  0.16291260136E+03  0.12499950977E+03 0.  0.
    9000005    1    3    3    0    0 -0.14185731673E+02 -0.20354804815E+02 -0.22512943683E+02  0.33516946392E+02  0.10000000000E+01 0.  0.
    9000005    1    3    3    0    0  0.14185731673E+02  0.20354804815E+02  0.12699087551E+03  0.12939565497E+03  0.10000000000E+01 0.  0.
<mgrwt>
<rscale>  0 0.12499951E+03</rscale>
<asrwt>0</asrwt>
<pdfrwt beam="2">  1        4 0.44949746E-02 0.12499951E+03</pdfrwt>
<pdfrwt beam="1">  1       -4 0.20568502E-01 0.12499951E+03</pdfrwt>
<totfact> 0.96785245E+03</totfact>
</mgrwt>
</event>
<event>
 5    1  0.3289127E-002  0.1249987E+03  0.7818608E-02  0.1235071E+00
          4   -1    0    0  501    0  0.00000000000E+00  0.00000000000E+00  0.87659989820E+02  0.87669189087E+02  0.12700000000E+01 0. -1.
         -4   -1    0    0    0  501 -0.00000000000E+00 -0.00000000000E+00 -0.44539857848E+02  0.44557960424E+02  0.12700000000E+01 0. -1.
         25    2    1    2    0    0  0.00000000000E+00  0.00000000000E+00  0.43120131971E+02  0.13222714951E+03  0.12499869314E+03 0.  0.
    9000005    1    3    3    0    0  0.17790581180E+02 -0.56022353540E+02 -0.88383517319E+00  0.58794472865E+02  0.10000000000E+01 0.  0.
    9000005    1    3    3    0    0 -0.17790581180E+02  0.56022353540E+02  0.44003967144E+02  0.73432676646E+02  0.10000000000E+01 0.  0.
<mgrwt>
<rscale>  0 0.12499869E+03</rscale>
<asrwt>0</asrwt>
<pdfrwt beam="1">  1        4 0.13488252E-01 0.12499869E+03</pdfrwt>
<pdfrwt beam="2">  1       -4 0.68543859E-02 0.12499869E+03</pdfrwt>
<totfact> 0.10297156E+04</totfact>
</mgrwt>
</event>
<event>
 5    1  0.3289127E-002  0.1249926E+03  0.7818608E-02  0.1235081E+00
          4   -1    0    0  501    0  0.00000000000E+00  0.00000000000E+00  0.27934250637E+02  0.27963105311E+02  0.12700000000E+01 0.  1.
         -4   -1    0    0    0  501 -0.00000000000E+00 -0.00000000000E+00 -0.13971686437E+03  0.13972263628E+03  0.12700000000E+01 0.  1.
         25    2    1    2    0    0  0.00000000000E+00  0.00000000000E+00 -0.11178261373E+03  0.16768574159E+03  0.12499262058E+03 0.  0.
    9000005    1    3    3    0    0 -0.41211634033E+02 -0.44515359200E+02 -0.76004621872E+02  0.97250802209E+02  0.10000000000E+01 0.  0.
    9000005    1    3    3    0    0  0.41211634033E+02  0.44515359200E+02 -0.35777991861E+02  0.70434939384E+02  0.10000000000E+01 0.  0.
<mgrwt>
<rscale>  0 0.12499262E+03</rscale>
<asrwt>0</asrwt>
<pdfrwt beam="1">  1        4 0.43002407E-02 0.12499262E+03</pdfrwt>
<pdfrwt beam="2">  1       -4 0.21497565E-01 0.12499262E+03</pdfrwt>
<totfact> 0.95897052E+03</totfact>
</mgrwt>
</event>
<event>
 5    1  0.3289127E-002  0.1249983E+03  0.7818608E-02  0.1235072E+00
          4   -1    0    0  501    0  0.00000000000E+00  0.00000000000E+00  0.10652520090E+03  0.10653277114E+03  0.12700000000E+01 0. -1.
         -4   -1    0    0    0  501 -0.00000000000E+00 -0.00000000000E+00 -0.36648861555E+02  0.36670859729E+02  0.12700000000E+01 0. -1.
         25    2    1    2    0    0  0.00000000000E+00  0.00000000000E+00  0.69876339347E+02  0.14320363087E+03  0.12499830837E+03 0.  0.
    9000005    1    3    3    0    0  0.48531731048E+02  0.37643252854E+02  0.21735846683E+02  0.65159730163E+02  0.10000000000E+01 0.  0.
    9000005    1    3    3    0    0 -0.48531731048E+02 -0.37643252854E+02  0.48140492665E+02  0.78043900709E+02  0.10000000000E+01 0.  0.
<mgrwt>
<rscale>  0 0.12499831E+03</rscale>
<asrwt>0</asrwt>
<pdfrwt beam="1">  1        4 0.16390767E-01 0.12499831E+03</pdfrwt>
<pdfrwt beam="2">  1       -4 0.56405609E-02 0.12499831E+03</pdfrwt>
<totfact> 0.10067999E+04</totfact>
</mgrwt>
</event>
<event>
 5    1  0.3289127E-002  0.1250041E+03  0.7818608E-02  0.1235063E+00
          4   -1    0    0  501    0  0.00000000000E+00  0.00000000000E+00  0.97510080876E+02  0.97518350952E+02  0.12700000000E+01 0. -1.
         -4   -1    0    0    0  501 -0.00000000000E+00 -0.00000000000E+00 -0.40042533031E+02  0.40062667803E+02  0.12700000000E+01 0. -1.
         25    2    1    2    0    0  0.00000000000E+00  0.00000000000E+00  0.57467547845E+02  0.13758101876E+03  0.12500407060E+03 0.  0.
    9000005    1    3    3    0    0 -0.40192690995E+02  0.13968131546E+02  0.79109405368E+02  0.89832394636E+02  0.10000000000E+01 0.  0.
    9000005    1    3    3    0    0  0.40192690995E+02 -0.13968131546E+02 -0.21641857523E+02  0.47748624120E+02  0.10000000000E+01 0.  0.
<mgrwt>
<rscale>  0 0.12500407E+03</rscale>
<asrwt>0</asrwt>
<pdfrwt beam="1">  1        4 0.15003736E-01 0.12500407E+03</pdfrwt>
<pdfrwt beam="2">  1       -4 0.61625747E-02 0.12500407E+03</pdfrwt>
<totfact> 0.10183017E+04</totfact>
</mgrwt>
</event>
<event>
 5    1  0.3289127E-002  0.1249999E+03  0.7818608E-02  0.1235069E+00
         -4   -1    0    0    0  501 -0.00000000000E+00  0.00000000000E+00  0.19515251516E+02  0.19556531946E+02  0.12700000000E+01 0.  1.
          4   -1    0    0  501    0  0.00000000000E+00 -0.00000000000E+00 -0.19990895117E+03  0.19991298521E+03  0.12700000000E+01 0.  1.
         25    2    1    2    0    0  0.00000000000E+00  0.00000000000E+00 -0.18039369965E+03  0.21946951716E+03  0.12499992835E+03 0.  0.
    9000005    1    3    3    0    0  0.50930656014E+02 -0.20327955942E+02 -0.14281358447E+03  0.15298325864E+03  0.10000000000E+01 0.  0.
    9000005    1    3    3    0    0 -0.50930656014E+02  0.20327955942E+02 -0.37580115181E+02  0.66486258519E+02  0.10000000000E+01 0.  0.
<mgrwt>
<rscale>  0 0.12499993E+03</rscale>
<asrwt>0</asrwt>
<pdfrwt beam="2">  1        4 0.30758708E-01 0.12499993E+03</pdfrwt>
<pdfrwt beam="1">  1       -4 0.30058323E-02 0.12499993E+03</pdfrwt>
<totfact> 0.86952501E+03</totfact>
</mgrwt>
</event>
<event>
 5    1  0.3289127E-002  0.1250105E+03  0.7818608E-02  0.1235053E+00
         -4   -1    0    0    0  501 -0.00000000000E+00  0.00000000000E+00  0.10841381533E+02  0.10915514351E+02  0.12700000000E+01 0.  1.
          4   -1    0    0  501    0  0.00000000000E+00 -0.00000000000E+00 -0.35906685313E+03  0.35906909908E+03  0.12700000000E+01 0.  1.
         25    2    1    2    0    0  0.00000000000E+00  0.00000000000E+00 -0.34822547159E+03  0.36998461343E+03  0.12501053999E+03 0.  0.
    9000005    1    3    3    0    0 -0.43402390694E+02  0.44340283606E+02 -0.15194899787E+03  0.16413203899E+03  0.10000000000E+01 0.  0.
    9000005    1    3    3    0    0  0.43402390694E+02 -0.44340283606E+02 -0.19627647372E+03  0.20585257445E+03  0.10000000000E+01 0.  0.
<mgrwt>
<rscale>  0 0.12501054E+03</rscale>
<asrwt>0</asrwt>
<pdfrwt beam="2">  1        4 0.55246921E-01 0.12501054E+03</pdfrwt>
<pdfrwt beam="1">  1       -4 0.16737804E-02 0.12501054E+03</pdfrwt>
<totfact> 0.67564806E+03</totfact>
</mgrwt>
</event>
<event>
 5    1  0.3289127E-002  0.1250013E+03  0.7818608E-02  0.1235067E+00
          4   -1    0    0  501    0  0.00000000000E+00  0.00000000000E+00  0.11284706882E+03  0.11285421499E+03  0.12700000000E+01 0. -1.
         -4   -1    0    0    0  501 -0.00000000000E+00 -0.00000000000E+00 -0.34596238403E+02  0.34619540893E+02  0.12700000000E+01 0. -1.
         25    2    1    2    0    0  0.00000000000E+00  0.00000000000E+00  0.78250830415E+02  0.14747375588E+03  0.12500126485E+03 0.  0.
    9000005    1    3    3    0    0 -0.15553517305E+02 -0.34131651295E+01 -0.32168405654E+02  0.35907769620E+02  0.10000000000E+01 0.  0.
    9000005    1    3    3    0    0  0.15553517305E+02  0.34131651295E+01  0.11041923607E+03  0.11156598626E+03  0.10000000000E+01 0.  0.
<mgrwt>
<rscale>  0 0.12500126E+03</rscale>
<asrwt>0</asrwt>
<pdfrwt beam="1">  1        4 0.17363430E-01 0.12500126E+03</pdfrwt>
<pdfrwt beam="2">  1       -4 0.53248405E-02 0.12500126E+03</pdfrwt>
<totfact> 0.99806829E+03</totfact>
</mgrwt>
</event>
<event>
 5    1  0.3289127E-002  0.1250139E+03  0.7818608E-02  0.1235048E+00
         -4   -1    0    0    0  501 -0.00000000000E+00  0.00000000000E+00  0.71135159878E+03  0.71135273247E+03  0.12700000000E+01 0.  1.
          4   -1    0    0  501    0  0.00000000000E+00 -0.00000000000E+00 -0.54179641756E+01  0.55648212737E+01  0.12700000000E+01 0.  1.
         25    2    1    2    0    0  0.00000000000E+00  0.00000000000E+00  0.70593363461E+03  0.71691755374E+03  0.12501392880E+03 0.  0.
    9000005    1    3    3    0    0 -0.17332510756E+02  0.42321427021E+02  0.59725442765E+03  0.59900364812E+03  0.10000000000E+01 0.  0.
    9000005    1    3    3    0    0  0.17332510756E+02 -0.42321427021E+02  0.10867920696E+03  0.11791390563E+03  0.10000000000E+01 0.  0.
<mgrwt>
<rscale>  0 0.12501393E+03</rscale>
<asrwt>0</asrwt>
<pdfrwt beam="2">  1        4 0.84491736E-03 0.12501393E+03</pdfrwt>
<pdfrwt beam="1">  1       -4 0.10945003E+00 0.12501393E+03</pdfrwt>
<totfact> 0.42195719E+03</totfact>
</mgrwt>
</event>
<event>
 5    1  0.3289127E-002  0.1249996E+03  0.7818608E-02  0.1235070E+00
          4   -1    0    0  501    0  0.00000000000E+00  0.00000000000E+00  0.19114274044E+03  0.19114695949E+03  0.12700000000E+01 0. -1.
         -4   -1    0    0    0  501 -0.00000000000E+00 -0.00000000000E+00 -0.20411992919E+02  0.20451463394E+02  0.12700000000E+01 0. -1.
         25    2    1    2    0    0  0.00000000000E+00  0.00000000000E+00  0.17073074752E+03  0.21159842288E+03  0.12499961767E+03 0.  0.
    9000005    1    3    3    0    0 -0.54899436803E+02 -0.19056831144E+01  0.34931338347E+02  0.65105899795E+02  0.10000000000E+01 0.  0.
    9000005    1    3    3    0    0  0.54899436803E+02  0.19056831144E+01  0.13579940917E+03  0.14649252309E+03  0.10000000000E+01 0.  0.
<mgrwt>
<rscale>  0 0.12499962E+03</rscale>
<asrwt>0</asrwt>
<pdfrwt beam="1">  1        4 0.29409935E-01 0.12499962E+03</pdfrwt>
<pdfrwt beam="2">  1       -4 0.31436674E-02 0.12499962E+03</pdfrwt>
<totfact> 0.88216255E+03</totfact>
</mgrwt>
</event>
<event>
 5    1  0.3289127E-002  0.1249974E+03  0.7818608E-02  0.1235073E+00
          4   -1    0    0  501    0  0.00000000000E+00  0.00000000000E+00  0.40318004113E+02  0.40338001384E+02  0.12700000000E+01 0. -1.
         -4   -1    0    0    0  501 -0.00000000000E+00 -0.00000000000E+00 -0.96833852229E+02  0.96842180053E+02  0.12700000000E+01 0. -1.
         25    2    1    2    0    0  0.00000000000E+00  0.00000000000E+00 -0.56515848116E+02  0.13718018144E+03  0.12499744434E+03 0.  0.
    9000005    1    3    3    0    0 -0.16246951031E+02 -0.55134805720E+02 -0.55168849791E+02  0.79676923929E+02  0.10000000000E+01 0.  0.
    9000005    1    3    3    0    0  0.16246951031E+02  0.55134805720E+02 -0.13469983251E+01  0.57503257508E+02  0.10000000000E+01 0.  0.
<mgrwt>
<rscale>  0 0.12499744E+03</rscale>
<asrwt>0</asrwt>
<pdfrwt beam="1">  1        4 0.62049488E-02 0.12499744E+03</pdfrwt>
<pdfrwt beam="2">  1       -4 0.14899694E-01 0.12499744E+03</pdfrwt>
<totfact> 0.10192907E+04</totfact>
</mgrwt>
</event>
<event>
 5    1  0.3289127E-002  0.1250171E+03  0.7818608E-02  0.1235043E+00
          4   -1    0    0  501    0  0.00000000000E+00  0.00000000000E+00  0.25401541780E+02  0.25433270038E+02  0.12700000000E+01 0.  1.
         -4   -1    0    0    0  501 -0.00000000000E+00 -0.00000000000E+00 -0.15369163375E+03  0.15369688086E+03  0.12700000000E+01 0.  1.
         25    2    1    2    0    0  0.00000000000E+00  0.00000000000E+00 -0.12829009197E+03  0.17913015089E+03  0.12501705188E+03 0.  0.
    9000005    1    3    3    0    0 -0.37652589466E+02 -0.21491948443E+02 -0.12865007578E+03  0.13576252553E+03  0.10000000000E+01 0.  0.
    9000005    1    3    3    0    0  0.37652589466E+02  0.21491948443E+02  0.35998380421E+00  0.43367625364E+02  0.10000000000E+01 0.  0.
<mgrwt>
<rscale>  0 0.12501705E+03</rscale>
<asrwt>0</asrwt>
<pdfrwt beam="1">  1        4 0.39107739E-02 0.12501705E+03</pdfrwt>
<pdfrwt beam="2">  1       -4 0.23647710E-01 0.12501705E+03</pdfrwt>
<totfact> 0.93737967E+03</totfact>
</mgrwt>
</event>
<event>
 5    1  0.3289127E-002  0.1249998E+03  0.7818608E-02  0.1235070E+00
          4   -1    0    0  501    0  0.00000000000E+00  0.00000000000E+00  0.10200484856E+03  0.10201275425E+03  0.12700000000E+01 0.  1.
         -4   -1    0    0    0  501 -0.00000000000E+00 -0.00000000000E+00 -0.38274731503E+02  0.38295795743E+02  0.12700000000E+01 0.  1.
         25    2    1    2    0    0  0.00000000000E+00  0.00000000000E+00  0.63730117059E+02  0.14030855000E+03  0.12499984553E+03 0.  0.
    9000005    1    3    3    0    0  0.55431754439E+02  0.14395305949E+02  0.59934347701E+02  0.82903740976E+02  0.10000000000E+01 0.  0.
    9000005    1    3    3    0    0 -0.55431754439E+02 -0.14395305949E+02  0.37957693578E+01  0.57404809019E+02  0.10000000000E+01 0.  0.
<mgrwt>
<rscale>  0 0.12499985E+03</rscale>
<asrwt>0</asrwt>
<pdfrwt beam="1">  1        4 0.15695282E-01 0.12499985E+03</pdfrwt>
<pdfrwt beam="2">  1       -4 0.58906488E-02 0.12499985E+03</pdfrwt>
<totfact> 0.10127230E+04</totfact>
</mgrwt>
</event>
<event>
 5    1  0.3289127E-002  0.1249974E+03  0.7818608E-02  0.1235073E+00
          4   -1    0    0  501    0  0.00000000000E+00  0.00000000000E+00  0.20470713858E+03  0.20471107807E+03  0.12700000000E+01 0. -1.
         -4   -1    0    0    0  501 -0.00000000000E+00 -0.00000000000E+00 -0.19056083790E+02  0.19098356720E+02  0.12700000000E+01 0. -1.
         25    2    1    2    0    0  0.00000000000E+00  0.00000000000E+00  0.18565105479E+03  0.22380943479E+03  0.12499739580E+03 0.  0.
    9000005    1    3    3    0    0 -0.19091573282E+02  0.30028639453E+02  0.18480422092E+03  0.18820150751E+03  0.10000000000E+01 0.  0.
    9000005    1    3    3    0    0  0.19091573282E+02 -0.30028639453E+02  0.84683386595E+00  0.35607927283E+02  0.10000000000E+01 0.  0.
<mgrwt>
<rscale>  0 0.12499740E+03</rscale>
<asrwt>0</asrwt>
<pdfrwt beam="1">  1        4 0.31496962E-01 0.12499740E+03</pdfrwt>
<pdfrwt beam="2">  1       -4 0.29352599E-02 0.12499740E+03</pdfrwt>
<totfact> 0.86274137E+03</totfact>
</mgrwt>
</event>
<event>
 5    1  0.3289127E-002  0.1249947E+03  0.7818608E-02  0.1235078E+00
         -4   -1    0    0    0  501 -0.00000000000E+00  0.00000000000E+00  0.27738593684E+02  0.27767651676E+02  0.12700000000E+01 0. -1.
          4   -1    0    0  501    0  0.00000000000E+00 -0.00000000000E+00 -0.14070602511E+03  0.14071175645E+03  0.12700000000E+01 0. -1.
         25    2    1    2    0    0  0.00000000000E+00  0.00000000000E+00 -0.11296743143E+03  0.16847940812E+03  0.12499468148E+03 0.  0.
    9000005    1    3    3    0    0 -0.31451491335E+02 -0.29515870861E+02  0.44633122741E+01  0.43374002540E+02  0.10000000000E+01 0.  0.
    9000005    1    3    3    0    0  0.31451491335E+02  0.29515870861E+02 -0.11743074370E+03  0.12510540558E+03  0.10000000000E+01 0.  0.
<mgrwt>
<rscale>  0 0.12499468E+03</rscale>
<asrwt>0</asrwt>
<pdfrwt beam="2">  1        4 0.21649756E-01 0.12499468E+03</pdfrwt>
<pdfrwt beam="1">  1       -4 0.42701521E-02 0.12499468E+03</pdfrwt>
<totfact> 0.95743910E+03</totfact>
</mgrwt>
</event>
<event>
 5    1  0.3289127E-002  0.1249891E+03  0.7818608E-02  0.1235086E+00
         -4   -1    0    0    0  501 -0.00000000000E+00  0.00000000000E+00  0.24638744634E+02  0.24671453892E+02  0.12700000000E+01 0.  1.
          4   -1    0    0  501    0  0.00000000000E+00 -0.00000000000E+00 -0.15837279136E+03  0.15837788338E+03  0.12700000000E+01 0.  1.
         25    2    1    2    0    0  0.00000000000E+00  0.00000000000E+00 -0.13373404673E+03  0.18304933727E+03  0.12498905801E+03 0.  0.
    9000005    1    3    3    0    0  0.33570515616E+02 -0.90389303216E+01  0.91737975483E+01  0.35969992237E+02  0.10000000000E+01 0.  0.
    9000005    1    3    3    0    0 -0.33570515616E+02  0.90389303216E+01 -0.14290784427E+03  0.14707934503E+03  0.10000000000E+01 0.  0.
<mgrwt>
<rscale>  0 0.12498906E+03</rscale>
<asrwt>0</asrwt>
<pdfrwt beam="2">  1        4 0.24367952E-01 0.12498906E+03</pdfrwt>
<pdfrwt beam="1">  1       -4 0.37934840E-02 0.12498906E+03</pdfrwt>
<totfact> 0.93093806E+03</totfact>
</mgrwt>
</event>
<event>
 5    1  0.3289127E-002  0.1249937E+03  0.7818608E-02  0.1235079E+00
         -4   -1    0    0    0  501 -0.00000000000E+00  0.00000000000E+00  0.48594011234E+02  0.48610604067E+02  0.12700000000E+01 0. -1.
          4   -1    0    0  501    0  0.00000000000E+00 -0.00000000000E+00 -0.80341926623E+02  0.80351963719E+02  0.12700000000E+01 0. -1.
         25    2    1    2    0    0  0.00000000000E+00  0.00000000000E+00 -0.31747915390E+02  0.12896256779E+03  0.12499365487E+03 0.  0.
    9000005    1    3    3    0    0  0.11625681435E+02  0.34493318286E+02 -0.68279571399E+02  0.77382461486E+02  0.10000000000E+01 0.  0.
    9000005    1    3    3    0    0 -0.11625681435E+02 -0.34493318286E+02  0.36531656009E+02  0.51580106300E+02  0.10000000000E+01 0.  0.
<mgrwt>
<rscale>  0 0.12499365E+03</rscale>
<asrwt>0</asrwt>
<pdfrwt beam="2">  1        4 0.12362345E-01 0.12499365E+03</pdfrwt>
<pdfrwt beam="1">  1       -4 0.74780502E-02 0.12499365E+03</pdfrwt>
<totfact> 0.10368236E+04</totfact>
</mgrwt>
</event>
<event>
 5    1  0.3289127E-002  0.1250096E+03  0.7818608E-02  0.1235054E+00
          4   -1    0    0  501    0  0.00000000000E+00  0.00000000000E+00  0.10253639380E+03  0.10254425851E+03  0.12700000000E+01 0. -1.
         -4   -1    0    0    0  501 -0.00000000000E+00 -0.00000000000E+00 -0.38082149222E+02  0.38103319926E+02  0.12700000000E+01 0. -1.
         25    2    1    2    0    0  0.00000000000E+00  0.00000000000E+00  0.64454244576E+02  0.14064757844E+03  0.12500956634E+03 0.  0.
    9000005    1    3    3    0    0 -0.90068180083E+01  0.59552201499E+02  0.50994981991E+02  0.78924493424E+02  0.10000000000E+01 0.  0.
    9000005    1    3    3    0    0  0.90068180083E+01 -0.59552201499E+02  0.13459262585E+02  0.61723085011E+02  0.10000000000E+01 0.  0.
<mgrwt>
<rscale>  0 0.12500957E+03</rscale>
<asrwt>0</asrwt>
<pdfrwt beam="1">  1        4 0.15777063E-01 0.12500957E+03</pdfrwt>
<pdfrwt beam="2">  1       -4 0.58610257E-02 0.12500957E+03</pdfrwt>
<totfact> 0.10118001E+04</totfact>
</mgrwt>
</event>
<event>
 5    1  0.3289127E-002  0.1249991E+03  0.7818608E-02  0.1235071E+00
         -4   -1    0    0    0  501 -0.00000000000E+00  0.00000000000E+00  0.13844921057E+04  0.13844926882E+04  0.12700000000E+01 0. -1.
          4   -1    0    0  501    0  0.00000000000E+00 -0.00000000000E+00 -0.26778627926E+01  0.29637559171E+01  0.12700000000E+01 0. -1.
         25    2    1    2    0    0  0.00000000000E+00  0.00000000000E+00  0.13818142429E+04  0.13874564441E+04  0.12499912954E+03 0.  0.
    9000005    1    3    3    0    0 -0.53451103178E+01  0.52616742920E+01  0.22818602690E+01  0.79033098732E+01  0.10000000000E+01 0.  0.
    9000005    1    3    3    0    0  0.53451103178E+01 -0.52616742920E+01  0.13795323827E+04  0.13795531342E+04  0.10000000000E+01 0.  0.
<mgrwt>
<rscale>  0 0.12499913E+03</rscale>
<asrwt>0</asrwt>
<pdfrwt beam="2">  1        4 0.43401543E-03 0.12499913E+03</pdfrwt>
<pdfrwt beam="1">  1       -4 0.21302085E+00 0.12499913E+03</pdfrwt>
<totfact> 0.20252092E+03</totfact>
</mgrwt>
</event>
<event>
 5    1  0.3289127E-002  0.1250005E+03  0.7818608E-02  0.1235068E+00
         -4   -1    0    0    0  501 -0.00000000000E+00  0.00000000000E+00  0.24874250262E+02  0.24906650238E+02  0.12700000000E+01 0.  1.
          4   -1    0    0  501    0  0.00000000000E+00 -0.00000000000E+00 -0.15690406064E+03  0.15690920032E+03  0.12700000000E+01 0.  1.
         25    2    1    2    0    0  0.00000000000E+00  0.00000000000E+00 -0.13202981037E+03  0.18181585056E+03  0.12500053074E+03 0.  0.
    9000005    1    3    3    0    0 -0.31260273631E+02  0.46080911760E+02 -0.10727378810E+03  0.12086902312E+03  0.10000000000E+01 0.  0.
    9000005    1    3    3    0    0  0.31260273631E+02 -0.46080911760E+02 -0.24756022277E+02  0.60946827440E+02  0.10000000000E+01 0.  0.
<mgrwt>
<rscale>  0 0.12500053E+03</rscale>
<asrwt>0</asrwt>
<pdfrwt beam="2">  1        4 0.24141973E-01 0.12500053E+03</pdfrwt>
<pdfrwt beam="1">  1       -4 0.38296955E-02 0.12500053E+03</pdfrwt>
<totfact> 0.93290052E+03</totfact>
</mgrwt>
</event>
<event>
 5    1  0.3289127E-002  0.1249984E+03  0.7818608E-02  0.1235072E+00
          4   -1    0    0  501    0  0.00000000000E+00  0.00000000000E+00  0.13902104152E+02  0.13959992831E+02  0.12700000000E+01 0.  1.
         -4   -1    0    0    0  501 -0.00000000000E+00 -0.00000000000E+00 -0.28033222350E+03  0.28033510025E+03  0.12700000000E+01 0.  1.
         25    2    1    2    0    0  0.00000000000E+00  0.00000000000E+00 -0.26643011934E+03  0.29429509308E+03  0.12499837325E+03 0.  0.
    9000005    1    3    3    0    0  0.39773576381E+02 -0.48199696848E+02 -0.13318395385E+03  0.14711938594E+03  0.10000000000E+01 0.  0.
    9000005    1    3    3    0    0 -0.39773576381E+02  0.48199696848E+02 -0.13324616549E+03  0.14717570714E+03  0.10000000000E+01 0.  0.
<mgrwt>
<rscale>  0 0.12499837E+03</rscale>
<asrwt>0</asrwt>
<pdfrwt beam="1">  1        4 0.21434597E-02 0.12499837E+03</pdfrwt>
<pdfrwt beam="2">  1       -4 0.43132704E-01 0.12499837E+03</pdfrwt>
<totfact> 0.76322829E+03</totfact>
</mgrwt>
</event>
<event>
 5    1  0.3289127E-002  0.1249981E+03  0.7818608E-02  0.1235072E+00
         -4   -1    0    0    0  501 -0.00000000000E+00  0.00000000000E+00  0.92968019241E+03  0.92968105986E+03  0.12700000000E+01 0.  1.
          4   -1    0    0  501    0  0.00000000000E+00 -0.00000000000E+00 -0.41047266618E+01  0.42967058275E+01  0.12700000000E+01 0.  1.
         25    2    1    2    0    0  0.00000000000E+00  0.00000000000E+00  0.92557546574E+03  0.93397776568E+03  0.12499809599E+03 0.  0.
    9000005    1    3    3    0    0 -0.57818059826E+02 -0.84636383368E+01  0.62828222228E+03  0.63099454201E+03  0.10000000000E+01 0.  0.
    9000005    1    3    3    0    0  0.57818059826E+02  0.84636383368E+01  0.29729324347E+03  0.30298322367E+03  0.10000000000E+01 0.  0.
<mgrwt>
<rscale>  0 0.12499810E+03</rscale>
<asrwt>0</asrwt>
<pdfrwt beam="2">  1        4 0.64633095E-03 0.12499810E+03</pdfrwt>
<pdfrwt beam="1">  1       -4 0.14304251E+00 0.12499810E+03</pdfrwt>
<totfact> 0.32893119E+03</totfact>
</mgrwt>
</event>
<event>
 5    1  0.3289127E-002  0.1249999E+03  0.7818608E-02  0.1235069E+00
          4   -1    0    0  501    0  0.00000000000E+00  0.00000000000E+00  0.54117206987E+02  0.54132106851E+02  0.12700000000E+01 0.  1.
         -4   -1    0    0    0  501 -0.00000000000E+00 -0.00000000000E+00 -0.72150806306E+02  0.72161982724E+02  0.12700000000E+01 0.  1.
         25    2    1    2    0    0  0.00000000000E+00  0.00000000000E+00 -0.18033599319E+02  0.12629408957E+03  0.12499994543E+03 0.  0.
    9000005    1    3    3    0    0 -0.24363684469E+02 -0.55380304468E+01 -0.66889734050E+02  0.71410751456E+02  0.10000000000E+01 0.  0.
    9000005    1    3    3    0    0  0.24363684469E+02  0.55380304468E+01  0.48856134732E+02  0.54883338119E+02  0.10000000000E+01 0.  0.
<mgrwt>
<rscale>  0 0.12499995E+03</rscale>
<asrwt>0</asrwt>
<pdfrwt beam="1">  1        4 0.83277300E-02 0.12499995E+03</pdfrwt>
<pdfrwt beam="2">  1       -4 0.11102130E-01 0.12499995E+03</pdfrwt>
<totfact> 0.10424535E+04</totfact>
</mgrwt>
</event>
<event>
 5    1  0.3289127E-002  0.1249976E+03  0.7818608E-02  0.1235073E+00
         -4   -1    0    0    0  501 -0.00000000000E+00  0.00000000000E+00  0.19275352181E+03  0.19275770561E+03  0.12700000000E+01 0.  1.
          4   -1    0    0  501    0  0.00000000000E+00 -0.00000000000E+00 -0.20240433266E+02  0.20280237642E+02  0.12700000000E+01 0.  1.
         25    2    1    2    0    0  0.00000000000E+00  0.00000000000E+00  0.17251308854E+03  0.21303794325E+03  0.12499759815E+03 0.  0.
    9000005    1    3    3    0    0  0.34186273221E+02 -0.44354399171E+02  0.13352187624E+03  0.14479331973E+03  0.10000000000E+01 0.  0.
    9000005    1    3    3    0    0 -0.34186273221E+02  0.44354399171E+02  0.38991212300E+02  0.68244623518E+02  0.10000000000E+01 0.  0.
<mgrwt>
<rscale>  0 0.12499760E+03</rscale>
<asrwt>0</asrwt>
<pdfrwt beam="2">  1        4 0.31172966E-02 0.12499760E+03</pdfrwt>
<pdfrwt beam="1">  1       -4 0.29657770E-01 0.12499760E+03</pdfrwt>
<totfact> 0.87986860E+03</totfact>
</mgrwt>
</event>
<event>
 5    1  0.3289127E-002  0.1250015E+03  0.7818608E-02  0.1235067E+00
         -4   -1    0    0    0  501 -0.00000000000E+00  0.00000000000E+00  0.39641415561E+02  0.39661753966E+02  0.12700000000E+01 0. -1.
          4   -1    0    0  501    0  0.00000000000E+00 -0.00000000000E+00 -0.98492262341E+02  0.98500449953E+02  0.12700000000E+01 0. -1.
         25    2    1    2    0    0  0.00000000000E+00  0.00000000000E+00 -0.58850846780E+02  0.13816220392E+03  0.12500148969E+03 0.  0.
    9000005    1    3    3    0    0  0.56494774888E+02  0.21446465112E+02 -0.47031486004E+02  0.76580487927E+02  0.10000000000E+01 0.  0.
    9000005    1    3    3    0    0 -0.56494774888E+02 -0.21446465112E+02 -0.11819360776E+02  0.61581715993E+02  0.10000000000E+01 0.  0.
<mgrwt>
<rscale>  0 0.12500149E+03</rscale>
<asrwt>0</asrwt>
<pdfrwt beam="2">  1        4 0.15154850E-01 0.12500149E+03</pdfrwt>
<pdfrwt beam="1">  1       -4 0.61008737E-02 0.12500149E+03</pdfrwt>
<totfact> 0.10171476E+04</totfact>
</mgrwt>
</event>
<event>
 5    1  0.3289127E-002  0.1249997E+03  0.7818608E-02  0.1235070E+00
         -4   -1    0    0    0  501 -0.00000000000E+00  0.00000000000E+00  0.19527862248E+02  0.19569116075E+02  0.12700000000E+01 0.  1.
          4   -1    0    0  501    0  0.00000000000E+00 -0.00000000000E+00 -0.19977940118E+03  0.19978343784E+03  0.12700000000E+01 0.  1.
         25    2    1    2    0    0  0.00000000000E+00  0.00000000000E+00 -0.18025153893E+03  0.21935255391E+03  0.12499970249E+03 0.  0.
    9000005    1    3    3    0    0 -0.22459282235E+02  0.46560861056E+02 -0.15174231360E+03  0.16030927259E+03  0.10000000000E+01 0.  0.
    9000005    1    3    3    0    0  0.22459282235E+02 -0.46560861056E+02 -0.28509225327E+02  0.59043281324E+02  0.10000000000E+01 0.  0.
<mgrwt>
<rscale>  0 0.12499970E+03</rscale>
<asrwt>0</asrwt>
<pdfrwt beam="2">  1        4 0.30738775E-01 0.12499970E+03</pdfrwt>
<pdfrwt beam="1">  1       -4 0.30077705E-02 0.12499970E+03</pdfrwt>
<totfact> 0.86971482E+03</totfact>
</mgrwt>
</event>
<event>
 5    1  0.3289127E-002  0.1250049E+03  0.7818608E-02  0.1235062E+00
         -4   -1    0    0    0  501 -0.00000000000E+00  0.00000000000E+00  0.87837186459E+02  0.87846367171E+02  0.12700000000E+01 0.  1.
          4   -1    0    0  501    0  0.00000000000E+00 -0.00000000000E+00 -0.44454397485E+02  0.44472534847E+02  0.12700000000E+01 0.  1.
         25    2    1    2    0    0  0.00000000000E+00  0.00000000000E+00  0.43382788974E+02  0.13231890202E+03  0.12500490171E+03 0.  0.
    9000005    1    3    3    0    0  0.84944992266E+01 -0.60390289727E+02  0.36143550963E+02  0.70897812989E+02  0.10000000000E+01 0.  0.
    9000005    1    3    3    0    0 -0.84944992266E+01  0.60390289727E+02  0.72392380113E+01  0.61421089028E+02  0.10000000000E+01 0.  0.
<mgrwt>
<rscale>  0 0.12500490E+03</rscale>
<asrwt>0</asrwt>
<pdfrwt beam="2">  1        4 0.68412395E-02 0.12500490E+03</pdfrwt>
<pdfrwt beam="1">  1       -4 0.13515515E-01 0.12500490E+03</pdfrwt>
<totfact> 0.10293758E+04</totfact>
</mgrwt>
</event>
<event>
 5    1  0.3289127E-002  0.1250003E+03  0.7818608E-02  0.1235069E+00
          4   -1    0    0  501    0  0.00000000000E+00  0.00000000000E+00  0.13242926777E+03  0.13243535730E+03  0.12700000000E+01 0. -1.
         -4   -1    0    0    0  501 -0.00000000000E+00 -0.00000000000E+00 -0.29476576445E+02  0.29503922772E+02  0.12700000000E+01 0. -1.
         25    2    1    2    0    0  0.00000000000E+00  0.00000000000E+00  0.10295269133E+03  0.16193928007E+03  0.12500029511E+03 0.  0.
    9000005    1    3    3    0    0 -0.20822532543E+02 -0.58368887451E+02  0.41050614422E+02  0.74341494660E+02  0.10000000000E+01 0.  0.
    9000005    1    3    3    0    0  0.20822532543E+02  0.58368887451E+02  0.61902076904E+02  0.87597785410E+02  0.10000000000E+01 0.  0.
<mgrwt>
<rscale>  0 0.12500030E+03</rscale>
<asrwt>0</asrwt>
<pdfrwt beam="1">  1        4 0.20376305E-01 0.12500030E+03</pdfrwt>
<pdfrwt beam="2">  1       -4 0.45374299E-02 0.12500030E+03</pdfrwt>
<totfact> 0.96969562E+03</totfact>
</mgrwt>
</event>
<event>
 5    1  0.3289127E-002  0.1249997E+03  0.7818608E-02  0.1235070E+00
         -4   -1    0    0    0  501 -0.00000000000E+00  0.00000000000E+00  0.32837214878E+02  0.32861764726E+02  0.12700000000E+01 0.  1.
          4   -1    0    0  501    0  0.00000000000E+00 -0.00000000000E+00 -0.11888503641E+03  0.11889181966E+03  0.12700000000E+01 0.  1.
         25    2    1    2    0    0  0.00000000000E+00  0.00000000000E+00 -0.86047821531E+02  0.15175358439E+03  0.12499969113E+03 0.  0.
    9000005    1    3    3    0    0  0.12929793841E+02  0.60482052982E+02 -0.32167155020E+02  0.69720758485E+02  0.10000000000E+01 0.  0.
    9000005    1    3    3    0    0 -0.12929793841E+02 -0.60482052982E+02 -0.53880666510E+02  0.82032825901E+02  0.10000000000E+01 0.  0.
<mgrwt>
<rscale>  0 0.12499969E+03</rscale>
<asrwt>0</asrwt>
<pdfrwt beam="2">  1        4 0.18292416E-01 0.12499969E+03</pdfrwt>
<pdfrwt beam="1">  1       -4 0.50542895E-02 0.12499969E+03</pdfrwt>
<totfact> 0.98955977E+03</totfact>
</mgrwt>
</event>
<event>
 5    1  0.3289127E-002  0.1249982E+03  0.7818608E-02  0.1235072E+00
         -4   -1    0    0    0  501 -0.00000000000E+00  0.00000000000E+00  0.17445881309E+03  0.17446343561E+03  0.12700000000E+01 0.  1.
          4   -1    0    0  501    0  0.00000000000E+00 -0.00000000000E+00 -0.22367088656E+02  0.22403114849E+02  0.12700000000E+01 0.  1.
         25    2    1    2    0    0  0.00000000000E+00  0.00000000000E+00  0.15209172443E+03  0.19686655046E+03  0.12499818418E+03 0.  0.
    9000005    1    3    3    0    0 -0.54936844932E+02  0.23322313855E+02  0.46870936490E+02  0.75893820184E+02  0.10000000000E+01 0.  0.
    9000005    1    3    3    0    0  0.54936844932E+02 -0.23322313855E+02  0.10522078794E+03  0.12097273027E+03  0.10000000000E+01 0.  0.
<mgrwt>
<rscale>  0 0.12499818E+03</rscale>
<asrwt>0</asrwt>
<pdfrwt beam="2">  1        4 0.34442172E-02 0.12499818E+03</pdfrwt>
<pdfrwt beam="1">  1       -4 0.26842945E-01 0.12499818E+03</pdfrwt>
<totfact> 0.90669777E+03</totfact>
</mgrwt>
</event>
<event>
 5    1  0.3289127E-002  0.1250006E+03  0.7818608E-02  0.1235068E+00
          4   -1    0    0  501    0  0.00000000000E+00  0.00000000000E+00  0.30106348770E+02  0.30133123573E+02  0.12700000000E+01 0.  1.
         -4   -1    0    0    0  501 -0.00000000000E+00 -0.00000000000E+00 -0.12966211518E+03  0.12966833466E+03  0.12700000000E+01 0.  1.
         25    2    1    2    0    0  0.00000000000E+00  0.00000000000E+00 -0.99555766412E+02  0.15980145823E+03  0.12500062171E+03 0.  0.
    9000005    1    3    3    0    0 -0.27657370395E+02 -0.43593497372E+02 -0.47612094622E+01  0.51855494076E+02  0.10000000000E+01 0.  0.
    9000005    1    3    3    0    0  0.27657370395E+02  0.43593497372E+02 -0.94794556950E+02  0.10794596416E+03  0.10000000000E+01 0.  0.
<mgrwt>
<rscale>  0 0.12500062E+03</rscale>
<asrwt>0</asrwt>
<pdfrwt beam="1">  1        4 0.46342841E-02 0.12500062E+03</pdfrwt>
<pdfrwt beam="2">  1       -4 0.19950555E-01 0.12500062E+03</pdfrwt>
<totfact> 0.97379715E+03</totfact>
</mgrwt>
</event>
<event>
 5    1  0.3289127E-002  0.1250029E+03  0.7818608E-02  0.1235065E+00
          4   -1    0    0  501    0  0.00000000000E+00  0.00000000000E+00  0.49119958614E+03  0.49120122794E+03  0.12700000000E+01 0.  1.
         -4   -1    0    0    0  501 -0.00000000000E+00 -0.00000000000E+00 -0.79004694871E+01  0.80018946580E+01  0.12700000000E+01 0.  1.
         25    2    1    2    0    0  0.00000000000E+00  0.00000000000E+00  0.48329911666E+03  0.49920312260E+03  0.12500288576E+03 0.  0.
    9000005    1    3    3    0    0  0.95825589775E+01  0.47954253114E+01 -0.42239503145E+01  0.11561284389E+02  0.10000000000E+01 0.  0.
    9000005    1    3    3    0    0 -0.95825589775E+01 -0.47954253114E+01  0.48752306697E+03  0.48764183821E+03  0.10000000000E+01 0.  0.
<mgrwt>
<rscale>  0 0.12500289E+03</rscale>
<asrwt>0</asrwt>
<pdfrwt beam="1">  1        4 0.75577085E-01 0.12500289E+03</pdfrwt>
<pdfrwt beam="2">  1       -4 0.12233852E-02 0.12500289E+03</pdfrwt>
<totfact> 0.55922703E+03</totfact>
</mgrwt>
</event>
<event>
 5    1  0.3289127E-002  0.1249981E+03  0.7818608E-02  0.1235072E+00
         -4   -1    0    0    0  501 -0.00000000000E+00  0.00000000000E+00  0.28070082584E+04  0.28070085457E+04  0.12700000000E+01 0. -1.
          4   -1    0    0  501    0  0.00000000000E+00 -0.00000000000E+00 -0.11014536063E+01  0.16811008437E+01  0.12700000000E+01 0. -1.
         25    2    1    2    0    0  0.00000000000E+00  0.00000000000E+00  0.28059068048E+04  0.28086896465E+04  0.12499813361E+03 0.  0.
    9000005    1    3    3    0    0 -0.53783312357E+02 -0.10381322703E+02  0.72709369961E+03  0.72915476037E+03  0.10000000000E+01 0.  0.
    9000005    1    3    3    0    0  0.53783312357E+02  0.10381322703E+02  0.20788131051E+04  0.20795348861E+04  0.10000000000E+01 0.  0.
<mgrwt>
<rscale>  0 0.12499813E+03</rscale>
<asrwt>0</asrwt>
<pdfrwt beam="2">  1        4 0.21406510E-03 0.12499813E+03</pdfrwt>
<pdfrwt beam="1">  1       -4 0.43189133E+00 0.12499813E+03</pdfrwt>
<totfact> 0.26726489E+02</totfact>
</mgrwt>
</event>
<event>
 5    1  0.3289127E-002  0.1250015E+03  0.7818608E-02  0.1235067E+00
          4   -1    0    0  501    0  0.00000000000E+00  0.00000000000E+00  0.14592453972E+03  0.14593006610E+03  0.12700000000E+01 0.  1.
         -4   -1    0    0    0  501 -0.00000000000E+00 -0.00000000000E+00 -0.26748523872E+02  0.26778656227E+02  0.12700000000E+01 0.  1.
         25    2    1    2    0    0  0.00000000000E+00  0.00000000000E+00  0.11917601585E+03  0.17270872233E+03  0.12500152005E+03 0.  0.
    9000005    1    3    3    0    0  0.89975612285E+01 -0.22187971538E+02  0.13934281531E+03  0.14138840960E+03  0.10000000000E+01 0.  0.
    9000005    1    3    3    0    0 -0.89975612285E+01  0.22187971538E+02 -0.20166799464E+02  0.31320312732E+02  0.10000000000E+01 0.  0.
<mgrwt>
<rscale>  0 0.12500152E+03</rscale>
<asrwt>0</asrwt>
<pdfrwt beam="1">  1        4 0.22452672E-01 0.12500152E+03</pdfrwt>
<pdfrwt beam="2">  1       -4 0.41179005E-02 0.12500152E+03</pdfrwt>
<totfact> 0.94942927E+03</totfact>
</mgrwt>
</event>
<event>
 5    1  0.3289127E-002  0.1250005E+03  0.7818608E-02  0.1235069E+00
         -4   -1    0    0    0  501 -0.00000000000E+00  0.00000000000E+00  0.29874588528E+01  0.32461993773E+01  0.12700000000E+01 0.  1.
          4   -1    0    0  501    0  0.00000000000E+00 -0.00000000000E+00 -0.12530271081E+04  0.12530277517E+04  0.12700000000E+01 0.  1.
         25    2    1    2    0    0  0.00000000000E+00  0.00000000000E+00 -0.12500396493E+04  0.12562739511E+04  0.12500046187E+03 0.  0.
    9000005    1    3    3    0    0 -0.45371571316E+02  0.34811168890E+02 -0.87825218981E+03  0.88011266657E+03  0.10000000000E+01 0.  0.
    9000005    1    3    3    0    0  0.45371571316E+02 -0.34811168890E+02 -0.37178745945E+03  0.37616128451E+03  0.10000000000E+01 0.  0.
<mgrwt>
<rscale>  0 0.12500046E+03</rscale>
<asrwt>0</asrwt>
<pdfrwt beam="2">  1        4 0.19279295E+00 0.12500046E+03</pdfrwt>
<pdfrwt beam="1">  1       -4 0.47956268E-03 0.12500046E+03</pdfrwt>
<totfact> 0.23284446E+03</totfact>
</mgrwt>
</event>
<event>
 5    1  0.3289127E-002  0.1249990E+03  0.7818608E-02  0.1235071E+00
         -4   -1    0    0    0  501 -0.00000000000E+00  0.00000000000E+00  0.14257172133E+04  0.14257177790E+04  0.12700000000E+01 0. -1.
          4   -1    0    0  501    0  0.00000000000E+00 -0.00000000000E+00 -0.25920354942E+01  0.28864421011E+01  0.12700000000E+01 0. -1.
         25    2    1    2    0    0  0.00000000000E+00  0.00000000000E+00  0.14231251778E+04  0.14286042211E+04  0.12499899474E+03 0.  0.
    9000005    1    3    3    0    0  0.49030993175E+02  0.35970002981E+02  0.54700678905E+03  0.55037742202E+03  0.10000000000E+01 0.  0.
    9000005    1    3    3    0    0 -0.49030993175E+02 -0.35970002981E+02  0.87611838880E+03  0.87822679906E+03  0.10000000000E+01 0.  0.
<mgrwt>
<rscale>  0 0.12499899E+03</rscale>
<asrwt>0</asrwt>
<pdfrwt beam="2">  1        4 0.42146555E-03 0.12499899E+03</pdfrwt>
<pdfrwt beam="1">  1       -4 0.21936344E+00 0.12499899E+03</pdfrwt>
<totfact> 0.19375769E+03</totfact>
</mgrwt>
</event>
<event>
 5    1  0.3289127E-002  0.1250013E+03  0.7818608E-02  0.1235067E+00
         -4   -1    0    0    0  501 -0.00000000000E+00  0.00000000000E+00  0.22639971116E+03  0.22640327320E+03  0.12700000000E+01 0.  1.
          4   -1    0    0  501    0  0.00000000000E+00 -0.00000000000E+00 -0.17227059820E+02  0.17273809367E+02  0.12700000000E+01 0.  1.
         25    2    1    2    0    0  0.00000000000E+00  0.00000000000E+00  0.20917265134E+03  0.24367708256E+03  0.12500128998E+03 0.  0.
    9000005    1    3    3    0    0 -0.39000781463E+02  0.38337444069E+02  0.45634883603E+02  0.71234564461E+02  0.10000000000E+01 0.  0.
    9000005    1    3    3    0    0  0.39000781463E+02 -0.38337444069E+02  0.16353776774E+03  0.17244251810E+03  0.10000000000E+01 0.  0.
<mgrwt>
<rscale>  0 0.12500129E+03</rscale>
<asrwt>0</asrwt>
<pdfrwt beam="2">  1        4 0.26541871E-02 0.12500129E+03</pdfrwt>
<pdfrwt beam="1">  1       -4 0.34834594E-01 0.12500129E+03</pdfrwt>
<totfact> 0.83250368E+03</totfact>
</mgrwt>
</event>
<event>
 5    1  0.3289127E-002  0.1250066E+03  0.7818608E-02  0.1235059E+00
          4   -1    0    0  501    0  0.00000000000E+00  0.00000000000E+00  0.13216982187E+02  0.13277858190E+02  0.12700000000E+01 0.  1.
         -4   -1    0    0    0  501 -0.00000000000E+00 -0.00000000000E+00 -0.29483761430E+03  0.29484034952E+03  0.12700000000E+01 0.  1.
         25    2    1    2    0    0  0.00000000000E+00  0.00000000000E+00 -0.28162063211E+03  0.30811820771E+03  0.12500659779E+03 0.  0.
    9000005    1    3    3    0    0 -0.42456928238E+02 -0.23411116134E+02 -0.23800631855E+03  0.24289643634E+03  0.10000000000E+01 0.  0.
    9000005    1    3    3    0    0  0.42456928238E+02  0.23411116134E+02 -0.43614313562E+02  0.65221771377E+02  0.10000000000E+01 0.  0.
<mgrwt>
<rscale>  0 0.12500660E+03</rscale>
<asrwt>0</asrwt>
<pdfrwt beam="1">  1        4 0.20382753E-02 0.12500660E+03</pdfrwt>
<pdfrwt beam="2">  1       -4 0.45364521E-01 0.12500660E+03</pdfrwt>
<totfact> 0.74580744E+03</totfact>
</mgrwt>
</event>
<event>
 5    1  0.3289127E-002  0.1249996E+03  0.7818608E-02  0.1235070E+00
         -4   -1    0    0    0  501 -0.00000000000E+00  0.00000000000E+00  0.23804847750E+03  0.23805186524E+03  0.12700000000E+01 0. -1.
          4   -1    0    0  501    0  0.00000000000E+00 -0.00000000000E+00 -0.16381274771E+02  0.16430431008E+02  0.12700000000E+01 0. -1.
         25    2    1    2    0    0  0.00000000000E+00  0.00000000000E+00  0.22166720273E+03  0.25448229624E+03  0.12499956133E+03 0.  0.
    9000005    1    3    3    0    0  0.40868232287E+02 -0.43682912289E+02  0.74029266087E+02  0.95182674231E+02  0.10000000000E+01 0.  0.
    9000005    1    3    3    0    0 -0.40868232287E+02  0.43682912289E+02  0.14763793665E+03  0.15929962201E+03  0.10000000000E+01 0.  0.
<mgrwt>
<rscale>  0 0.12499956E+03</rscale>
<asrwt>0</asrwt>
<pdfrwt beam="2">  1        4 0.25242378E-02 0.12499956E+03</pdfrwt>
<pdfrwt beam="1">  1       -4 0.36626887E-01 0.12499956E+03</pdfrwt>
<totfact> 0.81687477E+03</totfact>
</mgrwt>
</event>
<event>
 5    1  0.3289127E-002  0.1249994E+03  0.7818608E-02  0.1235070E+00
          4   -1    0    0  501    0  0.00000000000E+00  0.00000000000E+00  0.21497331865E+03  0.21497707001E+03  0.12700000000E+01 0. -1.
         -4   -1    0    0    0  501 -0.00000000000E+00 -0.00000000000E+00 -0.18144568656E+02  0.18188960160E+02  0.12700000000E+01 0. -1.
         25    2    1    2    0    0  0.00000000000E+00  0.00000000000E+00  0.19682874999E+03  0.23316603017E+03  0.12499936321E+03 0.  0.
    9000005    1    3    3    0    0 -0.44932099545E+02 -0.33014875117E+02  0.45775659239E+02  0.72147671669E+02  0.10000000000E+01 0.  0.
    9000005    1    3    3    0    0  0.44932099545E+02  0.33014875117E+02  0.15105309075E+03  0.16101835850E+03  0.10000000000E+01 0.  0.
<mgrwt>
<rscale>  0 0.12499936E+03</rscale>
<asrwt>0</asrwt>
<pdfrwt beam="1">  1        4 0.33076519E-01 0.12499936E+03</pdfrwt>
<pdfrwt beam="2">  1       -4 0.27951757E-02 0.12499936E+03</pdfrwt>
<totfact> 0.84827016E+03</totfact>
</mgrwt>
</event>
<event>
 5    1  0.3289127E-002  0.1249987E+03  0.7818608E-02  0.1235071E+00
         -4   -1    0    0    0  501 -0.00000000000E+00  0.00000000000E+00  0.17839950089E+02  0.17885097685E+02  0.12700000000E+01 0.  1.
          4   -1    0    0  501    0  0.00000000000E+00 -0.00000000000E+00 -0.21863270250E+03  0.21863639107E+03  0.12700000000E+01 0.  1.
         25    2    1    2    0    0  0.00000000000E+00  0.00000000000E+00 -0.20079275241E+03  0.23652148876E+03  0.12499874089E+03 0.  0.
    9000005    1    3    3    0    0  0.10454106180E+02 -0.53356114596E+02 -0.42105591269E+02  0.68775316189E+02  0.10000000000E+01 0.  0.
    9000005    1    3    3    0    0 -0.10454106180E+02  0.53356114596E+02 -0.15868716114E+03  0.16774617257E+03  0.10000000000E+01 0.  0.
<mgrwt>
<rscale>  0 0.12499874E+03</rscale>
<asrwt>0</asrwt>
<pdfrwt beam="2">  1        4 0.33639555E-01 0.12499874E+03</pdfrwt>
<pdfrwt beam="1">  1       -4 0.27483645E-02 0.12499874E+03</pdfrwt>
<totfact> 0.84320541E+03</totfact>
</mgrwt>
</event>
<event>
 5    1  0.3289127E-002  0.1250016E+03  0.7818608E-02  0.1235067E+00
         -4   -1    0    0    0  501 -0.00000000000E+00  0.00000000000E+00  0.74116478096E+03  0.74116586904E+03  0.12700000000E+01 0. -1.
          4   -1    0    0  501    0  0.00000000000E+00 -0.00000000000E+00 -0.51929443421E+01  0.53459864328E+01  0.12700000000E+01 0. -1.
         25    2    1    2    0    0  0.00000000000E+00  0.00000000000E+00  0.73597183661E+03  0.74651185547E+03  0.12500162428E+03 0.  0.
    9000005    1    3    3    0    0  0.55857118381E+02 -0.15730057980E+02  0.22947899895E+03  0.23670459091E+03  0.10000000000E+01 0.  0.
    9000005    1    3    3    0    0 -0.55857118381E+02  0.15730057980E+02  0.50649283767E+03  0.50980726457E+03  0.10000000000E+01 0.  0.
<mgrwt>
<rscale>  0 0.12500162E+03</rscale>
<asrwt>0</asrwt>
<pdfrwt beam="2">  1        4 0.81077111E-03 0.12500162E+03</pdfrwt>
<pdfrwt beam="1">  1       -4 0.11403715E+00 0.12500162E+03</pdfrwt>
<totfact> 0.40740102E+03</totfact>
</mgrwt>
</event>
<event>
 5    1  0.3289127E-002  0.1249987E+03  0.7818608E-02  0.1235071E+00
         -4   -1    0    0    0  501 -0.00000000000E+00  0.00000000000E+00  0.93065052390E+02  0.93073717431E+02  0.12700000000E+01 0. -1.
          4   -1    0    0  501    0  0.00000000000E+00 -0.00000000000E+00 -0.41952219020E+02  0.41971437678E+02  0.12700000000E+01 0. -1.
         25    2    1    2    0    0  0.00000000000E+00  0.00000000000E+00  0.51112833370E+02  0.13504515511E+03  0.12499868873E+03 0.  0.
    9000005    1    3    3    0    0 -0.18654920172E+02 -0.19779854864E+02 -0.35232369818E+02  0.44514813131E+02  0.10000000000E+01 0.  0.
    9000005    1    3    3    0    0  0.18654920172E+02  0.19779854864E+02  0.86345203188E+02  0.90530341978E+02  0.10000000000E+01 0.  0.
<mgrwt>
<rscale>  0 0.12499869E+03</rscale>
<asrwt>0</asrwt>
<pdfrwt beam="2">  1        4 0.64563325E-02 0.12499869E+03</pdfrwt>
<pdfrwt beam="1">  1       -4 0.14319845E-01 0.12499869E+03</pdfrwt>
<totfact> 0.10237422E+04</totfact>
</mgrwt>
</event>
<event>
 5    1  0.3289127E-002  0.1250008E+03  0.7818608E-02  0.1235068E+00
         -4   -1    0    0    0  501 -0.00000000000E+00  0.00000000000E+00  0.22871781914E+03  0.22872134507E+03  0.12700000000E+01 0. -1.
          4   -1    0    0  501    0  0.00000000000E+00 -0.00000000000E+00 -0.17051840630E+02  0.17099069239E+02  0.12700000000E+01 0. -1.
         25    2    1    2    0    0  0.00000000000E+00  0.00000000000E+00  0.21166597851E+03  0.24582041431E+03  0.12500075853E+03 0.  0.
    9000005    1    3    3    0    0  0.52103950286E+02 -0.12278350979E+02  0.42422215563E+02  0.68309764393E+02  0.10000000000E+01 0.  0.
    9000005    1    3    3    0    0 -0.52103950286E+02  0.12278350979E+02  0.16924376294E+03  0.17751064992E+03  0.10000000000E+01 0.  0.
<mgrwt>
<rscale>  0 0.12500076E+03</rscale>
<asrwt>0</asrwt>
<pdfrwt beam="2">  1        4 0.26272647E-02 0.12500076E+03</pdfrwt>
<pdfrwt beam="1">  1       -4 0.35191256E-01 0.12500076E+03</pdfrwt>
<totfact> 0.82936687E+03</totfact>
</mgrwt>
</event>
<event>
 5    1  0.3289127E-002  0.1250007E+03  0.7818608E-02  0.1235068E+00
          4   -1    0    0  501    0  0.00000000000E+00  0.00000000000E+00  0.12263696209E+01  0.17654694693E+01  0.12700000000E+01 0. -1.
         -4   -1    0    0    0  501 -0.00000000000E+00 -0.00000000000E+00 -0.26107605727E+04  0.26107608816E+04  0.12700000000E+01 0. -1.
         25    2    1    2    0    0  0.00000000000E+00  0.00000000000E+00 -0.26095342031E+04  0.26125263511E+04  0.12500071185E+03 0.  0.
    9000005    1    3    3    0    0 -0.57204650490E+02  0.20491455256E+02 -0.99972404012E+03  0.10015694824E+04  0.10000000000E+01 0.  0.
    9000005    1    3    3    0    0  0.57204650490E+02 -0.20491455256E+02 -0.16098101630E+04  0.16109568686E+04  0.10000000000E+01 0.  0.
<mgrwt>
<rscale>  0 0.12500071E+03</rscale>
<asrwt>0</asrwt>
<pdfrwt beam="1">  1        4 0.23016732E-03 0.12500071E+03</pdfrwt>
<pdfrwt beam="2">  1       -4 0.40169332E+00 0.12500071E+03</pdfrwt>
<totfact> 0.38444885E+02</totfact>
</mgrwt>
</event>
<event>
 5    1  0.3289127E-002  0.1249988E+03  0.7818608E-02  0.1235071E+00
          4   -1    0    0  501    0  0.00000000000E+00  0.00000000000E+00  0.18510513037E+02  0.18554029020E+02  0.12700000000E+01 0. -1.
         -4   -1    0    0    0  501 -0.00000000000E+00 -0.00000000000E+00 -0.21073144619E+03  0.21073527306E+03  0.12700000000E+01 0. -1.
         25    2    1    2    0    0  0.00000000000E+00  0.00000000000E+00 -0.19222093315E+03  0.22928930208E+03  0.12499878762E+03 0.  0.
    9000005    1    3    3    0    0  0.19983074033E+02  0.27260962015E+00  0.12499608649E+02  0.23593172321E+02  0.10000000000E+01 0.  0.
    9000005    1    3    3    0    0 -0.19983074033E+02 -0.27260962015E+00 -0.20472054180E+03  0.20569612976E+03  0.10000000000E+01 0.  0.
<mgrwt>
<rscale>  0 0.12499879E+03</rscale>
<asrwt>0</asrwt>
<pdfrwt beam="1">  1        4 0.28514131E-02 0.12499879E+03</pdfrwt>
<pdfrwt beam="2">  1       -4 0.32423863E-01 0.12499879E+03</pdfrwt>
<totfact> 0.85421156E+03</totfact>
</mgrwt>
</event>
<event>
 5    1  0.3289127E-002  0.1250012E+03  0.7818608E-02  0.1235067E+00
         -4   -1    0    0    0  501 -0.00000000000E+00  0.00000000000E+00  0.52743985485E+02  0.52759273165E+02  0.12700000000E+01 0.  1.
          4   -1    0    0  501    0  0.00000000000E+00 -0.00000000000E+00 -0.74030501981E+02  0.74041394662E+02  0.12700000000E+01 0.  1.
         25    2    1    2    0    0  0.00000000000E+00  0.00000000000E+00 -0.21286516496E+02  0.12680066783E+03  0.12500117430E+03 0.  0.
    9000005    1    3    3    0    0 -0.47870238865E+02  0.38419387216E+02 -0.22547369720E+02  0.65398722956E+02  0.10000000000E+01 0.  0.
    9000005    1    3    3    0    0  0.47870238865E+02 -0.38419387216E+02  0.12608532248E+01  0.61401944870E+02  0.10000000000E+01 0.  0.
<mgrwt>
<rscale>  0 0.12500117E+03</rscale>
<asrwt>0</asrwt>
<pdfrwt beam="2">  1        4 0.11391322E-01 0.12500117E+03</pdfrwt>
<pdfrwt beam="1">  1       -4 0.81164732E-02 0.12500117E+03</pdfrwt>
<totfact> 0.10413203E+04</totfact>
</mgrwt>
</event>
<event>
 5    1  0.3289127E-002  0.1249970E+03  0.7818608E-02  0.1235074E+00
         -4   -1    0    0    0  501 -0.00000000000E+00  0.00000000000E+00  0.16000646818E+03  0.16001150821E+03  0.12700000000E+01 0.  1.
          4   -1    0    0  501    0  0.00000000000E+00 -0.00000000000E+00 -0.24389971140E+02  0.24423013578E+02  0.12700000000E+01 0.  1.
         25    2    1    2    0    0  0.00000000000E+00  0.00000000000E+00  0.13561649704E+03  0.18443452179E+03  0.12499703420E+03 0.  0.
    9000005    1    3    3    0    0 -0.21224754281E+02 -0.48217529876E+02  0.18216050796E+02  0.55751635745E+02  0.10000000000E+01 0.  0.
    9000005    1    3    3    0    0  0.21224754281E+02  0.48217529876E+02  0.11740044625E+03  0.12868288604E+03  0.10000000000E+01 0.  0.
<mgrwt>
<rscale>  0 0.12499703E+03</rscale>
<asrwt>0</asrwt>
<pdfrwt beam="2">  1        4 0.37552328E-02 0.12499703E+03</pdfrwt>
<pdfrwt beam="1">  1       -4 0.24619308E-01 0.12499703E+03</pdfrwt>
<totfact> 0.92830981E+03</totfact>
</mgrwt>
</event>
<event>
 5    1  0.3289127E-002  0.1250013E+03  0.7818608E-02  0.1235067E+00
         -4   -1    0    0    0  501 -0.00000000000E+00  0.00000000000E+00  0.15001515457E+02  0.15055177382E+02  0.12700000000E+01 0. -1.
          4   -1    0    0  501    0  0.00000000000E+00 -0.00000000000E+00 -0.25987583441E+03  0.25987893760E+03  0.12700000000E+01 0. -1.
         25    2    1    2    0    0  0.00000000000E+00  0.00000000000E+00 -0.24487431895E+03  0.27493411498E+03  0.12500134199E+03 0.  0.
    9000005    1    3    3    0    0 -0.19373867072E+02  0.58611610257E+02 -0.14383705445E+03  0.15652720471E+03  0.10000000000E+01 0.  0.
    9000005    1    3    3    0    0  0.19373867072E+02 -0.58611610257E+02 -0.10103726450E+03  0.11840691027E+03  0.10000000000E+01 0.  0.
<mgrwt>
<rscale>  0 0.12500134E+03</rscale>
<asrwt>0</asrwt>
<pdfrwt beam="2">  1        4 0.39985261E-01 0.12500134E+03</pdfrwt>
<pdfrwt beam="1">  1       -4 0.23122922E-02 0.12500134E+03</pdfrwt>
<totfact> 0.78852284E+03</totfact>
</mgrwt>
</event>
<event>
 5    1  0.3289127E-002  0.1250022E+03  0.7818608E-02  0.1235066E+00
          4   -1    0    0  501    0  0.00000000000E+00  0.00000000000E+00  0.94246460107E+02  0.94255016538E+02  0.12700000000E+01 0.  1.
         -4   -1    0    0    0  501 -0.00000000000E+00 -0.00000000000E+00 -0.41428464301E+02  0.41447925815E+02  0.12700000000E+01 0.  1.
         25    2    1    2    0    0  0.00000000000E+00  0.00000000000E+00  0.52817995805E+02  0.13570294235E+03  0.12500219151E+03 0.  0.
    9000005    1    3    3    0    0  0.13259484765E+02 -0.58521225359E+02  0.74547282033E+01  0.60474132704E+02  0.10000000000E+01 0.  0.
    9000005    1    3    3    0    0 -0.13259484765E+02  0.58521225359E+02  0.45363267602E+02  0.75228809649E+02  0.10000000000E+01 0.  0.
<mgrwt>
<rscale>  0 0.12500219E+03</rscale>
<asrwt>0</asrwt>
<pdfrwt beam="1">  1        4 0.14501611E-01 0.12500219E+03</pdfrwt>
<pdfrwt beam="2">  1       -4 0.63757652E-02 0.12500219E+03</pdfrwt>
<totfact> 0.10222771E+04</totfact>
</mgrwt>
</event>
<event>
 5    1  0.3289127E-002  0.1249993E+03  0.7818608E-02  0.1235070E+00
         -4   -1    0    0    0  501 -0.00000000000E+00  0.00000000000E+00  0.45460725364E+02  0.45478461393E+02  0.12700000000E+01 0. -1.
          4   -1    0    0  501    0  0.00000000000E+00 -0.00000000000E+00 -0.85885659766E+02  0.85895049063E+02  0.12700000000E+01 0. -1.
         25    2    1    2    0    0  0.00000000000E+00  0.00000000000E+00 -0.40424934402E+02  0.13137351046E+03  0.12499929571E+03 0.  0.
    9000005    1    3    3    0    0  0.12447705849E+02  0.11259012630E+02  0.43052616389E+02  0.46219460449E+02  0.10000000000E+01 0.  0.
    9000005    1    3    3    0    0 -0.12447705849E+02 -0.11259012630E+02 -0.83477550791E+02  0.85154050006E+02  0.10000000000E+01 0.  0.
<mgrwt>
<rscale>  0 0.12499930E+03</rscale>
<asrwt>0</asrwt>
<pdfrwt beam="2">  1        4 0.13215265E-01 0.12499930E+03</pdfrwt>
<pdfrwt beam="1">  1       -4 0.69960444E-02 0.12499930E+03</pdfrwt>
<totfact> 0.10315252E+04</totfact>
</mgrwt>
</event>
<event>
 5    1  0.3289127E-002  0.1250023E+03  0.7818608E-02  0.1235066E+00
          4   -1    0    0  501    0  0.00000000000E+00  0.00000000000E+00  0.12366941990E+04  0.12366948511E+04  0.12700000000E+01 0. -1.
         -4   -1    0    0    0  501 -0.00000000000E+00 -0.00000000000E+00 -0.30304075757E+01  0.32857678060E+01  0.12700000000E+01 0. -1.
         25    2    1    2    0    0  0.00000000000E+00  0.00000000000E+00  0.12336637915E+04  0.12399806190E+04  0.12500233996E+03 0.  0.
    9000005    1    3    3    0    0  0.15201795276E+02  0.55133473477E+02  0.86672104261E+03  0.86860644724E+03  0.10000000000E+01 0.  0.
    9000005    1    3    3    0    0 -0.15201795276E+02 -0.55133473477E+02  0.36694274885E+03  0.37137417171E+03  0.10000000000E+01 0.  0.
<mgrwt>
<rscale>  0 0.12500234E+03</rscale>
<asrwt>0</asrwt>
<pdfrwt beam="1">  1        4 0.19028075E+00 0.12500234E+03</pdfrwt>
<pdfrwt beam="2">  1       -4 0.48590875E-03 0.12500234E+03</pdfrwt>
<totfact> 0.23688307E+03</totfact>
</mgrwt>
</event>
<event>
 5    1  0.3289127E-002  0.1249980E+03  0.7818608E-02  0.1235072E+00
          4   -1    0    0  501    0  0.00000000000E+00  0.00000000000E+00  0.48219121440E+01  0.49863550540E+01  0.12700000000E+01 0. -1.
         -4   -1    0    0    0  501 -0.00000000000E+00 -0.00000000000E+00 -0.79633157101E+03  0.79633258371E+03  0.12700000000E+01 0. -1.
         25    2    1    2    0    0  0.00000000000E+00  0.00000000000E+00 -0.79150965886E+03  0.80131893877E+03  0.12499800619E+03 0.  0.
    9000005    1    3    3    0    0 -0.24487273249E+01 -0.18752148466E+02 -0.13931315954E+02  0.23510017053E+02  0.10000000000E+01 0.  0.
    9000005    1    3    3    0    0  0.24487273249E+01  0.18752148466E+02 -0.77757834291E+03  0.77780892171E+03  0.10000000000E+01 0.  0.
<mgrwt>
<rscale>  0 0.12499801E+03</rscale>
<asrwt>0</asrwt>
<pdfrwt beam="1">  1        4 0.75456062E-03 0.12499801E+03</pdfrwt>
<pdfrwt beam="2">  1       -4 0.12252517E+00 0.12499801E+03</pdfrwt>
<totfact> 0.38207604E+03</totfact>
</mgrwt>
</event>
<event>
 5    1  0.3289127E-002  0.1250001E+03  0.7818608E-02  0.1235069E+00
         -4   -1    0    0    0  501 -0.00000000000E+00  0.00000000000E+00  0.16012761648E+03  0.16013265270E+03  0.12700000000E+01 0. -1.
          4   -1    0    0  501    0  0.00000000000E+00 -0.00000000000E+00 -0.24372678203E+02  0.24405744053E+02  0.12700000000E+01 0. -1.
         25    2    1    2    0    0  0.00000000000E+00  0.00000000000E+00  0.13575493828E+03  0.18453839675E+03  0.12500006643E+03 0.  0.
    9000005    1    3    3    0    0 -0.41350636780E+02 -0.64037252049E+01  0.13640053346E+03  0.14267791836E+03  0.10000000000E+01 0.  0.
    9000005    1    3    3    0    0  0.41350636780E+02  0.64037252049E+01 -0.64559517673E+00  0.41860478398E+02  0.10000000000E+01 0.  0.
<mgrwt>
<rscale>  0 0.12500007E+03</rscale>
<asrwt>0</asrwt>
<pdfrwt beam="2">  1        4 0.37525739E-02 0.12500007E+03</pdfrwt>
<pdfrwt beam="1">  1       -4 0.24637948E-01 0.12500007E+03</pdfrwt>
<totfact> 0.92806259E+03</totfact>
</mgrwt>
</event>
<event>
 5    1  0.3289127E-002  0.1250030E+03  0.7818608E-02  0.1235065E+00
         -4   -1    0    0    0  501 -0.00000000000E+00  0.00000000000E+00  0.32710071017E+02  0.32734716219E+02  0.12700000000E+01 0. -1.
          4   -1    0    0  501    0  0.00000000000E+00 -0.00000000000E+00 -0.11935316540E+03  0.11935992205E+03  0.12700000000E+01 0. -1.
         25    2    1    2    0    0  0.00000000000E+00  0.00000000000E+00 -0.86643094382E+02  0.15209463827E+03  0.12500301270E+03 0.  0.
    9000005    1    3    3    0    0 -0.63670347429E+01 -0.15885777362E+02 -0.11645226415E+03  0.11770737818E+03  0.10000000000E+01 0.  0.
    9000005    1    3    3    0    0  0.63670347429E+01  0.15885777362E+02  0.29809169766E+02  0.34387260082E+02  0.10000000000E+01 0.  0.
<mgrwt>
<rscale>  0 0.12500301E+03</rscale>
<asrwt>0</asrwt>
<pdfrwt beam="2">  1        4 0.18364441E-01 0.12500301E+03</pdfrwt>
<pdfrwt beam="1">  1       -4 0.50347342E-02 0.12500301E+03</pdfrwt>
<totfact> 0.98881088E+03</totfact>
</mgrwt>
</event>
<event>
 5    1  0.3289127E-002  0.1249994E+03  0.7818608E-02  0.1235070E+00
          4   -1    0    0  501    0  0.00000000000E+00  0.00000000000E+00  0.26773533964E+03  0.26773835174E+03  0.12700000000E+01 0.  1.
         -4   -1    0    0    0  501 -0.00000000000E+00 -0.00000000000E+00 -0.14559093808E+02  0.14614380333E+02  0.12700000000E+01 0.  1.
         25    2    1    2    0    0  0.00000000000E+00  0.00000000000E+00  0.25317624583E+03  0.28235273207E+03  0.12499941542E+03 0.  0.
    9000005    1    3    3    0    0  0.60711347070E+02 -0.12636986265E+02  0.10914204145E+03  0.12553304862E+03  0.10000000000E+01 0.  0.
    9000005    1    3    3    0    0 -0.60711347070E+02  0.12636986265E+02  0.14403420439E+03  0.15681968345E+03  0.10000000000E+01 0.  0.
<mgrwt>
<rscale>  0 0.12499942E+03</rscale>
<asrwt>0</asrwt>
<pdfrwt beam="1">  1        4 0.41194540E-01 0.12499942E+03</pdfrwt>
<pdfrwt beam="2">  1       -4 0.22443449E-02 0.12499942E+03</pdfrwt>
<totfact> 0.77868189E+03</totfact>
</mgrwt>
</event>
<event>
 5    1  0.3289127E-002  0.1249996E+03  0.7818608E-02  0.1235070E+00
         -4   -1    0    0    0  501 -0.00000000000E+00  0.00000000000E+00  0.26433094612E+01  0.29325730865E+01  0.12700000000E+01 0. -1.
          4   -1    0    0  501    0  0.00000000000E+00 -0.00000000000E+00 -0.14008256153E+04  0.14008261910E+04  0.12700000000E+01 0. -1.
         25    2    1    2    0    0  0.00000000000E+00  0.00000000000E+00 -0.13981823059E+04  0.14037587641E+04  0.12499962951E+03 0.  0.
    9000005    1    3    3    0    0 -0.60176486662E+02 -0.73276318620E+01 -0.86952369117E+03  0.87163487381E+03  0.10000000000E+01 0.  0.
    9000005    1    3    3    0    0  0.60176486662E+02  0.73276318620E+01 -0.52865861472E+03  0.53212389033E+03  0.10000000000E+01 0.  0.
<mgrwt>
<rscale>  0 0.12499963E+03</rscale>
<asrwt>0</asrwt>
<pdfrwt beam="2">  1        4 0.21553337E+00 0.12499963E+03</pdfrwt>
<pdfrwt beam="1">  1       -4 0.42895945E-03 0.12499963E+03</pdfrwt>
<totfact> 0.19900646E+03</totfact>
</mgrwt>
</event>
<event>
 5    1  0.3289127E-002  0.1250011E+03  0.7818608E-02  0.1235068E+00
          4   -1    0    0  501    0  0.00000000000E+00  0.00000000000E+00  0.54982290255E+02  0.54996955749E+02  0.12700000000E+01 0.  1.
         -4   -1    0    0    0  501 -0.00000000000E+00 -0.00000000000E+00 -0.71017031634E+02  0.71028386453E+02  0.12700000000E+01 0.  1.
         25    2    1    2    0    0  0.00000000000E+00  0.00000000000E+00 -0.16034741380E+02  0.12602534220E+03  0.12500109578E+03 0.  0.
    9000005    1    3    3    0    0  0.49213728439E+02  0.36561636406E+02  0.41886127541E+01  0.61459651808E+02  0.10000000000E+01 0.  0.
    9000005    1    3    3    0    0 -0.49213728439E+02 -0.36561636406E+02 -0.20223354134E+02  0.64565690394E+02  0.10000000000E+01 0.  0.
<mgrwt>
<rscale>  0 0.12500110E+03</rscale>
<asrwt>0</asrwt>
<pdfrwt beam="1">  1        4 0.84608154E-02 0.12500110E+03</pdfrwt>
<pdfrwt beam="2">  1       -4 0.10927699E-01 0.12500110E+03</pdfrwt>
<totfact> 0.10430144E+04</totfact>
</mgrwt>
</event>
<event>
 5    1  0.3289127E-002  0.1250007E+03  0.7818608E-02  0.1235068E+00
         -4   -1    0    0    0  501 -0.00000000000E+00  0.00000000000E+00  0.39461838135E+03  0.39462042497E+03  0.12700000000E+01 0. -1.
          4   -1    0    0  501    0  0.00000000000E+00 -0.00000000000E+00 -0.98561046088E+01  0.99375901535E+01  0.12700000000E+01 0. -1.
         25    2    1    2    0    0  0.00000000000E+00  0.00000000000E+00  0.38476227674E+03  0.40455801512E+03  0.12500071197E+03 0.  0.
    9000005    1    3    3    0    0  0.93067605215E+01  0.53517770204E+02  0.92389789446E+02  0.10718041198E+03  0.10000000000E+01 0.  0.
    9000005    1    3    3    0    0 -0.93067605215E+01 -0.53517770204E+02  0.29237248730E+03  0.29737760314E+03  0.10000000000E+01 0.  0.
<mgrwt>
<rscale>  0 0.12500071E+03</rscale>
<asrwt>0</asrwt>
<pdfrwt beam="2">  1        4 0.15227492E-02 0.12500071E+03</pdfrwt>
<pdfrwt beam="1">  1       -4 0.60716944E-01 0.12500071E+03</pdfrwt>
<totfact> 0.64110875E+03</totfact>
</mgrwt>
</event>
<event>
 5    1  0.3289127E-002  0.1249858E+03  0.7818608E-02  0.1235092E+00
         -4   -1    0    0    0  501 -0.00000000000E+00  0.00000000000E+00  0.26499427627E+03  0.26499731953E+03  0.12700000000E+01 0. -1.
          4   -1    0    0  501    0  0.00000000000E+00 -0.00000000000E+00 -0.14707037102E+02  0.14761769552E+02  0.12700000000E+01 0. -1.
         25    2    1    2    0    0  0.00000000000E+00  0.00000000000E+00  0.25028723917E+03  0.27975908908E+03  0.12498578252E+03 0.  0.
    9000005    1    3    3    0    0  0.15755800005E+02 -0.60071281483E+02  0.10970770084E+03  0.12606975734E+03  0.10000000000E+01 0.  0.
    9000005    1    3    3    0    0 -0.15755800005E+02  0.60071281483E+02  0.14057953833E+03  0.15368933174E+03  0.10000000000E+01 0.  0.
<mgrwt>
<rscale>  0 0.12498578E+03</rscale>
<asrwt>0</asrwt>
<pdfrwt beam="2">  1        4 0.22670655E-02 0.12498578E+03</pdfrwt>
<pdfrwt beam="1">  1       -4 0.40772792E-01 0.12498578E+03</pdfrwt>
<totfact> 0.78234782E+03</totfact>
</mgrwt>
</event>
<event>
 5    1  0.3289127E-002  0.1250406E+03  0.7818608E-02  0.1235006E+00
         -4   -1    0    0    0  501 -0.00000000000E+00  0.00000000000E+00  0.48763289532E+02  0.48779824784E+02  0.12700000000E+01 0.  1.
          4   -1    0    0  501    0  0.00000000000E+00 -0.00000000000E+00 -0.80123312775E+02  0.80133377253E+02  0.12700000000E+01 0.  1.
         25    2    1    2    0    0  0.00000000000E+00  0.00000000000E+00 -0.31360023243E+02  0.12891320204E+03  0.12504064380E+03 0.  0.
    9000005    1    3    3    0    0 -0.82743774198E+01  0.39411247143E+02 -0.64973755585E+02  0.76448025729E+02  0.10000000000E+01 0.  0.
    9000005    1    3    3    0    0  0.82743774198E+01 -0.39411247143E+02  0.33613732342E+02  0.52465176308E+02  0.10000000000E+01 0.  0.
<mgrwt>
<rscale>  0 0.12504064E+03</rscale>
<asrwt>0</asrwt>
<pdfrwt beam="2">  1        4 0.12328710E-01 0.12504064E+03</pdfrwt>
<pdfrwt beam="1">  1       -4 0.75040907E-02 0.12504064E+03</pdfrwt>
<totfact> 0.10358306E+04</totfact>
</mgrwt>
</event>
<event>
 5    1  0.3289127E-002  0.1249987E+03  0.7818608E-02  0.1235071E+00
          4   -1    0    0  501    0  0.00000000000E+00  0.00000000000E+00  0.41940767594E+01  0.43821432957E+01  0.12700000000E+01 0. -1.
         -4   -1    0    0    0  501 -0.00000000000E+00 -0.00000000000E+00 -0.91074170675E+03  0.91074259224E+03  0.12700000000E+01 0. -1.
         25    2    1    2    0    0  0.00000000000E+00  0.00000000000E+00 -0.90654762999E+03  0.91512473553E+03  0.12499870456E+03 0.  0.
    9000005    1    3    3    0    0  0.35924577869E+02 -0.28912311816E+02 -0.76203500936E+03  0.76342966445E+03  0.10000000000E+01 0.  0.
    9000005    1    3    3    0    0 -0.35924577869E+02  0.28912311816E+02 -0.14451262063E+03  0.15169507109E+03  0.10000000000E+01 0.  0.
<mgrwt>
<rscale>  0 0.12499870E+03</rscale>
<asrwt>0</asrwt>
<pdfrwt beam="1">  1        4 0.65977807E-03 0.12499870E+03</pdfrwt>
<pdfrwt beam="2">  1       -4 0.14012849E+00 0.12499870E+03</pdfrwt>
<totfact> 0.33588348E+03</totfact>
</mgrwt>
</event>
<event>
 5    1  0.3289127E-002  0.1249998E+03  0.7818608E-02  0.1235070E+00
          4   -1    0    0  501    0  0.00000000000E+00  0.00000000000E+00  0.20112506373E+03  0.20112907338E+03  0.12700000000E+01 0. -1.
         -4   -1    0    0    0  501 -0.00000000000E+00 -0.00000000000E+00 -0.19396950237E+02  0.19438481898E+02  0.12700000000E+01 0. -1.
         25    2    1    2    0    0  0.00000000000E+00  0.00000000000E+00  0.18172811349E+03  0.22056755528E+03  0.12499975684E+03 0.  0.
    9000005    1    3    3    0    0  0.27094213410E+02  0.16335723100E+02  0.18595778930E+03  0.18863258374E+03  0.10000000000E+01 0.  0.
    9000005    1    3    3    0    0 -0.27094213410E+02 -0.16335723100E+02 -0.42296758074E+01  0.31934971535E+02  0.10000000000E+01 0.  0.
<mgrwt>
<rscale>  0 0.12499976E+03</rscale>
<asrwt>0</asrwt>
<pdfrwt beam="1">  1        4 0.30945818E-01 0.12499976E+03</pdfrwt>
<pdfrwt beam="2">  1       -4 0.29876496E-02 0.12499976E+03</pdfrwt>
<totfact> 0.86779094E+03</totfact>
</mgrwt>
</event>
<event>
 5    1  0.3289127E-002  0.1250015E+03  0.7818608E-02  0.1235067E+00
          4   -1    0    0  501    0  0.00000000000E+00  0.00000000000E+00  0.11927697990E+03  0.11928374086E+03  0.12700000000E+01 0.  1.
         -4   -1    0    0    0  501 -0.00000000000E+00 -0.00000000000E+00 -0.32730195459E+02  0.32754825519E+02  0.12700000000E+01 0.  1.
         25    2    1    2    0    0  0.00000000000E+00  0.00000000000E+00  0.86546784436E+02  0.15203856638E+03  0.12500151907E+03 0.  0.
    9000005    1    3    3    0    0 -0.28977699494E+02 -0.32839539127E+01 -0.23952050426E+02  0.37751717058E+02  0.10000000000E+01 0.  0.
    9000005    1    3    3    0    0  0.28977699494E+02  0.32839539127E+01  0.11049883486E+03  0.11428684932E+03  0.10000000000E+01 0.  0.
<mgrwt>
<rscale>  0 0.12500152E+03</rscale>
<asrwt>0</asrwt>
<pdfrwt beam="1">  1        4 0.18352719E-01 0.12500152E+03</pdfrwt>
<pdfrwt beam="2">  1       -4 0.50378294E-02 0.12500152E+03</pdfrwt>
<totfact> 0.98895502E+03</totfact>
</mgrwt>
</event>
<event>
 5    1  0.3289127E-002  0.1250004E+03  0.7818608E-02  0.1235069E+00
         -4   -1    0    0    0  501 -0.00000000000E+00  0.00000000000E+00  0.98223919657E+02  0.98232129635E+02  0.12700000000E+01 0. -1.
          4   -1    0    0  501    0  0.00000000000E+00 -0.00000000000E+00 -0.39749036587E+02  0.39769319954E+02  0.12700000000E+01 0. -1.
         25    2    1    2    0    0  0.00000000000E+00  0.00000000000E+00  0.58474883069E+02  0.13800144959E+03  0.12500035256E+03 0.  0.
    9000005    1    3    3    0    0 -0.34266650817E+02  0.29549903341E+02  0.76823561180E+02  0.89164228804E+02  0.10000000000E+01 0.  0.
    9000005    1    3    3    0    0  0.34266650817E+02 -0.29549903341E+02 -0.18348678111E+02  0.48837220786E+02  0.10000000000E+01 0.  0.
<mgrwt>
<rscale>  0 0.12500035E+03</rscale>
<asrwt>0</asrwt>
<pdfrwt beam="2">  1        4 0.61174282E-02 0.12500035E+03</pdfrwt>
<pdfrwt beam="1">  1       -4 0.15113564E-01 0.12500035E+03</pdfrwt>
<totfact> 0.10175095E+04</totfact>
</mgrwt>
</event>
<event>
 5    1  0.3289127E-002  0.1250031E+03  0.7818608E-02  0.1235064E+00
         -4   -1    0    0    0  501 -0.00000000000E+00  0.00000000000E+00  0.18193249785E+04  0.18193254218E+04  0.12700000000E+01 0.  1.
          4   -1    0    0  501    0  0.00000000000E+00 -0.00000000000E+00 -0.19589214852E+01  0.23345820579E+01  0.12700000000E+01 0.  1.
         25    2    1    2    0    0  0.00000000000E+00  0.00000000000E+00  0.18173660571E+04  0.18216600039E+04  0.12500313737E+03 0.  0.
    9000005    1    3    3    0    0 -0.15791153092E+02  0.58629453008E+02  0.11241813069E+04  0.11258203161E+04  0.10000000000E+01 0.  0.
    9000005    1    3    3    0    0  0.15791153092E+02 -0.58629453008E+02  0.69318475013E+03  0.69583968777E+03  0.10000000000E+01 0.  0.
<mgrwt>
<rscale>  0 0.12500314E+03</rscale>
<asrwt>0</asrwt>
<pdfrwt beam="2">  1        4 0.33030250E-03 0.12500314E+03</pdfrwt>
<pdfrwt beam="1">  1       -4 0.27992602E+00 0.12500314E+03</pdfrwt>
<totfact> 0.12371796E+03</totfact>
</mgrwt>
</event>
<event>
 5    1  0.3289127E-002  0.1249934E+03  0.7818608E-02  0.1235080E+00
         -4   -1    0    0    0  501 -0.00000000000E+00  0.00000000000E+00  0.54500004662E+01  0.55960168943E+01  0.12700000000E+01 0. -1.
          4   -1    0    0  501    0  0.00000000000E+00 -0.00000000000E+00 -0.70704682737E+03  0.70704796796E+03  0.12700000000E+01 0. -1.
         25    2    1    2    0    0  0.00000000000E+00  0.00000000000E+00 -0.70159682691E+03  0.71264398486E+03  0.12499336632E+03 0.  0.
    9000005    1    3    3    0    0 -0.69131741633E+01 -0.47430029324E+02 -0.57938590946E+03  0.58136600497E+03  0.10000000000E+01 0.  0.
    9000005    1    3    3    0    0  0.69131741633E+01  0.47430029324E+02 -0.12221091745E+03  0.13127797988E+03  0.10000000000E+01 0.  0.
<mgrwt>
<rscale>  0 0.12499337E+03</rscale>
<asrwt>0</asrwt>
<pdfrwt beam="2">  1        4 0.10878768E+00 0.12499337E+03</pdfrwt>
<pdfrwt beam="1">  1       -4 0.84978194E-03 0.12499337E+03</pdfrwt>
<totfact> 0.42433771E+03</totfact>
</mgrwt>
</event>
<event>
 5    1  0.3289127E-002  0.1250161E+03  0.7818608E-02  0.1235044E+00
         -4   -1    0    0    0  501 -0.00000000000E+00  0.00000000000E+00  0.52227760311E+03  0.52227914721E+03  0.12700000000E+01 0.  1.
          4   -1    0    0  501    0  0.00000000000E+00 -0.00000000000E+00 -0.74257245091E+01  0.75335439525E+01  0.12700000000E+01 0.  1.
         25    2    1    2    0    0  0.00000000000E+00  0.00000000000E+00  0.51485187860E+03  0.52981269116E+03  0.12501612223E+03 0.  0.
    9000005    1    3    3    0    0 -0.24667863292E+02 -0.15146119039E+02  0.49217763211E+03  0.49302913702E+03  0.10000000000E+01 0.  0.
    9000005    1    3    3    0    0  0.24667863292E+02  0.15146119039E+02  0.22674246489E+02  0.36783554141E+02  0.10000000000E+01 0.  0.
<mgrwt>
<rscale>  0 0.12501612E+03</rscale>
<asrwt>0</asrwt>
<pdfrwt beam="2">  1        4 0.11508320E-02 0.12501612E+03</pdfrwt>
<pdfrwt beam="1">  1       -4 0.80358793E-01 0.12501612E+03</pdfrwt>
<totfact> 0.53604277E+03</totfact>
</mgrwt>
</event>
<event>
 5    1  0.3289127E-002  0.1250016E+03  0.7818608E-02  0.1235067E+00
         -4   -1    0    0    0  501 -0.00000000000E+00  0.00000000000E+00  0.11186224792E+03  0.11186945700E+03  0.12700000000E+01 0.  1.
          4   -1    0    0  501    0  0.00000000000E+00 -0.00000000000E+00 -0.34901189749E+02  0.34924288767E+02  0.12700000000E+01 0.  1.
         25    2    1    2    0    0  0.00000000000E+00  0.00000000000E+00  0.76961058168E+02  0.14679374577E+03  0.12500159728E+03 0.  0.
    9000005    1    3    3    0    0 -0.58285571265E+02  0.21542885965E+02  0.46274263575E+02  0.77482973761E+02  0.10000000000E+01 0.  0.
    9000005    1    3    3    0    0  0.58285571265E+02 -0.21542885965E+02  0.30686794592E+02  0.69310772004E+02  0.10000000000E+01 0.  0.
<mgrwt>
<rscale>  0 0.12500160E+03</rscale>
<asrwt>0</asrwt>
<pdfrwt beam="2">  1        4 0.53717452E-02 0.12500160E+03</pdfrwt>
<pdfrwt beam="1">  1       -4 0.17211908E-01 0.12500160E+03</pdfrwt>
<totfact> 0.99943106E+03</totfact>
</mgrwt>
</event>
<event>
 5    1  0.3289127E-002  0.1250013E+03  0.7818608E-02  0.1235067E+00
          4   -1    0    0  501    0  0.00000000000E+00  0.00000000000E+00  0.24289874122E+02  0.24323052540E+02  0.12700000000E+01 0.  1.
         -4   -1    0    0    0  501 -0.00000000000E+00 -0.00000000000E+00 -0.16067599438E+03  0.16068101341E+03  0.12700000000E+01 0.  1.
         25    2    1    2    0    0  0.00000000000E+00  0.00000000000E+00 -0.13638612026E+03  0.18500406595E+03  0.12500132247E+03 0.  0.
    9000005    1    3    3    0    0  0.17382235193E+02 -0.33555458045E+02  0.54698905655E+01  0.38197258641E+02  0.10000000000E+01 0.  0.
    9000005    1    3    3    0    0 -0.17382235193E+02  0.33555458045E+02 -0.14185601082E+03  0.14680680731E+03  0.10000000000E+01 0.  0.
<mgrwt>
<rscale>  0 0.12500132E+03</rscale>
<asrwt>0</asrwt>
<pdfrwt beam="1">  1        4 0.37398421E-02 0.12500132E+03</pdfrwt>
<pdfrwt beam="2">  1       -4 0.24722321E-01 0.12500132E+03</pdfrwt>
<totfact> 0.92721184E+03</totfact>
</mgrwt>
</event>
<event>
 5    1  0.3289127E-002  0.1249986E+03  0.7818608E-02  0.1235071E+00
         -4   -1    0    0    0  501 -0.00000000000E+00  0.00000000000E+00  0.34673908687E+01  0.36926547952E+01  0.12700000000E+01 0. -1.
          4   -1    0    0  501    0  0.00000000000E+00 -0.00000000000E+00 -0.10908741200E+04  0.10908748593E+04  0.12700000000E+01 0. -1.
         25    2    1    2    0    0  0.00000000000E+00  0.00000000000E+00 -0.10874067292E+04  0.10945675141E+04  0.12499859314E+03 0.  0.
    9000005    1    3    3    0    0  0.49834489009E+02  0.19233427028E+02 -0.25971799042E+03  0.26515624744E+03  0.10000000000E+01 0.  0.
    9000005    1    3    3    0    0 -0.49834489009E+02 -0.19233427028E+02 -0.82768873875E+03  0.82941126666E+03  0.10000000000E+01 0.  0.
<mgrwt>
<rscale>  0 0.12499859E+03</rscale>
<asrwt>0</asrwt>
<pdfrwt beam="2">  1        4 0.16784391E+00 0.12499859E+03</pdfrwt>
<pdfrwt beam="1">  1       -4 0.55083048E-03 0.12499859E+03</pdfrwt>
<totfact> 0.27643824E+03</totfact>
</mgrwt>
</event>
<event>
 5    1  0.3289127E-002  0.1250239E+03  0.7818608E-02  0.1235032E+00
          4   -1    0    0  501    0  0.00000000000E+00  0.00000000000E+00  0.11066545151E+03  0.11067273855E+03  0.12700000000E+01 0. -1.
         -4   -1    0    0    0  501 -0.00000000000E+00 -0.00000000000E+00 -0.35291429975E+02  0.35314273739E+02  0.12700000000E+01 0. -1.
         25    2    1    2    0    0  0.00000000000E+00  0.00000000000E+00  0.75374021536E+02  0.14598701229E+03  0.12502385626E+03 0.  0.
    9000005    1    3    3    0    0 -0.17754646418E+02  0.55923746235E+02  0.62840771273E+02  0.85980552432E+02  0.10000000000E+01 0.  0.
    9000005    1    3    3    0    0  0.17754646418E+02 -0.55923746235E+02  0.12533250263E+02  0.60006459857E+02  0.10000000000E+01 0.  0.
<mgrwt>
<rscale>  0 0.12502386E+03</rscale>
<asrwt>0</asrwt>
<pdfrwt beam="1">  1        4 0.17027772E-01 0.12502386E+03</pdfrwt>
<pdfrwt beam="2">  1       -4 0.54317686E-02 0.12502386E+03</pdfrwt>
<totfact> 0.10005598E+04</totfact>
</mgrwt>
</event>
<event>
 5    1  0.3289127E-002  0.1250003E+03  0.7818608E-02  0.1235069E+00
          4   -1    0    0  501    0  0.00000000000E+00  0.00000000000E+00  0.10015663203E+04  0.10015671255E+04  0.12700000000E+01 0. -1.
         -4   -1    0    0    0  501 -0.00000000000E+00 -0.00000000000E+00 -0.37959473914E+01  0.40027636201E+01  0.12700000000E+01 0. -1.
         25    2    1    2    0    0  0.00000000000E+00  0.00000000000E+00  0.99777037294E+03  0.10055698891E+04  0.12500033931E+03 0.  0.
    9000005    1    3    3    0    0  0.36467606901E+01 -0.60160623081E+02  0.36604754372E+03  0.37097763234E+03  0.10000000000E+01 0.  0.
    9000005    1    3    3    0    0 -0.36467606901E+01  0.60160623081E+02  0.63172282922E+03  0.63459225680E+03  0.10000000000E+01 0.  0.
<mgrwt>
<rscale>  0 0.12500034E+03</rscale>
<asrwt>0</asrwt>
<pdfrwt beam="1">  1        4 0.15410317E+00 0.12500034E+03</pdfrwt>
<pdfrwt beam="2">  1       -4 0.59996249E-03 0.12500034E+03</pdfrwt>
<totfact> 0.30421038E+03</totfact>
</mgrwt>
</event>
<event>
 5    1  0.3289127E-002  0.1249965E+03  0.7818608E-02  0.1235075E+00
          4   -1    0    0  501    0  0.00000000000E+00  0.00000000000E+00  0.20460533400E+03  0.20460927545E+03  0.12700000000E+01 0.  1.
         -4   -1    0    0    0  501 -0.00000000000E+00 -0.00000000000E+00 -0.19065302079E+02  0.19107554615E+02  0.12700000000E+01 0.  1.
         25    2    1    2    0    0  0.00000000000E+00  0.00000000000E+00  0.18554003192E+03  0.22371683007E+03  0.12499646639E+03 0.  0.
    9000005    1    3    3    0    0 -0.27089075544E+02 -0.45887234461E+02  0.15119417837E+03  0.16031261920E+03  0.10000000000E+01 0.  0.
    9000005    1    3    3    0    0  0.27089075544E+02  0.45887234461E+02  0.34345853551E+02  0.63404210873E+02  0.10000000000E+01 0.  0.
<mgrwt>
<rscale>  0 0.12499647E+03</rscale>
<asrwt>0</asrwt>
<pdfrwt beam="1">  1        4 0.31481298E-01 0.12499647E+03</pdfrwt>
<pdfrwt beam="2">  1       -4 0.29366767E-02 0.12499647E+03</pdfrwt>
<totfact> 0.86290412E+03</totfact>
</mgrwt>
</event>
<event>
 5    1  0.3289127E-002  0.1249950E+03  0.7818608E-02  0.1235077E+00
         -4   -1    0    0    0  501 -0.00000000000E+00  0.00000000000E+00  0.60416210768E+02  0.60429557533E+02  0.12700000000E+01 0.  1.
          4   -1    0    0  501    0  0.00000000000E+00 -0.00000000000E+00 -0.64623794720E+02  0.64636272665E+02  0.12700000000E+01 0.  1.
         25    2    1    2    0    0  0.00000000000E+00  0.00000000000E+00 -0.42075839518E+01  0.12506583020E+03  0.12499503238E+03 0.  0.
    9000005    1    3    3    0    0  0.58341917296E+02 -0.21894798912E+02  0.25655414089E+01  0.62375824931E+02  0.10000000000E+01 0.  0.
    9000005    1    3    3    0    0 -0.58341917296E+02  0.21894798912E+02 -0.67731253607E+01  0.62690005266E+02  0.10000000000E+01 0.  0.
<mgrwt>
<rscale>  0 0.12499503E+03</rscale>
<asrwt>0</asrwt>
<pdfrwt beam="2">  1        4 0.99441088E-02 0.12499503E+03</pdfrwt>
<pdfrwt beam="1">  1       -4 0.92967882E-02 0.12499503E+03</pdfrwt>
<totfact> 0.10452606E+04</totfact>
</mgrwt>
</event>
<event>
 5    1  0.3289127E-002  0.1249991E+03  0.7818608E-02  0.1235071E+00
          4   -1    0    0  501    0  0.00000000000E+00  0.00000000000E+00  0.15373466731E+03  0.15373991295E+03  0.12700000000E+01 0.  1.
         -4   -1    0    0    0  501 -0.00000000000E+00 -0.00000000000E+00 -0.25387113914E+02  0.25418860180E+02  0.12700000000E+01 0.  1.
         25    2    1    2    0    0  0.00000000000E+00  0.00000000000E+00  0.12834755340E+03  0.17915877313E+03  0.12499908610E+03 0.  0.
    9000005    1    3    3    0    0 -0.54010631926E+02  0.13671368336E+02  0.10474190437E+03  0.11864198753E+03  0.10000000000E+01 0.  0.
    9000005    1    3    3    0    0  0.54010631926E+02 -0.13671368336E+02  0.23605649024E+02  0.60516785598E+02  0.10000000000E+01 0.  0.
<mgrwt>
<rscale>  0 0.12499909E+03</rscale>
<asrwt>0</asrwt>
<pdfrwt beam="1">  1        4 0.23654333E-01 0.12499909E+03</pdfrwt>
<pdfrwt beam="2">  1       -4 0.39085554E-02 0.12499909E+03</pdfrwt>
<totfact> 0.93770568E+03</totfact>
</mgrwt>
</event>
<event>
 5    1  0.3289127E-002  0.1250000E+03  0.7818608E-02  0.1235069E+00
          4   -1    0    0  501    0  0.00000000000E+00  0.00000000000E+00  0.64238332211E+01  0.65481702217E+01  0.12700000000E+01 0.  1.
         -4   -1    0    0    0  501 -0.00000000000E+00 -0.00000000000E+00 -0.60213370382E+03  0.60213504314E+03  0.12700000000E+01 0.  1.
         25    2    1    2    0    0  0.00000000000E+00  0.00000000000E+00 -0.59570987060E+03  0.60868321336E+03  0.12500001719E+03 0.  0.
    9000005    1    3    3    0    0  0.66289842516E+01  0.86870728191E+01  0.17593511036E+01  0.11113234573E+02  0.10000000000E+01 0.  0.
    9000005    1    3    3    0    0 -0.66289842516E+01 -0.86870728191E+01 -0.59746922170E+03  0.59756997879E+03  0.10000000000E+01 0.  0.
<mgrwt>
<rscale>  0 0.12500002E+03</rscale>
<asrwt>0</asrwt>
<pdfrwt beam="1">  1        4 0.99794992E-03 0.12500002E+03</pdfrwt>
<pdfrwt beam="2">  1       -4 0.92645578E-01 0.12500002E+03</pdfrwt>
<totfact> 0.48324047E+03</totfact>
</mgrwt>
</event>
<event>
 5    1  0.3289127E-002  0.1250054E+03  0.7818608E-02  0.1235061E+00
         -4   -1    0    0    0  501 -0.00000000000E+00  0.00000000000E+00  0.18216569664E+02  0.18260786136E+02  0.12700000000E+01 0.  1.
          4   -1    0    0  501    0  0.00000000000E+00 -0.00000000000E+00 -0.21414647159E+03  0.21415023744E+03  0.12700000000E+01 0.  1.
         25    2    1    2    0    0  0.00000000000E+00  0.00000000000E+00 -0.19592990192E+03  0.23241102357E+03  0.12500542952E+03 0.  0.
    9000005    1    3    3    0    0 -0.30165469823E+02 -0.42780074370E+02 -0.16143718770E+03  0.16971463080E+03  0.10000000000E+01 0.  0.
    9000005    1    3    3    0    0  0.30165469823E+02  0.42780074370E+02 -0.34492714221E+02  0.62696392775E+02  0.10000000000E+01 0.  0.
<mgrwt>
<rscale>  0 0.12500543E+03</rscale>
<asrwt>0</asrwt>
<pdfrwt beam="2">  1        4 0.32949300E-01 0.12500543E+03</pdfrwt>
<pdfrwt beam="1">  1       -4 0.28062403E-02 0.12500543E+03</pdfrwt>
<totfact> 0.84930466E+03</totfact>
</mgrwt>
</event>
<event>
 5    1  0.3289127E-002  0.1250015E+03  0.7818608E-02  0.1235067E+00
          4   -1    0    0  501    0  0.00000000000E+00  0.00000000000E+00  0.10622999683E+03  0.10623758810E+03  0.12700000000E+01 0.  1.
         -4   -1    0    0    0  501 -0.00000000000E+00 -0.00000000000E+00 -0.36752648591E+02  0.36774584681E+02  0.12700000000E+01 0.  1.
         25    2    1    2    0    0  0.00000000000E+00  0.00000000000E+00  0.69477348238E+02  0.14301217279E+03  0.12500151858E+03 0.  0.
    9000005    1    3    3    0    0 -0.18186774192E+02  0.44219428796E+02 -0.11298828342E+02  0.49140412701E+02  0.10000000000E+01 0.  0.
    9000005    1    3    3    0    0  0.18186774192E+02 -0.44219428796E+02  0.80776176579E+02  0.93871760085E+02  0.10000000000E+01 0.  0.
<mgrwt>
<rscale>  0 0.12500152E+03</rscale>
<asrwt>0</asrwt>
<pdfrwt beam="1">  1        4 0.16345348E-01 0.12500152E+03</pdfrwt>
<pdfrwt beam="2">  1       -4 0.56565249E-02 0.12500152E+03</pdfrwt>
<totfact> 0.10071190E+04</totfact>
</mgrwt>
</event>
<event>
 5    1  0.3289127E-002  0.1250056E+03  0.7818608E-02  0.1235061E+00
         -4   -1    0    0    0  501 -0.00000000000E+00  0.00000000000E+00  0.13819495722E+03  0.13820079269E+03  0.12700000000E+01 0. -1.
          4   -1    0    0  501    0  0.00000000000E+00 -0.00000000000E+00 -0.28248063661E+02  0.28276598109E+02  0.12700000000E+01 0. -1.
         25    2    1    2    0    0  0.00000000000E+00  0.00000000000E+00  0.10994689356E+03  0.16647739080E+03  0.12500560885E+03 0.  0.
    9000005    1    3    3    0    0  0.54120952003E+02 -0.10725526033E+02  0.15884863965E+02  0.57423368566E+02  0.10000000000E+01 0.  0.
    9000005    1    3    3    0    0 -0.54120952003E+02  0.10725526033E+02  0.94062029595E+02  0.10905402224E+03  0.10000000000E+01 0.  0.
<mgrwt>
<rscale>  0 0.12500561E+03</rscale>
<asrwt>0</asrwt>
<pdfrwt beam="2">  1        4 0.43484998E-02 0.12500561E+03</pdfrwt>
<pdfrwt beam="1">  1       -4 0.21263407E-01 0.12500561E+03</pdfrwt>
<totfact> 0.96096220E+03</totfact>
</mgrwt>
</event>
<event>
 5    1  0.3289127E-002  0.1249979E+03  0.7818608E-02  0.1235072E+00
         -4   -1    0    0    0  501 -0.00000000000E+00  0.00000000000E+00  0.46964550128E+02  0.46981718452E+02  0.12700000000E+01 0.  1.
          4   -1    0    0  501    0  0.00000000000E+00 -0.00000000000E+00 -0.83134488446E+02  0.83144188426E+02  0.12700000000E+01 0.  1.
         25    2    1    2    0    0  0.00000000000E+00  0.00000000000E+00 -0.36169938318E+02  0.13012590688E+03  0.12499794880E+03 0.  0.
    9000005    1    3    3    0    0  0.54325101334E+02 -0.28662594192E+02 -0.30061765728E+02  0.68392036813E+02  0.10000000000E+01 0.  0.
    9000005    1    3    3    0    0 -0.54325101334E+02  0.28662594192E+02 -0.61081725896E+01  0.61733870065E+02  0.10000000000E+01 0.  0.
<mgrwt>
<rscale>  0 0.12499795E+03</rscale>
<asrwt>0</asrwt>
<pdfrwt beam="2">  1        4 0.12791988E-01 0.12499795E+03</pdfrwt>
<pdfrwt beam="1">  1       -4 0.72273822E-02 0.12499795E+03</pdfrwt>
<totfact> 0.10342294E+04</totfact>
</mgrwt>
</event>
<event>
 5    1  0.3289127E-002  0.1250024E+03  0.7818608E-02  0.1235065E+00
          4   -1    0    0  501    0  0.00000000000E+00  0.00000000000E+00  0.25342386516E+03  0.25342704736E+03  0.12700000000E+01 0. -1.
         -4   -1    0    0    0  501 -0.00000000000E+00 -0.00000000000E+00 -0.15385058805E+02  0.15437387552E+02  0.12700000000E+01 0. -1.
         25    2    1    2    0    0  0.00000000000E+00  0.00000000000E+00  0.23803880636E+03  0.26886443491E+03  0.12500244409E+03 0.  0.
    9000005    1    3    3    0    0 -0.47888585661E+02 -0.32422193047E+02  0.16995867604E+03  0.17953124185E+03  0.10000000000E+01 0.  0.
    9000005    1    3    3    0    0  0.47888585661E+02  0.32422193047E+02  0.68080130311E+02  0.89333193057E+02  0.10000000000E+01 0.  0.
<mgrwt>
<rscale>  0 0.12500244E+03</rscale>
<asrwt>0</asrwt>
<pdfrwt beam="1">  1        4 0.38992554E-01 0.12500244E+03</pdfrwt>
<pdfrwt beam="2">  1       -4 0.23712024E-02 0.12500244E+03</pdfrwt>
<totfact> 0.79673605E+03</totfact>
</mgrwt>
</event>
<event>
 5    1  0.3289127E-002  0.1250007E+03  0.7818608E-02  0.1235068E+00
          4   -1    0    0  501    0  0.00000000000E+00  0.00000000000E+00  0.79202752366E+03  0.79202854187E+03  0.12700000000E+01 0. -1.
         -4   -1    0    0    0  501 -0.00000000000E+00 -0.00000000000E+00 -0.48492229264E+01  0.50127699918E+01  0.12700000000E+01 0. -1.
         25    2    1    2    0    0  0.00000000000E+00  0.00000000000E+00  0.78717830074E+03  0.79704131187E+03  0.12500070267E+03 0.  0.
    9000005    1    3    3    0    0  0.13381092201E+02  0.43301902696E+02  0.66793181281E+03  0.66946845704E+03  0.10000000000E+01 0.  0.
    9000005    1    3    3    0    0 -0.13381092201E+02 -0.43301902696E+02  0.11924648793E+03  0.12757285483E+03  0.10000000000E+01 0.  0.
<mgrwt>
<rscale>  0 0.12500070E+03</rscale>
<asrwt>0</asrwt>
<pdfrwt beam="1">  1        4 0.12186294E+00 0.12500070E+03</pdfrwt>
<pdfrwt beam="2">  1       -4 0.75869380E-03 0.12500070E+03</pdfrwt>
<totfact> 0.38396590E+03</totfact>
</mgrwt>
</event>
<event>
 5    1  0.3289127E-002  0.1249986E+03  0.7818608E-02  0.1235071E+00
         -4   -1    0    0    0  501 -0.00000000000E+00  0.00000000000E+00  0.25140981237E+01  0.28166628083E+01  0.12700000000E+01 0.  1.
          4   -1    0    0  501    0  0.00000000000E+00 -0.00000000000E+00 -0.14652152260E+04  0.14652157764E+04  0.12700000000E+01 0.  1.
         25    2    1    2    0    0  0.00000000000E+00  0.00000000000E+00 -0.14627011278E+04  0.14680324392E+04  0.12499861226E+03 0.  0.
    9000005    1    3    3    0    0 -0.58758712151E+02  0.16632261799E+02 -0.57556802474E+03  0.57879942078E+03  0.10000000000E+01 0.  0.
    9000005    1    3    3    0    0  0.58758712151E+02 -0.16632261799E+02 -0.88713310310E+03  0.88923301839E+03  0.10000000000E+01 0.  0.
<mgrwt>
<rscale>  0 0.12499861E+03</rscale>
<asrwt>0</asrwt>
<pdfrwt beam="2">  1        4 0.22544040E+00 0.12499861E+03</pdfrwt>
<pdfrwt beam="1">  1       -4 0.41010204E-03 0.12499861E+03</pdfrwt>
<totfact> 0.18567047E+03</totfact>
</mgrwt>
</event>
<event>
 5    1  0.3289127E-002  0.1250008E+03  0.7818608E-02  0.1235068E+00
         -4   -1    0    0    0  501 -0.00000000000E+00  0.00000000000E+00  0.78235125468E+01  0.79259225690E+01  0.12700000000E+01 0.  1.
          4   -1    0    0  501    0  0.00000000000E+00 -0.00000000000E+00 -0.49595305460E+03  0.49595468066E+03  0.12700000000E+01 0.  1.
         25    2    1    2    0    0  0.00000000000E+00  0.00000000000E+00 -0.48812954205E+03  0.50388060323E+03  0.12500084993E+03 0.  0.
    9000005    1    3    3    0    0 -0.54587506736E+02  0.30421271212E+02 -0.24313250627E+03  0.25103717899E+03  0.10000000000E+01 0.  0.
    9000005    1    3    3    0    0  0.54587506736E+02 -0.30421271212E+02 -0.24499703579E+03  0.25284342423E+03  0.10000000000E+01 0.  0.
<mgrwt>
<rscale>  0 0.12500085E+03</rscale>
<asrwt>0</asrwt>
<pdfrwt beam="2">  1        4 0.76308448E-01 0.12500085E+03</pdfrwt>
<pdfrwt beam="1">  1       -4 0.12116205E-02 0.12500085E+03</pdfrwt>
<totfact> 0.55563504E+03</totfact>
</mgrwt>
</event>
<event>
 5    1  0.3289127E-002  0.1249987E+03  0.7818608E-02  0.1235071E+00
         -4   -1    0    0    0  501 -0.00000000000E+00  0.00000000000E+00  0.24069559424E+02  0.24103041112E+02  0.12700000000E+01 0. -1.
          4   -1    0    0  501    0  0.00000000000E+00 -0.00000000000E+00 -0.16213791506E+03  0.16214288884E+03  0.12700000000E+01 0. -1.
         25    2    1    2    0    0  0.00000000000E+00  0.00000000000E+00 -0.13806835564E+03  0.18624592995E+03  0.12499870237E+03 0.  0.
    9000005    1    3    3    0    0 -0.49454025405E+02  0.22674869457E+02 -0.23223113710E+02  0.59162178324E+02  0.10000000000E+01 0.  0.
    9000005    1    3    3    0    0  0.49454025405E+02 -0.22674869457E+02 -0.11484524193E+03  0.12708375163E+03  0.10000000000E+01 0.  0.
<mgrwt>
<rscale>  0 0.12499870E+03</rscale>
<asrwt>0</asrwt>
<pdfrwt beam="2">  1        4 0.24947252E-01 0.12499870E+03</pdfrwt>
<pdfrwt beam="1">  1       -4 0.37059674E-02 0.12499870E+03</pdfrwt>
<totfact> 0.92507334E+03</totfact>
</mgrwt>
</event>
<event>
 5    1  0.3289127E-002  0.1249867E+03  0.7818608E-02  0.1235090E+00
          4   -1    0    0  501    0  0.00000000000E+00  0.00000000000E+00  0.48592987534E+03  0.48593153494E+03  0.12700000000E+01 0.  1.
         -4   -1    0    0    0  501 -0.00000000000E+00 -0.00000000000E+00 -0.79851428850E+01  0.80855059764E+01  0.12700000000E+01 0.  1.
         25    2    1    2    0    0  0.00000000000E+00  0.00000000000E+00  0.47794473245E+03  0.49401704091E+03  0.12498667702E+03 0.  0.
    9000005    1    3    3    0    0 -0.57745885990E+02 -0.15040288362E+02  0.16570387343E+03  0.17612373858E+03  0.10000000000E+01 0.  0.
    9000005    1    3    3    0    0  0.57745885990E+02  0.15040288362E+02  0.31224085903E+03  0.31789330233E+03  0.10000000000E+01 0.  0.
<mgrwt>
<rscale>  0 0.12498668E+03</rscale>
<asrwt>0</asrwt>
<pdfrwt beam="1">  1        4 0.74766334E-01 0.12498668E+03</pdfrwt>
<pdfrwt beam="2">  1       -4 0.12363307E-02 0.12498668E+03</pdfrwt>
<totfact> 0.56348062E+03</totfact>
</mgrwt>
</event>
<event>
 5    1  0.3289127E-002  0.1250021E+03  0.7818608E-02  0.1235066E+00
         -4   -1    0    0    0  501 -0.00000000000E+00  0.00000000000E+00  0.15987136509E+02  0.16037500858E+02  0.12700000000E+01 0. -1.
          4   -1    0    0  501    0  0.00000000000E+00 -0.00000000000E+00 -0.24390912848E+03  0.24391243481E+03  0.12700000000E+01 0. -1.
         25    2    1    2    0    0  0.00000000000E+00  0.00000000000E+00 -0.22792199197E+03  0.25994993567E+03  0.12500213850E+03 0.  0.
    9000005    1    3    3    0    0 -0.52516931514E+02  0.29684788721E+02 -0.14788842186E+03  0.15972225925E+03  0.10000000000E+01 0.  0.
    9000005    1    3    3    0    0  0.52516931514E+02 -0.29684788721E+02 -0.80033570103E+02  0.10022767642E+03  0.10000000000E+01 0.  0.
<mgrwt>
<rscale>  0 0.12500214E+03</rscale>
<asrwt>0</asrwt>
<pdfrwt beam="2">  1        4 0.37528607E-01 0.12500214E+03</pdfrwt>
<pdfrwt beam="1">  1       -4 0.24636882E-02 0.12500214E+03</pdfrwt>
<totfact> 0.80909237E+03</totfact>
</mgrwt>
</event>
<event>
 5    1  0.3289127E-002  0.1250000E+03  0.7818608E-02  0.1235069E+00
          4   -1    0    0  501    0  0.00000000000E+00  0.00000000000E+00  0.15268415805E+03  0.15268943978E+03  0.12700000000E+01 0. -1.
         -4   -1    0    0    0  501 -0.00000000000E+00 -0.00000000000E+00 -0.25562384377E+02  0.25593913242E+02  0.12700000000E+01 0. -1.
         25    2    1    2    0    0  0.00000000000E+00  0.00000000000E+00  0.12712177367E+03  0.17828335302E+03  0.12500003449E+03 0.  0.
    9000005    1    3    3    0    0  0.39579676238E+02  0.35680129868E+02  0.17001867737E+02  0.55943596104E+02  0.10000000000E+01 0.  0.
    9000005    1    3    3    0    0 -0.39579676238E+02 -0.35680129868E+02  0.11011990593E+03  0.12233975691E+03  0.10000000000E+01 0.  0.
<mgrwt>
<rscale>  0 0.12500003E+03</rscale>
<asrwt>0</asrwt>
<pdfrwt beam="1">  1        4 0.23492701E-01 0.12500003E+03</pdfrwt>
<pdfrwt beam="2">  1       -4 0.39355062E-02 0.12500003E+03</pdfrwt>
<totfact> 0.93926849E+03</totfact>
</mgrwt>
</event>
<event>
 5    1  0.3289127E-002  0.1249995E+03  0.7818608E-02  0.1235070E+00
         -4   -1    0    0    0  501 -0.00000000000E+00  0.00000000000E+00  0.47346930879E+02  0.47363960599E+02  0.12700000000E+01 0.  1.
          4   -1    0    0  501    0  0.00000000000E+00 -0.00000000000E+00 -0.82465268551E+02  0.82475047240E+02  0.12700000000E+01 0.  1.
         25    2    1    2    0    0  0.00000000000E+00  0.00000000000E+00 -0.35118337672E+02  0.12983900784E+03  0.12499948126E+03 0.  0.
    9000005    1    3    3    0    0  0.78732564211E+01 -0.61073041679E+02 -0.28616156668E+02  0.67910153947E+02  0.10000000000E+01 0.  0.
    9000005    1    3    3    0    0 -0.78732564211E+01  0.61073041679E+02 -0.65021810047E+01  0.61928853892E+02  0.10000000000E+01 0.  0.
<mgrwt>
<rscale>  0 0.12499948E+03</rscale>
<asrwt>0</asrwt>
<pdfrwt beam="2">  1        4 0.12689027E-01 0.12499948E+03</pdfrwt>
<pdfrwt beam="1">  1       -4 0.72862054E-02 0.12499948E+03</pdfrwt>
<totfact> 0.10348074E+04</totfact>
</mgrwt>
</event>
<event>
 5    1  0.3289127E-002  0.1249968E+03  0.7818608E-02  0.1235074E+00
         -4   -1    0    0    0  501 -0.00000000000E+00  0.00000000000E+00  0.17792013849E+03  0.17792467109E+03  0.12700000000E+01 0.  1.
          4   -1    0    0  501    0  0.00000000000E+00 -0.00000000000E+00 -0.21930763818E+02  0.21967505585E+02  0.12700000000E+01 0.  1.
         25    2    1    2    0    0  0.00000000000E+00  0.00000000000E+00  0.15598937468E+03  0.19989217667E+03  0.12499678909E+03 0.  0.
    9000005    1    3    3    0    0 -0.56325221664E+02  0.26363299530E+02  0.68202390623E+02  0.92304497422E+02  0.10000000000E+01 0.  0.
    9000005    1    3    3    0    0  0.56325221664E+02 -0.26363299530E+02  0.87786984053E+02  0.10758767925E+03  0.10000000000E+01 0.  0.
<mgrwt>
<rscale>  0 0.12499679E+03</rscale>
<asrwt>0</asrwt>
<pdfrwt beam="2">  1        4 0.33771388E-02 0.12499679E+03</pdfrwt>
<pdfrwt beam="1">  1       -4 0.27375503E-01 0.12499679E+03</pdfrwt>
<totfact> 0.90160173E+03</totfact>
</mgrwt>
</event>
<event>
 5    1  0.3289127E-002  0.1250001E+03  0.7818608E-02  0.1235069E+00
         -4   -1    0    0    0  501 -0.00000000000E+00  0.00000000000E+00  0.43916122875E+03  0.43916306509E+03  0.12700000000E+01 0. -1.
          4   -1    0    0  501    0  0.00000000000E+00 -0.00000000000E+00 -0.88476199677E+01  0.89383040390E+01  0.12700000000E+01 0. -1.
         25    2    1    2    0    0  0.00000000000E+00  0.00000000000E+00  0.43031360878E+03  0.44810136912E+03  0.12500014044E+03 0.  0.
    9000005    1    3    3    0    0 -0.46228306830E+02 -0.31664362165E+02  0.11596897379E+03  0.12880019824E+03  0.10000000000E+01 0.  0.
    9000005    1    3    3    0    0  0.46228306830E+02  0.31664362165E+02  0.31434463499E+03  0.31930117089E+03  0.10000000000E+01 0.  0.
<mgrwt>
<rscale>  0 0.12500014E+03</rscale>
<asrwt>0</asrwt>
<pdfrwt beam="2">  1        4 0.13682893E-02 0.12500014E+03</pdfrwt>
<pdfrwt beam="1">  1       -4 0.67570381E-01 0.12500014E+03</pdfrwt>
<totfact> 0.60128440E+03</totfact>
</mgrwt>
</event>
<event>
 5    1  0.3289127E-002  0.1250058E+03  0.7818608E-02  0.1235060E+00
          4   -1    0    0  501    0  0.00000000000E+00  0.00000000000E+00  0.16903402510E+04  0.16903407281E+04  0.12700000000E+01 0. -1.
         -4   -1    0    0    0  501 -0.00000000000E+00 -0.00000000000E+00 -0.21361560421E+01  0.24851685328E+01  0.12700000000E+01 0. -1.
         25    2    1    2    0    0  0.00000000000E+00  0.00000000000E+00  0.16882040950E+04  0.16928258966E+04  0.12500580009E+03 0.  0.
    9000005    1    3    3    0    0 -0.12695916730E+02  0.59560263174E+02  0.10341733869E+04  0.10359653495E+04  0.10000000000E+01 0.  0.
    9000005    1    3    3    0    0  0.12695916730E+02 -0.59560263174E+02  0.65403070809E+03  0.65686054713E+03  0.10000000000E+01 0.  0.
<mgrwt>
<rscale>  0 0.12500580E+03</rscale>
<asrwt>0</asrwt>
<pdfrwt beam="1">  1        4 0.26008004E+00 0.12500580E+03</pdfrwt>
<pdfrwt beam="2">  1       -4 0.35552210E-03 0.12500580E+03</pdfrwt>
<totfact> 0.14426039E+03</totfact>
</mgrwt>
</event>
<event>
 5    1  0.3289127E-002  0.1250000E+03  0.7818608E-02  0.1235069E+00
         -4   -1    0    0    0  501 -0.00000000000E+00  0.00000000000E+00  0.22249253256E+03  0.22249615714E+03  0.12700000000E+01 0. -1.
          4   -1    0    0  501    0  0.00000000000E+00 -0.00000000000E+00 -0.17530028773E+02  0.17575972484E+02  0.12700000000E+01 0. -1.
         25    2    1    2    0    0  0.00000000000E+00  0.00000000000E+00  0.20496250379E+03  0.24007212963E+03  0.12499999787E+03 0.  0.
    9000005    1    3    3    0    0 -0.57047017799E+02 -0.24364628723E+02  0.11701337087E+03  0.13244291727E+03  0.10000000000E+01 0.  0.
    9000005    1    3    3    0    0  0.57047017799E+02  0.24364628723E+02  0.87949132919E+02  0.10762921236E+03  0.10000000000E+01 0.  0.
<mgrwt>
<rscale>  0 0.12500000E+03</rscale>
<asrwt>0</asrwt>
<pdfrwt beam="2">  1        4 0.27007405E-02 0.12500000E+03</pdfrwt>
<pdfrwt beam="1">  1       -4 0.34233433E-01 0.12500000E+03</pdfrwt>
<totfact> 0.83786629E+03</totfact>
</mgrwt>
</event>
<event>
 5    1  0.3289127E-002  0.1249884E+03  0.7818608E-02  0.1235087E+00
         -4   -1    0    0    0  501 -0.00000000000E+00  0.00000000000E+00  0.11080664609E+04  0.11080671887E+04  0.12700000000E+01 0. -1.
          4   -1    0    0  501    0  0.00000000000E+00 -0.00000000000E+00 -0.34094784099E+01  0.36383297030E+01  0.12700000000E+01 0. -1.
         25    2    1    2    0    0  0.00000000000E+00  0.00000000000E+00  0.11046569825E+04  0.11117055184E+04  0.12498844219E+03 0.  0.
    9000005    1    3    3    0    0  0.69249501446E+01 -0.72374693338E+01  0.11009225594E+04  0.11009685816E+04  0.10000000000E+01 0.  0.
    9000005    1    3    3    0    0 -0.69249501446E+01  0.72374693338E+01  0.37344231619E+01  0.10736936864E+02  0.10000000000E+01 0.  0.
<mgrwt>
<rscale>  0 0.12498844E+03</rscale>
<asrwt>0</asrwt>
<pdfrwt beam="2">  1        4 0.54219459E-03 0.12498844E+03</pdfrwt>
<pdfrwt beam="1">  1       -4 0.17048957E+00 0.12498844E+03</pdfrwt>
<totfact> 0.27150126E+03</totfact>
</mgrwt>
</event>
<event>
 5    1  0.3289127E-002  0.1250360E+03  0.7818608E-02  0.1235013E+00
         -4   -1    0    0    0  501 -0.00000000000E+00  0.00000000000E+00  0.14350289286E+03  0.14350851250E+03  0.12700000000E+01 0.  1.
          4   -1    0    0  501    0  0.00000000000E+00 -0.00000000000E+00 -0.27215417226E+02  0.27245033213E+02  0.12700000000E+01 0.  1.
         25    2    1    2    0    0  0.00000000000E+00  0.00000000000E+00  0.11628747563E+03  0.17075354571E+03  0.12503598035E+03 0.  0.
    9000005    1    3    3    0    0  0.42826531018E+02 -0.34845906924E+01  0.12014485726E+03  0.12760110054E+03  0.10000000000E+01 0.  0.
    9000005    1    3    3    0    0 -0.42826531018E+02  0.34845906924E+01 -0.38573816305E+01  0.43152445172E+02  0.10000000000E+01 0.  0.
<mgrwt>
<rscale>  0 0.12503598E+03</rscale>
<asrwt>0</asrwt>
<pdfrwt beam="2">  1        4 0.41896977E-02 0.12503598E+03</pdfrwt>
<pdfrwt beam="1">  1       -4 0.22080078E-01 0.12503598E+03</pdfrwt>
<totfact> 0.95231450E+03</totfact>
</mgrwt>
</event>
<event>
 5    1  0.3289127E-002  0.1249998E+03  0.7818608E-02  0.1235070E+00
          4   -1    0    0  501    0  0.00000000000E+00  0.00000000000E+00  0.33536053575E+03  0.33536294047E+03  0.12700000000E+01 0. -1.
         -4   -1    0    0    0  501 -0.00000000000E+00 -0.00000000000E+00 -0.11610811417E+02  0.11680061719E+02  0.12700000000E+01 0. -1.
         25    2    1    2    0    0  0.00000000000E+00  0.00000000000E+00  0.32374972433E+03  0.34704300219E+03  0.12499984544E+03 0.  0.
    9000005    1    3    3    0    0 -0.44328349294E+02  0.37840038418E+02  0.99276428607E+02  0.11512462958E+03  0.10000000000E+01 0.  0.
    9000005    1    3    3    0    0  0.44328349294E+02 -0.37840038418E+02  0.22447329573E+03  0.23191837261E+03  0.10000000000E+01 0.  0.
<mgrwt>
<rscale>  0 0.12499985E+03</rscale>
<asrwt>0</asrwt>
<pdfrwt beam="1">  1        4 0.51599439E-01 0.12499985E+03</pdfrwt>
<pdfrwt beam="2">  1       -4 0.17917906E-02 0.12499985E+03</pdfrwt>
<totfact> 0.70051330E+03</totfact>
</mgrwt>
</event>
<event>
 5    1  0.3289127E-002  0.1249997E+03  0.7818608E-02  0.1235070E+00
         -4   -1    0    0    0  501 -0.00000000000E+00  0.00000000000E+00  0.86896285272E+02  0.86905565380E+02  0.12700000000E+01 0.  1.
          4   -1    0    0  501    0  0.00000000000E+00 -0.00000000000E+00 -0.44932146141E+02  0.44950090733E+02  0.12700000000E+01 0.  1.
         25    2    1    2    0    0  0.00000000000E+00  0.00000000000E+00  0.41964139130E+02  0.13185565611E+03  0.12499970030E+03 0.  0.
    9000005    1    3    3    0    0 -0.27889951012E+02 -0.60376560338E+01 -0.37663374575E+02  0.47263436631E+02  0.10000000000E+01 0.  0.
    9000005    1    3    3    0    0  0.27889951012E+02  0.60376560338E+01  0.79627513705E+02  0.84592219481E+02  0.10000000000E+01 0.  0.
<mgrwt>
<rscale>  0 0.12499970E+03</rscale>
<asrwt>0</asrwt>
<pdfrwt beam="2">  1        4 0.69147321E-02 0.12499970E+03</pdfrwt>
<pdfrwt beam="1">  1       -4 0.13370753E-01 0.12499970E+03</pdfrwt>
<totfact> 0.10304850E+04</totfact>
</mgrwt>
</event>
<event>
 5    1  0.3289127E-002  0.1250043E+03  0.7818608E-02  0.1235063E+00
          4   -1    0    0  501    0  0.00000000000E+00  0.00000000000E+00  0.43066164972E+02  0.43084886740E+02  0.12700000000E+01 0. -1.
         -4   -1    0    0    0  501 -0.00000000000E+00 -0.00000000000E+00 -0.90666767690E+02  0.90675661912E+02  0.12700000000E+01 0. -1.
         25    2    1    2    0    0  0.00000000000E+00  0.00000000000E+00 -0.47600602717E+02  0.13376054865E+03  0.12500426791E+03 0.  0.
    9000005    1    3    3    0    0 -0.18078008112E+02  0.52278402645E+02  0.73171426325E+01  0.55806687204E+02  0.10000000000E+01 0.  0.
    9000005    1    3    3    0    0  0.18078008112E+02 -0.52278402645E+02 -0.54917745350E+02  0.77953861448E+02  0.10000000000E+01 0.  0.
<mgrwt>
<rscale>  0 0.12500427E+03</rscale>
<asrwt>0</asrwt>
<pdfrwt beam="1">  1        4 0.66276882E-02 0.12500427E+03</pdfrwt>
<pdfrwt beam="2">  1       -4 0.13950858E-01 0.12500427E+03</pdfrwt>
<totfact> 0.10263274E+04</totfact>
</mgrwt>
</event>
<event>
 5    1  0.3289127E-002  0.1250013E+03  0.7818608E-02  0.1235067E+00
          4   -1    0    0  501    0  0.00000000000E+00  0.00000000000E+00  0.19569664330E+04  0.19569668451E+04  0.12700000000E+01 0. -1.
         -4   -1    0    0    0  501 -0.00000000000E+00 -0.00000000000E+00 -0.17936583077E+01  0.21977511517E+01  0.12700000000E+01 0. -1.
         25    2    1    2    0    0  0.00000000000E+00  0.00000000000E+00  0.19551727747E+04  0.19591645963E+04  0.12500134510E+03 0.  0.
    9000005    1    3    3    0    0 -0.46213694560E+02  0.33045951455E+02  0.56960449843E+03  0.57243167724E+03  0.10000000000E+01 0.  0.
    9000005    1    3    3    0    0  0.46213694560E+02 -0.33045951455E+02  0.13855682763E+04  0.13867329190E+04  0.10000000000E+01 0.  0.
<mgrwt>
<rscale>  0 0.12500135E+03</rscale>
<asrwt>0</asrwt>
<pdfrwt beam="1">  1        4 0.30110301E+00 0.12500135E+03</pdfrwt>
<pdfrwt beam="2">  1       -4 0.30706306E-03 0.12500135E+03</pdfrwt>
<totfact> 0.10403421E+03</totfact>
</mgrwt>
</event>
<event>
 5    1  0.3289127E-002  0.1250016E+03  0.7818608E-02  0.1235067E+00
          4   -1    0    0  501    0  0.00000000000E+00  0.00000000000E+00  0.11655981512E+04  0.11655988431E+04  0.12700000000E+01 0. -1.
         -4   -1    0    0    0  501 -0.00000000000E+00 -0.00000000000E+00 -0.32303330249E+01  0.34710159107E+01  0.12700000000E+01 0. -1.
         25    2    1    2    0    0  0.00000000000E+00  0.00000000000E+00  0.11623678182E+04  0.11690698590E+04  0.12500156184E+03 0.  0.
    9000005    1    3    3    0    0  0.38570778631E+02  0.30770909550E+02  0.22250906671E+03  0.22791629737E+03  0.10000000000E+01 0.  0.
    9000005    1    3    3    0    0 -0.38570778631E+02 -0.30770909550E+02  0.93985875147E+03  0.94115356162E+03  0.10000000000E+01 0.  0.
<mgrwt>
<rscale>  0 0.12500156E+03</rscale>
<asrwt>0</asrwt>
<pdfrwt beam="1">  1        4 0.17934169E+00 0.12500156E+03</pdfrwt>
<pdfrwt beam="2">  1       -4 0.51554066E-03 0.12500156E+03</pdfrwt>
<totfact> 0.25536072E+03</totfact>
</mgrwt>
</event>
<event>
 5    1  0.3289127E-002  0.1250008E+03  0.7818608E-02  0.1235068E+00
          4   -1    0    0  501    0  0.00000000000E+00  0.00000000000E+00  0.31092074587E+02  0.31118001255E+02  0.12700000000E+01 0. -1.
         -4   -1    0    0    0  501 -0.00000000000E+00 -0.00000000000E+00 -0.12555500843E+03  0.12556143135E+03  0.12700000000E+01 0. -1.
         25    2    1    2    0    0  0.00000000000E+00  0.00000000000E+00 -0.94462933843E+02  0.15667943260E+03  0.12500079492E+03 0.  0.
    9000005    1    3    3    0    0  0.43602710223E+02  0.41316575643E+02 -0.68834242287E+02  0.91364154201E+02  0.10000000000E+01 0.  0.
    9000005    1    3    3    0    0 -0.43602710223E+02 -0.41316575643E+02 -0.25628691556E+02  0.65315278401E+02  0.10000000000E+01 0.  0.
<mgrwt>
<rscale>  0 0.12500079E+03</rscale>
<asrwt>0</asrwt>
<pdfrwt beam="1">  1        4 0.47858846E-02 0.12500079E+03</pdfrwt>
<pdfrwt beam="2">  1       -4 0.19318643E-01 0.12500079E+03</pdfrwt>
<totfact> 0.97985059E+03</totfact>
</mgrwt>
</event>
<event>
 5    1  0.3289127E-002  0.1249990E+03  0.7818608E-02  0.1235071E+00
          4   -1    0    0  501    0  0.00000000000E+00  0.00000000000E+00  0.98502960377E+01  0.99318292388E+01  0.12700000000E+01 0. -1.
         -4   -1    0    0    0  501 -0.00000000000E+00 -0.00000000000E+00 -0.39483838365E+03  0.39484042613E+03  0.12700000000E+01 0. -1.
         25    2    1    2    0    0  0.00000000000E+00  0.00000000000E+00 -0.38498808761E+03  0.40477225537E+03  0.12499900444E+03 0.  0.
    9000005    1    3    3    0    0  0.47354087377E+02  0.53201125020E+01 -0.61577880513E+02  0.77868790647E+02  0.10000000000E+01 0.  0.
    9000005    1    3    3    0    0 -0.47354087377E+02 -0.53201125020E+01 -0.32341020710E+03  0.32690346472E+03  0.10000000000E+01 0.  0.
<mgrwt>
<rscale>  0 0.12499900E+03</rscale>
<asrwt>0</asrwt>
<pdfrwt beam="1">  1        4 0.15218594E-02 0.12499900E+03</pdfrwt>
<pdfrwt beam="2">  1       -4 0.60750783E-01 0.12499900E+03</pdfrwt>
<totfact> 0.64092691E+03</totfact>
</mgrwt>
</event>
<event>
 5    1  0.3289127E-002  0.1250006E+03  0.7818608E-02  0.1235068E+00
          4   -1    0    0  501    0  0.00000000000E+00  0.00000000000E+00  0.13087151843E+03  0.13087768044E+03  0.12700000000E+01 0.  1.
         -4   -1    0    0    0  501 -0.00000000000E+00 -0.00000000000E+00 -0.29827878900E+02  0.29854903444E+02  0.12700000000E+01 0.  1.
         25    2    1    2    0    0  0.00000000000E+00  0.00000000000E+00  0.10104363953E+03  0.16073258388E+03  0.12500058572E+03 0.  0.
    9000005    1    3    3    0    0 -0.12835698316E+02  0.61151263970E+02  0.49201470867E+02  0.79536261993E+02  0.10000000000E+01 0.  0.
    9000005    1    3    3    0    0  0.12835698316E+02 -0.61151263970E+02  0.51842168663E+02  0.81196321888E+02  0.10000000000E+01 0.  0.
<mgrwt>
<rscale>  0 0.12500059E+03</rscale>
<asrwt>0</asrwt>
<pdfrwt beam="1">  1        4 0.20136632E-01 0.12500059E+03</pdfrwt>
<pdfrwt beam="2">  1       -4 0.45914573E-02 0.12500059E+03</pdfrwt>
<totfact> 0.97200455E+03</totfact>
</mgrwt>
</event>
<event>
 5    1  0.3289127E-002  0.1250027E+03  0.7818608E-02  0.1235065E+00
          4   -1    0    0  501    0  0.00000000000E+00  0.00000000000E+00  0.39275858045E+01  0.41278117995E+01  0.12700000000E+01 0.  1.
         -4   -1    0    0    0  501 -0.00000000000E+00 -0.00000000000E+00 -0.96968747874E+03  0.96968831040E+03  0.12700000000E+01 0.  1.
         25    2    1    2    0    0  0.00000000000E+00  0.00000000000E+00 -0.96575989293E+03  0.97381612220E+03  0.12500267618E+03 0.  0.
    9000005    1    3    3    0    0 -0.51634960061E+02  0.10869665851E+02 -0.22203673393E+03  0.22822276388E+03  0.10000000000E+01 0.  0.
    9000005    1    3    3    0    0  0.51634960061E+02 -0.10869665851E+02 -0.74372315900E+03  0.74559335832E+03  0.10000000000E+01 0.  0.
<mgrwt>
<rscale>  0 0.12500268E+03</rscale>
<asrwt>0</asrwt>
<pdfrwt beam="1">  1        4 0.61971072E-03 0.12500268E+03</pdfrwt>
<pdfrwt beam="2">  1       -4 0.14919797E+00 0.12500268E+03</pdfrwt>
<totfact> 0.31483413E+03</totfact>
</mgrwt>
</event>
<event>
 5    1  0.3289127E-002  0.1249906E+03  0.7818608E-02  0.1235084E+00
         -4   -1    0    0    0  501 -0.00000000000E+00  0.00000000000E+00  0.73295303550E+01  0.74387441968E+01  0.12700000000E+01 0. -1.
          4   -1    0    0  501    0  0.00000000000E+00 -0.00000000000E+00 -0.52881642905E+03  0.52881795406E+03  0.12700000000E+01 0. -1.
         25    2    1    2    0    0  0.00000000000E+00  0.00000000000E+00 -0.52148689870E+03  0.53625669826E+03  0.12499064330E+03 0.  0.
    9000005    1    3    3    0    0 -0.48565136051E+02  0.34012511305E+02 -0.17609773043E+03  0.18581397695E+03  0.10000000000E+01 0.  0.
    9000005    1    3    3    0    0  0.48565136051E+02 -0.34012511305E+02 -0.34538916826E+03  0.35044272131E+03  0.10000000000E+01 0.  0.
<mgrwt>
<rscale>  0 0.12499064E+03</rscale>
<asrwt>0</asrwt>
<pdfrwt beam="2">  1        4 0.81364862E-01 0.12499064E+03</pdfrwt>
<pdfrwt beam="1">  1       -4 0.11361388E-02 0.12499064E+03</pdfrwt>
<totfact> 0.53168024E+03</totfact>
</mgrwt>
</event>
<event>
 5    1  0.3289127E-002  0.1249979E+03  0.7818608E-02  0.1235073E+00
          4   -1    0    0  501    0  0.00000000000E+00  0.00000000000E+00  0.51313916192E+02  0.51329629796E+02  0.12700000000E+01 0.  1.
         -4   -1    0    0    0  501 -0.00000000000E+00 -0.00000000000E+00 -0.76089353365E+02  0.76099951351E+02  0.12700000000E+01 0.  1.
         25    2    1    2    0    0  0.00000000000E+00  0.00000000000E+00 -0.24775437173E+02  0.12742958115E+03  0.12499790344E+03 0.  0.
    9000005    1    3    3    0    0 -0.53713041609E+02 -0.16400114727E+02  0.15550975670E+02  0.58282822909E+02  0.10000000000E+01 0.  0.
    9000005    1    3    3    0    0  0.53713041609E+02  0.16400114727E+02 -0.40326412844E+02  0.69146758238E+02  0.10000000000E+01 0.  0.
<mgrwt>
<rscale>  0 0.12499790E+03</rscale>
<asrwt>0</asrwt>
<pdfrwt beam="1">  1        4 0.78964726E-02 0.12499790E+03</pdfrwt>
<pdfrwt beam="2">  1       -4 0.11708078E-01 0.12499790E+03</pdfrwt>
<totfact> 0.10400318E+04</totfact>
</mgrwt>
</event>
<event>
 5    1  0.3289127E-002  0.1249982E+03  0.7818608E-02  0.1235072E+00
          4   -1    0    0  501    0  0.00000000000E+00  0.00000000000E+00  0.14269352410E+01  0.19102471521E+01  0.12700000000E+01 0.  1.
         -4   -1    0    0    0  501 -0.00000000000E+00 -0.00000000000E+00 -0.23404974818E+04  0.23404978263E+04  0.12700000000E+01 0.  1.
         25    2    1    2    0    0  0.00000000000E+00  0.00000000000E+00 -0.23390705465E+04  0.23424080735E+04  0.12499824435E+03 0.  0.
    9000005    1    3    3    0    0  0.47136012895E+02  0.40041516154E+02 -0.13371608942E+04  0.13385908201E+04  0.10000000000E+01 0.  0.
    9000005    1    3    3    0    0 -0.47136012895E+02 -0.40041516154E+02 -0.10019096523E+04  0.10038172534E+04  0.10000000000E+01 0.  0.
<mgrwt>
<rscale>  0 0.12499824E+03</rscale>
<asrwt>0</asrwt>
<pdfrwt beam="1">  1        4 0.25673472E-03 0.12499824E+03</pdfrwt>
<pdfrwt beam="2">  1       -4 0.36011111E+00 0.12499824E+03</pdfrwt>
<totfact> 0.60287123E+02</totfact>
</mgrwt>
</event>
<event>
 5    1  0.3289127E-002  0.1250005E+03  0.7818608E-02  0.1235068E+00
         -4   -1    0    0    0  501 -0.00000000000E+00  0.00000000000E+00  0.48834374111E+03  0.48834539250E+03  0.12700000000E+01 0.  1.
          4   -1    0    0  501    0  0.00000000000E+00 -0.00000000000E+00 -0.79469608152E+01  0.80478000844E+01  0.12700000000E+01 0.  1.
         25    2    1    2    0    0  0.00000000000E+00  0.00000000000E+00  0.48039678029E+03  0.49639319259E+03  0.12500054053E+03 0.  0.
    9000005    1    3    3    0    0  0.39218724064E+02 -0.93628249088E+00  0.47024368420E+02  0.61247662547E+02  0.10000000000E+01 0.  0.
    9000005    1    3    3    0    0 -0.39218724064E+02  0.93628249088E+00  0.43337241187E+03  0.43514553004E+03  0.10000000000E+01 0.  0.
<mgrwt>
<rscale>  0 0.12500054E+03</rscale>
<asrwt>0</asrwt>
<pdfrwt beam="2">  1        4 0.12304938E-02 0.12500054E+03</pdfrwt>
<pdfrwt beam="1">  1       -4 0.75137659E-01 0.12500054E+03</pdfrwt>
<totfact> 0.56144647E+03</totfact>
</mgrwt>
</event>
<event>
 5    1  0.3289127E-002  0.1249744E+03  0.7818608E-02  0.1235109E+00
          4   -1    0    0  501    0  0.00000000000E+00  0.00000000000E+00  0.51746822905E+02  0.51762405091E+02  0.12700000000E+01 0. -1.
         -4   -1    0    0    0  501 -0.00000000000E+00 -0.00000000000E+00 -0.75424499879E+02  0.75435191270E+02  0.12700000000E+01 0. -1.
         25    2    1    2    0    0  0.00000000000E+00  0.00000000000E+00 -0.23677676974E+02  0.12719759636E+03  0.12497438191E+03 0.  0.
    9000005    1    3    3    0    0 -0.56223345831E+02 -0.20612174753E+02  0.63030297361E+01  0.60221711602E+02  0.10000000000E+01 0.  0.
    9000005    1    3    3    0    0  0.56223345831E+02  0.20612174753E+02 -0.29980706710E+02  0.66975884759E+02  0.10000000000E+01 0.  0.
<mgrwt>
<rscale>  0 0.12497438E+03</rscale>
<asrwt>0</asrwt>
<pdfrwt beam="1">  1        4 0.79630707E-02 0.12497438E+03</pdfrwt>
<pdfrwt beam="2">  1       -4 0.11605790E-01 0.12497438E+03</pdfrwt>
<totfact> 0.10410875E+04</totfact>
</mgrwt>
</event>
<event>
 5    1  0.3289127E-002  0.1250008E+03  0.7818608E-02  0.1235068E+00
          4   -1    0    0  501    0  0.00000000000E+00  0.00000000000E+00  0.26191369457E+01  0.29108037276E+01  0.12700000000E+01 0.  1.
         -4   -1    0    0    0  501 -0.00000000000E+00 -0.00000000000E+00 -0.14124906492E+04  0.14124912202E+04  0.12700000000E+01 0.  1.
         25    2    1    2    0    0  0.00000000000E+00  0.00000000000E+00 -0.14098715123E+04  0.14154020239E+04  0.12500083243E+03 0.  0.
    9000005    1    3    3    0    0  0.41086605266E+02 -0.22566724807E+02 -0.11728892362E+04  0.11738260206E+04  0.10000000000E+01 0.  0.
    9000005    1    3    3    0    0 -0.41086605266E+02  0.22566724807E+02 -0.23698227607E+03  0.24157600331E+03  0.10000000000E+01 0.  0.
<mgrwt>
<rscale>  0 0.12500083E+03</rscale>
<asrwt>0</asrwt>
<pdfrwt beam="1">  1        4 0.42542510E-03 0.12500083E+03</pdfrwt>
<pdfrwt beam="2">  1       -4 0.21732816E+00 0.12500083E+03</pdfrwt>
<totfact> 0.19652521E+03</totfact>
</mgrwt>
</event>
<event>
 5    1  0.3289127E-002  0.1249993E+03  0.7818608E-02  0.1235070E+00
         -4   -1    0    0    0  501 -0.00000000000E+00  0.00000000000E+00  0.29904451967E+02  0.29931407375E+02  0.12700000000E+01 0. -1.
          4   -1    0    0  501    0  0.00000000000E+00 -0.00000000000E+00 -0.13053392441E+03  0.13054010235E+03  0.12700000000E+01 0. -1.
         25    2    1    2    0    0  0.00000000000E+00  0.00000000000E+00 -0.10062947244E+03  0.16047150972E+03  0.12499925884E+03 0.  0.
    9000005    1    3    3    0    0  0.53178356513E+02 -0.20438454749E+02 -0.83284029371E+02  0.10091034428E+03  0.10000000000E+01 0.  0.
    9000005    1    3    3    0    0 -0.53178356513E+02  0.20438454749E+02 -0.17345443068E+02  0.59561165445E+02  0.10000000000E+01 0.  0.
<mgrwt>
<rscale>  0 0.12499926E+03</rscale>
<asrwt>0</asrwt>
<pdfrwt beam="2">  1        4 0.20084691E-01 0.12499926E+03</pdfrwt>
<pdfrwt beam="1">  1       -4 0.46032337E-02 0.12499926E+03</pdfrwt>
<totfact> 0.97253579E+03</totfact>
</mgrwt>
</event>
<event>
 5    1  0.3289127E-002  0.1249951E+03  0.7818608E-02  0.1235077E+00
         -4   -1    0    0    0  501 -0.00000000000E+00  0.00000000000E+00  0.44733757362E+02  0.44751781503E+02  0.12700000000E+01 0.  1.
          4   -1    0    0  501    0  0.00000000000E+00 -0.00000000000E+00 -0.87275159134E+02  0.87284398961E+02  0.12700000000E+01 0.  1.
         25    2    1    2    0    0  0.00000000000E+00  0.00000000000E+00 -0.42541401773E+02  0.13203618046E+03  0.12499512825E+03 0.  0.
    9000005    1    3    3    0    0  0.42832594373E+02  0.45308340753E+02 -0.25685687624E+02  0.67440577038E+02  0.10000000000E+01 0.  0.
    9000005    1    3    3    0    0 -0.42832594373E+02 -0.45308340753E+02 -0.16855714148E+02  0.64595603426E+02  0.10000000000E+01 0.  0.
<mgrwt>
<rscale>  0 0.12499513E+03</rscale>
<asrwt>0</asrwt>
<pdfrwt beam="2">  1        4 0.13429045E-01 0.12499513E+03</pdfrwt>
<pdfrwt beam="1">  1       -4 0.68842137E-02 0.12499513E+03</pdfrwt>
<totfact> 0.10302058E+04</totfact>
</mgrwt>
</event>
<event>
 5    1  0.3289127E-002  0.1250010E+03  0.7818608E-02  0.1235068E+00
          4   -1    0    0  501    0  0.00000000000E+00  0.00000000000E+00  0.71917731386E+02  0.71928944019E+02  0.12700000000E+01 0. -1.
         -4   -1    0    0    0  501 -0.00000000000E+00 -0.00000000000E+00 -0.54293567307E+02  0.54308418785E+02  0.12700000000E+01 0. -1.
         25    2    1    2    0    0  0.00000000000E+00  0.00000000000E+00  0.17624164078E+02  0.12623736280E+03  0.12500104243E+03 0.  0.
    9000005    1    3    3    0    0  0.43667725602E+02  0.24053551241E+02 -0.29241786144E+02  0.57805930868E+02  0.10000000000E+01 0.  0.
    9000005    1    3    3    0    0 -0.43667725602E+02 -0.24053551241E+02  0.46865950222E+02  0.68431431936E+02  0.10000000000E+01 0.  0.
<mgrwt>
<rscale>  0 0.12500104E+03</rscale>
<asrwt>0</asrwt>
<pdfrwt beam="1">  1        4 0.11066271E-01 0.12500104E+03</pdfrwt>
<pdfrwt beam="2">  1       -4 0.83548615E-02 0.12500104E+03</pdfrwt>
<totfact> 0.10425517E+04</totfact>
</mgrwt>
</event>
<event>
 5    1  0.3289127E-002  0.1249941E+03  0.7818608E-02  0.1235078E+00
          4   -1    0    0  501    0  0.00000000000E+00  0.00000000000E+00  0.54079551009E+02  0.54094461244E+02  0.12700000000E+01 0. -1.
         -4   -1    0    0    0  501 -0.00000000000E+00 -0.00000000000E+00 -0.72194318536E+02  0.72205488219E+02  0.12700000000E+01 0. -1.
         25    2    1    2    0    0  0.00000000000E+00  0.00000000000E+00 -0.18114767528E+02  0.12629994946E+03  0.12499412959E+03 0.  0.
    9000005    1    3    3    0    0 -0.25142565642E+02 -0.10228467930E+02 -0.65931398757E+02  0.71307219167E+02  0.10000000000E+01 0.  0.
    9000005    1    3    3    0    0  0.25142565642E+02  0.10228467930E+02  0.47816631230E+02  0.54992730296E+02  0.10000000000E+01 0.  0.
<mgrwt>
<rscale>  0 0.12499413E+03</rscale>
<asrwt>0</asrwt>
<pdfrwt beam="1">  1        4 0.83219370E-02 0.12499413E+03</pdfrwt>
<pdfrwt beam="2">  1       -4 0.11108824E-01 0.12499413E+03</pdfrwt>
<totfact> 0.10425776E+04</totfact>
</mgrwt>
</event>
<event>
 5    1  0.3289127E-002  0.1249997E+03  0.7818608E-02  0.1235070E+00
          4   -1    0    0  501    0  0.00000000000E+00  0.00000000000E+00  0.22417128221E+03  0.22417487965E+03  0.12700000000E+01 0.  1.
         -4   -1    0    0    0  501 -0.00000000000E+00 -0.00000000000E+00 -0.17398331737E+02  0.17444622302E+02  0.12700000000E+01 0.  1.
         25    2    1    2    0    0  0.00000000000E+00  0.00000000000E+00  0.20677295047E+03  0.24161950195E+03  0.12499972271E+03 0.  0.
    9000005    1    3    3    0    0  0.10109089729E+02  0.23583927271E+02 -0.67555864975E+01  0.26552462590E+02  0.10000000000E+01 0.  0.
    9000005    1    3    3    0    0 -0.10109089729E+02 -0.23583927271E+02  0.21352853697E+03  0.21506703936E+03  0.10000000000E+01 0.  0.
<mgrwt>
<rscale>  0 0.12499972E+03</rscale>
<asrwt>0</asrwt>
<pdfrwt beam="1">  1        4 0.34491727E-01 0.12499972E+03</pdfrwt>
<pdfrwt beam="2">  1       -4 0.26805040E-02 0.12499972E+03</pdfrwt>
<totfact> 0.83557277E+03</totfact>
</mgrwt>
</event>
<event>
 5    1  0.3289127E-002  0.1249997E+03  0.7818608E-02  0.1235070E+00
          4   -1    0    0  501    0  0.00000000000E+00  0.00000000000E+00  0.11752913015E+04  0.11752919877E+04  0.12700000000E+01 0. -1.
         -4   -1    0    0    0  501 -0.00000000000E+00 -0.00000000000E+00 -0.32015927572E+01  0.34442845677E+01  0.12700000000E+01 0. -1.
         25    2    1    2    0    0  0.00000000000E+00  0.00000000000E+00  0.11720897087E+04  0.11787362722E+04  0.12499965659E+03 0.  0.
    9000005    1    3    3    0    0 -0.24374434155E+02 -0.43042102180E+02  0.94617542828E+03  0.94746803465E+03  0.10000000000E+01 0.  0.
    9000005    1    3    3    0    0  0.24374434155E+02  0.43042102180E+02  0.22591428046E+03  0.23126823758E+03  0.10000000000E+01 0.  0.
<mgrwt>
<rscale>  0 0.12499966E+03</rscale>
<asrwt>0</asrwt>
<pdfrwt beam="1">  1        4 0.18083294E+00 0.12499966E+03</pdfrwt>
<pdfrwt beam="2">  1       -4 0.51127363E-03 0.12499966E+03</pdfrwt>
<totfact> 0.25276368E+03</totfact>
</mgrwt>
</event>
<event>
 5    1  0.3289127E-002  0.1250004E+03  0.7818608E-02  0.1235069E+00
          4   -1    0    0  501    0  0.00000000000E+00  0.00000000000E+00  0.13852387427E+03  0.13852969589E+03  0.12700000000E+01 0. -1.
         -4   -1    0    0    0  501 -0.00000000000E+00 -0.00000000000E+00 -0.28178571062E+02  0.28207175808E+02  0.12700000000E+01 0. -1.
         25    2    1    2    0    0  0.00000000000E+00  0.00000000000E+00  0.11034530321E+03  0.16673687169E+03  0.12500039377E+03 0.  0.
    9000005    1    3    3    0    0 -0.34610508016E+02 -0.23098620298E+02 -0.70192969877E+01  0.42210236377E+02  0.10000000000E+01 0.  0.
    9000005    1    3    3    0    0  0.34610508016E+02  0.23098620298E+02  0.11736460019E+03  0.12452663532E+03  0.10000000000E+01 0.  0.
<mgrwt>
<rscale>  0 0.12500039E+03</rscale>
<asrwt>0</asrwt>
<pdfrwt beam="1">  1        4 0.21314013E-01 0.12500039E+03</pdfrwt>
<pdfrwt beam="2">  1       -4 0.43378130E-02 0.12500039E+03</pdfrwt>
<totfact> 0.96058614E+03</totfact>
</mgrwt>
</event>
<event>
 5    1  0.3289127E-002  0.1249988E+03  0.7818608E-02  0.1235071E+00
          4   -1    0    0  501    0  0.00000000000E+00  0.00000000000E+00  0.36611714059E+03  0.36611934329E+03  0.12700000000E+01 0. -1.
         -4   -1    0    0    0  501 -0.00000000000E+00 -0.00000000000E+00 -0.10629155950E+02  0.10704758578E+02  0.12700000000E+01 0. -1.
         25    2    1    2    0    0  0.00000000000E+00  0.00000000000E+00  0.35548798464E+03  0.37682410187E+03  0.12499878611E+03 0.  0.
    9000005    1    3    3    0    0  0.34698362927E+02 -0.22210302194E+00  0.33442166096E+03  0.33621849003E+03  0.10000000000E+01 0.  0.
    9000005    1    3    3    0    0 -0.34698362927E+02  0.22210302194E+00  0.21066323679E+02  0.40605611840E+02  0.10000000000E+01 0.  0.
<mgrwt>
<rscale>  0 0.12499879E+03</rscale>
<asrwt>0</asrwt>
<pdfrwt beam="1">  1        4 0.56331705E-01 0.12499879E+03</pdfrwt>
<pdfrwt beam="2">  1       -4 0.16412396E-02 0.12499879E+03</pdfrwt>
<totfact> 0.66872788E+03</totfact>
</mgrwt>
</event>
<event>
 5    1  0.3289127E-002  0.1249998E+03  0.7818608E-02  0.1235070E+00
          4   -1    0    0  501    0  0.00000000000E+00  0.00000000000E+00  0.34493574747E+03  0.34493808543E+03  0.12700000000E+01 0. -1.
         -4   -1    0    0    0  501 -0.00000000000E+00 -0.00000000000E+00 -0.11286543278E+02  0.11357770871E+02  0.12700000000E+01 0. -1.
         25    2    1    2    0    0  0.00000000000E+00  0.00000000000E+00  0.33364920419E+03  0.35629585630E+03  0.12499978305E+03 0.  0.
    9000005    1    3    3    0    0 -0.48868186532E+02  0.34749561620E+02  0.21697857278E+03  0.22511404384E+03  0.10000000000E+01 0.  0.
    9000005    1    3    3    0    0  0.48868186532E+02 -0.34749561620E+02  0.11667063141E+03  0.13118181247E+03  0.10000000000E+01 0.  0.
<mgrwt>
<rscale>  0 0.12499978E+03</rscale>
<asrwt>0</asrwt>
<pdfrwt beam="1">  1        4 0.53072701E-01 0.12499978E+03</pdfrwt>
<pdfrwt beam="2">  1       -4 0.17420500E-02 0.12499978E+03</pdfrwt>
<totfact> 0.69037770E+03</totfact>
</mgrwt>
</event>
<event>
 5    1  0.3289127E-002  0.1250013E+03  0.7818608E-02  0.1235067E+00
          4   -1    0    0  501    0  0.00000000000E+00  0.00000000000E+00  0.58514305551E+02  0.58528086028E+02  0.12700000000E+01 0. -1.
         -4   -1    0    0    0  501 -0.00000000000E+00 -0.00000000000E+00 -0.66730835600E+02  0.66742919624E+02  0.12700000000E+01 0. -1.
         25    2    1    2    0    0  0.00000000000E+00  0.00000000000E+00 -0.82165300493E+01  0.12527100565E+03  0.12500125396E+03 0.  0.
    9000005    1    3    3    0    0  0.51628391013E+02  0.20936491853E+02 -0.32480151119E+02  0.64496415920E+02  0.10000000000E+01 0.  0.
    9000005    1    3    3    0    0 -0.51628391013E+02 -0.20936491853E+02  0.24263621070E+02  0.60774589733E+02  0.10000000000E+01 0.  0.
<mgrwt>
<rscale>  0 0.12500125E+03</rscale>
<asrwt>0</asrwt>
<pdfrwt beam="1">  1        4 0.90041904E-02 0.12500125E+03</pdfrwt>
<pdfrwt beam="2">  1       -4 0.10268272E-01 0.12500125E+03</pdfrwt>
<totfact> 0.10446683E+04</totfact>
</mgrwt>
</event>
<event>
 5    1  0.3289127E-002  0.1249999E+03  0.7818608E-02  0.1235070E+00
          4   -1    0    0  501    0  0.00000000000E+00  0.00000000000E+00  0.54911019199E+02  0.54925703723E+02  0.12700000000E+01 0.  1.
         -4   -1    0    0    0  501 -0.00000000000E+00 -0.00000000000E+00 -0.71107788280E+02  0.71119128609E+02  0.12700000000E+01 0.  1.
         25    2    1    2    0    0  0.00000000000E+00  0.00000000000E+00 -0.16196769081E+02  0.12604483233E+03  0.12499985772E+03 0.  0.
    9000005    1    3    3    0    0 -0.23524502165E+02  0.57764101010E+02 -0.12022904793E+02  0.63526717271E+02  0.10000000000E+01 0.  0.
    9000005    1    3    3    0    0  0.23524502165E+02 -0.57764101010E+02 -0.41738642881E+01  0.62518115061E+02  0.10000000000E+01 0.  0.
<mgrwt>
<rscale>  0 0.12499986E+03</rscale>
<asrwt>0</asrwt>
<pdfrwt beam="1">  1        4 0.84498510E-02 0.12499986E+03</pdfrwt>
<pdfrwt beam="2">  1       -4 0.10941662E-01 0.12499986E+03</pdfrwt>
<totfact> 0.10430008E+04</totfact>
</mgrwt>
</event>
<event>
 5    1  0.3289127E-002  0.1249959E+03  0.7818608E-02  0.1235076E+00
          4   -1    0    0  501    0  0.00000000000E+00  0.00000000000E+00  0.96652957087E+02  0.96661300497E+02  0.12700000000E+01 0. -1.
         -4   -1    0    0    0  501 -0.00000000000E+00 -0.00000000000E+00 -0.40392512927E+02  0.40412473329E+02  0.12700000000E+01 0. -1.
         25    2    1    2    0    0  0.00000000000E+00  0.00000000000E+00  0.56260444160E+02  0.13707377383E+03  0.12499592751E+03 0.  0.
    9000005    1    3    3    0    0 -0.35003412927E+02  0.47163830581E+02  0.51530524381E+02  0.78141287260E+02  0.10000000000E+01 0.  0.
    9000005    1    3    3    0    0  0.35003412927E+02 -0.47163830581E+02  0.47299197798E+01  0.58932486566E+02  0.10000000000E+01 0.  0.
<mgrwt>
<rscale>  0 0.12499593E+03</rscale>
<asrwt>0</asrwt>
<pdfrwt beam="1">  1        4 0.14871863E-01 0.12499593E+03</pdfrwt>
<pdfrwt beam="2">  1       -4 0.62164100E-02 0.12499593E+03</pdfrwt>
<totfact> 0.10195480E+04</totfact>
</mgrwt>
</event>
<event>
 5    1  0.3289127E-002  0.1249990E+03  0.7818608E-02  0.1235071E+00
         -4   -1    0    0    0  501 -0.00000000000E+00  0.00000000000E+00  0.16786409195E+03  0.16786889606E+03  0.12700000000E+01 0. -1.
          4   -1    0    0  501    0  0.00000000000E+00 -0.00000000000E+00 -0.23247461586E+02  0.23282125551E+02  0.12700000000E+01 0. -1.
         25    2    1    2    0    0  0.00000000000E+00  0.00000000000E+00  0.14461663036E+03  0.19115102161E+03  0.12499897314E+03 0.  0.
    9000005    1    3    3    0    0 -0.18238395594E+02 -0.52302696316E+02  0.28067171556E+02  0.62104566941E+02  0.10000000000E+01 0.  0.
    9000005    1    3    3    0    0  0.18238395594E+02  0.52302696316E+02  0.11654945880E+03  0.12904645467E+03  0.10000000000E+01 0.  0.
<mgrwt>
<rscale>  0 0.12499897E+03</rscale>
<asrwt>0</asrwt>
<pdfrwt beam="2">  1        4 0.35795687E-02 0.12499897E+03</pdfrwt>
<pdfrwt beam="1">  1       -4 0.25828280E-01 0.12499897E+03</pdfrwt>
<totfact> 0.91649534E+03</totfact>
</mgrwt>
</event>
<event>
 5    1  0.3289127E-002  0.1250030E+03  0.7818608E-02  0.1235065E+00
         -4   -1    0    0    0  501 -0.00000000000E+00  0.00000000000E+00  0.30653401589E+02  0.30679698972E+02  0.12700000000E+01 0.  1.
          4   -1    0    0  501    0  0.00000000000E+00 -0.00000000000E+00 -0.12735485832E+03  0.12736119047E+03  0.12700000000E+01 0.  1.
         25    2    1    2    0    0  0.00000000000E+00  0.00000000000E+00 -0.96701456734E+02  0.15804088944E+03  0.12500300397E+03 0.  0.
    9000005    1    3    3    0    0  0.35527761297E+02 -0.10363630496E+02 -0.11201671356E+03  0.11797614495E+03  0.10000000000E+01 0.  0.
    9000005    1    3    3    0    0 -0.35527761297E+02  0.10363630496E+02  0.15315256827E+02  0.40064744496E+02  0.10000000000E+01 0.  0.
<mgrwt>
<rscale>  0 0.12500300E+03</rscale>
<asrwt>0</asrwt>
<pdfrwt beam="2">  1        4 0.19595565E-01 0.12500300E+03</pdfrwt>
<pdfrwt beam="1">  1       -4 0.47184180E-02 0.12500300E+03</pdfrwt>
<totfact> 0.97715221E+03</totfact>
</mgrwt>
</event>
<event>
 5    1  0.3289127E-002  0.1249993E+03  0.7818608E-02  0.1235070E+00
         -4   -1    0    0    0  501 -0.00000000000E+00  0.00000000000E+00  0.36941095830E+02  0.36962920083E+02  0.12700000000E+01 0.  1.
          4   -1    0    0  501    0  0.00000000000E+00 -0.00000000000E+00 -0.10568466346E+03  0.10569229390E+03  0.12700000000E+01 0.  1.
         25    2    1    2    0    0  0.00000000000E+00  0.00000000000E+00 -0.68743567627E+02  0.14265521398E+03  0.12499932794E+03 0.  0.
    9000005    1    3    3    0    0 -0.23675471232E+02  0.41448035229E+02  0.11658017717E+02  0.49146484508E+02  0.10000000000E+01 0.  0.
    9000005    1    3    3    0    0  0.23675471232E+02 -0.41448035229E+02 -0.80401585344E+02  0.93508729476E+02  0.10000000000E+01 0.  0.
<mgrwt>
<rscale>  0 0.12499933E+03</rscale>
<asrwt>0</asrwt>
<pdfrwt beam="2">  1        4 0.16261445E-01 0.12499933E+03</pdfrwt>
<pdfrwt beam="1">  1       -4 0.56855113E-02 0.12499933E+03</pdfrwt>
<totfact> 0.10079001E+04</totfact>
</mgrwt>
</event>
<event>
 5    1  0.3289127E-002  0.1249946E+03  0.7818608E-02  0.1235078E+00
         -4   -1    0    0    0  501 -0.00000000000E+00  0.00000000000E+00  0.33578608385E+02  0.33602616580E+02  0.12700000000E+01 0. -1.
          4   -1    0    0  501    0  0.00000000000E+00 -0.00000000000E+00 -0.11625237883E+03  0.11625931568E+03  0.12700000000E+01 0. -1.
         25    2    1    2    0    0  0.00000000000E+00  0.00000000000E+00 -0.82673770445E+02  0.14986193226E+03  0.12499458557E+03 0.  0.
    9000005    1    3    3    0    0  0.82133710497E+01 -0.85062293028E+00  0.32927512908E+02  0.33961803981E+02  0.10000000000E+01 0.  0.
    9000005    1    3    3    0    0 -0.82133710497E+01  0.85062293028E+00 -0.11560128335E+03  0.11590012828E+03  0.10000000000E+01 0.  0.
<mgrwt>
<rscale>  0 0.12499459E+03</rscale>
<asrwt>0</asrwt>
<pdfrwt beam="2">  1        4 0.17887362E-01 0.12499459E+03</pdfrwt>
<pdfrwt beam="1">  1       -4 0.51683202E-02 0.12499459E+03</pdfrwt>
<totfact> 0.99343332E+03</totfact>
</mgrwt>
</event>
<event>
 5    1  0.3289127E-002  0.1250061E+03  0.7818608E-02  0.1235060E+00
          4   -1    0    0  501    0  0.00000000000E+00  0.00000000000E+00  0.15792681846E+02  0.15843664346E+02  0.12700000000E+01 0. -1.
         -4   -1    0    0    0  501 -0.00000000000E+00 -0.00000000000E+00 -0.24691850099E+03  0.24692176703E+03  0.12700000000E+01 0. -1.
         25    2    1    2    0    0  0.00000000000E+00  0.00000000000E+00 -0.23112581915E+03  0.26276543137E+03  0.12500611045E+03 0.  0.
    9000005    1    3    3    0    0  0.36164208557E+02  0.41741721965E+02 -0.54084263254E+02  0.77306719403E+02  0.10000000000E+01 0.  0.
    9000005    1    3    3    0    0 -0.36164208557E+02 -0.41741721965E+02 -0.17704155589E+03  0.18545871197E+03  0.10000000000E+01 0.  0.
<mgrwt>
<rscale>  0 0.12500611E+03</rscale>
<asrwt>0</asrwt>
<pdfrwt beam="1">  1        4 0.24338165E-02 0.12500611E+03</pdfrwt>
<pdfrwt beam="2">  1       -4 0.37991632E-01 0.12500611E+03</pdfrwt>
<totfact> 0.80508584E+03</totfact>
</mgrwt>
</event>
<event>
 5    1  0.3289127E-002  0.1249904E+03  0.7818608E-02  0.1235084E+00
          4   -1    0    0  501    0  0.00000000000E+00  0.00000000000E+00  0.72824602315E+03  0.72824713054E+03  0.12700000000E+01 0. -1.
         -4   -1    0    0    0  501 -0.00000000000E+00 -0.00000000000E+00 -0.52867765796E+01  0.54371781838E+01  0.12700000000E+01 0. -1.
         25    2    1    2    0    0  0.00000000000E+00  0.00000000000E+00  0.72295924657E+03  0.73368430872E+03  0.12499037027E+03 0.  0.
    9000005    1    3    3    0    0 -0.18347347997E+02  0.38007558539E+02  0.90988174167E+02  0.10030477318E+03  0.10000000000E+01 0.  0.
    9000005    1    3    3    0    0  0.18347347997E+02 -0.38007558539E+02  0.63197107240E+03  0.63337953554E+03  0.10000000000E+01 0.  0.
<mgrwt>
<rscale>  0 0.12499037E+03</rscale>
<asrwt>0</asrwt>
<pdfrwt beam="1">  1        4 0.11204957E+00 0.12499037E+03</pdfrwt>
<pdfrwt beam="2">  1       -4 0.82500432E-03 0.12499037E+03</pdfrwt>
<totfact> 0.41375631E+03</totfact>
</mgrwt>
</event>
<event>
 5    1  0.3289127E-002  0.1250005E+03  0.7818608E-02  0.1235069E+00
          4   -1    0    0  501    0  0.00000000000E+00  0.00000000000E+00  0.20571391455E+03  0.20571783476E+03  0.12700000000E+01 0. -1.
         -4   -1    0    0    0  501 -0.00000000000E+00 -0.00000000000E+00 -0.18963559630E+02  0.19006038352E+02  0.12700000000E+01 0. -1.
         25    2    1    2    0    0  0.00000000000E+00  0.00000000000E+00  0.18675035492E+03  0.22472387311E+03  0.12500049634E+03 0.  0.
    9000005    1    3    3    0    0 -0.31900317835E+02 -0.24604902879E+02  0.17926051641E+03  0.18373449395E+03  0.10000000000E+01 0.  0.
    9000005    1    3    3    0    0  0.31900317835E+02  0.24604902879E+02  0.74898385142E+01  0.40989379169E+02  0.10000000000E+01 0.  0.
<mgrwt>
<rscale>  0 0.12500050E+03</rscale>
<asrwt>0</asrwt>
<pdfrwt beam="1">  1        4 0.31651862E-01 0.12500050E+03</pdfrwt>
<pdfrwt beam="2">  1       -4 0.29210400E-02 0.12500050E+03</pdfrwt>
<totfact> 0.86125380E+03</totfact>
</mgrwt>
</event>
<event>
 5    1  0.3289127E-002  0.1249990E+03  0.7818608E-02  0.1235071E+00
          4   -1    0    0  501    0  0.00000000000E+00  0.00000000000E+00  0.61404856538E+02  0.61417988459E+02  0.12700000000E+01 0.  1.
         -4   -1    0    0    0  501 -0.00000000000E+00 -0.00000000000E+00 -0.63587371734E+02  0.63600053019E+02  0.12700000000E+01 0.  1.
         25    2    1    2    0    0  0.00000000000E+00  0.00000000000E+00 -0.21825151962E+01  0.12501804148E+03  0.12499898929E+03 0.  0.
    9000005    1    3    3    0    0 -0.41555942273E+02 -0.31760800768E+02  0.33112522521E+02  0.61911904763E+02  0.10000000000E+01 0.  0.
    9000005    1    3    3    0    0  0.41555942273E+02  0.31760800768E+02 -0.35295037717E+02  0.63106136715E+02  0.10000000000E+01 0.  0.
<mgrwt>
<rscale>  0 0.12499899E+03</rscale>
<asrwt>0</asrwt>
<pdfrwt beam="1">  1        4 0.94488867E-02 0.12499899E+03</pdfrwt>
<pdfrwt beam="2">  1       -4 0.97846582E-02 0.12499899E+03</pdfrwt>
<totfact> 0.10452709E+04</totfact>
</mgrwt>
</event>
<event>
 4    1  0.3289127E-002  0.1247181E+03  0.7818608E-02  0.1235511E+00
         -4   -1    0    0    0  501 -0.00000000000E+00  0.00000000000E+00  0.36413633606E+03  0.36413855075E+03  0.12700000000E+01 0. -1.
          4   -1    0    0  501    0  0.00000000000E+00 -0.00000000000E+00 -0.10639094003E+02  0.10714626508E+02  0.12700000000E+01 0. -1.
    9000005    1    1    2    0    0 -0.41702719572E+02  0.46322280874E+02  0.18176047195E+03  0.19215290705E+03  0.10000000000E+01 0.  0.
    9000005    1    1    2    0    0  0.41702719572E+02 -0.46322280874E+02  0.17173677011E+03  0.18270027021E+03  0.10000000000E+01 0.  0.
<mgrwt>
<rscale>  0 0.12471810E+03</rscale>
<asrwt>0</asrwt>
<pdfrwt beam="2">  1        4 0.16427645E-02 0.12471810E+03</pdfrwt>
<pdfrwt beam="1">  1       -4 0.56026947E-01 0.12471810E+03</pdfrwt>
<totfact> 0.67493894E+03</totfact>
</mgrwt>
</event>
<event>
 5    1  0.3289127E-002  0.1250037E+03  0.7818608E-02  0.1235064E+00
         -4   -1    0    0    0  501 -0.00000000000E+00  0.00000000000E+00  0.81228346477E+02  0.81238274054E+02  0.12700000000E+01 0. -1.
          4   -1    0    0  501    0  0.00000000000E+00 -0.00000000000E+00 -0.48071326754E+02  0.48088099940E+02  0.12700000000E+01 0. -1.
         25    2    1    2    0    0  0.00000000000E+00  0.00000000000E+00  0.33157019723E+02  0.12932637399E+03  0.12500369216E+03 0.  0.
    9000005    1    3    3    0    0 -0.20388595207E+02  0.59072480253E+02  0.17072543015E+02  0.64789848455E+02  0.10000000000E+01 0.  0.
    9000005    1    3    3    0    0  0.20388595207E+02 -0.59072480253E+02  0.16084476708E+02  0.64536525540E+02  0.10000000000E+01 0.  0.
<mgrwt>
<rscale>  0 0.12500369E+03</rscale>
<asrwt>0</asrwt>
<pdfrwt beam="2">  1        4 0.73976427E-02 0.12500369E+03</pdfrwt>
<pdfrwt beam="1">  1       -4 0.12498722E-01 0.12500369E+03</pdfrwt>
<totfact> 0.10358076E+04</totfact>
</mgrwt>
</event>
<event>
 5    1  0.3289127E-002  0.1249729E+03  0.7818608E-02  0.1235112E+00
          4   -1    0    0  501    0  0.00000000000E+00  0.00000000000E+00  0.57197512970E+03  0.57197653964E+03  0.12700000000E+01 0. -1.
         -4   -1    0    0    0  501 -0.00000000000E+00 -0.00000000000E+00 -0.67659491397E+01  0.68841098017E+01  0.12700000000E+01 0. -1.
         25    2    1    2    0    0  0.00000000000E+00  0.00000000000E+00  0.56520918056E+03  0.57886064944E+03  0.12497293179E+03 0.  0.
    9000005    1    3    3    0    0  0.60286285050E+01 -0.36364041127E+02  0.51626811259E+03  0.51758328018E+03  0.10000000000E+01 0.  0.
    9000005    1    3    3    0    0 -0.60286285050E+01  0.36364041127E+02  0.48941067970E+02  0.61277369254E+02  0.10000000000E+01 0.  0.
<mgrwt>
<rscale>  0 0.12497293E+03</rscale>
<asrwt>0</asrwt>
<pdfrwt beam="1">  1        4 0.88005361E-01 0.12497293E+03</pdfrwt>
<pdfrwt beam="2">  1       -4 0.10501131E-02 0.12497293E+03</pdfrwt>
<totfact> 0.50259610E+03</totfact>
</mgrwt>
</event>
<event>
 5    1  0.3289127E-002  0.1250000E+03  0.7818608E-02  0.1235069E+00
          4   -1    0    0  501    0  0.00000000000E+00  0.00000000000E+00  0.17400470857E+02  0.17446755745E+02  0.12700000000E+01 0.  1.
         -4   -1    0    0    0  501 -0.00000000000E+00 -0.00000000000E+00 -0.22414493866E+03  0.22414853653E+03  0.12700000000E+01 0.  1.
         25    2    1    2    0    0  0.00000000000E+00  0.00000000000E+00 -0.20674446781E+03  0.24159529228E+03  0.12500004112E+03 0.  0.
    9000005    1    3    3    0    0  0.15678265987E+02 -0.47847732633E+02 -0.31832918321E+02  0.59578085160E+02  0.10000000000E+01 0.  0.
    9000005    1    3    3    0    0 -0.15678265987E+02  0.47847732633E+02 -0.17491154949E+03  0.18201720712E+03  0.10000000000E+01 0.  0.
<mgrwt>
<rscale>  0 0.12500004E+03</rscale>
<asrwt>0</asrwt>
<pdfrwt beam="1">  1        4 0.26808328E-02 0.12500004E+03</pdfrwt>
<pdfrwt beam="2">  1       -4 0.34487672E-01 0.12500004E+03</pdfrwt>
<totfact> 0.83560274E+03</totfact>
</mgrwt>
</event>
<event>
 5    1  0.3289127E-002  0.1249597E+03  0.7818608E-02  0.1235132E+00
         -4   -1    0    0    0  501 -0.00000000000E+00  0.00000000000E+00  0.10373456438E+03  0.10374233825E+03  0.12700000000E+01 0. -1.
          4   -1    0    0  501    0  0.00000000000E+00 -0.00000000000E+00 -0.37612010266E+02  0.37633445447E+02  0.12700000000E+01 0. -1.
         25    2    1    2    0    0  0.00000000000E+00  0.00000000000E+00  0.66122554111E+02  0.14137578370E+03  0.12495967372E+03 0.  0.
    9000005    1    3    3    0    0 -0.54313443782E+02  0.21377928787E+02  0.78704378351E+01  0.58905940332E+02  0.10000000000E+01 0.  0.
    9000005    1    3    3    0    0  0.54313443782E+02 -0.21377928787E+02  0.58252116276E+02  0.82469843369E+02  0.10000000000E+01 0.  0.
<mgrwt>
<rscale>  0 0.12495967E+03</rscale>
<asrwt>0</asrwt>
<pdfrwt beam="2">  1        4 0.57887099E-02 0.12495967E+03</pdfrwt>
<pdfrwt beam="1">  1       -4 0.15961411E-01 0.12495967E+03</pdfrwt>
<totfact> 0.10114336E+04</totfact>
</mgrwt>
</event>
<event>
 5    1  0.3289127E-002  0.1250009E+03  0.7818608E-02  0.1235068E+00
          4   -1    0    0  501    0  0.00000000000E+00  0.00000000000E+00  0.57400811969E+02  0.57414859703E+02  0.12700000000E+01 0. -1.
         -4   -1    0    0    0  501 -0.00000000000E+00 -0.00000000000E+00 -0.68024898851E+02  0.68036753036E+02  0.12700000000E+01 0. -1.
         25    2    1    2    0    0  0.00000000000E+00  0.00000000000E+00 -0.10624086881E+02  0.12545161274E+03  0.12500094366E+03 0.  0.
    9000005    1    3    3    0    0 -0.13812315930E+02 -0.42627158419E+02 -0.49028868770E+02  0.66428041361E+02  0.10000000000E+01 0.  0.
    9000005    1    3    3    0    0  0.13812315930E+02  0.42627158419E+02  0.38404781889E+02  0.59023571378E+02  0.10000000000E+01 0.  0.
<mgrwt>
<rscale>  0 0.12500094E+03</rscale>
<asrwt>0</asrwt>
<pdfrwt beam="1">  1        4 0.88328866E-02 0.12500094E+03</pdfrwt>
<pdfrwt beam="2">  1       -4 0.10467361E-01 0.12500094E+03</pdfrwt>
<totfact> 0.10442802E+04</totfact>
</mgrwt>
</event>
<event>
 5    1  0.3289127E-002  0.1250029E+03  0.7818608E-02  0.1235065E+00
         -4   -1    0    0    0  501 -0.00000000000E+00  0.00000000000E+00  0.73935086072E+01  0.75017910878E+01  0.12700000000E+01 0. -1.
          4   -1    0    0  501    0  0.00000000000E+00 -0.00000000000E+00 -0.52440979588E+03  0.52441133370E+03  0.12700000000E+01 0. -1.
         25    2    1    2    0    0  0.00000000000E+00  0.00000000000E+00 -0.51701628727E+03  0.53191312479E+03  0.12500292404E+03 0.  0.
    9000005    1    3    3    0    0  0.16462297297E+02  0.60283663154E+02 -0.25615628509E+03  0.26367057035E+03  0.10000000000E+01 0.  0.
    9000005    1    3    3    0    0 -0.16462297297E+02 -0.60283663154E+02 -0.26086000218E+03  0.26824255444E+03  0.10000000000E+01 0.  0.
<mgrwt>
<rscale>  0 0.12500292E+03</rscale>
<asrwt>0</asrwt>
<pdfrwt beam="2">  1        4 0.80686849E-01 0.12500292E+03</pdfrwt>
<pdfrwt beam="1">  1       -4 0.11459110E-02 0.12500292E+03</pdfrwt>
<totfact> 0.53467195E+03</totfact>
</mgrwt>
</event>
<event>
 5    1  0.3289127E-002  0.1249994E+03  0.7818608E-02  0.1235070E+00
         -4   -1    0    0    0  501 -0.00000000000E+00  0.00000000000E+00  0.78310946512E+02  0.78321243884E+02  0.12700000000E+01 0. -1.
          4   -1    0    0  501    0  0.00000000000E+00 -0.00000000000E+00 -0.49859126156E+02  0.49875298105E+02  0.12700000000E+01 0. -1.
         25    2    1    2    0    0  0.00000000000E+00  0.00000000000E+00  0.28451820356E+02  0.12819654199E+03  0.12499938918E+03 0.  0.
    9000005    1    3    3    0    0  0.33578541286E+02  0.40975998745E+02  0.48219752631E+02  0.71642832522E+02  0.10000000000E+01 0.  0.
    9000005    1    3    3    0    0 -0.33578541286E+02 -0.40975998745E+02 -0.19767932275E+02  0.56553709467E+02  0.10000000000E+01 0.  0.
<mgrwt>
<rscale>  0 0.12499939E+03</rscale>
<asrwt>0</asrwt>
<pdfrwt beam="2">  1        4 0.76726709E-02 0.12499939E+03</pdfrwt>
<pdfrwt beam="1">  1       -4 0.12049874E-01 0.12499939E+03</pdfrwt>
<totfact> 0.10383388E+04</totfact>
</mgrwt>
</event>
<event>
 5    1  0.3289127E-002  0.1250006E+03  0.7818608E-02  0.1235068E+00
          4   -1    0    0  501    0  0.00000000000E+00  0.00000000000E+00  0.72282287335E+02  0.72293443426E+02  0.12700000000E+01 0.  1.
         -4   -1    0    0    0  501 -0.00000000000E+00 -0.00000000000E+00 -0.54019330850E+02  0.54034257703E+02  0.12700000000E+01 0.  1.
         25    2    1    2    0    0  0.00000000000E+00  0.00000000000E+00  0.18262956485E+02  0.12632770113E+03  0.12500060997E+03 0.  0.
    9000005    1    3    3    0    0  0.54765902500E+02 -0.21489414527E+02  0.30431027559E+02  0.66243086067E+02  0.10000000000E+01 0.  0.
    9000005    1    3    3    0    0 -0.54765902500E+02  0.21489414527E+02 -0.12168071074E+02  0.60084615061E+02  0.10000000000E+01 0.  0.
<mgrwt>
<rscale>  0 0.12500061E+03</rscale>
<asrwt>0</asrwt>
<pdfrwt beam="1">  1        4 0.11122358E-01 0.12500061E+03</pdfrwt>
<pdfrwt beam="2">  1       -4 0.83126727E-02 0.12500061E+03</pdfrwt>
<totfact> 0.10423645E+04</totfact>
</mgrwt>
</event>
<event>
 5    1  0.3289127E-002  0.1249983E+03  0.7818608E-02  0.1235072E+00
         -4   -1    0    0    0  501 -0.00000000000E+00  0.00000000000E+00  0.16549654540E+01  0.20860993874E+01  0.12700000000E+01 0. -1.
          4   -1    0    0  501    0  0.00000000000E+00 -0.00000000000E+00 -0.20878200765E+04  0.20878204628E+04  0.12700000000E+01 0. -1.
         25    2    1    2    0    0  0.00000000000E+00  0.00000000000E+00 -0.20861651111E+04  0.20899065622E+04  0.12499827190E+03 0.  0.
    9000005    1    3    3    0    0 -0.29933806282E+01  0.26039127016E+02 -0.19915571460E+04  0.19917298667E+04  0.10000000000E+01 0.  0.
    9000005    1    3    3    0    0  0.29933806282E+01 -0.26039127016E+02 -0.94607965130E+02  0.98176695449E+02  0.10000000000E+01 0.  0.
<mgrwt>
<rscale>  0 0.12499827E+03</rscale>
<asrwt>0</asrwt>
<pdfrwt beam="2">  1        4 0.32123442E+00 0.12499827E+03</pdfrwt>
<pdfrwt beam="1">  1       -4 0.28780560E-03 0.12499827E+03</pdfrwt>
<totfact> 0.87335144E+02</totfact>
</mgrwt>
</event>
<event>
 5    1  0.3289127E-002  0.1250011E+03  0.7818608E-02  0.1235068E+00
         -4   -1    0    0    0  501 -0.00000000000E+00  0.00000000000E+00  0.24348455543E+01  0.27461560176E+01  0.12700000000E+01 0.  1.
          4   -1    0    0  501    0  0.00000000000E+00 -0.00000000000E+00 -0.15076279260E+04  0.15076284609E+04  0.12700000000E+01 0.  1.
         25    2    1    2    0    0  0.00000000000E+00  0.00000000000E+00 -0.15051930805E+04  0.15103746169E+04  0.12500109618E+03 0.  0.
    9000005    1    3    3    0    0 -0.58964656074E+02 -0.85008220436E+01 -0.52454533812E+03  0.52791846566E+03  0.10000000000E+01 0.  0.
    9000005    1    3    3    0    0  0.58964656074E+02  0.85008220436E+01 -0.98064774234E+03  0.98245615128E+03  0.10000000000E+01 0.  0.
<mgrwt>
<rscale>  0 0.12500110E+03</rscale>
<asrwt>0</asrwt>
<pdfrwt beam="2">  1        4 0.23196604E+00 0.12500110E+03</pdfrwt>
<pdfrwt beam="1">  1       -4 0.39858094E-03 0.12500110E+03</pdfrwt>
<totfact> 0.17727034E+03</totfact>
</mgrwt>
</event>
<event>
 5    1  0.3289127E-002  0.1250187E+03  0.7818608E-02  0.1235040E+00
         -4   -1    0    0    0  501 -0.00000000000E+00  0.00000000000E+00  0.72748863428E+02  0.72759947980E+02  0.12700000000E+01 0. -1.
          4   -1    0    0  501    0  0.00000000000E+00 -0.00000000000E+00 -0.53688357624E+02  0.53703376471E+02  0.12700000000E+01 0. -1.
         25    2    1    2    0    0  0.00000000000E+00  0.00000000000E+00  0.19060505804E+02  0.12646332445E+03  0.12501867680E+03 0.  0.
    9000005    1    3    3    0    0 -0.27815432052E+02  0.55913192133E+02  0.69643945424E+01  0.62844936996E+02  0.10000000000E+01 0.  0.
    9000005    1    3    3    0    0  0.27815432052E+02 -0.55913192133E+02  0.12096111261E+02  0.63618387455E+02  0.10000000000E+01 0.  0.
<mgrwt>
<rscale>  0 0.12501868E+03</rscale>
<asrwt>0</asrwt>
<pdfrwt beam="2">  1        4 0.82617553E-02 0.12501868E+03</pdfrwt>
<pdfrwt beam="1">  1       -4 0.11194141E-01 0.12501868E+03</pdfrwt>
<totfact> 0.10416436E+04</totfact>
</mgrwt>
</event>
<event>
 5    1  0.3289127E-002  0.1249926E+03  0.7818608E-02  0.1235081E+00
          4   -1    0    0  501    0  0.00000000000E+00  0.00000000000E+00  0.51578630386E+01  0.53119159562E+01  0.12700000000E+01 0. -1.
         -4   -1    0    0    0  501 -0.00000000000E+00 -0.00000000000E+00 -0.74595190254E+03  0.74595298364E+03  0.12700000000E+01 0. -1.
         25    2    1    2    0    0  0.00000000000E+00  0.00000000000E+00 -0.74079403950E+03  0.75126489960E+03  0.12499256140E+03 0.  0.
    9000005    1    3    3    0    0  0.37078332439E+02  0.43008305157E+02 -0.52716196974E+03  0.53021246627E+03  0.10000000000E+01 0.  0.
    9000005    1    3    3    0    0 -0.37078332439E+02 -0.43008305157E+02 -0.21363206976E+03  0.22105243332E+03  0.10000000000E+01 0.  0.
<mgrwt>
<rscale>  0 0.12499256E+03</rscale>
<asrwt>0</asrwt>
<pdfrwt beam="1">  1        4 0.80545137E-03 0.12499256E+03</pdfrwt>
<pdfrwt beam="2">  1       -4 0.11477368E+00 0.12499256E+03</pdfrwt>
<totfact> 0.40520322E+03</totfact>
</mgrwt>
</event>
<event>
 5    1  0.3289127E-002  0.1250020E+03  0.7818608E-02  0.1235066E+00
          4   -1    0    0  501    0  0.00000000000E+00  0.00000000000E+00  0.59351139718E+02  0.59364725939E+02  0.12700000000E+01 0.  1.
         -4   -1    0    0    0  501 -0.00000000000E+00 -0.00000000000E+00 -0.65790747912E+02  0.65803004573E+02  0.12700000000E+01 0.  1.
         25    2    1    2    0    0  0.00000000000E+00  0.00000000000E+00 -0.64396081945E+01  0.12516773051E+03  0.12500196882E+03 0.  0.
    9000005    1    3    3    0    0  0.49789337841E+02  0.37504205382E+02  0.12391300250E+01  0.62354462769E+02  0.10000000000E+01 0.  0.
    9000005    1    3    3    0    0 -0.49789337841E+02 -0.37504205382E+02 -0.76787382195E+01  0.62813267744E+02  0.10000000000E+01 0.  0.
<mgrwt>
<rscale>  0 0.12500197E+03</rscale>
<asrwt>0</asrwt>
<pdfrwt beam="1">  1        4 0.91329325E-02 0.12500197E+03</pdfrwt>
<pdfrwt beam="2">  1       -4 0.10123641E-01 0.12500197E+03</pdfrwt>
<totfact> 0.10448756E+04</totfact>
</mgrwt>
</event>
<event>
 5    1  0.3289127E-002  0.1250100E+03  0.7818608E-02  0.1235054E+00
         -4   -1    0    0    0  501 -0.00000000000E+00  0.00000000000E+00  0.27185568986E+03  0.27185865630E+03  0.12700000000E+01 0.  1.
          4   -1    0    0  501    0  0.00000000000E+00 -0.00000000000E+00 -0.14340015779E+02  0.14396143669E+02  0.12700000000E+01 0.  1.
         25    2    1    2    0    0  0.00000000000E+00  0.00000000000E+00  0.25751567408E+03  0.28625479997E+03  0.12500995205E+03 0.  0.
    9000005    1    3    3    0    0 -0.12504636903E+02  0.15257975369E+02  0.26455036289E+03  0.26528676232E+03  0.10000000000E+01 0.  0.
    9000005    1    3    3    0    0  0.12504636903E+02 -0.15257975369E+02 -0.70346888108E+01  0.20968037655E+02  0.10000000000E+01 0.  0.
<mgrwt>
<rscale>  0 0.12500995E+03</rscale>
<asrwt>0</asrwt>
<pdfrwt beam="2">  1        4 0.22107022E-02 0.12500995E+03</pdfrwt>
<pdfrwt beam="1">  1       -4 0.41828494E-01 0.12500995E+03</pdfrwt>
<totfact> 0.77338906E+03</totfact>
</mgrwt>
</event>
<event>
 5    1  0.3289127E-002  0.1250009E+03  0.7818608E-02  0.1235068E+00
          4   -1    0    0  501    0  0.00000000000E+00  0.00000000000E+00  0.85055314369E+02  0.85064795317E+02  0.12700000000E+01 0. -1.
         -4   -1    0    0    0  501 -0.00000000000E+00 -0.00000000000E+00 -0.45905860239E+02  0.45923424353E+02  0.12700000000E+01 0. -1.
         25    2    1    2    0    0  0.00000000000E+00  0.00000000000E+00  0.39149454130E+02  0.13098821967E+03  0.12500093573E+03 0.  0.
    9000005    1    3    3    0    0 -0.16071544214E+02 -0.27383976819E+01 -0.43643271147E+02  0.46599661713E+02  0.10000000000E+01 0.  0.
    9000005    1    3    3    0    0  0.16071544214E+02  0.27383976819E+01  0.82792725277E+02  0.84388557957E+02  0.10000000000E+01 0.  0.
<mgrwt>
<rscale>  0 0.12500094E+03</rscale>
<asrwt>0</asrwt>
<pdfrwt beam="1">  1        4 0.13087513E-01 0.12500094E+03</pdfrwt>
<pdfrwt beam="2">  1       -4 0.70645205E-02 0.12500094E+03</pdfrwt>
<totfact> 0.10323124E+04</totfact>
</mgrwt>
</event>
<event>
 5    1  0.3289127E-002  0.1249879E+03  0.7818608E-02  0.1235088E+00
         -4   -1    0    0    0  501 -0.00000000000E+00  0.00000000000E+00  0.31074888742E+02  0.31100829737E+02  0.12700000000E+01 0. -1.
          4   -1    0    0  501    0  0.00000000000E+00 -0.00000000000E+00 -0.12559842332E+03  0.12560484402E+03  0.12700000000E+01 0. -1.
         25    2    1    2    0    0  0.00000000000E+00  0.00000000000E+00 -0.94523534577E+02  0.15670567375E+03  0.12498787780E+03 0.  0.
    9000005    1    3    3    0    0  0.30780076236E+02 -0.45007886559E+02 -0.85524661935E+02  0.10143269071E+03  0.10000000000E+01 0.  0.
    9000005    1    3    3    0    0 -0.30780076236E+02  0.45007886559E+02 -0.89988726421E+01  0.55272983042E+02  0.10000000000E+01 0.  0.
<mgrwt>
<rscale>  0 0.12498788E+03</rscale>
<asrwt>0</asrwt>
<pdfrwt beam="2">  1        4 0.19325323E-01 0.12498788E+03</pdfrwt>
<pdfrwt beam="1">  1       -4 0.47832415E-02 0.12498788E+03</pdfrwt>
<totfact> 0.98008403E+03</totfact>
</mgrwt>
</event>
<event>
 5    1  0.3289127E-002  0.1249926E+03  0.7818608E-02  0.1235081E+00
          4   -1    0    0  501    0  0.00000000000E+00  0.00000000000E+00  0.36592203829E+02  0.36614236044E+02  0.12700000000E+01 0.  1.
         -4   -1    0    0    0  501 -0.00000000000E+00 -0.00000000000E+00 -0.10668028854E+03  0.10668784778E+03  0.12700000000E+01 0.  1.
         25    2    1    2    0    0  0.00000000000E+00  0.00000000000E+00 -0.70088084711E+02  0.14330208382E+03  0.12499259021E+03 0.  0.
    9000005    1    3    3    0    0 -0.19321245573E+02 -0.47454110102E+02 -0.76055254464E+02  0.91709349729E+02  0.10000000000E+01 0.  0.
    9000005    1    3    3    0    0  0.19321245573E+02  0.47454110102E+02  0.59671697527E+01  0.51592734091E+02  0.10000000000E+01 0.  0.
<mgrwt>
<rscale>  0 0.12499259E+03</rscale>
<asrwt>0</asrwt>
<pdfrwt beam="1">  1        4 0.56318461E-02 0.12499259E+03</pdfrwt>
<pdfrwt beam="2">  1       -4 0.16414628E-01 0.12499259E+03</pdfrwt>
<totfact> 0.10067281E+04</totfact>
</mgrwt>
</event>
<event>
 5    1  0.3289127E-002  0.1250007E+03  0.7818608E-02  0.1235068E+00
         -4   -1    0    0    0  501 -0.00000000000E+00  0.00000000000E+00  0.50833164814E+03  0.50833323460E+03  0.12700000000E+01 0. -1.
          4   -1    0    0  501    0  0.00000000000E+00 -0.00000000000E+00 -0.76304528354E+01  0.77354192177E+01  0.12700000000E+01 0. -1.
         25    2    1    2    0    0  0.00000000000E+00  0.00000000000E+00  0.50070119530E+03  0.51606865382E+03  0.12500067390E+03 0.  0.
    9000005    1    3    3    0    0  0.35314158090E+02 -0.50197305919E+02  0.29892580735E+03  0.30516306720E+03  0.10000000000E+01 0.  0.
    9000005    1    3    3    0    0 -0.35314158090E+02  0.50197305919E+02  0.20177538796E+03  0.21090558662E+03  0.10000000000E+01 0.  0.
<mgrwt>
<rscale>  0 0.12500067E+03</rscale>
<asrwt>0</asrwt>
<pdfrwt beam="2">  1        4 0.11821119E-02 0.12500067E+03</pdfrwt>
<pdfrwt beam="1">  1       -4 0.78213082E-01 0.12500067E+03</pdfrwt>
<totfact> 0.54638021E+03</totfact>
</mgrwt>
</event>
<event>
 5    1  0.3289127E-002  0.1250002E+03  0.7818608E-02  0.1235069E+00
          4   -1    0    0  501    0  0.00000000000E+00  0.00000000000E+00  0.54978520186E+02  0.54993186686E+02  0.12700000000E+01 0.  1.
         -4   -1    0    0    0  501 -0.00000000000E+00 -0.00000000000E+00 -0.71020862949E+02  0.71032217156E+02  0.12700000000E+01 0.  1.
         25    2    1    2    0    0  0.00000000000E+00  0.00000000000E+00 -0.16042342763E+02  0.12602540384E+03  0.12500018261E+03 0.  0.
    9000005    1    3    3    0    0 -0.49624759118E+02 -0.28793221024E+02 -0.32995188111E+02  0.66191757289E+02  0.10000000000E+01 0.  0.
    9000005    1    3    3    0    0  0.49624759118E+02  0.28793221024E+02  0.16952845348E+02  0.59833646553E+02  0.10000000000E+01 0.  0.
<mgrwt>
<rscale>  0 0.12500018E+03</rscale>
<asrwt>0</asrwt>
<pdfrwt beam="1">  1        4 0.84602355E-02 0.12500018E+03</pdfrwt>
<pdfrwt beam="2">  1       -4 0.10928288E-01 0.12500018E+03</pdfrwt>
<totfact> 0.10430357E+04</totfact>
</mgrwt>
</event>
<event>
 5    1  0.3289127E-002  0.1250012E+03  0.7818608E-02  0.1235067E+00
         -4   -1    0    0    0  501 -0.00000000000E+00  0.00000000000E+00  0.73093326079E+01  0.74188437894E+01  0.12700000000E+01 0. -1.
          4   -1    0    0  501    0  0.00000000000E+00 -0.00000000000E+00 -0.53034599191E+03  0.53034751252E+03  0.12700000000E+01 0. -1.
         25    2    1    2    0    0  0.00000000000E+00  0.00000000000E+00 -0.52303665931E+03  0.53776635631E+03  0.12500122801E+03 0.  0.
    9000005    1    3    3    0    0 -0.34792886723E+02 -0.47441853218E+02 -0.17086235444E+03  0.18071031671E+03  0.10000000000E+01 0.  0.
    9000005    1    3    3    0    0  0.34792886723E+02  0.47441853218E+02 -0.35217430487E+03  0.35705603960E+03  0.10000000000E+01 0.  0.
<mgrwt>
<rscale>  0 0.12500123E+03</rscale>
<asrwt>0</asrwt>
<pdfrwt beam="2">  1        4 0.81600202E-01 0.12500123E+03</pdfrwt>
<pdfrwt beam="1">  1       -4 0.11330540E-02 0.12500123E+03</pdfrwt>
<totfact> 0.53047359E+03</totfact>
</mgrwt>
</event>
<event>
 5    1  0.3289127E-002  0.1250023E+03  0.7818608E-02  0.1235066E+00
         -4   -1    0    0    0  501 -0.00000000000E+00  0.00000000000E+00  0.56439095802E+02  0.56453382848E+02  0.12700000000E+01 0. -1.
          4   -1    0    0  501    0  0.00000000000E+00 -0.00000000000E+00 -0.69185494850E+02  0.69197150213E+02  0.12700000000E+01 0. -1.
         25    2    1    2    0    0  0.00000000000E+00  0.00000000000E+00 -0.12746399048E+02  0.12565053306E+03  0.12500234306E+03 0.  0.
    9000005    1    3    3    0    0 -0.40837351943E+02  0.42260323556E+02  0.14991949406E+02  0.60657916283E+02  0.10000000000E+01 0.  0.
    9000005    1    3    3    0    0  0.40837351943E+02 -0.42260323556E+02 -0.27738348455E+02  0.64992616779E+02  0.10000000000E+01 0.  0.
<mgrwt>
<rscale>  0 0.12500234E+03</rscale>
<asrwt>0</asrwt>
<pdfrwt beam="2">  1        4 0.10645918E-01 0.12500234E+03</pdfrwt>
<pdfrwt beam="1">  1       -4 0.86849333E-02 0.12500234E+03</pdfrwt>
<totfact> 0.10438082E+04</totfact>
</mgrwt>
</event>
<event>
 5    1  0.3289127E-002  0.1249959E+03  0.7818608E-02  0.1235076E+00
         -4   -1    0    0    0  501 -0.00000000000E+00  0.00000000000E+00  0.12774941114E+04  0.12774947427E+04  0.12700000000E+01 0.  1.
          4   -1    0    0  501    0  0.00000000000E+00 -0.00000000000E+00 -0.29250030826E+01  0.31888153025E+01  0.12700000000E+01 0.  1.
         25    2    1    2    0    0  0.00000000000E+00  0.00000000000E+00  0.12745691084E+04  0.12806835580E+04  0.12499585512E+03 0.  0.
    9000005    1    3    3    0    0  0.12659452483E+02 -0.31477164702E+02  0.99607293001E+02  0.10523158487E+03  0.10000000000E+01 0.  0.
    9000005    1    3    3    0    0 -0.12659452483E+02  0.31477164702E+02  0.11749618154E+04  0.11754519731E+04  0.10000000000E+01 0.  0.
<mgrwt>
<rscale>  0 0.12499586E+03</rscale>
<asrwt>0</asrwt>
<pdfrwt beam="2">  1        4 0.47034186E-03 0.12499586E+03</pdfrwt>
<pdfrwt beam="1">  1       -4 0.19655807E+00 0.12499586E+03</pdfrwt>
<totfact> 0.22691084E+03</totfact>
</mgrwt>
</event>
<event>
 5    1  0.3289127E-002  0.1249970E+03  0.7818608E-02  0.1235074E+00
         -4   -1    0    0    0  501 -0.00000000000E+00  0.00000000000E+00  0.27798807000E+02  0.27827802116E+02  0.12700000000E+01 0.  1.
          4   -1    0    0  501    0  0.00000000000E+00 -0.00000000000E+00 -0.14040678814E+03  0.14041253169E+03  0.12700000000E+01 0.  1.
         25    2    1    2    0    0  0.00000000000E+00  0.00000000000E+00 -0.11260798114E+03  0.16824033381E+03  0.12499700998E+03 0.  0.
    9000005    1    3    3    0    0 -0.62467426944E+02  0.16981079221E+01 -0.56288865358E+02  0.84110043174E+02  0.10000000000E+01 0.  0.
    9000005    1    3    3    0    0  0.62467426944E+02 -0.16981079221E+01 -0.56319115782E+02  0.84130290633E+02  0.10000000000E+01 0.  0.
<mgrwt>
<rscale>  0 0.12499701E+03</rscale>
<asrwt>0</asrwt>
<pdfrwt beam="2">  1        4 0.21603716E-01 0.12499701E+03</pdfrwt>
<pdfrwt beam="1">  1       -4 0.42794118E-02 0.12499701E+03</pdfrwt>
<totfact> 0.95783651E+03</totfact>
</mgrwt>
</event>
<event>
 5    1  0.3289127E-002  0.1250018E+03  0.7818608E-02  0.1235067E+00
          4   -1    0    0  501    0  0.00000000000E+00  0.00000000000E+00  0.59334046822E+02  0.59347636956E+02  0.12700000000E+01 0. -1.
         -4   -1    0    0    0  501 -0.00000000000E+00 -0.00000000000E+00 -0.65809495091E+02  0.65821748261E+02  0.12700000000E+01 0. -1.
         25    2    1    2    0    0  0.00000000000E+00  0.00000000000E+00 -0.64754482692E+01  0.12516938522E+03  0.12500177425E+03 0.  0.
    9000005    1    3    3    0    0 -0.25226084486E+02 -0.50639884484E+02  0.23342315215E+02  0.61209614593E+02  0.10000000000E+01 0.  0.
    9000005    1    3    3    0    0  0.25226084486E+02  0.50639884484E+02 -0.29817763484E+02  0.63959770624E+02  0.10000000000E+01 0.  0.
<mgrwt>
<rscale>  0 0.12500177E+03</rscale>
<asrwt>0</asrwt>
<pdfrwt beam="1">  1        4 0.91303028E-02 0.12500177E+03</pdfrwt>
<pdfrwt beam="2">  1       -4 0.10126526E-01 0.12500177E+03</pdfrwt>
<totfact> 0.10448766E+04</totfact>
</mgrwt>
</event>
<event>
 5    1  0.3289127E-002  0.1250026E+03  0.7818608E-02  0.1235065E+00
         -4   -1    0    0    0  501 -0.00000000000E+00  0.00000000000E+00  0.92985888580E+02  0.92994560997E+02  0.12700000000E+01 0.  1.
          4   -1    0    0  501    0  0.00000000000E+00 -0.00000000000E+00 -0.41990556184E+02  0.42009757303E+02  0.12700000000E+01 0.  1.
         25    2    1    2    0    0  0.00000000000E+00  0.00000000000E+00  0.50995332396E+02  0.13500431830E+03  0.12500256811E+03 0.  0.
    9000005    1    3    3    0    0 -0.11936346646E+02 -0.45716857388E+02  0.69671400656E+02  0.84187953354E+02  0.10000000000E+01 0.  0.
    9000005    1    3    3    0    0  0.11936346646E+02  0.45716857388E+02 -0.18676068260E+02  0.50816364946E+02  0.10000000000E+01 0.  0.
<mgrwt>
<rscale>  0 0.12500257E+03</rscale>
<asrwt>0</asrwt>
<pdfrwt beam="2">  1        4 0.64622298E-02 0.12500257E+03</pdfrwt>
<pdfrwt beam="1">  1       -4 0.14307665E-01 0.12500257E+03</pdfrwt>
<totfact> 0.10237387E+04</totfact>
</mgrwt>
</event>
<event>
 5    1  0.3289127E-002  0.1250062E+03  0.7818608E-02  0.1235060E+00
          4   -1    0    0  501    0  0.00000000000E+00  0.00000000000E+00  0.64386309961E+02  0.64398833921E+02  0.12700000000E+01 0.  1.
         -4   -1    0    0    0  501 -0.00000000000E+00 -0.00000000000E+00 -0.60649854714E+02  0.60663150073E+02  0.12700000000E+01 0.  1.
         25    2    1    2    0    0  0.00000000000E+00  0.00000000000E+00  0.37364552467E+01  0.12506198399E+03  0.12500615482E+03 0.  0.
    9000005    1    3    3    0    0  0.43727385408E+02  0.44521628836E+02  0.52424207912E+01  0.62631802182E+02  0.10000000000E+01 0.  0.
    9000005    1    3    3    0    0 -0.43727385408E+02 -0.44521628836E+02 -0.15059655445E+01  0.62430181812E+02  0.10000000000E+01 0.  0.
<mgrwt>
<rscale>  0 0.12500615E+03</rscale>
<asrwt>0</asrwt>
<pdfrwt beam="1">  1        4 0.99075722E-02 0.12500615E+03</pdfrwt>
<pdfrwt beam="2">  1       -4 0.93327330E-02 0.12500615E+03</pdfrwt>
<totfact> 0.10450063E+04</totfact>
</mgrwt>
</event>
<event>
 5    1  0.3289127E-002  0.1250031E+03  0.7818608E-02  0.1235064E+00
          4   -1    0    0  501    0  0.00000000000E+00  0.00000000000E+00  0.15201323291E+03  0.15201853794E+03  0.12700000000E+01 0. -1.
         -4   -1    0    0    0  501 -0.00000000000E+00 -0.00000000000E+00 -0.25676594358E+02  0.25707983154E+02  0.12700000000E+01 0. -1.
         25    2    1    2    0    0  0.00000000000E+00  0.00000000000E+00  0.12633663855E+03  0.17772652110E+03  0.12500308021E+03 0.  0.
    9000005    1    3    3    0    0  0.38454555952E+01 -0.21284638827E+02 -0.20192198683E+02  0.29606557827E+02  0.10000000000E+01 0.  0.
    9000005    1    3    3    0    0 -0.38454555952E+01  0.21284638827E+02  0.14652883723E+03  0.14811996327E+03  0.10000000000E+01 0.  0.
<mgrwt>
<rscale>  0 0.12500308E+03</rscale>
<asrwt>0</asrwt>
<pdfrwt beam="1">  1        4 0.23389474E-01 0.12500308E+03</pdfrwt>
<pdfrwt beam="2">  1       -4 0.39530679E-02 0.12500308E+03</pdfrwt>
<totfact> 0.94021349E+03</totfact>
</mgrwt>
</event>
<event>
 5    1  0.3289127E-002  0.1249988E+03  0.7818608E-02  0.1235071E+00
         -4   -1    0    0    0  501 -0.00000000000E+00  0.00000000000E+00  0.16293384925E+03  0.16293879873E+03  0.12700000000E+01 0. -1.
          4   -1    0    0  501    0  0.00000000000E+00 -0.00000000000E+00 -0.23951865325E+02  0.23985511304E+02  0.12700000000E+01 0. -1.
         25    2    1    2    0    0  0.00000000000E+00  0.00000000000E+00  0.13898198393E+03  0.18692431003E+03  0.12499882330E+03 0.  0.
    9000005    1    3    3    0    0  0.48014068813E+02  0.38629100440E+02  0.85004243266E+02  0.10499656936E+03  0.10000000000E+01 0.  0.
    9000005    1    3    3    0    0 -0.48014068813E+02 -0.38629100440E+02  0.53977740659E+02  0.81927740671E+02  0.10000000000E+01 0.  0.
<mgrwt>
<rscale>  0 0.12499882E+03</rscale>
<asrwt>0</asrwt>
<pdfrwt beam="2">  1        4 0.36878712E-02 0.12499882E+03</pdfrwt>
<pdfrwt beam="1">  1       -4 0.25069715E-01 0.12499882E+03</pdfrwt>
<totfact> 0.92387680E+03</totfact>
</mgrwt>
</event>
<event>
 5    1  0.3289127E-002  0.1249910E+03  0.7818608E-02  0.1235083E+00
         -4   -1    0    0    0  501 -0.00000000000E+00  0.00000000000E+00  0.19092952840E+03  0.19093375216E+03  0.12700000000E+01 0. -1.
          4   -1    0    0  501    0  0.00000000000E+00 -0.00000000000E+00 -0.20432023347E+02  0.20471455201E+02  0.12700000000E+01 0. -1.
         25    2    1    2    0    0  0.00000000000E+00  0.00000000000E+00  0.17049750505E+03  0.21140520736E+03  0.12499104957E+03 0.  0.
    9000005    1    3    3    0    0 -0.25087361243E+02 -0.94640096207E+01 -0.10215865146E+02  0.28710748387E+02  0.10000000000E+01 0.  0.
    9000005    1    3    3    0    0  0.25087361243E+02  0.94640096207E+01  0.18071337020E+03  0.18269445898E+03  0.10000000000E+01 0.  0.
<mgrwt>
<rscale>  0 0.12499105E+03</rscale>
<asrwt>0</asrwt>
<pdfrwt beam="2">  1        4 0.31467463E-02 0.12499105E+03</pdfrwt>
<pdfrwt beam="1">  1       -4 0.29377132E-01 0.12499105E+03</pdfrwt>
<totfact> 0.88264562E+03</totfact>
</mgrwt>
</event>
<event>
 5    1  0.3289127E-002  0.1250006E+03  0.7818608E-02  0.1235068E+00
         -4   -1    0    0    0  501 -0.00000000000E+00  0.00000000000E+00  0.52121530029E+02  0.52137000226E+02  0.12700000000E+01 0.  1.
          4   -1    0    0  501    0  0.00000000000E+00 -0.00000000000E+00 -0.74913783285E+02  0.74924547553E+02  0.12700000000E+01 0.  1.
         25    2    1    2    0    0  0.00000000000E+00  0.00000000000E+00 -0.22792253256E+02  0.12706154778E+03  0.12500060046E+03 0.  0.
    9000005    1    3    3    0    0 -0.11512734313E+01 -0.35138116899E+02  0.41120725742E+02  0.54110320414E+02  0.10000000000E+01 0.  0.
    9000005    1    3    3    0    0  0.11512734313E+01  0.35138116899E+02 -0.63912978998E+02  0.72951227365E+02  0.10000000000E+01 0.  0.
<mgrwt>
<rscale>  0 0.12500060E+03</rscale>
<asrwt>0</asrwt>
<pdfrwt beam="2">  1        4 0.11527216E-01 0.12500060E+03</pdfrwt>
<pdfrwt beam="1">  1       -4 0.80207149E-02 0.12500060E+03</pdfrwt>
<totfact> 0.10407668E+04</totfact>
</mgrwt>
</event>
<event>
 5    1  0.3289127E-002  0.1249987E+03  0.7818608E-02  0.1235071E+00
         -4   -1    0    0    0  501 -0.00000000000E+00  0.00000000000E+00  0.58434590309E+02  0.58448389581E+02  0.12700000000E+01 0.  1.
          4   -1    0    0  501    0  0.00000000000E+00 -0.00000000000E+00 -0.66819086710E+02  0.66831154777E+02  0.12700000000E+01 0.  1.
         25    2    1    2    0    0  0.00000000000E+00  0.00000000000E+00 -0.83844964015E+01  0.12527954436E+03  0.12499865781E+03 0.  0.
    9000005    1    3    3    0    0 -0.14278558460E+02 -0.39270979374E+02 -0.50762553843E+02  0.65756550437E+02  0.10000000000E+01 0.  0.
    9000005    1    3    3    0    0  0.14278558460E+02  0.39270979374E+02  0.42378057442E+02  0.59522993920E+02  0.10000000000E+01 0.  0.
<mgrwt>
<rscale>  0 0.12499866E+03</rscale>
<asrwt>0</asrwt>
<pdfrwt beam="2">  1        4 0.10281849E-01 0.12499866E+03</pdfrwt>
<pdfrwt beam="1">  1       -4 0.89919267E-02 0.12499866E+03</pdfrwt>
<totfact> 0.10447111E+04</totfact>
</mgrwt>
</event>
<event>
 5    1  0.3289127E-002  0.1249986E+03  0.7818608E-02  0.1235072E+00
         -4   -1    0    0    0  501 -0.00000000000E+00  0.00000000000E+00  0.16716206317E+02  0.16764380503E+02  0.12700000000E+01 0.  1.
          4   -1    0    0  501    0  0.00000000000E+00 -0.00000000000E+00 -0.23328889890E+03  0.23329235575E+03  0.12700000000E+01 0.  1.
         25    2    1    2    0    0  0.00000000000E+00  0.00000000000E+00 -0.21657269258E+03  0.25005673625E+03  0.12499856068E+03 0.  0.
    9000005    1    3    3    0    0  0.18090926770E+02  0.37300309988E+02 -0.20183009515E+03  0.20604606782E+03  0.10000000000E+01 0.  0.
    9000005    1    3    3    0    0 -0.18090926770E+02 -0.37300309988E+02 -0.14742597436E+02  0.44010668431E+02  0.10000000000E+01 0.  0.
<mgrwt>
<rscale>  0 0.12499856E+03</rscale>
<asrwt>0</asrwt>
<pdfrwt beam="2">  1        4 0.35894569E-01 0.12499856E+03</pdfrwt>
<pdfrwt beam="1">  1       -4 0.25756958E-02 0.12499856E+03</pdfrwt>
<totfact> 0.82324669E+03</totfact>
</mgrwt>
</event>
<event>
 5    1  0.3289127E-002  0.1250007E+03  0.7818608E-02  0.1235068E+00
          4   -1    0    0  501    0  0.00000000000E+00  0.00000000000E+00  0.91635627961E+02  0.91644428155E+02  0.12700000000E+01 0. -1.
         -4   -1    0    0    0  501 -0.00000000000E+00 -0.00000000000E+00 -0.42608252086E+02  0.42627174969E+02  0.12700000000E+01 0. -1.
         25    2    1    2    0    0  0.00000000000E+00  0.00000000000E+00  0.49027375875E+02  0.13427160312E+03  0.12500071928E+03 0.  0.
    9000005    1    3    3    0    0  0.30616453992E+02 -0.54355083544E+02  0.20573883517E+02  0.65697237727E+02  0.10000000000E+01 0.  0.
    9000005    1    3    3    0    0 -0.30616453992E+02  0.54355083544E+02  0.28453492358E+02  0.68574365396E+02  0.10000000000E+01 0.  0.
<mgrwt>
<rscale>  0 0.12500072E+03</rscale>
<asrwt>0</asrwt>
<pdfrwt beam="1">  1        4 0.14099921E-01 0.12500072E+03</pdfrwt>
<pdfrwt beam="2">  1       -4 0.65572483E-02 0.12500072E+03</pdfrwt>
<totfact> 0.10253280E+04</totfact>
</mgrwt>
</event>
<event>
 5    1  0.3289127E-002  0.1249968E+03  0.7818608E-02  0.1235074E+00
          4   -1    0    0  501    0  0.00000000000E+00  0.00000000000E+00  0.61813579816E+02  0.61826624925E+02  0.12700000000E+01 0.  1.
         -4   -1    0    0    0  501 -0.00000000000E+00 -0.00000000000E+00 -0.63164716884E+02  0.63177483007E+02  0.12700000000E+01 0.  1.
         25    2    1    2    0    0  0.00000000000E+00  0.00000000000E+00 -0.13511370685E+01  0.12500410793E+03  0.12499680567E+03 0.  0.
    9000005    1    3    3    0    0 -0.62302040093E+02 -0.11177675951E+01  0.40424134014E+01  0.62451058520E+02  0.10000000000E+01 0.  0.
    9000005    1    3    3    0    0  0.62302040093E+02  0.11177675951E+01 -0.53935504699E+01  0.62553049412E+02  0.10000000000E+01 0.  0.
<mgrwt>
<rscale>  0 0.12499681E+03</rscale>
<asrwt>0</asrwt>
<pdfrwt beam="1">  1        4 0.95117670E-02 0.12499681E+03</pdfrwt>
<pdfrwt beam="2">  1       -4 0.97196342E-02 0.12499681E+03</pdfrwt>
<totfact> 0.10453528E+04</totfact>
</mgrwt>
</event>
<event>
 5    1  0.3289127E-002  0.1249991E+03  0.7818608E-02  0.1235071E+00
         -4   -1    0    0    0  501 -0.00000000000E+00  0.00000000000E+00  0.10643017903E+02  0.10718522757E+02  0.12700000000E+01 0.  1.
          4   -1    0    0  501    0  0.00000000000E+00 -0.00000000000E+00 -0.36564549895E+03  0.36564770450E+03  0.12700000000E+01 0.  1.
         25    2    1    2    0    0  0.00000000000E+00  0.00000000000E+00 -0.35500248105E+03  0.37636622725E+03  0.12499910186E+03 0.  0.
    9000005    1    3    3    0    0 -0.33383644883E+02  0.74968159045E+01 -0.20050534413E+02  0.39669811251E+02  0.10000000000E+01 0.  0.
    9000005    1    3    3    0    0  0.33383644883E+02 -0.74968159045E+01 -0.33495194664E+03  0.33669641600E+03  0.10000000000E+01 0.  0.
<mgrwt>
<rscale>  0 0.12499910E+03</rscale>
<asrwt>0</asrwt>
<pdfrwt beam="2">  1        4 0.56259122E-01 0.12499910E+03</pdfrwt>
<pdfrwt beam="1">  1       -4 0.16433654E-02 0.12499910E+03</pdfrwt>
<totfact> 0.66919461E+03</totfact>
</mgrwt>
</event>
<event>
 5    1  0.3289127E-002  0.1249993E+03  0.7818608E-02  0.1235070E+00
          4   -1    0    0  501    0  0.00000000000E+00  0.00000000000E+00  0.17458803987E+02  0.17504934637E+02  0.12700000000E+01 0.  1.
         -4   -1    0    0    0  501 -0.00000000000E+00 -0.00000000000E+00 -0.22339545010E+03  0.22339906004E+03  0.12700000000E+01 0.  1.
         25    2    1    2    0    0  0.00000000000E+00  0.00000000000E+00 -0.20593664611E+03  0.24090399467E+03  0.12499932975E+03 0.  0.
    9000005    1    3    3    0    0  0.49360855203E+02  0.35862364320E+02 -0.12901141479E+03  0.14271491985E+03  0.10000000000E+01 0.  0.
    9000005    1    3    3    0    0 -0.49360855203E+02 -0.35862364320E+02 -0.76925231319E+02  0.98189074822E+02  0.10000000000E+01 0.  0.
<mgrwt>
<rscale>  0 0.12499933E+03</rscale>
<asrwt>0</asrwt>
<pdfrwt beam="1">  1        4 0.26897962E-02 0.12499933E+03</pdfrwt>
<pdfrwt beam="2">  1       -4 0.34372355E-01 0.12499933E+03</pdfrwt>
<totfact> 0.83664168E+03</totfact>
</mgrwt>
</event>
<event>
 5    1  0.3289127E-002  0.1249983E+03  0.7818608E-02  0.1235072E+00
         -4   -1    0    0    0  501 -0.00000000000E+00  0.00000000000E+00  0.15968765586E+01  0.20403222156E+01  0.12700000000E+01 0.  1.
          4   -1    0    0  501    0  0.00000000000E+00 -0.00000000000E+00 -0.21474429572E+04  0.21474433328E+04  0.12700000000E+01 0.  1.
         25    2    1    2    0    0  0.00000000000E+00  0.00000000000E+00 -0.21458460807E+04  0.21494836550E+04  0.12499832445E+03 0.  0.
    9000005    1    3    3    0    0  0.32739374278E+02  0.49362244880E+02 -0.73044535587E+03  0.73284371851E+03  0.10000000000E+01 0.  0.
    9000005    1    3    3    0    0 -0.32739374278E+02 -0.49362244880E+02 -0.14154007248E+04  0.14166399365E+04  0.10000000000E+01 0.  0.
<mgrwt>
<rscale>  0 0.12499832E+03</rscale>
<asrwt>0</asrwt>
<pdfrwt beam="2">  1        4 0.33040795E+00 0.12499832E+03</pdfrwt>
<pdfrwt beam="1">  1       -4 0.27981513E-03 0.12499832E+03</pdfrwt>
<totfact> 0.80345729E+02</totfact>
</mgrwt>
</event>
<event>
 5    1  0.3289127E-002  0.1249949E+03  0.7818608E-02  0.1235077E+00
          4   -1    0    0  501    0  0.00000000000E+00  0.00000000000E+00  0.53051498763E+02  0.53066697853E+02  0.12700000000E+01 0. -1.
         -4   -1    0    0    0  501 -0.00000000000E+00 -0.00000000000E+00 -0.73594003241E+02  0.73604960519E+02  0.12700000000E+01 0. -1.
         25    2    1    2    0    0  0.00000000000E+00  0.00000000000E+00 -0.20542504477E+02  0.12667165837E+03  0.12499485807E+03 0.  0.
    9000005    1    3    3    0    0  0.29042357485E+02 -0.53389049353E+02  0.44522238174E+01  0.60948104286E+02  0.10000000000E+01 0.  0.
    9000005    1    3    3    0    0 -0.29042357485E+02  0.53389049353E+02 -0.24994728295E+02  0.65723554086E+02  0.10000000000E+01 0.  0.
<mgrwt>
<rscale>  0 0.12499486E+03</rscale>
<asrwt>0</asrwt>
<pdfrwt beam="1">  1        4 0.81637811E-02 0.12499486E+03</pdfrwt>
<pdfrwt beam="2">  1       -4 0.11324166E-01 0.12499486E+03</pdfrwt>
<totfact> 0.10417496E+04</totfact>
</mgrwt>
</event>
<event>
 5    1  0.3289127E-002  0.1250002E+03  0.7818608E-02  0.1235069E+00
         -4   -1    0    0    0  501 -0.00000000000E+00  0.00000000000E+00  0.13715631567E+02  0.13774303949E+02  0.12700000000E+01 0.  1.
          4   -1    0    0  501    0  0.00000000000E+00 -0.00000000000E+00 -0.28413556194E+03  0.28413840019E+03  0.12700000000E+01 0.  1.
         25    2    1    2    0    0  0.00000000000E+00  0.00000000000E+00 -0.27041993037E+03  0.29791270413E+03  0.12500016216E+03 0.  0.
    9000005    1    3    3    0    0  0.11752329721E+02  0.58938370753E+02 -0.17603409067E+03  0.18601303686E+03  0.10000000000E+01 0.  0.
    9000005    1    3    3    0    0 -0.11752329721E+02 -0.58938370753E+02 -0.94385839701E+02  0.11189966728E+03  0.10000000000E+01 0.  0.
<mgrwt>
<rscale>  0 0.12500016E+03</rscale>
<asrwt>0</asrwt>
<pdfrwt beam="2">  1        4 0.43717890E-01 0.12500016E+03</pdfrwt>
<pdfrwt beam="1">  1       -4 0.21148290E-02 0.12500016E+03</pdfrwt>
<totfact> 0.75861142E+03</totfact>
</mgrwt>
</event>
<event>
 5    1  0.3289127E-002  0.1250022E+03  0.7818608E-02  0.1235066E+00
         -4   -1    0    0    0  501 -0.00000000000E+00  0.00000000000E+00  0.17869194398E+02  0.17914268292E+02  0.12700000000E+01 0. -1.
          4   -1    0    0  501    0  0.00000000000E+00 -0.00000000000E+00 -0.21828787474E+03  0.21829156914E+03  0.12700000000E+01 0. -1.
         25    2    1    2    0    0  0.00000000000E+00  0.00000000000E+00 -0.20041868034E+03  0.23620583743E+03  0.12500220081E+03 0.  0.
    9000005    1    3    3    0    0  0.34435701470E+02 -0.30716589472E+02 -0.20574718000E+02  0.50533606890E+02  0.10000000000E+01 0.  0.
    9000005    1    3    3    0    0 -0.34435701470E+02  0.30716589472E+02 -0.17984396234E+03  0.18567223054E+03  0.10000000000E+01 0.  0.
<mgrwt>
<rscale>  0 0.12500220E+03</rscale>
<asrwt>0</asrwt>
<pdfrwt beam="2">  1        4 0.33586499E-01 0.12500220E+03</pdfrwt>
<pdfrwt beam="1">  1       -4 0.27528584E-02 0.12500220E+03</pdfrwt>
<totfact> 0.84361566E+03</totfact>
</mgrwt>
</event>
<event>
 5    1  0.3289127E-002  0.1250036E+03  0.7818608E-02  0.1235064E+00
          4   -1    0    0  501    0  0.00000000000E+00  0.00000000000E+00  0.39104108976E+02  0.39124726693E+02  0.12700000000E+01 0.  1.
         -4   -1    0    0    0  501 -0.00000000000E+00 -0.00000000000E+00 -0.99848346737E+02  0.99856423159E+02  0.12700000000E+01 0.  1.
         25    2    1    2    0    0  0.00000000000E+00  0.00000000000E+00 -0.60744237761E+02  0.13898114985E+03  0.12500359032E+03 0.  0.
    9000005    1    3    3    0    0 -0.39039075071E+02 -0.41804972154E+02 -0.23823688998E+01  0.57257145936E+02  0.10000000000E+01 0.  0.
    9000005    1    3    3    0    0  0.39039075071E+02  0.41804972154E+02 -0.58361868861E+02  0.81724003916E+02  0.10000000000E+01 0.  0.
<mgrwt>
<rscale>  0 0.12500359E+03</rscale>
<asrwt>0</asrwt>
<pdfrwt beam="1">  1        4 0.60182240E-02 0.12500359E+03</pdfrwt>
<pdfrwt beam="2">  1       -4 0.15363491E-01 0.12500359E+03</pdfrwt>
<totfact> 0.10153924E+04</totfact>
</mgrwt>
</event>
<event>
 5    1  0.3289127E-002  0.1249986E+03  0.7818608E-02  0.1235072E+00
          4   -1    0    0  501    0  0.00000000000E+00  0.00000000000E+00  0.83754067464E+02  0.83763695697E+02  0.12700000000E+01 0.  1.
         -4   -1    0    0    0  501 -0.00000000000E+00 -0.00000000000E+00 -0.46617503559E+02  0.46634799646E+02  0.12700000000E+01 0.  1.
         25    2    1    2    0    0  0.00000000000E+00  0.00000000000E+00  0.37136563905E+02  0.13039849534E+03  0.12499857283E+03 0.  0.
    9000005    1    3    3    0    0  0.38398404786E+02  0.47745760767E+02  0.31390122579E+02  0.68850816676E+02  0.10000000000E+01 0.  0.
    9000005    1    3    3    0    0 -0.38398404786E+02 -0.47745760767E+02  0.57464413259E+01  0.61547678667E+02  0.10000000000E+01 0.  0.
<mgrwt>
<rscale>  0 0.12499857E+03</rscale>
<asrwt>0</asrwt>
<pdfrwt beam="1">  1        4 0.12887312E-01 0.12499857E+03</pdfrwt>
<pdfrwt beam="2">  1       -4 0.71739948E-02 0.12499857E+03</pdfrwt>
<totfact> 0.10336323E+04</totfact>
</mgrwt>
</event>
<event>
 5    1  0.3289127E-002  0.1250000E+03  0.7818608E-02  0.1235069E+00
          4   -1    0    0  501    0  0.00000000000E+00  0.00000000000E+00  0.32159777568E+01  0.34576600371E+01  0.12700000000E+01 0. -1.
         -4   -1    0    0    0  501 -0.00000000000E+00 -0.00000000000E+00 -0.11704085474E+04  0.11704092364E+04  0.12700000000E+01 0. -1.
         25    2    1    2    0    0  0.00000000000E+00  0.00000000000E+00 -0.11671925696E+04  0.11738668964E+04  0.12499998399E+03 0.  0.
    9000005    1    3    3    0    0 -0.35204113727E+02 -0.49432511148E+02 -0.44356541994E+03  0.44769876541E+03  0.10000000000E+01 0.  0.
    9000005    1    3    3    0    0  0.35204113727E+02  0.49432511148E+02 -0.72362714967E+03  0.72616813103E+03  0.10000000000E+01 0.  0.
<mgrwt>
<rscale>  0 0.12499998E+03</rscale>
<asrwt>0</asrwt>
<pdfrwt beam="1">  1        4 0.51341069E-03 0.12499998E+03</pdfrwt>
<pdfrwt beam="2">  1       -4 0.18008117E+00 0.12499998E+03</pdfrwt>
<totfact> 0.25407277E+03</totfact>
</mgrwt>
</event>
<event>
 5    1  0.3289127E-002  0.1250277E+03  0.7818608E-02  0.1235026E+00
         -4   -1    0    0    0  501 -0.00000000000E+00  0.00000000000E+00  0.74398804677E+02  0.74409643444E+02  0.12700000000E+01 0.  1.
          4   -1    0    0  501    0  0.00000000000E+00 -0.00000000000E+00 -0.52505107596E+02  0.52520464809E+02  0.12700000000E+01 0.  1.
         25    2    1    2    0    0  0.00000000000E+00  0.00000000000E+00  0.21893697081E+02  0.12693010825E+03  0.12502767057E+03 0.  0.
    9000005    1    3    3    0    0  0.37145642275E+02  0.38507980119E+02  0.43754454874E+02  0.69123914777E+02  0.10000000000E+01 0.  0.
    9000005    1    3    3    0    0 -0.37145642275E+02 -0.38507980119E+02 -0.21860757793E+02  0.57806193475E+02  0.10000000000E+01 0.  0.
<mgrwt>
<rscale>  0 0.12502767E+03</rscale>
<asrwt>0</asrwt>
<pdfrwt beam="2">  1        4 0.80797239E-02 0.12502767E+03</pdfrwt>
<pdfrwt beam="1">  1       -4 0.11447985E-01 0.12502767E+03</pdfrwt>
<totfact> 0.10404164E+04</totfact>
</mgrwt>
</event>
<event>
 5    1  0.3289127E-002  0.1249997E+03  0.7818608E-02  0.1235070E+00
          4   -1    0    0  501    0  0.00000000000E+00  0.00000000000E+00  0.22940470075E+03  0.22940821613E+03  0.12700000000E+01 0.  1.
         -4   -1    0    0    0  501 -0.00000000000E+00 -0.00000000000E+00 -0.17000348328E+02  0.17047719592E+02  0.12700000000E+01 0.  1.
         25    2    1    2    0    0  0.00000000000E+00  0.00000000000E+00  0.21240435242E+03  0.24645593572E+03  0.12499967729E+03 0.  0.
    9000005    1    3    3    0    0  0.19842110006E+02  0.22399984510E+02 -0.19652285193E+01  0.30005512138E+02  0.10000000000E+01 0.  0.
    9000005    1    3    3    0    0 -0.19842110006E+02 -0.22399984510E+02  0.21436958094E+03  0.21645042358E+03  0.10000000000E+01 0.  0.
<mgrwt>
<rscale>  0 0.12499968E+03</rscale>
<asrwt>0</asrwt>
<pdfrwt beam="1">  1        4 0.35296946E-01 0.12499968E+03</pdfrwt>
<pdfrwt beam="2">  1       -4 0.26193525E-02 0.12499968E+03</pdfrwt>
<totfact> 0.82845763E+03</totfact>
</mgrwt>
</event>
<event>
 5    1  0.3289127E-002  0.1250030E+03  0.7818608E-02  0.1235065E+00
          4   -1    0    0  501    0  0.00000000000E+00  0.00000000000E+00  0.20633988839E+02  0.20673035467E+02  0.12700000000E+01 0. -1.
         -4   -1    0    0    0  501 -0.00000000000E+00 -0.00000000000E+00 -0.18910046662E+03  0.18910473124E+03  0.12700000000E+01 0. -1.
         25    2    1    2    0    0  0.00000000000E+00  0.00000000000E+00 -0.16846647778E+03  0.20977776671E+03  0.12500302903E+03 0.  0.
    9000005    1    3    3    0    0  0.13687117747E+01  0.59647942027E+02 -0.53031293402E+02  0.79831500298E+02  0.10000000000E+01 0.  0.
    9000005    1    3    3    0    0 -0.13687117747E+01 -0.59647942027E+02 -0.11543518438E+03  0.12994626641E+03  0.10000000000E+01 0.  0.
<mgrwt>
<rscale>  0 0.12500303E+03</rscale>
<asrwt>0</asrwt>
<pdfrwt beam="1">  1        4 0.31777916E-02 0.12500303E+03</pdfrwt>
<pdfrwt beam="2">  1       -4 0.29095710E-01 0.12500303E+03</pdfrwt>
<totfact> 0.88506194E+03</totfact>
</mgrwt>
</event>
<event>
 5    1  0.3289127E-002  0.1250110E+03  0.7818608E-02  0.1235052E+00
          4   -1    0    0  501    0  0.00000000000E+00  0.00000000000E+00  0.64723642350E+01  0.65957864421E+01  0.12700000000E+01 0.  1.
         -4   -1    0    0    0  501 -0.00000000000E+00 -0.00000000000E+00 -0.59780898469E+03  0.59781033370E+03  0.12700000000E+01 0.  1.
         25    2    1    2    0    0  0.00000000000E+00  0.00000000000E+00 -0.59133662046E+03  0.60440612014E+03  0.12501103700E+03 0.  0.
    9000005    1    3    3    0    0  0.35913959722E+02 -0.51133366320E+02 -0.28973468379E+03  0.29639774062E+03  0.10000000000E+01 0.  0.
    9000005    1    3    3    0    0 -0.35913959722E+02  0.51133366320E+02 -0.30160193667E+03  0.30800837953E+03  0.10000000000E+01 0.  0.
<mgrwt>
<rscale>  0 0.12501104E+03</rscale>
<asrwt>0</asrwt>
<pdfrwt beam="1">  1        4 0.10053466E-02 0.12501104E+03</pdfrwt>
<pdfrwt beam="2">  1       -4 0.91980167E-01 0.12501104E+03</pdfrwt>
<totfact> 0.48578920E+03</totfact>
</mgrwt>
</event>
<event>
 5    1  0.3289127E-002  0.1250011E+03  0.7818608E-02  0.1235067E+00
          4   -1    0    0  501    0  0.00000000000E+00  0.00000000000E+00  0.51273159473E+03  0.51273316757E+03  0.12700000000E+01 0.  1.
         -4   -1    0    0    0  501 -0.00000000000E+00 -0.00000000000E+00 -0.75641263300E+01  0.76700004652E+01  0.12700000000E+01 0.  1.
         25    2    1    2    0    0  0.00000000000E+00  0.00000000000E+00  0.50516746840E+03  0.52040316804E+03  0.12500114471E+03 0.  0.
    9000005    1    3    3    0    0  0.59681063095E+02 -0.78560451670E+01  0.32246761626E+03  0.32803949500E+03  0.10000000000E+01 0.  0.
    9000005    1    3    3    0    0 -0.59681063095E+02  0.78560451670E+01  0.18269985213E+03  0.19236367304E+03  0.10000000000E+01 0.  0.
<mgrwt>
<rscale>  0 0.12500114E+03</rscale>
<asrwt>0</asrwt>
<pdfrwt beam="1">  1        4 0.78890075E-01 0.12500114E+03</pdfrwt>
<pdfrwt beam="2">  1       -4 0.11719765E-02 0.12500114E+03</pdfrwt>
<totfact> 0.54313988E+03</totfact>
</mgrwt>
</event>
<event>
 5    1  0.3289127E-002  0.1250028E+03  0.7818608E-02  0.1235065E+00
         -4   -1    0    0    0  501 -0.00000000000E+00  0.00000000000E+00  0.18206708596E+03  0.18207151532E+03  0.12700000000E+01 0.  1.
          4   -1    0    0  501    0  0.00000000000E+00 -0.00000000000E+00 -0.21432481807E+02  0.21470076301E+02  0.12700000000E+01 0.  1.
         25    2    1    2    0    0  0.00000000000E+00  0.00000000000E+00  0.16063460415E+03  0.20354159162E+03  0.12500281384E+03 0.  0.
    9000005    1    3    3    0    0  0.41199999204E+02 -0.40783398509E+02  0.42314799284E+02  0.71779299013E+02  0.10000000000E+01 0.  0.
    9000005    1    3    3    0    0 -0.41199999204E+02  0.40783398509E+02  0.11831980487E+03  0.13176229261E+03  0.10000000000E+01 0.  0.
<mgrwt>
<rscale>  0 0.12500281E+03</rscale>
<asrwt>0</asrwt>
<pdfrwt beam="2">  1        4 0.33005375E-02 0.12500281E+03</pdfrwt>
<pdfrwt beam="1">  1       -4 0.28013553E-01 0.12500281E+03</pdfrwt>
<totfact> 0.89535971E+03</totfact>
</mgrwt>
</event>
<event>
 5    1  0.3289127E-002  0.1250040E+03  0.7818608E-02  0.1235063E+00
         -4   -1    0    0    0  501 -0.00000000000E+00  0.00000000000E+00  0.13420476456E+03  0.13421077352E+03  0.12700000000E+01 0.  1.
          4   -1    0    0  501    0  0.00000000000E+00 -0.00000000000E+00 -0.29087991177E+02  0.29115702477E+02  0.12700000000E+01 0.  1.
         25    2    1    2    0    0  0.00000000000E+00  0.00000000000E+00  0.10511677338E+03  0.16332647600E+03  0.12500400680E+03 0.  0.
    9000005    1    3    3    0    0  0.68495450316E+01 -0.50454568926E+02  0.99900963790E+02  0.11213287814E+03  0.10000000000E+01 0.  0.
    9000005    1    3    3    0    0 -0.68495450316E+01  0.50454568926E+02  0.52158095876E+01  0.51193597864E+02  0.10000000000E+01 0.  0.
<mgrwt>
<rscale>  0 0.12500401E+03</rscale>
<asrwt>0</asrwt>
<pdfrwt beam="2">  1        4 0.44776694E-02 0.12500401E+03</pdfrwt>
<pdfrwt beam="1">  1       -4 0.20649481E-01 0.12500401E+03</pdfrwt>
<totfact> 0.96696567E+03</totfact>
</mgrwt>
</event>
<event>
 5    1  0.3289127E-002  0.1249974E+03  0.7818608E-02  0.1235073E+00
         -4   -1    0    0    0  501 -0.00000000000E+00  0.00000000000E+00  0.12018799193E+02  0.12085711979E+02  0.12700000000E+01 0. -1.
          4   -1    0    0  501    0  0.00000000000E+00 -0.00000000000E+00 -0.32402804945E+03  0.32403053827E+03  0.12700000000E+01 0. -1.
         25    2    1    2    0    0  0.00000000000E+00  0.00000000000E+00 -0.31200925026E+03  0.33611625025E+03  0.12499744571E+03 0.  0.
    9000005    1    3    3    0    0  0.58123965041E+02  0.17605686332E+02 -0.19559163975E+03  0.20480587160E+03  0.10000000000E+01 0.  0.
    9000005    1    3    3    0    0 -0.58123965041E+02 -0.17605686332E+02 -0.11641761051E+03  0.13131037864E+03  0.10000000000E+01 0.  0.
<mgrwt>
<rscale>  0 0.12499745E+03</rscale>
<asrwt>0</asrwt>
<pdfrwt beam="2">  1        4 0.49855801E-01 0.12499745E+03</pdfrwt>
<pdfrwt beam="1">  1       -4 0.18543849E-02 0.12499745E+03</pdfrwt>
<totfact> 0.71283474E+03</totfact>
</mgrwt>
</event>
<event>
 5    1  0.3289127E-002  0.1250003E+03  0.7818608E-02  0.1235069E+00
          4   -1    0    0  501    0  0.00000000000E+00  0.00000000000E+00  0.80799748877E+02  0.80809729108E+02  0.12700000000E+01 0.  1.
         -4   -1    0    0    0  501 -0.00000000000E+00 -0.00000000000E+00 -0.48323778184E+02  0.48340463775E+02  0.12700000000E+01 0.  1.
         25    2    1    2    0    0  0.00000000000E+00  0.00000000000E+00  0.32475970693E+02  0.12915019288E+03  0.12500033460E+03 0.  0.
    9000005    1    3    3    0    0 -0.29567366761E+02  0.34435346555E+02  0.60620441315E+02  0.75735461805E+02  0.10000000000E+01 0.  0.
    9000005    1    3    3    0    0  0.29567366761E+02 -0.34435346555E+02 -0.28144470622E+02  0.53414731078E+02  0.10000000000E+01 0.  0.
<mgrwt>
<rscale>  0 0.12500033E+03</rscale>
<asrwt>0</asrwt>
<pdfrwt beam="1">  1        4 0.12432782E-01 0.12500033E+03</pdfrwt>
<pdfrwt beam="2">  1       -4 0.74364787E-02 0.12500033E+03</pdfrwt>
<totfact> 0.10362642E+04</totfact>
</mgrwt>
</event>
<event>
 5    1  0.3289127E-002  0.1249897E+03  0.7818608E-02  0.1235085E+00
         -4   -1    0    0    0  501 -0.00000000000E+00  0.00000000000E+00  0.17805691413E+02  0.17850925653E+02  0.12700000000E+01 0.  1.
          4   -1    0    0  501    0  0.00000000000E+00 -0.00000000000E+00 -0.21902059734E+03  0.21902427939E+03  0.12700000000E+01 0.  1.
         25    2    1    2    0    0  0.00000000000E+00  0.00000000000E+00 -0.20121490593E+03  0.23687520504E+03  0.12498969715E+03 0.  0.
    9000005    1    3    3    0    0 -0.46809823401E+02 -0.15842514262E+02 -0.28132561311E+02  0.56873419371E+02  0.10000000000E+01 0.  0.
    9000005    1    3    3    0    0  0.46809823401E+02  0.15842514262E+02 -0.17308234462E+03  0.18000178567E+03  0.10000000000E+01 0.  0.
<mgrwt>
<rscale>  0 0.12498970E+03</rscale>
<asrwt>0</asrwt>
<pdfrwt beam="2">  1        4 0.33699238E-01 0.12498970E+03</pdfrwt>
<pdfrwt beam="1">  1       -4 0.27431001E-02 0.12498970E+03</pdfrwt>
<totfact> 0.84284325E+03</totfact>
</mgrwt>
</event>
<event>
 4    1  0.3289127E-002  0.1258157E+03  0.7818608E-02  0.1233800E+00
          4   -1    0    0  501    0  0.00000000000E+00  0.00000000000E+00  0.88476480356E+01  0.89383318221E+01  0.12700000000E+01 0.  1.
         -4   -1    0    0    0  501 -0.00000000000E+00 -0.00000000000E+00 -0.44491056899E+03  0.44491238159E+03  0.12700000000E+01 0.  1.
    9000005    1    1    2    0    0  0.26859633959E+02 -0.24697699396E+02 -0.40284822011E+03  0.40449858435E+03  0.10000000000E+01 0.  0.
    9000005    1    1    2    0    0 -0.26859633959E+02  0.24697699396E+02 -0.33214700841E+02  0.49352129071E+02  0.10000000000E+01 0.  0.
<mgrwt>
<rscale>  0 0.12581573E+03</rscale>
<asrwt>0</asrwt>
<pdfrwt beam="1">  1        4 0.13682921E-02 0.12581573E+03</pdfrwt>
<pdfrwt beam="2">  1       -4 0.68454878E-01 0.12581573E+03</pdfrwt>
<totfact> 0.58572937E+03</totfact>
</mgrwt>
</event>
<event>
 5    1  0.3289127E-002  0.1250035E+03  0.7818608E-02  0.1235064E+00
          4   -1    0    0  501    0  0.00000000000E+00  0.00000000000E+00  0.67882788379E+02  0.67894667376E+02  0.12700000000E+01 0. -1.
         -4   -1    0    0    0  501 -0.00000000000E+00 -0.00000000000E+00 -0.57523329380E+02  0.57537347202E+02  0.12700000000E+01 0. -1.
         25    2    1    2    0    0  0.00000000000E+00  0.00000000000E+00  0.10359458999E+02  0.12543201458E+03  0.12500348751E+03 0.  0.
    9000005    1    3    3    0    0  0.94127287941E+01 -0.37819660164E+02  0.54199445621E+02  0.66764556943E+02  0.10000000000E+01 0.  0.
    9000005    1    3    3    0    0 -0.94127287941E+01  0.37819660164E+02 -0.43839986622E+02  0.58667457634E+02  0.10000000000E+01 0.  0.
<mgrwt>
<rscale>  0 0.12500349E+03</rscale>
<asrwt>0</asrwt>
<pdfrwt beam="1">  1        4 0.10445498E-01 0.12500349E+03</pdfrwt>
<pdfrwt beam="2">  1       -4 0.88517351E-02 0.12500349E+03</pdfrwt>
<totfact> 0.10442636E+04</totfact>
</mgrwt>
</event>
<event>
 5    1  0.3289127E-002  0.1250005E+03  0.7818608E-02  0.1235068E+00
          4   -1    0    0  501    0  0.00000000000E+00  0.00000000000E+00  0.98678669601E+03  0.98678751326E+03  0.12700000000E+01 0.  1.
         -4   -1    0    0    0  501 -0.00000000000E+00 -0.00000000000E+00 -0.38558877673E+01  0.40596515213E+01  0.12700000000E+01 0.  1.
         25    2    1    2    0    0  0.00000000000E+00  0.00000000000E+00  0.98293080825E+03  0.99084716478E+03  0.12500052063E+03 0.  0.
    9000005    1    3    3    0    0  0.52441352362E+02 -0.19106355289E+02  0.71428085536E+03  0.71645885337E+03  0.10000000000E+01 0.  0.
    9000005    1    3    3    0    0 -0.52441352362E+02  0.19106355289E+02  0.26864995289E+03  0.27438831141E+03  0.10000000000E+01 0.  0.
<mgrwt>
<rscale>  0 0.12500052E+03</rscale>
<asrwt>0</asrwt>
<pdfrwt beam="1">  1        4 0.15182909E+00 0.12500052E+03</pdfrwt>
<pdfrwt beam="2">  1       -4 0.60895043E-03 0.12500052E+03</pdfrwt>
<totfact> 0.30908274E+03</totfact>
</mgrwt>
</event>
<event>
 5    1  0.3289127E-002  0.1250108E+03  0.7818608E-02  0.1235052E+00
          4   -1    0    0  501    0  0.00000000000E+00  0.00000000000E+00  0.25366461211E+03  0.25366779129E+03  0.12700000000E+01 0.  1.
         -4   -1    0    0    0  501 -0.00000000000E+00 -0.00000000000E+00 -0.15372466703E+02  0.15424838169E+02  0.12700000000E+01 0.  1.
         25    2    1    2    0    0  0.00000000000E+00  0.00000000000E+00  0.23829214541E+03  0.26909262946E+03  0.12501078620E+03 0.  0.
    9000005    1    3    3    0    0  0.24387483903E+02 -0.43771305657E+02  0.38741646412E+02  0.63345021404E+02  0.10000000000E+01 0.  0.
    9000005    1    3    3    0    0 -0.24387483903E+02  0.43771305657E+02  0.19955049900E+03  0.20574760806E+03  0.10000000000E+01 0.  0.
<mgrwt>
<rscale>  0 0.12501079E+03</rscale>
<asrwt>0</asrwt>
<pdfrwt beam="1">  1        4 0.39029595E-01 0.12501079E+03</pdfrwt>
<pdfrwt beam="2">  1       -4 0.23692682E-02 0.12501079E+03</pdfrwt>
<totfact> 0.79627627E+03</totfact>
</mgrwt>
</event>
<event>
 5    1  0.3289127E-002  0.1249858E+03  0.7818608E-02  0.1235091E+00
          4   -1    0    0  501    0  0.00000000000E+00  0.00000000000E+00  0.25018217093E+03  0.25018539436E+03  0.12700000000E+01 0.  1.
         -4   -1    0    0    0  501 -0.00000000000E+00 -0.00000000000E+00 -0.15580912855E+02  0.15632586011E+02  0.12700000000E+01 0.  1.
         25    2    1    2    0    0  0.00000000000E+00  0.00000000000E+00  0.23460125808E+03  0.26581798037E+03  0.12498579279E+03 0.  0.
    9000005    1    3    3    0    0  0.20919464877E+01 -0.77161429061E+01 -0.14499122825E+02  0.16587334450E+02  0.10000000000E+01 0.  0.
    9000005    1    3    3    0    0 -0.20919464877E+01  0.77161429061E+01  0.24910038090E+03  0.24923064592E+03  0.10000000000E+01 0.  0.
<mgrwt>
<rscale>  0 0.12498579E+03</rscale>
<asrwt>0</asrwt>
<pdfrwt beam="1">  1        4 0.38493788E-01 0.12498579E+03</pdfrwt>
<pdfrwt beam="2">  1       -4 0.24012863E-02 0.12498579E+03</pdfrwt>
<totfact> 0.80121784E+03</totfact>
</mgrwt>
</event>
<event>
 5    1  0.3289127E-002  0.1250007E+03  0.7818608E-02  0.1235068E+00
          4   -1    0    0  501    0  0.00000000000E+00  0.00000000000E+00  0.86312551684E+02  0.86321894547E+02  0.12700000000E+01 0. -1.
         -4   -1    0    0    0  501 -0.00000000000E+00 -0.00000000000E+00 -0.45236840031E+02  0.45254663804E+02  0.12700000000E+01 0. -1.
         25    2    1    2    0    0  0.00000000000E+00  0.00000000000E+00  0.41075711653E+02  0.13157655835E+03  0.12500070648E+03 0.  0.
    9000005    1    3    3    0    0  0.57534276655E+02  0.93489590252E+01  0.44255351862E+02  0.73192432624E+02  0.10000000000E+01 0.  0.
    9000005    1    3    3    0    0 -0.57534276655E+02 -0.93489590252E+01 -0.31796402086E+01  0.58384125727E+02  0.10000000000E+01 0.  0.
<mgrwt>
<rscale>  0 0.12500071E+03</rscale>
<asrwt>0</asrwt>
<pdfrwt beam="1">  1        4 0.13280944E-01 0.12500071E+03</pdfrwt>
<pdfrwt beam="2">  1       -4 0.69616036E-02 0.12500071E+03</pdfrwt>
<totfact> 0.10310580E+04</totfact>
</mgrwt>
</event>
<event>
 5    1  0.3289127E-002  0.1249981E+03  0.7818608E-02  0.1235072E+00
          4   -1    0    0  501    0  0.00000000000E+00  0.00000000000E+00  0.24031970701E+02  0.24065504686E+02  0.12700000000E+01 0. -1.
         -4   -1    0    0    0  501 -0.00000000000E+00 -0.00000000000E+00 -0.16238965666E+03  0.16239462272E+03  0.12700000000E+01 0. -1.
         25    2    1    2    0    0  0.00000000000E+00  0.00000000000E+00 -0.13835768596E+03  0.18646012741E+03  0.12499811939E+03 0.  0.
    9000005    1    3    3    0    0 -0.60279004630E+02  0.12399987167E+02 -0.85370140438E+02  0.10524437733E+03  0.10000000000E+01 0.  0.
    9000005    1    3    3    0    0  0.60279004630E+02 -0.12399987167E+02 -0.52987545520E+02  0.81215750081E+02  0.10000000000E+01 0.  0.
<mgrwt>
<rscale>  0 0.12499812E+03</rscale>
<asrwt>0</asrwt>
<pdfrwt beam="1">  1        4 0.37001879E-02 0.12499812E+03</pdfrwt>
<pdfrwt beam="2">  1       -4 0.24985985E-01 0.12499812E+03</pdfrwt>
<totfact> 0.92470812E+03</totfact>
</mgrwt>
</event>
<event>
 4    1  0.3289127E-002  0.1250744E+03  0.7818608E-02  0.1234953E+00
         -4   -1    0    0    0  501 -0.00000000000E+00  0.00000000000E+00  0.13738156886E+03  0.13738743888E+03  0.12700000000E+01 0.  1.
          4   -1    0    0  501    0  0.00000000000E+00 -0.00000000000E+00 -0.28446773715E+02  0.28475109039E+02  0.12700000000E+01 0.  1.
    9000005    1    1    2    0    0 -0.39841486758E+02 -0.12963644909E+02 -0.70861602576E+01  0.42504280062E+02  0.10000000000E+01 0.  0.
    9000005    1    1    2    0    0  0.39841486758E+02  0.12963644909E+02  0.11602095540E+03  0.12335826785E+03  0.10000000000E+01 0.  0.
<mgrwt>
<rscale>  0 0.12507436E+03</rscale>
<asrwt>0</asrwt>
<pdfrwt beam="2">  1        4 0.43790578E-02 0.12507436E+03</pdfrwt>
<pdfrwt beam="1">  1       -4 0.21138258E-01 0.12507436E+03</pdfrwt>
<totfact> 0.96063741E+03</totfact>
</mgrwt>
</event>
<event>
 5    1  0.3289127E-002  0.1250196E+03  0.7818608E-02  0.1235039E+00
          4   -1    0    0  501    0  0.00000000000E+00  0.00000000000E+00  0.92385114056E+01  0.93253950582E+01  0.12700000000E+01 0.  1.
         -4   -1    0    0    0  501 -0.00000000000E+00 -0.00000000000E+00 -0.42088794857E+03  0.42088986464E+03  0.12700000000E+01 0.  1.
         25    2    1    2    0    0  0.00000000000E+00  0.00000000000E+00 -0.41164943717E+03  0.43021525969E+03  0.12501964067E+03 0.  0.
    9000005    1    3    3    0    0 -0.52322373026E+01  0.52815100948E+02 -0.92230990581E+02  0.10641600828E+03  0.10000000000E+01 0.  0.
    9000005    1    3    3    0    0  0.52322373026E+01 -0.52815100948E+02 -0.31941844659E+03  0.32379925141E+03  0.10000000000E+01 0.  0.
<mgrwt>
<rscale>  0 0.12501964E+03</rscale>
<asrwt>0</asrwt>
<pdfrwt beam="1">  1        4 0.14281405E-02 0.12501964E+03</pdfrwt>
<pdfrwt beam="2">  1       -4 0.64758808E-01 0.12501964E+03</pdfrwt>
<totfact> 0.61689773E+03</totfact>
</mgrwt>
</event>
<event>
 5    1  0.3289127E-002  0.1250007E+03  0.7818608E-02  0.1235068E+00
         -4   -1    0    0    0  501 -0.00000000000E+00  0.00000000000E+00  0.24180227067E+03  0.24180560581E+03  0.12700000000E+01 0. -1.
          4   -1    0    0  501    0  0.00000000000E+00 -0.00000000000E+00 -0.16126489214E+02  0.16176419701E+02  0.12700000000E+01 0. -1.
         25    2    1    2    0    0  0.00000000000E+00  0.00000000000E+00  0.22567578146E+03  0.25798202552E+03  0.12500066860E+03 0.  0.
    9000005    1    3    3    0    0  0.89574812446E+01 -0.50511284882E+02  0.18649332437E+03  0.19342281770E+03  0.10000000000E+01 0.  0.
    9000005    1    3    3    0    0 -0.89574812446E+01  0.50511284882E+02  0.39182457090E+02  0.64559207820E+02  0.10000000000E+01 0.  0.
<mgrwt>
<rscale>  0 0.12500067E+03</rscale>
<asrwt>0</asrwt>
<pdfrwt beam="2">  1        4 0.24850960E-02 0.12500067E+03</pdfrwt>
<pdfrwt beam="1">  1       -4 0.37204443E-01 0.12500067E+03</pdfrwt>
<totfact> 0.81188885E+03</totfact>
</mgrwt>
</event>
<event>
 5    1  0.3289127E-002  0.1249894E+03  0.7818608E-02  0.1235086E+00
          4   -1    0    0  501    0  0.00000000000E+00  0.00000000000E+00  0.26502331858E+03  0.26502636150E+03  0.12700000000E+01 0.  1.
         -4   -1    0    0    0  501 -0.00000000000E+00 -0.00000000000E+00 -0.14706272060E+02  0.14761007348E+02  0.12700000000E+01 0.  1.
         25    2    1    2    0    0  0.00000000000E+00  0.00000000000E+00  0.25031704652E+03  0.27978736885E+03  0.12498939151E+03 0.  0.
    9000005    1    3    3    0    0 -0.53469153778E+02  0.30121336276E+02  0.15148734916E+03  0.16344926510E+03  0.10000000000E+01 0.  0.
    9000005    1    3    3    0    0  0.53469153778E+02 -0.30121336276E+02  0.98829697355E+02  0.11633810375E+03  0.10000000000E+01 0.  0.
<mgrwt>
<rscale>  0 0.12498939E+03</rscale>
<asrwt>0</asrwt>
<pdfrwt beam="1">  1        4 0.40777259E-01 0.12498939E+03</pdfrwt>
<pdfrwt beam="2">  1       -4 0.22669481E-02 0.12498939E+03</pdfrwt>
<totfact> 0.78224753E+03</totfact>
</mgrwt>
</event>
<event>
 5    1  0.3289127E-002  0.1250234E+03  0.7818608E-02  0.1235033E+00
          4   -1    0    0  501    0  0.00000000000E+00  0.00000000000E+00  0.11197028071E+02  0.11268821484E+02  0.12700000000E+01 0. -1.
         -4   -1    0    0    0  501 -0.00000000000E+00 -0.00000000000E+00 -0.34780730592E+03  0.34780962458E+03  0.12700000000E+01 0. -1.
         25    2    1    2    0    0  0.00000000000E+00  0.00000000000E+00 -0.33661027785E+03  0.35907844606E+03  0.12502340291E+03 0.  0.
    9000005    1    3    3    0    0 -0.54183532981E+02  0.98963488786E+00 -0.25775025242E+03  0.26338759888E+03  0.10000000000E+01 0.  0.
    9000005    1    3    3    0    0  0.54183532981E+02 -0.98963488786E+00 -0.78860025429E+02  0.95690847181E+02  0.10000000000E+01 0.  0.
<mgrwt>
<rscale>  0 0.12502340E+03</rscale>
<asrwt>0</asrwt>
<pdfrwt beam="1">  1        4 0.17283209E-02 0.12502340E+03</pdfrwt>
<pdfrwt beam="2">  1       -4 0.53514509E-01 0.12502340E+03</pdfrwt>
<totfact> 0.68701661E+03</totfact>
</mgrwt>
</event>
<event>
 5    1  0.3289127E-002  0.1250012E+03  0.7818608E-02  0.1235067E+00
          4   -1    0    0  501    0  0.00000000000E+00  0.00000000000E+00  0.18054121133E+03  0.18054567813E+03  0.12700000000E+01 0. -1.
         -4   -1    0    0    0  501 -0.00000000000E+00 -0.00000000000E+00 -0.21613388474E+02  0.21650668843E+02  0.12700000000E+01 0. -1.
         25    2    1    2    0    0  0.00000000000E+00  0.00000000000E+00  0.15892782286E+03  0.20219634697E+03  0.12500123939E+03 0.  0.
    9000005    1    3    3    0    0 -0.33524980057E+02  0.48920385224E+02  0.47593605012E+02  0.76047877132E+02  0.10000000000E+01 0.  0.
    9000005    1    3    3    0    0  0.33524980057E+02 -0.48920385224E+02  0.11133421785E+03  0.12614846984E+03  0.10000000000E+01 0.  0.
<mgrwt>
<rscale>  0 0.12500124E+03</rscale>
<asrwt>0</asrwt>
<pdfrwt beam="1">  1        4 0.27778782E-01 0.12500124E+03</pdfrwt>
<pdfrwt beam="2">  1       -4 0.33283480E-02 0.12500124E+03</pdfrwt>
<totfact> 0.89763903E+03</totfact>
</mgrwt>
</event>
<event>
 5    1  0.3289127E-002  0.1250000E+03  0.7818608E-02  0.1235069E+00
          4   -1    0    0  501    0  0.00000000000E+00  0.00000000000E+00  0.45782690274E+02  0.45800301623E+02  0.12700000000E+01 0. -1.
         -4   -1    0    0    0  501 -0.00000000000E+00 -0.00000000000E+00 -0.85282771443E+02  0.85292227107E+02  0.12700000000E+01 0. -1.
         25    2    1    2    0    0  0.00000000000E+00  0.00000000000E+00 -0.39500081168E+02  0.13109252873E+03  0.12499997871E+03 0.  0.
    9000005    1    3    3    0    0  0.38391247786E+02 -0.19642529745E+02 -0.67182005745E+02  0.79838203745E+02  0.10000000000E+01 0.  0.
    9000005    1    3    3    0    0 -0.38391247786E+02  0.19642529745E+02  0.27681924577E+02  0.51254324985E+02  0.10000000000E+01 0.  0.
<mgrwt>
<rscale>  0 0.12499998E+03</rscale>
<asrwt>0</asrwt>
<pdfrwt beam="1">  1        4 0.70455729E-02 0.12499998E+03</pdfrwt>
<pdfrwt beam="2">  1       -4 0.13122508E-01 0.12499998E+03</pdfrwt>
<totfact> 0.10321111E+04</totfact>
</mgrwt>
</event>
<event>
 5    1  0.3289127E-002  0.1249689E+03  0.7818608E-02  0.1235118E+00
          4   -1    0    0  501    0  0.00000000000E+00  0.00000000000E+00  0.28275203735E+02  0.28303710821E+02  0.12700000000E+01 0. -1.
         -4   -1    0    0    0  501 -0.00000000000E+00 -0.00000000000E+00 -0.13798143802E+03  0.13798728253E+03  0.12700000000E+01 0. -1.
         25    2    1    2    0    0  0.00000000000E+00  0.00000000000E+00 -0.10970623429E+03  0.16629099335E+03  0.12496894265E+03 0.  0.
    9000005    1    3    3    0    0  0.23955598580E+02 -0.41890415370E+02 -0.20504199391E+01  0.48310266250E+02  0.10000000000E+01 0.  0.
    9000005    1    3    3    0    0 -0.23955598580E+02  0.41890415370E+02 -0.10765581435E+03  0.11798072710E+03  0.10000000000E+01 0.  0.
<mgrwt>
<rscale>  0 0.12496894E+03</rscale>
<asrwt>0</asrwt>
<pdfrwt beam="1">  1        4 0.43526738E-02 0.12496894E+03</pdfrwt>
<pdfrwt beam="2">  1       -4 0.21230556E-01 0.12496894E+03</pdfrwt>
<totfact> 0.96210556E+03</totfact>
</mgrwt>
</event>
<event>
 5    1  0.3289127E-002  0.1249974E+03  0.7818608E-02  0.1235073E+00
          4   -1    0    0  501    0  0.00000000000E+00  0.00000000000E+00  0.21235969079E+03  0.21236348832E+03  0.12700000000E+01 0.  1.
         -4   -1    0    0    0  501 -0.00000000000E+00 -0.00000000000E+00 -0.18367840853E+02  0.18411694045E+02  0.12700000000E+01 0.  1.
         25    2    1    2    0    0  0.00000000000E+00  0.00000000000E+00  0.19399184994E+03  0.23077518236E+03  0.12499738779E+03 0.  0.
    9000005    1    3    3    0    0 -0.56051485956E+02 -0.21959142220E+02  0.66041039798E+02  0.89366615369E+02  0.10000000000E+01 0.  0.
    9000005    1    3    3    0    0  0.56051485956E+02  0.21959142220E+02  0.12795081014E+03  0.14140856700E+03  0.10000000000E+01 0.  0.
<mgrwt>
<rscale>  0 0.12499739E+03</rscale>
<asrwt>0</asrwt>
<pdfrwt beam="1">  1        4 0.32674387E-01 0.12499739E+03</pdfrwt>
<pdfrwt beam="2">  1       -4 0.28294871E-02 0.12499739E+03</pdfrwt>
<totfact> 0.85195673E+03</totfact>
</mgrwt>
</event>
<event>
 5    1  0.3289127E-002  0.1250017E+03  0.7818608E-02  0.1235067E+00
         -4   -1    0    0    0  501 -0.00000000000E+00  0.00000000000E+00  0.96343350954E+02  0.96351721173E+02  0.12700000000E+01 0. -1.
          4   -1    0    0  501    0  0.00000000000E+00 -0.00000000000E+00 -0.40526122836E+02  0.40546017463E+02  0.12700000000E+01 0. -1.
         25    2    1    2    0    0  0.00000000000E+00  0.00000000000E+00  0.55817228118E+02  0.13689773864E+03  0.12500171154E+03 0.  0.
    9000005    1    3    3    0    0  0.41535785711E+02 -0.31143115260E+02 -0.10190633444E+02  0.52914687306E+02  0.10000000000E+01 0.  0.
    9000005    1    3    3    0    0 -0.41535785711E+02  0.31143115260E+02  0.66007861562E+02  0.83983051330E+02  0.10000000000E+01 0.  0.
<mgrwt>
<rscale>  0 0.12500171E+03</rscale>
<asrwt>0</asrwt>
<pdfrwt beam="2">  1        4 0.62369625E-02 0.12500171E+03</pdfrwt>
<pdfrwt beam="1">  1       -4 0.14824228E-01 0.12500171E+03</pdfrwt>
<totfact> 0.10197831E+04</totfact>
</mgrwt>
</event>
<event>
 5    1  0.3289127E-002  0.1250030E+03  0.7818608E-02  0.1235065E+00
         -4   -1    0    0    0  501 -0.00000000000E+00  0.00000000000E+00  0.65098476818E+01  0.66325724150E+01  0.12700000000E+01 0.  1.
          4   -1    0    0  501    0  0.00000000000E+00 -0.00000000000E+00 -0.59435418762E+03  0.59435554447E+03  0.12700000000E+01 0.  1.
         25    2    1    2    0    0  0.00000000000E+00  0.00000000000E+00 -0.58784433994E+03  0.60098811688E+03  0.12500299452E+03 0.  0.
    9000005    1    3    3    0    0  0.10671506340E+02  0.99481105476E-01  0.21200450912E+01  0.10926368804E+02  0.10000000000E+01 0.  0.
    9000005    1    3    3    0    0 -0.10671506340E+02 -0.99481105476E-01 -0.58996438503E+03  0.59006174808E+03  0.10000000000E+01 0.  0.
<mgrwt>
<rscale>  0 0.12500299E+03</rscale>
<asrwt>0</asrwt>
<pdfrwt beam="2">  1        4 0.91448608E-01 0.12500299E+03</pdfrwt>
<pdfrwt beam="1">  1       -4 0.10110602E-02 0.12500299E+03</pdfrwt>
<totfact> 0.48802110E+03</totfact>
</mgrwt>
</event>
<event>
 5    1  0.3289127E-002  0.1250009E+03  0.7818608E-02  0.1235068E+00
          4   -1    0    0  501    0  0.00000000000E+00  0.00000000000E+00  0.49460330478E+02  0.49476632777E+02  0.12700000000E+01 0.  1.
         -4   -1    0    0    0  501 -0.00000000000E+00 -0.00000000000E+00 -0.78944169060E+02  0.78954383847E+02  0.12700000000E+01 0.  1.
         25    2    1    2    0    0  0.00000000000E+00  0.00000000000E+00 -0.29483838583E+02  0.12843101662E+03  0.12500091717E+03 0.  0.
    9000005    1    3    3    0    0 -0.44698055440E+02 -0.43661601538E+02 -0.13686245008E+02  0.63973157742E+02  0.10000000000E+01 0.  0.
    9000005    1    3    3    0    0  0.44698055440E+02  0.43661601538E+02 -0.15797593574E+02  0.64457858883E+02  0.10000000000E+01 0.  0.
<mgrwt>
<rscale>  0 0.12500092E+03</rscale>
<asrwt>0</asrwt>
<pdfrwt beam="1">  1        4 0.76113214E-02 0.12500092E+03</pdfrwt>
<pdfrwt beam="2">  1       -4 0.12147297E-01 0.12500092E+03</pdfrwt>
<totfact> 0.10377975E+04</totfact>
</mgrwt>
</event>
<event>
 5    1  0.3289127E-002  0.1249960E+03  0.7818608E-02  0.1235075E+00
          4   -1    0    0  501    0  0.00000000000E+00  0.00000000000E+00  0.37244439361E+02  0.37266085967E+02  0.12700000000E+01 0. -1.
         -4   -1    0    0    0  501 -0.00000000000E+00 -0.00000000000E+00 -0.10481879382E+03  0.10482648729E+03  0.12700000000E+01 0. -1.
         25    2    1    2    0    0  0.00000000000E+00  0.00000000000E+00 -0.67574354455E+02  0.14209257326E+03  0.12499602391E+03 0.  0.
    9000005    1    3    3    0    0 -0.34537637259E+02 -0.50555385904E+02 -0.47999435755E+02  0.77805149342E+02  0.10000000000E+01 0.  0.
    9000005    1    3    3    0    0  0.34537637259E+02  0.50555385904E+02 -0.19574918701E+02  0.64287423914E+02  0.10000000000E+01 0.  0.
<mgrwt>
<rscale>  0 0.12499602E+03</rscale>
<asrwt>0</asrwt>
<pdfrwt beam="1">  1        4 0.57321707E-02 0.12499602E+03</pdfrwt>
<pdfrwt beam="2">  1       -4 0.16128225E-01 0.12499602E+03</pdfrwt>
<totfact> 0.10091303E+04</totfact>
</mgrwt>
</event>
<event>
 5    1  0.3289127E-002  0.1250029E+03  0.7818608E-02  0.1235065E+00
          4   -1    0    0  501    0  0.00000000000E+00  0.00000000000E+00  0.54706439582E+02  0.54721179005E+02  0.12700000000E+01 0. -1.
         -4   -1    0    0    0  501 -0.00000000000E+00 -0.00000000000E+00 -0.71377187875E+02  0.71388485409E+02  0.12700000000E+01 0. -1.
         25    2    1    2    0    0  0.00000000000E+00  0.00000000000E+00 -0.16670748293E+02  0.12610966441E+03  0.12500293441E+03 0.  0.
    9000005    1    3    3    0    0 -0.10183106646E+02  0.13280129611E+02 -0.69079555518E+02  0.71084755708E+02  0.10000000000E+01 0.  0.
    9000005    1    3    3    0    0  0.10183106646E+02 -0.13280129611E+02  0.52408807225E+02  0.55024908707E+02  0.10000000000E+01 0.  0.
<mgrwt>
<rscale>  0 0.12500293E+03</rscale>
<asrwt>0</asrwt>
<pdfrwt beam="1">  1        4 0.84183782E-02 0.12500293E+03</pdfrwt>
<pdfrwt beam="2">  1       -4 0.10983109E-01 0.12500293E+03</pdfrwt>
<totfact> 0.10427865E+04</totfact>
</mgrwt>
</event>
<event>
 5    1  0.3289127E-002  0.1250031E+03  0.7818608E-02  0.1235064E+00
          4   -1    0    0  501    0  0.00000000000E+00  0.00000000000E+00  0.76473037870E+01  0.77520420026E+01  0.12700000000E+01 0. -1.
         -4   -1    0    0    0  501 -0.00000000000E+00 -0.00000000000E+00 -0.50724615049E+03  0.50724774035E+03  0.12700000000E+01 0. -1.
         25    2    1    2    0    0  0.00000000000E+00  0.00000000000E+00 -0.49959884671E+03  0.51499978235E+03  0.12500307273E+03 0.  0.
    9000005    1    3    3    0    0 -0.53356445419E+02 -0.13502453941E+02 -0.37175223769E+03  0.37580573805E+03  0.10000000000E+01 0.  0.
    9000005    1    3    3    0    0  0.53356445419E+02  0.13502453941E+02 -0.12784660902E+03  0.13919404430E+03  0.10000000000E+01 0.  0.
<mgrwt>
<rscale>  0 0.12500307E+03</rscale>
<asrwt>0</asrwt>
<pdfrwt beam="1">  1        4 0.11846878E-02 0.12500307E+03</pdfrwt>
<pdfrwt beam="2">  1       -4 0.78046022E-01 0.12500307E+03</pdfrwt>
<totfact> 0.54715380E+03</totfact>
</mgrwt>
</event>
<event>
 5    1  0.3289127E-002  0.1249897E+03  0.7818608E-02  0.1235085E+00
         -4   -1    0    0    0  501 -0.00000000000E+00  0.00000000000E+00  0.92895781597E+01  0.93759886084E+01  0.12700000000E+01 0. -1.
          4   -1    0    0  501    0  0.00000000000E+00 -0.00000000000E+00 -0.41839481005E+03  0.41839673753E+03  0.12700000000E+01 0. -1.
         25    2    1    2    0    0  0.00000000000E+00  0.00000000000E+00 -0.40910523189E+03  0.42777272614E+03  0.12498965745E+03 0.  0.
    9000005    1    3    3    0    0 -0.60195376423E+02  0.35165753669E+01 -0.14844569195E+03  0.16022787867E+03  0.10000000000E+01 0.  0.
    9000005    1    3    3    0    0  0.60195376423E+02 -0.35165753669E+01 -0.26065953994E+03  0.26754484747E+03  0.10000000000E+01 0.  0.
<mgrwt>
<rscale>  0 0.12498966E+03</rscale>
<asrwt>0</asrwt>
<pdfrwt beam="2">  1        4 0.64375213E-01 0.12498966E+03</pdfrwt>
<pdfrwt beam="1">  1       -4 0.14359614E-02 0.12498966E+03</pdfrwt>
<totfact> 0.61952534E+03</totfact>
</mgrwt>
</event>
<event>
 5    1  0.3289127E-002  0.1250036E+03  0.7818608E-02  0.1235064E+00
         -4   -1    0    0    0  501 -0.00000000000E+00  0.00000000000E+00  0.15670828006E+03  0.15671342616E+03  0.12700000000E+01 0. -1.
          4   -1    0    0  501    0  0.00000000000E+00 -0.00000000000E+00 -0.24906583974E+02  0.24938941944E+02  0.12700000000E+01 0. -1.
         25    2    1    2    0    0  0.00000000000E+00  0.00000000000E+00  0.13180169608E+03  0.18165236810E+03  0.12500358294E+03 0.  0.
    9000005    1    3    3    0    0 -0.33721794416E+02 -0.45289804189E+02  0.10481638662E+03  0.11906217151E+03  0.10000000000E+01 0.  0.
    9000005    1    3    3    0    0  0.33721794416E+02  0.45289804189E+02  0.26985309467E+02  0.62590196590E+02  0.10000000000E+01 0.  0.
<mgrwt>
<rscale>  0 0.12500358E+03</rscale>
<asrwt>0</asrwt>
<pdfrwt beam="2">  1        4 0.38346670E-02 0.12500358E+03</pdfrwt>
<pdfrwt beam="1">  1       -4 0.24111851E-01 0.12500358E+03</pdfrwt>
<totfact> 0.93312918E+03</totfact>
</mgrwt>
</event>
<event>
 5    1  0.3289127E-002  0.1250006E+03  0.7818608E-02  0.1235068E+00
         -4   -1    0    0    0  501 -0.00000000000E+00  0.00000000000E+00  0.68095122093E+03  0.68095240523E+03  0.12700000000E+01 0. -1.
          4   -1    0    0  501    0  0.00000000000E+00 -0.00000000000E+00 -0.56650185010E+01  0.58056295625E+01  0.12700000000E+01 0. -1.
         25    2    1    2    0    0  0.00000000000E+00  0.00000000000E+00  0.67528620243E+03  0.68675803479E+03  0.12500057263E+03 0.  0.
    9000005    1    3    3    0    0  0.48560117815E+02 -0.10227704943E+01  0.55367516645E+03  0.55580241187E+03  0.10000000000E+01 0.  0.
    9000005    1    3    3    0    0 -0.48560117815E+02  0.10227704943E+01  0.12161103598E+03  0.13095562292E+03  0.10000000000E+01 0.  0.
<mgrwt>
<rscale>  0 0.12500057E+03</rscale>
<asrwt>0</asrwt>
<pdfrwt beam="2">  1        4 0.88244805E-03 0.12500057E+03</pdfrwt>
<pdfrwt beam="1">  1       -4 0.10477270E+00 0.12500057E+03</pdfrwt>
<totfact> 0.43794424E+03</totfact>
</mgrwt>
</event>
<event>
 5    1  0.3289127E-002  0.1250003E+03  0.7818608E-02  0.1235069E+00
          4   -1    0    0  501    0  0.00000000000E+00  0.00000000000E+00  0.11330858500E+02  0.11401809257E+02  0.12700000000E+01 0. -1.
         -4   -1    0    0    0  501 -0.00000000000E+00 -0.00000000000E+00 -0.34359767239E+03  0.34360001946E+03  0.12700000000E+01 0. -1.
         25    2    1    2    0    0  0.00000000000E+00  0.00000000000E+00 -0.33226681389E+03  0.35500182871E+03  0.12500025112E+03 0.  0.
    9000005    1    3    3    0    0  0.52677322802E+01  0.59229878939E+02 -0.22071318673E+03  0.22858529777E+03  0.10000000000E+01 0.  0.
    9000005    1    3    3    0    0 -0.52677322802E+01 -0.59229878939E+02 -0.11155362716E+03  0.12641653094E+03  0.10000000000E+01 0.  0.
<mgrwt>
<rscale>  0 0.12500025E+03</rscale>
<asrwt>0</asrwt>
<pdfrwt beam="1">  1        4 0.17488476E-02 0.12500025E+03</pdfrwt>
<pdfrwt beam="2">  1       -4 0.52866811E-01 0.12500025E+03</pdfrwt>
<totfact> 0.69177396E+03</totfact>
</mgrwt>
</event>
<event>
 4    1  0.3289127E-002  0.1248327E+03  0.7818608E-02  0.1235331E+00
         -4   -1    0    0    0  501 -0.00000000000E+00  0.00000000000E+00  0.13443716512E+03  0.13444316370E+03  0.12700000000E+01 0.  1.
          4   -1    0    0  501    0  0.00000000000E+00 -0.00000000000E+00 -0.28958035811E+02  0.28985871352E+02  0.12700000000E+01 0.  1.
    9000005    1    1    2    0    0  0.16488737067E+02  0.59207949373E+02  0.38557949279E+02  0.72561526801E+02  0.10000000000E+01 0.  0.
    9000005    1    1    2    0    0 -0.16488737067E+02 -0.59207949373E+02  0.66921180028E+02  0.90867508249E+02  0.10000000000E+01 0.  0.
<mgrwt>
<rscale>  0 0.12483270E+03</rscale>
<asrwt>0</asrwt>
<pdfrwt beam="2">  1        4 0.44576851E-02 0.12483270E+03</pdfrwt>
<pdfrwt beam="1">  1       -4 0.20685243E-01 0.12483270E+03</pdfrwt>
<totfact> 0.97050083E+03</totfact>
</mgrwt>
</event>
<event>
 5    1  0.3289127E-002  0.1250205E+03  0.7818608E-02  0.1235037E+00
         -4   -1    0    0    0  501 -0.00000000000E+00  0.00000000000E+00  0.18421095221E+02  0.18464821937E+02  0.12700000000E+01 0. -1.
          4   -1    0    0  501    0  0.00000000000E+00 -0.00000000000E+00 -0.21182541422E+03  0.21182922133E+03  0.12700000000E+01 0. -1.
         25    2    1    2    0    0  0.00000000000E+00  0.00000000000E+00 -0.19340431900E+03  0.23029404327E+03  0.12502046135E+03 0.  0.
    9000005    1    3    3    0    0  0.46405141351E+02 -0.41326984413E+02 -0.84321692950E+02  0.10474972404E+03  0.10000000000E+01 0.  0.
    9000005    1    3    3    0    0 -0.46405141351E+02  0.41326984413E+02 -0.10908262605E+03  0.12554431923E+03  0.10000000000E+01 0.  0.
<mgrwt>
<rscale>  0 0.12502046E+03</rscale>
<asrwt>0</asrwt>
<pdfrwt beam="2">  1        4 0.32592180E-01 0.12502046E+03</pdfrwt>
<pdfrwt beam="1">  1       -4 0.28376712E-02 0.12502046E+03</pdfrwt>
<totfact> 0.85225554E+03</totfact>
</mgrwt>
</event>
<event>
 5    1  0.3289127E-002  0.1250072E+03  0.7818608E-02  0.1235058E+00
          4   -1    0    0  501    0  0.00000000000E+00  0.00000000000E+00  0.28206715086E+03  0.28207000992E+03  0.12700000000E+01 0.  1.
         -4   -1    0    0    0  501 -0.00000000000E+00 -0.00000000000E+00 -0.13818189390E+02  0.13876428143E+02  0.12700000000E+01 0.  1.
         25    2    1    2    0    0  0.00000000000E+00  0.00000000000E+00  0.26824896147E+03  0.29594643806E+03  0.12500715528E+03 0.  0.
    9000005    1    3    3    0    0 -0.61145877458E+02 -0.21887463185E+01  0.16426523027E+03  0.17529311115E+03  0.10000000000E+01 0.  0.
    9000005    1    3    3    0    0  0.61145877458E+02  0.21887463185E+01  0.10398373120E+03  0.12065332691E+03  0.10000000000E+01 0.  0.
<mgrwt>
<rscale>  0 0.12500716E+03</rscale>
<asrwt>0</asrwt>
<pdfrwt beam="1">  1        4 0.43399644E-01 0.12500716E+03</pdfrwt>
<pdfrwt beam="2">  1       -4 0.21305752E-02 0.12500716E+03</pdfrwt>
<totfact> 0.76098049E+03</totfact>
</mgrwt>
</event>
<event>
 5    1  0.3289127E-002  0.1250083E+03  0.7818608E-02  0.1235056E+00
         -4   -1    0    0    0  501 -0.00000000000E+00  0.00000000000E+00  0.97468725203E+02  0.97476998788E+02  0.12700000000E+01 0. -1.
          4   -1    0    0  501    0  0.00000000000E+00 -0.00000000000E+00 -0.40062212692E+02  0.40082337579E+02  0.12700000000E+01 0. -1.
         25    2    1    2    0    0  0.00000000000E+00  0.00000000000E+00  0.57406512510E+02  0.13755933637E+03  0.12500825310E+03 0.  0.
    9000005    1    3    3    0    0  0.45646911170E+02  0.20096751990E+02  0.70143963001E+02  0.86073779315E+02  0.10000000000E+01 0.  0.
    9000005    1    3    3    0    0 -0.45646911170E+02 -0.20096751990E+02 -0.12737450491E+02  0.51485557052E+02  0.10000000000E+01 0.  0.
<mgrwt>
<rscale>  0 0.12500825E+03</rscale>
<asrwt>0</asrwt>
<pdfrwt beam="2">  1        4 0.61656019E-02 0.12500825E+03</pdfrwt>
<pdfrwt beam="1">  1       -4 0.14997373E-01 0.12500825E+03</pdfrwt>
<totfact> 0.10182509E+04</totfact>
</mgrwt>
</event>
<event>
 5    1  0.3289127E-002  0.1250023E+03  0.7818608E-02  0.1235066E+00
         -4   -1    0    0    0  501 -0.00000000000E+00  0.00000000000E+00  0.65159222638E+03  0.65159346404E+03  0.12700000000E+01 0. -1.
          4   -1    0    0  501    0  0.00000000000E+00 -0.00000000000E+00 -0.59266373072E+01  0.60611822091E+01  0.12700000000E+01 0. -1.
         25    2    1    2    0    0  0.00000000000E+00  0.00000000000E+00  0.64566558907E+03  0.65765464624E+03  0.12500232326E+03 0.  0.
    9000005    1    3    3    0    0 -0.30340754919E+02 -0.28370612778E+02  0.77190983883E+02  0.87663567526E+02  0.10000000000E+01 0.  0.
    9000005    1    3    3    0    0  0.30340754919E+02  0.28370612778E+02  0.56847460518E+03  0.56999107872E+03  0.10000000000E+01 0.  0.
<mgrwt>
<rscale>  0 0.12500232E+03</rscale>
<asrwt>0</asrwt>
<pdfrwt beam="2">  1        4 0.92223543E-03 0.12500232E+03</pdfrwt>
<pdfrwt beam="1">  1       -4 0.10025537E+00 0.12500232E+03</pdfrwt>
<totfact> 0.45415760E+03</totfact>
</mgrwt>
</event>
<event>
 5    1  0.3289127E-002  0.1249987E+03  0.7818608E-02  0.1235071E+00
          4   -1    0    0  501    0  0.00000000000E+00  0.00000000000E+00  0.10935475118E+03  0.10936212555E+03  0.12700000000E+01 0.  1.
         -4   -1    0    0    0  501 -0.00000000000E+00 -0.00000000000E+00 -0.35700269535E+02  0.35722851858E+02  0.12700000000E+01 0.  1.
         25    2    1    2    0    0  0.00000000000E+00  0.00000000000E+00  0.73654481644E+02  0.14508497741E+03  0.12499867201E+03 0.  0.
    9000005    1    3    3    0    0 -0.41354613867E+02  0.46816477699E+02  0.38897158434E+02  0.73593312240E+02  0.10000000000E+01 0.  0.
    9000005    1    3    3    0    0  0.41354613867E+02 -0.46816477699E+02  0.34757323210E+02  0.71491665171E+02  0.10000000000E+01 0.  0.
<mgrwt>
<rscale>  0 0.12499867E+03</rscale>
<asrwt>0</asrwt>
<pdfrwt beam="1">  1        4 0.16826112E-01 0.12499867E+03</pdfrwt>
<pdfrwt beam="2">  1       -4 0.54946537E-02 0.12499867E+03</pdfrwt>
<totfact> 0.10029562E+04</totfact>
</mgrwt>
</event>
<event>
 5    1  0.3289127E-002  0.1250028E+03  0.7818608E-02  0.1235065E+00
         -4   -1    0    0    0  501 -0.00000000000E+00  0.00000000000E+00  0.22158356035E+04  0.22158359675E+04  0.12700000000E+01 0.  1.
          4   -1    0    0  501    0  0.00000000000E+00 -0.00000000000E+00 -0.15338256847E+01  0.19913616525E+01  0.12700000000E+01 0.  1.
         25    2    1    2    0    0  0.00000000000E+00  0.00000000000E+00  0.22143017779E+04  0.22178273291E+04  0.12500279385E+03 0.  0.
    9000005    1    3    3    0    0  0.24081037678E+02 -0.49075796685E+02  0.56985312027E+03  0.57247000697E+03  0.10000000000E+01 0.  0.
    9000005    1    3    3    0    0 -0.24081037678E+02  0.49075796685E+02  0.16444486576E+04  0.16453573222E+04  0.10000000000E+01 0.  0.
<mgrwt>
<rscale>  0 0.12500279E+03</rscale>
<asrwt>0</asrwt>
<pdfrwt beam="2">  1        4 0.27119455E-03 0.12500279E+03</pdfrwt>
<pdfrwt beam="1">  1       -4 0.34093515E+00 0.12500279E+03</pdfrwt>
<totfact> 0.72787272E+02</totfact>
</mgrwt>
</event>
<event>
 5    1  0.3289127E-002  0.1250008E+03  0.7818608E-02  0.1235068E+00
          4   -1    0    0  501    0  0.00000000000E+00  0.00000000000E+00  0.78535547268E+02  0.78545815195E+02  0.12700000000E+01 0.  1.
         -4   -1    0    0    0  501 -0.00000000000E+00 -0.00000000000E+00 -0.49717655956E+02  0.49733873906E+02  0.12700000000E+01 0.  1.
         25    2    1    2    0    0  0.00000000000E+00  0.00000000000E+00  0.28817891312E+02  0.12827968910E+03  0.12500083110E+03 0.  0.
    9000005    1    3    3    0    0 -0.55718725490E+02  0.20471272780E+02  0.34457316669E+02  0.68643689087E+02  0.10000000000E+01 0.  0.
    9000005    1    3    3    0    0  0.55718725490E+02 -0.20471272780E+02 -0.56394253563E+01  0.59636000015E+02  0.10000000000E+01 0.  0.
<mgrwt>
<rscale>  0 0.12500083E+03</rscale>
<asrwt>0</asrwt>
<pdfrwt beam="1">  1        4 0.12084429E-01 0.12500083E+03</pdfrwt>
<pdfrwt beam="2">  1       -4 0.76509076E-02 0.12500083E+03</pdfrwt>
<totfact> 0.10381257E+04</totfact>
</mgrwt>
</event>
<event>
 4    1  0.3289127E-002  0.1246463E+03  0.7818608E-02  0.1235623E+00
          4   -1    0    0  501    0  0.00000000000E+00  0.00000000000E+00  0.49179573994E+01  0.50792917796E+01  0.12700000000E+01 0.  1.
         -4   -1    0    0    0  501 -0.00000000000E+00 -0.00000000000E+00 -0.77688707136E+03  0.77688810941E+03  0.12700000000E+01 0.  1.
    9000005    1    1    2    0    0 -0.22609458258E+02 -0.24035822249E+02 -0.54362658205E+02  0.63601941488E+02  0.10000000000E+01 0.  0.
    9000005    1    1    2    0    0  0.22609458258E+02  0.24035822249E+02 -0.71760645575E+03  0.71836545970E+03  0.10000000000E+01 0.  0.
<mgrwt>
<rscale>  0 0.12464631E+03</rscale>
<asrwt>0</asrwt>
<pdfrwt beam="1">  1        4 0.76909964E-03 0.12464631E+03</pdfrwt>
<pdfrwt beam="2">  1       -4 0.11953348E+00 0.12464631E+03</pdfrwt>
<totfact> 0.39386169E+03</totfact>
</mgrwt>
</event>
<event>
 5    1  0.3289127E-002  0.1249933E+03  0.7818608E-02  0.1235080E+00
         -4   -1    0    0    0  501 -0.00000000000E+00  0.00000000000E+00  0.59416601659E+01  0.60758724088E+01  0.12700000000E+01 0. -1.
          4   -1    0    0  501    0  0.00000000000E+00 -0.00000000000E+00 -0.64988737387E+03  0.64988861478E+03  0.12700000000E+01 0. -1.
         25    2    1    2    0    0  0.00000000000E+00  0.00000000000E+00 -0.64394571371E+03  0.65596448719E+03  0.12499330482E+03 0.  0.
    9000005    1    3    3    0    0 -0.21415941782E+02 -0.10160108690E+02 -0.18542348607E+02  0.30111278001E+02  0.10000000000E+01 0.  0.
    9000005    1    3    3    0    0  0.21415941782E+02  0.10160108690E+02 -0.62540336510E+03  0.62585320919E+03  0.10000000000E+01 0.  0.
<mgrwt>
<rscale>  0 0.12499330E+03</rscale>
<asrwt>0</asrwt>
<pdfrwt beam="2">  1        4 0.99993037E-01 0.12499330E+03</pdfrwt>
<pdfrwt beam="1">  1       -4 0.92452155E-03 0.12499330E+03</pdfrwt>
<totfact> 0.45521808E+03</totfact>
</mgrwt>
</event>
<event>
 5    1  0.3289127E-002  0.1250035E+03  0.7818608E-02  0.1235064E+00
          4   -1    0    0  501    0  0.00000000000E+00  0.00000000000E+00  0.11010351665E+03  0.11011084088E+03  0.12700000000E+01 0.  1.
         -4   -1    0    0    0  501 -0.00000000000E+00 -0.00000000000E+00 -0.35460088519E+02  0.35482823701E+02  0.12700000000E+01 0.  1.
         25    2    1    2    0    0  0.00000000000E+00  0.00000000000E+00  0.74643428130E+02  0.14559366458E+03  0.12500349516E+03 0.  0.
    9000005    1    3    3    0    0  0.25925462290E+02  0.50693755260E+02  0.73207711579E+01  0.57415852407E+02  0.10000000000E+01 0.  0.
    9000005    1    3    3    0    0 -0.25925462290E+02 -0.50693755260E+02  0.67322656973E+02  0.88177812170E+02  0.10000000000E+01 0.  0.
<mgrwt>
<rscale>  0 0.12500350E+03</rscale>
<asrwt>0</asrwt>
<pdfrwt beam="1">  1        4 0.16941314E-01 0.12500350E+03</pdfrwt>
<pdfrwt beam="2">  1       -4 0.54577107E-02 0.12500350E+03</pdfrwt>
<totfact> 0.10018152E+04</totfact>
</mgrwt>
</event>
<event>
 5    1  0.3289127E-002  0.1249977E+03  0.7818608E-02  0.1235073E+00
          4   -1    0    0  501    0  0.00000000000E+00  0.00000000000E+00  0.67375696714E+02  0.67387665101E+02  0.12700000000E+01 0.  1.
         -4   -1    0    0    0  501 -0.00000000000E+00 -0.00000000000E+00 -0.57950972337E+02  0.57964886740E+02  0.12700000000E+01 0.  1.
         25    2    1    2    0    0  0.00000000000E+00  0.00000000000E+00  0.94247243770E+01  0.12535255184E+03  0.12499774727E+03 0.  0.
    9000005    1    3    3    0    0  0.48664020957E+02  0.10619613345E+02 -0.33132616332E+02  0.59830873203E+02  0.10000000000E+01 0.  0.
    9000005    1    3    3    0    0 -0.48664020957E+02 -0.10619613345E+02  0.42557340709E+02  0.65521678638E+02  0.10000000000E+01 0.  0.
<mgrwt>
<rscale>  0 0.12499775E+03</rscale>
<asrwt>0</asrwt>
<pdfrwt beam="1">  1        4 0.10367483E-01 0.12499775E+03</pdfrwt>
<pdfrwt beam="2">  1       -4 0.89175252E-02 0.12499775E+03</pdfrwt>
<totfact> 0.10445742E+04</totfact>
</mgrwt>
</event>
<event>
 5    1  0.3289127E-002  0.1250020E+03  0.7818608E-02  0.1235066E+00
         -4   -1    0    0    0  501 -0.00000000000E+00  0.00000000000E+00  0.47619707487E+01  0.49284140868E+01  0.12700000000E+01 0.  1.
          4   -1    0    0  501    0  0.00000000000E+00 -0.00000000000E+00 -0.80607021041E+03  0.80607121088E+03  0.12700000000E+01 0.  1.
         25    2    1    2    0    0  0.00000000000E+00  0.00000000000E+00 -0.80130823966E+03  0.81099962497E+03  0.12500198698E+03 0.  0.
    9000005    1    3    3    0    0 -0.13161267803E+02  0.45208525870E+02 -0.66723822933E+03  0.66889826167E+03  0.10000000000E+01 0.  0.
    9000005    1    3    3    0    0  0.13161267803E+02 -0.45208525870E+02 -0.13407001033E+03  0.14210136330E+03  0.10000000000E+01 0.  0.
<mgrwt>
<rscale>  0 0.12500199E+03</rscale>
<asrwt>0</asrwt>
<pdfrwt beam="2">  1        4 0.12402358E+00 0.12500199E+03</pdfrwt>
<pdfrwt beam="1">  1       -4 0.74549182E-03 0.12500199E+03</pdfrwt>
<totfact> 0.37776757E+03</totfact>
</mgrwt>
</event>
<event>
 5    1  0.3289127E-002  0.1249729E+03  0.7818608E-02  0.1235112E+00
         -4   -1    0    0    0  501 -0.00000000000E+00  0.00000000000E+00  0.35570510360E+03  0.35570737078E+03  0.12700000000E+01 0. -1.
          4   -1    0    0  501    0  0.00000000000E+00 -0.00000000000E+00 -0.10937909531E+02  0.11011392505E+02  0.12700000000E+01 0. -1.
         25    2    1    2    0    0  0.00000000000E+00  0.00000000000E+00  0.34476719407E+03  0.36671876329E+03  0.12497293002E+03 0.  0.
    9000005    1    3    3    0    0  0.41105725977E+02  0.44860670102E+02  0.13074034608E+03  0.14420887117E+03  0.10000000000E+01 0.  0.
    9000005    1    3    3    0    0 -0.41105725977E+02 -0.44860670102E+02  0.21402684799E+03  0.22250989212E+03  0.10000000000E+01 0.  0.
<mgrwt>
<rscale>  0 0.12497293E+03</rscale>
<asrwt>0</asrwt>
<pdfrwt beam="2">  1        4 0.16885822E-02 0.12497293E+03</pdfrwt>
<pdfrwt beam="1">  1       -4 0.54729692E-01 0.12497293E+03</pdfrwt>
<totfact> 0.67964287E+03</totfact>
</mgrwt>
</event>
<event>
 5    1  0.3289127E-002  0.1250114E+03  0.7818608E-02  0.1235052E+00
         -4   -1    0    0    0  501 -0.00000000000E+00  0.00000000000E+00  0.34353542307E+03  0.34353777057E+03  0.12700000000E+01 0.  1.
          4   -1    0    0  501    0  0.00000000000E+00 -0.00000000000E+00 -0.11334950345E+02  0.11405875649E+02  0.12700000000E+01 0.  1.
         25    2    1    2    0    0  0.00000000000E+00  0.00000000000E+00  0.33220047273E+03  0.35494364622E+03  0.12501135112E+03 0.  0.
    9000005    1    3    3    0    0  0.43681637239E+02  0.38265038896E+02  0.23169099082E+03  0.23885982053E+03  0.10000000000E+01 0.  0.
    9000005    1    3    3    0    0 -0.43681637239E+02 -0.38265038896E+02  0.10050948190E+03  0.11608382569E+03  0.10000000000E+01 0.  0.
<mgrwt>
<rscale>  0 0.12501135E+03</rscale>
<asrwt>0</asrwt>
<pdfrwt beam="2">  1        4 0.17494749E-02 0.12501135E+03</pdfrwt>
<pdfrwt beam="1">  1       -4 0.52857238E-01 0.12501135E+03</pdfrwt>
<totfact> 0.69166724E+03</totfact>
</mgrwt>
</event>
<event>
 5    1  0.3289127E-002  0.1249982E+03  0.7818608E-02  0.1235072E+00
          4   -1    0    0  501    0  0.00000000000E+00  0.00000000000E+00  0.62835003820E+03  0.62835132164E+03  0.12700000000E+01 0.  1.
         -4   -1    0    0    0  501 -0.00000000000E+00 -0.00000000000E+00 -0.61503331840E+01  0.62800874416E+01  0.12700000000E+01 0.  1.
         25    2    1    2    0    0  0.00000000000E+00  0.00000000000E+00  0.62219970502E+03  0.63463140908E+03  0.12499820987E+03 0.  0.
    9000005    1    3    3    0    0 -0.42350325995E+02  0.92966738740E+01  0.53957944967E+03  0.54131964749E+03  0.10000000000E+01 0.  0.
    9000005    1    3    3    0    0  0.42350325995E+02 -0.92966738740E+01  0.82620255347E+02  0.93311761588E+02  0.10000000000E+01 0.  0.
<mgrwt>
<rscale>  0 0.12499821E+03</rscale>
<asrwt>0</asrwt>
<pdfrwt beam="1">  1        4 0.96679368E-01 0.12499821E+03</pdfrwt>
<pdfrwt beam="2">  1       -4 0.95628441E-03 0.12499821E+03</pdfrwt>
<totfact> 0.46753901E+03</totfact>
</mgrwt>
</event>
<event>
 5    1  0.3289127E-002  0.1250036E+03  0.7818608E-02  0.1235064E+00
          4   -1    0    0  501    0  0.00000000000E+00  0.00000000000E+00  0.19395309711E+03  0.19395725503E+03  0.12700000000E+01 0.  1.
         -4   -1    0    0    0  501 -0.00000000000E+00 -0.00000000000E+00 -0.20116926123E+02  0.20156974391E+02  0.12700000000E+01 0.  1.
         25    2    1    2    0    0  0.00000000000E+00  0.00000000000E+00  0.17383617099E+03  0.21411422942E+03  0.12500355554E+03 0.  0.
    9000005    1    3    3    0    0  0.27996843819E+02 -0.15548750154E+02 -0.50020724463E+01  0.32428500180E+02  0.10000000000E+01 0.  0.
    9000005    1    3    3    0    0 -0.27996843819E+02  0.15548750154E+02  0.17883824343E+03  0.18168572924E+03  0.10000000000E+01 0.  0.
<mgrwt>
<rscale>  0 0.12500356E+03</rscale>
<asrwt>0</asrwt>
<pdfrwt beam="1">  1        4 0.29842339E-01 0.12500356E+03</pdfrwt>
<pdfrwt beam="2">  1       -4 0.30983121E-02 0.12500356E+03</pdfrwt>
<totfact> 0.87801372E+03</totfact>
</mgrwt>
</event>
<event>
 5    1  0.3289127E-002  0.1249966E+03  0.7818608E-02  0.1235075E+00
          4   -1    0    0  501    0  0.00000000000E+00  0.00000000000E+00  0.13480434839E+03  0.13481033063E+03  0.12700000000E+01 0. -1.
         -4   -1    0    0    0  501 -0.00000000000E+00 -0.00000000000E+00 -0.28955072112E+02  0.28982910499E+02  0.12700000000E+01 0. -1.
         25    2    1    2    0    0  0.00000000000E+00  0.00000000000E+00  0.10584927628E+03  0.16379324113E+03  0.12499662616E+03 0.  0.
    9000005    1    3    3    0    0  0.60528693352E+02 -0.13156085991E+02  0.63748881056E+02  0.88891648389E+02  0.10000000000E+01 0.  0.
    9000005    1    3    3    0    0 -0.60528693352E+02  0.13156085991E+02  0.42100395225E+02  0.74901592744E+02  0.10000000000E+01 0.  0.
<mgrwt>
<rscale>  0 0.12499663E+03</rscale>
<asrwt>0</asrwt>
<pdfrwt beam="1">  1        4 0.20741732E-01 0.12499663E+03</pdfrwt>
<pdfrwt beam="2">  1       -4 0.44572280E-02 0.12499663E+03</pdfrwt>
<totfact> 0.96623746E+03</totfact>
</mgrwt>
</event>
<event>
 5    1  0.3289127E-002  0.1250019E+03  0.7818608E-02  0.1235066E+00
          4   -1    0    0  501    0  0.00000000000E+00  0.00000000000E+00  0.57147151659E+02  0.57161261732E+02  0.12700000000E+01 0.  1.
         -4   -1    0    0    0  501 -0.00000000000E+00 -0.00000000000E+00 -0.68327859902E+02  0.68339661535E+02  0.12700000000E+01 0.  1.
         25    2    1    2    0    0  0.00000000000E+00  0.00000000000E+00 -0.11180708242E+02  0.12550092327E+03  0.12500189400E+03 0.  0.
    9000005    1    3    3    0    0  0.16221861902E+02 -0.38247941467E+02 -0.52459850414E+02  0.66926001939E+02  0.10000000000E+01 0.  0.
    9000005    1    3    3    0    0 -0.16221861902E+02  0.38247941467E+02  0.41279142172E+02  0.58574921328E+02  0.10000000000E+01 0.  0.
<mgrwt>
<rscale>  0 0.12500189E+03</rscale>
<asrwt>0</asrwt>
<pdfrwt beam="1">  1        4 0.87938627E-02 0.12500189E+03</pdfrwt>
<pdfrwt beam="2">  1       -4 0.10513972E-01 0.12500189E+03</pdfrwt>
<totfact> 0.10441488E+04</totfact>
</mgrwt>
</event>
<event>
 5    1  0.3289127E-002  0.1250020E+03  0.7818608E-02  0.1235066E+00
          4   -1    0    0  501    0  0.00000000000E+00  0.00000000000E+00  0.32915936921E+02  0.32940428100E+02  0.12700000000E+01 0. -1.
         -4   -1    0    0    0  501 -0.00000000000E+00 -0.00000000000E+00 -0.11860519422E+03  0.11861199347E+03  0.12700000000E+01 0. -1.
         25    2    1    2    0    0  0.00000000000E+00  0.00000000000E+00 -0.85689257298E+02  0.15155242157E+03  0.12500195066E+03 0.  0.
    9000005    1    3    3    0    0 -0.77016523422E+00 -0.48018850454E+02 -0.91325015849E+02  0.10318750735E+03  0.10000000000E+01 0.  0.
    9000005    1    3    3    0    0  0.77016523422E+00  0.48018850454E+02  0.56357585510E+01  0.48364914223E+02  0.10000000000E+01 0.  0.
<mgrwt>
<rscale>  0 0.12500195E+03</rscale>
<asrwt>0</asrwt>
<pdfrwt beam="1">  1        4 0.50663973E-02 0.12500195E+03</pdfrwt>
<pdfrwt beam="2">  1       -4 0.18249360E-01 0.12500195E+03</pdfrwt>
<totfact> 0.98990797E+03</totfact>
</mgrwt>
</event>
<event>
 5    1  0.3289127E-002  0.1250005E+03  0.7818608E-02  0.1235068E+00
         -4   -1    0    0    0  501 -0.00000000000E+00  0.00000000000E+00  0.29285517660E+02  0.29313042227E+02  0.12700000000E+01 0. -1.
          4   -1    0    0  501    0  0.00000000000E+00 -0.00000000000E+00 -0.13329294521E+03  0.13329899528E+03  0.12700000000E+01 0. -1.
         25    2    1    2    0    0  0.00000000000E+00  0.00000000000E+00 -0.10400742755E+03  0.16261203751E+03  0.12500051903E+03 0.  0.
    9000005    1    3    3    0    0 -0.41138891992E+02 -0.75227439286E+01 -0.11241160665E+03  0.11994319247E+03  0.10000000000E+01 0.  0.
    9000005    1    3    3    0    0  0.41138891992E+02  0.75227439286E+01  0.84041790981E+01  0.42668845038E+02  0.10000000000E+01 0.  0.
<mgrwt>
<rscale>  0 0.12500052E+03</rscale>
<asrwt>0</asrwt>
<pdfrwt beam="2">  1        4 0.20509189E-01 0.12500052E+03</pdfrwt>
<pdfrwt beam="1">  1       -4 0.45080470E-02 0.12500052E+03</pdfrwt>
<totfact> 0.96840426E+03</totfact>
</mgrwt>
</event>
<event>
 5    1  0.3289127E-002  0.1250019E+03  0.7818608E-02  0.1235066E+00
         -4   -1    0    0    0  501 -0.00000000000E+00  0.00000000000E+00  0.33378434160E+02  0.33402586232E+02  0.12700000000E+01 0.  1.
          4   -1    0    0  501    0  0.00000000000E+00 -0.00000000000E+00 -0.11696269797E+03  0.11696959270E+03  0.12700000000E+01 0.  1.
         25    2    1    2    0    0  0.00000000000E+00  0.00000000000E+00 -0.83584263811E+02  0.15037217893E+03  0.12500185215E+03 0.  0.
    9000005    1    3    3    0    0  0.34373240986E+02 -0.32469869826E+02 -0.90945267795E+02  0.10250782349E+03  0.10000000000E+01 0.  0.
    9000005    1    3    3    0    0 -0.34373240986E+02  0.32469869826E+02  0.73610039843E+01  0.47864355443E+02  0.10000000000E+01 0.  0.
<mgrwt>
<rscale>  0 0.12500185E+03</rscale>
<asrwt>0</asrwt>
<pdfrwt beam="2">  1        4 0.17996649E-01 0.12500185E+03</pdfrwt>
<pdfrwt beam="1">  1       -4 0.51375320E-02 0.12500185E+03</pdfrwt>
<totfact> 0.99225426E+03</totfact>
</mgrwt>
</event>
<event>
 5    1  0.3289127E-002  0.1249978E+03  0.7818608E-02  0.1235073E+00
         -4   -1    0    0    0  501 -0.00000000000E+00  0.00000000000E+00  0.69893404272E+02  0.69904941604E+02  0.12700000000E+01 0. -1.
          4   -1    0    0  501    0  0.00000000000E+00 -0.00000000000E+00 -0.55863340450E+02  0.55877774708E+02  0.12700000000E+01 0. -1.
         25    2    1    2    0    0  0.00000000000E+00  0.00000000000E+00  0.14030063821E+02  0.12578271631E+03  0.12499779611E+03 0.  0.
    9000005    1    3    3    0    0 -0.35060352728E+02  0.33507407482E+02 -0.32642307639E+02  0.58467896641E+02  0.10000000000E+01 0.  0.
    9000005    1    3    3    0    0  0.35060352728E+02 -0.33507407482E+02  0.46672371460E+02  0.67314819671E+02  0.10000000000E+01 0.  0.
<mgrwt>
<rscale>  0 0.12499780E+03</rscale>
<asrwt>0</asrwt>
<pdfrwt beam="2">  1        4 0.85963579E-02 0.12499780E+03</pdfrwt>
<pdfrwt beam="1">  1       -4 0.10754829E-01 0.12499780E+03</pdfrwt>
<totfact> 0.10436244E+04</totfact>
</mgrwt>
</event>
<event>
 5    1  0.3289127E-002  0.1250004E+03  0.7818608E-02  0.1235069E+00
          4   -1    0    0  501    0  0.00000000000E+00  0.00000000000E+00  0.11740221466E+02  0.11808712888E+02  0.12700000000E+01 0. -1.
         -4   -1    0    0    0  501 -0.00000000000E+00 -0.00000000000E+00 -0.33168816397E+03  0.33169059532E+03  0.12700000000E+01 0. -1.
         25    2    1    2    0    0  0.00000000000E+00  0.00000000000E+00 -0.31994794251E+03  0.34349930820E+03  0.12500035528E+03 0.  0.
    9000005    1    3    3    0    0  0.11453119775E+02 -0.60603939676E+02 -0.18762652120E+03  0.19750626045E+03  0.10000000000E+01 0.  0.
    9000005    1    3    3    0    0 -0.11453119775E+02  0.60603939676E+02 -0.13232142131E+03  0.14599304776E+03  0.10000000000E+01 0.  0.
<mgrwt>
<rscale>  0 0.12500036E+03</rscale>
<asrwt>0</asrwt>
<pdfrwt beam="1">  1        4 0.18116438E-02 0.12500036E+03</pdfrwt>
<pdfrwt beam="2">  1       -4 0.51034397E-01 0.12500036E+03</pdfrwt>
<totfact> 0.70445131E+03</totfact>
</mgrwt>
</event>
<event>
 5    1  0.3289127E-002  0.1250006E+03  0.7818608E-02  0.1235068E+00
          4   -1    0    0  501    0  0.00000000000E+00  0.00000000000E+00  0.20617050834E+04  0.20617054745E+04  0.12700000000E+01 0.  1.
         -4   -1    0    0    0  501 -0.00000000000E+00 -0.00000000000E+00 -0.16814336754E+01  0.21071590364E+01  0.12700000000E+01 0.  1.
         25    2    1    2    0    0  0.00000000000E+00  0.00000000000E+00  0.20600236497E+04  0.20638126336E+04  0.12500059661E+03 0.  0.
    9000005    1    3    3    0    0  0.45956089038E+02 -0.42095819848E+02  0.95387188620E+03  0.95590616456E+03  0.10000000000E+01 0.  0.
    9000005    1    3    3    0    0 -0.45956089038E+02  0.42095819848E+02  0.11061517635E+04  0.11079064690E+04  0.10000000000E+01 0.  0.
<mgrwt>
<rscale>  0 0.12500060E+03</rscale>
<asrwt>0</asrwt>
<pdfrwt beam="1">  1        4 0.31721712E+00 0.12500060E+03</pdfrwt>
<pdfrwt beam="2">  1       -4 0.29146127E-03 0.12500060E+03</pdfrwt>
<totfact> 0.90511682E+02</totfact>
</mgrwt>
</event>
<event>
 5    1  0.3289127E-002  0.1250036E+03  0.7818608E-02  0.1235064E+00
          4   -1    0    0  501    0  0.00000000000E+00  0.00000000000E+00  0.23949634791E+02  0.23983283900E+02  0.12700000000E+01 0.  1.
         -4   -1    0    0    0  501 -0.00000000000E+00 -0.00000000000E+00 -0.16296144295E+03  0.16296639159E+03  0.12700000000E+01 0.  1.
         25    2    1    2    0    0  0.00000000000E+00  0.00000000000E+00 -0.13901180816E+03  0.18694967549E+03  0.12500359338E+03 0.  0.
    9000005    1    3    3    0    0 -0.36780115750E+02 -0.48215969482E+02 -0.92084217355E+02  0.11026359197E+03  0.10000000000E+01 0.  0.
    9000005    1    3    3    0    0  0.36780115750E+02  0.48215969482E+02 -0.46927590803E+02  0.76686083524E+02  0.10000000000E+01 0.  0.
<mgrwt>
<rscale>  0 0.12500359E+03</rscale>
<asrwt>0</asrwt>
<pdfrwt beam="1">  1        4 0.36875284E-02 0.12500359E+03</pdfrwt>
<pdfrwt beam="2">  1       -4 0.25073960E-01 0.12500359E+03</pdfrwt>
<totfact> 0.92373349E+03</totfact>
</mgrwt>
</event>
<event>
 5    1  0.3289127E-002  0.1250080E+03  0.7818608E-02  0.1235057E+00
          4   -1    0    0  501    0  0.00000000000E+00  0.00000000000E+00  0.17136084703E+03  0.17136555312E+03  0.12700000000E+01 0. -1.
         -4   -1    0    0    0  501 -0.00000000000E+00 -0.00000000000E+00 -0.22775655288E+02  0.22811036228E+02  0.12700000000E+01 0. -1.
         25    2    1    2    0    0  0.00000000000E+00  0.00000000000E+00  0.14858519174E+03  0.19417658934E+03  0.12500795432E+03 0.  0.
    9000005    1    3    3    0    0  0.57165701425E+02 -0.19207106520E+02  0.48820294271E+02  0.77596723468E+02  0.10000000000E+01 0.  0.
    9000005    1    3    3    0    0 -0.57165701425E+02  0.19207106520E+02  0.99764897471E+02  0.11657986588E+03  0.10000000000E+01 0.  0.
<mgrwt>
<rscale>  0 0.12500795E+03</rscale>
<asrwt>0</asrwt>
<pdfrwt beam="1">  1        4 0.26366292E-01 0.12500795E+03</pdfrwt>
<pdfrwt beam="2">  1       -4 0.35070305E-02 0.12500795E+03</pdfrwt>
<totfact> 0.91109408E+03</totfact>
</mgrwt>
</event>
<event>
 5    1  0.3289127E-002  0.1250004E+03  0.7818608E-02  0.1235069E+00
         -4   -1    0    0    0  501 -0.00000000000E+00  0.00000000000E+00  0.30056971617E+02  0.30083790366E+02  0.12700000000E+01 0.  1.
          4   -1    0    0  501    0  0.00000000000E+00 -0.00000000000E+00 -0.12987454110E+03  0.12988075041E+03  0.12700000000E+01 0.  1.
         25    2    1    2    0    0  0.00000000000E+00  0.00000000000E+00 -0.99817569485E+02  0.15996454077E+03  0.12500042851E+03 0.  0.
    9000005    1    3    3    0    0  0.41152896435E+02 -0.46121967804E+02 -0.38146569294E+02  0.72642670298E+02  0.10000000000E+01 0.  0.
    9000005    1    3    3    0    0 -0.41152896435E+02  0.46121967804E+02 -0.61671000191E+02  0.87321870477E+02  0.10000000000E+01 0.  0.
<mgrwt>
<rscale>  0 0.12500043E+03</rscale>
<asrwt>0</asrwt>
<pdfrwt beam="2">  1        4 0.19983239E-01 0.12500043E+03</pdfrwt>
<pdfrwt beam="1">  1       -4 0.46266902E-02 0.12500043E+03</pdfrwt>
<totfact> 0.97348684E+03</totfact>
</mgrwt>
</event>
<event>
 5    1  0.3289127E-002  0.1249982E+03  0.7818608E-02  0.1235072E+00
         -4   -1    0    0    0  501 -0.00000000000E+00  0.00000000000E+00  0.39123915504E+02  0.39144522788E+02  0.12700000000E+01 0. -1.
          4   -1    0    0  501    0  0.00000000000E+00 -0.00000000000E+00 -0.99789272345E+02  0.99797353548E+02  0.12700000000E+01 0. -1.
         25    2    1    2    0    0  0.00000000000E+00  0.00000000000E+00 -0.60665356842E+02  0.13894187634E+03  0.12499823790E+03 0.  0.
    9000005    1    3    3    0    0  0.30517298168E+02 -0.20957093199E+02 -0.86293869639E+02  0.93904936931E+02  0.10000000000E+01 0.  0.
    9000005    1    3    3    0    0 -0.30517298168E+02  0.20957093199E+02  0.25628512797E+02  0.45036939405E+02  0.10000000000E+01 0.  0.
<mgrwt>
<rscale>  0 0.12499824E+03</rscale>
<asrwt>0</asrwt>
<pdfrwt beam="2">  1        4 0.15354402E-01 0.12499824E+03</pdfrwt>
<pdfrwt beam="1">  1       -4 0.60212708E-02 0.12499824E+03</pdfrwt>
<totfact> 0.10155966E+04</totfact>
</mgrwt>
</event>
<event>
 5    1  0.3289127E-002  0.1249989E+03  0.7818608E-02  0.1235071E+00
          4   -1    0    0  501    0  0.00000000000E+00  0.00000000000E+00  0.13520728045E+03  0.13521324486E+03  0.12700000000E+01 0.  1.
         -4   -1    0    0    0  501 -0.00000000000E+00 -0.00000000000E+00 -0.28869756799E+02  0.28897677375E+02  0.12700000000E+01 0.  1.
         25    2    1    2    0    0  0.00000000000E+00  0.00000000000E+00  0.10633752365E+03  0.16411092224E+03  0.12499890344E+03 0.  0.
    9000005    1    3    3    0    0  0.15082803357E+02  0.15784814417E+02  0.13004378662E+03  0.13186750078E+03  0.10000000000E+01 0.  0.
    9000005    1    3    3    0    0 -0.15082803357E+02 -0.15784814417E+02 -0.23706262971E+02  0.32243421458E+02  0.10000000000E+01 0.  0.
<mgrwt>
<rscale>  0 0.12499890E+03</rscale>
<asrwt>0</asrwt>
<pdfrwt beam="1">  1        4 0.20803726E-01 0.12499890E+03</pdfrwt>
<pdfrwt beam="2">  1       -4 0.44441076E-02 0.12499890E+03</pdfrwt>
<totfact> 0.96558414E+03</totfact>
</mgrwt>
</event>
<event>
 5    1  0.3289127E-002  0.1249997E+03  0.7818608E-02  0.1235070E+00
         -4   -1    0    0    0  501 -0.00000000000E+00  0.00000000000E+00  0.16932069591E+02  0.16979631346E+02  0.12700000000E+01 0.  1.
          4   -1    0    0  501    0  0.00000000000E+00 -0.00000000000E+00 -0.23032722217E+03  0.23033072347E+03  0.12700000000E+01 0.  1.
         25    2    1    2    0    0  0.00000000000E+00  0.00000000000E+00 -0.21339515258E+03  0.24731035481E+03  0.12499968181E+03 0.  0.
    9000005    1    3    3    0    0 -0.29918378349E+01  0.38934722361E+02 -0.10169133530E+02  0.40364278461E+02  0.10000000000E+01 0.  0.
    9000005    1    3    3    0    0  0.29918378349E+01 -0.38934722361E+02 -0.20322601905E+03  0.20694607635E+03  0.10000000000E+01 0.  0.
<mgrwt>
<rscale>  0 0.12499968E+03</rscale>
<asrwt>0</asrwt>
<pdfrwt beam="2">  1        4 0.35438883E-01 0.12499968E+03</pdfrwt>
<pdfrwt beam="1">  1       -4 0.26088619E-02 0.12499968E+03</pdfrwt>
<totfact> 0.82721113E+03</totfact>
</mgrwt>
</event>
<event>
 5    1  0.3289127E-002  0.1249995E+03  0.7818608E-02  0.1235070E+00
         -4   -1    0    0    0  501 -0.00000000000E+00  0.00000000000E+00  0.99247433722E+03  0.99247514978E+03  0.12700000000E+01 0.  1.
          4   -1    0    0  501    0  0.00000000000E+00 -0.00000000000E+00 -0.38325567241E+01  0.40374981168E+01  0.12700000000E+01 0.  1.
         25    2    1    2    0    0  0.00000000000E+00  0.00000000000E+00  0.98864178050E+03  0.99651264790E+03  0.12499954914E+03 0.  0.
    9000005    1    3    3    0    0  0.48234268094E+02  0.37976839513E+02  0.40120147674E+03  0.40587240593E+03  0.10000000000E+01 0.  0.
    9000005    1    3    3    0    0 -0.48234268094E+02 -0.37976839513E+02  0.58744030376E+03  0.59064024197E+03  0.10000000000E+01 0.  0.
<mgrwt>
<rscale>  0 0.12499955E+03</rscale>
<asrwt>0</asrwt>
<pdfrwt beam="2">  1        4 0.60545089E-03 0.12499955E+03</pdfrwt>
<pdfrwt beam="1">  1       -4 0.15270430E+00 0.12499955E+03</pdfrwt>
<totfact> 0.30720184E+03</totfact>
</mgrwt>
</event>
<event>
 4    1  0.3289127E-002  0.1203388E+03  0.7818608E-02  0.1242539E+00
         -4   -1    0    0    0  501 -0.00000000000E+00  0.00000000000E+00  0.15045024719E+02  0.15098532008E+02  0.12700000000E+01 0. -1.
          4   -1    0    0  501    0  0.00000000000E+00 -0.00000000000E+00 -0.24015261024E+03  0.24015596829E+03  0.12700000000E+01 0. -1.
    9000005    1    1    2    0    0  0.17009720924E+02  0.47909693080E+01  0.94264839059E+01  0.20053493253E+02  0.10000000000E+01 0.  0.
    9000005    1    1    2    0    0 -0.17009720924E+02 -0.47909693080E+01 -0.23453406943E+03  0.23520100705E+03  0.10000000000E+01 0.  0.
<mgrwt>
<rscale>  0 0.12033883E+03</rscale>
<asrwt>0</asrwt>
<pdfrwt beam="2">  1        4 0.36950927E-01 0.12033883E+03</pdfrwt>
<pdfrwt beam="1">  1       -4 0.23189936E-02 0.12033883E+03</pdfrwt>
<totfact> 0.90657283E+03</totfact>
</mgrwt>
</event>
<event>
 5    1  0.3289127E-002  0.1250099E+03  0.7818608E-02  0.1235054E+00
          4   -1    0    0  501    0  0.00000000000E+00  0.00000000000E+00  0.12162105807E+02  0.12228234446E+02  0.12700000000E+01 0. -1.
         -4   -1    0    0    0  501 -0.00000000000E+00 -0.00000000000E+00 -0.32029477622E+03  0.32029729404E+03  0.12700000000E+01 0. -1.
         25    2    1    2    0    0  0.00000000000E+00  0.00000000000E+00 -0.30813267041E+03  0.33252552849E+03  0.12500993770E+03 0.  0.
    9000005    1    3    3    0    0 -0.45114577951E+02 -0.92621370126E+01 -0.26644146860E+03  0.27039446835E+03  0.10000000000E+01 0.  0.
    9000005    1    3    3    0    0  0.45114577951E+02  0.92621370126E+01 -0.41691201813E+02  0.62131060142E+02  0.10000000000E+01 0.  0.
<mgrwt>
<rscale>  0 0.12500994E+03</rscale>
<asrwt>0</asrwt>
<pdfrwt beam="1">  1        4 0.18763739E-02 0.12500994E+03</pdfrwt>
<pdfrwt beam="2">  1       -4 0.49281394E-01 0.12500994E+03</pdfrwt>
<totfact> 0.71674958E+03</totfact>
</mgrwt>
</event>
<event>
 5    1  0.3289127E-002  0.1249882E+03  0.7818608E-02  0.1235088E+00
         -4   -1    0    0    0  501 -0.00000000000E+00  0.00000000000E+00  0.19240125306E+02  0.19281994756E+02  0.12700000000E+01 0. -1.
          4   -1    0    0  501    0  0.00000000000E+00 -0.00000000000E+00 -0.20272327840E+03  0.20272725644E+03  0.12700000000E+01 0. -1.
         25    2    1    2    0    0  0.00000000000E+00  0.00000000000E+00 -0.18348315309E+03  0.22200925120E+03  0.12498816003E+03 0.  0.
    9000005    1    3    3    0    0 -0.12562793370E+02 -0.39142818711E+02 -0.17532931773E+03  0.18008707252E+03  0.10000000000E+01 0.  0.
    9000005    1    3    3    0    0  0.12562793370E+02  0.39142818711E+02 -0.81538353628E+01  0.41922178677E+02  0.10000000000E+01 0.  0.
<mgrwt>
<rscale>  0 0.12498816E+03</rscale>
<asrwt>0</asrwt>
<pdfrwt beam="2">  1        4 0.31191722E-01 0.12498816E+03</pdfrwt>
<pdfrwt beam="1">  1       -4 0.29635461E-02 0.12498816E+03</pdfrwt>
<totfact> 0.86574297E+03</totfact>
</mgrwt>
</event>
<event>
 5    1  0.3289127E-002  0.1250008E+03  0.7818608E-02  0.1235068E+00
         -4   -1    0    0    0  501 -0.00000000000E+00  0.00000000000E+00  0.14265181385E+03  0.14265746701E+03  0.12700000000E+01 0. -1.
          4   -1    0    0  501    0  0.00000000000E+00 -0.00000000000E+00 -0.27362513535E+02  0.27391970484E+02  0.12700000000E+01 0. -1.
         25    2    1    2    0    0  0.00000000000E+00  0.00000000000E+00  0.11528930031E+03  0.17004943749E+03  0.12500075370E+03 0.  0.
    9000005    1    3    3    0    0 -0.35596352648E+02 -0.18856281444E+02  0.12263981292E+03  0.12908982681E+03  0.10000000000E+01 0.  0.
    9000005    1    3    3    0    0  0.35596352648E+02  0.18856281444E+02 -0.73505126131E+01  0.40959610684E+02  0.10000000000E+01 0.  0.
<mgrwt>
<rscale>  0 0.12500075E+03</rscale>
<asrwt>0</asrwt>
<pdfrwt beam="2">  1        4 0.42123182E-02 0.12500075E+03</pdfrwt>
<pdfrwt beam="1">  1       -4 0.21949134E-01 0.12500075E+03</pdfrwt>
<totfact> 0.95437808E+03</totfact>
</mgrwt>
</event>
<event>
 5    1  0.3289127E-002  0.1250041E+03  0.7818608E-02  0.1235063E+00
         -4   -1    0    0    0  501 -0.00000000000E+00  0.00000000000E+00  0.71608723425E+02  0.71619984436E+02  0.12700000000E+01 0. -1.
          4   -1    0    0  501    0  0.00000000000E+00 -0.00000000000E+00 -0.54530577251E+02  0.54545364197E+02  0.12700000000E+01 0. -1.
         25    2    1    2    0    0  0.00000000000E+00  0.00000000000E+00  0.17078146174E+02  0.12616534863E+03  0.12500412841E+03 0.  0.
    9000005    1    3    3    0    0  0.13511026418E+02  0.39659073969E+02 -0.38261038438E+02  0.56747661143E+02  0.10000000000E+01 0.  0.
    9000005    1    3    3    0    0 -0.13511026418E+02 -0.39659073969E+02  0.55339184611E+02  0.69417687489E+02  0.10000000000E+01 0.  0.
<mgrwt>
<rscale>  0 0.12500413E+03</rscale>
<asrwt>0</asrwt>
<pdfrwt beam="2">  1        4 0.83913233E-02 0.12500413E+03</pdfrwt>
<pdfrwt beam="1">  1       -4 0.11018730E-01 0.12500413E+03</pdfrwt>
<totfact> 0.10426365E+04</totfact>
</mgrwt>
</event>
<event>
 5    1  0.3289127E-002  0.1249702E+03  0.7818608E-02  0.1235116E+00
         -4   -1    0    0    0  501 -0.00000000000E+00  0.00000000000E+00  0.30715074598E+02  0.30741319223E+02  0.12700000000E+01 0. -1.
          4   -1    0    0  501    0  0.00000000000E+00 -0.00000000000E+00 -0.12703253345E+03  0.12703888167E+03  0.12700000000E+01 0. -1.
         25    2    1    2    0    0  0.00000000000E+00  0.00000000000E+00 -0.96317458854E+02  0.15778020089E+03  0.12497015209E+03 0.  0.
    9000005    1    3    3    0    0 -0.32480978940E+02  0.25942591860E+02 -0.10704459229E+03  0.11483717518E+03  0.10000000000E+01 0.  0.
    9000005    1    3    3    0    0  0.32480978940E+02 -0.25942591860E+02  0.10727133434E+02  0.42943025709E+02  0.10000000000E+01 0.  0.
<mgrwt>
<rscale>  0 0.12497015E+03</rscale>
<asrwt>0</asrwt>
<pdfrwt beam="2">  1        4 0.19545974E-01 0.12497015E+03</pdfrwt>
<pdfrwt beam="1">  1       -4 0.47279033E-02 0.12497015E+03</pdfrwt>
<totfact> 0.97838100E+03</totfact>
</mgrwt>
</event>
<event>
 5    1  0.3289127E-002  0.1249981E+03  0.7818608E-02  0.1235072E+00
          4   -1    0    0  501    0  0.00000000000E+00  0.00000000000E+00  0.83892992870E+01  0.84848831769E+01  0.12700000000E+01 0. -1.
         -4   -1    0    0    0  501 -0.00000000000E+00 -0.00000000000E+00 -0.46287461577E+03  0.46287635803E+03  0.12700000000E+01 0. -1.
         25    2    1    2    0    0  0.00000000000E+00  0.00000000000E+00 -0.45448531648E+03  0.47136124120E+03  0.12499806724E+03 0.  0.
    9000005    1    3    3    0    0 -0.51593728327E+02  0.76597477901E+01 -0.35702819314E+03  0.36081950507E+03  0.10000000000E+01 0.  0.
    9000005    1    3    3    0    0  0.51593728327E+02 -0.76597477901E+01 -0.97457123335E+02  0.11054173613E+03  0.10000000000E+01 0.  0.
<mgrwt>
<rscale>  0 0.12499807E+03</rscale>
<asrwt>0</asrwt>
<pdfrwt beam="1">  1        4 0.12981484E-02 0.12499807E+03</pdfrwt>
<pdfrwt beam="2">  1       -4 0.71218946E-01 0.12499807E+03</pdfrwt>
<totfact> 0.58159410E+03</totfact>
</mgrwt>
</event>
<event>
 5    1  0.3289127E-002  0.1250068E+03  0.7818608E-02  0.1235059E+00
          4   -1    0    0  501    0  0.00000000000E+00  0.00000000000E+00  0.69717380486E+02  0.69728946944E+02  0.12700000000E+01 0. -1.
         -4   -1    0    0    0  501 -0.00000000000E+00 -0.00000000000E+00 -0.56012461937E+02  0.56026857776E+02  0.12700000000E+01 0. -1.
         25    2    1    2    0    0  0.00000000000E+00  0.00000000000E+00  0.13704918549E+02  0.12575580472E+03  0.12500679033E+03 0.  0.
    9000005    1    3    3    0    0  0.41924349778E+02 -0.46227097847E+02  0.10200875008E+02  0.63242814063E+02  0.10000000000E+01 0.  0.
    9000005    1    3    3    0    0 -0.41924349778E+02  0.46227097847E+02  0.35040435407E+01  0.62512990657E+02  0.10000000000E+01 0.  0.
<mgrwt>
<rscale>  0 0.12500679E+03</rscale>
<asrwt>0</asrwt>
<pdfrwt beam="1">  1        4 0.10727748E-01 0.12500679E+03</pdfrwt>
<pdfrwt beam="2">  1       -4 0.86192989E-02 0.12500679E+03</pdfrwt>
<totfact> 0.10434718E+04</totfact>
</mgrwt>
</event>
<event>
 5    1  0.3289127E-002  0.1250020E+03  0.7818608E-02  0.1235066E+00
          4   -1    0    0  501    0  0.00000000000E+00  0.00000000000E+00  0.85275300595E+01  0.86215815786E+01  0.12700000000E+01 0. -1.
         -4   -1    0    0    0  501 -0.00000000000E+00 -0.00000000000E+00 -0.45548249199E+03  0.45548426252E+03  0.12700000000E+01 0. -1.
         25    2    1    2    0    0  0.00000000000E+00  0.00000000000E+00 -0.44695496193E+03  0.46410584410E+03  0.12500198614E+03 0.  0.
    9000005    1    3    3    0    0 -0.45551114476E+02 -0.21659592894E+02 -0.86489592119E+02  0.10012737657E+03  0.10000000000E+01 0.  0.
    9000005    1    3    3    0    0  0.45551114476E+02  0.21659592894E+02 -0.36046536981E+03  0.36397846753E+03  0.10000000000E+01 0.  0.
<mgrwt>
<rscale>  0 0.12500199E+03</rscale>
<asrwt>0</asrwt>
<pdfrwt beam="1">  1        4 0.13192990E-02 0.12500199E+03</pdfrwt>
<pdfrwt beam="2">  1       -4 0.70081581E-01 0.12500199E+03</pdfrwt>
<totfact> 0.58758431E+03</totfact>
</mgrwt>
</event>
<event>
 5    1  0.3289127E-002  0.1250016E+03  0.7818608E-02  0.1235067E+00
         -4   -1    0    0    0  501 -0.00000000000E+00  0.00000000000E+00  0.69692938506E+02  0.69704509019E+02  0.12700000000E+01 0. -1.
          4   -1    0    0  501    0  0.00000000000E+00 -0.00000000000E+00 -0.56027408364E+02  0.56041800363E+02  0.12700000000E+01 0. -1.
         25    2    1    2    0    0  0.00000000000E+00  0.00000000000E+00  0.13665530142E+02  0.12574630938E+03  0.12500155043E+03 0.  0.
    9000005    1    3    3    0    0 -0.40337055394E+02 -0.42053617883E+02 -0.15879665568E+02  0.60404872266E+02  0.10000000000E+01 0.  0.
    9000005    1    3    3    0    0  0.40337055394E+02  0.42053617883E+02  0.29545195710E+02  0.65341437117E+02  0.10000000000E+01 0.  0.
<mgrwt>
<rscale>  0 0.12500155E+03</rscale>
<asrwt>0</asrwt>
<pdfrwt beam="2">  1        4 0.86215984E-02 0.12500155E+03</pdfrwt>
<pdfrwt beam="1">  1       -4 0.10723988E-01 0.12500155E+03</pdfrwt>
<totfact> 0.10436160E+04</totfact>
</mgrwt>
</event>
<event>
 5    1  0.3289127E-002  0.1249992E+03  0.7818608E-02  0.1235070E+00
         -4   -1    0    0    0  501 -0.00000000000E+00  0.00000000000E+00  0.75557266687E+01  0.76617168762E+01  0.12700000000E+01 0. -1.
          4   -1    0    0  501    0  0.00000000000E+00 -0.00000000000E+00 -0.51327803467E+03  0.51327960584E+03  0.12700000000E+01 0. -1.
         25    2    1    2    0    0  0.00000000000E+00  0.00000000000E+00 -0.50572230800E+03  0.52094132272E+03  0.12499923562E+03 0.  0.
    9000005    1    3    3    0    0  0.90560591044E+01 -0.61390560235E+02 -0.28359645875E+03  0.29030805106E+03  0.10000000000E+01 0.  0.
    9000005    1    3    3    0    0 -0.90560591044E+01  0.61390560235E+02 -0.22212584925E+03  0.23063327166E+03  0.10000000000E+01 0.  0.
<mgrwt>
<rscale>  0 0.12499924E+03</rscale>
<asrwt>0</asrwt>
<pdfrwt beam="2">  1        4 0.78974098E-01 0.12499924E+03</pdfrwt>
<pdfrwt beam="1">  1       -4 0.11706938E-02 0.12499924E+03</pdfrwt>
<totfact> 0.54276337E+03</totfact>
</mgrwt>
</event>
<event>
 5    1  0.3289127E-002  0.1249975E+03  0.7818608E-02  0.1235073E+00
         -4   -1    0    0    0  501 -0.00000000000E+00  0.00000000000E+00  0.28446236368E+03  0.28446519866E+03  0.12700000000E+01 0. -1.
          4   -1    0    0  501    0  0.00000000000E+00 -0.00000000000E+00 -0.13699214926E+02  0.13757957319E+02  0.12700000000E+01 0. -1.
         25    2    1    2    0    0  0.00000000000E+00  0.00000000000E+00  0.27076314876E+03  0.29822315598E+03  0.12499747214E+03 0.  0.
    9000005    1    3    3    0    0  0.60476816805E+02  0.14515385122E+02  0.14988426987E+03  0.16227888381E+03  0.10000000000E+01 0.  0.
    9000005    1    3    3    0    0 -0.60476816805E+02 -0.14515385122E+02  0.12087887888E+03  0.13594427217E+03  0.10000000000E+01 0.  0.
<mgrwt>
<rscale>  0 0.12499747E+03</rscale>
<asrwt>0</asrwt>
<pdfrwt beam="2">  1        4 0.21123083E-02 0.12499747E+03</pdfrwt>
<pdfrwt beam="1">  1       -4 0.43768176E-01 0.12499747E+03</pdfrwt>
<totfact> 0.75826519E+03</totfact>
</mgrwt>
</event>
<event>
 5    1  0.3289127E-002  0.1250013E+03  0.7818608E-02  0.1235067E+00
         -4   -1    0    0    0  501 -0.00000000000E+00  0.00000000000E+00  0.44541567846E+02  0.44559669727E+02  0.12700000000E+01 0.  1.
          4   -1    0    0  501    0  0.00000000000E+00 -0.00000000000E+00 -0.87660260535E+02  0.87669459774E+02  0.12700000000E+01 0.  1.
         25    2    1    2    0    0  0.00000000000E+00  0.00000000000E+00 -0.43118692689E+02  0.13222912950E+03  0.12500128411E+03 0.  0.
    9000005    1    3    3    0    0 -0.57850188481E+02  0.20239346029E+02 -0.86446059639E+01  0.61903187698E+02  0.10000000000E+01 0.  0.
    9000005    1    3    3    0    0  0.57850188481E+02 -0.20239346029E+02 -0.34474086725E+02  0.70325941803E+02  0.10000000000E+01 0.  0.
<mgrwt>
<rscale>  0 0.12500128E+03</rscale>
<asrwt>0</asrwt>
<pdfrwt beam="2">  1        4 0.13488294E-01 0.12500128E+03</pdfrwt>
<pdfrwt beam="1">  1       -4 0.68546490E-02 0.12500128E+03</pdfrwt>
<totfact> 0.10296512E+04</totfact>
</mgrwt>
</event>
<event>
 5    1  0.3289127E-002  0.1250011E+03  0.7818608E-02  0.1235067E+00
          4   -1    0    0  501    0  0.00000000000E+00  0.00000000000E+00  0.86894567303E+01  0.87817742095E+01  0.12700000000E+01 0. -1.
         -4   -1    0    0    0  501 -0.00000000000E+00 -0.00000000000E+00 -0.44707867860E+03  0.44708048241E+03  0.12700000000E+01 0. -1.
         25    2    1    2    0    0  0.00000000000E+00  0.00000000000E+00 -0.43838922187E+03  0.45586225662E+03  0.12500114866E+03 0.  0.
    9000005    1    3    3    0    0 -0.52006977652E+02 -0.15015669517E+01 -0.34543836698E+03  0.34933600703E+03  0.10000000000E+01 0.  0.
    9000005    1    3    3    0    0  0.52006977652E+02  0.15015669517E+01 -0.92950854884E+02  0.10652624959E+03  0.10000000000E+01 0.  0.
<mgrwt>
<rscale>  0 0.12500115E+03</rscale>
<asrwt>0</asrwt>
<pdfrwt beam="1">  1        4 0.13440799E-02 0.12500115E+03</pdfrwt>
<pdfrwt beam="2">  1       -4 0.68788557E-01 0.12500115E+03</pdfrwt>
<totfact> 0.59457795E+03</totfact>
</mgrwt>
</event>
<event>
 5    1  0.3289127E-002  0.1250012E+03  0.7818608E-02  0.1235067E+00
          4   -1    0    0  501    0  0.00000000000E+00  0.00000000000E+00  0.33536495917E+02  0.33560534238E+02  0.12700000000E+01 0.  1.
         -4   -1    0    0    0  501 -0.00000000000E+00 -0.00000000000E+00 -0.11641058794E+03  0.11641751537E+03  0.12700000000E+01 0.  1.
         25    2    1    2    0    0  0.00000000000E+00  0.00000000000E+00 -0.82874092028E+02  0.14997804961E+03  0.12500120094E+03 0.  0.
    9000005    1    3    3    0    0  0.48013124120E+02 -0.35793897042E+02 -0.62861750222E+02  0.86827776628E+02  0.10000000000E+01 0.  0.
    9000005    1    3    3    0    0 -0.48013124120E+02  0.35793897042E+02 -0.20012341806E+02  0.63150272983E+02  0.10000000000E+01 0.  0.
<mgrwt>
<rscale>  0 0.12500120E+03</rscale>
<asrwt>0</asrwt>
<pdfrwt beam="1">  1        4 0.51618429E-02 0.12500120E+03</pdfrwt>
<pdfrwt beam="2">  1       -4 0.17911703E-01 0.12500120E+03</pdfrwt>
<totfact> 0.99305390E+03</totfact>
</mgrwt>
</event>
<event>
 5    1  0.3289127E-002  0.1249995E+03  0.7818608E-02  0.1235070E+00
          4   -1    0    0  501    0  0.00000000000E+00  0.00000000000E+00  0.68671245195E+02  0.68682987826E+02  0.12700000000E+01 0.  1.
         -4   -1    0    0    0  501 -0.00000000000E+00 -0.00000000000E+00 -0.56859194011E+02  0.56873375525E+02  0.12700000000E+01 0.  1.
         25    2    1    2    0    0  0.00000000000E+00  0.00000000000E+00  0.11812051184E+02  0.12555636335E+03  0.12499950330E+03 0.  0.
    9000005    1    3    3    0    0  0.47911183700E+01  0.55801657646E+02  0.33750253570E+02  0.65397702003E+02  0.10000000000E+01 0.  0.
    9000005    1    3    3    0    0 -0.47911183700E+01 -0.55801657646E+02 -0.21938202386E+02  0.60158661348E+02  0.10000000000E+01 0.  0.
<mgrwt>
<rscale>  0 0.12499950E+03</rscale>
<asrwt>0</asrwt>
<pdfrwt beam="1">  1        4 0.10566801E-01 0.12499950E+03</pdfrwt>
<pdfrwt beam="2">  1       -4 0.87495625E-02 0.12499950E+03</pdfrwt>
<totfact> 0.10440826E+04</totfact>
</mgrwt>
</event>
<event>
 5    1  0.3289127E-002  0.1249995E+03  0.7818608E-02  0.1235070E+00
          4   -1    0    0  501    0  0.00000000000E+00  0.00000000000E+00  0.11640769124E+03  0.11641461884E+03  0.12700000000E+01 0.  1.
         -4   -1    0    0    0  501 -0.00000000000E+00 -0.00000000000E+00 -0.33536400486E+02  0.33560438876E+02  0.12700000000E+01 0.  1.
         25    2    1    2    0    0  0.00000000000E+00  0.00000000000E+00  0.82871290756E+02  0.14997505772E+03  0.12499946842E+03 0.  0.
    9000005    1    3    3    0    0  0.52547157243E+02 -0.33621719070E+02  0.37012111950E+02  0.72543229584E+02  0.10000000000E+01 0.  0.
    9000005    1    3    3    0    0 -0.52547157243E+02  0.33621719070E+02  0.45859178806E+02  0.77431828135E+02  0.10000000000E+01 0.  0.
<mgrwt>
<rscale>  0 0.12499947E+03</rscale>
<asrwt>0</asrwt>
<pdfrwt beam="1">  1        4 0.17911257E-01 0.12499947E+03</pdfrwt>
<pdfrwt beam="2">  1       -4 0.51618283E-02 0.12499947E+03</pdfrwt>
<totfact> 0.99309858E+03</totfact>
</mgrwt>
</event>
<event>
 5    1  0.3289127E-002  0.1250036E+03  0.7818608E-02  0.1235064E+00
         -4   -1    0    0    0  501 -0.00000000000E+00  0.00000000000E+00  0.17013343886E+03  0.17013817890E+03  0.12700000000E+01 0.  1.
          4   -1    0    0  501    0  0.00000000000E+00 -0.00000000000E+00 -0.22938609908E+02  0.22973739890E+02  0.12700000000E+01 0.  1.
         25    2    1    2    0    0  0.00000000000E+00  0.00000000000E+00  0.14719482895E+03  0.19311191879E+03  0.12500358198E+03 0.  0.
    9000005    1    3    3    0    0  0.31782806723E+02  0.28474139903E+02  0.30643384532E+01  0.42793850219E+02  0.10000000000E+01 0.  0.
    9000005    1    3    3    0    0 -0.31782806723E+02 -0.28474139903E+02  0.14413049050E+03  0.15031806857E+03  0.10000000000E+01 0.  0.
<mgrwt>
<rscale>  0 0.12500358E+03</rscale>
<asrwt>0</asrwt>
<pdfrwt beam="2">  1        4 0.35320838E-02 0.12500358E+03</pdfrwt>
<pdfrwt beam="1">  1       -4 0.26177442E-01 0.12500358E+03</pdfrwt>
<totfact> 0.91301329E+03</totfact>
</mgrwt>
</event>
<event>
 5    1  0.3289127E-002  0.1250008E+03  0.7818608E-02  0.1235068E+00
         -4   -1    0    0    0  501 -0.00000000000E+00  0.00000000000E+00  0.39740568515E+02  0.39760856201E+02  0.12700000000E+01 0.  1.
          4   -1    0    0  501    0  0.00000000000E+00 -0.00000000000E+00 -0.98245499275E+02  0.98253707451E+02  0.12700000000E+01 0.  1.
         25    2    1    2    0    0  0.00000000000E+00  0.00000000000E+00 -0.58504930761E+02  0.13801456365E+03  0.12500077143E+03 0.  0.
    9000005    1    3    3    0    0  0.46193944656E+00 -0.15922421068E+02 -0.95971771858E+02  0.97289865219E+02  0.10000000000E+01 0.  0.
    9000005    1    3    3    0    0 -0.46193944656E+00  0.15922421068E+02  0.37466841097E+02  0.40724698434E+02  0.10000000000E+01 0.  0.
<mgrwt>
<rscale>  0 0.12500077E+03</rscale>
<asrwt>0</asrwt>
<pdfrwt beam="2">  1        4 0.15116884E-01 0.12500077E+03</pdfrwt>
<pdfrwt beam="1">  1       -4 0.61161257E-02 0.12500077E+03</pdfrwt>
<totfact> 0.10174725E+04</totfact>
</mgrwt>
</event>
<event>
 5    1  0.3289127E-002  0.1249885E+03  0.7818608E-02  0.1235087E+00
         -4   -1    0    0    0  501 -0.00000000000E+00  0.00000000000E+00  0.96858978217E+01  0.97688032334E+01  0.12700000000E+01 0.  1.
          4   -1    0    0  501    0  0.00000000000E+00 -0.00000000000E+00 -0.40141578863E+03  0.40141779764E+03  0.12700000000E+01 0.  1.
         25    2    1    2    0    0  0.00000000000E+00  0.00000000000E+00 -0.39172989081E+03  0.41118660087E+03  0.12498845300E+03 0.  0.
    9000005    1    3    3    0    0  0.13545440614E+02  0.60769828505E+02 -0.17843295613E+03  0.18898616576E+03  0.10000000000E+01 0.  0.
    9000005    1    3    3    0    0 -0.13545440614E+02 -0.60769828505E+02 -0.21329693468E+03  0.22220043511E+03  0.10000000000E+01 0.  0.
<mgrwt>
<rscale>  0 0.12498845E+03</rscale>
<asrwt>0</asrwt>
<pdfrwt beam="2">  1        4 0.61762794E-01 0.12498845E+03</pdfrwt>
<pdfrwt beam="1">  1       -4 0.14966703E-02 0.12498845E+03</pdfrwt>
<totfact> 0.63495326E+03</totfact>
</mgrwt>
</event>
<event>
 5    1  0.3289127E-002  0.1250008E+03  0.7818608E-02  0.1235068E+00
          4   -1    0    0  501    0  0.00000000000E+00  0.00000000000E+00  0.13866604087E+02  0.13924640351E+02  0.12700000000E+01 0. -1.
         -4   -1    0    0    0  501 -0.00000000000E+00 -0.00000000000E+00 -0.28105793210E+03  0.28106080142E+03  0.12700000000E+01 0. -1.
         25    2    1    2    0    0  0.00000000000E+00  0.00000000000E+00 -0.26719132801E+03  0.29498544177E+03  0.12500082037E+03 0.  0.
    9000005    1    3    3    0    0 -0.59206252468E+02 -0.15044484644E+02 -0.10250406228E+03  0.11933063158E+03  0.10000000000E+01 0.  0.
    9000005    1    3    3    0    0  0.59206252468E+02  0.15044484644E+02 -0.16468726573E+03  0.17565481019E+03  0.10000000000E+01 0.  0.
<mgrwt>
<rscale>  0 0.12500082E+03</rscale>
<asrwt>0</asrwt>
<pdfrwt beam="1">  1        4 0.21380090E-02 0.12500082E+03</pdfrwt>
<pdfrwt beam="2">  1       -4 0.43244363E-01 0.12500082E+03</pdfrwt>
<totfact> 0.76230805E+03</totfact>
</mgrwt>
</event>
<event>
 5    1  0.3289127E-002  0.1249991E+03  0.7818608E-02  0.1235071E+00
         -4   -1    0    0    0  501 -0.00000000000E+00  0.00000000000E+00  0.23729707950E+02  0.23763668475E+02  0.12700000000E+01 0.  1.
          4   -1    0    0  501    0  0.00000000000E+00 -0.00000000000E+00 -0.16445790983E+03  0.16446281345E+03  0.12700000000E+01 0.  1.
         25    2    1    2    0    0  0.00000000000E+00  0.00000000000E+00 -0.14072820188E+03  0.18822648192E+03  0.12499912676E+03 0.  0.
    9000005    1    3    3    0    0  0.18601365151E+02  0.56965064076E+01  0.19061141491E+02  0.27254138873E+02  0.10000000000E+01 0.  0.
    9000005    1    3    3    0    0 -0.18601365151E+02 -0.56965064076E+01 -0.15978934338E+03  0.16097234305E+03  0.10000000000E+01 0.  0.
<mgrwt>
<rscale>  0 0.12499913E+03</rscale>
<asrwt>0</asrwt>
<pdfrwt beam="2">  1        4 0.25304206E-01 0.12499913E+03</pdfrwt>
<pdfrwt beam="1">  1       -4 0.36537140E-02 0.12499913E+03</pdfrwt>
<totfact> 0.92158623E+03</totfact>
</mgrwt>
</event>
<event>
 5    1  0.3289127E-002  0.1249986E+03  0.7818608E-02  0.1235071E+00
          4   -1    0    0  501    0  0.00000000000E+00  0.00000000000E+00  0.12122432878E+03  0.12123098114E+03  0.12700000000E+01 0. -1.
         -4   -1    0    0    0  501 -0.00000000000E+00 -0.00000000000E+00 -0.32202537530E+02  0.32227570857E+02  0.12700000000E+01 0. -1.
         25    2    1    2    0    0  0.00000000000E+00  0.00000000000E+00  0.89021791246E+02  0.15345855199E+03  0.12499859144E+03 0.  0.
    9000005    1    3    3    0    0 -0.56016426050E+02  0.25910154761E+02  0.56538789945E+02  0.83706695525E+02  0.10000000000E+01 0.  0.
    9000005    1    3    3    0    0  0.56016426050E+02 -0.25910154761E+02  0.32483001301E+02  0.69751856468E+02  0.10000000000E+01 0.  0.
<mgrwt>
<rscale>  0 0.12499859E+03</rscale>
<asrwt>0</asrwt>
<pdfrwt beam="1">  1        4 0.18652334E-01 0.12499859E+03</pdfrwt>
<pdfrwt beam="2">  1       -4 0.49566739E-02 0.12499859E+03</pdfrwt>
<totfact> 0.98621827E+03</totfact>
</mgrwt>
</event>
<event>
 5    1  0.3289127E-002  0.1250026E+03  0.7818608E-02  0.1235065E+00
         -4   -1    0    0    0  501 -0.00000000000E+00  0.00000000000E+00  0.51840074867E+02  0.51855629031E+02  0.12700000000E+01 0.  1.
          4   -1    0    0  501    0  0.00000000000E+00 -0.00000000000E+00 -0.75322801410E+02  0.75333507234E+02  0.12700000000E+01 0.  1.
         25    2    1    2    0    0  0.00000000000E+00  0.00000000000E+00 -0.23482726543E+02  0.12718913627E+03  0.12500255173E+03 0.  0.
    9000005    1    3    3    0    0  0.46058419301E+02  0.33316202370E+01  0.31101368488E+02  0.55684583178E+02  0.10000000000E+01 0.  0.
    9000005    1    3    3    0    0 -0.46058419301E+02 -0.33316202370E+01 -0.54584095030E+02  0.71504553087E+02  0.10000000000E+01 0.  0.
<mgrwt>
<rscale>  0 0.12500255E+03</rscale>
<asrwt>0</asrwt>
<pdfrwt beam="2">  1        4 0.11590143E-01 0.12500255E+03</pdfrwt>
<pdfrwt beam="1">  1       -4 0.79774162E-02 0.12500255E+03</pdfrwt>
<totfact> 0.10404440E+04</totfact>
</mgrwt>
</event>
<event>
 5    1  0.3289127E-002  0.1249994E+03  0.7818608E-02  0.1235070E+00
          4   -1    0    0  501    0  0.00000000000E+00  0.00000000000E+00  0.36395327009E+02  0.36417478332E+02  0.12700000000E+01 0.  1.
         -4   -1    0    0    0  501 -0.00000000000E+00 -0.00000000000E+00 -0.10726878263E+03  0.10727630039E+03  0.12700000000E+01 0.  1.
         25    2    1    2    0    0  0.00000000000E+00  0.00000000000E+00 -0.70873455617E+02  0.14369377873E+03  0.12499942133E+03 0.  0.
    9000005    1    3    3    0    0 -0.39497924296E+02 -0.47340132580E+02 -0.47162175103E+02  0.77630180579E+02  0.10000000000E+01 0.  0.
    9000005    1    3    3    0    0  0.39497924296E+02  0.47340132580E+02 -0.23711280515E+02  0.66063598146E+02  0.10000000000E+01 0.  0.
<mgrwt>
<rscale>  0 0.12499942E+03</rscale>
<asrwt>0</asrwt>
<pdfrwt beam="1">  1        4 0.56015634E-02 0.12499942E+03</pdfrwt>
<pdfrwt beam="2">  1       -4 0.16505172E-01 0.12499942E+03</pdfrwt>
<totfact> 0.10057727E+04</totfact>
</mgrwt>
</event>
<event>
 5    1  0.3289127E-002  0.1249996E+03  0.7818608E-02  0.1235070E+00
          4   -1    0    0  501    0  0.00000000000E+00  0.00000000000E+00  0.13806550596E+03  0.13807134690E+03  0.12700000000E+01 0. -1.
         -4   -1    0    0    0  501 -0.00000000000E+00 -0.00000000000E+00 -0.28271875064E+02  0.28300385503E+02  0.12700000000E+01 0. -1.
         25    2    1    2    0    0  0.00000000000E+00  0.00000000000E+00  0.10979363090E+03  0.16637173241E+03  0.12499964783E+03 0.  0.
    9000005    1    3    3    0    0  0.50127809139E+02 -0.25608732649E+02  0.18773005407E+02  0.59346694676E+02  0.10000000000E+01 0.  0.
    9000005    1    3    3    0    0 -0.50127809139E+02  0.25608732649E+02  0.91020625489E+02  0.10702503773E+03  0.10000000000E+01 0.  0.
<mgrwt>
<rscale>  0 0.12499965E+03</rscale>
<asrwt>0</asrwt>
<pdfrwt beam="1">  1        4 0.21243490E-01 0.12499965E+03</pdfrwt>
<pdfrwt beam="2">  1       -4 0.43521616E-02 0.12499965E+03</pdfrwt>
<totfact> 0.96128997E+03</totfact>
</mgrwt>
</event>
<event>
 5    1  0.3289127E-002  0.1249991E+03  0.7818608E-02  0.1235071E+00
         -4   -1    0    0    0  501 -0.00000000000E+00  0.00000000000E+00  0.90318506970E+02  0.90327435485E+02  0.12700000000E+01 0.  1.
          4   -1    0    0  501    0  0.00000000000E+00 -0.00000000000E+00 -0.43228674409E+02  0.43247325826E+02  0.12700000000E+01 0.  1.
         25    2    1    2    0    0  0.00000000000E+00  0.00000000000E+00  0.47089832561E+02  0.13357476131E+03  0.12499905811E+03 0.  0.
    9000005    1    3    3    0    0 -0.28245436279E+02 -0.55450766820E+02  0.29646172691E+02  0.68938289555E+02  0.10000000000E+01 0.  0.
    9000005    1    3    3    0    0  0.28245436279E+02  0.55450766820E+02  0.17443659870E+02  0.64636471756E+02  0.10000000000E+01 0.  0.
<mgrwt>
<rscale>  0 0.12499906E+03</rscale>
<asrwt>0</asrwt>
<pdfrwt beam="2">  1        4 0.66526868E-02 0.12499906E+03</pdfrwt>
<pdfrwt beam="1">  1       -4 0.13897277E-01 0.12499906E+03</pdfrwt>
<totfact> 0.10268417E+04</totfact>
</mgrwt>
</event>
<event>
 5    1  0.3289127E-002  0.1249625E+03  0.7818608E-02  0.1235128E+00
          4   -1    0    0  501    0  0.00000000000E+00  0.00000000000E+00  0.76205871886E+01  0.77256876133E+01  0.12700000000E+01 0.  1.
         -4   -1    0    0    0  501 -0.00000000000E+00 -0.00000000000E+00 -0.50866951314E+03  0.50867109854E+03  0.12700000000E+01 0.  1.
         25    2    1    2    0    0  0.00000000000E+00  0.00000000000E+00 -0.50104892595E+03  0.51639678616E+03  0.12496245260E+03 0.  0.
    9000005    1    3    3    0    0 -0.42902234472E+02  0.45355573894E+02 -0.25992408179E+03  0.26731864526E+03  0.10000000000E+01 0.  0.
    9000005    1    3    3    0    0  0.42902234472E+02 -0.45355573894E+02 -0.24112484416E+03  0.24907814090E+03  0.10000000000E+01 0.  0.
<mgrwt>
<rscale>  0 0.12496245E+03</rscale>
<asrwt>0</asrwt>
<pdfrwt beam="1">  1        4 0.11806050E-02 0.12496245E+03</pdfrwt>
<pdfrwt beam="2">  1       -4 0.78265028E-01 0.12496245E+03</pdfrwt>
<totfact> 0.54659351E+03</totfact>
</mgrwt>
</event>
<event>
 5    1  0.3289127E-002  0.1250024E+03  0.7818608E-02  0.1235065E+00
         -4   -1    0    0    0  501 -0.00000000000E+00  0.00000000000E+00  0.34766152112E+02  0.34789340791E+02  0.12700000000E+01 0. -1.
          4   -1    0    0  501    0  0.00000000000E+00 -0.00000000000E+00 -0.11229797037E+03  0.11230515148E+03  0.12700000000E+01 0. -1.
         25    2    1    2    0    0  0.00000000000E+00  0.00000000000E+00 -0.77531818260E+02  0.14709449227E+03  0.12500242723E+03 0.  0.
    9000005    1    3    3    0    0 -0.59338018287E+02 -0.19318617499E+02 -0.42702658625E+02  0.75622261602E+02  0.10000000000E+01 0.  0.
    9000005    1    3    3    0    0  0.59338018287E+02  0.19318617499E+02 -0.34829159635E+02  0.71472230671E+02  0.10000000000E+01 0.  0.
<mgrwt>
<rscale>  0 0.12500243E+03</rscale>
<asrwt>0</asrwt>
<pdfrwt beam="2">  1        4 0.17278947E-01 0.12500243E+03</pdfrwt>
<pdfrwt beam="1">  1       -4 0.53509750E-02 0.12500243E+03</pdfrwt>
<totfact> 0.99880595E+03</totfact>
</mgrwt>
</event>
<event>
 5    1  0.3289127E-002  0.1250024E+03  0.7818608E-02  0.1235066E+00
          4   -1    0    0  501    0  0.00000000000E+00  0.00000000000E+00  0.24082906648E+03  0.24083241509E+03  0.12700000000E+01 0. -1.
         -4   -1    0    0    0  501 -0.00000000000E+00 -0.00000000000E+00 -0.16192304444E+02  0.16242032607E+02  0.12700000000E+01 0. -1.
         25    2    1    2    0    0  0.00000000000E+00  0.00000000000E+00  0.22463676203E+03  0.25707444770E+03  0.12500238720E+03 0.  0.
    9000005    1    3    3    0    0 -0.29525684782E+02 -0.53351718179E+02  0.14045845270E+03  0.15312657781E+03  0.10000000000E+01 0.  0.
    9000005    1    3    3    0    0  0.29525684782E+02  0.53351718179E+02  0.84178309328E+02  0.10394786990E+03  0.10000000000E+01 0.  0.
<mgrwt>
<rscale>  0 0.12500239E+03</rscale>
<asrwt>0</asrwt>
<pdfrwt beam="1">  1        4 0.37054707E-01 0.12500239E+03</pdfrwt>
<pdfrwt beam="2">  1       -4 0.24952067E-02 0.12500239E+03</pdfrwt>
<totfact> 0.81314060E+03</totfact>
</mgrwt>
</event>
<event>
 5    1  0.3289127E-002  0.1250013E+03  0.7818608E-02  0.1235067E+00
         -4   -1    0    0    0  501 -0.00000000000E+00  0.00000000000E+00  0.17286159665E+02  0.17332749810E+02  0.12700000000E+01 0.  1.
          4   -1    0    0  501    0  0.00000000000E+00 -0.00000000000E+00 -0.22562792834E+03  0.22563150256E+03  0.12700000000E+01 0.  1.
         25    2    1    2    0    0  0.00000000000E+00  0.00000000000E+00 -0.20834176868E+03  0.24296425237E+03  0.12500134141E+03 0.  0.
    9000005    1    3    3    0    0 -0.57173135311E+02 -0.24889845387E+02 -0.11219954510E+03  0.12836670022E+03  0.10000000000E+01 0.  0.
    9000005    1    3    3    0    0  0.57173135311E+02  0.24889845387E+02 -0.96142223579E+02  0.11459755215E+03  0.10000000000E+01 0.  0.
<mgrwt>
<rscale>  0 0.12500134E+03</rscale>
<asrwt>0</asrwt>
<pdfrwt beam="2">  1        4 0.34715846E-01 0.12500134E+03</pdfrwt>
<pdfrwt beam="1">  1       -4 0.26632681E-02 0.12500134E+03</pdfrwt>
<totfact> 0.83355375E+03</totfact>
</mgrwt>
</event>
<event>
 5    1  0.3289127E-002  0.1250015E+03  0.7818608E-02  0.1235067E+00
         -4   -1    0    0    0  501 -0.00000000000E+00  0.00000000000E+00  0.84971091864E+01  0.85914937308E+01  0.12700000000E+01 0. -1.
          4   -1    0    0  501    0  0.00000000000E+00 -0.00000000000E+00 -0.45709208285E+03  0.45709384715E+03  0.12700000000E+01 0. -1.
         25    2    1    2    0    0  0.00000000000E+00  0.00000000000E+00 -0.44859497366E+03  0.46568534088E+03  0.12500154526E+03 0.  0.
    9000005    1    3    3    0    0  0.88282850797E+01  0.34233050876E+02 -0.41627521342E+03  0.41777493187E+03  0.10000000000E+01 0.  0.
    9000005    1    3    3    0    0 -0.88282850797E+01 -0.34233050876E+02 -0.32319760243E+02  0.47910409014E+02  0.10000000000E+01 0.  0.
<mgrwt>
<rscale>  0 0.12500155E+03</rscale>
<asrwt>0</asrwt>
<pdfrwt beam="2">  1        4 0.70329236E-01 0.12500155E+03</pdfrwt>
<pdfrwt beam="1">  1       -4 0.13146440E-02 0.12500155E+03</pdfrwt>
<totfact> 0.58626671E+03</totfact>
</mgrwt>
</event>
<event>
 5    1  0.3289127E-002  0.1250013E+03  0.7818608E-02  0.1235067E+00
          4   -1    0    0  501    0  0.00000000000E+00  0.00000000000E+00  0.38096217175E+03  0.38096428862E+03  0.12700000000E+01 0.  1.
         -4   -1    0    0    0  501 -0.00000000000E+00 -0.00000000000E+00 -0.10212371124E+02  0.10291036098E+02  0.12700000000E+01 0.  1.
         25    2    1    2    0    0  0.00000000000E+00  0.00000000000E+00  0.37074980063E+03  0.39125532472E+03  0.12500125782E+03 0.  0.
    9000005    1    3    3    0    0  0.35649611302E+02 -0.34435927419E+01  0.34566617316E+03  0.34751813821E+03  0.10000000000E+01 0.  0.
    9000005    1    3    3    0    0 -0.35649611302E+02  0.34435927419E+01  0.25083627465E+02  0.43737186510E+02  0.10000000000E+01 0.  0.
<mgrwt>
<rscale>  0 0.12500126E+03</rscale>
<asrwt>0</asrwt>
<pdfrwt beam="1">  1        4 0.58615789E-01 0.12500126E+03</pdfrwt>
<pdfrwt beam="2">  1       -4 0.15773477E-02 0.12500126E+03</pdfrwt>
<totfact> 0.65410440E+03</totfact>
</mgrwt>
</event>
<event>
 5    1  0.3289127E-002  0.1249744E+03  0.7818608E-02  0.1235109E+00
         -4   -1    0    0    0  501 -0.00000000000E+00  0.00000000000E+00  0.13683684528E+03  0.13684273867E+03  0.12700000000E+01 0. -1.
          4   -1    0    0  501    0  0.00000000000E+00 -0.00000000000E+00 -0.28514432194E+02  0.28542700351E+02  0.12700000000E+01 0. -1.
         25    2    1    2    0    0  0.00000000000E+00  0.00000000000E+00  0.10832241309E+03  0.16538543902E+03  0.12497439043E+03 0.  0.
    9000005    1    3    3    0    0  0.26991671012E+02 -0.56347055501E+02  0.54597308091E+02  0.82978352709E+02  0.10000000000E+01 0.  0.
    9000005    1    3    3    0    0 -0.26991671012E+02  0.56347055501E+02  0.53725105000E+02  0.82407086315E+02  0.10000000000E+01 0.  0.
<mgrwt>
<rscale>  0 0.12497439E+03</rscale>
<asrwt>0</asrwt>
<pdfrwt beam="2">  1        4 0.43894635E-02 0.12497439E+03</pdfrwt>
<pdfrwt beam="1">  1       -4 0.21054450E-01 0.12497439E+03</pdfrwt>
<totfact> 0.96369875E+03</totfact>
</mgrwt>
</event>
<event>
 5    1  0.3289127E-002  0.1250052E+03  0.7818608E-02  0.1235061E+00
          4   -1    0    0  501    0  0.00000000000E+00  0.00000000000E+00  0.64492076300E+03  0.64492201346E+03  0.12700000000E+01 0. -1.
         -4   -1    0    0    0  501 -0.00000000000E+00 -0.00000000000E+00 -0.59896166702E+01  0.61227777892E+01  0.12700000000E+01 0. -1.
         25    2    1    2    0    0  0.00000000000E+00  0.00000000000E+00  0.63893114633E+03  0.65104479125E+03  0.12500524175E+03 0.  0.
    9000005    1    3    3    0    0 -0.38817064809E+02  0.10159093867E+02  0.56900048262E+03  0.57041434144E+03  0.10000000000E+01 0.  0.
    9000005    1    3    3    0    0  0.38817064809E+02 -0.10159093867E+02  0.69930663715E+02  0.80630449808E+02  0.10000000000E+01 0.  0.
<mgrwt>
<rscale>  0 0.12500524E+03</rscale>
<asrwt>0</asrwt>
<pdfrwt beam="1">  1        4 0.99228892E-01 0.12500524E+03</pdfrwt>
<pdfrwt beam="2">  1       -4 0.93181909E-03 0.12500524E+03</pdfrwt>
<totfact> 0.45790854E+03</totfact>
</mgrwt>
</event>
<event>
 5    1  0.3289127E-002  0.1250068E+03  0.7818608E-02  0.1235059E+00
          4   -1    0    0  501    0  0.00000000000E+00  0.00000000000E+00  0.51867837440E+02  0.51883383281E+02  0.12700000000E+01 0.  1.
         -4   -1    0    0    0  501 -0.00000000000E+00 -0.00000000000E+00 -0.75287654815E+02  0.75298365636E+02  0.12700000000E+01 0.  1.
         25    2    1    2    0    0  0.00000000000E+00  0.00000000000E+00 -0.23419817375E+02  0.12718174892E+03  0.12500683746E+03 0.  0.
    9000005    1    3    3    0    0  0.59074688094E+02 -0.44375013787E+01  0.85403353521E+01  0.59861903744E+02  0.10000000000E+01 0.  0.
    9000005    1    3    3    0    0 -0.59074688094E+02  0.44375013787E+01 -0.31960152727E+02  0.67319845174E+02  0.10000000000E+01 0.  0.
<mgrwt>
<rscale>  0 0.12500684E+03</rscale>
<asrwt>0</asrwt>
<pdfrwt beam="1">  1        4 0.79816871E-02 0.12500684E+03</pdfrwt>
<pdfrwt beam="2">  1       -4 0.11584736E-01 0.12500684E+03</pdfrwt>
<totfact> 0.10403594E+04</totfact>
</mgrwt>
</event>
<event>
 5    1  0.3289127E-002  0.1249993E+03  0.7818608E-02  0.1235070E+00
         -4   -1    0    0    0  501 -0.00000000000E+00  0.00000000000E+00  0.39175937765E+02  0.39196517699E+02  0.12700000000E+01 0.  1.
          4   -1    0    0  501    0  0.00000000000E+00 -0.00000000000E+00 -0.99658437601E+02  0.99666529412E+02  0.12700000000E+01 0.  1.
         25    2    1    2    0    0  0.00000000000E+00  0.00000000000E+00 -0.60482499836E+02  0.13886304711E+03  0.12499925226E+03 0.  0.
    9000005    1    3    3    0    0 -0.39969509765E+01  0.56053269512E+02  0.12664895069E+00  0.56204632194E+02  0.10000000000E+01 0.  0.
    9000005    1    3    3    0    0  0.39969509765E+01 -0.56053269512E+02 -0.60609148787E+02  0.82658414918E+02  0.10000000000E+01 0.  0.
<mgrwt>
<rscale>  0 0.12499925E+03</rscale>
<asrwt>0</asrwt>
<pdfrwt beam="2">  1        4 0.15334273E-01 0.12499925E+03</pdfrwt>
<pdfrwt beam="1">  1       -4 0.60292729E-02 0.12499925E+03</pdfrwt>
<totfact> 0.10157375E+04</totfact>
</mgrwt>
</event>
<event>
 5    1  0.3289127E-002  0.1250048E+03  0.7818608E-02  0.1235062E+00
         -4   -1    0    0    0  501 -0.00000000000E+00  0.00000000000E+00  0.85830908348E+02  0.85840303633E+02  0.12700000000E+01 0.  1.
          4   -1    0    0  501    0  0.00000000000E+00 -0.00000000000E+00 -0.45493774026E+02  0.45511497175E+02  0.12700000000E+01 0.  1.
         25    2    1    2    0    0  0.00000000000E+00  0.00000000000E+00  0.40337134322E+02  0.13135180081E+03  0.12500484459E+03 0.  0.
    9000005    1    3    3    0    0 -0.15037822201E+02  0.59621434963E+02  0.31902523931E+02  0.69279308865E+02  0.10000000000E+01 0.  0.
    9000005    1    3    3    0    0  0.15037822201E+02 -0.59621434963E+02  0.84346103905E+01  0.62072491943E+02  0.10000000000E+01 0.  0.
<mgrwt>
<rscale>  0 0.12500484E+03</rscale>
<asrwt>0</asrwt>
<pdfrwt beam="2">  1        4 0.70011282E-02 0.12500484E+03</pdfrwt>
<pdfrwt beam="1">  1       -4 0.13206841E-01 0.12500484E+03</pdfrwt>
<totfact> 0.10314426E+04</totfact>
</mgrwt>
</event>
<event>
 5    1  0.3289127E-002  0.1250018E+03  0.7818608E-02  0.1235066E+00
         -4   -1    0    0    0  501 -0.00000000000E+00  0.00000000000E+00  0.69126284239E+03  0.69126400902E+03  0.12700000000E+01 0.  1.
          4   -1    0    0  501    0  0.00000000000E+00 -0.00000000000E+00 -0.55785151325E+01  0.57212525799E+01  0.12700000000E+01 0.  1.
         25    2    1    2    0    0  0.00000000000E+00  0.00000000000E+00  0.68568432726E+03  0.69698526160E+03  0.12500183296E+03 0.  0.
    9000005    1    3    3    0    0  0.21109676370E+02 -0.45852722380E+02  0.54826133556E+03  0.55058113177E+03  0.10000000000E+01 0.  0.
    9000005    1    3    3    0    0 -0.21109676370E+02  0.45852722380E+02  0.13742299170E+03  0.14640412984E+03  0.10000000000E+01 0.  0.
<mgrwt>
<rscale>  0 0.12500183E+03</rscale>
<asrwt>0</asrwt>
<pdfrwt beam="2">  1        4 0.86930347E-03 0.12500183E+03</pdfrwt>
<pdfrwt beam="1">  1       -4 0.10635910E+00 0.12500183E+03</pdfrwt>
<totfact> 0.43244610E+03</totfact>
</mgrwt>
</event>
<event>
 5    1  0.3289127E-002  0.1250070E+03  0.7818608E-02  0.1235058E+00
          4   -1    0    0  501    0  0.00000000000E+00  0.00000000000E+00  0.69580006269E+03  0.69580122172E+03  0.12700000000E+01 0. -1.
         -4   -1    0    0    0  501 -0.00000000000E+00 -0.00000000000E+00 -0.55416717782E+01  0.56853342996E+01  0.12700000000E+01 0. -1.
         25    2    1    2    0    0  0.00000000000E+00  0.00000000000E+00  0.69025839091E+03  0.70148655601E+03  0.12500696798E+03 0.  0.
    9000005    1    3    3    0    0 -0.60193748433E+02 -0.10554652934E+02  0.27174881434E+03  0.27853744119E+03  0.10000000000E+01 0.  0.
    9000005    1    3    3    0    0  0.60193748433E+02  0.10554652934E+02  0.41850957657E+03  0.42294911482E+03  0.10000000000E+01 0.  0.
<mgrwt>
<rscale>  0 0.12500697E+03</rscale>
<asrwt>0</asrwt>
<pdfrwt beam="1">  1        4 0.10705718E+00 0.12500697E+03</pdfrwt>
<pdfrwt beam="2">  1       -4 0.86370602E-03 0.12500697E+03</pdfrwt>
<totfact> 0.43001820E+03</totfact>
</mgrwt>
</event>
<event>
 5    1  0.3289127E-002  0.1250026E+03  0.7818608E-02  0.1235065E+00
          4   -1    0    0  501    0  0.00000000000E+00  0.00000000000E+00  0.17286771892E+03  0.17287238398E+03  0.12700000000E+01 0.  1.
         -4   -1    0    0    0  501 -0.00000000000E+00 -0.00000000000E+00 -0.22574897688E+02  0.22610592774E+02  0.12700000000E+01 0.  1.
         25    2    1    2    0    0  0.00000000000E+00  0.00000000000E+00  0.15029282123E+03  0.19548297676E+03  0.12500264833E+03 0.  0.
    9000005    1    3    3    0    0 -0.47965405497E+02  0.31015493108E+02  0.35498612084E+02  0.67259143596E+02  0.10000000000E+01 0.  0.
    9000005    1    3    3    0    0  0.47965405497E+02 -0.31015493108E+02  0.11479420915E+03  0.12822383316E+03  0.10000000000E+01 0.  0.
<mgrwt>
<rscale>  0 0.12500265E+03</rscale>
<asrwt>0</asrwt>
<pdfrwt beam="1">  1        4 0.26598138E-01 0.12500265E+03</pdfrwt>
<pdfrwt beam="2">  1       -4 0.34761659E-02 0.12500265E+03</pdfrwt>
<totfact> 0.90896561E+03</totfact>
</mgrwt>
</event>
<event>
 5    1  0.3289127E-002  0.1250034E+03  0.7818608E-02  0.1235064E+00
         -4   -1    0    0    0  501 -0.00000000000E+00  0.00000000000E+00  0.36553472675E+01  0.38696852128E+01  0.12700000000E+01 0.  1.
          4   -1    0    0  501    0  0.00000000000E+00 -0.00000000000E+00 -0.10380425897E+04  0.10380433666E+04  0.12700000000E+01 0.  1.
         25    2    1    2    0    0  0.00000000000E+00  0.00000000000E+00 -0.10343872425E+04  0.10419130518E+04  0.12500336084E+03 0.  0.
    9000005    1    3    3    0    0  0.24173920207E+01  0.36632423075E+02 -0.95659194117E+02  0.10246687086E+03  0.10000000000E+01 0.  0.
    9000005    1    3    3    0    0 -0.24173920207E+01 -0.36632423075E+02 -0.93872804835E+03  0.93944618098E+03  0.10000000000E+01 0.  0.
<mgrwt>
<rscale>  0 0.12500336E+03</rscale>
<asrwt>0</asrwt>
<pdfrwt beam="2">  1        4 0.15971518E+00 0.12500336E+03</pdfrwt>
<pdfrwt beam="1">  1       -4 0.57890924E-03 0.12500336E+03</pdfrwt>
<totfact> 0.29246524E+03</totfact>
</mgrwt>
</event>
<event>
 5    1  0.3289127E-002  0.1250006E+03  0.7818608E-02  0.1235068E+00
          4   -1    0    0  501    0  0.00000000000E+00  0.00000000000E+00  0.53345117973E+02  0.53360233429E+02  0.12700000000E+01 0. -1.
         -4   -1    0    0    0  501 -0.00000000000E+00 -0.00000000000E+00 -0.73195689419E+02  0.73206706315E+02  0.12700000000E+01 0. -1.
         25    2    1    2    0    0  0.00000000000E+00  0.00000000000E+00 -0.19850571446E+02  0.12656693974E+03  0.12500058020E+03 0.  0.
    9000005    1    3    3    0    0 -0.14689972628E+02 -0.56984752723E+02  0.11367467589E+02  0.59943945967E+02  0.10000000000E+01 0.  0.
    9000005    1    3    3    0    0  0.14689972628E+02  0.56984752723E+02 -0.31218039035E+02  0.66622993777E+02  0.10000000000E+01 0.  0.
<mgrwt>
<rscale>  0 0.12500058E+03</rscale>
<asrwt>0</asrwt>
<pdfrwt beam="1">  1        4 0.82089514E-02 0.12500058E+03</pdfrwt>
<pdfrwt beam="2">  1       -4 0.11262885E-01 0.12500058E+03</pdfrwt>
<totfact> 0.10418432E+04</totfact>
</mgrwt>
</event>
<event>
 5    1  0.3289127E-002  0.1250595E+03  0.7818608E-02  0.1234976E+00
          4   -1    0    0  501    0  0.00000000000E+00  0.00000000000E+00  0.74133798044E+02  0.74144675550E+02  0.12700000000E+01 0.  1.
         -4   -1    0    0    0  501 -0.00000000000E+00 -0.00000000000E+00 -0.52719687449E+02  0.52734982172E+02  0.12700000000E+01 0.  1.
         25    2    1    2    0    0  0.00000000000E+00  0.00000000000E+00  0.21414110595E+02  0.12687965772E+03  0.12505951947E+03 0.  0.
    9000005    1    3    3    0    0  0.53475633635E+02 -0.29333179512E+02  0.24650885033E+02  0.65793198325E+02  0.10000000000E+01 0.  0.
    9000005    1    3    3    0    0 -0.53475633635E+02  0.29333179512E+02 -0.32367744384E+01  0.61086459397E+02  0.10000000000E+01 0.  0.
<mgrwt>
<rscale>  0 0.12505952E+03</rscale>
<asrwt>0</asrwt>
<pdfrwt beam="1">  1        4 0.11407213E-01 0.12505952E+03</pdfrwt>
<pdfrwt beam="2">  1       -4 0.81127344E-02 0.12505952E+03</pdfrwt>
<totfact> 0.10397785E+04</totfact>
</mgrwt>
</event>
<event>
 5    1  0.3289127E-002  0.1249960E+03  0.7818608E-02  0.1235076E+00
          4   -1    0    0  501    0  0.00000000000E+00  0.00000000000E+00  0.13055800055E+03  0.13056417735E+03  0.12700000000E+01 0.  1.
         -4   -1    0    0    0  501 -0.00000000000E+00 -0.00000000000E+00 -0.29897362741E+02  0.29924324535E+02  0.12700000000E+01 0.  1.
         25    2    1    2    0    0  0.00000000000E+00  0.00000000000E+00  0.10066063781E+03  0.16048850189E+03  0.12499598087E+03 0.  0.
    9000005    1    3    3    0    0  0.51193438246E+02 -0.26406723763E+01  0.96217049067E+02  0.10902505126E+03  0.10000000000E+01 0.  0.
    9000005    1    3    3    0    0 -0.51193438246E+02  0.26406723763E+01  0.44435887431E+01  0.51463450632E+02  0.10000000000E+01 0.  0.
<mgrwt>
<rscale>  0 0.12499598E+03</rscale>
<asrwt>0</asrwt>
<pdfrwt beam="1">  1        4 0.20088396E-01 0.12499598E+03</pdfrwt>
<pdfrwt beam="2">  1       -4 0.46021433E-02 0.12499598E+03</pdfrwt>
<totfact> 0.97257473E+03</totfact>
</mgrwt>
</event>
<event>
 5    1  0.3289127E-002  0.1250002E+03  0.7818608E-02  0.1235069E+00
          4   -1    0    0  501    0  0.00000000000E+00  0.00000000000E+00  0.23077950047E+01  0.26341635833E+01  0.12700000000E+01 0. -1.
         -4   -1    0    0    0  501 -0.00000000000E+00 -0.00000000000E+00 -0.15805283839E+04  0.15805288941E+04  0.12700000000E+01 0. -1.
         25    2    1    2    0    0  0.00000000000E+00  0.00000000000E+00 -0.15782205889E+04  0.15831630577E+04  0.12500016051E+03 0.  0.
    9000005    1    3    3    0    0  0.39932408423E+02 -0.39070547095E+02 -0.11437734495E+04  0.11451374628E+04  0.10000000000E+01 0.  0.
    9000005    1    3    3    0    0 -0.39932408423E+02  0.39070547095E+02 -0.43444713940E+03  0.43802559495E+03  0.10000000000E+01 0.  0.
<mgrwt>
<rscale>  0 0.12500016E+03</rscale>
<asrwt>0</asrwt>
<pdfrwt beam="1">  1        4 0.38019117E-03 0.12500016E+03</pdfrwt>
<pdfrwt beam="2">  1       -4 0.24318255E+00 0.12500016E+03</pdfrwt>
<totfact> 0.16352365E+03</totfact>
</mgrwt>
</event>
<event>
 5    1  0.3289127E-002  0.1250006E+03  0.7818608E-02  0.1235068E+00
          4   -1    0    0  501    0  0.00000000000E+00  0.00000000000E+00  0.10073144894E+02  0.10152888656E+02  0.12700000000E+01 0. -1.
         -4   -1    0    0    0  501 -0.00000000000E+00 -0.00000000000E+00 -0.38618222746E+03  0.38618431572E+03  0.12700000000E+01 0. -1.
         25    2    1    2    0    0  0.00000000000E+00  0.00000000000E+00 -0.37610908257E+03  0.39633720438E+03  0.12500055033E+03 0.  0.
    9000005    1    3    3    0    0  0.22604128516E+02 -0.24600839418E+02 -0.35550556187E+03  0.35707331522E+03  0.10000000000E+01 0.  0.
    9000005    1    3    3    0    0 -0.22604128516E+02  0.24600839418E+02 -0.20603520700E+02  0.39263889151E+02  0.10000000000E+01 0.  0.
<mgrwt>
<rscale>  0 0.12500055E+03</rscale>
<asrwt>0</asrwt>
<pdfrwt beam="1">  1        4 0.15560097E-02 0.12500055E+03</pdfrwt>
<pdfrwt beam="2">  1       -4 0.59418934E-01 0.12500055E+03</pdfrwt>
<totfact> 0.64909810E+03</totfact>
</mgrwt>
</event>
<event>
 5    1  0.3289127E-002  0.1250161E+03  0.7818608E-02  0.1235044E+00
         -4   -1    0    0    0  501 -0.00000000000E+00  0.00000000000E+00  0.56574247031E+01  0.57982199226E+01  0.12700000000E+01 0.  1.
          4   -1    0    0  501    0  0.00000000000E+00 -0.00000000000E+00 -0.68201273547E+03  0.68201391792E+03  0.12700000000E+01 0.  1.
         25    2    1    2    0    0  0.00000000000E+00  0.00000000000E+00 -0.67635531076E+03  0.68781213784E+03  0.12501612123E+03 0.  0.
    9000005    1    3    3    0    0  0.36886585439E+02 -0.45520733898E+02 -0.45789688620E+03  0.46163114691E+03  0.10000000000E+01 0.  0.
    9000005    1    3    3    0    0 -0.36886585439E+02  0.45520733898E+02 -0.21845842456E+03  0.22618099093E+03  0.10000000000E+01 0.  0.
<mgrwt>
<rscale>  0 0.12501612E+03</rscale>
<asrwt>0</asrwt>
<pdfrwt beam="2">  1        4 0.10493589E+00 0.12501612E+03</pdfrwt>
<pdfrwt beam="1">  1       -4 0.88129493E-03 0.12501612E+03</pdfrwt>
<totfact> 0.43722525E+03</totfact>
</mgrwt>
</event>
<event>
 5    1  0.3289127E-002  0.1249922E+03  0.7818608E-02  0.1235081E+00
         -4   -1    0    0    0  501 -0.00000000000E+00  0.00000000000E+00  0.61047443379E+02  0.61060652167E+02  0.12700000000E+01 0. -1.
          4   -1    0    0  501    0  0.00000000000E+00 -0.00000000000E+00 -0.63952703574E+02  0.63965312431E+02  0.12700000000E+01 0. -1.
         25    2    1    2    0    0  0.00000000000E+00  0.00000000000E+00 -0.29052601948E+01  0.12502596460E+03  0.12499220490E+03 0.  0.
    9000005    1    3    3    0    0 -0.24988536774E+02 -0.26115955930E+02 -0.52439848648E+02  0.63697785287E+02  0.10000000000E+01 0.  0.
    9000005    1    3    3    0    0  0.24988536774E+02  0.26115955930E+02  0.49534588453E+02  0.61328179310E+02  0.10000000000E+01 0.  0.
<mgrwt>
<rscale>  0 0.12499220E+03</rscale>
<asrwt>0</asrwt>
<pdfrwt beam="2">  1        4 0.98408634E-02 0.12499220E+03</pdfrwt>
<pdfrwt beam="1">  1       -4 0.93939004E-02 0.12499220E+03</pdfrwt>
<totfact> 0.10454140E+04</totfact>
</mgrwt>
</event>
<event>
 5    1  0.3289127E-002  0.1249991E+03  0.7818608E-02  0.1235071E+00
          4   -1    0    0  501    0  0.00000000000E+00  0.00000000000E+00  0.66208177913E+01  0.67415226934E+01  0.12700000000E+01 0. -1.
         -4   -1    0    0    0  501 -0.00000000000E+00 -0.00000000000E+00 -0.58453538691E+03  0.58453676655E+03  0.12700000000E+01 0. -1.
         25    2    1    2    0    0  0.00000000000E+00  0.00000000000E+00 -0.57791456912E+03  0.59127828925E+03  0.12499906453E+03 0.  0.
    9000005    1    3    3    0    0  0.12872917373E+02 -0.38888855719E+02 -0.65724189298E+02  0.77451430972E+02  0.10000000000E+01 0.  0.
    9000005    1    3    3    0    0 -0.12872917373E+02  0.38888855719E+02 -0.51219037982E+03  0.51382685827E+03  0.10000000000E+01 0.  0.
<mgrwt>
<rscale>  0 0.12499906E+03</rscale>
<asrwt>0</asrwt>
<pdfrwt beam="1">  1        4 0.10279789E-02 0.12499906E+03</pdfrwt>
<pdfrwt beam="2">  1       -4 0.89937872E-01 0.12499906E+03</pdfrwt>
<totfact> 0.49423849E+03</totfact>
</mgrwt>
</event>
<event>
 5    1  0.3289127E-002  0.1249988E+03  0.7818608E-02  0.1235071E+00
         -4   -1    0    0    0  501 -0.00000000000E+00  0.00000000000E+00  0.30222219554E+02  0.30248891794E+02  0.12700000000E+01 0.  1.
          4   -1    0    0  501    0  0.00000000000E+00 -0.00000000000E+00 -0.12916165472E+03  0.12916789830E+03  0.12700000000E+01 0.  1.
         25    2    1    2    0    0  0.00000000000E+00  0.00000000000E+00 -0.98939435166E+02  0.15941679009E+03  0.12499880452E+03 0.  0.
    9000005    1    3    3    0    0  0.19571382080E+02  0.56022085907E+02 -0.74450307738E+02  0.95212191594E+02  0.10000000000E+01 0.  0.
    9000005    1    3    3    0    0 -0.19571382080E+02 -0.56022085907E+02 -0.24489127428E+02  0.64204598496E+02  0.10000000000E+01 0.  0.
<mgrwt>
<rscale>  0 0.12499880E+03</rscale>
<asrwt>0</asrwt>
<pdfrwt beam="2">  1        4 0.19873556E-01 0.12499880E+03</pdfrwt>
<pdfrwt beam="1">  1       -4 0.46521043E-02 0.12499880E+03</pdfrwt>
<totfact> 0.97457960E+03</totfact>
</mgrwt>
</event>
<event>
 5    1  0.3289127E-002  0.1249970E+03  0.7818608E-02  0.1235074E+00
          4   -1    0    0  501    0  0.00000000000E+00  0.00000000000E+00  0.56817190575E+02  0.56831382570E+02  0.12700000000E+01 0.  1.
         -4   -1    0    0    0  501 -0.00000000000E+00 -0.00000000000E+00 -0.68719259333E+02  0.68730993760E+02  0.12700000000E+01 0.  1.
         25    2    1    2    0    0  0.00000000000E+00  0.00000000000E+00 -0.11902068758E+02  0.12556237633E+03  0.12499700440E+03 0.  0.
    9000005    1    3    3    0    0  0.20079924053E+02 -0.58697145311E+02 -0.13501985663E+02  0.63496943505E+02  0.10000000000E+01 0.  0.
    9000005    1    3    3    0    0 -0.20079924053E+02  0.58697145311E+02  0.15999169048E+01  0.62065432825E+02  0.10000000000E+01 0.  0.
<mgrwt>
<rscale>  0 0.12499700E+03</rscale>
<asrwt>0</asrwt>
<pdfrwt beam="1">  1        4 0.87431006E-02 0.12499700E+03</pdfrwt>
<pdfrwt beam="2">  1       -4 0.10574188E-01 0.12499700E+03</pdfrwt>
<totfact> 0.10441282E+04</totfact>
</mgrwt>
</event>
<event>
 5    1  0.3289127E-002  0.1250026E+03  0.7818608E-02  0.1235065E+00
          4   -1    0    0  501    0  0.00000000000E+00  0.00000000000E+00  0.13348407969E+02  0.13408687308E+02  0.12700000000E+01 0.  1.
         -4   -1    0    0    0  501 -0.00000000000E+00 -0.00000000000E+00 -0.29192896183E+03  0.29193172430E+03  0.12700000000E+01 0.  1.
         25    2    1    2    0    0  0.00000000000E+00  0.00000000000E+00 -0.27858055386E+03  0.30534041161E+03  0.12500256787E+03 0.  0.
    9000005    1    3    3    0    0  0.17149000035E+02 -0.24540266401E+02 -0.52968512594E+01  0.30419886760E+02  0.10000000000E+01 0.  0.
    9000005    1    3    3    0    0 -0.17149000035E+02  0.24540266401E+02 -0.27328370260E+03  0.27492052485E+03  0.10000000000E+01 0.  0.
<mgrwt>
<rscale>  0 0.12500257E+03</rscale>
<asrwt>0</asrwt>
<pdfrwt beam="1">  1        4 0.20584508E-02 0.12500257E+03</pdfrwt>
<pdfrwt beam="2">  1       -4 0.44916992E-01 0.12500257E+03</pdfrwt>
<totfact> 0.74929526E+03</totfact>
</mgrwt>
</event>
<event>
 5    1  0.3289127E-002  0.1250099E+03  0.7818608E-02  0.1235054E+00
          4   -1    0    0  501    0  0.00000000000E+00  0.00000000000E+00  0.27237887628E+03  0.27238183703E+03  0.12700000000E+01 0.  1.
         -4   -1    0    0    0  501 -0.00000000000E+00 -0.00000000000E+00 -0.14312342449E+02  0.14368578440E+02  0.12700000000E+01 0.  1.
         25    2    1    2    0    0  0.00000000000E+00  0.00000000000E+00  0.25806653383E+03  0.28675041547E+03  0.12500985917E+03 0.  0.
    9000005    1    3    3    0    0  0.83780237806E+01  0.29422199106E+01 -0.12869236852E+02  0.15667328989E+02  0.10000000000E+01 0.  0.
    9000005    1    3    3    0    0 -0.83780237806E+01 -0.29422199106E+01  0.27093577068E+03  0.27108308648E+03  0.10000000000E+01 0.  0.
<mgrwt>
<rscale>  0 0.12500986E+03</rscale>
<asrwt>0</asrwt>
<pdfrwt beam="1">  1        4 0.41908996E-01 0.12500986E+03</pdfrwt>
<pdfrwt beam="2">  1       -4 0.22064524E-02 0.12500986E+03</pdfrwt>
<totfact> 0.77274549E+03</totfact>
</mgrwt>
</event>
<event>
 5    1  0.3289127E-002  0.1249991E+03  0.7818608E-02  0.1235071E+00
         -4   -1    0    0    0  501 -0.00000000000E+00  0.00000000000E+00  0.42071209708E+02  0.42090374034E+02  0.12700000000E+01 0. -1.
          4   -1    0    0  501    0  0.00000000000E+00 -0.00000000000E+00 -0.92802556872E+02  0.92811246419E+02  0.12700000000E+01 0. -1.
         25    2    1    2    0    0  0.00000000000E+00  0.00000000000E+00 -0.50731347164E+02  0.13490162045E+03  0.12499911046E+03 0.  0.
    9000005    1    3    3    0    0  0.32604261302E+02  0.20236517716E+02  0.27863430555E+02  0.47433377136E+02  0.10000000000E+01 0.  0.
    9000005    1    3    3    0    0 -0.32604261302E+02 -0.20236517716E+02 -0.78594777718E+02  0.87468243317E+02  0.10000000000E+01 0.  0.
<mgrwt>
<rscale>  0 0.12499911E+03</rscale>
<asrwt>0</asrwt>
<pdfrwt beam="2">  1        4 0.14279459E-01 0.12499911E+03</pdfrwt>
<pdfrwt beam="1">  1       -4 0.64746364E-02 0.12499911E+03</pdfrwt>
<totfact> 0.10240350E+04</totfact>
</mgrwt>
</event>
<event>
 5    1  0.3289127E-002  0.1249988E+03  0.7818608E-02  0.1235071E+00
          4   -1    0    0  501    0  0.00000000000E+00  0.00000000000E+00  0.50635857472E+01  0.52204214983E+01  0.12700000000E+01 0. -1.
         -4   -1    0    0    0  501 -0.00000000000E+00 -0.00000000000E+00 -0.75950276940E+03  0.75950383121E+03  0.12700000000E+01 0. -1.
         25    2    1    2    0    0  0.00000000000E+00  0.00000000000E+00 -0.75443918365E+03  0.76472425271E+03  0.12499880341E+03 0.  0.
    9000005    1    3    3    0    0 -0.23962326523E+02 -0.19228655781E+02 -0.71013652022E+03  0.71080152760E+03  0.10000000000E+01 0.  0.
    9000005    1    3    3    0    0  0.23962326523E+02  0.19228655781E+02 -0.44302663433E+02  0.53922725105E+02  0.10000000000E+01 0.  0.
<mgrwt>
<rscale>  0 0.12499880E+03</rscale>
<asrwt>0</asrwt>
<pdfrwt beam="1">  1        4 0.79115976E-03 0.12499880E+03</pdfrwt>
<pdfrwt beam="2">  1       -4 0.11685864E+00 0.12499880E+03</pdfrwt>
<totfact> 0.39880653E+03</totfact>
</mgrwt>
</event>
<event>
 5    1  0.3289127E-002  0.1250067E+03  0.7818608E-02  0.1235059E+00
          4   -1    0    0  501    0  0.00000000000E+00  0.00000000000E+00  0.36113697054E+02  0.36136021016E+02  0.12700000000E+01 0. -1.
         -4   -1    0    0    0  501 -0.00000000000E+00 -0.00000000000E+00 -0.10811740414E+03  0.10812486290E+03  0.12700000000E+01 0. -1.
         25    2    1    2    0    0  0.00000000000E+00  0.00000000000E+00 -0.72003707085E+02  0.14426088392E+03  0.12500667500E+03 0.  0.
    9000005    1    3    3    0    0 -0.23829851053E+02  0.33442394198E+02  0.18365014831E+02  0.44994769703E+02  0.10000000000E+01 0.  0.
    9000005    1    3    3    0    0  0.23829851053E+02 -0.33442394198E+02 -0.90368721916E+02  0.99266114216E+02  0.10000000000E+01 0.  0.
<mgrwt>
<rscale>  0 0.12500668E+03</rscale>
<asrwt>0</asrwt>
<pdfrwt beam="1">  1        4 0.55582444E-02 0.12500668E+03</pdfrwt>
<pdfrwt beam="2">  1       -4 0.16635738E-01 0.12500668E+03</pdfrwt>
<totfact> 0.10044517E+04</totfact>
</mgrwt>
</event>
<event>
 5    1  0.3289127E-002  0.1250022E+03  0.7818608E-02  0.1235066E+00
          4   -1    0    0  501    0  0.00000000000E+00  0.00000000000E+00  0.85912395704E+03  0.85912489572E+03  0.12700000000E+01 0.  1.
         -4   -1    0    0    0  501 -0.00000000000E+00 -0.00000000000E+00 -0.44573001071E+01  0.46346978591E+01  0.12700000000E+01 0.  1.
         25    2    1    2    0    0  0.00000000000E+00  0.00000000000E+00  0.85466665693E+03  0.86375959358E+03  0.12500216415E+03 0.  0.
    9000005    1    3    3    0    0 -0.24605852791E+02 -0.27318223535E+02  0.78147827132E+02  0.86370227591E+02  0.10000000000E+01 0.  0.
    9000005    1    3    3    0    0  0.24605852791E+02  0.27318223535E+02  0.77651882980E+03  0.77738936599E+03  0.10000000000E+01 0.  0.
<mgrwt>
<rscale>  0 0.12500216E+03</rscale>
<asrwt>0</asrwt>
<pdfrwt beam="1">  1        4 0.13218659E+00 0.12500216E+03</pdfrwt>
<pdfrwt beam="2">  1       -4 0.69945689E-03 0.12500216E+03</pdfrwt>
<totfact> 0.35569121E+03</totfact>
</mgrwt>
</event>
<event>
 5    1  0.3289127E-002  0.1250025E+03  0.7818608E-02  0.1235065E+00
          4   -1    0    0  501    0  0.00000000000E+00  0.00000000000E+00  0.60601912922E+02  0.60615218797E+02  0.12700000000E+01 0.  1.
         -4   -1    0    0    0  501 -0.00000000000E+00 -0.00000000000E+00 -0.64433426721E+02  0.64445941525E+02  0.12700000000E+01 0.  1.
         25    2    1    2    0    0  0.00000000000E+00  0.00000000000E+00 -0.38315137989E+01  0.12506116032E+03  0.12500245327E+03 0.  0.
    9000005    1    3    3    0    0 -0.33502945452E+02  0.36514915259E+02  0.36175959749E+02  0.61363559660E+02  0.10000000000E+01 0.  0.
    9000005    1    3    3    0    0  0.33502945452E+02 -0.36514915259E+02 -0.40007473548E+02  0.63697600662E+02  0.10000000000E+01 0.  0.
<mgrwt>
<rscale>  0 0.12500245E+03</rscale>
<asrwt>0</asrwt>
<pdfrwt beam="1">  1        4 0.93253575E-02 0.12500245E+03</pdfrwt>
<pdfrwt beam="2">  1       -4 0.99148211E-02 0.12500245E+03</pdfrwt>
<totfact> 0.10450955E+04</totfact>
</mgrwt>
</event>
<event>
 5    1  0.3289127E-002  0.1250015E+03  0.7818608E-02  0.1235067E+00
         -4   -1    0    0    0  501 -0.00000000000E+00  0.00000000000E+00  0.20342143309E+02  0.20381749052E+02  0.12700000000E+01 0.  1.
          4   -1    0    0  501    0  0.00000000000E+00 -0.00000000000E+00 -0.19180347666E+03  0.19180768117E+03  0.12700000000E+01 0.  1.
         25    2    1    2    0    0  0.00000000000E+00  0.00000000000E+00 -0.17146133335E+03  0.21218943023E+03  0.12500146186E+03 0.  0.
    9000005    1    3    3    0    0  0.29858921234E+02  0.51257642504E+02 -0.11910017790E+03  0.13305921039E+03  0.10000000000E+01 0.  0.
    9000005    1    3    3    0    0 -0.29858921234E+02 -0.51257642504E+02 -0.52361155444E+02  0.79130219839E+02  0.10000000000E+01 0.  0.
<mgrwt>
<rscale>  0 0.12500146E+03</rscale>
<asrwt>0</asrwt>
<pdfrwt beam="2">  1        4 0.29511596E-01 0.12500146E+03</pdfrwt>
<pdfrwt beam="1">  1       -4 0.31329307E-02 0.12500146E+03</pdfrwt>
<totfact> 0.88116683E+03</totfact>
</mgrwt>
</event>
<event>
 5    1  0.3289127E-002  0.1249997E+03  0.7818608E-02  0.1235070E+00
          4   -1    0    0  501    0  0.00000000000E+00  0.00000000000E+00  0.15179945850E+03  0.15180477100E+03  0.12700000000E+01 0. -1.
         -4   -1    0    0    0  501 -0.00000000000E+00 -0.00000000000E+00 -0.25711395741E+02  0.25742742102E+02  0.12700000000E+01 0. -1.
         25    2    1    2    0    0  0.00000000000E+00  0.00000000000E+00  0.12608806275E+03  0.17754751311E+03  0.12499967936E+03 0.  0.
    9000005    1    3    3    0    0 -0.54745038999E+02  0.98189955399E+01  0.22574359718E+02  0.60033604632E+02  0.10000000000E+01 0.  0.
    9000005    1    3    3    0    0  0.54745038999E+02 -0.98189955399E+01  0.10351370304E+03  0.11751390847E+03  0.10000000000E+01 0.  0.
<mgrwt>
<rscale>  0 0.12499968E+03</rscale>
<asrwt>0</asrwt>
<pdfrwt beam="1">  1        4 0.23356583E-01 0.12499968E+03</pdfrwt>
<pdfrwt beam="2">  1       -4 0.39584192E-02 0.12499968E+03</pdfrwt>
<totfact> 0.94061007E+03</totfact>
</mgrwt>
</event>
<event>
 5    1  0.3289127E-002  0.1250083E+03  0.7818608E-02  0.1235056E+00
          4   -1    0    0  501    0  0.00000000000E+00  0.00000000000E+00  0.79082777983E+01  0.80096040936E+01  0.12700000000E+01 0.  1.
         -4   -1    0    0    0  501 -0.00000000000E+00 -0.00000000000E+00 -0.49076362375E+03  0.49076526700E+03  0.12700000000E+01 0.  1.
         25    2    1    2    0    0  0.00000000000E+00  0.00000000000E+00 -0.48285534595E+03  0.49877487110E+03  0.12500834741E+03 0.  0.
    9000005    1    3    3    0    0 -0.45496822096E+02 -0.23002993494E+02 -0.97199851699E+02  0.10976297054E+03  0.10000000000E+01 0.  0.
    9000005    1    3    3    0    0  0.45496822096E+02  0.23002993494E+02 -0.38565549425E+03  0.38901190056E+03  0.10000000000E+01 0.  0.
<mgrwt>
<rscale>  0 0.12500835E+03</rscale>
<asrwt>0</asrwt>
<pdfrwt beam="1">  1        4 0.12245792E-02 0.12500835E+03</pdfrwt>
<pdfrwt beam="2">  1       -4 0.75509993E-01 0.12500835E+03</pdfrwt>
<totfact> 0.55949287E+03</totfact>
</mgrwt>
</event>
<event>
 5    1  0.3289127E-002  0.1249973E+03  0.7818608E-02  0.1235073E+00
         -4   -1    0    0    0  501 -0.00000000000E+00  0.00000000000E+00  0.13270577851E+02  0.13331209116E+02  0.12700000000E+01 0. -1.
          4   -1    0    0  501    0  0.00000000000E+00 -0.00000000000E+00 -0.29360859268E+03  0.29361133935E+03  0.12700000000E+01 0. -1.
         25    2    1    2    0    0  0.00000000000E+00  0.00000000000E+00 -0.28033801483E+03  0.30694254847E+03  0.12499730198E+03 0.  0.
    9000005    1    3    3    0    0  0.42650897198E+02 -0.23634768665E+02 -0.23613779607E+03  0.24112187800E+03  0.10000000000E+01 0.  0.
    9000005    1    3    3    0    0 -0.42650897198E+02  0.23634768665E+02 -0.44200218765E+02  0.65820670465E+02  0.10000000000E+01 0.  0.
<mgrwt>
<rscale>  0 0.12499730E+03</rscale>
<asrwt>0</asrwt>
<pdfrwt beam="2">  1        4 0.45175423E-01 0.12499730E+03</pdfrwt>
<pdfrwt beam="1">  1       -4 0.20465028E-02 0.12499730E+03</pdfrwt>
<totfact> 0.74740626E+03</totfact>
</mgrwt>
</event>
<event>
 5    1  0.3289127E-002  0.1249909E+03  0.7818608E-02  0.1235083E+00
          4   -1    0    0  501    0  0.00000000000E+00  0.00000000000E+00  0.75473461165E+02  0.75484145622E+02  0.12700000000E+01 0. -1.
         -4   -1    0    0    0  501 -0.00000000000E+00 -0.00000000000E+00 -0.51726956975E+02  0.51742545143E+02  0.12700000000E+01 0. -1.
         25    2    1    2    0    0  0.00000000000E+00  0.00000000000E+00  0.23746504190E+02  0.12722669076E+03  0.12499093720E+03 0.  0.
    9000005    1    3    3    0    0 -0.54358345622E+02 -0.30634425573E+02  0.84386060621E+01  0.62972278355E+02  0.10000000000E+01 0.  0.
    9000005    1    3    3    0    0  0.54358345622E+02  0.30634425573E+02  0.15307898128E+02  0.64254412409E+02  0.10000000000E+01 0.  0.
<mgrwt>
<rscale>  0 0.12499094E+03</rscale>
<asrwt>0</asrwt>
<pdfrwt beam="1">  1        4 0.11613323E-01 0.12499094E+03</pdfrwt>
<pdfrwt beam="2">  1       -4 0.79600144E-02 0.12499094E+03</pdfrwt>
<totfact> 0.10406353E+04</totfact>
</mgrwt>
</event>
<event>
 5    1  0.3289127E-002  0.1249958E+03  0.7818608E-02  0.1235076E+00
          4   -1    0    0  501    0  0.00000000000E+00  0.00000000000E+00  0.48313733592E+02  0.48330422651E+02  0.12700000000E+01 0.  1.
         -4   -1    0    0    0  501 -0.00000000000E+00 -0.00000000000E+00 -0.80810669543E+02  0.80820648426E+02  0.12700000000E+01 0.  1.
         25    2    1    2    0    0  0.00000000000E+00  0.00000000000E+00 -0.32496935951E+02  0.12915107108E+03  0.12499579318E+03 0.  0.
    9000005    1    3    3    0    0  0.49608461335E+02 -0.30334783840E+02  0.73987801393E+01  0.58625425322E+02  0.10000000000E+01 0.  0.
    9000005    1    3    3    0    0 -0.49608461335E+02  0.30334783840E+02 -0.39895716090E+02  0.70525645754E+02  0.10000000000E+01 0.  0.
<mgrwt>
<rscale>  0 0.12499579E+03</rscale>
<asrwt>0</asrwt>
<pdfrwt beam="1">  1        4 0.74349335E-02 0.12499579E+03</pdfrwt>
<pdfrwt beam="2">  1       -4 0.12434462E-01 0.12499579E+03</pdfrwt>
<totfact> 0.10363686E+04</totfact>
</mgrwt>
</event>
<event>
 5    1  0.3289127E-002  0.1249928E+03  0.7818608E-02  0.1235081E+00
         -4   -1    0    0    0  501 -0.00000000000E+00  0.00000000000E+00  0.77420819222E+03  0.77420923387E+03  0.12700000000E+01 0. -1.
          4   -1    0    0  501    0  0.00000000000E+00 -0.00000000000E+00 -0.49639045474E+01  0.51237923802E+01  0.12700000000E+01 0. -1.
         25    2    1    2    0    0  0.00000000000E+00  0.00000000000E+00  0.76924428768E+03  0.77933302625E+03  0.12499276650E+03 0.  0.
    9000005    1    3    3    0    0  0.71746628926E+01  0.57737335726E+02  0.24247968214E+03  0.24936413530E+03  0.10000000000E+01 0.  0.
    9000005    1    3    3    0    0 -0.71746628926E+01 -0.57737335726E+02  0.52676460554E+03  0.52996889095E+03  0.10000000000E+01 0.  0.
<mgrwt>
<rscale>  0 0.12499277E+03</rscale>
<asrwt>0</asrwt>
<pdfrwt beam="2">  1        4 0.77605732E-03 0.12499277E+03</pdfrwt>
<pdfrwt beam="1">  1       -4 0.11912125E+00 0.12499277E+03</pdfrwt>
<totfact> 0.39210386E+03</totfact>
</mgrwt>
</event>
<event>
 5    1  0.3289127E-002  0.1250015E+03  0.7818608E-02  0.1235067E+00
         -4   -1    0    0    0  501 -0.00000000000E+00  0.00000000000E+00  0.12284153463E+02  0.12349628590E+02  0.12700000000E+01 0.  1.
          4   -1    0    0  501    0  0.00000000000E+00 -0.00000000000E+00 -0.31708640727E+03  0.31708895057E+03  0.12700000000E+01 0.  1.
         25    2    1    2    0    0  0.00000000000E+00  0.00000000000E+00 -0.30480225381E+03  0.32943857916E+03  0.12500145405E+03 0.  0.
    9000005    1    3    3    0    0  0.36221253754E+02 -0.14134580186E+02 -0.23462530439E+02  0.45423076901E+02  0.10000000000E+01 0.  0.
    9000005    1    3    3    0    0 -0.36221253754E+02  0.14134580186E+02 -0.28133972337E+03  0.28401550226E+03  0.10000000000E+01 0.  0.
<mgrwt>
<rscale>  0 0.12500145E+03</rscale>
<asrwt>0</asrwt>
<pdfrwt beam="2">  1        4 0.48787750E-01 0.12500145E+03</pdfrwt>
<pdfrwt beam="1">  1       -4 0.18951022E-02 0.12500145E+03</pdfrwt>
<totfact> 0.72045100E+03</totfact>
</mgrwt>
</event>
<event>
 5    1  0.3289127E-002  0.1249998E+03  0.7818608E-02  0.1235070E+00
         -4   -1    0    0    0  501 -0.00000000000E+00  0.00000000000E+00  0.80297994419E+02  0.80308037006E+02  0.12700000000E+01 0.  1.
          4   -1    0    0  501    0  0.00000000000E+00 -0.00000000000E+00 -0.48625353721E+02  0.48641935863E+02  0.12700000000E+01 0.  1.
         25    2    1    2    0    0  0.00000000000E+00  0.00000000000E+00  0.31672640698E+02  0.12894997287E+03  0.12499975734E+03 0.  0.
    9000005    1    3    3    0    0  0.87318866367E+01 -0.55080930184E+02  0.44924566209E+02  0.71619629734E+02  0.10000000000E+01 0.  0.
    9000005    1    3    3    0    0 -0.87318866367E+01  0.55080930184E+02 -0.13251925511E+02  0.57330343134E+02  0.10000000000E+01 0.  0.
<mgrwt>
<rscale>  0 0.12499976E+03</rscale>
<asrwt>0</asrwt>
<pdfrwt beam="2">  1        4 0.74828718E-02 0.12499976E+03</pdfrwt>
<pdfrwt beam="1">  1       -4 0.12355586E-01 0.12499976E+03</pdfrwt>
<totfact> 0.10367079E+04</totfact>
</mgrwt>
</event>
<event>
 5    1  0.3289127E-002  0.1250004E+03  0.7818608E-02  0.1235069E+00
          4   -1    0    0  501    0  0.00000000000E+00  0.00000000000E+00  0.25940527763E+02  0.25971597575E+02  0.12700000000E+01 0.  1.
         -4   -1    0    0    0  501 -0.00000000000E+00 -0.00000000000E+00 -0.15046199883E+03  0.15046735856E+03  0.12700000000E+01 0.  1.
         25    2    1    2    0    0  0.00000000000E+00  0.00000000000E+00 -0.12452147107E+03  0.17643895613E+03  0.12500043394E+03 0.  0.
    9000005    1    3    3    0    0  0.56321595970E+02 -0.13921072011E+02 -0.29479765230E+02  0.65084368142E+02  0.10000000000E+01 0.  0.
    9000005    1    3    3    0    0 -0.56321595970E+02  0.13921072011E+02 -0.95041705837E+02  0.11135458799E+03  0.10000000000E+01 0.  0.
<mgrwt>
<rscale>  0 0.12500043E+03</rscale>
<asrwt>0</asrwt>
<pdfrwt beam="1">  1        4 0.39936528E-02 0.12500043E+03</pdfrwt>
<pdfrwt beam="2">  1       -4 0.23150802E-01 0.12500043E+03</pdfrwt>
<totfact> 0.94261041E+03</totfact>
</mgrwt>
</event>
<event>
 5    1  0.3289127E-002  0.1250003E+03  0.7818608E-02  0.1235069E+00
          4   -1    0    0  501    0  0.00000000000E+00  0.00000000000E+00  0.17118500969E+04  0.17118505680E+04  0.12700000000E+01 0.  1.
         -4   -1    0    0    0  501 -0.00000000000E+00 -0.00000000000E+00 -0.21046842850E+01  0.24581692251E+01  0.12700000000E+01 0.  1.
         25    2    1    2    0    0  0.00000000000E+00  0.00000000000E+00  0.17097454126E+04  0.17143087372E+04  0.12500028225E+03 0.  0.
    9000005    1    3    3    0    0 -0.54712505209E+01  0.31365752624E+02  0.15923375848E+04  0.15926561867E+04  0.10000000000E+01 0.  0.
    9000005    1    3    3    0    0  0.54712505209E+01 -0.31365752624E+02  0.11740782778E+03  0.12165255051E+03  0.10000000000E+01 0.  0.
<mgrwt>
<rscale>  0 0.12500028E+03</rscale>
<asrwt>0</asrwt>
<pdfrwt beam="1">  1        4 0.26339034E+00 0.12500028E+03</pdfrwt>
<pdfrwt beam="2">  1       -4 0.35102290E-03 0.12500028E+03</pdfrwt>
<totfact> 0.14070320E+03</totfact>
</mgrwt>
</event>
<event>
 5    1  0.3289127E-002  0.1250018E+03  0.7818608E-02  0.1235066E+00
          4   -1    0    0  501    0  0.00000000000E+00  0.00000000000E+00  0.91859090936E+02  0.91867869723E+02  0.12700000000E+01 0.  1.
         -4   -1    0    0    0  501 -0.00000000000E+00 -0.00000000000E+00 -0.42505310037E+02  0.42524278728E+02  0.12700000000E+01 0.  1.
         25    2    1    2    0    0  0.00000000000E+00  0.00000000000E+00  0.49353780899E+02  0.13439214845E+03  0.12500181549E+03 0.  0.
    9000005    1    3    3    0    0 -0.50934879716E+02  0.27290046640E+02 -0.90682077207E+00  0.57800786683E+02  0.10000000000E+01 0.  0.
    9000005    1    3    3    0    0  0.50934879716E+02 -0.27290046640E+02  0.50260601671E+02  0.76591361769E+02  0.10000000000E+01 0.  0.
<mgrwt>
<rscale>  0 0.12500182E+03</rscale>
<asrwt>0</asrwt>
<pdfrwt beam="1">  1        4 0.14134302E-01 0.12500182E+03</pdfrwt>
<pdfrwt beam="2">  1       -4 0.65414130E-02 0.12500182E+03</pdfrwt>
<totfact> 0.10250479E+04</totfact>
</mgrwt>
</event>
<event>
 5    1  0.3289127E-002  0.1250009E+03  0.7818608E-02  0.1235068E+00
          4   -1    0    0  501    0  0.00000000000E+00  0.00000000000E+00  0.46138577256E+01  0.47854553714E+01  0.12700000000E+01 0.  1.
         -4   -1    0    0    0  501 -0.00000000000E+00 -0.00000000000E+00 -0.83101751519E+03  0.83101848563E+03  0.12700000000E+01 0.  1.
         25    2    1    2    0    0  0.00000000000E+00  0.00000000000E+00 -0.82640365747E+03  0.83580394100E+03  0.12500089086E+03 0.  0.
    9000005    1    3    3    0    0  0.30132560701E+02  0.50178604679E+02 -0.26679565567E+03  0.27314242707E+03  0.10000000000E+01 0.  0.
    9000005    1    3    3    0    0 -0.30132560701E+02 -0.50178604679E+02 -0.55960800180E+03  0.56266151393E+03  0.10000000000E+01 0.  0.
<mgrwt>
<rscale>  0 0.12500089E+03</rscale>
<asrwt>0</asrwt>
<pdfrwt beam="1">  1        4 0.72309939E-03 0.12500089E+03</pdfrwt>
<pdfrwt beam="2">  1       -4 0.12786201E+00 0.12500089E+03</pdfrwt>
<totfact> 0.36714702E+03</totfact>
</mgrwt>
</event>
<event>
 5    1  0.3289127E-002  0.1249996E+03  0.7818608E-02  0.1235070E+00
         -4   -1    0    0    0  501 -0.00000000000E+00  0.00000000000E+00  0.62240498151E+03  0.62240627721E+03  0.12700000000E+01 0. -1.
          4   -1    0    0  501    0  0.00000000000E+00 -0.00000000000E+00 -0.62104518584E+01  0.63389756495E+01  0.12700000000E+01 0. -1.
         25    2    1    2    0    0  0.00000000000E+00  0.00000000000E+00  0.61619452965E+03  0.62874525286E+03  0.12499957847E+03 0.  0.
    9000005    1    3    3    0    0 -0.42909659305E+02 -0.25943125726E+02  0.12050271532E+03  0.13052275293E+03  0.10000000000E+01 0.  0.
    9000005    1    3    3    0    0  0.42909659305E+02  0.25943125726E+02  0.49569181434E+03  0.49822249993E+03  0.10000000000E+01 0.  0.
<mgrwt>
<rscale>  0 0.12499958E+03</rscale>
<asrwt>0</asrwt>
<pdfrwt beam="2">  1        4 0.96544039E-03 0.12499958E+03</pdfrwt>
<pdfrwt beam="1">  1       -4 0.95764584E-01 0.12499958E+03</pdfrwt>
<totfact> 0.47102426E+03</totfact>
</mgrwt>
</event>
<event>
 5    1  0.3289127E-002  0.1249977E+03  0.7818608E-02  0.1235073E+00
          4   -1    0    0  501    0  0.00000000000E+00  0.00000000000E+00  0.38418341147E+02  0.38439326692E+02  0.12700000000E+01 0.  1.
         -4   -1    0    0    0  501 -0.00000000000E+00 -0.00000000000E+00 -0.10162024732E+03  0.10162818293E+03  0.12700000000E+01 0.  1.
         25    2    1    2    0    0  0.00000000000E+00  0.00000000000E+00 -0.63201906175E+02  0.14006750962E+03  0.12499770521E+03 0.  0.
    9000005    1    3    3    0    0 -0.31243231710E+02  0.54087923451E+02 -0.33686396226E+02  0.70974758060E+02  0.10000000000E+01 0.  0.
    9000005    1    3    3    0    0  0.31243231710E+02 -0.54087923451E+02 -0.29515509949E+02  0.69092751563E+02  0.10000000000E+01 0.  0.
<mgrwt>
<rscale>  0 0.12499771E+03</rscale>
<asrwt>0</asrwt>
<pdfrwt beam="1">  1        4 0.59127388E-02 0.12499771E+03</pdfrwt>
<pdfrwt beam="2">  1       -4 0.15636109E-01 0.12499771E+03</pdfrwt>
<totfact> 0.10132711E+04</totfact>
</mgrwt>
</event>
<event>
 5    1  0.3289127E-002  0.1250009E+03  0.7818608E-02  0.1235068E+00
          4   -1    0    0  501    0  0.00000000000E+00  0.00000000000E+00  0.80669198010E+02  0.80679194391E+02  0.12700000000E+01 0.  1.
         -4   -1    0    0    0  501 -0.00000000000E+00 -0.00000000000E+00 -0.48402448535E+02  0.48419107016E+02  0.12700000000E+01 0.  1.
         25    2    1    2    0    0  0.00000000000E+00  0.00000000000E+00  0.32266749475E+02  0.12909830141E+03  0.12500091321E+03 0.  0.
    9000005    1    3    3    0    0  0.12273402923E+02 -0.52591934717E+01 -0.46917005656E+02  0.48790377689E+02  0.10000000000E+01 0.  0.
    9000005    1    3    3    0    0 -0.12273402923E+02  0.52591934717E+01  0.79183755131E+02  0.80307923718E+02  0.10000000000E+01 0.  0.
<mgrwt>
<rscale>  0 0.12500091E+03</rscale>
<asrwt>0</asrwt>
<pdfrwt beam="1">  1        4 0.12412696E-01 0.12500091E+03</pdfrwt>
<pdfrwt beam="2">  1       -4 0.74485810E-02 0.12500091E+03</pdfrwt>
<totfact> 0.10363621E+04</totfact>
</mgrwt>
</event>
<event>
 5    1  0.3289127E-002  0.1249999E+03  0.7818608E-02  0.1235069E+00
         -4   -1    0    0    0  501 -0.00000000000E+00  0.00000000000E+00  0.36583774402E+02  0.36605811690E+02  0.12700000000E+01 0. -1.
          4   -1    0    0  501    0  0.00000000000E+00 -0.00000000000E+00 -0.10671734378E+03  0.10672490040E+03  0.12700000000E+01 0. -1.
         25    2    1    2    0    0  0.00000000000E+00  0.00000000000E+00 -0.70133569383E+02  0.14333071209E+03  0.12499990189E+03 0.  0.
    9000005    1    3    3    0    0  0.39065247578E+02 -0.48139075726E+02 -0.26054136019E+02  0.67255350596E+02  0.10000000000E+01 0.  0.
    9000005    1    3    3    0    0 -0.39065247578E+02  0.48139075726E+02 -0.44079433364E+02  0.76075361490E+02  0.10000000000E+01 0.  0.
<mgrwt>
<rscale>  0 0.12499990E+03</rscale>
<asrwt>0</asrwt>
<pdfrwt beam="2">  1        4 0.16420329E-01 0.12499990E+03</pdfrwt>
<pdfrwt beam="1">  1       -4 0.56305495E-02 0.12499990E+03</pdfrwt>
<totfact> 0.10065038E+04</totfact>
</mgrwt>
</event>
<event>
 5    1  0.3289127E-002  0.1249977E+03  0.7818608E-02  0.1235073E+00
          4   -1    0    0  501    0  0.00000000000E+00  0.00000000000E+00  0.36173430662E+02  0.36195717783E+02  0.12700000000E+01 0.  1.
         -4   -1    0    0    0  501 -0.00000000000E+00 -0.00000000000E+00 -0.10792342257E+03  0.10793089474E+03  0.12700000000E+01 0.  1.
         25    2    1    2    0    0  0.00000000000E+00  0.00000000000E+00 -0.71749991908E+02  0.14412661252E+03  0.12499767637E+03 0.  0.
    9000005    1    3    3    0    0  0.37178089342E+02 -0.49340705431E+02 -0.25034680332E+02  0.66666714025E+02  0.10000000000E+01 0.  0.
    9000005    1    3    3    0    0 -0.37178089342E+02  0.49340705431E+02 -0.46715311576E+02  0.77459898497E+02  0.10000000000E+01 0.  0.
<mgrwt>
<rscale>  0 0.12499768E+03</rscale>
<asrwt>0</asrwt>
<pdfrwt beam="1">  1        4 0.55674324E-02 0.12499768E+03</pdfrwt>
<pdfrwt beam="2">  1       -4 0.16605893E-01 0.12499768E+03</pdfrwt>
<totfact> 0.10049290E+04</totfact>
</mgrwt>
</event>
<event>
 5    1  0.3289127E-002  0.1250009E+03  0.7818608E-02  0.1235068E+00
          4   -1    0    0  501    0  0.00000000000E+00  0.00000000000E+00  0.84548581450E+03  0.84548676833E+03  0.12700000000E+01 0.  1.
         -4   -1    0    0    0  501 -0.00000000000E+00 -0.00000000000E+00 -0.45319441399E+01  0.47065292613E+01  0.12700000000E+01 0.  1.
         25    2    1    2    0    0  0.00000000000E+00  0.00000000000E+00  0.84095387036E+03  0.85019329759E+03  0.12500092478E+03 0.  0.
    9000005    1    3    3    0    0 -0.53088777369E+02 -0.29053498752E+02  0.31449929676E+03  0.32027071632E+03  0.10000000000E+01 0.  0.
    9000005    1    3    3    0    0  0.53088777369E+02  0.29053498752E+02  0.52645457360E+03  0.52992258127E+03  0.10000000000E+01 0.  0.
<mgrwt>
<rscale>  0 0.12500092E+03</rscale>
<asrwt>0</asrwt>
<pdfrwt beam="1">  1        4 0.13008824E+00 0.12500092E+03</pdfrwt>
<pdfrwt beam="2">  1       -4 0.71072519E-03 0.12500092E+03</pdfrwt>
<totfact> 0.36118684E+03</totfact>
</mgrwt>
</event>
<event>
 5    1  0.3289127E-002  0.1250017E+03  0.7818608E-02  0.1235067E+00
          4   -1    0    0  501    0  0.00000000000E+00  0.00000000000E+00  0.96228573656E+02  0.96236953858E+02  0.12700000000E+01 0.  1.
         -4   -1    0    0    0  501 -0.00000000000E+00 -0.00000000000E+00 -0.40574468006E+02  0.40594338940E+02  0.12700000000E+01 0.  1.
         25    2    1    2    0    0  0.00000000000E+00  0.00000000000E+00  0.55654105650E+02  0.13683129280E+03  0.12500169284E+03 0.  0.
    9000005    1    3    3    0    0 -0.30985797195E+02  0.46145234572E+02 -0.34391849789E+01  0.55698566362E+02  0.10000000000E+01 0.  0.
    9000005    1    3    3    0    0  0.30985797195E+02 -0.46145234572E+02  0.59093290628E+02  0.81132726435E+02  0.10000000000E+01 0.  0.
<mgrwt>
<rscale>  0 0.12500169E+03</rscale>
<asrwt>0</asrwt>
<pdfrwt beam="1">  1        4 0.14806569E-01 0.12500169E+03</pdfrwt>
<pdfrwt beam="2">  1       -4 0.62443991E-02 0.12500169E+03</pdfrwt>
<totfact> 0.10199225E+04</totfact>
</mgrwt>
</event>
<event>
 5    1  0.3289127E-002  0.1249990E+03  0.7818608E-02  0.1235071E+00
         -4   -1    0    0    0  501 -0.00000000000E+00  0.00000000000E+00  0.32721099499E+03  0.32721345959E+03  0.12700000000E+01 0.  1.
          4   -1    0    0  501    0  0.00000000000E+00 -0.00000000000E+00 -0.11901525607E+02  0.11969094025E+02  0.12700000000E+01 0.  1.
         25    2    1    2    0    0  0.00000000000E+00  0.00000000000E+00  0.31530946938E+03  0.33918255362E+03  0.12499897279E+03 0.  0.
    9000005    1    3    3    0    0  0.30247589438E+02 -0.86255309867E+01  0.11129950050E+02  0.33379518267E+02  0.10000000000E+01 0.  0.
    9000005    1    3    3    0    0 -0.30247589438E+02  0.86255309867E+01  0.30417951933E+03  0.30580303535E+03  0.10000000000E+01 0.  0.
<mgrwt>
<rscale>  0 0.12499897E+03</rscale>
<asrwt>0</asrwt>
<pdfrwt beam="2">  1        4 0.18363915E-02 0.12499897E+03</pdfrwt>
<pdfrwt beam="1">  1       -4 0.50345530E-01 0.12499897E+03</pdfrwt>
<totfact> 0.70932853E+03</totfact>
</mgrwt>
</event>
<event>
 5    1  0.3289127E-002  0.1249999E+03  0.7818608E-02  0.1235069E+00
          4   -1    0    0  501    0  0.00000000000E+00  0.00000000000E+00  0.18048124653E+01  0.22068638460E+01  0.12700000000E+01 0.  1.
         -4   -1    0    0    0  501 -0.00000000000E+00 -0.00000000000E+00 -0.19470344093E+04  0.19470348235E+04  0.12700000000E+01 0.  1.
         25    2    1    2    0    0  0.00000000000E+00  0.00000000000E+00 -0.19452295968E+04  0.19492416873E+04  0.12499988505E+03 0.  0.
    9000005    1    3    3    0    0 -0.17747405241E+02 -0.53244460335E+02 -0.14011788914E+04  0.14023028306E+04  0.10000000000E+01 0.  0.
    9000005    1    3    3    0    0  0.17747405241E+02  0.53244460335E+02 -0.54405070540E+03  0.54693885673E+03  0.10000000000E+01 0.  0.
<mgrwt>
<rscale>  0 0.12499989E+03</rscale>
<asrwt>0</asrwt>
<pdfrwt beam="1">  1        4 0.30862390E-03 0.12499989E+03</pdfrwt>
<pdfrwt beam="2">  1       -4 0.29957320E+00 0.12499989E+03</pdfrwt>
<totfact> 0.10538526E+03</totfact>
</mgrwt>
</event>
<event>
 5    1  0.3289127E-002  0.1249983E+03  0.7818608E-02  0.1235072E+00
          4   -1    0    0  501    0  0.00000000000E+00  0.00000000000E+00  0.92531539355E+02  0.92540254352E+02  0.12700000000E+01 0.  1.
         -4   -1    0    0    0  501 -0.00000000000E+00 -0.00000000000E+00 -0.42193945174E+02  0.42213053779E+02  0.12700000000E+01 0.  1.
         25    2    1    2    0    0  0.00000000000E+00  0.00000000000E+00  0.50337594182E+02  0.13475330813E+03  0.12499832264E+03 0.  0.
    9000005    1    3    3    0    0  0.38623882469E+02  0.49029625217E+02  0.21857136751E+02  0.66139571157E+02  0.10000000000E+01 0.  0.
    9000005    1    3    3    0    0 -0.38623882469E+02 -0.49029625217E+02  0.28480457431E+02  0.68613736973E+02  0.10000000000E+01 0.  0.
<mgrwt>
<rscale>  0 0.12499832E+03</rscale>
<asrwt>0</asrwt>
<pdfrwt beam="1">  1        4 0.14237762E-01 0.12499832E+03</pdfrwt>
<pdfrwt beam="2">  1       -4 0.64935165E-02 0.12499832E+03</pdfrwt>
<totfact> 0.10243661E+04</totfact>
</mgrwt>
</event>
<event>
 5    1  0.3289127E-002  0.1250028E+03  0.7818608E-02  0.1235065E+00
         -4   -1    0    0    0  501 -0.00000000000E+00  0.00000000000E+00  0.93396166172E+01  0.94255683413E+01  0.12700000000E+01 0. -1.
          4   -1    0    0  501    0  0.00000000000E+00 -0.00000000000E+00 -0.41626106601E+03  0.41626300337E+03  0.12700000000E+01 0. -1.
         25    2    1    2    0    0  0.00000000000E+00  0.00000000000E+00 -0.40692144939E+03  0.42568857171E+03  0.12500277641E+03 0.  0.
    9000005    1    3    3    0    0 -0.66903684223E+01  0.47196171428E+02 -0.34108336226E+03  0.34439962201E+03  0.10000000000E+01 0.  0.
    9000005    1    3    3    0    0  0.66903684223E+01 -0.47196171428E+02 -0.65838087132E+02  0.81288949706E+02  0.10000000000E+01 0.  0.
<mgrwt>
<rscale>  0 0.12500278E+03</rscale>
<asrwt>0</asrwt>
<pdfrwt beam="2">  1        4 0.64046910E-01 0.12500278E+03</pdfrwt>
<pdfrwt beam="1">  1       -4 0.14436251E-02 0.12500278E+03</pdfrwt>
<totfact> 0.62124952E+03</totfact>
</mgrwt>
</event>
<event>
 5    1  0.3289127E-002  0.1250096E+03  0.7818608E-02  0.1235054E+00
         -4   -1    0    0    0  501 -0.00000000000E+00  0.00000000000E+00  0.76373217686E+01  0.77421950245E+01  0.12700000000E+01 0.  1.
          4   -1    0    0  501    0  0.00000000000E+00 -0.00000000000E+00 -0.50795316296E+03  0.50795475061E+03  0.12700000000E+01 0.  1.
         25    2    1    2    0    0  0.00000000000E+00  0.00000000000E+00 -0.50031584120E+03  0.51569694563E+03  0.12500959477E+03 0.  0.
    9000005    1    3    3    0    0 -0.41229223574E+02  0.22013962798E+02 -0.42131323084E+03  0.42389892889E+03  0.10000000000E+01 0.  0.
    9000005    1    3    3    0    0  0.41229223574E+02 -0.22013962798E+02 -0.79002610356E+02  0.91798016742E+02  0.10000000000E+01 0.  0.
<mgrwt>
<rscale>  0 0.12500959E+03</rscale>
<asrwt>0</asrwt>
<pdfrwt beam="2">  1        4 0.78154803E-01 0.12500959E+03</pdfrwt>
<pdfrwt beam="1">  1       -4 0.11831623E-02 0.12500959E+03</pdfrwt>
<totfact> 0.54655204E+03</totfact>
</mgrwt>
</event>
<event>
 5    1  0.3289127E-002  0.1250002E+03  0.7818608E-02  0.1235069E+00
          4   -1    0    0  501    0  0.00000000000E+00  0.00000000000E+00  0.13829882583E+02  0.13888072302E+02  0.12700000000E+01 0.  1.
         -4   -1    0    0    0  501 -0.00000000000E+00 -0.00000000000E+00 -0.28179844407E+03  0.28180130586E+03  0.12700000000E+01 0.  1.
         25    2    1    2    0    0  0.00000000000E+00  0.00000000000E+00 -0.26796856149E+03  0.29568937816E+03  0.12500023363E+03 0.  0.
    9000005    1    3    3    0    0 -0.34773986438E+02 -0.51231233574E+02 -0.15397182013E+03  0.16595840087E+03  0.10000000000E+01 0.  0.
    9000005    1    3    3    0    0  0.34773986438E+02  0.51231233574E+02 -0.11399674136E+03  0.12973097728E+03  0.10000000000E+01 0.  0.
<mgrwt>
<rscale>  0 0.12500023E+03</rscale>
<asrwt>0</asrwt>
<pdfrwt beam="1">  1        4 0.21323707E-02 0.12500023E+03</pdfrwt>
<pdfrwt beam="2">  1       -4 0.43358299E-01 0.12500023E+03</pdfrwt>
<totfact> 0.76142363E+03</totfact>
</mgrwt>
</event>
<event>
 5    1  0.3289127E-002  0.1249981E+03  0.7818608E-02  0.1235072E+00
         -4   -1    0    0    0  501 -0.00000000000E+00  0.00000000000E+00  0.71029975295E+01  0.72156409212E+01  0.12700000000E+01 0.  1.
          4   -1    0    0  501    0  0.00000000000E+00 -0.00000000000E+00 -0.54548745511E+03  0.54548893351E+03  0.12700000000E+01 0.  1.
         25    2    1    2    0    0  0.00000000000E+00  0.00000000000E+00 -0.53838445758E+03  0.55270457443E+03  0.12499808972E+03 0.  0.
    9000005    1    3    3    0    0  0.18091737182E+02 -0.58553422177E+02 -0.21516117396E+03  0.22372113217E+03  0.10000000000E+01 0.  0.
    9000005    1    3    3    0    0 -0.18091737182E+02  0.58553422177E+02 -0.32322328362E+03  0.32898344226E+03  0.10000000000E+01 0.  0.
<mgrwt>
<rscale>  0 0.12499809E+03</rscale>
<asrwt>0</asrwt>
<pdfrwt beam="2">  1        4 0.83929892E-01 0.12499809E+03</pdfrwt>
<pdfrwt beam="1">  1       -4 0.11015479E-02 0.12499809E+03</pdfrwt>
<totfact> 0.51998133E+03</totfact>
</mgrwt>
</event>
<event>
 5    1  0.3289127E-002  0.1249987E+03  0.7818608E-02  0.1235071E+00
          4   -1    0    0  501    0  0.00000000000E+00  0.00000000000E+00  0.10160368874E+03  0.10161162564E+03  0.12700000000E+01 0. -1.
         -4   -1    0    0    0  501 -0.00000000000E+00 -0.00000000000E+00 -0.38425232949E+02  0.38446214731E+02  0.12700000000E+01 0. -1.
         25    2    1    2    0    0  0.00000000000E+00  0.00000000000E+00  0.63178455791E+02  0.14005784037E+03  0.12499872549E+03 0.  0.
    9000005    1    3    3    0    0 -0.44656229325E+01 -0.24722532809E+02  0.95701745505E+02  0.98949327988E+02  0.10000000000E+01 0.  0.
    9000005    1    3    3    0    0  0.44656229325E+01  0.24722532809E+02 -0.32523289714E+02  0.41108512384E+02  0.10000000000E+01 0.  0.
<mgrwt>
<rscale>  0 0.12499873E+03</rscale>
<asrwt>0</asrwt>
<pdfrwt beam="1">  1        4 0.15633561E-01 0.12499873E+03</pdfrwt>
<pdfrwt beam="2">  1       -4 0.59137989E-02 0.12499873E+03</pdfrwt>
<totfact> 0.10132678E+04</totfact>
</mgrwt>
</event>
<event>
 5    1  0.3289127E-002  0.1250005E+03  0.7818608E-02  0.1235069E+00
         -4   -1    0    0    0  501 -0.00000000000E+00  0.00000000000E+00  0.47473189050E+03  0.47473358925E+03  0.12700000000E+01 0.  1.
          4   -1    0    0  501    0  0.00000000000E+00 -0.00000000000E+00 -0.81776606273E+01  0.82756892967E+01  0.12700000000E+01 0.  1.
         25    2    1    2    0    0  0.00000000000E+00  0.00000000000E+00  0.46655422987E+03  0.48300927854E+03  0.12500045498E+03 0.  0.
    9000005    1    3    3    0    0  0.25818850406E+02  0.52780981781E+02  0.15105037203E+03  0.16207917807E+03  0.10000000000E+01 0.  0.
    9000005    1    3    3    0    0 -0.25818850406E+02 -0.52780981781E+02  0.31550385784E+03  0.32093010047E+03  0.10000000000E+01 0.  0.
<mgrwt>
<rscale>  0 0.12500045E+03</rscale>
<asrwt>0</asrwt>
<pdfrwt beam="2">  1        4 0.12657727E-02 0.12500045E+03</pdfrwt>
<pdfrwt beam="1">  1       -4 0.73043364E-01 0.12500045E+03</pdfrwt>
<totfact> 0.57206580E+03</totfact>
</mgrwt>
</event>
<event>
 5    1  0.3289127E-002  0.1249989E+03  0.7818608E-02  0.1235071E+00
          4   -1    0    0  501    0  0.00000000000E+00  0.00000000000E+00  0.37836624012E+03  0.37836837152E+03  0.12700000000E+01 0.  1.
         -4   -1    0    0    0  501 -0.00000000000E+00 -0.00000000000E+00 -0.10282583397E+02  0.10360715290E+02  0.12700000000E+01 0.  1.
         25    2    1    2    0    0  0.00000000000E+00  0.00000000000E+00  0.36808365673E+03  0.38872908681E+03  0.12499889832E+03 0.  0.
    9000005    1    3    3    0    0 -0.47479296622E+02  0.40528379912E+02  0.17505656081E+03  0.18585648407E+03  0.10000000000E+01 0.  0.
    9000005    1    3    3    0    0  0.47479296622E+02 -0.40528379912E+02  0.19302709591E+03  0.20287260274E+03  0.10000000000E+01 0.  0.
<mgrwt>
<rscale>  0 0.12499890E+03</rscale>
<asrwt>0</asrwt>
<pdfrwt beam="1">  1        4 0.58216352E-01 0.12499890E+03</pdfrwt>
<pdfrwt beam="2">  1       -4 0.15881103E-02 0.12499890E+03</pdfrwt>
<totfact> 0.65665551E+03</totfact>
</mgrwt>
</event>
<event>
 5    1  0.3289127E-002  0.1250007E+03  0.7818608E-02  0.1235068E+00
          4   -1    0    0  501    0  0.00000000000E+00  0.00000000000E+00  0.13939203124E+03  0.13939781660E+03  0.12700000000E+01 0.  1.
         -4   -1    0    0    0  501 -0.00000000000E+00 -0.00000000000E+00 -0.28003038634E+02  0.28031822501E+02  0.12700000000E+01 0.  1.
         25    2    1    2    0    0  0.00000000000E+00  0.00000000000E+00  0.11138899261E+03  0.16742963910E+03  0.12500070550E+03 0.  0.
    9000005    1    3    3    0    0  0.19050421232E+02 -0.50841522572E+02  0.14247534685E+02  0.56140637788E+02  0.10000000000E+01 0.  0.
    9000005    1    3    3    0    0 -0.19050421232E+02  0.50841522572E+02  0.97141457923E+02  0.11128900132E+03  0.10000000000E+01 0.  0.
<mgrwt>
<rscale>  0 0.12500071E+03</rscale>
<asrwt>0</asrwt>
<pdfrwt beam="1">  1        4 0.21447587E-01 0.12500071E+03</pdfrwt>
<pdfrwt beam="2">  1       -4 0.43108190E-02 0.12500071E+03</pdfrwt>
<totfact> 0.95927706E+03</totfact>
</mgrwt>
</event>
<event>
 5    1  0.3289127E-002  0.1249955E+03  0.7818608E-02  0.1235076E+00
         -4   -1    0    0    0  501 -0.00000000000E+00  0.00000000000E+00  0.73928899134E+01  0.75011813251E+01  0.12700000000E+01 0. -1.
          4   -1    0    0  501    0  0.00000000000E+00 -0.00000000000E+00 -0.52439101296E+03  0.52439255083E+03  0.12700000000E+01 0. -1.
         25    2    1    2    0    0  0.00000000000E+00  0.00000000000E+00 -0.51699812304E+03  0.53189373216E+03  0.12499553224E+03 0.  0.
    9000005    1    3    3    0    0  0.31316380331E+02  0.36865984033E+02 -0.42684745013E+03  0.42958068176E+03  0.10000000000E+01 0.  0.
    9000005    1    3    3    0    0 -0.31316380331E+02 -0.36865984033E+02 -0.90150672909E+02  0.10231305040E+03  0.10000000000E+01 0.  0.
<mgrwt>
<rscale>  0 0.12499553E+03</rscale>
<asrwt>0</asrwt>
<pdfrwt beam="2">  1        4 0.80683960E-01 0.12499553E+03</pdfrwt>
<pdfrwt beam="1">  1       -4 0.11458165E-02 0.12499553E+03</pdfrwt>
<totfact> 0.53477284E+03</totfact>
</mgrwt>
</event>
<event>
 5    1  0.3289127E-002  0.1249959E+03  0.7818608E-02  0.1235076E+00
         -4   -1    0    0    0  501 -0.00000000000E+00  0.00000000000E+00  0.13335459553E+02  0.13395797158E+02  0.12700000000E+01 0.  1.
          4   -1    0    0  501    0  0.00000000000E+00 -0.00000000000E+00 -0.29217981818E+03  0.29218257829E+03  0.12700000000E+01 0.  1.
         25    2    1    2    0    0  0.00000000000E+00  0.00000000000E+00 -0.27884435863E+03  0.30557837544E+03  0.12499586873E+03 0.  0.
    9000005    1    3    3    0    0 -0.11209284770E+02 -0.61462946362E+02 -0.14256242453E+03  0.15565470352E+03  0.10000000000E+01 0.  0.
    9000005    1    3    3    0    0  0.11209284770E+02  0.61462946362E+02 -0.13628193410E+03  0.14992367193E+03  0.10000000000E+01 0.  0.
<mgrwt>
<rscale>  0 0.12499587E+03</rscale>
<asrwt>0</asrwt>
<pdfrwt beam="2">  1        4 0.44955590E-01 0.12499587E+03</pdfrwt>
<pdfrwt beam="1">  1       -4 0.20564631E-02 0.12499587E+03</pdfrwt>
<totfact> 0.74911253E+03</totfact>
</mgrwt>
</event>
<event>
 5    1  0.3289127E-002  0.1250003E+03  0.7818608E-02  0.1235069E+00
          4   -1    0    0  501    0  0.00000000000E+00  0.00000000000E+00  0.15440912209E+02  0.15493052308E+02  0.12700000000E+01 0. -1.
         -4   -1    0    0    0  501 -0.00000000000E+00 -0.00000000000E+00 -0.25250151495E+03  0.25250470878E+03  0.12700000000E+01 0. -1.
         25    2    1    2    0    0  0.00000000000E+00  0.00000000000E+00 -0.23706060275E+03  0.26799776109E+03  0.12500028229E+03 0.  0.
    9000005    1    3    3    0    0  0.55414581898E+02  0.11256000441E+02 -0.61491068639E+02  0.83544149737E+02  0.10000000000E+01 0.  0.
    9000005    1    3    3    0    0 -0.55414581898E+02 -0.11256000441E+02 -0.17556953411E+03  0.18445361135E+03  0.10000000000E+01 0.  0.
<mgrwt>
<rscale>  0 0.12500028E+03</rscale>
<asrwt>0</asrwt>
<pdfrwt beam="1">  1        4 0.23797816E-02 0.12500028E+03</pdfrwt>
<pdfrwt beam="2">  1       -4 0.38850640E-01 0.12500028E+03</pdfrwt>
<totfact> 0.79796127E+03</totfact>
</mgrwt>
</event>
<event>
 5    1  0.3289127E-002  0.1249985E+03  0.7818608E-02  0.1235072E+00
         -4   -1    0    0    0  501 -0.00000000000E+00  0.00000000000E+00  0.47157702728E+02  0.47174800758E+02  0.12700000000E+01 0. -1.
          4   -1    0    0  501    0  0.00000000000E+00 -0.00000000000E+00 -0.82794843002E+02  0.82804582770E+02  0.12700000000E+01 0. -1.
         25    2    1    2    0    0  0.00000000000E+00  0.00000000000E+00 -0.35637140274E+02  0.12997938353E+03  0.12499853749E+03 0.  0.
    9000005    1    3    3    0    0 -0.51161671737E+02 -0.32985041000E+02 -0.31265550140E+01  0.60961503680E+02  0.10000000000E+01 0.  0.
    9000005    1    3    3    0    0  0.51161671737E+02  0.32985041000E+02 -0.32510585260E+02  0.69017879847E+02  0.10000000000E+01 0.  0.
<mgrwt>
<rscale>  0 0.12499854E+03</rscale>
<asrwt>0</asrwt>
<pdfrwt beam="2">  1        4 0.12739733E-01 0.12499854E+03</pdfrwt>
<pdfrwt beam="1">  1       -4 0.72570956E-02 0.12499854E+03</pdfrwt>
<totfact> 0.10345290E+04</totfact>
</mgrwt>
</event>
<event>
 5    1  0.3289127E-002  0.1250013E+03  0.7818608E-02  0.1235067E+00
          4   -1    0    0  501    0  0.00000000000E+00  0.00000000000E+00  0.62230376983E+02  0.62243334739E+02  0.12700000000E+01 0.  1.
         -4   -1    0    0    0  501 -0.00000000000E+00 -0.00000000000E+00 -0.62746184156E+02  0.62759035414E+02  0.12700000000E+01 0.  1.
         25    2    1    2    0    0  0.00000000000E+00  0.00000000000E+00 -0.51580717311E+00  0.12500237015E+03  0.12500130594E+03 0.  0.
    9000005    1    3    3    0    0 -0.18788782265E+02 -0.58771582026E+02  0.96525000968E+01  0.62460290994E+02  0.10000000000E+01 0.  0.
    9000005    1    3    3    0    0  0.18788782265E+02  0.58771582026E+02 -0.10168307270E+02  0.62542079160E+02  0.10000000000E+01 0.  0.
<mgrwt>
<rscale>  0 0.12500131E+03</rscale>
<asrwt>0</asrwt>
<pdfrwt beam="1">  1        4 0.95758894E-02 0.12500131E+03</pdfrwt>
<pdfrwt beam="2">  1       -4 0.96552444E-02 0.12500131E+03</pdfrwt>
<totfact> 0.10452503E+04</totfact>
</mgrwt>
</event>
<event>
 5    1  0.3289127E-002  0.1249978E+03  0.7818608E-02  0.1235073E+00
          4   -1    0    0  501    0  0.00000000000E+00  0.00000000000E+00  0.17545371146E+03  0.17545830777E+03  0.12700000000E+01 0. -1.
         -4   -1    0    0    0  501 -0.00000000000E+00 -0.00000000000E+00 -0.22239920306E+02  0.22276152163E+02  0.12700000000E+01 0. -1.
         25    2    1    2    0    0  0.00000000000E+00  0.00000000000E+00  0.15321379116E+03  0.19773445994E+03  0.12499780336E+03 0.  0.
    9000005    1    3    3    0    0  0.75282003886E+00 -0.76125701400E+01  0.17471800762E+03  0.17488825046E+03  0.10000000000E+01 0.  0.
    9000005    1    3    3    0    0 -0.75282003886E+00  0.76125701400E+01 -0.21504216458E+02  0.22846209480E+02  0.10000000000E+01 0.  0.
<mgrwt>
<rscale>  0 0.12499780E+03</rscale>
<asrwt>0</asrwt>
<pdfrwt beam="1">  1        4 0.26996018E-01 0.12499780E+03</pdfrwt>
<pdfrwt beam="2">  1       -4 0.34246670E-02 0.12499780E+03</pdfrwt>
<totfact> 0.90523139E+03</totfact>
</mgrwt>
</event>
<event>
 5    1  0.3289127E-002  0.1250017E+03  0.7818608E-02  0.1235067E+00
         -4   -1    0    0    0  501 -0.00000000000E+00  0.00000000000E+00  0.37788477551E+02  0.37809812689E+02  0.12700000000E+01 0.  1.
          4   -1    0    0  501    0  0.00000000000E+00 -0.00000000000E+00 -0.10331983083E+03  0.10332763591E+03  0.12700000000E+01 0.  1.
         25    2    1    2    0    0  0.00000000000E+00  0.00000000000E+00 -0.65531353275E+02  0.14113744859E+03  0.12500168452E+03 0.  0.
    9000005    1    3    3    0    0  0.16155505555E+02 -0.59320993699E+02 -0.20123227084E+02  0.64698724264E+02  0.10000000000E+01 0.  0.
    9000005    1    3    3    0    0 -0.16155505555E+02  0.59320993699E+02 -0.45408126191E+02  0.76438724331E+02  0.10000000000E+01 0.  0.
<mgrwt>
<rscale>  0 0.12500168E+03</rscale>
<asrwt>0</asrwt>
<pdfrwt beam="2">  1        4 0.15897600E-01 0.12500168E+03</pdfrwt>
<pdfrwt beam="1">  1       -4 0.58158535E-02 0.12500168E+03</pdfrwt>
<totfact> 0.10109682E+04</totfact>
</mgrwt>
</event>
<event>
 5    1  0.3289127E-002  0.1249998E+03  0.7818608E-02  0.1235070E+00
          4   -1    0    0  501    0  0.00000000000E+00  0.00000000000E+00  0.11570955189E+02  0.11640442603E+02  0.12700000000E+01 0.  1.
         -4   -1    0    0    0  501 -0.00000000000E+00 -0.00000000000E+00 -0.33650872807E+03  0.33651112458E+03  0.12700000000E+01 0.  1.
         25    2    1    2    0    0  0.00000000000E+00  0.00000000000E+00 -0.32493777288E+03  0.34815156718E+03  0.12499982995E+03 0.  0.
    9000005    1    3    3    0    0  0.27200312118E+02 -0.46205677785E+02 -0.25187466601E+03  0.25752023030E+03  0.10000000000E+01 0.  0.
    9000005    1    3    3    0    0 -0.27200312118E+02  0.46205677785E+02 -0.73063106874E+02  0.90631336882E+02  0.10000000000E+01 0.  0.
<mgrwt>
<rscale>  0 0.12499983E+03</rscale>
<asrwt>0</asrwt>
<pdfrwt beam="1">  1        4 0.17856767E-02 0.12499983E+03</pdfrwt>
<pdfrwt beam="2">  1       -4 0.51776095E-01 0.12499983E+03</pdfrwt>
<totfact> 0.69928652E+03</totfact>
</mgrwt>
</event>
<event>
 5    1  0.3289127E-002  0.1250345E+03  0.7818608E-02  0.1235015E+00
          4   -1    0    0  501    0  0.00000000000E+00  0.00000000000E+00  0.20743808037E+03  0.20744196800E+03  0.12700000000E+01 0.  1.
         -4   -1    0    0    0  501 -0.00000000000E+00 -0.00000000000E+00 -0.18815851622E+02  0.18858663056E+02  0.12700000000E+01 0.  1.
         25    2    1    2    0    0  0.00000000000E+00  0.00000000000E+00  0.18862222875E+03  0.22630063106E+03  0.12503451699E+03 0.  0.
    9000005    1    3    3    0    0 -0.50333154058E+02 -0.13269567482E+02  0.15695318270E+03  0.16536266017E+03  0.10000000000E+01 0.  0.
    9000005    1    3    3    0    0  0.50333154058E+02  0.13269567482E+02  0.31669046054E+02  0.60937970892E+02  0.10000000000E+01 0.  0.
<mgrwt>
<rscale>  0 0.12503452E+03</rscale>
<asrwt>0</asrwt>
<pdfrwt beam="1">  1        4 0.31917145E-01 0.12503452E+03</pdfrwt>
<pdfrwt beam="2">  1       -4 0.28983385E-02 0.12503452E+03</pdfrwt>
<totfact> 0.85814765E+03</totfact>
</mgrwt>
</event>
<event>
 5    1  0.3289127E-002  0.1249995E+03  0.7818608E-02  0.1235070E+00
         -4   -1    0    0    0  501 -0.00000000000E+00  0.00000000000E+00  0.95235629615E+01  0.96078692478E+01  0.12700000000E+01 0.  1.
          4   -1    0    0  501    0  0.00000000000E+00 -0.00000000000E+00 -0.40827098222E+03  0.40827295750E+03  0.12700000000E+01 0.  1.
         25    2    1    2    0    0  0.00000000000E+00  0.00000000000E+00 -0.39874741926E+03  0.41788082675E+03  0.12499952398E+03 0.  0.
    9000005    1    3    3    0    0 -0.13986797369E+02 -0.21430828467E+02 -0.38996648491E+03  0.39080656374E+03  0.10000000000E+01 0.  0.
    9000005    1    3    3    0    0  0.13986797369E+02  0.21430828467E+02 -0.87809343554E+01  0.27074263011E+02  0.10000000000E+01 0.  0.
<mgrwt>
<rscale>  0 0.12499952E+03</rscale>
<asrwt>0</asrwt>
<pdfrwt beam="2">  1        4 0.62817544E-01 0.12499952E+03</pdfrwt>
<pdfrwt beam="1">  1       -4 0.14718009E-02 0.12499952E+03</pdfrwt>
<totfact> 0.62850763E+03</totfact>
</mgrwt>
</event>
<event>
 5    1  0.3289127E-002  0.1250002E+03  0.7818608E-02  0.1235069E+00
          4   -1    0    0  501    0  0.00000000000E+00  0.00000000000E+00  0.91476272342E+02  0.91485087864E+02  0.12700000000E+01 0. -1.
         -4   -1    0    0    0  501 -0.00000000000E+00 -0.00000000000E+00 -0.42682150031E+02  0.42701040166E+02  0.12700000000E+01 0. -1.
         25    2    1    2    0    0  0.00000000000E+00  0.00000000000E+00  0.48794122311E+02  0.13418612803E+03  0.12500020233E+03 0.  0.
    9000005    1    3    3    0    0 -0.30710068526E+02  0.41961342984E+02  0.61605437999E+02  0.80623151792E+02  0.10000000000E+01 0.  0.
    9000005    1    3    3    0    0  0.30710068526E+02 -0.41961342984E+02 -0.12811315688E+02  0.53562976238E+02  0.10000000000E+01 0.  0.
<mgrwt>
<rscale>  0 0.12500020E+03</rscale>
<asrwt>0</asrwt>
<pdfrwt beam="1">  1        4 0.14075404E-01 0.12500020E+03</pdfrwt>
<pdfrwt beam="2">  1       -4 0.65686158E-02 0.12500020E+03</pdfrwt>
<totfact> 0.10255207E+04</totfact>
</mgrwt>
</event>
<event>
 5    1  0.3289127E-002  0.1250060E+03  0.7818608E-02  0.1235060E+00
          4   -1    0    0  501    0  0.00000000000E+00  0.00000000000E+00  0.78957738479E+02  0.78967951511E+02  0.12700000000E+01 0.  1.
         -4   -1    0    0    0  501 -0.00000000000E+00 -0.00000000000E+00 -0.49455819606E+02  0.49472123392E+02  0.12700000000E+01 0.  1.
         25    2    1    2    0    0  0.00000000000E+00  0.00000000000E+00  0.29501918874E+02  0.12844007490E+03  0.12500595835E+03 0.  0.
    9000005    1    3    3    0    0 -0.56363574805E+02  0.14232875003E+02  0.38320072527E+02  0.69633722104E+02  0.10000000000E+01 0.  0.
    9000005    1    3    3    0    0  0.56363574805E+02 -0.14232875003E+02 -0.88181536529E+01  0.58806352798E+02  0.10000000000E+01 0.  0.
<mgrwt>
<rscale>  0 0.12500596E+03</rscale>
<asrwt>0</asrwt>
<pdfrwt beam="1">  1        4 0.12149384E-01 0.12500596E+03</pdfrwt>
<pdfrwt beam="2">  1       -4 0.76106274E-02 0.12500596E+03</pdfrwt>
<totfact> 0.10376599E+04</totfact>
</mgrwt>
</event>
<event>
 5    1  0.3289127E-002  0.1249988E+03  0.7818608E-02  0.1235071E+00
         -4   -1    0    0    0  501 -0.00000000000E+00  0.00000000000E+00  0.72893095244E+02  0.72904157867E+02  0.12700000000E+01 0.  1.
          4   -1    0    0  501    0  0.00000000000E+00 -0.00000000000E+00 -0.53565072915E+02  0.53580126319E+02  0.12700000000E+01 0.  1.
         25    2    1    2    0    0  0.00000000000E+00  0.00000000000E+00  0.19328022329E+02  0.12648428419E+03  0.12499880679E+03 0.  0.
    9000005    1    3    3    0    0  0.24006479036E+02 -0.13546095653E+02 -0.47086059938E+02  0.54570182185E+02  0.10000000000E+01 0.  0.
    9000005    1    3    3    0    0 -0.24006479036E+02  0.13546095653E+02  0.66414082268E+02  0.71914102001E+02  0.10000000000E+01 0.  0.
<mgrwt>
<rscale>  0 0.12499881E+03</rscale>
<asrwt>0</asrwt>
<pdfrwt beam="2">  1        4 0.82427894E-02 0.12499881E+03</pdfrwt>
<pdfrwt beam="1">  1       -4 0.11216331E-01 0.12499881E+03</pdfrwt>
<totfact> 0.10420651E+04</totfact>
</mgrwt>
</event>
<event>
 5    1  0.3289127E-002  0.1249922E+03  0.7818608E-02  0.1235081E+00
          4   -1    0    0  501    0  0.00000000000E+00  0.00000000000E+00  0.63189838217E+02  0.63202599265E+02  0.12700000000E+01 0.  1.
         -4   -1    0    0    0  501 -0.00000000000E+00 -0.00000000000E+00 -0.61784446517E+02  0.61797497776E+02  0.12700000000E+01 0.  1.
         25    2    1    2    0    0  0.00000000000E+00  0.00000000000E+00  0.14053916998E+01  0.12500009704E+03  0.12499219629E+03 0.  0.
    9000005    1    3    3    0    0  0.57830975844E+02 -0.31508573674E+01 -0.22759661229E+02  0.62236258310E+02  0.10000000000E+01 0.  0.
    9000005    1    3    3    0    0 -0.57830975844E+02  0.31508573674E+01  0.24165052929E+02  0.62763838731E+02  0.10000000000E+01 0.  0.
<mgrwt>
<rscale>  0 0.12499220E+03</rscale>
<asrwt>0</asrwt>
<pdfrwt beam="1">  1        4 0.97234991E-02 0.12499220E+03</pdfrwt>
<pdfrwt beam="2">  1       -4 0.95072850E-02 0.12499220E+03</pdfrwt>
<totfact> 0.10454704E+04</totfact>
</mgrwt>
</event>
<event>
 5    1  0.3289127E-002  0.1249969E+03  0.7818608E-02  0.1235074E+00
          4   -1    0    0  501    0  0.00000000000E+00  0.00000000000E+00  0.78699746241E+02  0.78709992748E+02  0.12700000000E+01 0. -1.
         -4   -1    0    0    0  501 -0.00000000000E+00 -0.00000000000E+00 -0.49610789619E+02  0.49627042493E+02  0.12700000000E+01 0. -1.
         25    2    1    2    0    0  0.00000000000E+00  0.00000000000E+00  0.29088956622E+02  0.12833703524E+03  0.12499690883E+03 0.  0.
    9000005    1    3    3    0    0 -0.21843852559E+02 -0.29066863930E+02 -0.37637031589E+02  0.52341022345E+02  0.10000000000E+01 0.  0.
    9000005    1    3    3    0    0  0.21843852559E+02  0.29066863930E+02  0.66725988211E+02  0.75996012896E+02  0.10000000000E+01 0.  0.
<mgrwt>
<rscale>  0 0.12499691E+03</rscale>
<asrwt>0</asrwt>
<pdfrwt beam="1">  1        4 0.12109692E-01 0.12499691E+03</pdfrwt>
<pdfrwt beam="2">  1       -4 0.76344676E-02 0.12499691E+03</pdfrwt>
<totfact> 0.10380940E+04</totfact>
</mgrwt>
</event>
<event>
 5    1  0.3289127E-002  0.1250445E+03  0.7818608E-02  0.1235000E+00
         -4   -1    0    0    0  501 -0.00000000000E+00  0.00000000000E+00  0.21462785342E+02  0.21500326849E+02  0.12700000000E+01 0. -1.
          4   -1    0    0  501    0  0.00000000000E+00 -0.00000000000E+00 -0.18193182227E+03  0.18193625492E+03  0.12700000000E+01 0. -1.
         25    2    1    2    0    0  0.00000000000E+00  0.00000000000E+00 -0.16046903693E+03  0.20343658177E+03  0.12504451603E+03 0.  0.
    9000005    1    3    3    0    0  0.20815490057E+02 -0.14998611284E+02  0.12510808013E+02  0.28561570053E+02  0.10000000000E+01 0.  0.
    9000005    1    3    3    0    0 -0.20815490057E+02  0.14998611284E+02 -0.17297984494E+03  0.17487501172E+03  0.10000000000E+01 0.  0.
<mgrwt>
<rscale>  0 0.12504452E+03</rscale>
<asrwt>0</asrwt>
<pdfrwt beam="2">  1        4 0.27992739E-01 0.12504452E+03</pdfrwt>
<pdfrwt beam="1">  1       -4 0.33051959E-02 0.12504452E+03</pdfrwt>
<totfact> 0.89469992E+03</totfact>
</mgrwt>
</event>
<event>
 5    1  0.3289127E-002  0.1249994E+03  0.7818608E-02  0.1235070E+00
         -4   -1    0    0    0  501 -0.00000000000E+00  0.00000000000E+00  0.43963008920E+02  0.43981348925E+02  0.12700000000E+01 0. -1.
          4   -1    0    0  501    0  0.00000000000E+00 -0.00000000000E+00 -0.88810793587E+02  0.88819873664E+02  0.12700000000E+01 0. -1.
         25    2    1    2    0    0  0.00000000000E+00  0.00000000000E+00 -0.44847784667E+02  0.13280122259E+03  0.12499936372E+03 0.  0.
    9000005    1    3    3    0    0  0.50766420998E+02 -0.24404121082E+02 -0.51176302260E+02  0.76110475887E+02  0.10000000000E+01 0.  0.
    9000005    1    3    3    0    0 -0.50766420998E+02  0.24404121082E+02  0.63285175925E+01  0.56690746702E+02  0.10000000000E+01 0.  0.
<mgrwt>
<rscale>  0 0.12499936E+03</rscale>
<asrwt>0</asrwt>
<pdfrwt beam="2">  1        4 0.13665308E-01 0.12499936E+03</pdfrwt>
<pdfrwt beam="1">  1       -4 0.67656491E-02 0.12499936E+03</pdfrwt>
<totfact> 0.10284774E+04</totfact>
</mgrwt>
</event>
<event>
 5    1  0.3289127E-002  0.1249995E+03  0.7818608E-02  0.1235070E+00
         -4   -1    0    0    0  501 -0.00000000000E+00  0.00000000000E+00  0.23181115225E+02  0.23215878253E+02  0.12700000000E+01 0. -1.
          4   -1    0    0  501    0  0.00000000000E+00 -0.00000000000E+00 -0.16834521605E+03  0.16835000644E+03  0.12700000000E+01 0. -1.
         25    2    1    2    0    0  0.00000000000E+00  0.00000000000E+00 -0.14516410083E+03  0.19156588469E+03  0.12499948803E+03 0.  0.
    9000005    1    3    3    0    0  0.14444749237E+02  0.13814706532E+02 -0.16332201741E+03  0.16454354520E+03  0.10000000000E+01 0.  0.
    9000005    1    3    3    0    0 -0.14444749237E+02 -0.13814706532E+02  0.18157916580E+02  0.27022339491E+02  0.10000000000E+01 0.  0.
<mgrwt>
<rscale>  0 0.12499949E+03</rscale>
<asrwt>0</asrwt>
<pdfrwt beam="2">  1        4 0.25902306E-01 0.12499949E+03</pdfrwt>
<pdfrwt beam="1">  1       -4 0.35693681E-02 0.12499949E+03</pdfrwt>
<totfact> 0.91576618E+03</totfact>
</mgrwt>
</event>
<event>
 5    1  0.3289127E-002  0.1249935E+03  0.7818608E-02  0.1235079E+00
         -4   -1    0    0    0  501 -0.00000000000E+00  0.00000000000E+00  0.20565836429E+03  0.20566228557E+03  0.12700000000E+01 0.  1.
          4   -1    0    0  501    0  0.00000000000E+00 -0.00000000000E+00 -0.18966579168E+02  0.19009051143E+02  0.12700000000E+01 0.  1.
         25    2    1    2    0    0  0.00000000000E+00  0.00000000000E+00  0.18669178513E+03  0.22467133671E+03  0.12499354745E+03 0.  0.
    9000005    1    3    3    0    0  0.58560354256E+02  0.12799973714E+02  0.61612016738E+02  0.85966243516E+02  0.10000000000E+01 0.  0.
    9000005    1    3    3    0    0 -0.58560354256E+02 -0.12799973714E+02  0.12507976839E+03  0.13870509319E+03  0.10000000000E+01 0.  0.
<mgrwt>
<rscale>  0 0.12499355E+03</rscale>
<asrwt>0</asrwt>
<pdfrwt beam="2">  1        4 0.29215040E-02 0.12499355E+03</pdfrwt>
<pdfrwt beam="1">  1       -4 0.31643317E-01 0.12499355E+03</pdfrwt>
<totfact> 0.86146936E+03</totfact>
</mgrwt>
</event>
<event>
 5    1  0.3289127E-002  0.1249989E+03  0.7818608E-02  0.1235071E+00
          4   -1    0    0  501    0  0.00000000000E+00  0.00000000000E+00  0.17675681727E+03  0.17676137970E+03  0.12700000000E+01 0.  1.
         -4   -1    0    0    0  501 -0.00000000000E+00 -0.00000000000E+00 -0.22076076865E+02  0.22112577185E+02  0.12700000000E+01 0.  1.
         25    2    1    2    0    0  0.00000000000E+00  0.00000000000E+00  0.15468074041E+03  0.19887395688E+03  0.12499887709E+03 0.  0.
    9000005    1    3    3    0    0  0.14473288545E+02  0.41741333238E+02  0.14765788057E+03  0.15412872762E+03  0.10000000000E+01 0.  0.
    9000005    1    3    3    0    0 -0.14473288545E+02 -0.41741333238E+02  0.70228598361E+01  0.44745229266E+02  0.10000000000E+01 0.  0.
<mgrwt>
<rscale>  0 0.12499888E+03</rscale>
<asrwt>0</asrwt>
<pdfrwt beam="1">  1        4 0.27196516E-01 0.12499888E+03</pdfrwt>
<pdfrwt beam="2">  1       -4 0.33994781E-02 0.12499888E+03</pdfrwt>
<totfact> 0.90328040E+03</totfact>
</mgrwt>
</event>
<event>
 5    1  0.3289127E-002  0.1249973E+03  0.7818608E-02  0.1235073E+00
         -4   -1    0    0    0  501 -0.00000000000E+00  0.00000000000E+00  0.38788243342E+02  0.38809028866E+02  0.12700000000E+01 0.  1.
          4   -1    0    0  501    0  0.00000000000E+00 -0.00000000000E+00 -0.10065097818E+03  0.10065899020E+03  0.12700000000E+01 0.  1.
         25    2    1    2    0    0  0.00000000000E+00  0.00000000000E+00 -0.61862734836E+02  0.13946801907E+03  0.12499732150E+03 0.  0.
    9000005    1    3    3    0    0 -0.25160722662E+02  0.15297891341E+02  0.30567549000E+02  0.42455417749E+02  0.10000000000E+01 0.  0.
    9000005    1    3    3    0    0  0.25160722662E+02 -0.15297891341E+02 -0.92430283836E+02  0.97012601318E+02  0.10000000000E+01 0.  0.
<mgrwt>
<rscale>  0 0.12499732E+03</rscale>
<asrwt>0</asrwt>
<pdfrwt beam="2">  1        4 0.15486981E-01 0.12499732E+03</pdfrwt>
<pdfrwt beam="1">  1       -4 0.59696373E-02 0.12499732E+03</pdfrwt>
<totfact> 0.10145235E+04</totfact>
</mgrwt>
</event>
<event>
 5    1  0.3289127E-002  0.1249825E+03  0.7818608E-02  0.1235097E+00
         -4   -1    0    0    0  501 -0.00000000000E+00  0.00000000000E+00  0.21398874506E+02  0.21436527940E+02  0.12700000000E+01 0.  1.
          4   -1    0    0  501    0  0.00000000000E+00 -0.00000000000E+00 -0.18229337612E+03  0.18229779998E+03  0.12700000000E+01 0.  1.
         25    2    1    2    0    0  0.00000000000E+00  0.00000000000E+00 -0.16089450161E+03  0.20373432792E+03  0.12498254167E+03 0.  0.
    9000005    1    3    3    0    0  0.88996412403E+00  0.60234947114E+01 -0.18181660609E+03  0.18192128181E+03  0.10000000000E+01 0.  0.
    9000005    1    3    3    0    0 -0.88996412403E+00 -0.60234947114E+01  0.20922104479E+02  0.21813046108E+02  0.10000000000E+01 0.  0.
<mgrwt>
<rscale>  0 0.12498254E+03</rscale>
<asrwt>0</asrwt>
<pdfrwt beam="2">  1        4 0.28048371E-01 0.12498254E+03</pdfrwt>
<pdfrwt beam="1">  1       -4 0.32953714E-02 0.12498254E+03</pdfrwt>
<totfact> 0.89544447E+03</totfact>
</mgrwt>
</event>
<event>
 5    1  0.3289127E-002  0.1249983E+03  0.7818608E-02  0.1235072E+00
          4   -1    0    0  501    0  0.00000000000E+00  0.00000000000E+00  0.27394755983E+02  0.27424178299E+02  0.12700000000E+01 0. -1.
         -4   -1    0    0    0  501 -0.00000000000E+00 -0.00000000000E+00 -0.14247839724E+03  0.14248405728E+03  0.12700000000E+01 0. -1.
         25    2    1    2    0    0  0.00000000000E+00  0.00000000000E+00 -0.11508364125E+03  0.16990823558E+03  0.12499825612E+03 0.  0.
    9000005    1    3    3    0    0 -0.20866246421E+02 -0.56079103778E+02 -0.33041681681E+02  0.68359482507E+02  0.10000000000E+01 0.  0.
    9000005    1    3    3    0    0  0.20866246421E+02  0.56079103778E+02 -0.82041959572E+02  0.10154875307E+03  0.10000000000E+01 0.  0.
<mgrwt>
<rscale>  0 0.12499826E+03</rscale>
<asrwt>0</asrwt>
<pdfrwt beam="1">  1        4 0.42172766E-02 0.12499826E+03</pdfrwt>
<pdfrwt beam="2">  1       -4 0.21922452E-01 0.12499826E+03</pdfrwt>
<totfact> 0.95469480E+03</totfact>
</mgrwt>
</event>
<event>
 5    1  0.3289127E-002  0.1250003E+03  0.7818608E-02  0.1235069E+00
          4   -1    0    0  501    0  0.00000000000E+00  0.00000000000E+00  0.13763286422E+03  0.13763872352E+03  0.12700000000E+01 0. -1.
         -4   -1    0    0    0  501 -0.00000000000E+00 -0.00000000000E+00 -0.28361124563E+02  0.28389545373E+02  0.12700000000E+01 0. -1.
         25    2    1    2    0    0  0.00000000000E+00  0.00000000000E+00  0.10927173965E+03  0.16602826890E+03  0.12500029194E+03 0.  0.
    9000005    1    3    3    0    0  0.19491153996E+02 -0.57018398489E+02  0.76632518606E+02  0.97491259907E+02  0.10000000000E+01 0.  0.
    9000005    1    3    3    0    0 -0.19491153996E+02  0.57018398489E+02  0.32639221049E+02  0.68537008988E+02  0.10000000000E+01 0.  0.
<mgrwt>
<rscale>  0 0.12500029E+03</rscale>
<asrwt>0</asrwt>
<pdfrwt beam="1">  1        4 0.21176924E-01 0.12500029E+03</pdfrwt>
<pdfrwt beam="2">  1       -4 0.43658868E-02 0.12500029E+03</pdfrwt>
<totfact> 0.96192377E+03</totfact>
</mgrwt>
</event>
<event>
 5    1  0.3289127E-002  0.1250009E+03  0.7818608E-02  0.1235068E+00
          4   -1    0    0  501    0  0.00000000000E+00  0.00000000000E+00  0.38825871083E+02  0.38846636474E+02  0.12700000000E+01 0. -1.
         -4   -1    0    0    0  501 -0.00000000000E+00 -0.00000000000E+00 -0.10055927431E+03  0.10056729364E+03  0.12700000000E+01 0. -1.
         25    2    1    2    0    0  0.00000000000E+00  0.00000000000E+00 -0.61733403231E+02  0.13941393012E+03  0.12500092334E+03 0.  0.
    9000005    1    3    3    0    0 -0.35794477801E+00 -0.33636542540E+02 -0.89605842805E+02  0.95717042282E+02  0.10000000000E+01 0.  0.
    9000005    1    3    3    0    0  0.35794477801E+00  0.33636542540E+02  0.27872439574E+02  0.43696887833E+02  0.10000000000E+01 0.  0.
<mgrwt>
<rscale>  0 0.12500092E+03</rscale>
<asrwt>0</asrwt>
<pdfrwt beam="1">  1        4 0.59754252E-02 0.12500092E+03</pdfrwt>
<pdfrwt beam="2">  1       -4 0.15472872E-01 0.12500092E+03</pdfrwt>
<totfact> 0.10145536E+04</totfact>
</mgrwt>
</event>
<event>
 5    1  0.3289127E-002  0.1249984E+03  0.7818608E-02  0.1235072E+00
          4   -1    0    0  501    0  0.00000000000E+00  0.00000000000E+00  0.10725364113E+03  0.10726115995E+03  0.12700000000E+01 0.  1.
         -4   -1    0    0    0  501 -0.00000000000E+00 -0.00000000000E+00 -0.36399864471E+02  0.36422013034E+02  0.12700000000E+01 0.  1.
         25    2    1    2    0    0  0.00000000000E+00  0.00000000000E+00  0.70853776656E+02  0.14368317299E+03  0.12499838613E+03 0.  0.
    9000005    1    3    3    0    0  0.35829014261E+02  0.22610194989E+02  0.88230586241E+02  0.97880414429E+02  0.10000000000E+01 0.  0.
    9000005    1    3    3    0    0 -0.35829014261E+02 -0.22610194989E+02 -0.17376809585E+02  0.45802758560E+02  0.10000000000E+01 0.  0.
<mgrwt>
<rscale>  0 0.12499839E+03</rscale>
<asrwt>0</asrwt>
<pdfrwt beam="1">  1        4 0.16502842E-01 0.12499839E+03</pdfrwt>
<pdfrwt beam="2">  1       -4 0.56022613E-02 0.12499839E+03</pdfrwt>
<totfact> 0.10058178E+04</totfact>
</mgrwt>
</event>
<event>
 5    1  0.3289127E-002  0.1249999E+03  0.7818608E-02  0.1235069E+00
          4   -1    0    0  501    0  0.00000000000E+00  0.00000000000E+00  0.15682674489E+03  0.15683188711E+03  0.12700000000E+01 0. -1.
         -4   -1    0    0    0  501 -0.00000000000E+00 -0.00000000000E+00 -0.24886266262E+02  0.24918650615E+02  0.12700000000E+01 0. -1.
         25    2    1    2    0    0  0.00000000000E+00  0.00000000000E+00  0.13194047863E+03  0.18175053772E+03  0.12499987225E+03 0.  0.
    9000005    1    3    3    0    0  0.47274152951E+02  0.34927892045E+02  0.96829395661E+02  0.11327724857E+03  0.10000000000E+01 0.  0.
    9000005    1    3    3    0    0 -0.47274152951E+02 -0.34927892045E+02  0.35111082969E+02  0.68473289151E+02  0.10000000000E+01 0.  0.
<mgrwt>
<rscale>  0 0.12499987E+03</rscale>
<asrwt>0</asrwt>
<pdfrwt beam="1">  1        4 0.24130078E-01 0.12499987E+03</pdfrwt>
<pdfrwt beam="2">  1       -4 0.38315430E-02 0.12499987E+03</pdfrwt>
<totfact> 0.93303113E+03</totfact>
</mgrwt>
</event>
<event>
 5    1  0.3289127E-002  0.1249799E+03  0.7818608E-02  0.1235101E+00
         -4   -1    0    0    0  501 -0.00000000000E+00  0.00000000000E+00  0.29246224959E+01  0.31884662054E+01  0.12700000000E+01 0. -1.
          4   -1    0    0  501    0  0.00000000000E+00 -0.00000000000E+00 -0.12773210865E+04  0.12773217179E+04  0.12700000000E+01 0. -1.
         25    2    1    2    0    0  0.00000000000E+00  0.00000000000E+00 -0.12743964640E+04  0.12805101841E+04  0.12497993451E+03 0.  0.
    9000005    1    3    3    0    0  0.32832734795E+02  0.53108561081E+02 -0.66120096023E+03  0.66414322065E+03  0.10000000000E+01 0.  0.
    9000005    1    3    3    0    0 -0.32832734795E+02 -0.53108561081E+02 -0.61319550379E+03  0.61636696342E+03  0.10000000000E+01 0.  0.
<mgrwt>
<rscale>  0 0.12497993E+03</rscale>
<asrwt>0</asrwt>
<pdfrwt beam="2">  1        4 0.19653085E+00 0.12497993E+03</pdfrwt>
<pdfrwt beam="1">  1       -4 0.47028718E-03 0.12497993E+03</pdfrwt>
<totfact> 0.22703241E+03</totfact>
</mgrwt>
</event>
<event>
 5    1  0.3289127E-002  0.1250020E+03  0.7818608E-02  0.1235066E+00
          4   -1    0    0  501    0  0.00000000000E+00  0.00000000000E+00  0.20063143739E+03  0.20063545691E+03  0.12700000000E+01 0.  1.
         -4   -1    0    0    0  501 -0.00000000000E+00 -0.00000000000E+00 -0.19445478376E+02  0.19486906611E+02  0.12700000000E+01 0.  1.
         25    2    1    2    0    0  0.00000000000E+00  0.00000000000E+00  0.18118595902E+03  0.22012236353E+03  0.12500201270E+03 0.  0.
    9000005    1    3    3    0    0 -0.34118100780E+01  0.13367800066E+02  0.19792486260E+03  0.19840763535E+03  0.10000000000E+01 0.  0.
    9000005    1    3    3    0    0  0.34118100780E+01 -0.13367800066E+02 -0.16738903586E+02  0.21714728179E+02  0.10000000000E+01 0.  0.
<mgrwt>
<rscale>  0 0.12500201E+03</rscale>
<asrwt>0</asrwt>
<pdfrwt beam="1">  1        4 0.30869872E-01 0.12500201E+03</pdfrwt>
<pdfrwt beam="2">  1       -4 0.29951079E-02 0.12500201E+03</pdfrwt>
<totfact> 0.86845085E+03</totfact>
</mgrwt>
</event>
<event>
 5    1  0.3289127E-002  0.1250066E+03  0.7818608E-02  0.1235059E+00
          4   -1    0    0  501    0  0.00000000000E+00  0.00000000000E+00  0.23709861172E+03  0.23710201302E+03  0.12700000000E+01 0. -1.
         -4   -1    0    0    0  501 -0.00000000000E+00 -0.00000000000E+00 -0.16448945749E+02  0.16497900359E+02  0.12700000000E+01 0. -1.
         25    2    1    2    0    0  0.00000000000E+00  0.00000000000E+00  0.22064966597E+03  0.25359991338E+03  0.12500656373E+03 0.  0.
    9000005    1    3    3    0    0 -0.35692323323E+02  0.19720614529E+01  0.21432040711E+03  0.21728338149E+03  0.10000000000E+01 0.  0.
    9000005    1    3    3    0    0  0.35692323323E+02 -0.19720614529E+01  0.63292588616E+01  0.36316531887E+02  0.10000000000E+01 0.  0.
<mgrwt>
<rscale>  0 0.12500656E+03</rscale>
<asrwt>0</asrwt>
<pdfrwt beam="1">  1        4 0.36480734E-01 0.12500656E+03</pdfrwt>
<pdfrwt beam="2">  1       -4 0.25346346E-02 0.12500656E+03</pdfrwt>
<totfact> 0.81800740E+03</totfact>
</mgrwt>
</event>
<event>
 5    1  0.3289127E-002  0.1249988E+03  0.7818608E-02  0.1235071E+00
          4   -1    0    0  501    0  0.00000000000E+00  0.00000000000E+00  0.53293435559E+03  0.53293586882E+03  0.12700000000E+01 0.  1.
         -4   -1    0    0    0  501 -0.00000000000E+00 -0.00000000000E+00 -0.72730079794E+01  0.73830579754E+01  0.12700000000E+01 0.  1.
         25    2    1    2    0    0  0.00000000000E+00  0.00000000000E+00  0.52566134762E+03  0.54031892679E+03  0.12499876109E+03 0.  0.
    9000005    1    3    3    0    0  0.91739313594E+01 -0.23927607534E+02  0.50919887215E+03  0.50984427311E+03  0.10000000000E+01 0.  0.
    9000005    1    3    3    0    0 -0.91739313594E+01  0.23927607534E+02  0.16462475461E+02  0.30474653685E+02  0.10000000000E+01 0.  0.
<mgrwt>
<rscale>  0 0.12499876E+03</rscale>
<asrwt>0</asrwt>
<pdfrwt beam="1">  1        4 0.81998463E-01 0.12499876E+03</pdfrwt>
<pdfrwt beam="2">  1       -4 0.11275064E-02 0.12499876E+03</pdfrwt>
<totfact> 0.52867864E+03</totfact>
</mgrwt>
</event>
<event>
 5    1  0.3289127E-002  0.1249974E+03  0.7818608E-02  0.1235073E+00
          4   -1    0    0  501    0  0.00000000000E+00  0.00000000000E+00  0.10662604720E+02  0.10737971849E+02  0.12700000000E+01 0. -1.
         -4   -1    0    0    0  501 -0.00000000000E+00 -0.00000000000E+00 -0.36496859076E+03  0.36497080040E+03  0.12700000000E+01 0. -1.
         25    2    1    2    0    0  0.00000000000E+00  0.00000000000E+00 -0.35430598604E+03  0.37570877225E+03  0.12499739917E+03 0.  0.
    9000005    1    3    3    0    0  0.10356400486E+02  0.35192120072E+02 -0.32921298158E+03  0.33125206050E+03  0.10000000000E+01 0.  0.
    9000005    1    3    3    0    0 -0.10356400486E+02 -0.35192120072E+02 -0.25093004462E+02  0.44456711745E+02  0.10000000000E+01 0.  0.
<mgrwt>
<rscale>  0 0.12499740E+03</rscale>
<asrwt>0</asrwt>
<pdfrwt beam="1">  1        4 0.16463685E-02 0.12499740E+03</pdfrwt>
<pdfrwt beam="2">  1       -4 0.56154972E-01 0.12499740E+03</pdfrwt>
<totfact> 0.66989747E+03</totfact>
</mgrwt>
</event>
<event>
 5    1  0.3289127E-002  0.1250024E+03  0.7818608E-02  0.1235066E+00
          4   -1    0    0  501    0  0.00000000000E+00  0.00000000000E+00  0.36518826451E+02  0.36540902909E+02  0.12700000000E+01 0.  1.
         -4   -1    0    0    0  501 -0.00000000000E+00 -0.00000000000E+00 -0.10691129232E+03  0.10691883522E+03  0.12700000000E+01 0.  1.
         25    2    1    2    0    0  0.00000000000E+00  0.00000000000E+00 -0.70392465868E+02  0.14345973813E+03  0.12500238883E+03 0.  0.
    9000005    1    3    3    0    0  0.35508027361E+02  0.35074441911E+02 -0.78357296405E+02  0.92908031850E+02  0.10000000000E+01 0.  0.
    9000005    1    3    3    0    0 -0.35508027361E+02 -0.35074441911E+02  0.79648305366E+01  0.50551706281E+02  0.10000000000E+01 0.  0.
<mgrwt>
<rscale>  0 0.12500239E+03</rscale>
<asrwt>0</asrwt>
<pdfrwt beam="1">  1        4 0.56205594E-02 0.12500239E+03</pdfrwt>
<pdfrwt beam="2">  1       -4 0.16450169E-01 0.12500239E+03</pdfrwt>
<totfact> 0.10061836E+04</totfact>
</mgrwt>
</event>
<event>
 5    1  0.3289127E-002  0.1249988E+03  0.7818608E-02  0.1235071E+00
          4   -1    0    0  501    0  0.00000000000E+00  0.00000000000E+00  0.26862397550E+01  0.29713269799E+01  0.12700000000E+01 0.  1.
         -4   -1    0    0    0  501 -0.00000000000E+00 -0.00000000000E+00 -0.13805828039E+04  0.13805833881E+04  0.12700000000E+01 0.  1.
         25    2    1    2    0    0  0.00000000000E+00  0.00000000000E+00 -0.13778965642E+04  0.13835547150E+04  0.12499883185E+03 0.  0.
    9000005    1    3    3    0    0 -0.48050076234E+02  0.39349446250E+02 -0.61227257021E+03  0.61541521672E+03  0.10000000000E+01 0.  0.
    9000005    1    3    3    0    0  0.48050076234E+02 -0.39349446250E+02 -0.76562399397E+03  0.76813949832E+03  0.10000000000E+01 0.  0.
<mgrwt>
<rscale>  0 0.12499883E+03</rscale>
<asrwt>0</asrwt>
<pdfrwt beam="1">  1        4 0.43524348E-03 0.12499883E+03</pdfrwt>
<pdfrwt beam="2">  1       -4 0.21241879E+00 0.12499883E+03</pdfrwt>
<totfact> 0.20337195E+03</totfact>
</mgrwt>
</event>
<event>
 5    1  0.3289127E-002  0.1249721E+03  0.7818608E-02  0.1235113E+00
         -4   -1    0    0    0  501 -0.00000000000E+00  0.00000000000E+00  0.30933368872E+02  0.30959428447E+02  0.12700000000E+01 0. -1.
          4   -1    0    0  501    0  0.00000000000E+00 -0.00000000000E+00 -0.12614074033E+03  0.12614713343E+03  0.12700000000E+01 0. -1.
         25    2    1    2    0    0  0.00000000000E+00  0.00000000000E+00 -0.95207371462E+02  0.15710656187E+03  0.12497210970E+03 0.  0.
    9000005    1    3    3    0    0  0.21101726317E+02 -0.57620055998E+02 -0.32827514198E+02  0.69598846221E+02  0.10000000000E+01 0.  0.
    9000005    1    3    3    0    0 -0.21101726317E+02  0.57620055998E+02 -0.62379857264E+02  0.87507715654E+02  0.10000000000E+01 0.  0.
<mgrwt>
<rscale>  0 0.12497211E+03</rscale>
<asrwt>0</asrwt>
<pdfrwt beam="2">  1        4 0.19408764E-01 0.12497211E+03</pdfrwt>
<pdfrwt beam="1">  1       -4 0.47614763E-02 0.12497211E+03</pdfrwt>
<totfact> 0.97964956E+03</totfact>
</mgrwt>
</event>
<event>
 5    1  0.3289127E-002  0.1250063E+03  0.7818608E-02  0.1235059E+00
          4   -1    0    0  501    0  0.00000000000E+00  0.00000000000E+00  0.10960344526E+03  0.10961080290E+03  0.12700000000E+01 0.  1.
         -4   -1    0    0    0  501 -0.00000000000E+00 -0.00000000000E+00 -0.35623550676E+02  0.35646181602E+02  0.12700000000E+01 0.  1.
         25    2    1    2    0    0  0.00000000000E+00  0.00000000000E+00  0.73979894585E+02  0.14525698451E+03  0.12500626682E+03 0.  0.
    9000005    1    3    3    0    0  0.49671817312E+02 -0.12559219010E+02 -0.45929824993E+01  0.51450159431E+02  0.10000000000E+01 0.  0.
    9000005    1    3    3    0    0 -0.49671817312E+02  0.12559219010E+02  0.78572877084E+02  0.93806825074E+02  0.10000000000E+01 0.  0.
<mgrwt>
<rscale>  0 0.12500627E+03</rscale>
<asrwt>0</asrwt>
<pdfrwt beam="1">  1        4 0.16864376E-01 0.12500627E+03</pdfrwt>
<pdfrwt beam="2">  1       -4 0.54828530E-02 0.12500627E+03</pdfrwt>
<totfact> 0.10024355E+04</totfact>
</mgrwt>
</event>
<event>
 5    1  0.3289127E-002  0.1250004E+03  0.7818608E-02  0.1235069E+00
         -4   -1    0    0    0  501 -0.00000000000E+00  0.00000000000E+00  0.13511172968E+04  0.13511178937E+04  0.12700000000E+01 0.  1.
          4   -1    0    0  501    0  0.00000000000E+00 -0.00000000000E+00 -0.27510466221E+01  0.30300424943E+01  0.12700000000E+01 0.  1.
         25    2    1    2    0    0  0.00000000000E+00  0.00000000000E+00  0.13483662502E+04  0.13541479362E+04  0.12500035367E+03 0.  0.
    9000005    1    3    3    0    0  0.12774882340E+02  0.22973341732E+01  0.11959594775E+02  0.17677875164E+02  0.10000000000E+01 0.  0.
    9000005    1    3    3    0    0 -0.12774882340E+02 -0.22973341732E+01  0.13364066554E+04  0.13364700610E+04  0.10000000000E+01 0.  0.
<mgrwt>
<rscale>  0 0.12500035E+03</rscale>
<asrwt>0</asrwt>
<pdfrwt beam="2">  1        4 0.44474586E-03 0.12500035E+03</pdfrwt>
<pdfrwt beam="1">  1       -4 0.20788534E+00 0.12500035E+03</pdfrwt>
<totfact> 0.20985298E+03</totfact>
</mgrwt>
</event>
<event>
 5    1  0.3289127E-002  0.1250055E+03  0.7818608E-02  0.1235061E+00
         -4   -1    0    0    0  501 -0.00000000000E+00  0.00000000000E+00  0.17322019097E+02  0.17368513051E+02  0.12700000000E+01 0.  1.
          4   -1    0    0  501    0  0.00000000000E+00 -0.00000000000E+00 -0.22517722882E+03  0.22518081019E+03  0.12700000000E+01 0.  1.
         25    2    1    2    0    0  0.00000000000E+00  0.00000000000E+00 -0.20785520972E+03  0.24254932324E+03  0.12500554387E+03 0.  0.
    9000005    1    3    3    0    0 -0.56274611322E+02  0.27153726813E+02 -0.10625576495E+03  0.12326980305E+03  0.10000000000E+01 0.  0.
    9000005    1    3    3    0    0  0.56274611322E+02 -0.27153726813E+02 -0.10159944478E+03  0.11927952020E+03  0.10000000000E+01 0.  0.
<mgrwt>
<rscale>  0 0.12500554E+03</rscale>
<asrwt>0</asrwt>
<pdfrwt beam="2">  1        4 0.34646500E-01 0.12500554E+03</pdfrwt>
<pdfrwt beam="1">  1       -4 0.26687781E-02 0.12500554E+03</pdfrwt>
<totfact> 0.83408844E+03</totfact>
</mgrwt>
</event>
<event>
 5    1  0.3289127E-002  0.1249969E+03  0.7818608E-02  0.1235074E+00
          4   -1    0    0  501    0  0.00000000000E+00  0.00000000000E+00  0.12796879673E+03  0.12797509850E+03  0.12700000000E+01 0.  1.
         -4   -1    0    0    0  501 -0.00000000000E+00 -0.00000000000E+00 -0.30503254181E+02  0.30529680896E+02  0.12700000000E+01 0.  1.
         25    2    1    2    0    0  0.00000000000E+00  0.00000000000E+00  0.97465542552E+02  0.15850477940E+03  0.12499693239E+03 0.  0.
    9000005    1    3    3    0    0  0.39398762981E+02 -0.43348698096E+02  0.21134089469E+02  0.62281794200E+02  0.10000000000E+01 0.  0.
    9000005    1    3    3    0    0 -0.39398762981E+02  0.43348698096E+02  0.76331453083E+02  0.96222985201E+02  0.10000000000E+01 0.  0.
<mgrwt>
<rscale>  0 0.12499693E+03</rscale>
<asrwt>0</asrwt>
<pdfrwt beam="1">  1        4 0.19690025E-01 0.12499693E+03</pdfrwt>
<pdfrwt beam="2">  1       -4 0.46953258E-02 0.12499693E+03</pdfrwt>
<totfact> 0.97638561E+03</totfact>
</mgrwt>
</event>
<event>
 5    1  0.3289127E-002  0.1250008E+03  0.7818608E-02  0.1235068E+00
          4   -1    0    0  501    0  0.00000000000E+00  0.00000000000E+00  0.29713649880E+02  0.29740778221E+02  0.12700000000E+01 0. -1.
         -4   -1    0    0    0  501 -0.00000000000E+00 -0.00000000000E+00 -0.13137461851E+03  0.13138075692E+03  0.12700000000E+01 0. -1.
         25    2    1    2    0    0  0.00000000000E+00  0.00000000000E+00 -0.10166096863E+03  0.16112153514E+03  0.12500078617E+03 0.  0.
    9000005    1    3    3    0    0 -0.56179850031E+02 -0.22894022183E+02 -0.31496565886E+02  0.68361871419E+02  0.10000000000E+01 0.  0.
    9000005    1    3    3    0    0  0.56179850031E+02  0.22894022183E+02 -0.70164402747E+02  0.92759663723E+02  0.10000000000E+01 0.  0.
<mgrwt>
<rscale>  0 0.12500079E+03</rscale>
<asrwt>0</asrwt>
<pdfrwt beam="1">  1        4 0.45738898E-02 0.12500079E+03</pdfrwt>
<pdfrwt beam="2">  1       -4 0.20214038E-01 0.12500079E+03</pdfrwt>
<totfact> 0.97125281E+03</totfact>
</mgrwt>
</event>
<event>
 5    1  0.3289127E-002  0.1250015E+03  0.7818608E-02  0.1235067E+00
         -4   -1    0    0    0  501 -0.00000000000E+00  0.00000000000E+00  0.22378116454E+01  0.25730722804E+01  0.12700000000E+01 0. -1.
          4   -1    0    0  501    0  0.00000000000E+00 -0.00000000000E+00 -0.16236248724E+04  0.16236253691E+04  0.12700000000E+01 0. -1.
         25    2    1    2    0    0  0.00000000000E+00  0.00000000000E+00 -0.16213870608E+04  0.16261984414E+04  0.12500147982E+03 0.  0.
    9000005    1    3    3    0    0 -0.52591440218E+02  0.19743363772E-01 -0.12498428547E+04  0.12509492481E+04  0.10000000000E+01 0.  0.
    9000005    1    3    3    0    0  0.52591440218E+02 -0.19743363772E-01 -0.37154420609E+03  0.37524919328E+03  0.10000000000E+01 0.  0.
<mgrwt>
<rscale>  0 0.12500148E+03</rscale>
<asrwt>0</asrwt>
<pdfrwt beam="2">  1        4 0.24981339E+00 0.12500148E+03</pdfrwt>
<pdfrwt beam="1">  1       -4 0.37010750E-03 0.12500148E+03</pdfrwt>
<totfact> 0.15576756E+03</totfact>
</mgrwt>
</event>
<event>
 5    1  0.3289127E-002  0.1249935E+03  0.7818608E-02  0.1235079E+00
          4   -1    0    0  501    0  0.00000000000E+00  0.00000000000E+00  0.53195363562E+03  0.53195515164E+03  0.12700000000E+01 0.  1.
         -4   -1    0    0    0  501 -0.00000000000E+00 -0.00000000000E+00 -0.72859922751E+01  0.73958490678E+01  0.12700000000E+01 0.  1.
         25    2    1    2    0    0  0.00000000000E+00  0.00000000000E+00  0.52466764335E+03  0.53935100070E+03  0.12499346377E+03 0.  0.
    9000005    1    3    3    0    0 -0.10529859162E+02  0.60814692295E+02  0.30451021584E+03  0.31070367922E+03  0.10000000000E+01 0.  0.
    9000005    1    3    3    0    0  0.10529859162E+02 -0.60814692295E+02  0.22015742751E+03  0.22864732148E+03  0.10000000000E+01 0.  0.
<mgrwt>
<rscale>  0 0.12499346E+03</rscale>
<asrwt>0</asrwt>
<pdfrwt beam="1">  1        4 0.81847584E-01 0.12499346E+03</pdfrwt>
<pdfrwt beam="2">  1       -4 0.11294891E-02 0.12499346E+03</pdfrwt>
<totfact> 0.52943054E+03</totfact>
</mgrwt>
</event>
<event>
 5    1  0.3289127E-002  0.1249984E+03  0.7818608E-02  0.1235072E+00
          4   -1    0    0  501    0  0.00000000000E+00  0.00000000000E+00  0.70596866126E+01  0.71730101818E+01  0.12700000000E+01 0.  1.
         -4   -1    0    0    0  501 -0.00000000000E+00 -0.00000000000E+00 -0.54878394621E+03  0.54878541573E+03  0.12700000000E+01 0.  1.
         25    2    1    2    0    0  0.00000000000E+00  0.00000000000E+00 -0.54172425959E+03  0.55595842591E+03  0.12499839161E+03 0.  0.
    9000005    1    3    3    0    0 -0.47575198107E+02 -0.39442609514E+01 -0.45022143366E+03  0.45274639258E+03  0.10000000000E+01 0.  0.
    9000005    1    3    3    0    0  0.47575198107E+02  0.39442609514E+01 -0.91502825933E+02  0.10321203332E+03  0.10000000000E+01 0.  0.
<mgrwt>
<rscale>  0 0.12499839E+03</rscale>
<asrwt>0</asrwt>
<pdfrwt beam="1">  1        4 0.10949363E-02 0.12499839E+03</pdfrwt>
<pdfrwt beam="2">  1       -4 0.84437096E-01 0.12499839E+03</pdfrwt>
<totfact> 0.51772974E+03</totfact>
</mgrwt>
</event>
<event>
 5    1  0.3289127E-002  0.1250029E+03  0.7818608E-02  0.1235065E+00
          4   -1    0    0  501    0  0.00000000000E+00  0.00000000000E+00  0.18406850343E+01  0.22362963568E+01  0.12700000000E+01 0. -1.
         -4   -1    0    0    0  501 -0.00000000000E+00 -0.00000000000E+00 -0.19159389526E+04  0.19159393735E+04  0.12700000000E+01 0. -1.
         25    2    1    2    0    0  0.00000000000E+00  0.00000000000E+00 -0.19140982675E+04  0.19181756698E+04  0.12500289035E+03 0.  0.
    9000005    1    3    3    0    0 -0.42894778935E+02  0.24998212962E+02 -0.15394656577E+04  0.15402663354E+04  0.10000000000E+01 0.  0.
    9000005    1    3    3    0    0  0.42894778935E+02 -0.24998212962E+02 -0.37463260981E+03  0.37790933443E+03  0.10000000000E+01 0.  0.
<mgrwt>
<rscale>  0 0.12500289E+03</rscale>
<asrwt>0</asrwt>
<pdfrwt beam="1">  1        4 0.31364786E-03 0.12500289E+03</pdfrwt>
<pdfrwt beam="2">  1       -4 0.29478886E+00 0.12500289E+03</pdfrwt>
<totfact> 0.10966701E+03</totfact>
</mgrwt>
</event>
<event>
 5    1  0.3289127E-002  0.1250006E+03  0.7818608E-02  0.1235068E+00
         -4   -1    0    0    0  501 -0.00000000000E+00  0.00000000000E+00  0.96878861419E+03  0.96878944663E+03  0.12700000000E+01 0. -1.
          4   -1    0    0  501    0  0.00000000000E+00 -0.00000000000E+00 -0.39312812112E+01  0.41313281111E+01  0.12700000000E+01 0. -1.
         25    2    1    2    0    0  0.00000000000E+00  0.00000000000E+00  0.96485733298E+03  0.97292077474E+03  0.12500064361E+03 0.  0.
    9000005    1    3    3    0    0 -0.98006845207E+01  0.24109146594E+02  0.40216141035E+02  0.47912862222E+02  0.10000000000E+01 0.  0.
    9000005    1    3    3    0    0  0.98006845207E+01 -0.24109146594E+02  0.92464119195E+03  0.92500791252E+03  0.10000000000E+01 0.  0.
<mgrwt>
<rscale>  0 0.12500064E+03</rscale>
<asrwt>0</asrwt>
<pdfrwt beam="2">  1        4 0.62026494E-03 0.12500064E+03</pdfrwt>
<pdfrwt beam="1">  1       -4 0.14905981E+00 0.12500064E+03</pdfrwt>
<totfact> 0.31515483E+03</totfact>
</mgrwt>
</event>
<event>
 5    1  0.3289127E-002  0.1249989E+03  0.7818608E-02  0.1235071E+00
          4   -1    0    0  501    0  0.00000000000E+00  0.00000000000E+00  0.13118565692E+04  0.13118571840E+04  0.12700000000E+01 0.  1.
         -4   -1    0    0    0  501 -0.00000000000E+00 -0.00000000000E+00 -0.28415352481E+01  0.31124303311E+01  0.12700000000E+01 0.  1.
         25    2    1    2    0    0  0.00000000000E+00  0.00000000000E+00  0.13090150340E+04  0.13149696143E+04  0.12499890937E+03 0.  0.
    9000005    1    3    3    0    0 -0.30052685632E+02 -0.52989743251E+02  0.50794332063E+03  0.51158429782E+03  0.10000000000E+01 0.  0.
    9000005    1    3    3    0    0  0.30052685632E+02  0.52989743251E+02  0.80107171333E+03  0.80338531646E+03  0.10000000000E+01 0.  0.
<mgrwt>
<rscale>  0 0.12499891E+03</rscale>
<asrwt>0</asrwt>
<pdfrwt beam="1">  1        4 0.20184484E+00 0.12499891E+03</pdfrwt>
<pdfrwt beam="2">  1       -4 0.45804495E-03 0.12499891E+03</pdfrwt>
<totfact> 0.21878485E+03</totfact>
</mgrwt>
</event>
<event>
 5    1  0.3289127E-002  0.1249963E+03  0.7818608E-02  0.1235075E+00
          4   -1    0    0  501    0  0.00000000000E+00  0.00000000000E+00  0.16816277822E+02  0.16864166145E+02  0.12700000000E+01 0.  1.
         -4   -1    0    0    0  501 -0.00000000000E+00 -0.00000000000E+00 -0.23189603187E+03  0.23189950948E+03  0.12700000000E+01 0.  1.
         25    2    1    2    0    0  0.00000000000E+00  0.00000000000E+00 -0.21507975405E+03  0.24876367563E+03  0.12499626278E+03 0.  0.
    9000005    1    3    3    0    0  0.34394729306E+02 -0.27410698404E+02 -0.19588797007E+03  0.20076713030E+03  0.10000000000E+01 0.  0.
    9000005    1    3    3    0    0 -0.34394729306E+02  0.27410698404E+02 -0.19191783983E+02  0.47996545329E+02  0.10000000000E+01 0.  0.
<mgrwt>
<rscale>  0 0.12499626E+03</rscale>
<asrwt>0</asrwt>
<pdfrwt beam="1">  1        4 0.25910711E-02 0.12499626E+03</pdfrwt>
<pdfrwt beam="2">  1       -4 0.35680262E-01 0.12499626E+03</pdfrwt>
<totfact> 0.82516115E+03</totfact>
</mgrwt>
</event>
<event>
 5    1  0.3289127E-002  0.1249969E+03  0.7818608E-02  0.1235074E+00
         -4   -1    0    0    0  501 -0.00000000000E+00  0.00000000000E+00  0.35247831938E+03  0.35248060731E+03  0.12700000000E+01 0.  1.
          4   -1    0    0  501    0  0.00000000000E+00 -0.00000000000E+00 -0.11042975072E+02  0.11115763511E+02  0.12700000000E+01 0.  1.
         25    2    1    2    0    0  0.00000000000E+00  0.00000000000E+00  0.34143534431E+03  0.36359637082E+03  0.12499690610E+03 0.  0.
    9000005    1    3    3    0    0  0.23921292204E+02  0.57002627216E+02  0.19730279467E+03  0.20676295731E+03  0.10000000000E+01 0.  0.
    9000005    1    3    3    0    0 -0.23921292204E+02 -0.57002627216E+02  0.14413254964E+03  0.15683341352E+03  0.10000000000E+01 0.  0.
<mgrwt>
<rscale>  0 0.12499691E+03</rscale>
<asrwt>0</asrwt>
<pdfrwt beam="2">  1        4 0.17046941E-02 0.12499691E+03</pdfrwt>
<pdfrwt beam="1">  1       -4 0.54233217E-01 0.12499691E+03</pdfrwt>
<totfact> 0.68258903E+03</totfact>
</mgrwt>
</event>
<event>
 5    1  0.3289127E-002  0.1250009E+03  0.7818608E-02  0.1235068E+00
         -4   -1    0    0    0  501 -0.00000000000E+00  0.00000000000E+00  0.17244177954E+02  0.17290881218E+02  0.12700000000E+01 0. -1.
          4   -1    0    0  501    0  0.00000000000E+00 -0.00000000000E+00 -0.22617411076E+03  0.22617767635E+03  0.12700000000E+01 0. -1.
         25    2    1    2    0    0  0.00000000000E+00  0.00000000000E+00 -0.20892993281E+03  0.24346855757E+03  0.12500088680E+03 0.  0.
    9000005    1    3    3    0    0 -0.13824105392E+02  0.60920755609E+02 -0.10775950145E+03  0.12456144872E+03  0.10000000000E+01 0.  0.
    9000005    1    3    3    0    0  0.13824105392E+02 -0.60920755609E+02 -0.10117043136E+03  0.11890710885E+03  0.10000000000E+01 0.  0.
<mgrwt>
<rscale>  0 0.12500089E+03</rscale>
<asrwt>0</asrwt>
<pdfrwt beam="2">  1        4 0.34799882E-01 0.12500089E+03</pdfrwt>
<pdfrwt beam="1">  1       -4 0.26568175E-02 0.12500089E+03</pdfrwt>
<totfact> 0.83281839E+03</totfact>
</mgrwt>
</event>
<event>
 5    1  0.3289127E-002  0.1250005E+03  0.7818608E-02  0.1235068E+00
          4   -1    0    0  501    0  0.00000000000E+00  0.00000000000E+00  0.14941736286E+04  0.14941741683E+04  0.12700000000E+01 0.  1.
         -4   -1    0    0    0  501 -0.00000000000E+00 -0.00000000000E+00 -0.24595355779E+01  0.27680706745E+01  0.12700000000E+01 0.  1.
         25    2    1    2    0    0  0.00000000000E+00  0.00000000000E+00  0.14917140930E+04  0.14969422390E+04  0.12500052637E+03 0.  0.
    9000005    1    3    3    0    0 -0.50805261209E+02  0.14996357544E+02  0.34881633874E+03  0.35281709636E+03  0.10000000000E+01 0.  0.
    9000005    1    3    3    0    0  0.50805261209E+02 -0.14996357544E+02  0.11428977542E+04  0.11441251426E+04  0.10000000000E+01 0.  0.
<mgrwt>
<rscale>  0 0.12500053E+03</rscale>
<asrwt>0</asrwt>
<pdfrwt beam="1">  1        4 0.22989641E+00 0.12500053E+03</pdfrwt>
<pdfrwt beam="2">  1       -4 0.40216549E-03 0.12500053E+03</pdfrwt>
<totfact> 0.17990464E+03</totfact>
</mgrwt>
</event>
<event>
 5    1  0.3289127E-002  0.1250211E+03  0.7818608E-02  0.1235036E+00
         -4   -1    0    0    0  501 -0.00000000000E+00  0.00000000000E+00  0.23547635912E+02  0.23581858643E+02  0.12700000000E+01 0.  1.
          4   -1    0    0  501    0  0.00000000000E+00 -0.00000000000E+00 -0.16578611385E+03  0.16579097818E+03  0.12700000000E+01 0.  1.
         25    2    1    2    0    0  0.00000000000E+00  0.00000000000E+00 -0.14223847794E+03  0.18937283682E+03  0.12502114509E+03 0.  0.
    9000005    1    3    3    0    0  0.37399437720E+02  0.47010531587E+02 -0.44976988454E+02  0.75050899476E+02  0.10000000000E+01 0.  0.
    9000005    1    3    3    0    0 -0.37399437720E+02 -0.47010531587E+02 -0.97261489482E+02  0.11432193734E+03  0.10000000000E+01 0.  0.
<mgrwt>
<rscale>  0 0.12502115E+03</rscale>
<asrwt>0</asrwt>
<pdfrwt beam="2">  1        4 0.25508562E-01 0.12502115E+03</pdfrwt>
<pdfrwt beam="1">  1       -4 0.36257200E-02 0.12502115E+03</pdfrwt>
<totfact> 0.91913010E+03</totfact>
</mgrwt>
</event>
<event>
 5    1  0.3289127E-002  0.1250019E+03  0.7818608E-02  0.1235066E+00
         -4   -1    0    0    0  501 -0.00000000000E+00  0.00000000000E+00  0.27791221371E+02  0.27820224394E+02  0.12700000000E+01 0.  1.
          4   -1    0    0  501    0  0.00000000000E+00 -0.00000000000E+00 -0.14045611952E+03  0.14046186106E+03  0.12700000000E+01 0.  1.
         25    2    1    2    0    0  0.00000000000E+00  0.00000000000E+00 -0.11266489815E+03  0.16828208545E+03  0.12500192402E+03 0.  0.
    9000005    1    3    3    0    0  0.40658565385E+02  0.17670739910E+02 -0.11562793528E+03  0.12383938552E+03  0.10000000000E+01 0.  0.
    9000005    1    3    3    0    0 -0.40658565385E+02 -0.17670739910E+02  0.29630371301E+01  0.44442699931E+02  0.10000000000E+01 0.  0.
<mgrwt>
<rscale>  0 0.12500192E+03</rscale>
<asrwt>0</asrwt>
<pdfrwt beam="2">  1        4 0.21611306E-01 0.12500192E+03</pdfrwt>
<pdfrwt beam="1">  1       -4 0.42782452E-02 0.12500192E+03</pdfrwt>
<totfact> 0.95765265E+03</totfact>
</mgrwt>
</event>
<event>
 5    1  0.3289127E-002  0.1250005E+03  0.7818608E-02  0.1235069E+00
         -4   -1    0    0    0  501 -0.00000000000E+00  0.00000000000E+00  0.23430770706E+02  0.23465163879E+02  0.12700000000E+01 0.  1.
          4   -1    0    0  501    0  0.00000000000E+00 -0.00000000000E+00 -0.16655676080E+03  0.16656160263E+03  0.12700000000E+01 0.  1.
         25    2    1    2    0    0  0.00000000000E+00  0.00000000000E+00 -0.14312599010E+03  0.19002676651E+03  0.12500049179E+03 0.  0.
    9000005    1    3    3    0    0  0.25677146863E+01  0.48735877359E+02 -0.13089985331E+03  0.13970522717E+03  0.10000000000E+01 0.  0.
    9000005    1    3    3    0    0 -0.25677146863E+01 -0.48735877359E+02 -0.12226136784E+02  0.50321539338E+02  0.10000000000E+01 0.  0.
<mgrwt>
<rscale>  0 0.12500049E+03</rscale>
<asrwt>0</asrwt>
<pdfrwt beam="2">  1        4 0.25627134E-01 0.12500049E+03</pdfrwt>
<pdfrwt beam="1">  1       -4 0.36077521E-02 0.12500049E+03</pdfrwt>
<totfact> 0.91841646E+03</totfact>
</mgrwt>
</event>
<event>
 5    1  0.3289127E-002  0.1250100E+03  0.7818608E-02  0.1235054E+00
         -4   -1    0    0    0  501 -0.00000000000E+00  0.00000000000E+00  0.30508468283E+02  0.30534890486E+02  0.12700000000E+01 0.  1.
          4   -1    0    0  501    0  0.00000000000E+00 -0.00000000000E+00 -0.12797375581E+03  0.12798005733E+03  0.12700000000E+01 0.  1.
         25    2    1    2    0    0  0.00000000000E+00  0.00000000000E+00 -0.97465287524E+02  0.15851494782E+03  0.12501002524E+03 0.  0.
    9000005    1    3    3    0    0  0.59629381547E+02  0.15106013634E+02 -0.62739610986E+02  0.87869867294E+02  0.10000000000E+01 0.  0.
    9000005    1    3    3    0    0 -0.59629381547E+02 -0.15106013634E+02 -0.34725676538E+02  0.70645080527E+02  0.10000000000E+01 0.  0.
<mgrwt>
<rscale>  0 0.12501003E+03</rscale>
<asrwt>0</asrwt>
<pdfrwt beam="2">  1        4 0.19690787E-01 0.12501003E+03</pdfrwt>
<pdfrwt beam="1">  1       -4 0.46961278E-02 0.12501003E+03</pdfrwt>
<totfact> 0.97607857E+03</totfact>
</mgrwt>
</event>
<event>
 5    1  0.3289127E-002  0.1249988E+03  0.7818608E-02  0.1235071E+00
         -4   -1    0    0    0  501 -0.00000000000E+00  0.00000000000E+00  0.12587947873E+03  0.12588588509E+03  0.12700000000E+01 0. -1.
          4   -1    0    0  501    0  0.00000000000E+00 -0.00000000000E+00 -0.31010853707E+02  0.31036848223E+02  0.12700000000E+01 0. -1.
         25    2    1    2    0    0  0.00000000000E+00  0.00000000000E+00  0.94868625019E+02  0.15692273331E+03  0.12499875286E+03 0.  0.
    9000005    1    3    3    0    0 -0.14052717838E+02  0.12689893462E+02  0.12219786841E+03  0.12366014443E+03  0.10000000000E+01 0.  0.
    9000005    1    3    3    0    0  0.14052717838E+02 -0.12689893462E+02 -0.27329243396E+02  0.33262588884E+02  0.10000000000E+01 0.  0.
<mgrwt>
<rscale>  0 0.12499875E+03</rscale>
<asrwt>0</asrwt>
<pdfrwt beam="2">  1        4 0.47733929E-02 0.12499875E+03</pdfrwt>
<pdfrwt beam="1">  1       -4 0.19368566E-01 0.12499875E+03</pdfrwt>
<totfact> 0.97942105E+03</totfact>
</mgrwt>
</event>
<event>
 5    1  0.3289127E-002  0.1250080E+03  0.7818608E-02  0.1235057E+00
         -4   -1    0    0    0  501 -0.00000000000E+00  0.00000000000E+00  0.15676785931E+03  0.15677300345E+03  0.12700000000E+01 0.  1.
          4   -1    0    0  501    0  0.00000000000E+00 -0.00000000000E+00 -0.24898882268E+02  0.24931250234E+02  0.12700000000E+01 0.  1.
         25    2    1    2    0    0  0.00000000000E+00  0.00000000000E+00  0.13186897704E+03  0.18170425369E+03  0.12500803455E+03 0.  0.
    9000005    1    3    3    0    0 -0.57036391098E+01  0.24356764987E+02  0.14918022796E+03  0.15126640048E+03  0.10000000000E+01 0.  0.
    9000005    1    3    3    0    0  0.57036391098E+01 -0.24356764987E+02 -0.17311250918E+02  0.30437853211E+02  0.10000000000E+01 0.  0.
<mgrwt>
<rscale>  0 0.12500803E+03</rscale>
<asrwt>0</asrwt>
<pdfrwt beam="2">  1        4 0.38334829E-02 0.12500803E+03</pdfrwt>
<pdfrwt beam="1">  1       -4 0.24121017E-01 0.12500803E+03</pdfrwt>
<totfact> 0.93294324E+03</totfact>
</mgrwt>
</event>
<event>
 5    1  0.3289127E-002  0.1250007E+03  0.7818608E-02  0.1235068E+00
          4   -1    0    0  501    0  0.00000000000E+00  0.00000000000E+00  0.20192241065E+03  0.20192640447E+03  0.12700000000E+01 0.  1.
         -4   -1    0    0    0  501 -0.00000000000E+00 -0.00000000000E+00 -0.19320476566E+02  0.19362172263E+02  0.12700000000E+01 0.  1.
         25    2    1    2    0    0  0.00000000000E+00  0.00000000000E+00  0.18260193408E+03  0.22128857673E+03  0.12500067144E+03 0.  0.
    9000005    1    3    3    0    0  0.14788351585E+02 -0.49848600110E+02  0.15266969961E+03  0.16128426909E+03  0.10000000000E+01 0.  0.
    9000005    1    3    3    0    0 -0.14788351585E+02  0.49848600110E+02  0.29932234472E+02  0.60004307646E+02  0.10000000000E+01 0.  0.
<mgrwt>
<rscale>  0 0.12500067E+03</rscale>
<asrwt>0</asrwt>
<pdfrwt beam="1">  1        4 0.31068499E-01 0.12500067E+03</pdfrwt>
<pdfrwt beam="2">  1       -4 0.29758958E-02 0.12500067E+03</pdfrwt>
<totfact> 0.86663560E+03</totfact>
</mgrwt>
</event>
<event>
 5    1  0.3289127E-002  0.1250003E+03  0.7818608E-02  0.1235069E+00
         -4   -1    0    0    0  501 -0.00000000000E+00  0.00000000000E+00  0.49980277902E+02  0.49996410662E+02  0.12700000000E+01 0. -1.
          4   -1    0    0  501    0  0.00000000000E+00 -0.00000000000E+00 -0.78122239356E+02  0.78132561599E+02  0.12700000000E+01 0. -1.
         25    2    1    2    0    0  0.00000000000E+00  0.00000000000E+00 -0.28141961455E+02  0.12812897226E+03  0.12500025415E+03 0.  0.
    9000005    1    3    3    0    0 -0.44298817032E+02  0.39288133982E+02 -0.34554224335E+02  0.68563380034E+02  0.10000000000E+01 0.  0.
    9000005    1    3    3    0    0  0.44298817032E+02 -0.39288133982E+02  0.64122628799E+01  0.59565592228E+02  0.10000000000E+01 0.  0.
<mgrwt>
<rscale>  0 0.12500025E+03</rscale>
<asrwt>0</asrwt>
<pdfrwt beam="2">  1        4 0.12020841E-01 0.12500025E+03</pdfrwt>
<pdfrwt beam="1">  1       -4 0.76913085E-02 0.12500025E+03</pdfrwt>
<totfact> 0.10384644E+04</totfact>
</mgrwt>
</event>
<event>
 5    1  0.3289127E-002  0.1250011E+03  0.7818608E-02  0.1235068E+00
         -4   -1    0    0    0  501 -0.00000000000E+00  0.00000000000E+00  0.50469686330E+03  0.50469846119E+03  0.12700000000E+01 0. -1.
          4   -1    0    0  501    0  0.00000000000E+00 -0.00000000000E+00 -0.76862165679E+01  0.77904316394E+01  0.12700000000E+01 0. -1.
         25    2    1    2    0    0  0.00000000000E+00  0.00000000000E+00  0.49701064673E+03  0.51248889283E+03  0.12500112922E+03 0.  0.
    9000005    1    3    3    0    0  0.55961691337E+02 -0.23445268028E+02  0.30985690666E+03  0.31574308242E+03  0.10000000000E+01 0.  0.
    9000005    1    3    3    0    0 -0.55961691337E+02  0.23445268028E+02  0.18715374007E+03  0.19674581041E+03  0.10000000000E+01 0.  0.
<mgrwt>
<rscale>  0 0.12500113E+03</rscale>
<asrwt>0</asrwt>
<pdfrwt beam="2">  1        4 0.11906342E-02 0.12500113E+03</pdfrwt>
<pdfrwt beam="1">  1       -4 0.77653818E-01 0.12500113E+03</pdfrwt>
<totfact> 0.54906870E+03</totfact>
</mgrwt>
</event>
<event>
 5    1  0.3289127E-002  0.1249998E+03  0.7818608E-02  0.1235070E+00
          4   -1    0    0  501    0  0.00000000000E+00  0.00000000000E+00  0.18157053995E+02  0.18201415048E+02  0.12700000000E+01 0. -1.
         -4   -1    0    0    0  501 -0.00000000000E+00 -0.00000000000E+00 -0.21482724129E+03  0.21483099521E+03  0.12700000000E+01 0. -1.
         25    2    1    2    0    0  0.00000000000E+00  0.00000000000E+00 -0.19667018730E+03  0.23303241026E+03  0.12499976663E+03 0.  0.
    9000005    1    3    3    0    0  0.26158579324E+01  0.62294247117E+02 -0.10620472902E+03  0.12315786781E+03  0.10000000000E+01 0.  0.
    9000005    1    3    3    0    0 -0.26158579324E+01 -0.62294247117E+02 -0.90465458279E+02  0.10987454245E+03  0.10000000000E+01 0.  0.
<mgrwt>
<rscale>  0 0.12499977E+03</rscale>
<asrwt>0</asrwt>
<pdfrwt beam="1">  1        4 0.27970942E-02 0.12499977E+03</pdfrwt>
<pdfrwt beam="2">  1       -4 0.33054044E-01 0.12499977E+03</pdfrwt>
<totfact> 0.84846575E+03</totfact>
</mgrwt>
</event>
<event>
 5    1  0.3289127E-002  0.1250029E+03  0.7818608E-02  0.1235065E+00
         -4   -1    0    0    0  501 -0.00000000000E+00  0.00000000000E+00  0.20862026864E+03  0.20862413424E+03  0.12700000000E+01 0. -1.
          4   -1    0    0  501    0  0.00000000000E+00 -0.00000000000E+00 -0.18699491637E+02  0.18742568860E+02  0.12700000000E+01 0. -1.
         25    2    1    2    0    0  0.00000000000E+00  0.00000000000E+00  0.18992077700E+03  0.22736670310E+03  0.12500286453E+03 0.  0.
    9000005    1    3    3    0    0 -0.20732327603E+02 -0.40039060257E+02  0.16253142996E+02  0.47938715161E+02  0.10000000000E+01 0.  0.
    9000005    1    3    3    0    0  0.20732327603E+02  0.40039060257E+02  0.17366763400E+03  0.17942798793E+03  0.10000000000E+01 0.  0.
<mgrwt>
<rscale>  0 0.12500286E+03</rscale>
<asrwt>0</asrwt>
<pdfrwt beam="2">  1        4 0.28804558E-02 0.12500286E+03</pdfrwt>
<pdfrwt beam="1">  1       -4 0.32099037E-01 0.12500286E+03</pdfrwt>
<totfact> 0.85710109E+03</totfact>
</mgrwt>
</event>
<event>
 5    1  0.3289127E-002  0.1249990E+03  0.7818608E-02  0.1235071E+00
         -4   -1    0    0    0  501 -0.00000000000E+00  0.00000000000E+00  0.81838156770E+02  0.81848010382E+02  0.12700000000E+01 0.  1.
          4   -1    0    0  501    0  0.00000000000E+00 -0.00000000000E+00 -0.47709445915E+02  0.47726346282E+02  0.12700000000E+01 0.  1.
         25    2    1    2    0    0  0.00000000000E+00  0.00000000000E+00  0.34128710856E+02  0.12957435666E+03  0.12499898000E+03 0.  0.
    9000005    1    3    3    0    0 -0.27758286656E+02 -0.29063869204E+02 -0.32540717516E+02  0.51721651827E+02  0.10000000000E+01 0.  0.
    9000005    1    3    3    0    0  0.27758286656E+02  0.29063869204E+02  0.66669428372E+02  0.77852704838E+02  0.10000000000E+01 0.  0.
<mgrwt>
<rscale>  0 0.12499898E+03</rscale>
<asrwt>0</asrwt>
<pdfrwt beam="2">  1        4 0.73419728E-02 0.12499898E+03</pdfrwt>
<pdfrwt beam="1">  1       -4 0.12592544E-01 0.12499898E+03</pdfrwt>
<totfact> 0.10353860E+04</totfact>
</mgrwt>
</event>
<event>
 5    1  0.3289127E-002  0.1250017E+03  0.7818608E-02  0.1235067E+00
         -4   -1    0    0    0  501 -0.00000000000E+00  0.00000000000E+00  0.10425494465E+04  0.10425502200E+04  0.12700000000E+01 0.  1.
          4   -1    0    0  501    0  0.00000000000E+00 -0.00000000000E+00 -0.36385173999E+01  0.38537914928E+01  0.12700000000E+01 0.  1.
         25    2    1    2    0    0  0.00000000000E+00  0.00000000000E+00  0.10389109291E+04  0.10464040115E+04  0.12500174695E+03 0.  0.
    9000005    1    3    3    0    0  0.39270079029E+02  0.23564740287E+02  0.87539259064E+03  0.87659033980E+03  0.10000000000E+01 0.  0.
    9000005    1    3    3    0    0 -0.39270079029E+02 -0.23564740287E+02  0.16351833846E+03  0.16981367173E+03  0.10000000000E+01 0.  0.
<mgrwt>
<rscale>  0 0.12500175E+03</rscale>
<asrwt>0</asrwt>
<pdfrwt beam="2">  1        4 0.57639142E-03 0.12500175E+03</pdfrwt>
<pdfrwt beam="1">  1       -4 0.16040871E+00 0.12500175E+03</pdfrwt>
<totfact> 0.29106230E+03</totfact>
</mgrwt>
</event>
<event>
 5    1  0.3289127E-002  0.1250011E+03  0.7818608E-02  0.1235068E+00
         -4   -1    0    0    0  501 -0.00000000000E+00  0.00000000000E+00  0.15427856098E+03  0.15428378812E+03  0.12700000000E+01 0. -1.
          4   -1    0    0  501    0  0.00000000000E+00 -0.00000000000E+00 -0.25298322302E+02  0.25330179851E+02  0.12700000000E+01 0. -1.
         25    2    1    2    0    0  0.00000000000E+00  0.00000000000E+00  0.12898023868E+03  0.17961396797E+03  0.12500110208E+03 0.  0.
    9000005    1    3    3    0    0  0.25381273029E+02 -0.28559824620E+02 -0.65666288139E+01  0.38781351406E+02  0.10000000000E+01 0.  0.
    9000005    1    3    3    0    0 -0.25381273029E+02  0.28559824620E+02  0.13554686749E+03  0.14083261657E+03  0.10000000000E+01 0.  0.
<mgrwt>
<rscale>  0 0.12500110E+03</rscale>
<asrwt>0</asrwt>
<pdfrwt beam="2">  1        4 0.38949022E-02 0.12500110E+03</pdfrwt>
<pdfrwt beam="1">  1       -4 0.23738016E-01 0.12500110E+03</pdfrwt>
<totfact> 0.93684221E+03</totfact>
</mgrwt>
</event>
<event>
 5    1  0.3289127E-002  0.1250012E+03  0.7818608E-02  0.1235067E+00
         -4   -1    0    0    0  501 -0.00000000000E+00  0.00000000000E+00  0.13001306760E+03  0.13001927029E+03  0.12700000000E+01 0. -1.
          4   -1    0    0  501    0  0.00000000000E+00 -0.00000000000E+00 -0.30025297185E+02  0.30052144201E+02  0.12700000000E+01 0. -1.
         25    2    1    2    0    0  0.00000000000E+00  0.00000000000E+00  0.99987770415E+02  0.16007141449E+03  0.12500121401E+03 0.  0.
    9000005    1    3    3    0    0 -0.39273603153E+02  0.90009584605E+01 -0.11177337728E+02  0.41825423327E+02  0.10000000000E+01 0.  0.
    9000005    1    3    3    0    0  0.39273603153E+02 -0.90009584605E+01  0.11116510814E+03  0.11824599116E+03  0.10000000000E+01 0.  0.
<mgrwt>
<rscale>  0 0.12500121E+03</rscale>
<asrwt>0</asrwt>
<pdfrwt beam="2">  1        4 0.46218188E-02 0.12500121E+03</pdfrwt>
<pdfrwt beam="1">  1       -4 0.20004553E-01 0.12500121E+03</pdfrwt>
<totfact> 0.97326362E+03</totfact>
</mgrwt>
</event>
<event>
 5    1  0.3289127E-002  0.1250020E+03  0.7818608E-02  0.1235066E+00
         -4   -1    0    0    0  501 -0.00000000000E+00  0.00000000000E+00  0.65938578965E+02  0.65950808153E+02  0.12700000000E+01 0. -1.
          4   -1    0    0  501    0  0.00000000000E+00 -0.00000000000E+00 -0.59218085956E+02  0.59231702697E+02  0.12700000000E+01 0. -1.
         25    2    1    2    0    0  0.00000000000E+00  0.00000000000E+00  0.67204930090E+01  0.12518251085E+03  0.12500198397E+03 0.  0.
    9000005    1    3    3    0    0  0.48050994196E+02  0.32301756407E+02  0.26911703534E+02  0.63855628549E+02  0.10000000000E+01 0.  0.
    9000005    1    3    3    0    0 -0.48050994196E+02 -0.32301756407E+02 -0.20191210525E+02  0.61326882300E+02  0.10000000000E+01 0.  0.
<mgrwt>
<rscale>  0 0.12500198E+03</rscale>
<asrwt>0</asrwt>
<pdfrwt beam="2">  1        4 0.91124629E-02 0.12500198E+03</pdfrwt>
<pdfrwt beam="1">  1       -4 0.10146385E-01 0.12500198E+03</pdfrwt>
<totfact> 0.10448431E+04</totfact>
</mgrwt>
</event>
<event>
 5    1  0.3289127E-002  0.1250012E+03  0.7818608E-02  0.1235067E+00
         -4   -1    0    0    0  501 -0.00000000000E+00  0.00000000000E+00  0.20255502664E+03  0.20255900798E+03  0.12700000000E+01 0.  1.
          4   -1    0    0  501    0  0.00000000000E+00 -0.00000000000E+00 -0.19260154541E+02  0.19301980545E+02  0.12700000000E+01 0.  1.
         25    2    1    2    0    0  0.00000000000E+00  0.00000000000E+00  0.18329487210E+03  0.22186098853E+03  0.12500115237E+03 0.  0.
    9000005    1    3    3    0    0  0.19858275330E+01 -0.20414520471E+02 -0.13124508646E+02  0.24371066539E+02  0.10000000000E+01 0.  0.
    9000005    1    3    3    0    0 -0.19858275330E+01  0.20414520471E+02  0.19641938074E+03  0.19748992199E+03  0.10000000000E+01 0.  0.
<mgrwt>
<rscale>  0 0.12500115E+03</rscale>
<asrwt>0</asrwt>
<pdfrwt beam="2">  1        4 0.29666242E-02 0.12500115E+03</pdfrwt>
<pdfrwt beam="1">  1       -4 0.31165837E-01 0.12500115E+03</pdfrwt>
<totfact> 0.86572496E+03</totfact>
</mgrwt>
</event>
<event>
 5    1  0.3289127E-002  0.1250001E+03  0.7818608E-02  0.1235069E+00
          4   -1    0    0  501    0  0.00000000000E+00  0.00000000000E+00  0.25002526058E+02  0.25034760020E+02  0.12700000000E+01 0. -1.
         -4   -1    0    0    0  501 -0.00000000000E+00 -0.00000000000E+00 -0.15609891789E+03  0.15610408408E+03  0.12700000000E+01 0. -1.
         25    2    1    2    0    0  0.00000000000E+00  0.00000000000E+00 -0.13109639183E+03  0.18113884410E+03  0.12500006756E+03 0.  0.
    9000005    1    3    3    0    0 -0.17879490499E+02 -0.16146095228E+02  0.18010074124E+02  0.30095437222E+02  0.10000000000E+01 0.  0.
    9000005    1    3    3    0    0  0.17879490499E+02  0.16146095228E+02 -0.14910646595E+03  0.15104340688E+03  0.10000000000E+01 0.  0.
<mgrwt>
<rscale>  0 0.12500007E+03</rscale>
<asrwt>0</asrwt>
<pdfrwt beam="1">  1        4 0.38494195E-02 0.12500007E+03</pdfrwt>
<pdfrwt beam="2">  1       -4 0.24018095E-01 0.12500007E+03</pdfrwt>
<totfact> 0.93412267E+03</totfact>
</mgrwt>
</event>
<event>
 5    1  0.3289127E-002  0.1250016E+03  0.7818608E-02  0.1235067E+00
         -4   -1    0    0    0  501 -0.00000000000E+00  0.00000000000E+00  0.16652338194E+02  0.16700696612E+02  0.12700000000E+01 0.  1.
          4   -1    0    0  501    0  0.00000000000E+00 -0.00000000000E+00 -0.23419251040E+03  0.23419595391E+03  0.12700000000E+01 0.  1.
         25    2    1    2    0    0  0.00000000000E+00  0.00000000000E+00 -0.21754017220E+03  0.25089665052E+03  0.12500161087E+03 0.  0.
    9000005    1    3    3    0    0 -0.34004283053E+02  0.16583416478E+02 -0.89349384196E+01  0.38886168397E+02  0.10000000000E+01 0.  0.
    9000005    1    3    3    0    0  0.34004283053E+02 -0.16583416478E+02 -0.20860523378E+03  0.21201048212E+03  0.10000000000E+01 0.  0.
<mgrwt>
<rscale>  0 0.12500161E+03</rscale>
<asrwt>0</asrwt>
<pdfrwt beam="2">  1        4 0.36033599E-01 0.12500161E+03</pdfrwt>
<pdfrwt beam="1">  1       -4 0.25658831E-02 0.12500161E+03</pdfrwt>
<totfact> 0.82197858E+03</totfact>
</mgrwt>
</event>
<event>
 5    1  0.3289127E-002  0.1250002E+03  0.7818608E-02  0.1235069E+00
         -4   -1    0    0    0  501 -0.00000000000E+00  0.00000000000E+00  0.78467424518E+03  0.78467527293E+03  0.12700000000E+01 0.  1.
          4   -1    0    0  501    0  0.00000000000E+00 -0.00000000000E+00 -0.48961531599E+01  0.50581830498E+01  0.12700000000E+01 0.  1.
         25    2    1    2    0    0  0.00000000000E+00  0.00000000000E+00  0.77977809202E+03  0.78973345598E+03  0.12500023480E+03 0.  0.
    9000005    1    3    3    0    0  0.57963266916E+02  0.20654295449E+02  0.45878683274E+03  0.46289599062E+03  0.10000000000E+01 0.  0.
    9000005    1    3    3    0    0 -0.57963266916E+02 -0.20654295449E+02  0.32099125928E+03  0.32683746536E+03  0.10000000000E+01 0.  0.
<mgrwt>
<rscale>  0 0.12500023E+03</rscale>
<asrwt>0</asrwt>
<pdfrwt beam="2">  1        4 0.76579679E-03 0.12500023E+03</pdfrwt>
<pdfrwt beam="1">  1       -4 0.12073173E+00 0.12500023E+03</pdfrwt>
<totfact> 0.38726963E+03</totfact>
</mgrwt>
</event>
<event>
 5    1  0.3289127E-002  0.1250020E+03  0.7818608E-02  0.1235066E+00
         -4   -1    0    0    0  501 -0.00000000000E+00  0.00000000000E+00  0.86212733975E+01  0.87143132256E+01  0.12700000000E+01 0. -1.
          4   -1    0    0  501    0  0.00000000000E+00 -0.00000000000E+00 -0.45058325495E+03  0.45058504474E+03  0.12700000000E+01 0. -1.
         25    2    1    2    0    0  0.00000000000E+00  0.00000000000E+00 -0.44196198156E+03  0.45929935797E+03  0.12500202833E+03 0.  0.
    9000005    1    3    3    0    0 -0.26917838184E+02  0.47784220527E+02 -0.11090566870E+03  0.12372941887E+03  0.10000000000E+01 0.  0.
    9000005    1    3    3    0    0  0.26917838184E+02 -0.47784220527E+02 -0.33105631286E+03  0.33556993910E+03  0.10000000000E+01 0.  0.
<mgrwt>
<rscale>  0 0.12500203E+03</rscale>
<asrwt>0</asrwt>
<pdfrwt beam="2">  1        4 0.69327777E-01 0.12500203E+03</pdfrwt>
<pdfrwt beam="1">  1       -4 0.13336447E-02 0.12500203E+03</pdfrwt>
<totfact> 0.59163940E+03</totfact>
</mgrwt>
</event>
<event>
 5    1  0.3289127E-002  0.1250020E+03  0.7818608E-02  0.1235066E+00
         -4   -1    0    0    0  501 -0.00000000000E+00  0.00000000000E+00  0.17799400264E+02  0.17844650452E+02  0.12700000000E+01 0. -1.
          4   -1    0    0  501    0  0.00000000000E+00 -0.00000000000E+00 -0.21914098558E+03  0.21914466560E+03  0.12700000000E+01 0. -1.
         25    2    1    2    0    0  0.00000000000E+00  0.00000000000E+00 -0.20134158532E+03  0.23698931606E+03  0.12500200777E+03 0.  0.
    9000005    1    3    3    0    0  0.36509584112E+02 -0.44675669941E+01 -0.48870477570E+01  0.37118622316E+02  0.10000000000E+01 0.  0.
    9000005    1    3    3    0    0 -0.36509584112E+02  0.44675669941E+01 -0.19645453756E+03  0.19987069374E+03  0.10000000000E+01 0.  0.
<mgrwt>
<rscale>  0 0.12500201E+03</rscale>
<asrwt>0</asrwt>
<pdfrwt beam="2">  1        4 0.33717760E-01 0.12500201E+03</pdfrwt>
<pdfrwt beam="1">  1       -4 0.27421333E-02 0.12500201E+03</pdfrwt>
<totfact> 0.84244037E+03</totfact>
</mgrwt>
</event>
<event>
 5    1  0.3289127E-002  0.1249964E+03  0.7818608E-02  0.1235075E+00
          4   -1    0    0  501    0  0.00000000000E+00  0.00000000000E+00  0.41750545586E+03  0.41750738745E+03  0.12700000000E+01 0.  1.
         -4   -1    0    0    0  501 -0.00000000000E+00 -0.00000000000E+00 -0.93105621741E+01  0.93967796610E+01  0.12700000000E+01 0.  1.
         25    2    1    2    0    0  0.00000000000E+00  0.00000000000E+00  0.40819489369E+03  0.42690416711E+03  0.12499638660E+03 0.  0.
    9000005    1    3    3    0    0 -0.33619727312E+02 -0.13292290342E+02  0.37818068184E+03  0.37990603991E+03  0.10000000000E+01 0.  0.
    9000005    1    3    3    0    0  0.33619727312E+02  0.13292290342E+02  0.30014211851E+02  0.46998127198E+02  0.10000000000E+01 0.  0.
<mgrwt>
<rscale>  0 0.12499639E+03</rscale>
<asrwt>0</asrwt>
<pdfrwt beam="1">  1        4 0.64238378E-01 0.12499639E+03</pdfrwt>
<pdfrwt beam="2">  1       -4 0.14391751E-02 0.12499639E+03</pdfrwt>
<totfact> 0.62022562E+03</totfact>
</mgrwt>
</event>
<event>
 5    1  0.3289127E-002  0.1249992E+03  0.7818608E-02  0.1235070E+00
          4   -1    0    0  501    0  0.00000000000E+00  0.00000000000E+00  0.19015212564E+02  0.19057576154E+02  0.12700000000E+01 0.  1.
         -4   -1    0    0    0  501 -0.00000000000E+00 -0.00000000000E+00 -0.20515215926E+03  0.20515609021E+03  0.12700000000E+01 0.  1.
         25    2    1    2    0    0  0.00000000000E+00  0.00000000000E+00 -0.18613694670E+03  0.22421366636E+03  0.12499922103E+03 0.  0.
    9000005    1    3    3    0    0 -0.69927684703E+00 -0.47072505996E+02 -0.19353510759E+02  0.50910393708E+02  0.10000000000E+01 0.  0.
    9000005    1    3    3    0    0  0.69927684703E+00  0.47072505996E+02 -0.16678343594E+03  0.17330327265E+03  0.10000000000E+01 0.  0.
<mgrwt>
<rscale>  0 0.12499922E+03</rscale>
<asrwt>0</asrwt>
<pdfrwt beam="1">  1        4 0.29289786E-02 0.12499922E+03</pdfrwt>
<pdfrwt beam="2">  1       -4 0.31565430E-01 0.12499922E+03</pdfrwt>
<totfact> 0.86207452E+03</totfact>
</mgrwt>
</event>
<event>
 5    1  0.3289127E-002  0.1250025E+03  0.7818608E-02  0.1235065E+00
          4   -1    0    0  501    0  0.00000000000E+00  0.00000000000E+00  0.14090518664E+02  0.14147636418E+02  0.12700000000E+01 0.  1.
         -4   -1    0    0    0  501 -0.00000000000E+00 -0.00000000000E+00 -0.27661735102E+03  0.27662026640E+03  0.12700000000E+01 0.  1.
         25    2    1    2    0    0  0.00000000000E+00  0.00000000000E+00 -0.26252683235E+03  0.29076790282E+03  0.12500254239E+03 0.  0.
    9000005    1    3    3    0    0  0.61863938491E+02  0.79938299851E+01 -0.12244855686E+03  0.13742524252E+03  0.10000000000E+01 0.  0.
    9000005    1    3    3    0    0 -0.61863938491E+02 -0.79938299851E+01 -0.14007827549E+03  0.15334266030E+03  0.10000000000E+01 0.  0.
<mgrwt>
<rscale>  0 0.12500254E+03</rscale>
<asrwt>0</asrwt>
<pdfrwt beam="1">  1        4 0.21723902E-02 0.12500254E+03</pdfrwt>
<pdfrwt beam="2">  1       -4 0.42561129E-01 0.12500254E+03</pdfrwt>
<totfact> 0.76767350E+03</totfact>
</mgrwt>
</event>
<event>
 5    1  0.3289127E-002  0.1250081E+03  0.7818608E-02  0.1235057E+00
         -4   -1    0    0    0  501 -0.00000000000E+00  0.00000000000E+00  0.43864567111E+03  0.43864750961E+03  0.12700000000E+01 0.  1.
          4   -1    0    0  501    0  0.00000000000E+00 -0.00000000000E+00 -0.88592641619E+01  0.89498302492E+01  0.12700000000E+01 0.  1.
         25    2    1    2    0    0  0.00000000000E+00  0.00000000000E+00  0.42978640695E+03  0.44759733986E+03  0.12500809193E+03 0.  0.
    9000005    1    3    3    0    0 -0.52072607002E+02  0.75625539024E+01  0.94158820626E+02  0.10786858729E+03  0.10000000000E+01 0.  0.
    9000005    1    3    3    0    0  0.52072607002E+02 -0.75625539024E+01  0.33562758632E+03  0.33972875257E+03  0.10000000000E+01 0.  0.
<mgrwt>
<rscale>  0 0.12500809E+03</rscale>
<asrwt>0</asrwt>
<pdfrwt beam="2">  1        4 0.13700716E-02 0.12500809E+03</pdfrwt>
<pdfrwt beam="1">  1       -4 0.67491066E-01 0.12500809E+03</pdfrwt>
<totfact> 0.60161772E+03</totfact>
</mgrwt>
</event>
<event>
 5    1  0.3289127E-002  0.1249991E+03  0.7818608E-02  0.1235071E+00
         -4   -1    0    0    0  501 -0.00000000000E+00  0.00000000000E+00  0.25315571399E+03  0.25315889956E+03  0.12700000000E+01 0.  1.
          4   -1    0    0  501    0  0.00000000000E+00 -0.00000000000E+00 -0.15400593312E+02  0.15452869454E+02  0.12700000000E+01 0.  1.
         25    2    1    2    0    0  0.00000000000E+00  0.00000000000E+00  0.23775512068E+03  0.26861176901E+03  0.12499914017E+03 0.  0.
    9000005    1    3    3    0    0  0.29850889897E+01 -0.40726257731E+01 -0.14972028160E+02  0.15832203390E+02  0.10000000000E+01 0.  0.
    9000005    1    3    3    0    0 -0.29850889897E+01  0.40726257731E+01  0.25272714884E+03  0.25277956562E+03  0.10000000000E+01 0.  0.
<mgrwt>
<rscale>  0 0.12499914E+03</rscale>
<asrwt>0</asrwt>
<pdfrwt beam="2">  1        4 0.23735884E-02 0.12499914E+03</pdfrwt>
<pdfrwt beam="1">  1       -4 0.38951297E-01 0.12499914E+03</pdfrwt>
<totfact> 0.79714033E+03</totfact>
</mgrwt>
</event>
<event>
 5    1  0.3289127E-002  0.1250023E+03  0.7818608E-02  0.1235066E+00
         -4   -1    0    0    0  501 -0.00000000000E+00  0.00000000000E+00  0.12346969314E+02  0.12412113085E+02  0.12700000000E+01 0.  1.
          4   -1    0    0  501    0  0.00000000000E+00 -0.00000000000E+00 -0.31548573704E+03  0.31548829325E+03  0.12700000000E+01 0.  1.
         25    2    1    2    0    0  0.00000000000E+00  0.00000000000E+00 -0.30313876773E+03  0.32790040633E+03  0.12500225588E+03 0.  0.
    9000005    1    3    3    0    0  0.37317641144E+02 -0.48864226417E+02 -0.12223316055E+03  0.13682932618E+03  0.10000000000E+01 0.  0.
    9000005    1    3    3    0    0 -0.37317641144E+02  0.48864226417E+02 -0.18090560718E+03  0.19107108016E+03  0.10000000000E+01 0.  0.
<mgrwt>
<rscale>  0 0.12500226E+03</rscale>
<asrwt>0</asrwt>
<pdfrwt beam="2">  1        4 0.48541469E-01 0.12500226E+03</pdfrwt>
<pdfrwt beam="1">  1       -4 0.19047417E-02 0.12500226E+03</pdfrwt>
<totfact> 0.72222619E+03</totfact>
</mgrwt>
</event>
<event>
 5    1  0.3289127E-002  0.1249984E+03  0.7818608E-02  0.1235072E+00
         -4   -1    0    0    0  501 -0.00000000000E+00  0.00000000000E+00  0.23408839760E+03  0.23409184264E+03  0.12700000000E+01 0. -1.
          4   -1    0    0  501    0  0.00000000000E+00 -0.00000000000E+00 -0.16658906226E+02  0.16707245633E+02  0.12700000000E+01 0. -1.
         25    2    1    2    0    0  0.00000000000E+00  0.00000000000E+00  0.21742949137E+03  0.25079908827E+03  0.12499839583E+03 0.  0.
    9000005    1    3    3    0    0  0.36822566867E+02 -0.46698143092E+02  0.70197168349E+02  0.92006849979E+02  0.10000000000E+01 0.  0.
    9000005    1    3    3    0    0 -0.36822566867E+02  0.46698143092E+02  0.14723232302E+03  0.15879223829E+03  0.10000000000E+01 0.  0.
<mgrwt>
<rscale>  0 0.12499840E+03</rscale>
<asrwt>0</asrwt>
<pdfrwt beam="2">  1        4 0.25668920E-02 0.12499840E+03</pdfrwt>
<pdfrwt beam="1">  1       -4 0.36017584E-01 0.12499840E+03</pdfrwt>
<totfact> 0.82217808E+03</totfact>
</mgrwt>
</event>
<event>
 5    1  0.3289127E-002  0.1250014E+03  0.7818608E-02  0.1235067E+00
         -4   -1    0    0    0  501 -0.00000000000E+00  0.00000000000E+00  0.17640958449E+01  0.21736913650E+01  0.12700000000E+01 0. -1.
          4   -1    0    0  501    0  0.00000000000E+00 -0.00000000000E+00 -0.19836158227E+04  0.19836162293E+04  0.12700000000E+01 0. -1.
         25    2    1    2    0    0  0.00000000000E+00  0.00000000000E+00 -0.19818517269E+04  0.19857899206E+04  0.12500136639E+03 0.  0.
    9000005    1    3    3    0    0 -0.17353687823E+02 -0.59912512749E+02 -0.93006775197E+03  0.93215754190E+03  0.10000000000E+01 0.  0.
    9000005    1    3    3    0    0  0.17353687823E+02  0.59912512749E+02 -0.10517839749E+04  0.10536323787E+04  0.10000000000E+01 0.  0.
<mgrwt>
<rscale>  0 0.12500137E+03</rscale>
<asrwt>0</asrwt>
<pdfrwt beam="2">  1        4 0.30520160E+00 0.12500137E+03</pdfrwt>
<pdfrwt beam="1">  1       -4 0.30293957E-03 0.12500137E+03</pdfrwt>
<totfact> 0.10047694E+03</totfact>
</mgrwt>
</event>
<event>
 5    1  0.3289127E-002  0.1250034E+03  0.7818608E-02  0.1235064E+00
          4   -1    0    0  501    0  0.00000000000E+00  0.00000000000E+00  0.28110454002E+02  0.28139127993E+02  0.12700000000E+01 0. -1.
         -4   -1    0    0    0  501 -0.00000000000E+00 -0.00000000000E+00 -0.13886592572E+03  0.13887173299E+03  0.12700000000E+01 0. -1.
         25    2    1    2    0    0  0.00000000000E+00  0.00000000000E+00 -0.11075547171E+03  0.16701086099E+03  0.12500341265E+03 0.  0.
    9000005    1    3    3    0    0 -0.10413894562E+02 -0.54400782809E+02 -0.94044080967E+02  0.10914753105E+03  0.10000000000E+01 0.  0.
    9000005    1    3    3    0    0  0.10413894562E+02  0.54400782809E+02 -0.16711390746E+02  0.57863329933E+02  0.10000000000E+01 0.  0.
<mgrwt>
<rscale>  0 0.12500341E+03</rscale>
<asrwt>0</asrwt>
<pdfrwt beam="1">  1        4 0.43273377E-02 0.12500341E+03</pdfrwt>
<pdfrwt beam="2">  1       -4 0.21366640E-01 0.12500341E+03</pdfrwt>
<totfact> 0.96000559E+03</totfact>
</mgrwt>
</event>
<event>
 5    1  0.3289127E-002  0.1249975E+03  0.7818608E-02  0.1235073E+00
         -4   -1    0    0    0  501 -0.00000000000E+00  0.00000000000E+00  0.65554510242E+02  0.65566811064E+02  0.12700000000E+01 0.  1.
          4   -1    0    0  501    0  0.00000000000E+00 -0.00000000000E+00 -0.59560734075E+02  0.59574272497E+02  0.12700000000E+01 0.  1.
         25    2    1    2    0    0  0.00000000000E+00  0.00000000000E+00  0.59937761669E+01  0.12514108356E+03  0.12499746174E+03 0.  0.
    9000005    1    3    3    0    0  0.53673195219E+01 -0.96020595837E+01  0.64582474850E+02  0.65520254310E+02  0.10000000000E+01 0.  0.
    9000005    1    3    3    0    0 -0.53673195219E+01  0.96020595837E+01 -0.58588698684E+02  0.59620829251E+02  0.10000000000E+01 0.  0.
<mgrwt>
<rscale>  0 0.12499746E+03</rscale>
<asrwt>0</asrwt>
<pdfrwt beam="2">  1        4 0.91651775E-02 0.12499746E+03</pdfrwt>
<pdfrwt beam="1">  1       -4 0.10087297E-01 0.12499746E+03</pdfrwt>
<totfact> 0.10450399E+04</totfact>
</mgrwt>
</event>
<event>
 5    1  0.3289127E-002  0.1249979E+03  0.7818608E-02  0.1235073E+00
          4   -1    0    0  501    0  0.00000000000E+00  0.00000000000E+00  0.76850017306E+02  0.76860510406E+02  0.12700000000E+01 0. -1.
         -4   -1    0    0    0  501 -0.00000000000E+00 -0.00000000000E+00 -0.50805894053E+02  0.50821764733E+02  0.12700000000E+01 0. -1.
         25    2    1    2    0    0  0.00000000000E+00  0.00000000000E+00  0.26044123253E+02  0.12768227514E+03  0.12499786810E+03 0.  0.
    9000005    1    3    3    0    0 -0.34067662530E+02 -0.17738570260E+02 -0.37330099921E+02  0.53570503686E+02  0.10000000000E+01 0.  0.
    9000005    1    3    3    0    0  0.34067662530E+02  0.17738570260E+02  0.63374223173E+02  0.74111771453E+02  0.10000000000E+01 0.  0.
<mgrwt>
<rscale>  0 0.12499787E+03</rscale>
<asrwt>0</asrwt>
<pdfrwt beam="1">  1        4 0.11825108E-01 0.12499787E+03</pdfrwt>
<pdfrwt beam="2">  1       -4 0.78183194E-02 0.12499787E+03</pdfrwt>
<totfact> 0.10394855E+04</totfact>
</mgrwt>
</event>
<event>
 5    1  0.3289127E-002  0.1250031E+03  0.7818608E-02  0.1235064E+00
         -4   -1    0    0    0  501 -0.00000000000E+00  0.00000000000E+00  0.30801295864E+03  0.30801557686E+03  0.12700000000E+01 0.  1.
          4   -1    0    0  501    0  0.00000000000E+00 -0.00000000000E+00 -0.12648245928E+02  0.12711845856E+02  0.12700000000E+01 0.  1.
         25    2    1    2    0    0  0.00000000000E+00  0.00000000000E+00  0.29536471271E+03  0.32072742272E+03  0.12500306464E+03 0.  0.
    9000005    1    3    3    0    0 -0.16289559799E+02  0.60280510569E+02  0.15414879020E+03  0.16631878797E+03  0.10000000000E+01 0.  0.
    9000005    1    3    3    0    0  0.16289559799E+02 -0.60280510569E+02  0.14121592251E+03  0.15440863475E+03  0.10000000000E+01 0.  0.
<mgrwt>
<rscale>  0 0.12500306E+03</rscale>
<asrwt>0</asrwt>
<pdfrwt beam="2">  1        4 0.19509779E-02 0.12500306E+03</pdfrwt>
<pdfrwt beam="1">  1       -4 0.47391698E-01 0.12500306E+03</pdfrwt>
<totfact> 0.73064730E+03</totfact>
</mgrwt>
</event>
<event>
 5    1  0.3289127E-002  0.1250171E+03  0.7818608E-02  0.1235043E+00
         -4   -1    0    0    0  501 -0.00000000000E+00  0.00000000000E+00  0.96732020268E+02  0.96740356859E+02  0.12700000000E+01 0. -1.
          4   -1    0    0  501    0  0.00000000000E+00 -0.00000000000E+00 -0.40373176401E+02  0.40393146358E+02  0.12700000000E+01 0. -1.
         25    2    1    2    0    0  0.00000000000E+00  0.00000000000E+00  0.56358843867E+02  0.13713350322E+03  0.12501711252E+03 0.  0.
    9000005    1    3    3    0    0 -0.30159380780E+02 -0.69261312238E+01 -0.31385945446E+02  0.44086699971E+02  0.10000000000E+01 0.  0.
    9000005    1    3    3    0    0  0.30159380780E+02  0.69261312238E+01  0.87744789313E+02  0.93046803246E+02  0.10000000000E+01 0.  0.
<mgrwt>
<rscale>  0 0.12501711E+03</rscale>
<asrwt>0</asrwt>
<pdfrwt beam="2">  1        4 0.62134355E-02 0.12501711E+03</pdfrwt>
<pdfrwt beam="1">  1       -4 0.14884026E-01 0.12501711E+03</pdfrwt>
<totfact> 0.10189363E+04</totfact>
</mgrwt>
</event>
<event>
 5    1  0.3289127E-002  0.1249989E+03  0.7818608E-02  0.1235071E+00
         -4   -1    0    0    0  501 -0.00000000000E+00  0.00000000000E+00  0.12028806018E+03  0.12029476432E+03  0.12700000000E+01 0.  1.
          4   -1    0    0  501    0  0.00000000000E+00 -0.00000000000E+00 -0.32453541598E+02  0.32478381460E+02  0.12700000000E+01 0.  1.
         25    2    1    2    0    0  0.00000000000E+00  0.00000000000E+00  0.87834518582E+02  0.15277314578E+03  0.12499892566E+03 0.  0.
    9000005    1    3    3    0    0 -0.32363418181E+02 -0.17373445459E+02  0.10570714296E+03  0.11191169517E+03  0.10000000000E+01 0.  0.
    9000005    1    3    3    0    0  0.32363418181E+02  0.17373445459E+02 -0.17872624377E+02  0.40861450606E+02  0.10000000000E+01 0.  0.
<mgrwt>
<rscale>  0 0.12499893E+03</rscale>
<asrwt>0</asrwt>
<pdfrwt beam="2">  1        4 0.49952790E-02 0.12499893E+03</pdfrwt>
<pdfrwt beam="1">  1       -4 0.18508282E-01 0.12499893E+03</pdfrwt>
<totfact> 0.98756145E+03</totfact>
</mgrwt>
</event>
<event>
 5    1  0.3289127E-002  0.1249999E+03  0.7818608E-02  0.1235069E+00
          4   -1    0    0  501    0  0.00000000000E+00  0.00000000000E+00  0.14607721105E+03  0.14608273165E+03  0.12700000000E+01 0.  1.
         -4   -1    0    0    0  501 -0.00000000000E+00 -0.00000000000E+00 -0.26719858199E+02  0.26750022845E+02  0.12700000000E+01 0.  1.
         25    2    1    2    0    0  0.00000000000E+00  0.00000000000E+00  0.11935735285E+03  0.17283275450E+03  0.12499993339E+03 0.  0.
    9000005    1    3    3    0    0 -0.38139020681E+02  0.35691072978E+02  0.10711042353E+03  0.11917248179E+03  0.10000000000E+01 0.  0.
    9000005    1    3    3    0    0  0.38139020681E+02 -0.35691072978E+02  0.12246929320E+02  0.53660272704E+02  0.10000000000E+01 0.  0.
<mgrwt>
<rscale>  0 0.12499993E+03</rscale>
<asrwt>0</asrwt>
<pdfrwt beam="1">  1        4 0.22476163E-01 0.12499993E+03</pdfrwt>
<pdfrwt beam="2">  1       -4 0.41134923E-02 0.12499993E+03</pdfrwt>
<totfact> 0.94923413E+03</totfact>
</mgrwt>
</event>
<event>
 5    1  0.3289127E-002  0.1250005E+03  0.7818608E-02  0.1235069E+00
          4   -1    0    0  501    0  0.00000000000E+00  0.00000000000E+00  0.62211906114E+02  0.62224867716E+02  0.12700000000E+01 0. -1.
         -4   -1    0    0    0  501 -0.00000000000E+00 -0.00000000000E+00 -0.62763975551E+02  0.62776823167E+02  0.12700000000E+01 0. -1.
         25    2    1    2    0    0  0.00000000000E+00  0.00000000000E+00 -0.55206943753E+00  0.12500169088E+03  0.12500047177E+03 0.  0.
    9000005    1    3    3    0    0 -0.84132174437E+01  0.52193157553E+02  0.33046528528E+02  0.62353676482E+02  0.10000000000E+01 0.  0.
    9000005    1    3    3    0    0  0.84132174437E+01 -0.52193157553E+02 -0.33598597966E+02  0.62648014401E+02  0.10000000000E+01 0.  0.
<mgrwt>
<rscale>  0 0.12500047E+03</rscale>
<asrwt>0</asrwt>
<pdfrwt beam="1">  1        4 0.95730477E-02 0.12500047E+03</pdfrwt>
<pdfrwt beam="2">  1       -4 0.96579816E-02 0.12500047E+03</pdfrwt>
<totfact> 0.10452714E+04</totfact>
</mgrwt>
</event>
<event>
 5    1  0.3289127E-002  0.1250023E+03  0.7818608E-02  0.1235066E+00
          4   -1    0    0  501    0  0.00000000000E+00  0.00000000000E+00  0.35890832955E+02  0.35913295452E+02  0.12700000000E+01 0.  1.
         -4   -1    0    0    0  501 -0.00000000000E+00 -0.00000000000E+00 -0.10878084325E+03  0.10878825653E+03  0.12700000000E+01 0.  1.
         25    2    1    2    0    0  0.00000000000E+00  0.00000000000E+00 -0.72890010298E+02  0.14470155198E+03  0.12500234216E+03 0.  0.
    9000005    1    3    3    0    0  0.12738161776E+01 -0.54418694929E+02 -0.71980955589E+02  0.90251176906E+02  0.10000000000E+01 0.  0.
    9000005    1    3    3    0    0 -0.12738161776E+01  0.54418694929E+02 -0.90905470890E+00  0.54450375076E+02  0.10000000000E+01 0.  0.
<mgrwt>
<rscale>  0 0.12500234E+03</rscale>
<asrwt>0</asrwt>
<pdfrwt beam="1">  1        4 0.55239648E-02 0.12500234E+03</pdfrwt>
<pdfrwt beam="2">  1       -4 0.16737812E-01 0.12500234E+03</pdfrwt>
<totfact> 0.10036526E+04</totfact>
</mgrwt>
</event>
<event>
 5    1  0.3289127E-002  0.1249994E+03  0.7818608E-02  0.1235070E+00
          4   -1    0    0  501    0  0.00000000000E+00  0.00000000000E+00  0.17605028918E+03  0.17605486991E+03  0.12700000000E+01 0.  1.
         -4   -1    0    0    0  501 -0.00000000000E+00 -0.00000000000E+00 -0.22165001972E+02  0.22201356094E+02  0.12700000000E+01 0.  1.
         25    2    1    2    0    0  0.00000000000E+00  0.00000000000E+00  0.15388528721E+03  0.19825622601E+03  0.12499939812E+03 0.  0.
    9000005    1    3    3    0    0 -0.44017585287E+02  0.38194757473E+02  0.41165706015E+02  0.71358269770E+02  0.10000000000E+01 0.  0.
    9000005    1    3    3    0    0  0.44017585287E+02 -0.38194757473E+02  0.11271958119E+03  0.12689795624E+03  0.10000000000E+01 0.  0.
<mgrwt>
<rscale>  0 0.12499940E+03</rscale>
<asrwt>0</asrwt>
<pdfrwt beam="1">  1        4 0.27087809E-01 0.12499940E+03</pdfrwt>
<pdfrwt beam="2">  1       -4 0.34131491E-02 0.12499940E+03</pdfrwt>
<totfact> 0.90431489E+03</totfact>
</mgrwt>
</event>
<event>
 5    1  0.3289127E-002  0.1250019E+03  0.7818608E-02  0.1235066E+00
          4   -1    0    0  501    0  0.00000000000E+00  0.00000000000E+00  0.23360896028E+02  0.23395391923E+02  0.12700000000E+01 0. -1.
         -4   -1    0    0    0  501 -0.00000000000E+00 -0.00000000000E+00 -0.16705803266E+03  0.16706285996E+03  0.12700000000E+01 0. -1.
         25    2    1    2    0    0  0.00000000000E+00  0.00000000000E+00 -0.14369713663E+03  0.19045825188E+03  0.12500191451E+03 0.  0.
    9000005    1    3    3    0    0 -0.49234976912E+02  0.22813097881E+02 -0.24619349553E+02  0.59595576672E+02  0.10000000000E+01 0.  0.
    9000005    1    3    3    0    0  0.49234976912E+02 -0.22813097881E+02 -0.11907778708E+03  0.13086267521E+03  0.10000000000E+01 0.  0.
<mgrwt>
<rscale>  0 0.12500191E+03</rscale>
<asrwt>0</asrwt>
<pdfrwt beam="1">  1        4 0.35970090E-02 0.12500191E+03</pdfrwt>
<pdfrwt beam="2">  1       -4 0.25704260E-01 0.12500191E+03</pdfrwt>
<totfact> 0.91763707E+03</totfact>
</mgrwt>
</event>
<event>
 5    1  0.3289127E-002  0.1249963E+03  0.7818608E-02  0.1235075E+00
          4   -1    0    0  501    0  0.00000000000E+00  0.00000000000E+00  0.31277826184E+03  0.31278084017E+03  0.12700000000E+01 0.  1.
         -4   -1    0    0    0  501 -0.00000000000E+00 -0.00000000000E+00 -0.12453211098E+02  0.12517801989E+02  0.12700000000E+01 0.  1.
         25    2    1    2    0    0  0.00000000000E+00  0.00000000000E+00  0.30032505074E+03  0.32529864216E+03  0.12499628190E+03 0.  0.
    9000005    1    3    3    0    0 -0.22232515483E+02  0.55510946829E+02  0.10293885985E+03  0.11905107656E+03  0.10000000000E+01 0.  0.
    9000005    1    3    3    0    0  0.22232515483E+02 -0.55510946829E+02  0.19738619089E+03  0.20624756560E+03  0.10000000000E+01 0.  0.
<mgrwt>
<rscale>  0 0.12499628E+03</rscale>
<asrwt>0</asrwt>
<pdfrwt beam="1">  1        4 0.48124904E-01 0.12499628E+03</pdfrwt>
<pdfrwt beam="2">  1       -4 0.19210453E-02 0.12499628E+03</pdfrwt>
<totfact> 0.72536294E+03</totfact>
</mgrwt>
</event>
<event>
 5    1  0.3289127E-002  0.1249979E+03  0.7818608E-02  0.1235073E+00
          4   -1    0    0  501    0  0.00000000000E+00  0.00000000000E+00  0.44482992118E+03  0.44483173412E+03  0.12700000000E+01 0.  1.
         -4   -1    0    0    0  501 -0.00000000000E+00 -0.00000000000E+00 -0.87333854014E+01  0.88252433716E+01  0.12700000000E+01 0.  1.
         25    2    1    2    0    0  0.00000000000E+00  0.00000000000E+00  0.43609653578E+03  0.45365697749E+03  0.12499785880E+03 0.  0.
    9000005    1    3    3    0    0  0.43562534747E+02 -0.15685851846E+02  0.37036619935E+03  0.37325040121E+03  0.10000000000E+01 0.  0.
    9000005    1    3    3    0    0 -0.43562534747E+02  0.15685851846E+02  0.65730336423E+02  0.80406576273E+02  0.10000000000E+01 0.  0.
<mgrwt>
<rscale>  0 0.12499786E+03</rscale>
<asrwt>0</asrwt>
<pdfrwt beam="1">  1        4 0.68442586E-01 0.12499786E+03</pdfrwt>
<pdfrwt beam="2">  1       -4 0.13508030E-02 0.12499786E+03</pdfrwt>
<totfact> 0.59651102E+03</totfact>
</mgrwt>
</event>
<event>
 5    1  0.3289127E-002  0.1250019E+03  0.7818608E-02  0.1235066E+00
         -4   -1    0    0    0  501 -0.00000000000E+00  0.00000000000E+00  0.13908641411E+03  0.13909221218E+03  0.12700000000E+01 0. -1.
          4   -1    0    0  501    0  0.00000000000E+00 -0.00000000000E+00 -0.28065157608E+02  0.28093877831E+02  0.12700000000E+01 0. -1.
         25    2    1    2    0    0  0.00000000000E+00  0.00000000000E+00  0.11102125650E+03  0.16718609001E+03  0.12500187718E+03 0.  0.
    9000005    1    3    3    0    0 -0.33240331370E+02  0.76521269542E+01  0.12554461177E+03  0.13009967033E+03  0.10000000000E+01 0.  0.
    9000005    1    3    3    0    0  0.33240331370E+02 -0.76521269542E+01 -0.14523355267E+02  0.37086419680E+02  0.10000000000E+01 0.  0.
<mgrwt>
<rscale>  0 0.12500188E+03</rscale>
<asrwt>0</asrwt>
<pdfrwt beam="2">  1        4 0.43203717E-02 0.12500188E+03</pdfrwt>
<pdfrwt beam="1">  1       -4 0.21400566E-01 0.12500188E+03</pdfrwt>
<totfact> 0.95970929E+03</totfact>
</mgrwt>
</event>
<event>
 5    1  0.3289127E-002  0.1249943E+03  0.7818608E-02  0.1235078E+00
          4   -1    0    0  501    0  0.00000000000E+00  0.00000000000E+00  0.13503502487E+03  0.13504099689E+03  0.12700000000E+01 0. -1.
         -4   -1    0    0    0  501 -0.00000000000E+00 -0.00000000000E+00 -0.28904495515E+02  0.28932382566E+02  0.12700000000E+01 0. -1.
         25    2    1    2    0    0  0.00000000000E+00  0.00000000000E+00  0.10613052935E+03  0.16397337946E+03  0.12499431951E+03 0.  0.
    9000005    1    3    3    0    0  0.51936198779E+01  0.36911109153E+02  0.11886050563E+03  0.12457216168E+03  0.10000000000E+01 0.  0.
    9000005    1    3    3    0    0 -0.51936198779E+01 -0.36911109153E+02 -0.12729976278E+02  0.39401217778E+02  0.10000000000E+01 0.  0.
<mgrwt>
<rscale>  0 0.12499432E+03</rscale>
<asrwt>0</asrwt>
<pdfrwt beam="1">  1        4 0.20777224E-01 0.12499432E+03</pdfrwt>
<pdfrwt beam="2">  1       -4 0.44494500E-02 0.12499432E+03</pdfrwt>
<totfact> 0.96594499E+03</totfact>
</mgrwt>
</event>
<event>
 5    1  0.3289127E-002  0.1249993E+03  0.7818608E-02  0.1235070E+00
         -4   -1    0    0    0  501 -0.00000000000E+00  0.00000000000E+00  0.26995995300E+02  0.27025851740E+02  0.12700000000E+01 0.  1.
          4   -1    0    0  501    0  0.00000000000E+00 -0.00000000000E+00 -0.14458315057E+03  0.14458872822E+03  0.12700000000E+01 0.  1.
         25    2    1    2    0    0  0.00000000000E+00  0.00000000000E+00 -0.11758715527E+03  0.17161457996E+03  0.12499929988E+03 0.  0.
    9000005    1    3    3    0    0 -0.35094720432E+01  0.10325065672E+02  0.25686271441E+02  0.27923250450E+02  0.10000000000E+01 0.  0.
    9000005    1    3    3    0    0  0.35094720432E+01 -0.10325065672E+02 -0.14327342671E+03  0.14369132951E+03  0.10000000000E+01 0.  0.
<mgrwt>
<rscale>  0 0.12499930E+03</rscale>
<asrwt>0</asrwt>
<pdfrwt beam="2">  1        4 0.22246287E-01 0.12499930E+03</pdfrwt>
<pdfrwt beam="1">  1       -4 0.41559558E-02 0.12499930E+03</pdfrwt>
<totfact> 0.95150050E+03</totfact>
</mgrwt>
</event>
<event>
 5    1  0.3289127E-002  0.1249969E+03  0.7818608E-02  0.1235074E+00
          4   -1    0    0  501    0  0.00000000000E+00  0.00000000000E+00  0.60488201261E+02  0.60501532144E+02  0.12700000000E+01 0. -1.
         -4   -1    0    0    0  501 -0.00000000000E+00 -0.00000000000E+00 -0.64548792450E+02  0.64561284891E+02  0.12700000000E+01 0. -1.
         25    2    1    2    0    0  0.00000000000E+00  0.00000000000E+00 -0.40605911891E+01  0.12506281703E+03  0.12499687918E+03 0.  0.
    9000005    1    3    3    0    0  0.53636437058E+02  0.72818288750E+01  0.29213770050E+02  0.61516963291E+02  0.10000000000E+01 0.  0.
    9000005    1    3    3    0    0 -0.53636437058E+02 -0.72818288750E+01 -0.33274361239E+02  0.63545853743E+02  0.10000000000E+01 0.  0.
<mgrwt>
<rscale>  0 0.12499688E+03</rscale>
<asrwt>0</asrwt>
<pdfrwt beam="1">  1        4 0.93078635E-02 0.12499688E+03</pdfrwt>
<pdfrwt beam="2">  1       -4 0.99325699E-02 0.12499688E+03</pdfrwt>
<totfact> 0.10452236E+04</totfact>
</mgrwt>
</event>
<event>
 5    1  0.3289127E-002  0.1249995E+03  0.7818608E-02  0.1235070E+00
         -4   -1    0    0    0  501 -0.00000000000E+00  0.00000000000E+00  0.64548207850E+02  0.64560700404E+02  0.12700000000E+01 0. -1.
          4   -1    0    0  501    0  0.00000000000E+00 -0.00000000000E+00 -0.60491248197E+02  0.60504578409E+02  0.12700000000E+01 0. -1.
         25    2    1    2    0    0  0.00000000000E+00  0.00000000000E+00  0.40569596530E+01  0.12506527881E+03  0.12499946017E+03 0.  0.
    9000005    1    3    3    0    0 -0.35306050626E+02 -0.46867579092E+02  0.23536986925E+02  0.63230348206E+02  0.10000000000E+01 0.  0.
    9000005    1    3    3    0    0  0.35306050626E+02  0.46867579092E+02 -0.19480027272E+02  0.61834930607E+02  0.10000000000E+01 0.  0.
<mgrwt>
<rscale>  0 0.12499946E+03</rscale>
<asrwt>0</asrwt>
<pdfrwt beam="2">  1        4 0.93083323E-02 0.12499946E+03</pdfrwt>
<pdfrwt beam="1">  1       -4 0.99324798E-02 0.12499946E+03</pdfrwt>
<totfact> 0.10451572E+04</totfact>
</mgrwt>
</event>
<event>
 5    1  0.3289127E-002  0.1249998E+03  0.7818608E-02  0.1235070E+00
         -4   -1    0    0    0  501 -0.00000000000E+00  0.00000000000E+00  0.31465997922E+03  0.31466254213E+03  0.12700000000E+01 0.  1.
          4   -1    0    0  501    0  0.00000000000E+00 -0.00000000000E+00 -0.12379055398E+02  0.12444031202E+02  0.12700000000E+01 0.  1.
         25    2    1    2    0    0  0.00000000000E+00  0.00000000000E+00  0.30228092382E+03  0.32710657333E+03  0.12499981365E+03 0.  0.
    9000005    1    3    3    0    0  0.25042505784E+01 -0.62393488782E+02  0.14472001647E+03  0.15762011889E+03  0.10000000000E+01 0.  0.
    9000005    1    3    3    0    0 -0.25042505784E+01  0.62393488782E+02  0.15756090735E+03  0.16948645444E+03  0.10000000000E+01 0.  0.
<mgrwt>
<rscale>  0 0.12499981E+03</rscale>
<asrwt>0</asrwt>
<pdfrwt beam="2">  1        4 0.19096655E-02 0.12499981E+03</pdfrwt>
<pdfrwt beam="1">  1       -4 0.48414418E-01 0.12499981E+03</pdfrwt>
<totfact> 0.72319090E+03</totfact>
</mgrwt>
</event>
<event>
 5    1  0.3289127E-002  0.1249990E+03  0.7818608E-02  0.1235071E+00
         -4   -1    0    0    0  501 -0.00000000000E+00  0.00000000000E+00  0.17820612499E+03  0.17821065032E+03  0.12700000000E+01 0.  1.
          4   -1    0    0  501    0  0.00000000000E+00 -0.00000000000E+00 -0.21896272172E+02  0.21933071719E+02  0.12700000000E+01 0.  1.
         25    2    1    2    0    0  0.00000000000E+00  0.00000000000E+00  0.15630985282E+03  0.20014372203E+03  0.12499895752E+03 0.  0.
    9000005    1    3    3    0    0 -0.44405107762E+02 -0.37224499569E+02  0.11562720276E+03  0.12933726061E+03  0.10000000000E+01 0.  0.
    9000005    1    3    3    0    0  0.44405107762E+02  0.37224499569E+02  0.40682650064E+02  0.70806461427E+02  0.10000000000E+01 0.  0.
<mgrwt>
<rscale>  0 0.12499896E+03</rscale>
<asrwt>0</asrwt>
<pdfrwt beam="2">  1        4 0.33718362E-02 0.12499896E+03</pdfrwt>
<pdfrwt beam="1">  1       -4 0.27419505E-01 0.12499896E+03</pdfrwt>
<totfact> 0.90113374E+03</totfact>
</mgrwt>
</event>
<event>
 5    1  0.3289127E-002  0.1249989E+03  0.7818608E-02  0.1235071E+00
         -4   -1    0    0    0  501 -0.00000000000E+00  0.00000000000E+00  0.20767720813E+04  0.20767724696E+04  0.12700000000E+01 0.  1.
          4   -1    0    0  501    0  0.00000000000E+00 -0.00000000000E+00 -0.16660771405E+01  0.20949255448E+01  0.12700000000E+01 0.  1.
         25    2    1    2    0    0  0.00000000000E+00  0.00000000000E+00  0.20751060042E+04  0.20788673952E+04  0.12499887270E+03 0.  0.
    9000005    1    3    3    0    0 -0.95360861390E+00 -0.40928647334E+02  0.25234082457E+03  0.25564224081E+03  0.10000000000E+01 0.  0.
    9000005    1    3    3    0    0  0.95360861390E+00  0.40928647334E+02  0.18227651796E+04  0.18232251544E+04  0.10000000000E+01 0.  0.
<mgrwt>
<rscale>  0 0.12499887E+03</rscale>
<asrwt>0</asrwt>
<pdfrwt beam="2">  1        4 0.28933853E-03 0.12499887E+03</pdfrwt>
<pdfrwt beam="1">  1       -4 0.31953557E+00 0.12499887E+03</pdfrwt>
<totfact> 0.88670352E+02</totfact>
</mgrwt>
</event>
<event>
 5    1  0.3289127E-002  0.1250026E+03  0.7818608E-02  0.1235065E+00
         -4   -1    0    0    0  501 -0.00000000000E+00  0.00000000000E+00  0.60217355398E+03  0.60217489321E+03  0.12700000000E+01 0. -1.
          4   -1    0    0  501    0  0.00000000000E+00 -0.00000000000E+00 -0.64236700324E+01  0.65480101317E+01  0.12700000000E+01 0. -1.
         25    2    1    2    0    0  0.00000000000E+00  0.00000000000E+00  0.59574988395E+03  0.60872290334E+03  0.12500259529E+03 0.  0.
    9000005    1    3    3    0    0 -0.37051850450E+02 -0.45522133475E+02  0.40235294192E+03  0.40661283075E+03  0.10000000000E+01 0.  0.
    9000005    1    3    3    0    0  0.37051850450E+02  0.45522133475E+02  0.19339694202E+03  0.20211007259E+03  0.10000000000E+01 0.  0.
<mgrwt>
<rscale>  0 0.12500260E+03</rscale>
<asrwt>0</asrwt>
<pdfrwt beam="2">  1        4 0.99792435E-03 0.12500260E+03</pdfrwt>
<pdfrwt beam="1">  1       -4 0.92651773E-01 0.12500260E+03</pdfrwt>
<totfact> 0.48318827E+03</totfact>
</mgrwt>
</event>
<event>
 5    1  0.3289127E-002  0.1250064E+03  0.7818608E-02  0.1235059E+00
         -4   -1    0    0    0  501 -0.00000000000E+00  0.00000000000E+00  0.39661162665E+02  0.39681490949E+02  0.12700000000E+01 0. -1.
          4   -1    0    0  501    0  0.00000000000E+00 -0.00000000000E+00 -0.98450962174E+02  0.98459153221E+02  0.12700000000E+01 0. -1.
         25    2    1    2    0    0  0.00000000000E+00  0.00000000000E+00 -0.58789799509E+02  0.13814064417E+03  0.12500638802E+03 0.  0.
    9000005    1    3    3    0    0 -0.17193299241E+02 -0.50681134768E+02  0.62675396842E+01  0.53893125850E+02  0.10000000000E+01 0.  0.
    9000005    1    3    3    0    0  0.17193299241E+02  0.50681134768E+02 -0.65057339193E+02  0.84247518320E+02  0.10000000000E+01 0.  0.
<mgrwt>
<rscale>  0 0.12500639E+03</rscale>
<asrwt>0</asrwt>
<pdfrwt beam="2">  1        4 0.15148496E-01 0.12500639E+03</pdfrwt>
<pdfrwt beam="1">  1       -4 0.61039111E-02 0.12500639E+03</pdfrwt>
<totfact> 0.10170804E+04</totfact>
</mgrwt>
</event>
<event>
 5    1  0.3289127E-002  0.1250018E+03  0.7818608E-02  0.1235066E+00
          4   -1    0    0  501    0  0.00000000000E+00  0.00000000000E+00  0.35749449916E+02  0.35772001193E+02  0.12700000000E+01 0. -1.
         -4   -1    0    0    0  501 -0.00000000000E+00 -0.00000000000E+00 -0.10920984359E+03  0.10921722775E+03  0.12700000000E+01 0. -1.
         25    2    1    2    0    0  0.00000000000E+00  0.00000000000E+00 -0.73460393674E+02  0.14498922894E+03  0.12500178827E+03 0.  0.
    9000005    1    3    3    0    0  0.59881199502E+02 -0.16935606345E+00 -0.57465287325E+02  0.83000277003E+02  0.10000000000E+01 0.  0.
    9000005    1    3    3    0    0 -0.59881199502E+02  0.16935606345E+00 -0.15995106349E+02  0.61988951938E+02  0.10000000000E+01 0.  0.
<mgrwt>
<rscale>  0 0.12500179E+03</rscale>
<asrwt>0</asrwt>
<pdfrwt beam="1">  1        4 0.55022181E-02 0.12500179E+03</pdfrwt>
<pdfrwt beam="2">  1       -4 0.16803817E-01 0.12500179E+03</pdfrwt>
<totfact> 0.10030803E+04</totfact>
</mgrwt>
</event>
<event>
 5    1  0.3289127E-002  0.1250003E+03  0.7818608E-02  0.1235069E+00
         -4   -1    0    0    0  501 -0.00000000000E+00  0.00000000000E+00  0.54816030047E+03  0.54816177166E+03  0.12700000000E+01 0. -1.
          4   -1    0    0  501    0  0.00000000000E+00 -0.00000000000E+00 -0.70680701449E+01  0.71812614194E+01  0.12700000000E+01 0. -1.
         25    2    1    2    0    0  0.00000000000E+00  0.00000000000E+00  0.54109223032E+03  0.55534303308E+03  0.12500033069E+03 0.  0.
    9000005    1    3    3    0    0 -0.17269363425E+02 -0.24947048453E+02  0.27829569200E+02  0.41183383318E+02  0.10000000000E+01 0.  0.
    9000005    1    3    3    0    0  0.17269363425E+02  0.24947048453E+02  0.51326266112E+03  0.51415964976E+03  0.10000000000E+01 0.  0.
<mgrwt>
<rscale>  0 0.12500033E+03</rscale>
<asrwt>0</asrwt>
<pdfrwt beam="2">  1        4 0.10962151E-02 0.12500033E+03</pdfrwt>
<pdfrwt beam="1">  1       -4 0.84341209E-01 0.12500033E+03</pdfrwt>
<totfact> 0.51813143E+03</totfact>
</mgrwt>
</event>
<event>
 5    1  0.3289127E-002  0.1250084E+03  0.7818608E-02  0.1235056E+00
          4   -1    0    0  501    0  0.00000000000E+00  0.00000000000E+00  0.66816432964E+02  0.66828501510E+02  0.12700000000E+01 0.  1.
         -4   -1    0    0    0  501 -0.00000000000E+00 -0.00000000000E+00 -0.58446058408E+02  0.58459854973E+02  0.12700000000E+01 0.  1.
         25    2    1    2    0    0  0.00000000000E+00  0.00000000000E+00  0.83703745560E+01  0.12528835648E+03  0.12500843612E+03 0.  0.
    9000005    1    3    3    0    0 -0.71578254266E+01 -0.46777538610E+01 -0.57861931332E+02  0.58498879848E+02  0.10000000000E+01 0.  0.
    9000005    1    3    3    0    0  0.71578254266E+01  0.46777538610E+01  0.66232305888E+02  0.66789476635E+02  0.10000000000E+01 0.  0.
<mgrwt>
<rscale>  0 0.12500844E+03</rscale>
<asrwt>0</asrwt>
<pdfrwt beam="1">  1        4 0.10281441E-01 0.12500844E+03</pdfrwt>
<pdfrwt beam="2">  1       -4 0.89936910E-02 0.12500844E+03</pdfrwt>
<totfact> 0.10444611E+04</totfact>
</mgrwt>
</event>
<event>
 5    1  0.3289127E-002  0.1249967E+03  0.7818608E-02  0.1235074E+00
         -4   -1    0    0    0  501 -0.00000000000E+00  0.00000000000E+00  0.16625312290E+03  0.16625797356E+03  0.12700000000E+01 0. -1.
          4   -1    0    0  501    0  0.00000000000E+00 -0.00000000000E+00 -0.23472193162E+02  0.23506525729E+02  0.12700000000E+01 0. -1.
         25    2    1    2    0    0  0.00000000000E+00  0.00000000000E+00  0.14278092974E+03  0.18976449929E+03  0.12499668514E+03 0.  0.
    9000005    1    3    3    0    0  0.22746851487E+02 -0.16289263599E+02  0.15622108414E+03  0.15870975550E+03  0.10000000000E+01 0.  0.
    9000005    1    3    3    0    0 -0.22746851487E+02  0.16289263599E+02 -0.13440154409E+02  0.31054743787E+02  0.10000000000E+01 0.  0.
<mgrwt>
<rscale>  0 0.12499669E+03</rscale>
<asrwt>0</asrwt>
<pdfrwt beam="2">  1        4 0.36141208E-02 0.12499669E+03</pdfrwt>
<pdfrwt beam="1">  1       -4 0.25580417E-01 0.12499669E+03</pdfrwt>
<totfact> 0.91895130E+03</totfact>
</mgrwt>
</event>
<event>
 5    1  0.3289127E-002  0.1249941E+03  0.7818608E-02  0.1235079E+00
         -4   -1    0    0    0  501 -0.00000000000E+00  0.00000000000E+00  0.22252466369E+03  0.22252828776E+03  0.12700000000E+01 0.  1.
          4   -1    0    0  501    0  0.00000000000E+00 -0.00000000000E+00 -0.17525822443E+02  0.17571777153E+02  0.12700000000E+01 0.  1.
         25    2    1    2    0    0  0.00000000000E+00  0.00000000000E+00  0.20499884125E+03  0.24010006491E+03  0.12499406488E+03 0.  0.
    9000005    1    3    3    0    0 -0.19837725677E+02 -0.55214266416E+02  0.14381996216E+03  0.15532975275E+03  0.10000000000E+01 0.  0.
    9000005    1    3    3    0    0  0.19837725677E+02  0.55214266416E+02  0.61178879094E+02  0.84770312156E+02  0.10000000000E+01 0.  0.
<mgrwt>
<rscale>  0 0.12499406E+03</rscale>
<asrwt>0</asrwt>
<pdfrwt beam="2">  1        4 0.27000942E-02 0.12499406E+03</pdfrwt>
<pdfrwt beam="1">  1       -4 0.34238376E-01 0.12499406E+03</pdfrwt>
<totfact> 0.83793553E+03</totfact>
</mgrwt>
</event>
<event>
 5    1  0.3289127E-002  0.1249988E+03  0.7818608E-02  0.1235071E+00
         -4   -1    0    0    0  501 -0.00000000000E+00  0.00000000000E+00  0.32593044399E+03  0.32593291828E+03  0.12700000000E+01 0.  1.
          4   -1    0    0  501    0  0.00000000000E+00 -0.00000000000E+00 -0.11948515628E+02  0.12015819811E+02  0.12700000000E+01 0.  1.
         25    2    1    2    0    0  0.00000000000E+00  0.00000000000E+00  0.31398192836E+03  0.33794873809E+03  0.12499879295E+03 0.  0.
    9000005    1    3    3    0    0 -0.36228984705E+02 -0.38533636638E+02  0.24697687747E+03  0.25257861843E+03  0.10000000000E+01 0.  0.
    9000005    1    3    3    0    0  0.36228984705E+02  0.38533636638E+02  0.67005050889E+02  0.85370119655E+02  0.10000000000E+01 0.  0.
<mgrwt>
<rscale>  0 0.12499879E+03</rscale>
<asrwt>0</asrwt>
<pdfrwt beam="2">  1        4 0.18436006E-02 0.12499879E+03</pdfrwt>
<pdfrwt beam="1">  1       -4 0.50148516E-01 0.12499879E+03</pdfrwt>
<totfact> 0.71072907E+03</totfact>
</mgrwt>
</event>
<event>
 5    1  0.3289127E-002  0.1250078E+03  0.7818608E-02  0.1235057E+00
         -4   -1    0    0    0  501 -0.00000000000E+00  0.00000000000E+00  0.37238256796E+03  0.37238473360E+03  0.12700000000E+01 0. -1.
          4   -1    0    0  501    0  0.00000000000E+00 -0.00000000000E+00 -0.10450551384E+02  0.10527436736E+02  0.12700000000E+01 0. -1.
         25    2    1    2    0    0  0.00000000000E+00  0.00000000000E+00  0.36193201657E+03  0.38291217034E+03  0.12500778204E+03 0.  0.
    9000005    1    3    3    0    0 -0.22872555778E+02  0.53981357801E+02  0.11465872705E+03  0.12878184844E+03  0.10000000000E+01 0.  0.
    9000005    1    3    3    0    0  0.22872555778E+02 -0.53981357801E+02  0.24727328953E+03  0.25413032190E+03  0.10000000000E+01 0.  0.
<mgrwt>
<rscale>  0 0.12500778E+03</rscale>
<asrwt>0</asrwt>
<pdfrwt beam="2">  1        4 0.16138580E-02 0.12500778E+03</pdfrwt>
<pdfrwt beam="1">  1       -4 0.57295705E-01 0.12500778E+03</pdfrwt>
<totfact> 0.66237978E+03</totfact>
</mgrwt>
</event>
<event>
 5    1  0.3289127E-002  0.1250059E+03  0.7818608E-02  0.1235060E+00
          4   -1    0    0  501    0  0.00000000000E+00  0.00000000000E+00  0.41347829222E+03  0.41348024262E+03  0.12700000000E+01 0.  1.
         -4   -1    0    0    0  501 -0.00000000000E+00 -0.00000000000E+00 -0.94035181746E+01  0.94888910869E+01  0.12700000000E+01 0.  1.
         25    2    1    2    0    0  0.00000000000E+00  0.00000000000E+00  0.40407477405E+03  0.42296913371E+03  0.12500586006E+03 0.  0.
    9000005    1    3    3    0    0 -0.32678144351E+02 -0.53232482925E+02  0.19522139178E+03  0.20497304741E+03  0.10000000000E+01 0.  0.
    9000005    1    3    3    0    0  0.32678144351E+02  0.53232482925E+02  0.20885338226E+03  0.21799608630E+03  0.10000000000E+01 0.  0.
<mgrwt>
<rscale>  0 0.12500586E+03</rscale>
<asrwt>0</asrwt>
<pdfrwt beam="1">  1        4 0.63618766E-01 0.12500586E+03</pdfrwt>
<pdfrwt beam="2">  1       -4 0.14534122E-02 0.12500586E+03</pdfrwt>
<totfact> 0.62370442E+03</totfact>
</mgrwt>
</event>
<event>
 5    1  0.3289127E-002  0.1250105E+03  0.7818608E-02  0.1235053E+00
         -4   -1    0    0    0  501 -0.00000000000E+00  0.00000000000E+00  0.59032644742E+02  0.59046304247E+02  0.12700000000E+01 0. -1.
          4   -1    0    0  501    0  0.00000000000E+00 -0.00000000000E+00 -0.66154731604E+02  0.66166920841E+02  0.12700000000E+01 0. -1.
         25    2    1    2    0    0  0.00000000000E+00  0.00000000000E+00 -0.71220868623E+01  0.12521322509E+03  0.12501051002E+03 0.  0.
    9000005    1    3    3    0    0 -0.20971927954E+02 -0.30520937715E+02  0.46864983225E+02  0.59738396813E+02  0.10000000000E+01 0.  0.
    9000005    1    3    3    0    0  0.20971927954E+02  0.30520937715E+02 -0.53987070087E+02  0.65474828275E+02  0.10000000000E+01 0.  0.
<mgrwt>
<rscale>  0 0.12501051E+03</rscale>
<asrwt>0</asrwt>
<pdfrwt beam="2">  1        4 0.10179639E-01 0.12501051E+03</pdfrwt>
<pdfrwt beam="1">  1       -4 0.90839337E-02 0.12501051E+03</pdfrwt>
<totfact> 0.10445752E+04</totfact>
</mgrwt>
</event>
<event>
 5    1  0.3289127E-002  0.1250021E+03  0.7818608E-02  0.1235066E+00
         -4   -1    0    0    0  501 -0.00000000000E+00  0.00000000000E+00  0.25771780274E+03  0.25772093192E+03  0.12700000000E+01 0.  1.
          4   -1    0    0  501    0  0.00000000000E+00 -0.00000000000E+00 -0.15127768507E+02  0.15180984158E+02  0.12700000000E+01 0.  1.
         25    2    1    2    0    0  0.00000000000E+00  0.00000000000E+00  0.24259003423E+03  0.27290191608E+03  0.12500212434E+03 0.  0.
    9000005    1    3    3    0    0  0.98656251949E+01  0.40274067944E+02  0.19220013971E+02  0.45713674609E+02  0.10000000000E+01 0.  0.
    9000005    1    3    3    0    0 -0.98656251949E+01 -0.40274067944E+02  0.22337002026E+03  0.22718824147E+03  0.10000000000E+01 0.  0.
<mgrwt>
<rscale>  0 0.12500212E+03</rscale>
<asrwt>0</asrwt>
<pdfrwt beam="2">  1        4 0.23316832E-02 0.12500212E+03</pdfrwt>
<pdfrwt beam="1">  1       -4 0.39653228E-01 0.12500212E+03</pdfrwt>
<totfact> 0.79125032E+03</totfact>
</mgrwt>
</event>
<event>
 5    1  0.3289127E-002  0.1250006E+03  0.7818608E-02  0.1235068E+00
         -4   -1    0    0    0  501 -0.00000000000E+00  0.00000000000E+00  0.11385123687E+03  0.11385832002E+03  0.12700000000E+01 0.  1.
          4   -1    0    0  501    0  0.00000000000E+00 -0.00000000000E+00 -0.34290571154E+02  0.34314081221E+02  0.12700000000E+01 0.  1.
         25    2    1    2    0    0  0.00000000000E+00  0.00000000000E+00  0.79560665719E+02  0.14817240124E+03  0.12500064384E+03 0.  0.
    9000005    1    3    3    0    0 -0.44720237937E+02 -0.32728773232E+02  0.55434010981E+01  0.55702796826E+02  0.10000000000E+01 0.  0.
    9000005    1    3    3    0    0  0.44720237937E+02  0.32728773232E+02  0.74017264621E+02  0.92469604414E+02  0.10000000000E+01 0.  0.
<mgrwt>
<rscale>  0 0.12500064E+03</rscale>
<asrwt>0</asrwt>
<pdfrwt beam="2">  1        4 0.52778259E-02 0.12500064E+03</pdfrwt>
<pdfrwt beam="1">  1       -4 0.17517928E-01 0.12500064E+03</pdfrwt>
<totfact> 0.99667813E+03</totfact>
</mgrwt>
</event>
<event>
 5    1  0.3289127E-002  0.1250072E+03  0.7818608E-02  0.1235058E+00
         -4   -1    0    0    0  501 -0.00000000000E+00  0.00000000000E+00  0.12225237918E+03  0.12225897560E+03  0.12700000000E+01 0.  1.
          4   -1    0    0  501    0  0.00000000000E+00 -0.00000000000E+00 -0.31935933132E+02  0.31961175276E+02  0.12700000000E+01 0.  1.
         25    2    1    2    0    0  0.00000000000E+00  0.00000000000E+00  0.90316446044E+02  0.15422015087E+03  0.12500717783E+03 0.  0.
    9000005    1    3    3    0    0  0.32386144084E+02 -0.14438600233E+02 -0.18330258340E+02  0.39929110636E+02  0.10000000000E+01 0.  0.
    9000005    1    3    3    0    0 -0.32386144084E+02  0.14438600233E+02  0.10864670438E+03  0.11429104024E+03  0.10000000000E+01 0.  0.
<mgrwt>
<rscale>  0 0.12500718E+03</rscale>
<asrwt>0</asrwt>
<pdfrwt beam="2">  1        4 0.49156697E-02 0.12500718E+03</pdfrwt>
<pdfrwt beam="1">  1       -4 0.18810507E-01 0.12500718E+03</pdfrwt>
<totfact> 0.98452915E+03</totfact>
</mgrwt>
</event>
<event>
 5    1  0.3289127E-002  0.1250015E+03  0.7818608E-02  0.1235067E+00
          4   -1    0    0  501    0  0.00000000000E+00  0.00000000000E+00  0.23171800133E+03  0.23172148161E+03  0.12700000000E+01 0. -1.
         -4   -1    0    0    0  501 -0.00000000000E+00 -0.00000000000E+00 -0.16830641058E+02  0.16878488630E+02  0.12700000000E+01 0. -1.
         25    2    1    2    0    0  0.00000000000E+00  0.00000000000E+00  0.21488736027E+03  0.24859997024E+03  0.12500147039E+03 0.  0.
    9000005    1    3    3    0    0 -0.53732697541E+02 -0.28083502760E+02  0.77318084106E+02  0.98259717291E+02  0.10000000000E+01 0.  0.
    9000005    1    3    3    0    0  0.53732697541E+02  0.28083502760E+02  0.13756927617E+03  0.15034025295E+03  0.10000000000E+01 0.  0.
<mgrwt>
<rscale>  0 0.12500147E+03</rscale>
<asrwt>0</asrwt>
<pdfrwt beam="1">  1        4 0.35652870E-01 0.12500147E+03</pdfrwt>
<pdfrwt beam="2">  1       -4 0.25932778E-02 0.12500147E+03</pdfrwt>
<totfact> 0.82530294E+03</totfact>
</mgrwt>
</event>
<event>
 5    1  0.3289127E-002  0.1250000E+03  0.7818608E-02  0.1235069E+00
         -4   -1    0    0    0  501 -0.00000000000E+00  0.00000000000E+00  0.29683858749E+03  0.29684130428E+03  0.12700000000E+01 0. -1.
          4   -1    0    0  501    0  0.00000000000E+00 -0.00000000000E+00 -0.13126078804E+02  0.13187374446E+02  0.12700000000E+01 0. -1.
         25    2    1    2    0    0  0.00000000000E+00  0.00000000000E+00  0.28371250869E+03  0.31002867872E+03  0.12499997617E+03 0.  0.
    9000005    1    3    3    0    0  0.59722157730E+02  0.11784930888E+02  0.10681316066E+03  0.12294580925E+03  0.10000000000E+01 0.  0.
    9000005    1    3    3    0    0 -0.59722157730E+02 -0.11784930888E+02  0.17689934802E+03  0.18708286947E+03  0.10000000000E+01 0.  0.
<mgrwt>
<rscale>  0 0.12499998E+03</rscale>
<asrwt>0</asrwt>
<pdfrwt beam="2">  1        4 0.20243208E-02 0.12499998E+03</pdfrwt>
<pdfrwt beam="1">  1       -4 0.45672398E-01 0.12499998E+03</pdfrwt>
<totfact> 0.74357875E+03</totfact>
</mgrwt>
</event>
<event>
 5    1  0.3289127E-002  0.1250019E+03  0.7818608E-02  0.1235066E+00
          4   -1    0    0  501    0  0.00000000000E+00  0.00000000000E+00  0.30183870955E+03  0.30184138133E+03  0.12700000000E+01 0. -1.
         -4   -1    0    0    0  501 -0.00000000000E+00 -0.00000000000E+00 -0.12908011659E+02  0.12970337890E+02  0.12700000000E+01 0. -1.
         25    2    1    2    0    0  0.00000000000E+00  0.00000000000E+00  0.28893069789E+03  0.31481171922E+03  0.12500188148E+03 0.  0.
    9000005    1    3    3    0    0 -0.80853069181E+01 -0.56165154360E+02  0.21040229583E+03  0.21792205681E+03  0.10000000000E+01 0.  0.
    9000005    1    3    3    0    0  0.80853069181E+01  0.56165154360E+02  0.78528402063E+02  0.96889662414E+02  0.10000000000E+01 0.  0.
<mgrwt>
<rscale>  0 0.12500188E+03</rscale>
<asrwt>0</asrwt>
<pdfrwt beam="1">  1        4 0.46441725E-01 0.12500188E+03</pdfrwt>
<pdfrwt beam="2">  1       -4 0.19908478E-02 0.12500188E+03</pdfrwt>
<totfact> 0.73774401E+03</totfact>
</mgrwt>
</event>
<event>
 5    1  0.3289127E-002  0.1250019E+03  0.7818608E-02  0.1235066E+00
         -4   -1    0    0    0  501 -0.00000000000E+00  0.00000000000E+00  0.20165235074E+02  0.20205187591E+02  0.12700000000E+01 0.  1.
          4   -1    0    0  501    0  0.00000000000E+00 -0.00000000000E+00 -0.19348438165E+03  0.19348854964E+03  0.12700000000E+01 0.  1.
         25    2    1    2    0    0  0.00000000000E+00  0.00000000000E+00 -0.17331914658E+03  0.21369373723E+03  0.12500194704E+03 0.  0.
    9000005    1    3    3    0    0 -0.21801878160E+02 -0.25806260006E-01  0.13461428703E+02  0.25642398873E+02  0.10000000000E+01 0.  0.
    9000005    1    3    3    0    0  0.21801878160E+02  0.25806260006E-01 -0.18678057528E+03  0.18805133836E+03  0.10000000000E+01 0.  0.
<mgrwt>
<rscale>  0 0.12500195E+03</rscale>
<asrwt>0</asrwt>
<pdfrwt beam="2">  1        4 0.29770221E-01 0.12500195E+03</pdfrwt>
<pdfrwt beam="1">  1       -4 0.31057379E-02 0.12500195E+03</pdfrwt>
<totfact> 0.87872353E+03</totfact>
</mgrwt>
</event>
<event>
 5    1  0.3289127E-002  0.1249980E+03  0.7818608E-02  0.1235072E+00
         -4   -1    0    0    0  501 -0.00000000000E+00  0.00000000000E+00  0.20716058840E+03  0.20716448123E+03  0.12700000000E+01 0.  1.
          4   -1    0    0  501    0  0.00000000000E+00 -0.00000000000E+00 -0.18830087914E+02  0.18872867054E+02  0.12700000000E+01 0.  1.
         25    2    1    2    0    0  0.00000000000E+00  0.00000000000E+00  0.18833050048E+03  0.22603734829E+03  0.12499802162E+03 0.  0.
    9000005    1    3    3    0    0 -0.42184889670E+02 -0.30687984980E+02  0.15638351371E+03  0.16485788031E+03  0.10000000000E+01 0.  0.
    9000005    1    3    3    0    0  0.42184889670E+02  0.30687984980E+02  0.31946986769E+02  0.61179467979E+02  0.10000000000E+01 0.  0.
<mgrwt>
<rscale>  0 0.12499802E+03</rscale>
<asrwt>0</asrwt>
<pdfrwt beam="2">  1        4 0.29005268E-02 0.12499802E+03</pdfrwt>
<pdfrwt beam="1">  1       -4 0.31874449E-01 0.12499802E+03</pdfrwt>
<totfact> 0.85925597E+03</totfact>
</mgrwt>
</event>
<event>
 5    1  0.3289127E-002  0.1250003E+03  0.7818608E-02  0.1235069E+00
          4   -1    0    0  501    0  0.00000000000E+00  0.00000000000E+00  0.82618479504E+02  0.82628240060E+02  0.12700000000E+01 0. -1.
         -4   -1    0    0    0  501 -0.00000000000E+00 -0.00000000000E+00 -0.47259708259E+02  0.47276769398E+02  0.12700000000E+01 0. -1.
         25    2    1    2    0    0  0.00000000000E+00  0.00000000000E+00  0.35358771245E+02  0.12990500946E+03  0.12500027511E+03 0.  0.
    9000005    1    3    3    0    0  0.45845978215E+02  0.31249477011E+02  0.47563276073E+02  0.73086584013E+02  0.10000000000E+01 0.  0.
    9000005    1    3    3    0    0 -0.45845978215E+02 -0.31249477011E+02 -0.12204504828E+02  0.56818425445E+02  0.10000000000E+01 0.  0.
<mgrwt>
<rscale>  0 0.12500028E+03</rscale>
<asrwt>0</asrwt>
<pdfrwt beam="1">  1        4 0.12712598E-01 0.12500028E+03</pdfrwt>
<pdfrwt beam="2">  1       -4 0.72727876E-02 0.12500028E+03</pdfrwt>
<totfact> 0.10346476E+04</totfact>
</mgrwt>
</event>
<event>
 5    1  0.3289127E-002  0.1249975E+03  0.7818608E-02  0.1235073E+00
         -4   -1    0    0    0  501 -0.00000000000E+00  0.00000000000E+00  0.11172150619E+02  0.11244102874E+02  0.12700000000E+01 0.  1.
          4   -1    0    0  501    0  0.00000000000E+00 -0.00000000000E+00 -0.34843221499E+03  0.34843452949E+03  0.12700000000E+01 0.  1.
         25    2    1    2    0    0  0.00000000000E+00  0.00000000000E+00 -0.33726006437E+03  0.35967863237E+03  0.12499747022E+03 0.  0.
    9000005    1    3    3    0    0  0.19951152576E+02 -0.40414997583E+02 -0.29318473367E+03  0.29663059278E+03  0.10000000000E+01 0.  0.
    9000005    1    3    3    0    0 -0.19951152576E+02  0.40414997583E+02 -0.44075330700E+02  0.63048039582E+02  0.10000000000E+01 0.  0.
<mgrwt>
<rscale>  0 0.12499747E+03</rscale>
<asrwt>0</asrwt>
<pdfrwt beam="2">  1        4 0.53610661E-01 0.12499747E+03</pdfrwt>
<pdfrwt beam="1">  1       -4 0.17245055E-02 0.12499747E+03</pdfrwt>
<totfact> 0.68676596E+03</totfact>
</mgrwt>
</event>
<event>
 5    1  0.3289127E-002  0.1249980E+03  0.7818608E-02  0.1235072E+00
         -4   -1    0    0    0  501 -0.00000000000E+00  0.00000000000E+00  0.14361885889E+02  0.14417928640E+02  0.12700000000E+01 0.  1.
          4   -1    0    0  501    0  0.00000000000E+00 -0.00000000000E+00 -0.27139137849E+03  0.27139435001E+03  0.12700000000E+01 0.  1.
         25    2    1    2    0    0  0.00000000000E+00  0.00000000000E+00 -0.25702949260E+03  0.28581227865E+03  0.12499799423E+03 0.  0.
    9000005    1    3    3    0    0 -0.13372035041E+02  0.42270022266E+02 -0.27814789586E+02  0.52347193078E+02  0.10000000000E+01 0.  0.
    9000005    1    3    3    0    0  0.13372035041E+02 -0.42270022266E+02 -0.22921470301E+03  0.23346508557E+03  0.10000000000E+01 0.  0.
<mgrwt>
<rscale>  0 0.12499799E+03</rscale>
<asrwt>0</asrwt>
<pdfrwt beam="2">  1        4 0.41757056E-01 0.12499799E+03</pdfrwt>
<pdfrwt beam="1">  1       -4 0.22140607E-02 0.12499799E+03</pdfrwt>
<totfact> 0.77417150E+03</totfact>
</mgrwt>
</event>
<event>
 5    1  0.3289127E-002  0.1249989E+03  0.7818608E-02  0.1235071E+00
         -4   -1    0    0    0  501 -0.00000000000E+00  0.00000000000E+00  0.18271060348E+02  0.18315145270E+02  0.12700000000E+01 0. -1.
          4   -1    0    0  501    0  0.00000000000E+00 -0.00000000000E+00 -0.21348704771E+03  0.21349082519E+03  0.12700000000E+01 0. -1.
         25    2    1    2    0    0  0.00000000000E+00  0.00000000000E+00 -0.19521598736E+03  0.23180597046E+03  0.12499890487E+03 0.  0.
    9000005    1    3    3    0    0 -0.46497641655E+02 -0.16568948033E+02 -0.26540131373E+02  0.56053004305E+02  0.10000000000E+01 0.  0.
    9000005    1    3    3    0    0  0.46497641655E+02  0.16568948033E+02 -0.16867585599E+03  0.17575296615E+03  0.10000000000E+01 0.  0.
<mgrwt>
<rscale>  0 0.12499890E+03</rscale>
<asrwt>0</asrwt>
<pdfrwt beam="2">  1        4 0.32847841E-01 0.12499890E+03</pdfrwt>
<pdfrwt beam="1">  1       -4 0.28146142E-02 0.12499890E+03</pdfrwt>
<totfact> 0.85035136E+03</totfact>
</mgrwt>
</event>
<event>
 5    1  0.3289127E-002  0.1250095E+03  0.7818608E-02  0.1235054E+00
         -4   -1    0    0    0  501 -0.00000000000E+00  0.00000000000E+00  0.86916743988E+02  0.86926021913E+02  0.12700000000E+01 0. -1.
          4   -1    0    0  501    0  0.00000000000E+00 -0.00000000000E+00 -0.44928621721E+02  0.44946567719E+02  0.12700000000E+01 0. -1.
         25    2    1    2    0    0  0.00000000000E+00  0.00000000000E+00  0.41988122268E+02  0.13187258963E+03  0.12500950958E+03 0.  0.
    9000005    1    3    3    0    0  0.14716262676E+02  0.60703693524E+02  0.23191086435E+02  0.66635825834E+02  0.10000000000E+01 0.  0.
    9000005    1    3    3    0    0 -0.14716262676E+02 -0.60703693524E+02  0.18797035833E+02  0.65236763797E+02  0.10000000000E+01 0.  0.
<mgrwt>
<rscale>  0 0.12500951E+03</rscale>
<asrwt>0</asrwt>
<pdfrwt beam="2">  1        4 0.69141898E-02 0.12500951E+03</pdfrwt>
<pdfrwt beam="1">  1       -4 0.13373901E-01 0.12500951E+03</pdfrwt>
<totfact> 0.10302208E+04</totfact>
</mgrwt>
</event>
<event>
 5    1  0.3289127E-002  0.1250034E+03  0.7818608E-02  0.1235064E+00
         -4   -1    0    0    0  501 -0.00000000000E+00  0.00000000000E+00  0.82590979246E+01  0.83561712840E+01  0.12700000000E+01 0.  1.
          4   -1    0    0  501    0  0.00000000000E+00 -0.00000000000E+00 -0.47012743609E+03  0.47012915147E+03  0.12700000000E+01 0.  1.
         25    2    1    2    0    0  0.00000000000E+00  0.00000000000E+00 -0.46186833816E+03  0.47848532275E+03  0.12500336913E+03 0.  0.
    9000005    1    3    3    0    0  0.49492754307E+02  0.34115614881E+02 -0.29634919076E+03  0.30238593018E+03  0.10000000000E+01 0.  0.
    9000005    1    3    3    0    0 -0.49492754307E+02 -0.34115614881E+02 -0.16551914740E+03  0.17609939257E+03  0.10000000000E+01 0.  0.
<mgrwt>
<rscale>  0 0.12500337E+03</rscale>
<asrwt>0</asrwt>
<pdfrwt beam="2">  1        4 0.72334876E-01 0.12500337E+03</pdfrwt>
<pdfrwt beam="1">  1       -4 0.12782300E-02 0.12500337E+03</pdfrwt>
<totfact> 0.57568896E+03</totfact>
</mgrwt>
</event>
<event>
 5    1  0.3289127E-002  0.1249970E+03  0.7818608E-02  0.1235074E+00
          4   -1    0    0  501    0  0.00000000000E+00  0.00000000000E+00  0.66488564804E+03  0.66488686096E+03  0.12700000000E+01 0.  1.
         -4   -1    0    0    0  501 -0.00000000000E+00 -0.00000000000E+00 -0.58049207308E+01  0.59422222014E+01  0.12700000000E+01 0.  1.
         25    2    1    2    0    0  0.00000000000E+00  0.00000000000E+00  0.65908072731E+03  0.67082908316E+03  0.12499701475E+03 0.  0.
    9000005    1    3    3    0    0  0.36319441421E+02  0.35906515439E+02  0.52279471242E+03  0.52528439061E+03  0.10000000000E+01 0.  0.
    9000005    1    3    3    0    0 -0.36319441421E+02 -0.35906515439E+02  0.13628601489E+03  0.14554469255E+03  0.10000000000E+01 0.  0.
<mgrwt>
<rscale>  0 0.12499701E+03</rscale>
<asrwt>0</asrwt>
<pdfrwt beam="1">  1        4 0.10230073E+00 0.12499701E+03</pdfrwt>
<pdfrwt beam="2">  1       -4 0.90371987E-03 0.12499701E+03</pdfrwt>
<totfact> 0.44674880E+03</totfact>
</mgrwt>
</event>
<event>
 5    1  0.3289127E-002  0.1249992E+03  0.7818608E-02  0.1235071E+00
          4   -1    0    0  501    0  0.00000000000E+00  0.00000000000E+00  0.18406775928E+03  0.18407214050E+03  0.12700000000E+01 0.  1.
         -4   -1    0    0    0  501 -0.00000000000E+00 -0.00000000000E+00 -0.21197878542E+02  0.21235888366E+02  0.12700000000E+01 0.  1.
         25    2    1    2    0    0  0.00000000000E+00  0.00000000000E+00  0.16286988074E+03  0.20530802887E+03  0.12499915465E+03 0.  0.
    9000005    1    3    3    0    0 -0.19488554704E+02 -0.29467981771E+01  0.17883677164E+03  0.17992242293E+03  0.10000000000E+01 0.  0.
    9000005    1    3    3    0    0  0.19488554704E+02  0.29467981771E+01 -0.15966890893E+02  0.25385605936E+02  0.10000000000E+01 0.  0.
<mgrwt>
<rscale>  0 0.12499915E+03</rscale>
<asrwt>0</asrwt>
<pdfrwt beam="1">  1        4 0.28321378E-01 0.12499915E+03</pdfrwt>
<pdfrwt beam="2">  1       -4 0.32644729E-02 0.12499915E+03</pdfrwt>
<totfact> 0.89249607E+03</totfact>
</mgrwt>
</event>
<event>
 5    1  0.3289127E-002  0.1249978E+03  0.7818608E-02  0.1235073E+00
          4   -1    0    0  501    0  0.00000000000E+00  0.00000000000E+00  0.14161240372E+02  0.14218074022E+02  0.12700000000E+01 0. -1.
         -4   -1    0    0    0  501 -0.00000000000E+00 -0.00000000000E+00 -0.27522071348E+03  0.27522364366E+03  0.12700000000E+01 0. -1.
         25    2    1    2    0    0  0.00000000000E+00  0.00000000000E+00 -0.26105947311E+03  0.28944171768E+03  0.12499783772E+03 0.  0.
    9000005    1    3    3    0    0 -0.18159958452E+02 -0.46823749441E+02 -0.21663880146E+03  0.22238619089E+03  0.10000000000E+01 0.  0.
    9000005    1    3    3    0    0  0.18159958452E+02  0.46823749441E+02 -0.44420671648E+02  0.67055526784E+02  0.10000000000E+01 0.  0.
<mgrwt>
<rscale>  0 0.12499784E+03</rscale>
<asrwt>0</asrwt>
<pdfrwt beam="1">  1        4 0.21832498E-02 0.12499784E+03</pdfrwt>
<pdfrwt beam="2">  1       -4 0.42346242E-01 0.12499784E+03</pdfrwt>
<totfact> 0.76946326E+03</totfact>
</mgrwt>
</event>
<event>
 5    1  0.3289127E-002  0.1249976E+03  0.7818608E-02  0.1235073E+00
         -4   -1    0    0    0  501 -0.00000000000E+00  0.00000000000E+00  0.78254887308E+02  0.78265192056E+02  0.12700000000E+01 0.  1.
          4   -1    0    0  501    0  0.00000000000E+00 -0.00000000000E+00 -0.49893386087E+02  0.49909546934E+02  0.12700000000E+01 0.  1.
         25    2    1    2    0    0  0.00000000000E+00  0.00000000000E+00  0.28361501221E+02  0.12817473899E+03  0.12499755583E+03 0.  0.
    9000005    1    3    3    0    0  0.48067677098E+02  0.34084029470E+02  0.35515226072E+02  0.68808094941E+02  0.10000000000E+01 0.  0.
    9000005    1    3    3    0    0 -0.48067677098E+02 -0.34084029470E+02 -0.71537248506E+01  0.59366644050E+02  0.10000000000E+01 0.  0.
<mgrwt>
<rscale>  0 0.12499756E+03</rscale>
<asrwt>0</asrwt>
<pdfrwt beam="2">  1        4 0.76779414E-02 0.12499756E+03</pdfrwt>
<pdfrwt beam="1">  1       -4 0.12041249E-01 0.12499756E+03</pdfrwt>
<totfact> 0.10384289E+04</totfact>
</mgrwt>
</event>
<event>
 4    1  0.3289127E-002  0.1251509E+03  0.7818608E-02  0.1234834E+00
         -4   -1    0    0    0  501 -0.00000000000E+00  0.00000000000E+00  0.11104269382E+02  0.11176658647E+02  0.12700000000E+01 0.  1.
          4   -1    0    0  501    0  0.00000000000E+00 -0.00000000000E+00 -0.35140959839E+03  0.35141189328E+03  0.12700000000E+01 0.  1.
    9000005    1    1    2    0    0  0.20136396468E+02  0.52415254814E+02 -0.25012052378E+03  0.25634763470E+03  0.10000000000E+01 0.  0.
    9000005    1    1    2    0    0 -0.20136396468E+02 -0.52415254814E+02 -0.90184805227E+02  0.10624091723E+03  0.10000000000E+01 0.  0.
<mgrwt>
<rscale>  0 0.12515087E+03</rscale>
<asrwt>0</asrwt>
<pdfrwt beam="2">  1        4 0.54068751E-01 0.12515087E+03</pdfrwt>
<pdfrwt beam="1">  1       -4 0.17140943E-02 0.12515087E+03</pdfrwt>
<totfact> 0.68133910E+03</totfact>
</mgrwt>
</event>
<event>
 5    1  0.3289127E-002  0.1249987E+03  0.7818608E-02  0.1235071E+00
          4   -1    0    0  501    0  0.00000000000E+00  0.00000000000E+00  0.18945735029E+03  0.18946160688E+03  0.12700000000E+01 0. -1.
         -4   -1    0    0    0  501 -0.00000000000E+00 -0.00000000000E+00 -0.20593610325E+02  0.20632733368E+02  0.12700000000E+01 0. -1.
         25    2    1    2    0    0  0.00000000000E+00  0.00000000000E+00  0.16886373997E+03  0.21009434025E+03  0.12499867650E+03 0.  0.
    9000005    1    3    3    0    0 -0.61796885249E+02 -0.85513745085E+01  0.90535238287E+02  0.10995276442E+03  0.10000000000E+01 0.  0.
    9000005    1    3    3    0    0  0.61796885249E+02  0.85513745085E+01  0.78328501682E+02  0.10014157582E+03  0.10000000000E+01 0.  0.
<mgrwt>
<rscale>  0 0.12499868E+03</rscale>
<asrwt>0</asrwt>
<pdfrwt beam="1">  1        4 0.29150622E-01 0.12499868E+03</pdfrwt>
<pdfrwt beam="2">  1       -4 0.31715846E-02 0.12499868E+03</pdfrwt>
<totfact> 0.88463093E+03</totfact>
</mgrwt>
</event>
<event>
 5    1  0.3289127E-002  0.1249881E+03  0.7818608E-02  0.1235088E+00
         -4   -1    0    0    0  501 -0.00000000000E+00  0.00000000000E+00  0.15969774316E+03  0.15970279293E+03  0.12700000000E+01 0.  1.
          4   -1    0    0  501    0  0.00000000000E+00 -0.00000000000E+00 -0.24433672233E+02  0.24466655652E+02  0.12700000000E+01 0.  1.
         25    2    1    2    0    0  0.00000000000E+00  0.00000000000E+00  0.13526407092E+03  0.18416944858E+03  0.12498806706E+03 0.  0.
    9000005    1    3    3    0    0 -0.40616772958E+02 -0.44047526488E+02  0.41496789310E+02  0.72889576472E+02  0.10000000000E+01 0.  0.
    9000005    1    3    3    0    0  0.40616772958E+02  0.44047526488E+02  0.93767281615E+02  0.11127987211E+03  0.10000000000E+01 0.  0.
<mgrwt>
<rscale>  0 0.12498807E+03</rscale>
<asrwt>0</asrwt>
<pdfrwt beam="2">  1        4 0.37619520E-02 0.12498807E+03</pdfrwt>
<pdfrwt beam="1">  1       -4 0.24571810E-01 0.12498807E+03</pdfrwt>
<totfact> 0.92896669E+03</totfact>
</mgrwt>
</event>
<event>
 5    1  0.3289127E-002  0.1249937E+03  0.7818608E-02  0.1235079E+00
          4   -1    0    0  501    0  0.00000000000E+00  0.00000000000E+00  0.13258833334E+03  0.13259441556E+03  0.12700000000E+01 0. -1.
         -4   -1    0    0    0  501 -0.00000000000E+00 -0.00000000000E+00 -0.29438077880E+02  0.29465459937E+02  0.12700000000E+01 0. -1.
         25    2    1    2    0    0  0.00000000000E+00  0.00000000000E+00  0.10315025546E+03  0.16205987550E+03  0.12499371202E+03 0.  0.
    9000005    1    3    3    0    0  0.32251801471E+02 -0.40648790246E+02  0.64309144054E+01  0.52295884223E+02  0.10000000000E+01 0.  0.
    9000005    1    3    3    0    0 -0.32251801471E+02  0.40648790246E+02  0.96719341055E+02  0.10976399128E+03  0.10000000000E+01 0.  0.
<mgrwt>
<rscale>  0 0.12499371E+03</rscale>
<asrwt>0</asrwt>
<pdfrwt beam="1">  1        4 0.20400779E-01 0.12499371E+03</pdfrwt>
<pdfrwt beam="2">  1       -4 0.45315093E-02 0.12499371E+03</pdfrwt>
<totfact> 0.96960822E+03</totfact>
</mgrwt>
</event>
<event>
 5    1  0.3289127E-002  0.1249988E+03  0.7818608E-02  0.1235071E+00
          4   -1    0    0  501    0  0.00000000000E+00  0.00000000000E+00  0.14107955764E+02  0.14165003206E+02  0.12700000000E+01 0.  1.
         -4   -1    0    0    0  501 -0.00000000000E+00 -0.00000000000E+00 -0.27626041996E+03  0.27626333911E+03  0.12700000000E+01 0.  1.
         25    2    1    2    0    0  0.00000000000E+00  0.00000000000E+00 -0.26215246420E+03  0.29042834232E+03  0.12499883014E+03 0.  0.
    9000005    1    3    3    0    0 -0.87661643058E+01  0.61747802404E+02 -0.12191696776E+03  0.13694664569E+03  0.10000000000E+01 0.  0.
    9000005    1    3    3    0    0  0.87661643058E+01 -0.61747802404E+02 -0.14023549643E+03  0.15348169662E+03  0.10000000000E+01 0.  0.
<mgrwt>
<rscale>  0 0.12499883E+03</rscale>
<asrwt>0</asrwt>
<pdfrwt beam="1">  1        4 0.21750678E-02 0.12499883E+03</pdfrwt>
<pdfrwt beam="2">  1       -4 0.42506212E-01 0.12499883E+03</pdfrwt>
<totfact> 0.76817391E+03</totfact>
</mgrwt>
</event>
<event>
 5    1  0.3289127E-002  0.1250019E+03  0.7818608E-02  0.1235066E+00
         -4   -1    0    0    0  501 -0.00000000000E+00  0.00000000000E+00  0.21244260324E+02  0.21282187310E+02  0.12700000000E+01 0. -1.
          4   -1    0    0  501    0  0.00000000000E+00 -0.00000000000E+00 -0.18367465769E+03  0.18367904828E+03  0.12700000000E+01 0. -1.
         25    2    1    2    0    0  0.00000000000E+00  0.00000000000E+00 -0.16243039736E+03  0.20496123559E+03  0.12500189641E+03 0.  0.
    9000005    1    3    3    0    0 -0.37602815577E+01  0.17486657534E+02 -0.17939602854E+03  0.18028826353E+03  0.10000000000E+01 0.  0.
    9000005    1    3    3    0    0  0.37602815577E+01 -0.17486657534E+02  0.16965631178E+02  0.24672972062E+02  0.10000000000E+01 0.  0.
<mgrwt>
<rscale>  0 0.12500190E+03</rscale>
<asrwt>0</asrwt>
<pdfrwt beam="2">  1        4 0.28260894E-01 0.12500190E+03</pdfrwt>
<pdfrwt beam="1">  1       -4 0.32716031E-02 0.12500190E+03</pdfrwt>
<totfact> 0.89301658E+03</totfact>
</mgrwt>
</event>
<event>
 5    1  0.3289127E-002  0.1249926E+03  0.7818608E-02  0.1235081E+00
         -4   -1    0    0    0  501 -0.00000000000E+00  0.00000000000E+00  0.30933343698E+02  0.30959403294E+02  0.12700000000E+01 0.  1.
          4   -1    0    0  501    0  0.00000000000E+00 -0.00000000000E+00 -0.12618214072E+03  0.12618853172E+03  0.12700000000E+01 0.  1.
         25    2    1    2    0    0  0.00000000000E+00  0.00000000000E+00 -0.95248797024E+02  0.15714793501E+03  0.12499256036E+03 0.  0.
    9000005    1    3    3    0    0  0.39211350448E+02  0.47773162773E+02 -0.36034416769E+02  0.71549173840E+02  0.10000000000E+01 0.  0.
    9000005    1    3    3    0    0 -0.39211350448E+02 -0.47773162773E+02 -0.59214380255E+02  0.85598761173E+02  0.10000000000E+01 0.  0.
<mgrwt>
<rscale>  0 0.12499256E+03</rscale>
<asrwt>0</asrwt>
<pdfrwt beam="2">  1        4 0.19415133E-01 0.12499256E+03</pdfrwt>
<pdfrwt beam="1">  1       -4 0.47614722E-02 0.12499256E+03</pdfrwt>
<totfact> 0.97911853E+03</totfact>
</mgrwt>
</event>
<event>
 5    1  0.3289127E-002  0.1250018E+03  0.7818608E-02  0.1235066E+00
         -4   -1    0    0    0  501 -0.00000000000E+00  0.00000000000E+00  0.30448549740E+02  0.30475023892E+02  0.12700000000E+01 0. -1.
          4   -1    0    0  501    0  0.00000000000E+00 -0.00000000000E+00 -0.12820855845E+03  0.12821484843E+03  0.12700000000E+01 0. -1.
         25    2    1    2    0    0  0.00000000000E+00  0.00000000000E+00 -0.97760008706E+02  0.15868987233E+03  0.12500182509E+03 0.  0.
    9000005    1    3    3    0    0  0.10880474690E+02 -0.48407069579E+02 -0.64341503293E+00  0.49629054974E+02  0.10000000000E+01 0.  0.
    9000005    1    3    3    0    0 -0.10880474690E+02  0.48407069579E+02 -0.97116593673E+02  0.10906081735E+03  0.10000000000E+01 0.  0.
<mgrwt>
<rscale>  0 0.12500183E+03</rscale>
<asrwt>0</asrwt>
<pdfrwt beam="2">  1        4 0.19726914E-01 0.12500183E+03</pdfrwt>
<pdfrwt beam="1">  1       -4 0.46869127E-02 0.12500183E+03</pdfrwt>
<totfact> 0.97591959E+03</totfact>
</mgrwt>
</event>
<event>
 5    1  0.3289127E-002  0.1249984E+03  0.7818608E-02  0.1235072E+00
          4   -1    0    0  501    0  0.00000000000E+00  0.00000000000E+00  0.12408258298E+04  0.12408264797E+04  0.12700000000E+01 0.  1.
         -4   -1    0    0    0  501 -0.00000000000E+00 -0.00000000000E+00 -0.30192582491E+01  0.32754878071E+01  0.12700000000E+01 0.  1.
         25    2    1    2    0    0  0.00000000000E+00  0.00000000000E+00  0.12378065715E+04  0.12441019675E+04  0.12499838821E+03 0.  0.
    9000005    1    3    3    0    0 -0.43147585500E+02 -0.87736011546E+00  0.16907146193E+03  0.17449539574E+03  0.10000000000E+01 0.  0.
    9000005    1    3    3    0    0  0.43147585500E+02  0.87736011546E+00  0.10687351096E+04  0.10696065718E+04  0.10000000000E+01 0.  0.
<mgrwt>
<rscale>  0 0.12499839E+03</rscale>
<asrwt>0</asrwt>
<pdfrwt beam="1">  1        4 0.19091628E+00 0.12499839E+03</pdfrwt>
<pdfrwt beam="2">  1       -4 0.48426063E-03 0.12499839E+03</pdfrwt>
<totfact> 0.23587461E+03</totfact>
</mgrwt>
</event>
<event>
 5    1  0.3289127E-002  0.1249986E+03  0.7818608E-02  0.1235072E+00
         -4   -1    0    0    0  501 -0.00000000000E+00  0.00000000000E+00  0.28324928352E+02  0.28353385444E+02  0.12700000000E+01 0.  1.
          4   -1    0    0  501    0  0.00000000000E+00 -0.00000000000E+00 -0.13780477882E+03  0.13781063082E+03  0.12700000000E+01 0.  1.
         25    2    1    2    0    0  0.00000000000E+00  0.00000000000E+00 -0.10947985047E+03  0.16616401626E+03  0.12499857056E+03 0.  0.
    9000005    1    3    3    0    0 -0.57049284633E+02  0.18109675899E+02 -0.30864546811E+02  0.67351328778E+02  0.10000000000E+01 0.  0.
    9000005    1    3    3    0    0  0.57049284633E+02 -0.18109675899E+02 -0.78615303659E+02  0.98812687483E+02  0.10000000000E+01 0.  0.
<mgrwt>
<rscale>  0 0.12499857E+03</rscale>
<asrwt>0</asrwt>
<pdfrwt beam="2">  1        4 0.21203374E-01 0.12499857E+03</pdfrwt>
<pdfrwt beam="1">  1       -4 0.43603205E-02 0.12499857E+03</pdfrwt>
<totfact> 0.96170487E+03</totfact>
</mgrwt>
</event>
<event>
 5    1  0.3289127E-002  0.1249861E+03  0.7818608E-02  0.1235091E+00
          4   -1    0    0  501    0  0.00000000000E+00  0.00000000000E+00  0.73250324043E+03  0.73250434138E+03  0.12700000000E+01 0. -1.
         -4   -1    0    0    0  501 -0.00000000000E+00 -0.00000000000E+00 -0.52548023286E+01  0.54060935539E+01  0.12700000000E+01 0. -1.
         25    2    1    2    0    0  0.00000000000E+00  0.00000000000E+00  0.72724843810E+03  0.73791043493E+03  0.12498607628E+03 0.  0.
    9000005    1    3    3    0    0 -0.12606405011E+02 -0.51105229834E+02  0.16483458052E+03  0.17303787129E+03  0.10000000000E+01 0.  0.
    9000005    1    3    3    0    0  0.12606405011E+02  0.51105229834E+02  0.56241385758E+03  0.56487256365E+03  0.10000000000E+01 0.  0.
<mgrwt>
<rscale>  0 0.12498608E+03</rscale>
<asrwt>0</asrwt>
<pdfrwt beam="1">  1        4 0.11270457E+00 0.12498608E+03</pdfrwt>
<pdfrwt beam="2">  1       -4 0.82015331E-03 0.12498608E+03</pdfrwt>
<totfact> 0.41171685E+03</totfact>
</mgrwt>
</event>
<event>
 5    1  0.3289127E-002  0.1250054E+03  0.7818608E-02  0.1235061E+00
          4   -1    0    0  501    0  0.00000000000E+00  0.00000000000E+00  0.23107322222E+02  0.23142196099E+02  0.12700000000E+01 0.  1.
         -4   -1    0    0    0  501 -0.00000000000E+00 -0.00000000000E+00 -0.16889793012E+03  0.16890270483E+03  0.12700000000E+01 0.  1.
         25    2    1    2    0    0  0.00000000000E+00  0.00000000000E+00 -0.14579060789E+03  0.19204490092E+03  0.12500537037E+03 0.  0.
    9000005    1    3    3    0    0 -0.61632164758E+02  0.10344971312E+02 -0.73215690433E+02  0.96265671398E+02  0.10000000000E+01 0.  0.
    9000005    1    3    3    0    0  0.61632164758E+02 -0.10344971312E+02 -0.72574917461E+02  0.95779229527E+02  0.10000000000E+01 0.  0.
<mgrwt>
<rscale>  0 0.12500537E+03</rscale>
<asrwt>0</asrwt>
<pdfrwt beam="1">  1        4 0.35580226E-02 0.12500537E+03</pdfrwt>
<pdfrwt beam="2">  1       -4 0.25987346E-01 0.12500537E+03</pdfrwt>
<totfact> 0.91481718E+03</totfact>
</mgrwt>
</event>
<event>
 5    1  0.3289127E-002  0.1249983E+03  0.7818608E-02  0.1235072E+00
         -4   -1    0    0    0  501 -0.00000000000E+00  0.00000000000E+00  0.14673378429E+04  0.14673383925E+04  0.12700000000E+01 0. -1.
          4   -1    0    0  501    0  0.00000000000E+00 -0.00000000000E+00 -0.25100103686E+01  0.28130147619E+01  0.12700000000E+01 0. -1.
         25    2    1    2    0    0  0.00000000000E+00  0.00000000000E+00  0.14648278326E+04  0.14701514073E+04  0.12499832526E+03 0.  0.
    9000005    1    3    3    0    0 -0.35739858706E+02  0.44173963898E+02  0.10383155079E+04  0.10398695931E+04  0.10000000000E+01 0.  0.
    9000005    1    3    3    0    0  0.35739858706E+02 -0.44173963898E+02  0.42651232461E+03  0.43028181420E+03  0.10000000000E+01 0.  0.
<mgrwt>
<rscale>  0 0.12499833E+03</rscale>
<asrwt>0</asrwt>
<pdfrwt beam="2">  1        4 0.40950634E-03 0.12499833E+03</pdfrwt>
<pdfrwt beam="1">  1       -4 0.22576731E+00 0.12499833E+03</pdfrwt>
<totfact> 0.18524462E+03</totfact>
</mgrwt>
</event>
<event>
 5    1  0.3289127E-002  0.1250011E+03  0.7818608E-02  0.1235068E+00
         -4   -1    0    0    0  501 -0.00000000000E+00  0.00000000000E+00  0.61708339980E+02  0.61721407332E+02  0.12700000000E+01 0.  1.
          4   -1    0    0  501    0  0.00000000000E+00 -0.00000000000E+00 -0.63276753154E+02  0.63289496677E+02  0.12700000000E+01 0.  1.
         25    2    1    2    0    0  0.00000000000E+00  0.00000000000E+00 -0.15684131740E+01  0.12501090401E+03  0.12500106480E+03 0.  0.
    9000005    1    3    3    0    0  0.79763401608E+01  0.51527306807E+02 -0.35234431769E+02  0.62937671797E+02  0.10000000000E+01 0.  0.
    9000005    1    3    3    0    0 -0.79763401608E+01 -0.51527306807E+02  0.33666018595E+02  0.62073232212E+02  0.10000000000E+01 0.  0.
<mgrwt>
<rscale>  0 0.12500106E+03</rscale>
<asrwt>0</asrwt>
<pdfrwt beam="2">  1        4 0.97368705E-02 0.12500106E+03</pdfrwt>
<pdfrwt beam="1">  1       -4 0.94955762E-02 0.12500106E+03</pdfrwt>
<totfact> 0.10452374E+04</totfact>
</mgrwt>
</event>
<event>
 5    1  0.3289127E-002  0.1250012E+03  0.7818608E-02  0.1235067E+00
         -4   -1    0    0    0  501 -0.00000000000E+00  0.00000000000E+00  0.34898863720E+01  0.37137860586E+01  0.12700000000E+01 0. -1.
          4   -1    0    0  501    0  0.00000000000E+00 -0.00000000000E+00 -0.10843130117E+04  0.10843137555E+04  0.12700000000E+01 0. -1.
         25    2    1    2    0    0  0.00000000000E+00  0.00000000000E+00 -0.10808231254E+04  0.10880275415E+04  0.12500121128E+03 0.  0.
    9000005    1    3    3    0    0 -0.18461570224E+02 -0.38105625958E+02 -0.94046651174E+03  0.94141974061E+03  0.10000000000E+01 0.  0.
    9000005    1    3    3    0    0  0.18461570224E+02  0.38105625958E+02 -0.14035661362E+03  0.14660780093E+03  0.10000000000E+01 0.  0.
<mgrwt>
<rscale>  0 0.12500121E+03</rscale>
<asrwt>0</asrwt>
<pdfrwt beam="2">  1        4 0.16683441E+00 0.12500121E+03</pdfrwt>
<pdfrwt beam="1">  1       -4 0.55418672E-03 0.12500121E+03</pdfrwt>
<totfact> 0.27835767E+03</totfact>
</mgrwt>
</event>
<event>
 5    1  0.3289127E-002  0.1249642E+03  0.7818608E-02  0.1235125E+00
         -4   -1    0    0    0  501 -0.00000000000E+00  0.00000000000E+00  0.28008642818E+03  0.28008930745E+03  0.12700000000E+01 0.  1.
          4   -1    0    0  501    0  0.00000000000E+00 -0.00000000000E+00 -0.13906720863E+02  0.13964590404E+02  0.12700000000E+01 0.  1.
         25    2    1    2    0    0  0.00000000000E+00  0.00000000000E+00  0.26617970732E+03  0.29405389786E+03  0.12496422792E+03 0.  0.
    9000005    1    3    3    0    0  0.54353738810E+02  0.27914099021E+02  0.10245529503E+03  0.11929632571E+03  0.10000000000E+01 0.  0.
    9000005    1    3    3    0    0 -0.54353738810E+02 -0.27914099021E+02  0.16372441228E+03  0.17475757215E+03  0.10000000000E+01 0.  0.
<mgrwt>
<rscale>  0 0.12496423E+03</rscale>
<asrwt>0</asrwt>
<pdfrwt beam="2">  1        4 0.21441685E-02 0.12496423E+03</pdfrwt>
<pdfrwt beam="1">  1       -4 0.43094894E-01 0.12496423E+03</pdfrwt>
<totfact> 0.76411496E+03</totfact>
</mgrwt>
</event>
<event>
 5    1  0.3289127E-002  0.1250041E+03  0.7818608E-02  0.1235063E+00
         -4   -1    0    0    0  501 -0.00000000000E+00  0.00000000000E+00  0.66550378893E+03  0.66550500072E+03  0.12700000000E+01 0. -1.
          4   -1    0    0  501    0  0.00000000000E+00 -0.00000000000E+00 -0.58000750398E+01  0.59374885656E+01  0.12700000000E+01 0. -1.
         25    2    1    2    0    0  0.00000000000E+00  0.00000000000E+00  0.65970371389E+03  0.67144248929E+03  0.12500410511E+03 0.  0.
    9000005    1    3    3    0    0 -0.24393189031E+02 -0.55395721880E+02  0.24632881237E+03  0.25365842678E+03  0.10000000000E+01 0.  0.
    9000005    1    3    3    0    0  0.24393189031E+02  0.55395721880E+02  0.41337490152E+03  0.41778406250E+03  0.10000000000E+01 0.  0.
<mgrwt>
<rscale>  0 0.12500411E+03</rscale>
<asrwt>0</asrwt>
<pdfrwt beam="2">  1        4 0.90298224E-03 0.12500411E+03</pdfrwt>
<pdfrwt beam="1">  1       -4 0.10239592E+00 0.12500411E+03</pdfrwt>
<totfact> 0.44633644E+03</totfact>
</mgrwt>
</event>
<event>
 5    1  0.3289127E-002  0.1250042E+03  0.7818608E-02  0.1235063E+00
          4   -1    0    0  501    0  0.00000000000E+00  0.00000000000E+00  0.25830383856E+02  0.25861585995E+02  0.12700000000E+01 0. -1.
         -4   -1    0    0    0  501 -0.00000000000E+00 -0.00000000000E+00 -0.15111184980E+03  0.15111718648E+03  0.12700000000E+01 0. -1.
         25    2    1    2    0    0  0.00000000000E+00  0.00000000000E+00 -0.12528146594E+03  0.17697877247E+03  0.12500416072E+03 0.  0.
    9000005    1    3    3    0    0 -0.21925711395E+02 -0.52312686822E+02 -0.25500880973E+02  0.62198464234E+02  0.10000000000E+01 0.  0.
    9000005    1    3    3    0    0  0.21925711395E+02  0.52312686822E+02 -0.99780584966E+02  0.11478030824E+03  0.10000000000E+01 0.  0.
<mgrwt>
<rscale>  0 0.12500416E+03</rscale>
<asrwt>0</asrwt>
<pdfrwt beam="1">  1        4 0.39767160E-02 0.12500416E+03</pdfrwt>
<pdfrwt beam="2">  1       -4 0.23250787E-01 0.12500416E+03</pdfrwt>
<totfact> 0.94154891E+03</totfact>
</mgrwt>
</event>
<event>
 5    1  0.3289127E-002  0.1249842E+03  0.7818608E-02  0.1235094E+00
          4   -1    0    0  501    0  0.00000000000E+00  0.00000000000E+00  0.43637660397E+03  0.43637845202E+03  0.12700000000E+01 0.  1.
         -4   -1    0    0    0  501 -0.00000000000E+00 -0.00000000000E+00 -0.89023645130E+01  0.89924965345E+01  0.12700000000E+01 0.  1.
         25    2    1    2    0    0  0.00000000000E+00  0.00000000000E+00  0.42747423945E+03  0.44537094856E+03  0.12498422469E+03 0.  0.
    9000005    1    3    3    0    0 -0.61142490635E+02  0.68587018927E+01  0.17489453851E+03  0.18540373663E+03  0.10000000000E+01 0.  0.
    9000005    1    3    3    0    0  0.61142490635E+02 -0.68587018927E+01  0.25257970094E+03  0.25996721193E+03  0.10000000000E+01 0.  0.
<mgrwt>
<rscale>  0 0.12498422E+03</rscale>
<asrwt>0</asrwt>
<pdfrwt beam="1">  1        4 0.67141937E-01 0.12498422E+03</pdfrwt>
<pdfrwt beam="2">  1       -4 0.13766699E-02 0.12498422E+03</pdfrwt>
<totfact> 0.60387901E+03</totfact>
</mgrwt>
</event>
<event>
 5    1  0.3289127E-002  0.1250032E+03  0.7818608E-02  0.1235064E+00
          4   -1    0    0  501    0  0.00000000000E+00  0.00000000000E+00  0.32927332294E+03  0.32927577211E+03  0.12700000000E+01 0.  1.
         -4   -1    0    0    0  501 -0.00000000000E+00 -0.00000000000E+00 -0.11827366084E+02  0.11895355753E+02  0.12700000000E+01 0.  1.
         25    2    1    2    0    0  0.00000000000E+00  0.00000000000E+00  0.31744595685E+03  0.34117112786E+03  0.12500321182E+03 0.  0.
    9000005    1    3    3    0    0 -0.16161635437E+02 -0.21009517166E+02  0.42617207727E+01  0.26865601343E+02  0.10000000000E+01 0.  0.
    9000005    1    3    3    0    0  0.16161635437E+02  0.21009517166E+02  0.31318423608E+03  0.31430552652E+03  0.10000000000E+01 0.  0.
<mgrwt>
<rscale>  0 0.12500321E+03</rscale>
<asrwt>0</asrwt>
<pdfrwt beam="1">  1        4 0.50662858E-01 0.12500321E+03</pdfrwt>
<pdfrwt beam="2">  1       -4 0.18250130E-02 0.12500321E+03</pdfrwt>
<totfact> 0.70701853E+03</totfact>
</mgrwt>
</event>
<event>
 5    1  0.3289127E-002  0.1250001E+03  0.7818608E-02  0.1235069E+00
         -4   -1    0    0    0  501 -0.00000000000E+00  0.00000000000E+00  0.85474524324E+01  0.86412871196E+01  0.12700000000E+01 0. -1.
          4   -1    0    0  501    0  0.00000000000E+00 -0.00000000000E+00 -0.45441835779E+03  0.45442013247E+03  0.12700000000E+01 0. -1.
         25    2    1    2    0    0  0.00000000000E+00  0.00000000000E+00 -0.44587090536E+03  0.46306141959E+03  0.12500005628E+03 0.  0.
    9000005    1    3    3    0    0 -0.18960736167E+02 -0.52653736412E+02 -0.11991812734E+03  0.13233776007E+03  0.10000000000E+01 0.  0.
    9000005    1    3    3    0    0  0.18960736167E+02  0.52653736412E+02 -0.32595277802E+03  0.33072365953E+03  0.10000000000E+01 0.  0.
<mgrwt>
<rscale>  0 0.12500006E+03</rscale>
<asrwt>0</asrwt>
<pdfrwt beam="2">  1        4 0.69917853E-01 0.12500006E+03</pdfrwt>
<pdfrwt beam="1">  1       -4 0.13223476E-02 0.12500006E+03</pdfrwt>
<totfact> 0.58848688E+03</totfact>
</mgrwt>
</event>
<event>
 5    1  0.3289127E-002  0.1250040E+03  0.7818608E-02  0.1235063E+00
          4   -1    0    0  501    0  0.00000000000E+00  0.00000000000E+00  0.12594056047E+03  0.12594696372E+03  0.12700000000E+01 0. -1.
         -4   -1    0    0    0  501 -0.00000000000E+00 -0.00000000000E+00 -0.30998409281E+02  0.31024414225E+02  0.12700000000E+01 0. -1.
         25    2    1    2    0    0  0.00000000000E+00  0.00000000000E+00  0.94942151184E+02  0.15697137794E+03  0.12500400563E+03 0.  0.
    9000005    1    3    3    0    0  0.29480222389E+02 -0.26041293286E+02  0.10845187447E+03  0.11536915335E+03  0.10000000000E+01 0.  0.
    9000005    1    3    3    0    0 -0.29480222389E+02  0.26041293286E+02 -0.13509723286E+02  0.41602224597E+02  0.10000000000E+01 0.  0.
<mgrwt>
<rscale>  0 0.12500401E+03</rscale>
<asrwt>0</asrwt>
<pdfrwt beam="1">  1        4 0.19377964E-01 0.12500401E+03</pdfrwt>
<pdfrwt beam="2">  1       -4 0.47714790E-02 0.12500401E+03</pdfrwt>
<totfact> 0.97921058E+03</totfact>
</mgrwt>
</event>
<event>
 5    1  0.3289127E-002  0.1249820E+03  0.7818608E-02  0.1235097E+00
         -4   -1    0    0    0  501 -0.00000000000E+00  0.00000000000E+00  0.39848626852E+01  0.41823475011E+01  0.12700000000E+01 0. -1.
          4   -1    0    0  501    0  0.00000000000E+00 -0.00000000000E+00 -0.95609599959E+03  0.95609684307E+03  0.12700000000E+01 0. -1.
         25    2    1    2    0    0  0.00000000000E+00  0.00000000000E+00 -0.95211113690E+03  0.96027919057E+03  0.12498202602E+03 0.  0.
    9000005    1    3    3    0    0 -0.31118482770E+02 -0.52069665408E+02 -0.59118179353E+03  0.59428656642E+03  0.10000000000E+01 0.  0.
    9000005    1    3    3    0    0  0.31118482770E+02  0.52069665408E+02 -0.36092934337E+03  0.36599262415E+03  0.10000000000E+01 0.  0.
<mgrwt>
<rscale>  0 0.12498203E+03</rscale>
<asrwt>0</asrwt>
<pdfrwt beam="2">  1        4 0.14710677E+00 0.12498203E+03</pdfrwt>
<pdfrwt beam="1">  1       -4 0.62831258E-03 0.12498203E+03</pdfrwt>
<totfact> 0.31966379E+03</totfact>
</mgrwt>
</event>
<event>
 5    1  0.3289127E-002  0.1249996E+03  0.7818608E-02  0.1235070E+00
         -4   -1    0    0    0  501 -0.00000000000E+00  0.00000000000E+00  0.59913698580E+02  0.59927157262E+02  0.12700000000E+01 0. -1.
          4   -1    0    0  501    0  0.00000000000E+00 -0.00000000000E+00 -0.65170605350E+02  0.65182978619E+02  0.12700000000E+01 0. -1.
         25    2    1    2    0    0  0.00000000000E+00  0.00000000000E+00 -0.52569067699E+01  0.12511013588E+03  0.12499964412E+03 0.  0.
    9000005    1    3    3    0    0  0.43903193483E+02  0.20117160620E+02 -0.42325044772E+02  0.64223048544E+02  0.10000000000E+01 0.  0.
    9000005    1    3    3    0    0 -0.43903193483E+02 -0.20117160620E+02  0.37068138002E+02  0.60887087337E+02  0.10000000000E+01 0.  0.
<mgrwt>
<rscale>  0 0.12499964E+03</rscale>
<asrwt>0</asrwt>
<pdfrwt beam="2">  1        4 0.10028234E-01 0.12499964E+03</pdfrwt>
<pdfrwt beam="1">  1       -4 0.92194791E-02 0.12499964E+03</pdfrwt>
<totfact> 0.10450555E+04</totfact>
</mgrwt>
</event>
<event>
 5    1  0.3289127E-002  0.1249982E+03  0.7818608E-02  0.1235072E+00
         -4   -1    0    0    0  501 -0.00000000000E+00  0.00000000000E+00  0.22912022972E+02  0.22947193655E+02  0.12700000000E+01 0.  1.
          4   -1    0    0  501    0  0.00000000000E+00 -0.00000000000E+00 -0.17031585993E+03  0.17032059489E+03  0.12700000000E+01 0.  1.
         25    2    1    2    0    0  0.00000000000E+00  0.00000000000E+00 -0.14740383696E+03  0.19326778855E+03  0.12499818775E+03 0.  0.
    9000005    1    3    3    0    0 -0.41315836657E+02  0.36241548096E+02 -0.11969060103E+03  0.13170910425E+03  0.10000000000E+01 0.  0.
    9000005    1    3    3    0    0  0.41315836657E+02 -0.36241548096E+02 -0.27713235932E+02  0.61558684301E+02  0.10000000000E+01 0.  0.
<mgrwt>
<rscale>  0 0.12499819E+03</rscale>
<asrwt>0</asrwt>
<pdfrwt beam="2">  1        4 0.26205509E-01 0.12499819E+03</pdfrwt>
<pdfrwt beam="1">  1       -4 0.35279964E-02 0.12499819E+03</pdfrwt>
<totfact> 0.91285524E+03</totfact>
</mgrwt>
</event>
<event>
 5    1  0.3289127E-002  0.1250027E+03  0.7818608E-02  0.1235065E+00
         -4   -1    0    0    0  501 -0.00000000000E+00  0.00000000000E+00  0.16288722360E+03  0.16289217450E+03  0.12700000000E+01 0.  1.
          4   -1    0    0  501    0  0.00000000000E+00 -0.00000000000E+00 -0.23960213992E+02  0.23993848265E+02  0.12700000000E+01 0.  1.
         25    2    1    2    0    0  0.00000000000E+00  0.00000000000E+00  0.13892700961E+03  0.18688602276E+03  0.12500268599E+03 0.  0.
    9000005    1    3    3    0    0  0.43623076865E+02  0.38956760863E+02  0.10238244689E+03  0.11791423783E+03  0.10000000000E+01 0.  0.
    9000005    1    3    3    0    0 -0.43623076865E+02 -0.38956760863E+02  0.36544562715E+02  0.68971784927E+02  0.10000000000E+01 0.  0.
<mgrwt>
<rscale>  0 0.12500269E+03</rscale>
<asrwt>0</asrwt>
<pdfrwt beam="2">  1        4 0.36891548E-02 0.12500269E+03</pdfrwt>
<pdfrwt beam="1">  1       -4 0.25062541E-01 0.12500269E+03</pdfrwt>
<totfact> 0.92386416E+03</totfact>
</mgrwt>
</event>
<event>
 5    1  0.3289127E-002  0.1250001E+03  0.7818608E-02  0.1235069E+00
         -4   -1    0    0    0  501 -0.00000000000E+00  0.00000000000E+00  0.53670111753E+03  0.53670262013E+03  0.12700000000E+01 0.  1.
          4   -1    0    0  501    0  0.00000000000E+00 -0.00000000000E+00 -0.72213409920E+01  0.73321665095E+01  0.12700000000E+01 0.  1.
         25    2    1    2    0    0  0.00000000000E+00  0.00000000000E+00  0.52947977654E+03  0.54403478664E+03  0.12500006126E+03 0.  0.
    9000005    1    3    3    0    0  0.19651673644E+01  0.49082188385E+02  0.43287134867E+03  0.43565069447E+03  0.10000000000E+01 0.  0.
    9000005    1    3    3    0    0 -0.19651673644E+01 -0.49082188385E+02  0.96608427872E+02  0.10838409217E+03  0.10000000000E+01 0.  0.
<mgrwt>
<rscale>  0 0.12500006E+03</rscale>
<asrwt>0</asrwt>
<pdfrwt beam="2">  1        4 0.11196161E-02 0.12500006E+03</pdfrwt>
<pdfrwt beam="1">  1       -4 0.82578045E-01 0.12500006E+03</pdfrwt>
<totfact> 0.52602599E+03</totfact>
</mgrwt>
</event>
<event>
 5    1  0.3289127E-002  0.1250033E+03  0.7818608E-02  0.1235064E+00
          4   -1    0    0  501    0  0.00000000000E+00  0.00000000000E+00  0.62488681396E+02  0.62501585601E+02  0.12700000000E+01 0. -1.
         -4   -1    0    0    0  501 -0.00000000000E+00 -0.00000000000E+00 -0.62488824299E+02  0.62501728474E+02  0.12700000000E+01 0. -1.
         25    2    1    2    0    0  0.00000000000E+00  0.00000000000E+00 -0.14290246857E-03  0.12500331407E+03  0.12500331407E+03 0.  0.
    9000005    1    3    3    0    0 -0.45240371030E+02  0.39232103080E+02  0.17877513659E+02  0.62501636600E+02  0.10000000000E+01 0.  0.
    9000005    1    3    3    0    0  0.45240371030E+02 -0.39232103080E+02 -0.17877656561E+02  0.62501677475E+02  0.10000000000E+01 0.  0.
<mgrwt>
<rscale>  0 0.12500331E+03</rscale>
<asrwt>0</asrwt>
<pdfrwt beam="1">  1        4 0.96156286E-02 0.12500331E+03</pdfrwt>
<pdfrwt beam="2">  1       -4 0.96156505E-02 0.12500331E+03</pdfrwt>
<totfact> 0.10452008E+04</totfact>
</mgrwt>
</event>
<event>
 5    1  0.3289127E-002  0.1249980E+03  0.7818608E-02  0.1235072E+00
         -4   -1    0    0    0  501 -0.00000000000E+00  0.00000000000E+00  0.26252746136E+01  0.29163276217E+01  0.12700000000E+01 0.  1.
          4   -1    0    0  501    0  0.00000000000E+00 -0.00000000000E+00 -0.14094552176E+04  0.14094557897E+04  0.12700000000E+01 0.  1.
         25    2    1    2    0    0  0.00000000000E+00  0.00000000000E+00 -0.14068299429E+04  0.14123721174E+04  0.12499803801E+03 0.  0.
    9000005    1    3    3    0    0  0.54270666923E+02  0.24890467136E+02 -0.49498102660E+03  0.49857001247E+03  0.10000000000E+01 0.  0.
    9000005    1    3    3    0    0 -0.54270666923E+02 -0.24890467136E+02 -0.91184891635E+03  0.91380210488E+03  0.10000000000E+01 0.  0.
<mgrwt>
<rscale>  0 0.12499804E+03</rscale>
<asrwt>0</asrwt>
<pdfrwt beam="2">  1        4 0.21686112E+00 0.12499804E+03</pdfrwt>
<pdfrwt beam="1">  1       -4 0.42632224E-03 0.12499804E+03</pdfrwt>
<totfact> 0.19717896E+03</totfact>
</mgrwt>
</event>
<event>
 5    1  0.3289127E-002  0.1249994E+03  0.7818608E-02  0.1235070E+00
         -4   -1    0    0    0  501 -0.00000000000E+00  0.00000000000E+00  0.66096368466E+02  0.66108568465E+02  0.12700000000E+01 0. -1.
          4   -1    0    0  501    0  0.00000000000E+00 -0.00000000000E+00 -0.59074227841E+02  0.59087877733E+02  0.12700000000E+01 0. -1.
         25    2    1    2    0    0  0.00000000000E+00  0.00000000000E+00  0.70221406252E+01  0.12519644620E+03  0.12499935873E+03 0.  0.
    9000005    1    3    3    0    0 -0.33715053369E+02 -0.50949136783E+02  0.16672968057E+02  0.63336460483E+02  0.10000000000E+01 0.  0.
    9000005    1    3    3    0    0  0.33715053369E+02  0.50949136783E+02 -0.96508274317E+01  0.61859985716E+02  0.10000000000E+01 0.  0.
<mgrwt>
<rscale>  0 0.12499936E+03</rscale>
<asrwt>0</asrwt>
<pdfrwt beam="2">  1        4 0.90903312E-02 0.12499936E+03</pdfrwt>
<pdfrwt beam="1">  1       -4 0.10170661E-01 0.12499936E+03</pdfrwt>
<totfact> 0.10448749E+04</totfact>
</mgrwt>
</event>
<event>
 5    1  0.3289127E-002  0.1249978E+03  0.7818608E-02  0.1235073E+00
         -4   -1    0    0    0  501 -0.00000000000E+00  0.00000000000E+00  0.39080059903E+01  0.41091861506E+01  0.12700000000E+01 0. -1.
          4   -1    0    0  501    0  0.00000000000E+00 -0.00000000000E+00 -0.97423297144E+03  0.97423379922E+03  0.12700000000E+01 0. -1.
         25    2    1    2    0    0  0.00000000000E+00  0.00000000000E+00 -0.97032496545E+03  0.97834298537E+03  0.12499783377E+03 0.  0.
    9000005    1    3    3    0    0  0.30103952508E+02  0.36725711936E+02 -0.16722458452E+03  0.17383925777E+03  0.10000000000E+01 0.  0.
    9000005    1    3    3    0    0 -0.30103952508E+02 -0.36725711936E+02 -0.80310038093E+03  0.80450372760E+03  0.10000000000E+01 0.  0.
<mgrwt>
<rscale>  0 0.12499783E+03</rscale>
<asrwt>0</asrwt>
<pdfrwt beam="2">  1        4 0.14989735E+00 0.12499783E+03</pdfrwt>
<pdfrwt beam="1">  1       -4 0.61677154E-03 0.12499783E+03</pdfrwt>
<totfact> 0.31332092E+03</totfact>
</mgrwt>
</event>
<event>
 5    1  0.3289127E-002  0.1249979E+03  0.7818608E-02  0.1235073E+00
         -4   -1    0    0    0  501 -0.00000000000E+00  0.00000000000E+00  0.99411069378E+01  0.10021901374E+02  0.12700000000E+01 0. -1.
          4   -1    0    0  501    0  0.00000000000E+00 -0.00000000000E+00 -0.39125360950E+03  0.39125567069E+03  0.12700000000E+01 0. -1.
         25    2    1    2    0    0  0.00000000000E+00  0.00000000000E+00 -0.38131250256E+03  0.40127757206E+03  0.12499786091E+03 0.  0.
    9000005    1    3    3    0    0 -0.57046356793E+02 -0.20577682837E+02 -0.23906529573E+03  0.24663929832E+03  0.10000000000E+01 0.  0.
    9000005    1    3    3    0    0  0.57046356793E+02  0.20577682837E+02 -0.14224720684E+03  0.15463827375E+03  0.10000000000E+01 0.  0.
<mgrwt>
<rscale>  0 0.12499786E+03</rscale>
<asrwt>0</asrwt>
<pdfrwt beam="2">  1        4 0.60199225E-01 0.12499786E+03</pdfrwt>
<pdfrwt beam="1">  1       -4 0.15357749E-02 0.12499786E+03</pdfrwt>
<totfact> 0.64431771E+03</totfact>
</mgrwt>
</event>
<event>
 5    1  0.3289127E-002  0.1249962E+03  0.7818608E-02  0.1235075E+00
          4   -1    0    0  501    0  0.00000000000E+00  0.00000000000E+00  0.94009641223E+02  0.94018219207E+02  0.12700000000E+01 0. -1.
         -4   -1    0    0    0  501 -0.00000000000E+00 -0.00000000000E+00 -0.41528895187E+02  0.41548309658E+02  0.12700000000E+01 0. -1.
         25    2    1    2    0    0  0.00000000000E+00  0.00000000000E+00  0.52480746036E+02  0.13556652886E+03  0.12499622012E+03 0.  0.
    9000005    1    3    3    0    0  0.46503970240E+02 -0.36320233032E+02  0.48552782868E+02  0.76420882616E+02  0.10000000000E+01 0.  0.
    9000005    1    3    3    0    0 -0.46503970240E+02  0.36320233032E+02  0.39279631682E+01  0.59145646249E+02  0.10000000000E+01 0.  0.
<mgrwt>
<rscale>  0 0.12499622E+03</rscale>
<asrwt>0</asrwt>
<pdfrwt beam="1">  1        4 0.14465175E-01 0.12499622E+03</pdfrwt>
<pdfrwt beam="2">  1       -4 0.63912141E-02 0.12499622E+03</pdfrwt>
<totfact> 0.10227015E+04</totfact>
</mgrwt>
</event>
<event>
 5    1  0.3289127E-002  0.1249980E+03  0.7818608E-02  0.1235072E+00
         -4   -1    0    0    0  501 -0.00000000000E+00  0.00000000000E+00  0.29099726830E+03  0.29100003962E+03  0.12700000000E+01 0.  1.
          4   -1    0    0  501    0  0.00000000000E+00 -0.00000000000E+00 -0.13390354347E+02  0.13450445700E+02  0.12700000000E+01 0.  1.
         25    2    1    2    0    0  0.00000000000E+00  0.00000000000E+00  0.27760691395E+03  0.30445048532E+03  0.12499799733E+03 0.  0.
    9000005    1    3    3    0    0  0.61139251406E+02  0.12654777394E+02  0.13237161591E+03  0.14636050066E+03  0.10000000000E+01 0.  0.
    9000005    1    3    3    0    0 -0.61139251406E+02 -0.12654777394E+02  0.14523529804E+03  0.15808998466E+03  0.10000000000E+01 0.  0.
<mgrwt>
<rscale>  0 0.12499800E+03</rscale>
<asrwt>0</asrwt>
<pdfrwt beam="2">  1        4 0.20648901E-02 0.12499800E+03</pdfrwt>
<pdfrwt beam="1">  1       -4 0.44773647E-01 0.12499800E+03</pdfrwt>
<totfact> 0.75047281E+03</totfact>
</mgrwt>
</event>
<event>
 5    1  0.3289127E-002  0.1249919E+03  0.7818608E-02  0.1235082E+00
          4   -1    0    0  501    0  0.00000000000E+00  0.00000000000E+00  0.77829817391E+02  0.77840178411E+02  0.12700000000E+01 0. -1.
         -4   -1    0    0    0  501 -0.00000000000E+00 -0.00000000000E+00 -0.50161354583E+02  0.50177429125E+02  0.12700000000E+01 0. -1.
         25    2    1    2    0    0  0.00000000000E+00  0.00000000000E+00  0.27668462808E+02  0.12801760754E+03  0.12499185576E+03 0.  0.
    9000005    1    3    3    0    0  0.59322403408E+02 -0.87136633929E+01 -0.41890730902E+01  0.60113424534E+02  0.10000000000E+01 0.  0.
    9000005    1    3    3    0    0 -0.59322403408E+02  0.87136633929E+01  0.31857535898E+02  0.67904183003E+02  0.10000000000E+01 0.  0.
<mgrwt>
<rscale>  0 0.12499186E+03</rscale>
<asrwt>0</asrwt>
<pdfrwt beam="1">  1        4 0.11975852E-01 0.12499186E+03</pdfrwt>
<pdfrwt beam="2">  1       -4 0.77191650E-02 0.12499186E+03</pdfrwt>
<totfact> 0.10389017E+04</totfact>
</mgrwt>
</event>
<event>
 5    1  0.3289127E-002  0.1250005E+03  0.7818608E-02  0.1235069E+00
         -4   -1    0    0    0  501 -0.00000000000E+00  0.00000000000E+00  0.35787223221E+02  0.35809750709E+02  0.12700000000E+01 0. -1.
          4   -1    0    0  501    0  0.00000000000E+00 -0.00000000000E+00 -0.10909235633E+03  0.10909974844E+03  0.12700000000E+01 0. -1.
         25    2    1    2    0    0  0.00000000000E+00  0.00000000000E+00 -0.73305133109E+02  0.14490949915E+03  0.12500048161E+03 0.  0.
    9000005    1    3    3    0    0 -0.39268431243E+02 -0.39011816500E+02 -0.70278407365E+02  0.89464999082E+02  0.10000000000E+01 0.  0.
    9000005    1    3    3    0    0  0.39268431243E+02  0.39011816500E+02 -0.30267257438E+01  0.55444500067E+02  0.10000000000E+01 0.  0.
<mgrwt>
<rscale>  0 0.12500048E+03</rscale>
<asrwt>0</asrwt>
<pdfrwt beam="2">  1        4 0.16785741E-01 0.12500048E+03</pdfrwt>
<pdfrwt beam="1">  1       -4 0.55080282E-02 0.12500048E+03</pdfrwt>
<totfact> 0.10032719E+04</totfact>
</mgrwt>
</event>
<event>
 5    1  0.3289127E-002  0.1250027E+03  0.7818608E-02  0.1235065E+00
          4   -1    0    0  501    0  0.00000000000E+00  0.00000000000E+00  0.47663628757E+01  0.49326580120E+01  0.12700000000E+01 0. -1.
         -4   -1    0    0    0  501 -0.00000000000E+00 -0.00000000000E+00 -0.80536208061E+03  0.80536308196E+03  0.12700000000E+01 0. -1.
         25    2    1    2    0    0  0.00000000000E+00  0.00000000000E+00 -0.80059571773E+03  0.81029573997E+03  0.12500273182E+03 0.  0.
    9000005    1    3    3    0    0  0.26151729983E+02 -0.52487384743E+02 -0.26027848353E+03  0.26680466174E+03  0.10000000000E+01 0.  0.
    9000005    1    3    3    0    0 -0.26151729983E+02  0.52487384743E+02 -0.54031723420E+03  0.54349107822E+03  0.10000000000E+01 0.  0.
<mgrwt>
<rscale>  0 0.12500273E+03</rscale>
<asrwt>0</asrwt>
<pdfrwt beam="1">  1        4 0.74615620E-03 0.12500273E+03</pdfrwt>
<pdfrwt beam="2">  1       -4 0.12391462E+00 0.12500273E+03</pdfrwt>
<totfact> 0.37806983E+03</totfact>
</mgrwt>
</event>
<event>
 5    1  0.3289127E-002  0.1250005E+03  0.7818608E-02  0.1235068E+00
          4   -1    0    0  501    0  0.00000000000E+00  0.00000000000E+00  0.45515688161E+03  0.45515865342E+03  0.12700000000E+01 0.  1.
         -4   -1    0    0    0  501 -0.00000000000E+00 -0.00000000000E+00 -0.85334992071E+01  0.86274856545E+01  0.12700000000E+01 0.  1.
         25    2    1    2    0    0  0.00000000000E+00  0.00000000000E+00  0.44662338241E+03  0.46378613907E+03  0.12500054833E+03 0.  0.
    9000005    1    3    3    0    0  0.31920384827E+02 -0.17412972657E+02  0.34737765534E+02  0.50297464534E+02  0.10000000000E+01 0.  0.
    9000005    1    3    3    0    0 -0.31920384827E+02  0.17412972657E+02  0.41188561687E+03  0.41348867454E+03  0.10000000000E+01 0.  0.
<mgrwt>
<rscale>  0 0.12500055E+03</rscale>
<asrwt>0</asrwt>
<pdfrwt beam="1">  1        4 0.70031521E-01 0.12500055E+03</pdfrwt>
<pdfrwt beam="2">  1       -4 0.13202117E-02 0.12500055E+03</pdfrwt>
<totfact> 0.58787113E+03</totfact>
</mgrwt>
</event>
<event>
 5    1  0.3289127E-002  0.1249980E+03  0.7818608E-02  0.1235072E+00
         -4   -1    0    0    0  501 -0.00000000000E+00  0.00000000000E+00  0.69685944695E+02  0.69697516369E+02  0.12700000000E+01 0.  1.
          4   -1    0    0  501    0  0.00000000000E+00 -0.00000000000E+00 -0.56029810712E+02  0.56044202095E+02  0.12700000000E+01 0.  1.
         25    2    1    2    0    0  0.00000000000E+00  0.00000000000E+00  0.13656133983E+02  0.12574171846E+03  0.12499795905E+03 0.  0.
    9000005    1    3    3    0    0 -0.33312859011E+02 -0.30578101039E+02  0.50216548660E+02  0.67583049635E+02  0.10000000000E+01 0.  0.
    9000005    1    3    3    0    0  0.33312859011E+02  0.30578101039E+02 -0.36560414677E+02  0.58158668829E+02  0.10000000000E+01 0.  0.
<mgrwt>
<rscale>  0 0.12499796E+03</rscale>
<asrwt>0</asrwt>
<pdfrwt beam="2">  1        4 0.86219681E-02 0.12499796E+03</pdfrwt>
<pdfrwt beam="1">  1       -4 0.10722912E-01 0.12499796E+03</pdfrwt>
<totfact> 0.10437107E+04</totfact>
</mgrwt>
</event>
<event>
 5    1  0.3289127E-002  0.1250019E+03  0.7818608E-02  0.1235066E+00
         -4   -1    0    0    0  501 -0.00000000000E+00  0.00000000000E+00  0.11762175388E+03  0.11762860998E+03  0.12700000000E+01 0.  1.
          4   -1    0    0  501    0  0.00000000000E+00 -0.00000000000E+00 -0.33191298566E+02  0.33215586710E+02  0.12700000000E+01 0.  1.
         25    2    1    2    0    0  0.00000000000E+00  0.00000000000E+00  0.84430455311E+02  0.15084419669E+03  0.12500187955E+03 0.  0.
    9000005    1    3    3    0    0 -0.34313869805E+02 -0.48768645448E+02  0.64776502222E+02  0.88050086201E+02  0.10000000000E+01 0.  0.
    9000005    1    3    3    0    0  0.34313869805E+02  0.48768645448E+02  0.19653953089E+02  0.62794110487E+02  0.10000000000E+01 0.  0.
<mgrwt>
<rscale>  0 0.12500188E+03</rscale>
<asrwt>0</asrwt>
<pdfrwt beam="2">  1        4 0.51087493E-02 0.12500188E+03</pdfrwt>
<pdfrwt beam="1">  1       -4 0.18098050E-01 0.12500188E+03</pdfrwt>
<totfact> 0.99131492E+03</totfact>
</mgrwt>
</event>
<event>
 5    1  0.3289127E-002  0.1249974E+03  0.7818608E-02  0.1235073E+00
          4   -1    0    0  501    0  0.00000000000E+00  0.00000000000E+00  0.14111971247E+02  0.14169002523E+02  0.12700000000E+01 0.  1.
         -4   -1    0    0    0  501 -0.00000000000E+00 -0.00000000000E+00 -0.27617568651E+03  0.27617860656E+03  0.12700000000E+01 0.  1.
         25    2    1    2    0    0  0.00000000000E+00  0.00000000000E+00 -0.26206371527E+03  0.29034760908E+03  0.12499737293E+03 0.  0.
    9000005    1    3    3    0    0 -0.42397057145E+02  0.30209298383E+02 -0.21132834228E+03  0.21764829522E+03  0.10000000000E+01 0.  0.
    9000005    1    3    3    0    0  0.42397057145E+02 -0.30209298383E+02 -0.50735372985E+02  0.72699313857E+02  0.10000000000E+01 0.  0.
<mgrwt>
<rscale>  0 0.12499737E+03</rscale>
<asrwt>0</asrwt>
<pdfrwt beam="1">  1        4 0.21756843E-02 0.12499737E+03</pdfrwt>
<pdfrwt beam="2">  1       -4 0.42493175E-01 0.12499737E+03</pdfrwt>
<totfact> 0.76830277E+03</totfact>
</mgrwt>
</event>
<event>
 5    1  0.3289127E-002  0.1249990E+03  0.7818608E-02  0.1235071E+00
          4   -1    0    0  501    0  0.00000000000E+00  0.00000000000E+00  0.26845891958E+02  0.26875915147E+02  0.12700000000E+01 0.  1.
         -4   -1    0    0    0  501 -0.00000000000E+00 -0.00000000000E+00 -0.14539001414E+03  0.14539556084E+03  0.12700000000E+01 0.  1.
         25    2    1    2    0    0  0.00000000000E+00  0.00000000000E+00 -0.11854412218E+03  0.17227147599E+03  0.12499901013E+03 0.  0.
    9000005    1    3    3    0    0  0.46492970967E+02  0.11321564665E+02 -0.38798480717E+01  0.48019031611E+02  0.10000000000E+01 0.  0.
    9000005    1    3    3    0    0 -0.46492970967E+02 -0.11321564665E+02 -0.11466427411E+03  0.12425244438E+03  0.10000000000E+01 0.  0.
<mgrwt>
<rscale>  0 0.12499901E+03</rscale>
<asrwt>0</asrwt>
<pdfrwt beam="1">  1        4 0.41328735E-02 0.12499901E+03</pdfrwt>
<pdfrwt beam="2">  1       -4 0.22370430E-01 0.12499901E+03</pdfrwt>
<totfact> 0.95029063E+03</totfact>
</mgrwt>
</event>
<event>
 5    1  0.3289127E-002  0.1250004E+03  0.7818608E-02  0.1235069E+00
          4   -1    0    0  501    0  0.00000000000E+00  0.00000000000E+00  0.88592519954E+01  0.89498182058E+01  0.12700000000E+01 0.  1.
         -4   -1    0    0    0  501 -0.00000000000E+00 -0.00000000000E+00 -0.43859195065E+03  0.43859378937E+03  0.12700000000E+01 0.  1.
         25    2    1    2    0    0  0.00000000000E+00  0.00000000000E+00 -0.42973269866E+03  0.44754360758E+03  0.12500035356E+03 0.  0.
    9000005    1    3    3    0    0  0.66020445222E+01  0.61441934974E+00 -0.43734652385E+03  0.43739792687E+03  0.10000000000E+01 0.  0.
    9000005    1    3    3    0    0 -0.66020445222E+01 -0.61441934974E+00  0.76138251946E+01  0.10145680712E+02  0.10000000000E+01 0.  0.
<mgrwt>
<rscale>  0 0.12500035E+03</rscale>
<asrwt>0</asrwt>
<pdfrwt beam="1">  1        4 0.13700703E-02 0.12500035E+03</pdfrwt>
<pdfrwt beam="2">  1       -4 0.67482776E-01 0.12500035E+03</pdfrwt>
<totfact> 0.60176723E+03</totfact>
</mgrwt>
</event>
<event>
 5    1  0.3289127E-002  0.1249985E+03  0.7818608E-02  0.1235072E+00
         -4   -1    0    0    0  501 -0.00000000000E+00  0.00000000000E+00  0.73963895903E+02  0.73974798392E+02  0.12700000000E+01 0.  1.
          4   -1    0    0  501    0  0.00000000000E+00 -0.00000000000E+00 -0.52789199706E+02  0.52804474295E+02  0.12700000000E+01 0.  1.
         25    2    1    2    0    0  0.00000000000E+00  0.00000000000E+00  0.21174696197E+02  0.12677927269E+03  0.12499846489E+03 0.  0.
    9000005    1    3    3    0    0  0.21965646274E+01  0.51791388984E+02 -0.24809440868E+02  0.57477658488E+02  0.10000000000E+01 0.  0.
    9000005    1    3    3    0    0 -0.21965646274E+01 -0.51791388984E+02  0.45984137065E+02  0.69301614200E+02  0.10000000000E+01 0.  0.
<mgrwt>
<rscale>  0 0.12499846E+03</rscale>
<asrwt>0</asrwt>
<pdfrwt beam="2">  1        4 0.81234289E-02 0.12499846E+03</pdfrwt>
<pdfrwt beam="1">  1       -4 0.11381075E-01 0.12499846E+03</pdfrwt>
<totfact> 0.10414306E+04</totfact>
</mgrwt>
</event>
<event>
 5    1  0.3289127E-002  0.1250034E+03  0.7818608E-02  0.1235064E+00
         -4   -1    0    0    0  501 -0.00000000000E+00  0.00000000000E+00  0.62716335038E+02  0.62729192412E+02  0.12700000000E+01 0.  1.
          4   -1    0    0  501    0  0.00000000000E+00 -0.00000000000E+00 -0.62262087978E+02  0.62275039135E+02  0.12700000000E+01 0.  1.
         25    2    1    2    0    0  0.00000000000E+00  0.00000000000E+00  0.45424706065E+00  0.12500423155E+03  0.12500340621E+03 0.  0.
    9000005    1    3    3    0    0 -0.24957271607E+02  0.54603547648E+02  0.17578032576E+02  0.62565166435E+02  0.10000000000E+01 0.  0.
    9000005    1    3    3    0    0  0.24957271607E+02 -0.54603547648E+02 -0.17123785515E+02  0.62439065113E+02  0.10000000000E+01 0.  0.
<mgrwt>
<rscale>  0 0.12500341E+03</rscale>
<asrwt>0</asrwt>
<pdfrwt beam="2">  1        4 0.95807681E-02 0.12500341E+03</pdfrwt>
<pdfrwt beam="1">  1       -4 0.96506522E-02 0.12500341E+03</pdfrwt>
<totfact> 0.10451966E+04</totfact>
</mgrwt>
</event>
<event>
 5    1  0.3289127E-002  0.1250007E+03  0.7818608E-02  0.1235068E+00
          4   -1    0    0  501    0  0.00000000000E+00  0.00000000000E+00  0.14810238935E+02  0.14864591394E+02  0.12700000000E+01 0. -1.
         -4   -1    0    0    0  501 -0.00000000000E+00 -0.00000000000E+00 -0.26321715788E+03  0.26322022168E+03  0.12700000000E+01 0. -1.
         25    2    1    2    0    0  0.00000000000E+00  0.00000000000E+00 -0.24840691894E+03  0.27808481308E+03  0.12500066353E+03 0.  0.
    9000005    1    3    3    0    0 -0.40840850438E+02  0.32886773843E+02 -0.19983481523E+03  0.20660219828E+03  0.10000000000E+01 0.  0.
    9000005    1    3    3    0    0  0.40840850438E+02 -0.32886773843E+02 -0.48572103719E+02  0.71482614795E+02  0.10000000000E+01 0.  0.
<mgrwt>
<rscale>  0 0.12500066E+03</rscale>
<asrwt>0</asrwt>
<pdfrwt beam="1">  1        4 0.22829151E-02 0.12500066E+03</pdfrwt>
<pdfrwt beam="2">  1       -4 0.40499361E-01 0.12500066E+03</pdfrwt>
<totfact> 0.78431577E+03</totfact>
</mgrwt>
</event>
<event>
 4    1  0.3289127E-002  0.1248132E+03  0.7818608E-02  0.1235361E+00
          4   -1    0    0  501    0  0.00000000000E+00  0.00000000000E+00  0.87561323441E+03  0.87561415542E+03  0.12700000000E+01 0. -1.
         -4   -1    0    0    0  501 -0.00000000000E+00 -0.00000000000E+00 -0.43562380317E+01  0.45375885433E+01  0.12700000000E+01 0. -1.
    9000005    1    1    2    0    0  0.19823996214E+02 -0.26624742377E+02  0.80821976721E+03  0.80890176155E+03  0.10000000000E+01 0.  0.
    9000005    1    1    2    0    0 -0.19823996214E+02  0.26624742377E+02  0.63037229165E+02  0.71249982409E+02  0.10000000000E+01 0.  0.
<mgrwt>
<rscale>  0 0.12481322E+03</rscale>
<asrwt>0</asrwt>
<pdfrwt beam="1">  1        4 0.13472368E+00 0.12481322E+03</pdfrwt>
<pdfrwt beam="2">  1       -4 0.68421172E-03 0.12481322E+03</pdfrwt>
<totfact> 0.35067048E+03</totfact>
</mgrwt>
</event>
<event>
 5    1  0.3289127E-002  0.1250003E+03  0.7818608E-02  0.1235069E+00
          4   -1    0    0  501    0  0.00000000000E+00  0.00000000000E+00  0.12934903936E+03  0.12935527390E+03  0.12700000000E+01 0.  1.
         -4   -1    0    0    0  501 -0.00000000000E+00 -0.00000000000E+00 -0.30179118379E+02  0.30205828678E+02  0.12700000000E+01 0.  1.
         25    2    1    2    0    0  0.00000000000E+00  0.00000000000E+00  0.99169920985E+02  0.15956110257E+03  0.12500028890E+03 0.  0.
    9000005    1    3    3    0    0 -0.46313386549E+02  0.40989842094E+02  0.38155518996E+02  0.72676960300E+02  0.10000000000E+01 0.  0.
    9000005    1    3    3    0    0  0.46313386549E+02 -0.40989842094E+02  0.61014401989E+02  0.86884142274E+02  0.10000000000E+01 0.  0.
<mgrwt>
<rscale>  0 0.12500029E+03</rscale>
<asrwt>0</asrwt>
<pdfrwt beam="1">  1        4 0.19902387E-01 0.12500029E+03</pdfrwt>
<pdfrwt beam="2">  1       -4 0.46454755E-02 0.12500029E+03</pdfrwt>
<totfact> 0.97426835E+03</totfact>
</mgrwt>
</event>
<event>
 5    1  0.3289127E-002  0.1250009E+03  0.7818608E-02  0.1235068E+00
          4   -1    0    0  501    0  0.00000000000E+00  0.00000000000E+00  0.58568358420E+02  0.58582126183E+02  0.12700000000E+01 0. -1.
         -4   -1    0    0    0  501 -0.00000000000E+00 -0.00000000000E+00 -0.66668908917E+02  0.66681004163E+02  0.12700000000E+01 0. -1.
         25    2    1    2    0    0  0.00000000000E+00  0.00000000000E+00 -0.81005504968E+01  0.12526313035E+03  0.12500093162E+03 0.  0.
    9000005    1    3    3    0    0  0.44744877495E+02 -0.18980738796E+01  0.39625564158E+02  0.59807124002E+02  0.10000000000E+01 0.  0.
    9000005    1    3    3    0    0 -0.44744877495E+02  0.18980738796E+01 -0.47726114655E+02  0.65456006344E+02  0.10000000000E+01 0.  0.
<mgrwt>
<rscale>  0 0.12500093E+03</rscale>
<asrwt>0</asrwt>
<pdfrwt beam="1">  1        4 0.90125062E-02 0.12500093E+03</pdfrwt>
<pdfrwt beam="2">  1       -4 0.10258745E-01 0.12500093E+03</pdfrwt>
<totfact> 0.10446930E+04</totfact>
</mgrwt>
</event>
<event>
 5    1  0.3289127E-002  0.1250012E+03  0.7818608E-02  0.1235067E+00
         -4   -1    0    0    0  501 -0.00000000000E+00  0.00000000000E+00  0.33783941506E+02  0.33807803887E+02  0.12700000000E+01 0.  1.
          4   -1    0    0  501    0  0.00000000000E+00 -0.00000000000E+00 -0.11555847355E+03  0.11556545206E+03  0.12700000000E+01 0.  1.
         25    2    1    2    0    0  0.00000000000E+00  0.00000000000E+00 -0.81774532045E+02  0.14937325595E+03  0.12500118200E+03 0.  0.
    9000005    1    3    3    0    0  0.65924495830E+01  0.52670094649E+00 -0.11514498208E+03  0.11533908575E+03  0.10000000000E+01 0.  0.
    9000005    1    3    3    0    0 -0.65924495830E+01 -0.52670094649E+00  0.33370450030E+02  0.34034170192E+02  0.10000000000E+01 0.  0.
<mgrwt>
<rscale>  0 0.12500118E+03</rscale>
<asrwt>0</asrwt>
<pdfrwt beam="2">  1        4 0.17780599E-01 0.12500118E+03</pdfrwt>
<pdfrwt beam="1">  1       -4 0.51999019E-02 0.12500118E+03</pdfrwt>
<totfact> 0.99426132E+03</totfact>
</mgrwt>
</event>
<event>
 5    1  0.3289127E-002  0.1250018E+03  0.7818608E-02  0.1235066E+00
         -4   -1    0    0    0  501 -0.00000000000E+00  0.00000000000E+00  0.12115907047E+03  0.12116572641E+03  0.12700000000E+01 0. -1.
          4   -1    0    0  501    0  0.00000000000E+00 -0.00000000000E+00 -0.32221572177E+02  0.32246590727E+02  0.12700000000E+01 0. -1.
         25    2    1    2    0    0  0.00000000000E+00  0.00000000000E+00  0.88937498289E+02  0.15341231714E+03  0.12500184177E+03 0.  0.
    9000005    1    3    3    0    0 -0.11086224803E+02 -0.13480805334E+02 -0.29175529556E+02  0.34012468562E+02  0.10000000000E+01 0.  0.
    9000005    1    3    3    0    0  0.11086224803E+02  0.13480805334E+02  0.11811302784E+03  0.11939984857E+03  0.10000000000E+01 0.  0.
<mgrwt>
<rscale>  0 0.12500184E+03</rscale>
<asrwt>0</asrwt>
<pdfrwt beam="2">  1        4 0.49596014E-02 0.12500184E+03</pdfrwt>
<pdfrwt beam="1">  1       -4 0.18642294E-01 0.12500184E+03</pdfrwt>
<totfact> 0.98623714E+03</totfact>
</mgrwt>
</event>
<event>
 5    1  0.3289127E-002  0.1249905E+03  0.7818608E-02  0.1235084E+00
          4   -1    0    0  501    0  0.00000000000E+00  0.00000000000E+00  0.15421809191E+03  0.15422332110E+03  0.12700000000E+01 0.  1.
         -4   -1    0    0    0  501 -0.00000000000E+00 -0.00000000000E+00 -0.25303971874E+02  0.25335822320E+02  0.12700000000E+01 0.  1.
         25    2    1    2    0    0  0.00000000000E+00  0.00000000000E+00  0.12891412004E+03  0.17955914342E+03  0.12499054221E+03 0.  0.
    9000005    1    3    3    0    0  0.40375612500E+02 -0.43436980657E+02  0.36170711106E+02  0.69471445323E+02  0.10000000000E+01 0.  0.
    9000005    1    3    3    0    0 -0.40375612500E+02  0.43436980657E+02  0.92743408930E+02  0.11008769810E+03  0.10000000000E+01 0.  0.
<mgrwt>
<rscale>  0 0.12499054E+03</rscale>
<asrwt>0</asrwt>
<pdfrwt beam="1">  1        4 0.23728713E-01 0.12499054E+03</pdfrwt>
<pdfrwt beam="2">  1       -4 0.38957710E-02 0.12499054E+03</pdfrwt>
<totfact> 0.93716291E+03</totfact>
</mgrwt>
</event>
<event>
 5    1  0.3289127E-002  0.1250021E+03  0.7818608E-02  0.1235066E+00
         -4   -1    0    0    0  501 -0.00000000000E+00  0.00000000000E+00  0.24145393611E+02  0.24178770288E+02  0.12700000000E+01 0.  1.
          4   -1    0    0  501    0  0.00000000000E+00 -0.00000000000E+00 -0.16163814108E+03  0.16164313024E+03  0.12700000000E+01 0.  1.
         25    2    1    2    0    0  0.00000000000E+00  0.00000000000E+00 -0.13749274747E+03  0.18582190052E+03  0.12500209241E+03 0.  0.
    9000005    1    3    3    0    0  0.49940685274E+02 -0.37494910967E+02 -0.72213697085E+02  0.95476481087E+02  0.10000000000E+01 0.  0.
    9000005    1    3    3    0    0 -0.49940685274E+02  0.37494910967E+02 -0.65279050387E+02  0.90345419438E+02  0.10000000000E+01 0.  0.
<mgrwt>
<rscale>  0 0.12500209E+03</rscale>
<asrwt>0</asrwt>
<pdfrwt beam="2">  1        4 0.24870357E-01 0.12500209E+03</pdfrwt>
<pdfrwt beam="1">  1       -4 0.37176273E-02 0.12500209E+03</pdfrwt>
<totfact> 0.92575075E+03</totfact>
</mgrwt>
</event>
<event>
 5    1  0.3289127E-002  0.1249651E+03  0.7818608E-02  0.1235124E+00
          4   -1    0    0  501    0  0.00000000000E+00  0.00000000000E+00  0.28728268597E+03  0.28728549312E+03  0.12700000000E+01 0.  1.
         -4   -1    0    0    0  501 -0.00000000000E+00 -0.00000000000E+00 -0.13557100894E+02  0.13616456391E+02  0.12700000000E+01 0.  1.
         25    2    1    2    0    0  0.00000000000E+00  0.00000000000E+00  0.27372558508E+03  0.30090194951E+03  0.12496514432E+03 0.  0.
    9000005    1    3    3    0    0 -0.35264415670E+02  0.10238020799E+02  0.25856655327E+03  0.26116289658E+03  0.10000000000E+01 0.  0.
    9000005    1    3    3    0    0  0.35264415670E+02 -0.10238020799E+02  0.15159031808E+02  0.39739052930E+02  0.10000000000E+01 0.  0.
<mgrwt>
<rscale>  0 0.12496514E+03</rscale>
<asrwt>0</asrwt>
<pdfrwt beam="1">  1        4 0.44202117E-01 0.12496514E+03</pdfrwt>
<pdfrwt beam="2">  1       -4 0.20904896E-02 0.12496514E+03</pdfrwt>
<totfact> 0.75544273E+03</totfact>
</mgrwt>
</event>
<event>
 5    1  0.3289127E-002  0.1250004E+03  0.7818608E-02  0.1235069E+00
          4   -1    0    0  501    0  0.00000000000E+00  0.00000000000E+00  0.71159873369E+03  0.71159986698E+03  0.12700000000E+01 0. -1.
         -4   -1    0    0    0  501 -0.00000000000E+00 -0.00000000000E+00 -0.54148297920E+01  0.55617696533E+01  0.12700000000E+01 0. -1.
         25    2    1    2    0    0  0.00000000000E+00  0.00000000000E+00  0.70618390390E+03  0.71716163664E+03  0.12500042775E+03 0.  0.
    9000005    1    3    3    0    0  0.48940030212E+02 -0.18893463165E+02  0.54792178669E+03  0.55042835486E+03  0.10000000000E+01 0.  0.
    9000005    1    3    3    0    0 -0.48940030212E+02  0.18893463165E+02  0.15826211721E+03  0.16673328177E+03  0.10000000000E+01 0.  0.
<mgrwt>
<rscale>  0 0.12500043E+03</rscale>
<asrwt>0</asrwt>
<pdfrwt beam="1">  1        4 0.10948818E+00 0.12500043E+03</pdfrwt>
<pdfrwt beam="2">  1       -4 0.84444053E-03 0.12500043E+03</pdfrwt>
<totfact> 0.42195686E+03</totfact>
</mgrwt>
</event>
<event>
 5    1  0.3289127E-002  0.1250029E+03  0.7818608E-02  0.1235065E+00
         -4   -1    0    0    0  501 -0.00000000000E+00  0.00000000000E+00  0.82394639155E+02  0.82404426225E+02  0.12700000000E+01 0.  1.
          4   -1    0    0  501    0  0.00000000000E+00 -0.00000000000E+00 -0.47390113885E+02  0.47407128093E+02  0.12700000000E+01 0.  1.
         25    2    1    2    0    0  0.00000000000E+00  0.00000000000E+00  0.35004525270E+02  0.12981155432E+03  0.12500289135E+03 0.  0.
    9000005    1    3    3    0    0 -0.21235359584E+02 -0.54370137553E+02 -0.56809105012E+01  0.58654284570E+02  0.10000000000E+01 0.  0.
    9000005    1    3    3    0    0  0.21235359584E+02  0.54370137553E+02  0.40685435771E+02  0.71157269749E+02  0.10000000000E+01 0.  0.
<mgrwt>
<rscale>  0 0.12500289E+03</rscale>
<asrwt>0</asrwt>
<pdfrwt beam="2">  1        4 0.72928484E-02 0.12500289E+03</pdfrwt>
<pdfrwt beam="1">  1       -4 0.12678160E-01 0.12500289E+03</pdfrwt>
<totfact> 0.10347865E+04</totfact>
</mgrwt>
</event>
<event>
 5    1  0.3289127E-002  0.1250017E+03  0.7818608E-02  0.1235067E+00
          4   -1    0    0  501    0  0.00000000000E+00  0.00000000000E+00  0.44356232869E+02  0.44374410354E+02  0.12700000000E+01 0.  1.
         -4   -1    0    0    0  501 -0.00000000000E+00 -0.00000000000E+00 -0.88026971553E+02  0.88036132473E+02  0.12700000000E+01 0.  1.
         25    2    1    2    0    0  0.00000000000E+00  0.00000000000E+00 -0.43670738684E+02  0.13241054283E+03  0.12500167373E+03 0.  0.
    9000005    1    3    3    0    0  0.23336300767E+02 -0.45657492016E+01 -0.83052805192E+02  0.86395586980E+02  0.10000000000E+01 0.  0.
    9000005    1    3    3    0    0 -0.23336300767E+02  0.45657492016E+01  0.39382066508E+02  0.46014955848E+02  0.10000000000E+01 0.  0.
<mgrwt>
<rscale>  0 0.12500167E+03</rscale>
<asrwt>0</asrwt>
<pdfrwt beam="1">  1        4 0.68261388E-02 0.12500167E+03</pdfrwt>
<pdfrwt beam="2">  1       -4 0.13544714E-01 0.12500167E+03</pdfrwt>
<totfact> 0.10292555E+04</totfact>
</mgrwt>
</event>
<event>
 5    1  0.3289127E-002  0.1249409E+03  0.7818608E-02  0.1235162E+00
         -4   -1    0    0    0  501 -0.00000000000E+00  0.00000000000E+00  0.52399123218E+02  0.52414511483E+02  0.12700000000E+01 0.  1.
          4   -1    0    0  501    0  0.00000000000E+00 -0.00000000000E+00 -0.74445841197E+02  0.74456673116E+02  0.12700000000E+01 0.  1.
         25    2    1    2    0    0  0.00000000000E+00  0.00000000000E+00 -0.22046717979E+02  0.12687118460E+03  0.12494094488E+03 0.  0.
    9000005    1    3    3    0    0 -0.45400950372E+02 -0.40459062306E+02 -0.25504743945E+02  0.65952058202E+02  0.10000000000E+01 0.  0.
    9000005    1    3    3    0    0  0.45400950372E+02  0.40459062306E+02  0.34580259660E+01  0.60919126397E+02  0.10000000000E+01 0.  0.
<mgrwt>
<rscale>  0 0.12494094E+03</rscale>
<asrwt>0</asrwt>
<pdfrwt beam="2">  1        4 0.11455223E-01 0.12494094E+03</pdfrwt>
<pdfrwt beam="1">  1       -4 0.80634205E-02 0.12494094E+03</pdfrwt>
<totfact> 0.10425837E+04</totfact>
</mgrwt>
</event>
<event>
 5    1  0.3289127E-002  0.1250143E+03  0.7818608E-02  0.1235047E+00
          4   -1    0    0  501    0  0.00000000000E+00  0.00000000000E+00  0.61411471235E+02  0.61424601743E+02  0.12700000000E+01 0.  1.
         -4   -1    0    0    0  501 -0.00000000000E+00 -0.00000000000E+00 -0.63596082664E+02  0.63608762213E+02  0.12700000000E+01 0.  1.
         25    2    1    2    0    0  0.00000000000E+00  0.00000000000E+00 -0.21846114290E+01  0.12503336396E+03  0.12501427748E+03 0.  0.
    9000005    1    3    3    0    0  0.46676206704E+02  0.38045047526E+02 -0.17829509759E+02  0.62809118221E+02  0.10000000000E+01 0.  0.
    9000005    1    3    3    0    0 -0.46676206704E+02 -0.38045047526E+02  0.15644898330E+02  0.62224245735E+02  0.10000000000E+01 0.  0.
<mgrwt>
<rscale>  0 0.12501428E+03</rscale>
<asrwt>0</asrwt>
<pdfrwt beam="1">  1        4 0.94499040E-02 0.12501428E+03</pdfrwt>
<pdfrwt beam="2">  1       -4 0.97859982E-02 0.12501428E+03</pdfrwt>
<totfact> 0.10448766E+04</totfact>
</mgrwt>
</event>
<event>
 5    1  0.3289127E-002  0.1250033E+03  0.7818608E-02  0.1235064E+00
         -4   -1    0    0    0  501 -0.00000000000E+00  0.00000000000E+00  0.76604189232E+02  0.76614716001E+02  0.12700000000E+01 0.  1.
          4   -1    0    0  501    0  0.00000000000E+00 -0.00000000000E+00 -0.50973381165E+02  0.50989199713E+02  0.12700000000E+01 0.  1.
         25    2    1    2    0    0  0.00000000000E+00  0.00000000000E+00  0.25630808067E+02  0.12760391571E+03  0.12500328389E+03 0.  0.
    9000005    1    3    3    0    0  0.52220907171E+02 -0.41866167881E-01  0.47857860164E+02  0.70840664015E+02  0.10000000000E+01 0.  0.
    9000005    1    3    3    0    0 -0.52220907171E+02  0.41866167881E-01 -0.22227052097E+02  0.56763251699E+02  0.10000000000E+01 0.  0.
<mgrwt>
<rscale>  0 0.12500328E+03</rscale>
<asrwt>0</asrwt>
<pdfrwt beam="2">  1        4 0.78440852E-02 0.12500328E+03</pdfrwt>
<pdfrwt beam="1">  1       -4 0.11787286E-01 0.12500328E+03</pdfrwt>
<totfact> 0.10395280E+04</totfact>
</mgrwt>
</event>
<event>
 5    1  0.3289127E-002  0.1249834E+03  0.7818608E-02  0.1235095E+00
          4   -1    0    0  501    0  0.00000000000E+00  0.00000000000E+00  0.17106707444E+04  0.17106712158E+04  0.12700000000E+01 0. -1.
         -4   -1    0    0    0  501 -0.00000000000E+00 -0.00000000000E+00 -0.21057141863E+01  0.24590510841E+01  0.12700000000E+01 0. -1.
         25    2    1    2    0    0  0.00000000000E+00  0.00000000000E+00  0.17085650302E+04  0.17131302669E+04  0.12498339460E+03 0.  0.
    9000005    1    3    3    0    0 -0.11180893847E+02  0.52134324552E+02  0.40776432282E+03  0.41123684556E+03  0.10000000000E+01 0.  0.
    9000005    1    3    3    0    0  0.11180893847E+02 -0.52134324552E+02  0.13008007074E+04  0.13018934213E+04  0.10000000000E+01 0.  0.
<mgrwt>
<rscale>  0 0.12498339E+03</rscale>
<asrwt>0</asrwt>
<pdfrwt beam="1">  1        4 0.26320760E+00 0.12498339E+03</pdfrwt>
<pdfrwt beam="2">  1       -4 0.35117170E-03 0.12498339E+03</pdfrwt>
<totfact> 0.14095117E+03</totfact>
</mgrwt>
</event>
<event>
 5    1  0.3289127E-002  0.1249946E+03  0.7818608E-02  0.1235078E+00
          4   -1    0    0  501    0  0.00000000000E+00  0.00000000000E+00  0.16937110683E+03  0.16937586820E+03  0.12700000000E+01 0. -1.
         -4   -1    0    0    0  501 -0.00000000000E+00 -0.00000000000E+00 -0.23038682844E+02  0.23073660464E+02  0.12700000000E+01 0. -1.
         25    2    1    2    0    0  0.00000000000E+00  0.00000000000E+00  0.14633242398E+03  0.19244952866E+03  0.12499457098E+03 0.  0.
    9000005    1    3    3    0    0  0.53660009669E+02 -0.10839983777E+02  0.26771259742E+02  0.60947536736E+02  0.10000000000E+01 0.  0.
    9000005    1    3    3    0    0 -0.53660009669E+02  0.10839983777E+02  0.11956116424E+03  0.13150199193E+03  0.10000000000E+01 0.  0.
<mgrwt>
<rscale>  0 0.12499457E+03</rscale>
<asrwt>0</asrwt>
<pdfrwt beam="1">  1        4 0.26060150E-01 0.12499457E+03</pdfrwt>
<pdfrwt beam="2">  1       -4 0.35474696E-02 0.12499457E+03</pdfrwt>
<totfact> 0.91433959E+03</totfact>
</mgrwt>
</event>
<event>
 5    1  0.3289127E-002  0.1250037E+03  0.7818608E-02  0.1235064E+00
         -4   -1    0    0    0  501 -0.00000000000E+00  0.00000000000E+00  0.61124372075E+02  0.61137564243E+02  0.12700000000E+01 0. -1.
          4   -1    0    0  501    0  0.00000000000E+00 -0.00000000000E+00 -0.63883937728E+02  0.63896560155E+02  0.12700000000E+01 0. -1.
         25    2    1    2    0    0  0.00000000000E+00  0.00000000000E+00 -0.27595656529E+01  0.12503412440E+03  0.12500366819E+03 0.  0.
    9000005    1    3    3    0    0 -0.14567011857E+02  0.63056124804E+01  0.59079304206E+02  0.61182699913E+02  0.10000000000E+01 0.  0.
    9000005    1    3    3    0    0  0.14567011857E+02 -0.63056124804E+01 -0.61838869859E+02  0.63851424484E+02  0.10000000000E+01 0.  0.
<mgrwt>
<rscale>  0 0.12500367E+03</rscale>
<asrwt>0</asrwt>
<pdfrwt beam="2">  1        4 0.98302838E-02 0.12500367E+03</pdfrwt>
<pdfrwt beam="1">  1       -4 0.94057353E-02 0.12500367E+03</pdfrwt>
<totfact> 0.10451255E+04</totfact>
</mgrwt>
</event>
<event>
 5    1  0.3289127E-002  0.1249981E+03  0.7818608E-02  0.1235072E+00
         -4   -1    0    0    0  501 -0.00000000000E+00  0.00000000000E+00  0.72304568103E+02  0.72315720756E+02  0.12700000000E+01 0. -1.
          4   -1    0    0  501    0  0.00000000000E+00 -0.00000000000E+00 -0.54000515632E+02  0.54015447685E+02  0.12700000000E+01 0. -1.
         25    2    1    2    0    0  0.00000000000E+00  0.00000000000E+00  0.18304052470E+02  0.12633116844E+03  0.12499810312E+03 0.  0.
    9000005    1    3    3    0    0 -0.20436810307E+01 -0.59570684639E+02  0.28121541278E+02  0.65914066665E+02  0.10000000000E+01 0.  0.
    9000005    1    3    3    0    0  0.20436810307E+01  0.59570684639E+02 -0.98174888081E+01  0.60417101776E+02  0.10000000000E+01 0.  0.
<mgrwt>
<rscale>  0 0.12499810E+03</rscale>
<asrwt>0</asrwt>
<pdfrwt beam="2">  1        4 0.83097782E-02 0.12499810E+03</pdfrwt>
<pdfrwt beam="1">  1       -4 0.11125786E-01 0.12499810E+03</pdfrwt>
<totfact> 0.10424159E+04</totfact>
</mgrwt>
</event>
<event>
 5    1  0.3289127E-002  0.1249981E+03  0.7818608E-02  0.1235072E+00
          4   -1    0    0  501    0  0.00000000000E+00  0.00000000000E+00  0.61108776332E+01  0.62414521906E+01  0.12700000000E+01 0. -1.
         -4   -1    0    0    0  501 -0.00000000000E+00 -0.00000000000E+00 -0.63232086274E+03  0.63232213812E+03  0.12700000000E+01 0. -1.
         25    2    1    2    0    0  0.00000000000E+00  0.00000000000E+00 -0.62620998511E+03  0.63856359031E+03  0.12499805368E+03 0.  0.
    9000005    1    3    3    0    0 -0.18278089890E+02  0.47782857036E+02 -0.12977581933E+03  0.13949929490E+03  0.10000000000E+01 0.  0.
    9000005    1    3    3    0    0  0.18278089890E+02 -0.47782857036E+02 -0.49643416578E+03  0.49906429541E+03  0.10000000000E+01 0.  0.
<mgrwt>
<rscale>  0 0.12499805E+03</rscale>
<asrwt>0</asrwt>
<pdfrwt beam="1">  1        4 0.95027782E-03 0.12499805E+03</pdfrwt>
<pdfrwt beam="2">  1       -4 0.97290224E-01 0.12499805E+03</pdfrwt>
<totfact> 0.46522430E+03</totfact>
</mgrwt>
</event>
<event>
 5    1  0.3289127E-002  0.1250009E+03  0.7818608E-02  0.1235068E+00
         -4   -1    0    0    0  501 -0.00000000000E+00  0.00000000000E+00  0.83340282793E+02  0.83349958824E+02  0.12700000000E+01 0. -1.
          4   -1    0    0  501    0  0.00000000000E+00 -0.00000000000E+00 -0.46850734044E+02  0.46867944061E+02  0.12700000000E+01 0. -1.
         25    2    1    2    0    0  0.00000000000E+00  0.00000000000E+00  0.36489548748E+02  0.13021790288E+03  0.12500086025E+03 0.  0.
    9000005    1    3    3    0    0  0.91609016475E+01 -0.38815738605E+02 -0.31874749309E+02  0.51064501623E+02  0.10000000000E+01 0.  0.
    9000005    1    3    3    0    0 -0.91609016475E+01  0.38815738605E+02  0.68364298057E+02  0.79153401262E+02  0.10000000000E+01 0.  0.
<mgrwt>
<rscale>  0 0.12500086E+03</rscale>
<asrwt>0</asrwt>
<pdfrwt beam="2">  1        4 0.72098734E-02 0.12500086E+03</pdfrwt>
<pdfrwt beam="1">  1       -4 0.12823650E-01 0.12500086E+03</pdfrwt>
<totfact> 0.10339648E+04</totfact>
</mgrwt>
</event>
<event>
 5    1  0.3289127E-002  0.1249998E+03  0.7818608E-02  0.1235070E+00
         -4   -1    0    0    0  501 -0.00000000000E+00  0.00000000000E+00  0.17690246416E+02  0.17735775096E+02  0.12700000000E+01 0. -1.
          4   -1    0    0  501    0  0.00000000000E+00 -0.00000000000E+00 -0.22048203025E+03  0.22048568789E+03  0.12700000000E+01 0. -1.
         25    2    1    2    0    0  0.00000000000E+00  0.00000000000E+00 -0.20279178384E+03  0.23822146299E+03  0.12499983134E+03 0.  0.
    9000005    1    3    3    0    0  0.60023189289E+02 -0.56249590796E+01 -0.13275824598E+03  0.14580869416E+03  0.10000000000E+01 0.  0.
    9000005    1    3    3    0    0 -0.60023189289E+02  0.56249590796E+01 -0.70033537852E+02  0.92412768821E+02  0.10000000000E+01 0.  0.
<mgrwt>
<rscale>  0 0.12499983E+03</rscale>
<asrwt>0</asrwt>
<pdfrwt beam="2">  1        4 0.33924094E-01 0.12499983E+03</pdfrwt>
<pdfrwt beam="1">  1       -4 0.27253601E-02 0.12499983E+03</pdfrwt>
<totfact> 0.84063281E+03</totfact>
</mgrwt>
</event>
<event>
 5    1  0.3289127E-002  0.1250100E+03  0.7818608E-02  0.1235054E+00
          4   -1    0    0  501    0  0.00000000000E+00  0.00000000000E+00  0.54977181555E+01  0.56424998819E+01  0.12700000000E+01 0. -1.
         -4   -1    0    0    0  501 -0.00000000000E+00 -0.00000000000E+00 -0.70125528861E+03  0.70125643862E+03  0.12700000000E+01 0. -1.
         25    2    1    2    0    0  0.00000000000E+00  0.00000000000E+00 -0.69575757046E+03  0.70689893850E+03  0.12501004923E+03 0.  0.
    9000005    1    3    3    0    0  0.33161696630E+02 -0.18791441999E+02 -0.62794881529E+03  0.62910534176E+03  0.10000000000E+01 0.  0.
    9000005    1    3    3    0    0 -0.33161696630E+02  0.18791441999E+02 -0.67808755170E+02  0.77793596739E+02  0.10000000000E+01 0.  0.
<mgrwt>
<rscale>  0 0.12501005E+03</rscale>
<asrwt>0</asrwt>
<pdfrwt beam="1">  1        4 0.85702887E-03 0.12501005E+03</pdfrwt>
<pdfrwt beam="2">  1       -4 0.10789658E+00 0.12501005E+03</pdfrwt>
<totfact> 0.42715636E+03</totfact>
</mgrwt>
</event>
<event>
 5    1  0.3289127E-002  0.1250008E+03  0.7818608E-02  0.1235068E+00
          4   -1    0    0  501    0  0.00000000000E+00  0.00000000000E+00  0.39105720127E+01  0.41116266205E+01  0.12700000000E+01 0. -1.
         -4   -1    0    0    0  501 -0.00000000000E+00 -0.00000000000E+00 -0.97367159347E+03  0.97367242172E+03  0.12700000000E+01 0. -1.
         25    2    1    2    0    0  0.00000000000E+00  0.00000000000E+00 -0.96976102145E+03  0.97778404834E+03  0.12500082585E+03 0.  0.
    9000005    1    3    3    0    0  0.48726359075E+02  0.38400927521E+02 -0.54363174809E+03  0.54716118908E+03  0.10000000000E+01 0.  0.
    9000005    1    3    3    0    0 -0.48726359075E+02 -0.38400927521E+02 -0.42612927336E+03  0.43062285926E+03  0.10000000000E+01 0.  0.
<mgrwt>
<rscale>  0 0.12500083E+03</rscale>
<asrwt>0</asrwt>
<pdfrwt beam="1">  1        4 0.61715669E-03 0.12500083E+03</pdfrwt>
<pdfrwt beam="2">  1       -4 0.14981097E+00 0.12500083E+03</pdfrwt>
<totfact> 0.31349085E+03</totfact>
</mgrwt>
</event>
<event>
 5    1  0.3289127E-002  0.1250023E+03  0.7818608E-02  0.1235066E+00
         -4   -1    0    0    0  501 -0.00000000000E+00  0.00000000000E+00  0.19534644226E+03  0.19535057053E+03  0.12700000000E+01 0. -1.
          4   -1    0    0  501    0  0.00000000000E+00 -0.00000000000E+00 -0.19972762919E+02  0.20013099675E+02  0.12700000000E+01 0. -1.
         25    2    1    2    0    0  0.00000000000E+00  0.00000000000E+00  0.17537367934E+03  0.21536367020E+03  0.12500233212E+03 0.  0.
    9000005    1    3    3    0    0  0.45001024106E+02 -0.37226817323E+02  0.49375858509E+02  0.76484661875E+02  0.10000000000E+01 0.  0.
    9000005    1    3    3    0    0 -0.45001024106E+02  0.37226817323E+02  0.12599782083E+03  0.13887900833E+03  0.10000000000E+01 0.  0.
<mgrwt>
<rscale>  0 0.12500233E+03</rscale>
<asrwt>0</asrwt>
<pdfrwt beam="2">  1        4 0.30761531E-02 0.12500233E+03</pdfrwt>
<pdfrwt beam="1">  1       -4 0.30056720E-01 0.12500233E+03</pdfrwt>
<totfact> 0.87602780E+03</totfact>
</mgrwt>
</event>
<event>
 5    1  0.3289127E-002  0.1250008E+03  0.7818608E-02  0.1235068E+00
          4   -1    0    0  501    0  0.00000000000E+00  0.00000000000E+00  0.42715870701E+03  0.42716059494E+03  0.12700000000E+01 0.  1.
         -4   -1    0    0    0  501 -0.00000000000E+00 -0.00000000000E+00 -0.90988322868E+01  0.91870370079E+01  0.12700000000E+01 0.  1.
         25    2    1    2    0    0  0.00000000000E+00  0.00000000000E+00  0.41805987472E+03  0.43634763195E+03  0.12500078823E+03 0.  0.
    9000005    1    3    3    0    0  0.41833128289E+02  0.46369531376E+02  0.20110414457E+03  0.21058020093E+03  0.10000000000E+01 0.  0.
    9000005    1    3    3    0    0 -0.41833128289E+02 -0.46369531376E+02  0.21695573016E+03  0.22576743102E+03  0.10000000000E+01 0.  0.
<mgrwt>
<rscale>  0 0.12500079E+03</rscale>
<asrwt>0</asrwt>
<pdfrwt beam="1">  1        4 0.65723662E-01 0.12500079E+03</pdfrwt>
<pdfrwt beam="2">  1       -4 0.14067504E-02 0.12500079E+03</pdfrwt>
<totfact> 0.61163733E+03</totfact>
</mgrwt>
</event>
<event>
 5    1  0.3289127E-002  0.1249943E+03  0.7818608E-02  0.1235078E+00
          4   -1    0    0  501    0  0.00000000000E+00  0.00000000000E+00  0.82742387715E+02  0.82752133657E+02  0.12700000000E+01 0.  1.
         -4   -1    0    0    0  501 -0.00000000000E+00 -0.00000000000E+00 -0.47184402581E+02  0.47201490940E+02  0.12700000000E+01 0.  1.
         25    2    1    2    0    0  0.00000000000E+00  0.00000000000E+00  0.35557985134E+02  0.12995362460E+03  0.12499429683E+03 0.  0.
    9000005    1    3    3    0    0 -0.27956766329E+02 -0.55762620304E+02  0.13910760038E+02  0.63918384300E+02  0.10000000000E+01 0.  0.
    9000005    1    3    3    0    0  0.27956766329E+02  0.55762620304E+02  0.21647225096E+02  0.66035240297E+02  0.10000000000E+01 0.  0.
<mgrwt>
<rscale>  0 0.12499430E+03</rscale>
<asrwt>0</asrwt>
<pdfrwt beam="1">  1        4 0.12731662E-01 0.12499430E+03</pdfrwt>
<pdfrwt beam="2">  1       -4 0.72612031E-02 0.12499430E+03</pdfrwt>
<totfact> 0.10346832E+04</totfact>
</mgrwt>
</event>
<event>
 5    1  0.3289127E-002  0.1249991E+03  0.7818608E-02  0.1235071E+00
          4   -1    0    0  501    0  0.00000000000E+00  0.00000000000E+00  0.90534796211E+02  0.90543703398E+02  0.12700000000E+01 0.  1.
         -4   -1    0    0    0  501 -0.00000000000E+00 -0.00000000000E+00 -0.43125364954E+02  0.43144061033E+02  0.12700000000E+01 0.  1.
         25    2    1    2    0    0  0.00000000000E+00  0.00000000000E+00  0.47409431256E+02  0.13368776443E+03  0.12499905674E+03 0.  0.
    9000005    1    3    3    0    0  0.15151562702E+02  0.35536500769E+02  0.76239098505E+02  0.85474047992E+02  0.10000000000E+01 0.  0.
    9000005    1    3    3    0    0 -0.15151562702E+02 -0.35536500769E+02 -0.28829667249E+02  0.48213716439E+02  0.10000000000E+01 0.  0.
<mgrwt>
<rscale>  0 0.12499906E+03</rscale>
<asrwt>0</asrwt>
<pdfrwt beam="1">  1        4 0.13930553E-01 0.12499906E+03</pdfrwt>
<pdfrwt beam="2">  1       -4 0.66367949E-02 0.12499906E+03</pdfrwt>
<totfact> 0.10266022E+04</totfact>
</mgrwt>
</event>
<event>
 4    1  0.3289127E-002  0.1249126E+03  0.7818608E-02  0.1235206E+00
         -4   -1    0    0    0  501 -0.00000000000E+00  0.00000000000E+00  0.27458458044E+03  0.27458751741E+03  0.12700000000E+01 0. -1.
          4   -1    0    0  501    0  0.00000000000E+00 -0.00000000000E+00 -0.14174743312E+02  0.14231523037E+02  0.12700000000E+01 0. -1.
    9000005    1    1    2    0    0  0.39736238778E+02 -0.13704688116E+02  0.23418702322E+02  0.48127152077E+02  0.10000000000E+01 0.  0.
    9000005    1    1    2    0    0 -0.39736238778E+02  0.13704688116E+02  0.23699113481E+03  0.24069188837E+03  0.10000000000E+01 0.  0.
<mgrwt>
<rscale>  0 0.12491259E+03</rscale>
<asrwt>0</asrwt>
<pdfrwt beam="2">  1        4 0.21853235E-02 0.12491259E+03</pdfrwt>
<pdfrwt beam="1">  1       -4 0.42248371E-01 0.12491259E+03</pdfrwt>
<totfact> 0.77172871E+03</totfact>
</mgrwt>
</event>
<event>
 5    1  0.3289127E-002  0.1249995E+03  0.7818608E-02  0.1235070E+00
          4   -1    0    0  501    0  0.00000000000E+00  0.00000000000E+00  0.14820002268E+03  0.14820546422E+03  0.12700000000E+01 0. -1.
         -4   -1    0    0    0  501 -0.00000000000E+00 -0.00000000000E+00 -0.26336508642E+02  0.26367111852E+02  0.12700000000E+01 0. -1.
         25    2    1    2    0    0  0.00000000000E+00  0.00000000000E+00  0.12186351404E+03  0.17457257607E+03  0.12499947304E+03 0.  0.
    9000005    1    3    3    0    0 -0.34954630084E+02 -0.35671329299E+01  0.13310524011E+03  0.13766828083E+03  0.10000000000E+01 0.  0.
    9000005    1    3    3    0    0  0.34954630084E+02  0.35671329299E+01 -0.11241726073E+02  0.36904295234E+02  0.10000000000E+01 0.  0.
<mgrwt>
<rscale>  0 0.12499947E+03</rscale>
<asrwt>0</asrwt>
<pdfrwt beam="1">  1        4 0.22802777E-01 0.12499947E+03</pdfrwt>
<pdfrwt beam="2">  1       -4 0.40545431E-02 0.12499947E+03</pdfrwt>
<totfact> 0.94604298E+03</totfact>
</mgrwt>
</event>
<event>
 5    1  0.3289127E-002  0.1249997E+03  0.7818608E-02  0.1235070E+00
          4   -1    0    0  501    0  0.00000000000E+00  0.00000000000E+00  0.18695484435E+04  0.18695488748E+04  0.12700000000E+01 0. -1.
         -4   -1    0    0    0  501 -0.00000000000E+00 -0.00000000000E+00 -0.18959413554E+01  0.22819933442E+01  0.12700000000E+01 0. -1.
         25    2    1    2    0    0  0.00000000000E+00  0.00000000000E+00  0.18676525021E+04  0.18718308682E+04  0.12499972159E+03 0.  0.
    9000005    1    3    3    0    0  0.28617802352E+02 -0.33624363199E+02  0.15960485679E+04  0.15966595152E+04  0.10000000000E+01 0.  0.
    9000005    1    3    3    0    0 -0.28617802352E+02  0.33624363199E+02  0.27160393417E+03  0.27517135293E+03  0.10000000000E+01 0.  0.
<mgrwt>
<rscale>  0 0.12499972E+03</rscale>
<asrwt>0</asrwt>
<pdfrwt beam="1">  1        4 0.28765308E+00 0.12499972E+03</pdfrwt>
<pdfrwt beam="2">  1       -4 0.32141220E-03 0.12499972E+03</pdfrwt>
<totfact> 0.11628371E+03</totfact>
</mgrwt>
</event>
<event>
 5    1  0.3289127E-002  0.1249991E+03  0.7818608E-02  0.1235071E+00
          4   -1    0    0  501    0  0.00000000000E+00  0.00000000000E+00  0.75518467462E+01  0.76578906547E+01  0.12700000000E+01 0. -1.
         -4   -1    0    0    0  501 -0.00000000000E+00 -0.00000000000E+00 -0.51353733960E+03  0.51353890998E+03  0.12700000000E+01 0. -1.
         25    2    1    2    0    0  0.00000000000E+00  0.00000000000E+00 -0.50598549285E+03  0.52119680063E+03  0.12499914405E+03 0.  0.
    9000005    1    3    3    0    0 -0.11725440515E+02  0.55175503210E+02 -0.14084868832E+03  0.15172730510E+03  0.10000000000E+01 0.  0.
    9000005    1    3    3    0    0  0.11725440515E+02 -0.55175503210E+02 -0.36513680453E+03  0.36946949554E+03  0.10000000000E+01 0.  0.
<mgrwt>
<rscale>  0 0.12499914E+03</rscale>
<asrwt>0</asrwt>
<pdfrwt beam="1">  1        4 0.11701010E-02 0.12499914E+03</pdfrwt>
<pdfrwt beam="2">  1       -4 0.79013995E-01 0.12499914E+03</pdfrwt>
<totfact> 0.54257494E+03</totfact>
</mgrwt>
</event>
<event>
 5    1  0.3289127E-002  0.1250021E+03  0.7818608E-02  0.1235066E+00
         -4   -1    0    0    0  501 -0.00000000000E+00  0.00000000000E+00  0.63240090438E+02  0.63252841348E+02  0.12700000000E+01 0. -1.
          4   -1    0    0  501    0  0.00000000000E+00 -0.00000000000E+00 -0.61745163809E+02  0.61758223370E+02  0.12700000000E+01 0. -1.
         25    2    1    2    0    0  0.00000000000E+00  0.00000000000E+00  0.14949266288E+01  0.12501106472E+03  0.12500212597E+03 0.  0.
    9000005    1    3    3    0    0  0.92552024914E+01 -0.42298132739E+02  0.45812776899E+02  0.63044439355E+02  0.10000000000E+01 0.  0.
    9000005    1    3    3    0    0 -0.92552024914E+01  0.42298132739E+02 -0.44317850271E+02  0.61966625364E+02  0.10000000000E+01 0.  0.
<mgrwt>
<rscale>  0 0.12500213E+03</rscale>
<asrwt>0</asrwt>
<pdfrwt beam="2">  1        4 0.95012413E-02 0.12500213E+03</pdfrwt>
<pdfrwt beam="1">  1       -4 0.97312302E-02 0.12500213E+03</pdfrwt>
<totfact> 0.10452120E+04</totfact>
</mgrwt>
</event>
<event>
 5    1  0.3289127E-002  0.1250140E+03  0.7818608E-02  0.1235047E+00
          4   -1    0    0  501    0  0.00000000000E+00  0.00000000000E+00  0.25225429899E+02  0.25257379389E+02  0.12700000000E+01 0.  1.
         -4   -1    0    0    0  501 -0.00000000000E+00 -0.00000000000E+00 -0.15475586946E+03  0.15476108049E+03  0.12700000000E+01 0.  1.
         25    2    1    2    0    0  0.00000000000E+00  0.00000000000E+00 -0.12953043956E+03  0.18001845988E+03  0.12501404370E+03 0.  0.
    9000005    1    3    3    0    0  0.91855543235E+01 -0.52256629212E+02 -0.11232832836E+03  0.12423277771E+03  0.10000000000E+01 0.  0.
    9000005    1    3    3    0    0 -0.91855543235E+01  0.52256629212E+02 -0.17202111201E+02  0.55785682165E+02  0.10000000000E+01 0.  0.
<mgrwt>
<rscale>  0 0.12501404E+03</rscale>
<asrwt>0</asrwt>
<pdfrwt beam="1">  1        4 0.38836939E-02 0.12501404E+03</pdfrwt>
<pdfrwt beam="2">  1       -4 0.23811453E-01 0.12501404E+03</pdfrwt>
<totfact> 0.93584209E+03</totfact>
</mgrwt>
</event>
<event>
 5    1  0.3289127E-002  0.1249747E+03  0.7818608E-02  0.1235109E+00
         -4   -1    0    0    0  501 -0.00000000000E+00  0.00000000000E+00  0.16594443629E+03  0.16594929597E+03  0.12700000000E+01 0. -1.
          4   -1    0    0  501    0  0.00000000000E+00 -0.00000000000E+00 -0.23507639060E+02  0.23541919934E+02  0.12700000000E+01 0. -1.
         25    2    1    2    0    0  0.00000000000E+00  0.00000000000E+00  0.14243679722E+03  0.18949121591E+03  0.12497471625E+03 0.  0.
    9000005    1    3    3    0    0  0.38218543901E+02  0.41674301888E+02  0.11151337312E+03  0.12503454291E+03  0.10000000000E+01 0.  0.
    9000005    1    3    3    0    0 -0.38218543901E+02 -0.41674301888E+02  0.30923424105E+02  0.64456672999E+02  0.10000000000E+01 0.  0.
<mgrwt>
<rscale>  0 0.12497472E+03</rscale>
<asrwt>0</asrwt>
<pdfrwt beam="2">  1        4 0.36195706E-02 0.12497472E+03</pdfrwt>
<pdfrwt beam="1">  1       -4 0.25532924E-01 0.12497472E+03</pdfrwt>
<totfact> 0.91988006E+03</totfact>
</mgrwt>
</event>
<event>
 5    1  0.3289127E-002  0.1249991E+03  0.7818608E-02  0.1235071E+00
          4   -1    0    0  501    0  0.00000000000E+00  0.00000000000E+00  0.37091444399E+02  0.37113180241E+02  0.12700000000E+01 0. -1.
         -4   -1    0    0    0  501 -0.00000000000E+00 -0.00000000000E+00 -0.10525618287E+03  0.10526384438E+03  0.12700000000E+01 0. -1.
         25    2    1    2    0    0  0.00000000000E+00  0.00000000000E+00 -0.68164738475E+02  0.14237702462E+03  0.12499914227E+03 0.  0.
    9000005    1    3    3    0    0  0.30887230068E+02 -0.21413426917E+02  0.22784943812E+02  0.43962592031E+02  0.10000000000E+01 0.  0.
    9000005    1    3    3    0    0 -0.30887230068E+02  0.21413426917E+02 -0.90949682287E+02  0.98414432588E+02  0.10000000000E+01 0.  0.
<mgrwt>
<rscale>  0 0.12499914E+03</rscale>
<asrwt>0</asrwt>
<pdfrwt beam="1">  1        4 0.57086374E-02 0.12499914E+03</pdfrwt>
<pdfrwt beam="2">  1       -4 0.16195520E-01 0.12499914E+03</pdfrwt>
<totfact> 0.10084751E+04</totfact>
</mgrwt>
</event>
<event>
 5    1  0.3289127E-002  0.1249925E+03  0.7818608E-02  0.1235081E+00
         -4   -1    0    0    0  501 -0.00000000000E+00  0.00000000000E+00  0.15371990936E+03  0.15372515550E+03  0.12700000000E+01 0. -1.
          4   -1    0    0  501    0  0.00000000000E+00 -0.00000000000E+00 -0.25386857438E+02  0.25418604025E+02  0.12700000000E+01 0. -1.
         25    2    1    2    0    0  0.00000000000E+00  0.00000000000E+00  0.12833305192E+03  0.17914375953E+03  0.12499245722E+03 0.  0.
    9000005    1    3    3    0    0 -0.45830055502E+02  0.24786158090E+02  0.11360863752E+03  0.12499068021E+03  0.10000000000E+01 0.  0.
    9000005    1    3    3    0    0  0.45830055502E+02 -0.24786158090E+02  0.14724414406E+02  0.54153079319E+02  0.10000000000E+01 0.  0.
<mgrwt>
<rscale>  0 0.12499246E+03</rscale>
<asrwt>0</asrwt>
<pdfrwt beam="2">  1        4 0.39085160E-02 0.12499246E+03</pdfrwt>
<pdfrwt beam="1">  1       -4 0.23652062E-01 0.12499246E+03</pdfrwt>
<totfact> 0.93787219E+03</totfact>
</mgrwt>
</event>
<event>
 5    1  0.3289127E-002  0.1249959E+03  0.7818608E-02  0.1235076E+00
          4   -1    0    0  501    0  0.00000000000E+00  0.00000000000E+00  0.88216613398E+03  0.88216704815E+03  0.12700000000E+01 0.  1.
         -4   -1    0    0    0  501 -0.00000000000E+00 -0.00000000000E+00 -0.43357237769E+01  0.45178978153E+01  0.12700000000E+01 0.  1.
         25    2    1    2    0    0  0.00000000000E+00  0.00000000000E+00  0.87783041020E+03  0.88668494596E+03  0.12499585723E+03 0.  0.
    9000005    1    3    3    0    0 -0.53549281324E+02 -0.23544282344E+02  0.59483697692E+03  0.59770719243E+03  0.10000000000E+01 0.  0.
    9000005    1    3    3    0    0  0.53549281324E+02  0.23544282344E+02  0.28299343328E+03  0.28897775354E+03  0.10000000000E+01 0.  0.
<mgrwt>
<rscale>  0 0.12499586E+03</rscale>
<asrwt>0</asrwt>
<pdfrwt beam="1">  1        4 0.13573186E+00 0.12499586E+03</pdfrwt>
<pdfrwt beam="2">  1       -4 0.68111856E-03 0.12499586E+03</pdfrwt>
<totfact> 0.34674457E+03</totfact>
</mgrwt>
</event>
<event>
 5    1  0.3289127E-002  0.1250017E+03  0.7818608E-02  0.1235067E+00
         -4   -1    0    0    0  501 -0.00000000000E+00  0.00000000000E+00  0.13000915686E+04  0.13000921889E+04  0.12700000000E+01 0.  1.
          4   -1    0    0  501    0  0.00000000000E+00 -0.00000000000E+00 -0.28698303450E+01  0.31382839593E+01  0.12700000000E+01 0.  1.
         25    2    1    2    0    0  0.00000000000E+00  0.00000000000E+00  0.12972217383E+04  0.13032304729E+04  0.12500170876E+03 0.  0.
    9000005    1    3    3    0    0  0.50980718524E+02  0.32725842000E+02  0.80855023434E+03  0.81081717782E+03  0.10000000000E+01 0.  0.
    9000005    1    3    3    0    0 -0.50980718524E+02 -0.32725842000E+02  0.48867150392E+03  0.49241329505E+03  0.10000000000E+01 0.  0.
<mgrwt>
<rscale>  0 0.12500171E+03</rscale>
<asrwt>0</asrwt>
<pdfrwt beam="2">  1        4 0.46220890E-03 0.12500171E+03</pdfrwt>
<pdfrwt beam="1">  1       -4 0.20003542E+00 0.12500171E+03</pdfrwt>
<totfact> 0.22151475E+03</totfact>
</mgrwt>
</event>
<event>
 5    1  0.3289127E-002  0.1249978E+03  0.7818608E-02  0.1235073E+00
          4   -1    0    0  501    0  0.00000000000E+00  0.00000000000E+00  0.97741724228E+02  0.97749974706E+02  0.12700000000E+01 0. -1.
         -4   -1    0    0    0  501 -0.00000000000E+00 -0.00000000000E+00 -0.39943579921E+02  0.39963764549E+02  0.12700000000E+01 0. -1.
         25    2    1    2    0    0  0.00000000000E+00  0.00000000000E+00  0.57798144307E+02  0.13771373926E+03  0.12499779396E+03 0.  0.
    9000005    1    3    3    0    0  0.11987290937E+02  0.55552913074E+02  0.57529006224E+02  0.80872788082E+02  0.10000000000E+01 0.  0.
    9000005    1    3    3    0    0 -0.11987290937E+02 -0.55552913074E+02  0.26913808242E+00  0.56840951173E+02  0.10000000000E+01 0.  0.
<mgrwt>
<rscale>  0 0.12499779E+03</rscale>
<asrwt>0</asrwt>
<pdfrwt beam="1">  1        4 0.15039376E-01 0.12499779E+03</pdfrwt>
<pdfrwt beam="2">  1       -4 0.61473535E-02 0.12499779E+03</pdfrwt>
<totfact> 0.10181690E+04</totfact>
</mgrwt>
</event>
<event>
 5    1  0.3289127E-002  0.1249996E+03  0.7818608E-02  0.1235070E+00
         -4   -1    0    0    0  501 -0.00000000000E+00  0.00000000000E+00  0.31315668913E+02  0.31341410617E+02  0.12700000000E+01 0.  1.
          4   -1    0    0  501    0  0.00000000000E+00 -0.00000000000E+00 -0.12465691860E+03  0.12466338779E+03  0.12700000000E+01 0.  1.
         25    2    1    2    0    0  0.00000000000E+00  0.00000000000E+00 -0.93341249685E+02  0.15600479840E+03  0.12499963293E+03 0.  0.
    9000005    1    3    3    0    0 -0.51439570691E+01 -0.46492495491E+02 -0.98388599434E+02  0.10894644983E+03  0.10000000000E+01 0.  0.
    9000005    1    3    3    0    0  0.51439570691E+01  0.46492495491E+02  0.50473497484E+01  0.47058348577E+02  0.10000000000E+01 0.  0.
<mgrwt>
<rscale>  0 0.12499963E+03</rscale>
<asrwt>0</asrwt>
<pdfrwt beam="2">  1        4 0.19180465E-01 0.12499963E+03</pdfrwt>
<pdfrwt beam="1">  1       -4 0.48202731E-02 0.12499963E+03</pdfrwt>
<totfact> 0.98119415E+03</totfact>
</mgrwt>
</event>
<event>
 5    1  0.3289127E-002  0.1250003E+03  0.7818608E-02  0.1235069E+00
          4   -1    0    0  501    0  0.00000000000E+00  0.00000000000E+00  0.24845963566E+02  0.24878400381E+02  0.12700000000E+01 0. -1.
         -4   -1    0    0    0  501 -0.00000000000E+00 -0.00000000000E+00 -0.15708179751E+03  0.15708693137E+03  0.12700000000E+01 0. -1.
         25    2    1    2    0    0  0.00000000000E+00  0.00000000000E+00 -0.13223583394E+03  0.18196533175E+03  0.12500026473E+03 0.  0.
    9000005    1    3    3    0    0 -0.79739488795E+01  0.59356874101E+02 -0.40140594828E+02  0.72104713555E+02  0.10000000000E+01 0.  0.
    9000005    1    3    3    0    0  0.79739488795E+01 -0.59356874101E+02 -0.92095239113E+02  0.10986061820E+03  0.10000000000E+01 0.  0.
<mgrwt>
<rscale>  0 0.12500026E+03</rscale>
<asrwt>0</asrwt>
<pdfrwt beam="1">  1        4 0.38253461E-02 0.12500026E+03</pdfrwt>
<pdfrwt beam="2">  1       -4 0.24169320E-01 0.12500026E+03</pdfrwt>
<totfact> 0.93263875E+03</totfact>
</mgrwt>
</event>
<event>
 4    1  0.3289127E-002  0.1249371E+03  0.7818608E-02  0.1235168E+00
          4   -1    0    0  501    0  0.00000000000E+00  0.00000000000E+00  0.31712276914E+02  0.31737696941E+02  0.12700000000E+01 0.  1.
         -4   -1    0    0    0  501 -0.00000000000E+00 -0.00000000000E+00 -0.12297598446E+03  0.12298254207E+03  0.12700000000E+01 0.  1.
    9000005    1    1    2    0    0  0.52314782490E+02 -0.23103336237E+01 -0.87794222990E+02  0.10223013107E+03  0.10000000000E+01 0.  0.
    9000005    1    1    2    0    0 -0.52314782490E+02  0.23103336237E+01 -0.34694845562E+01  0.52490107940E+02  0.10000000000E+01 0.  0.
<mgrwt>
<rscale>  0 0.12493714E+03</rscale>
<asrwt>0</asrwt>
<pdfrwt beam="1">  1        4 0.48812717E-02 0.12493714E+03</pdfrwt>
<pdfrwt beam="2">  1       -4 0.18921842E-01 0.12493714E+03</pdfrwt>
<totfact> 0.98509656E+03</totfact>
</mgrwt>
</event>
<event>
 5    1  0.3289127E-002  0.1250001E+03  0.7818608E-02  0.1235069E+00
         -4   -1    0    0    0  501 -0.00000000000E+00  0.00000000000E+00  0.41553576006E+01  0.43451003197E+01  0.12700000000E+01 0. -1.
          4   -1    0    0  501    0  0.00000000000E+00 -0.00000000000E+00 -0.91888001258E+03  0.91888089022E+03  0.12700000000E+01 0. -1.
         25    2    1    2    0    0  0.00000000000E+00  0.00000000000E+00 -0.91472465498E+03  0.92322599054E+03  0.12500014075E+03 0.  0.
    9000005    1    3    3    0    0  0.77350532026E+01  0.33303056176E+01 -0.18681395295E-01  0.84807035409E+01  0.10000000000E+01 0.  0.
    9000005    1    3    3    0    0 -0.77350532026E+01 -0.33303056176E+01 -0.91470597358E+03  0.91474528700E+03  0.10000000000E+01 0.  0.
<mgrwt>
<rscale>  0 0.12500014E+03</rscale>
<asrwt>0</asrwt>
<pdfrwt beam="2">  1        4 0.14138066E+00 0.12500014E+03</pdfrwt>
<pdfrwt beam="1">  1       -4 0.65394962E-03 0.12500014E+03</pdfrwt>
<totfact> 0.33285952E+03</totfact>
</mgrwt>
</event>
<event>
 5    1  0.3289127E-002  0.1249968E+03  0.7818608E-02  0.1235074E+00
          4   -1    0    0  501    0  0.00000000000E+00  0.00000000000E+00  0.48300258306E+02  0.48316952020E+02  0.12700000000E+01 0.  1.
         -4   -1    0    0    0  501 -0.00000000000E+00 -0.00000000000E+00 -0.80834499163E+02  0.80844475104E+02  0.12700000000E+01 0.  1.
         25    2    1    2    0    0  0.00000000000E+00  0.00000000000E+00 -0.32534240856E+02  0.12916142712E+03  0.12499678967E+03 0.  0.
    9000005    1    3    3    0    0  0.95382075749E+01 -0.54633960472E+02  0.13488172446E+02  0.57085706061E+02  0.10000000000E+01 0.  0.
    9000005    1    3    3    0    0 -0.95382075749E+01  0.54633960472E+02 -0.46022413302E+02  0.72075721063E+02  0.10000000000E+01 0.  0.
<mgrwt>
<rscale>  0 0.12499679E+03</rscale>
<asrwt>0</asrwt>
<pdfrwt beam="1">  1        4 0.74328605E-02 0.12499679E+03</pdfrwt>
<pdfrwt beam="2">  1       -4 0.12438128E-01 0.12499679E+03</pdfrwt>
<totfact> 0.10363230E+04</totfact>
</mgrwt>
</event>
<event>
 5    1  0.3289127E-002  0.1249973E+03  0.7818608E-02  0.1235074E+00
         -4   -1    0    0    0  501 -0.00000000000E+00  0.00000000000E+00  0.18754997850E+02  0.18797947876E+02  0.12700000000E+01 0.  1.
          4   -1    0    0  501    0  0.00000000000E+00 -0.00000000000E+00 -0.20798571511E+03  0.20798959251E+03  0.12700000000E+01 0.  1.
         25    2    1    2    0    0  0.00000000000E+00  0.00000000000E+00 -0.18923071726E+03  0.22678754038E+03  0.12499729644E+03 0.  0.
    9000005    1    3    3    0    0  0.46212243210E+02  0.37925877455E+01 -0.18605013094E+02  0.49971008160E+02  0.10000000000E+01 0.  0.
    9000005    1    3    3    0    0 -0.46212243210E+02 -0.37925877455E+01 -0.17062570417E+03  0.17681653222E+03  0.10000000000E+01 0.  0.
<mgrwt>
<rscale>  0 0.12499730E+03</rscale>
<asrwt>0</asrwt>
<pdfrwt beam="2">  1        4 0.32001403E-01 0.12499730E+03</pdfrwt>
<pdfrwt beam="1">  1       -4 0.28889865E-02 0.12499730E+03</pdfrwt>
<totfact> 0.85810505E+03</totfact>
</mgrwt>
</event>
<event>
 5    1  0.3289127E-002  0.1250004E+03  0.7818608E-02  0.1235069E+00
         -4   -1    0    0    0  501 -0.00000000000E+00  0.00000000000E+00  0.44235156043E+03  0.44235338353E+03  0.12700000000E+01 0.  1.
          4   -1    0    0  501    0  0.00000000000E+00 -0.00000000000E+00 -0.87831929066E+01  0.88745353475E+01  0.12700000000E+01 0.  1.
         25    2    1    2    0    0  0.00000000000E+00  0.00000000000E+00  0.43356836753E+03  0.45122791887E+03  0.12500042181E+03 0.  0.
    9000005    1    3    3    0    0 -0.45249443232E+01  0.59406345152E+02  0.14870431288E+03  0.16019850697E+03  0.10000000000E+01 0.  0.
    9000005    1    3    3    0    0  0.45249443232E+01 -0.59406345152E+02  0.28486405464E+03  0.29102941190E+03  0.10000000000E+01 0.  0.
<mgrwt>
<rscale>  0 0.12500042E+03</rscale>
<asrwt>0</asrwt>
<pdfrwt beam="2">  1        4 0.13584271E-02 0.12500042E+03</pdfrwt>
<pdfrwt beam="1">  1       -4 0.68061250E-01 0.12500042E+03</pdfrwt>
<totfact> 0.59857011E+03</totfact>
</mgrwt>
</event>
<event>
 5    1  0.3289127E-002  0.1250150E+03  0.7818608E-02  0.1235046E+00
          4   -1    0    0  501    0  0.00000000000E+00  0.00000000000E+00  0.30477903151E+02  0.30504351828E+02  0.12700000000E+01 0.  1.
         -4   -1    0    0    0  501 -0.00000000000E+00 -0.00000000000E+00 -0.12811227670E+03  0.12811857141E+03  0.12700000000E+01 0.  1.
         25    2    1    2    0    0  0.00000000000E+00  0.00000000000E+00 -0.97634373546E+02  0.15862292324E+03  0.12501504261E+03 0.  0.
    9000005    1    3    3    0    0  0.48713345357E+02 -0.34460146153E+02 -0.72408517717E+02  0.93832217957E+02  0.10000000000E+01 0.  0.
    9000005    1    3    3    0    0 -0.48713345357E+02  0.34460146153E+02 -0.25225855829E+02  0.64790705283E+02  0.10000000000E+01 0.  0.
<mgrwt>
<rscale>  0 0.12501504E+03</rscale>
<asrwt>0</asrwt>
<pdfrwt beam="1">  1        4 0.46914270E-02 0.12501504E+03</pdfrwt>
<pdfrwt beam="2">  1       -4 0.19712100E-01 0.12501504E+03</pdfrwt>
<totfact> 0.97575932E+03</totfact>
</mgrwt>
</event>
<event>
 5    1  0.3289127E-002  0.1250023E+03  0.7818608E-02  0.1235066E+00
          4   -1    0    0  501    0  0.00000000000E+00  0.00000000000E+00  0.72081960455E+03  0.72082072334E+03  0.12700000000E+01 0.  1.
         -4   -1    0    0    0  501 -0.00000000000E+00 -0.00000000000E+00 -0.53438319744E+01  0.54926714967E+01  0.12700000000E+01 0.  1.
         25    2    1    2    0    0  0.00000000000E+00  0.00000000000E+00  0.71547577257E+03  0.72631339484E+03  0.12500226551E+03 0.  0.
    9000005    1    3    3    0    0  0.36660881138E+02 -0.41972079079E+02  0.19342408106E+03  0.20129468637E+03  0.10000000000E+01 0.  0.
    9000005    1    3    3    0    0 -0.36660881138E+02  0.41972079079E+02  0.52205169151E+03  0.52501870847E+03  0.10000000000E+01 0.  0.
<mgrwt>
<rscale>  0 0.12500227E+03</rscale>
<asrwt>0</asrwt>
<pdfrwt beam="1">  1        4 0.11090679E+00 0.12500227E+03</pdfrwt>
<pdfrwt beam="2">  1       -4 0.83366378E-03 0.12500227E+03</pdfrwt>
<totfact> 0.41731439E+03</totfact>
</mgrwt>
</event>
<event>
 5    1  0.3289127E-002  0.1249992E+03  0.7818608E-02  0.1235071E+00
          4   -1    0    0  501    0  0.00000000000E+00  0.00000000000E+00  0.70652182291E+02  0.70663595737E+02  0.12700000000E+01 0. -1.
         -4   -1    0    0    0  501 -0.00000000000E+00 -0.00000000000E+00 -0.55264578443E+02  0.55279169046E+02  0.12700000000E+01 0. -1.
         25    2    1    2    0    0  0.00000000000E+00  0.00000000000E+00  0.15387603849E+02  0.12594276478E+03  0.12499920659E+03 0.  0.
    9000005    1    3    3    0    0  0.47648683531E+02 -0.40349224733E+02  0.10310216180E+02  0.63291054158E+02  0.10000000000E+01 0.  0.
    9000005    1    3    3    0    0 -0.47648683531E+02  0.40349224733E+02  0.50773876686E+01  0.62651710626E+02  0.10000000000E+01 0.  0.
<mgrwt>
<rscale>  0 0.12499921E+03</rscale>
<asrwt>0</asrwt>
<pdfrwt beam="1">  1        4 0.10871567E-01 0.12499921E+03</pdfrwt>
<pdfrwt beam="2">  1       -4 0.85042431E-02 0.12499921E+03</pdfrwt>
<totfact> 0.10432398E+04</totfact>
</mgrwt>
</event>
<event>
 5    1  0.3289127E-002  0.1249967E+03  0.7818608E-02  0.1235074E+00
         -4   -1    0    0    0  501 -0.00000000000E+00  0.00000000000E+00  0.22624113800E+03  0.22624470253E+03  0.12700000000E+01 0. -1.
          4   -1    0    0  501    0  0.00000000000E+00 -0.00000000000E+00 -0.17237894300E+02  0.17284614543E+02  0.12700000000E+01 0. -1.
         25    2    1    2    0    0  0.00000000000E+00  0.00000000000E+00  0.20900324370E+03  0.24352931708E+03  0.12499668955E+03 0.  0.
    9000005    1    3    3    0    0  0.59406932848E+02  0.12804435869E+02  0.76140447216E+02  0.97424355018E+02  0.10000000000E+01 0.  0.
    9000005    1    3    3    0    0 -0.59406932848E+02 -0.12804435869E+02  0.13286279649E+03  0.14610496206E+03  0.10000000000E+01 0.  0.
<mgrwt>
<rscale>  0 0.12499669E+03</rscale>
<asrwt>0</asrwt>
<pdfrwt beam="2">  1        4 0.26558521E-02 0.12499669E+03</pdfrwt>
<pdfrwt beam="1">  1       -4 0.34810194E-01 0.12499669E+03</pdfrwt>
<totfact> 0.83280677E+03</totfact>
</mgrwt>
</event>
<event>
 5    1  0.3289127E-002  0.1249991E+03  0.7818608E-02  0.1235071E+00
          4   -1    0    0  501    0  0.00000000000E+00  0.00000000000E+00  0.44816076471E+03  0.44816256417E+03  0.12700000000E+01 0.  1.
         -4   -1    0    0    0  501 -0.00000000000E+00 -0.00000000000E+00 -0.86679702625E+01  0.87605141671E+01  0.12700000000E+01 0.  1.
         25    2    1    2    0    0  0.00000000000E+00  0.00000000000E+00  0.43949279444E+03  0.45692307833E+03  0.12499913259E+03 0.  0.
    9000005    1    3    3    0    0  0.26643699551E+02  0.55101575956E+02  0.26585753442E+03  0.27281367086E+03  0.10000000000E+01 0.  0.
    9000005    1    3    3    0    0 -0.26643699551E+02 -0.55101575956E+02  0.17363526002E+03  0.18410940747E+03  0.10000000000E+01 0.  0.
<mgrwt>
<rscale>  0 0.12499913E+03</rscale>
<asrwt>0</asrwt>
<pdfrwt beam="1">  1        4 0.68955065E-01 0.12499913E+03</pdfrwt>
<pdfrwt beam="2">  1       -4 0.13407911E-02 0.12499913E+03</pdfrwt>
<totfact> 0.59369840E+03</totfact>
</mgrwt>
</event>
<event>
 5    1  0.3289127E-002  0.1249989E+03  0.7818608E-02  0.1235071E+00
         -4   -1    0    0    0  501 -0.00000000000E+00  0.00000000000E+00  0.27495081947E+02  0.27524397020E+02  0.12700000000E+01 0. -1.
          4   -1    0    0  501    0  0.00000000000E+00 -0.00000000000E+00 -0.14196059853E+03  0.14196627922E+03  0.12700000000E+01 0. -1.
         25    2    1    2    0    0  0.00000000000E+00  0.00000000000E+00 -0.11446551659E+03  0.16949067624E+03  0.12499893938E+03 0.  0.
    9000005    1    3    3    0    0  0.52327366256E+02  0.31869437134E+02 -0.73915159840E+02  0.96011796862E+02  0.10000000000E+01 0.  0.
    9000005    1    3    3    0    0 -0.52327366256E+02 -0.31869437134E+02 -0.40550356746E+02  0.73478879379E+02  0.10000000000E+01 0.  0.
<mgrwt>
<rscale>  0 0.12499894E+03</rscale>
<asrwt>0</asrwt>
<pdfrwt beam="2">  1        4 0.21842784E-01 0.12499894E+03</pdfrwt>
<pdfrwt beam="1">  1       -4 0.42327047E-02 0.12499894E+03</pdfrwt>
<totfact> 0.95545899E+03</totfact>
</mgrwt>
</event>
<event>
 5    1  0.3289127E-002  0.1250012E+03  0.7818608E-02  0.1235067E+00
         -4   -1    0    0    0  501 -0.00000000000E+00  0.00000000000E+00  0.65812697583E+01  0.67026868964E+01  0.12700000000E+01 0.  1.
          4   -1    0    0  501    0  0.00000000000E+00 -0.00000000000E+00 -0.58800466169E+03  0.58800603320E+03  0.12700000000E+01 0.  1.
         25    2    1    2    0    0  0.00000000000E+00  0.00000000000E+00 -0.58142339194E+03  0.59470872009E+03  0.12500120425E+03 0.  0.
    9000005    1    3    3    0    0  0.38994463987E+02 -0.47998024922E+02 -0.24790718464E+03  0.25550606805E+03  0.10000000000E+01 0.  0.
    9000005    1    3    3    0    0 -0.38994463987E+02  0.47998024922E+02 -0.33351620730E+03  0.33920265204E+03  0.10000000000E+01 0.  0.
<mgrwt>
<rscale>  0 0.12500120E+03</rscale>
<asrwt>0</asrwt>
<pdfrwt beam="2">  1        4 0.90471660E-01 0.12500120E+03</pdfrwt>
<pdfrwt beam="1">  1       -4 0.10219488E-02 0.12500120E+03</pdfrwt>
<totfact> 0.49202041E+03</totfact>
</mgrwt>
</event>
<event>
 5    1  0.3289127E-002  0.1250024E+03  0.7818608E-02  0.1235066E+00
          4   -1    0    0  501    0  0.00000000000E+00  0.00000000000E+00  0.11135610353E+03  0.11136334537E+03  0.12700000000E+01 0. -1.
         -4   -1    0    0    0  501 -0.00000000000E+00 -0.00000000000E+00 -0.35060370811E+02  0.35083365024E+02  0.12700000000E+01 0. -1.
         25    2    1    2    0    0  0.00000000000E+00  0.00000000000E+00  0.76295732717E+02  0.14644671040E+03  0.12500240060E+03 0.  0.
    9000005    1    3    3    0    0  0.57597878608E+02  0.22113554542E+02  0.49797299373E+02  0.79292470887E+02  0.10000000000E+01 0.  0.
    9000005    1    3    3    0    0 -0.57597878608E+02 -0.22113554542E+02  0.26498433344E+02  0.67154239511E+02  0.10000000000E+01 0.  0.
<mgrwt>
<rscale>  0 0.12500240E+03</rscale>
<asrwt>0</asrwt>
<pdfrwt beam="1">  1        4 0.17134034E-01 0.12500240E+03</pdfrwt>
<pdfrwt beam="2">  1       -4 0.53962292E-02 0.12500240E+03</pdfrwt>
<totfact> 0.10001136E+04</totfact>
</mgrwt>
</event>
<event>
 5    1  0.3289127E-002  0.1249971E+03  0.7818608E-02  0.1235074E+00
         -4   -1    0    0    0  501 -0.00000000000E+00  0.00000000000E+00  0.44306984921E+02  0.44325182603E+02  0.12700000000E+01 0. -1.
          4   -1    0    0  501    0  0.00000000000E+00 -0.00000000000E+00 -0.88118298203E+02  0.88127449630E+02  0.12700000000E+01 0. -1.
         25    2    1    2    0    0  0.00000000000E+00  0.00000000000E+00 -0.43811313282E+02  0.13245263223E+03  0.12499707442E+03 0.  0.
    9000005    1    3    3    0    0 -0.51418286534E+02  0.25490240856E+02  0.42972790137E+01  0.57559179771E+02  0.10000000000E+01 0.  0.
    9000005    1    3    3    0    0  0.51418286534E+02 -0.25490240856E+02 -0.48108592296E+02  0.74893452462E+02  0.10000000000E+01 0.  0.
<mgrwt>
<rscale>  0 0.12499707E+03</rscale>
<asrwt>0</asrwt>
<pdfrwt beam="2">  1        4 0.13558765E-01 0.12499707E+03</pdfrwt>
<pdfrwt beam="1">  1       -4 0.68185630E-02 0.12499707E+03</pdfrwt>
<totfact> 0.10292726E+04</totfact>
</mgrwt>
</event>
<event>
 5    1  0.3289127E-002  0.1249934E+03  0.7818608E-02  0.1235080E+00
         -4   -1    0    0    0  501 -0.00000000000E+00  0.00000000000E+00  0.94082539732E+02  0.94091111070E+02  0.12700000000E+01 0.  1.
          4   -1    0    0  501    0  0.00000000000E+00 -0.00000000000E+00 -0.41494808672E+02  0.41514239084E+02  0.12700000000E+01 0.  1.
         25    2    1    2    0    0  0.00000000000E+00  0.00000000000E+00  0.52587731060E+02  0.13560535015E+03  0.12499336595E+03 0.  0.
    9000005    1    3    3    0    0 -0.53028165412E+02  0.23829155643E+02  0.51152538977E+02  0.77442864290E+02  0.10000000000E+01 0.  0.
    9000005    1    3    3    0    0  0.53028165412E+02 -0.23829155643E+02  0.14351920835E+01  0.58162485864E+02  0.10000000000E+01 0.  0.
<mgrwt>
<rscale>  0 0.12499337E+03</rscale>
<asrwt>0</asrwt>
<pdfrwt beam="2">  1        4 0.63859707E-02 0.12499337E+03</pdfrwt>
<pdfrwt beam="1">  1       -4 0.14476391E-01 0.12499337E+03</pdfrwt>
<totfact> 0.10226857E+04</totfact>
</mgrwt>
</event>
<event>
 5    1  0.3289127E-002  0.1249973E+03  0.7818608E-02  0.1235074E+00
          4   -1    0    0  501    0  0.00000000000E+00  0.00000000000E+00  0.20117631188E+02  0.20157678056E+02  0.12700000000E+01 0. -1.
         -4   -1    0    0    0  501 -0.00000000000E+00 -0.00000000000E+00 -0.19392688394E+03  0.19393104242E+03  0.12700000000E+01 0. -1.
         25    2    1    2    0    0  0.00000000000E+00  0.00000000000E+00 -0.17380925275E+03  0.21408872048E+03  0.12499729555E+03 0.  0.
    9000005    1    3    3    0    0  0.37686906335E+02  0.36709180378E+02 -0.14466291219E+03  0.15393578205E+03  0.10000000000E+01 0.  0.
    9000005    1    3    3    0    0 -0.37686906335E+02 -0.36709180378E+02 -0.29146340566E+02  0.60152938428E+02  0.10000000000E+01 0.  0.
<mgrwt>
<rscale>  0 0.12499730E+03</rscale>
<asrwt>0</asrwt>
<pdfrwt beam="1">  1        4 0.30984207E-02 0.12499730E+03</pdfrwt>
<pdfrwt beam="2">  1       -4 0.29838304E-01 0.12499730E+03</pdfrwt>
<totfact> 0.87817771E+03</totfact>
</mgrwt>
</event>
<event>
 5    1  0.3289127E-002  0.1250011E+03  0.7818608E-02  0.1235068E+00
          4   -1    0    0  501    0  0.00000000000E+00  0.00000000000E+00  0.67075916092E+01  0.68267624242E+01  0.12700000000E+01 0. -1.
         -4   -1    0    0    0  501 -0.00000000000E+00 -0.00000000000E+00 -0.57712497805E+03  0.57712637541E+03  0.12700000000E+01 0. -1.
         25    2    1    2    0    0  0.00000000000E+00  0.00000000000E+00 -0.57041738645E+03  0.58395313783E+03  0.12500108971E+03 0.  0.
    9000005    1    3    3    0    0 -0.33598981473E+02  0.48030828605E+02 -0.38642868440E+03  0.39085032963E+03  0.10000000000E+01 0.  0.
    9000005    1    3    3    0    0  0.33598981473E+02 -0.48030828605E+02 -0.18398870205E+03  0.19310280820E+03  0.10000000000E+01 0.  0.
<mgrwt>
<rscale>  0 0.12500109E+03</rscale>
<asrwt>0</asrwt>
<pdfrwt beam="1">  1        4 0.10412121E-02 0.12500109E+03</pdfrwt>
<pdfrwt beam="2">  1       -4 0.88797694E-01 0.12500109E+03</pdfrwt>
<totfact> 0.49895281E+03</totfact>
</mgrwt>
</event>
<event>
 5    1  0.3289127E-002  0.1250015E+03  0.7818608E-02  0.1235067E+00
          4   -1    0    0  501    0  0.00000000000E+00  0.00000000000E+00  0.40992984347E+02  0.41012652507E+02  0.12700000000E+01 0.  1.
         -4   -1    0    0    0  501 -0.00000000000E+00 -0.00000000000E+00 -0.95246251048E+02  0.95254717672E+02  0.12700000000E+01 0.  1.
         25    2    1    2    0    0  0.00000000000E+00  0.00000000000E+00 -0.54253266701E+02  0.13626737018E+03  0.12500151690E+03 0.  0.
    9000005    1    3    3    0    0  0.44866852877E+02 -0.35424620742E+02  0.39567508025E+00  0.57175998466E+02  0.10000000000E+01 0.  0.
    9000005    1    3    3    0    0 -0.44866852877E+02  0.35424620742E+02 -0.54648941781E+02  0.79091371714E+02  0.10000000000E+01 0.  0.
<mgrwt>
<rscale>  0 0.12500152E+03</rscale>
<asrwt>0</asrwt>
<pdfrwt beam="1">  1        4 0.63087772E-02 0.12500152E+03</pdfrwt>
<pdfrwt beam="2">  1       -4 0.14655434E-01 0.12500152E+03</pdfrwt>
<totfact> 0.10211077E+04</totfact>
</mgrwt>
</event>
<event>
 5    1  0.3289127E-002  0.1249994E+03  0.7818608E-02  0.1235070E+00
          4   -1    0    0  501    0  0.00000000000E+00  0.00000000000E+00  0.17451584370E+02  0.17497734054E+02  0.12700000000E+01 0. -1.
         -4   -1    0    0    0  501 -0.00000000000E+00 -0.00000000000E+00 -0.22348788253E+03  0.22349149097E+03  0.12700000000E+01 0. -1.
         25    2    1    2    0    0  0.00000000000E+00  0.00000000000E+00 -0.20603629816E+03  0.24098922503E+03  0.12499940168E+03 0.  0.
    9000005    1    3    3    0    0 -0.10855908434E+02 -0.59478922191E+02 -0.13347809269E+03  0.14653666490E+03  0.10000000000E+01 0.  0.
    9000005    1    3    3    0    0  0.10855908434E+02  0.59478922191E+02 -0.72558205468E+02  0.94452560123E+02  0.10000000000E+01 0.  0.
<mgrwt>
<rscale>  0 0.12499940E+03</rscale>
<asrwt>0</asrwt>
<pdfrwt beam="1">  1        4 0.26886868E-02 0.12499940E+03</pdfrwt>
<pdfrwt beam="2">  1       -4 0.34386577E-01 0.12499940E+03</pdfrwt>
<totfact> 0.83651377E+03</totfact>
</mgrwt>
</event>
<event>
 5    1  0.3289127E-002  0.1250011E+03  0.7818608E-02  0.1235068E+00
         -4   -1    0    0    0  501 -0.00000000000E+00  0.00000000000E+00  0.48255532833E+02  0.48272242014E+02  0.12700000000E+01 0.  1.
          4   -1    0    0  501    0  0.00000000000E+00 -0.00000000000E+00 -0.80914976833E+02  0.80924942854E+02  0.12700000000E+01 0.  1.
         25    2    1    2    0    0  0.00000000000E+00  0.00000000000E+00 -0.32659444000E+02  0.12919718487E+03  0.12500109318E+03 0.  0.
    9000005    1    3    3    0    0  0.56317283109E+02  0.53305874059E+01 -0.43778053814E+02  0.71537189871E+02  0.10000000000E+01 0.  0.
    9000005    1    3    3    0    0 -0.56317283109E+02 -0.53305874059E+01  0.11118609815E+02  0.57659994997E+02  0.10000000000E+01 0.  0.
<mgrwt>
<rscale>  0 0.12500109E+03</rscale>
<asrwt>0</asrwt>
<pdfrwt beam="2">  1        4 0.12450510E-01 0.12500109E+03</pdfrwt>
<pdfrwt beam="1">  1       -4 0.74259801E-02 0.12500109E+03</pdfrwt>
<totfact> 0.10361456E+04</totfact>
</mgrwt>
</event>
<event>
 5    1  0.3289127E-002  0.1250036E+03  0.7818608E-02  0.1235064E+00
         -4   -1    0    0    0  501 -0.00000000000E+00  0.00000000000E+00  0.13900503885E+02  0.13958399201E+02  0.12700000000E+01 0.  1.
          4   -1    0    0  501    0  0.00000000000E+00 -0.00000000000E+00 -0.28038779180E+03  0.28039066798E+03  0.12700000000E+01 0.  1.
         25    2    1    2    0    0  0.00000000000E+00  0.00000000000E+00 -0.26648728792E+03  0.29434906718E+03  0.12500359487E+03 0.  0.
    9000005    1    3    3    0    0  0.12193221101E+02 -0.55679738613E+02 -0.19358007306E+03  0.20179978350E+03  0.10000000000E+01 0.  0.
    9000005    1    3    3    0    0 -0.12193221101E+02  0.55679738613E+02 -0.72907214856E+02  0.92549283686E+02  0.10000000000E+01 0.  0.
<mgrwt>
<rscale>  0 0.12500359E+03</rscale>
<asrwt>0</asrwt>
<pdfrwt beam="2">  1        4 0.43141254E-01 0.12500359E+03</pdfrwt>
<pdfrwt beam="1">  1       -4 0.21432140E-02 0.12500359E+03</pdfrwt>
<totfact> 0.76307103E+03</totfact>
</mgrwt>
</event>
<event>
 5    1  0.3289127E-002  0.1250009E+03  0.7818608E-02  0.1235068E+00
         -4   -1    0    0    0  501 -0.00000000000E+00  0.00000000000E+00  0.56935257063E+03  0.56935398706E+03  0.12700000000E+01 0.  1.
          4   -1    0    0  501    0  0.00000000000E+00 -0.00000000000E+00 -0.68007486020E+01  0.69183149356E+01  0.12700000000E+01 0.  1.
         25    2    1    2    0    0  0.00000000000E+00  0.00000000000E+00  0.56255182203E+03  0.57627230200E+03  0.12500085433E+03 0.  0.
    9000005    1    3    3    0    0  0.21988755572E+01 -0.52614527149E+02  0.12615423793E+03  0.13670777325E+03  0.10000000000E+01 0.  0.
    9000005    1    3    3    0    0 -0.21988755572E+01  0.52614527149E+02  0.43639758410E+03  0.43956452875E+03  0.10000000000E+01 0.  0.
<mgrwt>
<rscale>  0 0.12500085E+03</rscale>
<asrwt>0</asrwt>
<pdfrwt beam="2">  1        4 0.10554212E-02 0.12500085E+03</pdfrwt>
<pdfrwt beam="1">  1       -4 0.87601882E-01 0.12500085E+03</pdfrwt>
<totfact> 0.50399506E+03</totfact>
</mgrwt>
</event>
<event>
 5    1  0.3289127E-002  0.1249969E+03  0.7818608E-02  0.1235074E+00
          4   -1    0    0  501    0  0.00000000000E+00  0.00000000000E+00  0.28487238682E+03  0.28487521773E+03  0.12700000000E+01 0. -1.
         -4   -1    0    0    0  501 -0.00000000000E+00 -0.00000000000E+00 -0.13679279596E+02  0.13738107230E+02  0.12700000000E+01 0. -1.
         25    2    1    2    0    0  0.00000000000E+00  0.00000000000E+00  0.27119310723E+03  0.29861332496E+03  0.12499686569E+03 0.  0.
    9000005    1    3    3    0    0  0.50655360108E+02  0.16696076901E+01  0.48266805297E+02  0.69995982678E+02  0.10000000000E+01 0.  0.
    9000005    1    3    3    0    0 -0.50655360108E+02 -0.16696076901E+01  0.22292630193E+03  0.22861734228E+03  0.10000000000E+01 0.  0.
<mgrwt>
<rscale>  0 0.12499687E+03</rscale>
<asrwt>0</asrwt>
<pdfrwt beam="1">  1        4 0.43831265E-01 0.12499687E+03</pdfrwt>
<pdfrwt beam="2">  1       -4 0.21092475E-02 0.12499687E+03</pdfrwt>
<totfact> 0.75778381E+03</totfact>
</mgrwt>
</event>
<event>
 5    1  0.3289127E-002  0.1250402E+03  0.7818608E-02  0.1235007E+00
          4   -1    0    0  501    0  0.00000000000E+00  0.00000000000E+00  0.14882151218E+03  0.14882693098E+03  0.12700000000E+01 0. -1.
         -4   -1    0    0    0  501 -0.00000000000E+00 -0.00000000000E+00 -0.26243497604E+02  0.26274209150E+02  0.12700000000E+01 0. -1.
         25    2    1    2    0    0  0.00000000000E+00  0.00000000000E+00  0.12257801457E+03  0.17510114014E+03  0.12504015203E+03 0.  0.
    9000005    1    3    3    0    0  0.51840877567E+02 -0.34352177827E+02  0.52409007005E+02  0.81334203898E+02  0.10000000000E+01 0.  0.
    9000005    1    3    3    0    0 -0.51840877567E+02  0.34352177827E+02  0.70169007567E+02  0.93766936238E+02  0.10000000000E+01 0.  0.
<mgrwt>
<rscale>  0 0.12504015E+03</rscale>
<asrwt>0</asrwt>
<pdfrwt beam="1">  1        4 0.22898396E-01 0.12504015E+03</pdfrwt>
<pdfrwt beam="2">  1       -4 0.40402405E-02 0.12504015E+03</pdfrwt>
<totfact> 0.94421245E+03</totfact>
</mgrwt>
</event>
<event>
 5    1  0.3289127E-002  0.1249999E+03  0.7818608E-02  0.1235069E+00
          4   -1    0    0  501    0  0.00000000000E+00  0.00000000000E+00  0.15000766324E+02  0.15054430920E+02  0.12700000000E+01 0.  1.
         -4   -1    0    0    0  501 -0.00000000000E+00 -0.00000000000E+00 -0.25988281253E+03  0.25988591564E+03  0.12700000000E+01 0.  1.
         25    2    1    2    0    0  0.00000000000E+00  0.00000000000E+00 -0.24488204620E+03  0.27494034656E+03  0.12499991045E+03 0.  0.
    9000005    1    3    3    0    0 -0.49701211968E+02 -0.97168584674E+01 -0.20297535667E+03  0.20919995990E+03  0.10000000000E+01 0.  0.
    9000005    1    3    3    0    0  0.49701211968E+02  0.97168584674E+01 -0.41906689536E+02  0.65740386654E+02  0.10000000000E+01 0.  0.
<mgrwt>
<rscale>  0 0.12499991E+03</rscale>
<asrwt>0</asrwt>
<pdfrwt beam="1">  1        4 0.23121771E-02 0.12499991E+03</pdfrwt>
<pdfrwt beam="2">  1       -4 0.39986335E-01 0.12499991E+03</pdfrwt>
<totfact> 0.78853955E+03</totfact>
</mgrwt>
</event>
<event>
 5    1  0.3289127E-002  0.1250000E+03  0.7818608E-02  0.1235069E+00
         -4   -1    0    0    0  501 -0.00000000000E+00  0.00000000000E+00  0.86484019359E+02  0.86493343700E+02  0.12700000000E+01 0. -1.
          4   -1    0    0  501    0  0.00000000000E+00 -0.00000000000E+00 -0.45146611091E+02  0.45164470472E+02  0.12700000000E+01 0. -1.
         25    2    1    2    0    0  0.00000000000E+00  0.00000000000E+00  0.41337408268E+02  0.13165781417E+03  0.12499999484E+03 0.  0.
    9000005    1    3    3    0    0  0.15552436920E+02  0.46516503438E+02  0.61455761735E+02  0.78635068746E+02  0.10000000000E+01 0.  0.
    9000005    1    3    3    0    0 -0.15552436920E+02 -0.46516503438E+02 -0.20118353467E+02  0.53022745426E+02  0.10000000000E+01 0.  0.
<mgrwt>
<rscale>  0 0.12499999E+03</rscale>
<asrwt>0</asrwt>
<pdfrwt beam="2">  1        4 0.69477236E-02 0.12499999E+03</pdfrwt>
<pdfrwt beam="1">  1       -4 0.13307325E-01 0.12499999E+03</pdfrwt>
<totfact> 0.10309009E+04</totfact>
</mgrwt>
</event>
<event>
 5    1  0.3289127E-002  0.1249979E+03  0.7818608E-02  0.1235073E+00
         -4   -1    0    0    0  501 -0.00000000000E+00  0.00000000000E+00  0.13006468754E+02  0.13068325426E+02  0.12700000000E+01 0.  1.
          4   -1    0    0  501    0  0.00000000000E+00 -0.00000000000E+00 -0.29954539653E+03  0.29954808876E+03  0.12700000000E+01 0.  1.
         25    2    1    2    0    0  0.00000000000E+00  0.00000000000E+00 -0.28653892777E+03  0.31261641419E+03  0.12499786114E+03 0.  0.
    9000005    1    3    3    0    0 -0.49761511189E+02  0.27829990382E+02 -0.20724748873E+03  0.21494938461E+03  0.10000000000E+01 0.  0.
    9000005    1    3    3    0    0  0.49761511189E+02 -0.27829990382E+02 -0.79291439046E+02  0.97667029577E+02  0.10000000000E+01 0.  0.
<mgrwt>
<rscale>  0 0.12499786E+03</rscale>
<asrwt>0</asrwt>
<pdfrwt beam="2">  1        4 0.46088868E-01 0.12499786E+03</pdfrwt>
<pdfrwt beam="1">  1       -4 0.20059607E-02 0.12499786E+03</pdfrwt>
<totfact> 0.74046511E+03</totfact>
</mgrwt>
</event>
<event>
 5    1  0.3289127E-002  0.1249845E+03  0.7818608E-02  0.1235093E+00
         -4   -1    0    0    0  501 -0.00000000000E+00  0.00000000000E+00  0.65734288688E+02  0.65746555874E+02  0.12700000000E+01 0. -1.
          4   -1    0    0  501    0  0.00000000000E+00 -0.00000000000E+00 -0.59385535842E+02  0.59399114196E+02  0.12700000000E+01 0. -1.
         25    2    1    2    0    0  0.00000000000E+00  0.00000000000E+00  0.63487528455E+01  0.12514567007E+03  0.12498452734E+03 0.  0.
    9000005    1    3    3    0    0  0.70455851377E+01  0.50040434973E+02  0.39972236637E+02  0.64439623711E+02  0.10000000000E+01 0.  0.
    9000005    1    3    3    0    0 -0.70455851377E+01 -0.50040434973E+02 -0.33623483792E+02  0.60706046359E+02  0.10000000000E+01 0.  0.
<mgrwt>
<rscale>  0 0.12498453E+03</rscale>
<asrwt>0</asrwt>
<pdfrwt beam="2">  1        4 0.91382244E-02 0.12498453E+03</pdfrwt>
<pdfrwt beam="1">  1       -4 0.10114956E-01 0.12498453E+03</pdfrwt>
<totfact> 0.10453354E+04</totfact>
</mgrwt>
</event>
<event>
 5    1  0.3289127E-002  0.1250041E+03  0.7818608E-02  0.1235063E+00
         -4   -1    0    0    0  501 -0.00000000000E+00  0.00000000000E+00  0.12079072418E+03  0.12079740042E+03  0.12700000000E+01 0.  1.
          4   -1    0    0  501    0  0.00000000000E+00 -0.00000000000E+00 -0.32321058255E+02  0.32345999857E+02  0.12700000000E+01 0.  1.
         25    2    1    2    0    0  0.00000000000E+00  0.00000000000E+00  0.88469665927E+02  0.15314340028E+03  0.12500407697E+03 0.  0.
    9000005    1    3    3    0    0  0.30592969599E+02  0.22878969551E+02 -0.16356942406E+02  0.41568336526E+02  0.10000000000E+01 0.  0.
    9000005    1    3    3    0    0 -0.30592969599E+02 -0.22878969551E+02  0.10482660833E+03  0.11157506375E+03  0.10000000000E+01 0.  0.
<mgrwt>
<rscale>  0 0.12500408E+03</rscale>
<asrwt>0</asrwt>
<pdfrwt beam="2">  1        4 0.49749026E-02 0.12500408E+03</pdfrwt>
<pdfrwt beam="1">  1       -4 0.18585621E-01 0.12500408E+03</pdfrwt>
<totfact> 0.98671708E+03</totfact>
</mgrwt>
</event>
<event>
 5    1  0.3289127E-002  0.1250015E+03  0.7818608E-02  0.1235067E+00
         -4   -1    0    0    0  501 -0.00000000000E+00  0.00000000000E+00  0.10863316568E+03  0.10864058903E+03  0.12700000000E+01 0. -1.
          4   -1    0    0  501    0  0.00000000000E+00 -0.00000000000E+00 -0.35939147571E+02  0.35961579890E+02  0.12700000000E+01 0. -1.
         25    2    1    2    0    0  0.00000000000E+00  0.00000000000E+00  0.72694018108E+02  0.14460216892E+03  0.12500146795E+03 0.  0.
    9000005    1    3    3    0    0 -0.41679095832E+02 -0.39538378654E+02  0.78954837714E+01  0.57998009276E+02  0.10000000000E+01 0.  0.
    9000005    1    3    3    0    0  0.41679095832E+02  0.39538378654E+02  0.64798534337E+02  0.86604159647E+02  0.10000000000E+01 0.  0.
<mgrwt>
<rscale>  0 0.12500147E+03</rscale>
<asrwt>0</asrwt>
<pdfrwt beam="2">  1        4 0.55313962E-02 0.12500147E+03</pdfrwt>
<pdfrwt beam="1">  1       -4 0.16715091E-01 0.12500147E+03</pdfrwt>
<totfact> 0.10038746E+04</totfact>
</mgrwt>
</event>
<event>
 5    1  0.3289127E-002  0.1249999E+03  0.7818608E-02  0.1235070E+00
         -4   -1    0    0    0  501 -0.00000000000E+00  0.00000000000E+00  0.55156350738E+02  0.55170969963E+02  0.12700000000E+01 0.  1.
          4   -1    0    0  501    0  0.00000000000E+00 -0.00000000000E+00 -0.70791536886E+02  0.70802927868E+02  0.12700000000E+01 0.  1.
         25    2    1    2    0    0  0.00000000000E+00  0.00000000000E+00 -0.15635186148E+02  0.12597389783E+03  0.12499985556E+03 0.  0.
    9000005    1    3    3    0    0  0.23545711988E+02  0.75352495423E+01  0.50023546060E+02  0.55808025401E+02  0.10000000000E+01 0.  0.
    9000005    1    3    3    0    0 -0.23545711988E+02 -0.75352495423E+01 -0.65658732208E+02  0.70165872430E+02  0.10000000000E+01 0.  0.
<mgrwt>
<rscale>  0 0.12499986E+03</rscale>
<asrwt>0</asrwt>
<pdfrwt beam="2">  1        4 0.10893006E-01 0.12499986E+03</pdfrwt>
<pdfrwt beam="1">  1       -4 0.84875932E-02 0.12499986E+03</pdfrwt>
<totfact> 0.10431563E+04</totfact>
</mgrwt>
</event>
<event>
 5    1  0.3289127E-002  0.1249999E+03  0.7818608E-02  0.1235069E+00
         -4   -1    0    0    0  501 -0.00000000000E+00  0.00000000000E+00  0.82475014633E+02  0.82484792166E+02  0.12700000000E+01 0.  1.
          4   -1    0    0  501    0  0.00000000000E+00 -0.00000000000E+00 -0.47341669505E+02  0.47358701117E+02  0.12700000000E+01 0.  1.
         25    2    1    2    0    0  0.00000000000E+00  0.00000000000E+00  0.35133345128E+02  0.12984349328E+03  0.12499992323E+03 0.  0.
    9000005    1    3    3    0    0  0.27638017771E+02 -0.55932758652E+02  0.21299190567E+02  0.65931699777E+02  0.10000000000E+01 0.  0.
    9000005    1    3    3    0    0 -0.27638017771E+02  0.55932758652E+02  0.13834154561E+02  0.63911793506E+02  0.10000000000E+01 0.  0.
<mgrwt>
<rscale>  0 0.12499992E+03</rscale>
<asrwt>0</asrwt>
<pdfrwt beam="2">  1        4 0.72853962E-02 0.12499992E+03</pdfrwt>
<pdfrwt beam="1">  1       -4 0.12690526E-01 0.12499992E+03</pdfrwt>
<totfact> 0.10347875E+04</totfact>
</mgrwt>
</event>
<event>
 5    1  0.3289127E-002  0.1250002E+03  0.7818608E-02  0.1235069E+00
          4   -1    0    0  501    0  0.00000000000E+00  0.00000000000E+00  0.17383246657E+03  0.17383710575E+03  0.12700000000E+01 0. -1.
         -4   -1    0    0    0  501 -0.00000000000E+00 -0.00000000000E+00 -0.22448543757E+02  0.22484439437E+02  0.12700000000E+01 0. -1.
         25    2    1    2    0    0  0.00000000000E+00  0.00000000000E+00  0.15138392281E+03  0.19632154518E+03  0.12500022807E+03 0.  0.
    9000005    1    3    3    0    0 -0.37851979456E+02  0.41925029628E+02  0.33702093588E+02  0.65782304386E+02  0.10000000000E+01 0.  0.
    9000005    1    3    3    0    0  0.37851979456E+02 -0.41925029628E+02  0.11768182923E+03  0.13053924080E+03  0.10000000000E+01 0.  0.
<mgrwt>
<rscale>  0 0.12500023E+03</rscale>
<asrwt>0</asrwt>
<pdfrwt beam="1">  1        4 0.26746576E-01 0.12500023E+03</pdfrwt>
<pdfrwt beam="2">  1       -4 0.34567400E-02 0.12500023E+03</pdfrwt>
<totfact> 0.90758407E+03</totfact>
</mgrwt>
</event>
<event>
 5    1  0.3289127E-002  0.1249979E+03  0.7818608E-02  0.1235073E+00
         -4   -1    0    0    0  501 -0.00000000000E+00  0.00000000000E+00  0.39590712847E+02  0.39611077285E+02  0.12700000000E+01 0. -1.
          4   -1    0    0  501    0  0.00000000000E+00 -0.00000000000E+00 -0.98612738785E+02  0.98620916395E+02  0.12700000000E+01 0. -1.
         25    2    1    2    0    0  0.00000000000E+00  0.00000000000E+00 -0.59022025938E+02  0.13823199368E+03  0.12499793811E+03 0.  0.
    9000005    1    3    3    0    0  0.14707472008E+02  0.59184483434E+02 -0.14428562480E+02  0.62676121669E+02  0.10000000000E+01 0.  0.
    9000005    1    3    3    0    0 -0.14707472008E+02 -0.59184483434E+02 -0.44593463458E+02  0.75555872012E+02  0.10000000000E+01 0.  0.
<mgrwt>
<rscale>  0 0.12499794E+03</rscale>
<asrwt>0</asrwt>
<pdfrwt beam="2">  1        4 0.15173386E-01 0.12499794E+03</pdfrwt>
<pdfrwt beam="1">  1       -4 0.60930745E-02 0.12499794E+03</pdfrwt>
<totfact> 0.10170833E+04</totfact>
</mgrwt>
</event>
<event>
 5    1  0.3289127E-002  0.1250085E+03  0.7818608E-02  0.1235056E+00
         -4   -1    0    0    0  501 -0.00000000000E+00  0.00000000000E+00  0.96724557799E+03  0.96724641175E+03  0.12700000000E+01 0. -1.
          4   -1    0    0  501    0  0.00000000000E+00 -0.00000000000E+00 -0.39383927179E+01  0.41380958424E+01  0.12700000000E+01 0. -1.
         25    2    1    2    0    0  0.00000000000E+00  0.00000000000E+00  0.96330718528E+03  0.97138450759E+03  0.12500851328E+03 0.  0.
    9000005    1    3    3    0    0 -0.44496900679E+02 -0.38875533218E+02  0.32345074641E+03  0.32880490660E+03  0.10000000000E+01 0.  0.
    9000005    1    3    3    0    0  0.44496900679E+02  0.38875533218E+02  0.63985643887E+03  0.64257960100E+03  0.10000000000E+01 0.  0.
<mgrwt>
<rscale>  0 0.12500851E+03</rscale>
<asrwt>0</asrwt>
<pdfrwt beam="2">  1        4 0.62133209E-03 0.12500851E+03</pdfrwt>
<pdfrwt beam="1">  1       -4 0.14882253E+00 0.12500851E+03</pdfrwt>
<totfact> 0.31562813E+03</totfact>
</mgrwt>
</event>
<event>
 5    1  0.3289127E-002  0.1250002E+03  0.7818608E-02  0.1235069E+00
          4   -1    0    0  501    0  0.00000000000E+00  0.00000000000E+00  0.77465868644E+02  0.77476278336E+02  0.12700000000E+01 0.  1.
         -4   -1    0    0    0  501 -0.00000000000E+00 -0.00000000000E+00 -0.50403798943E+02  0.50419796191E+02  0.12700000000E+01 0.  1.
         25    2    1    2    0    0  0.00000000000E+00  0.00000000000E+00  0.27062069701E+02  0.12789607453E+03  0.12500020105E+03 0.  0.
    9000005    1    3    3    0    0  0.40359595046E+02 -0.41477525008E+02  0.37656534235E+02  0.69052853407E+02  0.10000000000E+01 0.  0.
    9000005    1    3    3    0    0 -0.40359595046E+02  0.41477525008E+02 -0.10594464533E+02  0.58843221120E+02  0.10000000000E+01 0.  0.
<mgrwt>
<rscale>  0 0.12500020E+03</rscale>
<asrwt>0</asrwt>
<pdfrwt beam="1">  1        4 0.11919857E-01 0.12500020E+03</pdfrwt>
<pdfrwt beam="2">  1       -4 0.77564619E-02 0.12500020E+03</pdfrwt>
<totfact> 0.10389685E+04</totfact>
</mgrwt>
</event>
<event>
 5    1  0.3289127E-002  0.1250003E+03  0.7818608E-02  0.1235069E+00
          4   -1    0    0  501    0  0.00000000000E+00  0.00000000000E+00  0.32701083643E+03  0.32701330255E+03  0.12700000000E+01 0. -1.
         -4   -1    0    0    0  501 -0.00000000000E+00 -0.00000000000E+00 -0.11909101563E+02  0.11976627240E+02  0.12700000000E+01 0. -1.
         25    2    1    2    0    0  0.00000000000E+00  0.00000000000E+00  0.31510173487E+03  0.33898992979E+03  0.12500027672E+03 0.  0.
    9000005    1    3    3    0    0  0.86857492332E+01 -0.48868302113E+02  0.26052197786E+03  0.26520983039E+03  0.10000000000E+01 0.  0.
    9000005    1    3    3    0    0 -0.86857492332E+01  0.48868302113E+02  0.54579757013E+02  0.73780099395E+02  0.10000000000E+01 0.  0.
<mgrwt>
<rscale>  0 0.12500028E+03</rscale>
<asrwt>0</asrwt>
<pdfrwt beam="1">  1        4 0.50314742E-01 0.12500028E+03</pdfrwt>
<pdfrwt beam="2">  1       -4 0.18375535E-02 0.12500028E+03</pdfrwt>
<totfact> 0.70952591E+03</totfact>
</mgrwt>
</event>
<event>
 5    1  0.3289127E-002  0.1249910E+03  0.7818608E-02  0.1235083E+00
          4   -1    0    0  501    0  0.00000000000E+00  0.00000000000E+00  0.14183378455E+02  0.14240123749E+02  0.12700000000E+01 0.  1.
         -4   -1    0    0    0  501 -0.00000000000E+00 -0.00000000000E+00 -0.27476297716E+03  0.27476591222E+03  0.12700000000E+01 0.  1.
         25    2    1    2    0    0  0.00000000000E+00  0.00000000000E+00 -0.26057959871E+03  0.28900603597E+03  0.12499104594E+03 0.  0.
    9000005    1    3    3    0    0  0.26853044678E+02 -0.33472081073E+01 -0.26052309213E+03  0.26192665260E+03  0.10000000000E+01 0.  0.
    9000005    1    3    3    0    0 -0.26853044678E+02  0.33472081073E+01 -0.56506575913E-01  0.27079383368E+02  0.10000000000E+01 0.  0.
<mgrwt>
<rscale>  0 0.12499105E+03</rscale>
<asrwt>0</asrwt>
<pdfrwt beam="1">  1        4 0.21866492E-02 0.12499105E+03</pdfrwt>
<pdfrwt beam="2">  1       -4 0.42275814E-01 0.12499105E+03</pdfrwt>
<totfact> 0.77014245E+03</totfact>
</mgrwt>
</event>
<event>
 5    1  0.3289127E-002  0.1250003E+03  0.7818608E-02  0.1235069E+00
          4   -1    0    0  501    0  0.00000000000E+00  0.00000000000E+00  0.67327549873E+02  0.67339526816E+02  0.12700000000E+01 0.  1.
         -4   -1    0    0    0  501 -0.00000000000E+00 -0.00000000000E+00 -0.57994768445E+02  0.58008672342E+02  0.12700000000E+01 0.  1.
         25    2    1    2    0    0  0.00000000000E+00  0.00000000000E+00  0.93327814282E+01  0.12534819916E+03  0.12500028089E+03 0.  0.
    9000005    1    3    3    0    0 -0.39292612863E+02  0.13344582418E+02  0.51522028434E+02  0.66162729081E+02  0.10000000000E+01 0.  0.
    9000005    1    3    3    0    0  0.39292612863E+02 -0.13344582418E+02 -0.42189247005E+02  0.59185470078E+02  0.10000000000E+01 0.  0.
<mgrwt>
<rscale>  0 0.12500028E+03</rscale>
<asrwt>0</asrwt>
<pdfrwt beam="1">  1        4 0.10360075E-01 0.12500028E+03</pdfrwt>
<pdfrwt beam="2">  1       -4 0.89242629E-02 0.12500028E+03</pdfrwt>
<totfact> 0.10445238E+04</totfact>
</mgrwt>
</event>
<event>
 5    1  0.3289127E-002  0.1250014E+03  0.7818608E-02  0.1235067E+00
         -4   -1    0    0    0  501 -0.00000000000E+00  0.00000000000E+00  0.23513882220E+02  0.23548154005E+02  0.12700000000E+01 0. -1.
          4   -1    0    0  501    0  0.00000000000E+00 -0.00000000000E+00 -0.16597123824E+03  0.16597609714E+03  0.12700000000E+01 0. -1.
         25    2    1    2    0    0  0.00000000000E+00  0.00000000000E+00 -0.14245735602E+03  0.18952425115E+03  0.12500137395E+03 0.  0.
    9000005    1    3    3    0    0 -0.60719920827E+02  0.12248629767E+02 -0.58689409598E+02  0.85336888362E+02  0.10000000000E+01 0.  0.
    9000005    1    3    3    0    0  0.60719920827E+02 -0.12248629767E+02 -0.83767946424E+02  0.10418736279E+03  0.10000000000E+01 0.  0.
<mgrwt>
<rscale>  0 0.12500137E+03</rscale>
<asrwt>0</asrwt>
<pdfrwt beam="2">  1        4 0.25537046E-01 0.12500137E+03</pdfrwt>
<pdfrwt beam="1">  1       -4 0.36205305E-02 0.12500137E+03</pdfrwt>
<totfact> 0.91927330E+03</totfact>
</mgrwt>
</event>
<event>
 5    1  0.3289127E-002  0.1250031E+03  0.7818608E-02  0.1235064E+00
          4   -1    0    0  501    0  0.00000000000E+00  0.00000000000E+00  0.24402962859E+02  0.24435987729E+02  0.12700000000E+01 0.  1.
         -4   -1    0    0    0  501 -0.00000000000E+00 -0.00000000000E+00 -0.15993703626E+03  0.15994207848E+03  0.12700000000E+01 0.  1.
         25    2    1    2    0    0  0.00000000000E+00  0.00000000000E+00 -0.13553407340E+03  0.18437806621E+03  0.12500314494E+03 0.  0.
    9000005    1    3    3    0    0  0.57450181913E+02 -0.24529126596E+02 -0.70424106064E+02  0.94142212468E+02  0.10000000000E+01 0.  0.
    9000005    1    3    3    0    0 -0.57450181913E+02  0.24529126596E+02 -0.65109967339E+02  0.90235853740E+02  0.10000000000E+01 0.  0.
<mgrwt>
<rscale>  0 0.12500314E+03</rscale>
<asrwt>0</asrwt>
<pdfrwt beam="1">  1        4 0.37572303E-02 0.12500314E+03</pdfrwt>
<pdfrwt beam="2">  1       -4 0.24608625E-01 0.12500314E+03</pdfrwt>
<totfact> 0.92828278E+03</totfact>
</mgrwt>
</event>
<event>
 5    1  0.3289127E-002  0.1249993E+03  0.7818608E-02  0.1235070E+00
          4   -1    0    0  501    0  0.00000000000E+00  0.00000000000E+00  0.26283960982E+02  0.26314625304E+02  0.12700000000E+01 0. -1.
         -4   -1    0    0    0  501 -0.00000000000E+00 -0.00000000000E+00 -0.14849565013E+03  0.14850108083E+03  0.12700000000E+01 0. -1.
         25    2    1    2    0    0  0.00000000000E+00  0.00000000000E+00 -0.12221168915E+03  0.17481570613E+03  0.12499933658E+03 0.  0.
    9000005    1    3    3    0    0 -0.89566895520E+01 -0.60808182382E+02 -0.76888289005E+02  0.98441182024E+02  0.10000000000E+01 0.  0.
    9000005    1    3    3    0    0  0.89566895520E+01  0.60808182382E+02 -0.45323400143E+02  0.76374524109E+02  0.10000000000E+01 0.  0.
<mgrwt>
<rscale>  0 0.12499934E+03</rscale>
<asrwt>0</asrwt>
<pdfrwt beam="1">  1        4 0.40464629E-02 0.12499934E+03</pdfrwt>
<pdfrwt beam="2">  1       -4 0.22848261E-01 0.12499934E+03</pdfrwt>
<totfact> 0.94560012E+03</totfact>
</mgrwt>
</event>
<event>
 5    1  0.3289127E-002  0.1249996E+03  0.7818608E-02  0.1235070E+00
         -4   -1    0    0    0  501 -0.00000000000E+00  0.00000000000E+00  0.23992147565E+01  0.27146144197E+01  0.12700000000E+01 0.  1.
          4   -1    0    0  501    0  0.00000000000E+00 -0.00000000000E+00 -0.15273956160E+04  0.15273961440E+04  0.12700000000E+01 0.  1.
         25    2    1    2    0    0  0.00000000000E+00  0.00000000000E+00 -0.15249964013E+04  0.15301107584E+04  0.12499963678E+03 0.  0.
    9000005    1    3    3    0    0 -0.20661345344E+02  0.45817143930E+02 -0.12170841425E+04  0.12181218788E+04  0.10000000000E+01 0.  0.
    9000005    1    3    3    0    0  0.20661345344E+02 -0.45817143930E+02 -0.30791225881E+03  0.31198887960E+03  0.10000000000E+01 0.  0.
<mgrwt>
<rscale>  0 0.12499964E+03</rscale>
<asrwt>0</asrwt>
<pdfrwt beam="2">  1        4 0.23500751E+00 0.12499964E+03</pdfrwt>
<pdfrwt beam="1">  1       -4 0.39341331E-03 0.12499964E+03</pdfrwt>
<totfact> 0.17346266E+03</totfact>
</mgrwt>
</event>
<event>
 5    1  0.3289127E-002  0.1250026E+03  0.7818608E-02  0.1235065E+00
          4   -1    0    0  501    0  0.00000000000E+00  0.00000000000E+00  0.25890666609E+02  0.25921796185E+02  0.12700000000E+01 0.  1.
         -4   -1    0    0    0  501 -0.00000000000E+00 -0.00000000000E+00 -0.15075660997E+03  0.15076195922E+03  0.12700000000E+01 0.  1.
         25    2    1    2    0    0  0.00000000000E+00  0.00000000000E+00 -0.12486594336E+03  0.17668375541E+03  0.12500258243E+03 0.  0.
    9000005    1    3    3    0    0 -0.50101442568E+02  0.35178291997E+02 -0.80185283833E+02  0.10088779172E+03  0.10000000000E+01 0.  0.
    9000005    1    3    3    0    0  0.50101442568E+02 -0.35178291997E+02 -0.44680659525E+02  0.75795963684E+02  0.10000000000E+01 0.  0.
<mgrwt>
<rscale>  0 0.12500258E+03</rscale>
<asrwt>0</asrwt>
<pdfrwt beam="1">  1        4 0.39859856E-02 0.12500258E+03</pdfrwt>
<pdfrwt beam="2">  1       -4 0.23196130E-01 0.12500258E+03</pdfrwt>
<totfact> 0.94211910E+03</totfact>
</mgrwt>
</event>
<event>
 5    1  0.3289127E-002  0.1249977E+03  0.7818608E-02  0.1235073E+00
          4   -1    0    0  501    0  0.00000000000E+00  0.00000000000E+00  0.16013901505E+03  0.16014405091E+03  0.12700000000E+01 0. -1.
         -4   -1    0    0    0  501 -0.00000000000E+00 -0.00000000000E+00 -0.24370018759E+02  0.24403088213E+02  0.12700000000E+01 0. -1.
         25    2    1    2    0    0  0.00000000000E+00  0.00000000000E+00  0.13576899629E+03  0.18454713912E+03  0.12499770479E+03 0.  0.
    9000005    1    3    3    0    0  0.22563888561E+02  0.56148611729E+02  0.44854916555E+02  0.75330997639E+02  0.10000000000E+01 0.  0.
    9000005    1    3    3    0    0 -0.22563888561E+02 -0.56148611729E+02  0.90914079736E+02  0.10921614148E+03  0.10000000000E+01 0.  0.
<mgrwt>
<rscale>  0 0.12499770E+03</rscale>
<asrwt>0</asrwt>
<pdfrwt beam="1">  1        4 0.24639702E-01 0.12499770E+03</pdfrwt>
<pdfrwt beam="2">  1       -4 0.37521650E-02 0.12499770E+03</pdfrwt>
<totfact> 0.92809623E+03</totfact>
</mgrwt>
</event>
<event>
 5    1  0.3289127E-002  0.1250128E+03  0.7818608E-02  0.1235049E+00
          4   -1    0    0  501    0  0.00000000000E+00  0.00000000000E+00  0.58488257923E+03  0.58488395806E+03  0.12700000000E+01 0.  1.
         -4   -1    0    0    0  501 -0.00000000000E+00 -0.00000000000E+00 -0.66182967182E+01  0.67390467761E+01  0.12700000000E+01 0.  1.
         25    2    1    2    0    0  0.00000000000E+00  0.00000000000E+00  0.57826428251E+03  0.59162300483E+03  0.12501279700E+03 0.  0.
    9000005    1    3    3    0    0  0.49545834726E+01  0.42507136526E+02  0.73574953439E+02  0.85121550307E+02  0.10000000000E+01 0.  0.
    9000005    1    3    3    0    0 -0.49545834726E+01 -0.42507136526E+02  0.50468932908E+03  0.50650145452E+03  0.10000000000E+01 0.  0.
<mgrwt>
<rscale>  0 0.12501280E+03</rscale>
<asrwt>0</asrwt>
<pdfrwt beam="1">  1        4 0.89991336E-01 0.12501280E+03</pdfrwt>
<pdfrwt beam="2">  1       -4 0.10275940E-02 0.12501280E+03</pdfrwt>
<totfact> 0.49386831E+03</totfact>
</mgrwt>
</event>
<event>
 5    1  0.3289127E-002  0.1249992E+03  0.7818608E-02  0.1235070E+00
         -4   -1    0    0    0  501 -0.00000000000E+00  0.00000000000E+00  0.17653596556E+02  0.17699219513E+02  0.12700000000E+01 0. -1.
          4   -1    0    0  501    0  0.00000000000E+00 -0.00000000000E+00 -0.22093644442E+03  0.22094009453E+03  0.12700000000E+01 0. -1.
         25    2    1    2    0    0  0.00000000000E+00  0.00000000000E+00 -0.20328284786E+03  0.23863931405E+03  0.12499922389E+03 0.  0.
    9000005    1    3    3    0    0 -0.11615238338E+02 -0.34869331586E+02 -0.19813104733E+03  0.20151351310E+03  0.10000000000E+01 0.  0.
    9000005    1    3    3    0    0  0.11615238338E+02  0.34869331586E+02 -0.51518005314E+01  0.37125800943E+02  0.10000000000E+01 0.  0.
<mgrwt>
<rscale>  0 0.12499922E+03</rscale>
<asrwt>0</asrwt>
<pdfrwt beam="2">  1        4 0.33994010E-01 0.12499922E+03</pdfrwt>
<pdfrwt beam="1">  1       -4 0.27197283E-02 0.12499922E+03</pdfrwt>
<totfact> 0.84001890E+03</totfact>
</mgrwt>
</event>
<event>
 5    1  0.3289127E-002  0.1250010E+03  0.7818608E-02  0.1235068E+00
          4   -1    0    0  501    0  0.00000000000E+00  0.00000000000E+00  0.49547973144E+03  0.49548135905E+03  0.12700000000E+01 0.  1.
         -4   -1    0    0    0  501 -0.00000000000E+00 -0.00000000000E+00 -0.78310988719E+01  0.79334109651E+01  0.12700000000E+01 0.  1.
         25    2    1    2    0    0  0.00000000000E+00  0.00000000000E+00  0.48764863257E+03  0.50341477002E+03  0.12500096730E+03 0.  0.
    9000005    1    3    3    0    0  0.73942704942E+01 -0.52930680207E+02  0.11338880812E+03  0.12535690628E+03  0.10000000000E+01 0.  0.
    9000005    1    3    3    0    0 -0.73942704942E+01  0.52930680207E+02  0.37425982445E+03  0.37805786374E+03  0.10000000000E+01 0.  0.
<mgrwt>
<rscale>  0 0.12500097E+03</rscale>
<asrwt>0</asrwt>
<pdfrwt beam="1">  1        4 0.76235636E-01 0.12500097E+03</pdfrwt>
<pdfrwt beam="2">  1       -4 0.12127800E-02 0.12500097E+03</pdfrwt>
<totfact> 0.55599213E+03</totfact>
</mgrwt>
</event>
<event>
 5    1  0.3289127E-002  0.1249987E+03  0.7818608E-02  0.1235071E+00
         -4   -1    0    0    0  501 -0.00000000000E+00  0.00000000000E+00  0.34919626750E+02  0.34942713580E+02  0.12700000000E+01 0. -1.
          4   -1    0    0  501    0  0.00000000000E+00 -0.00000000000E+00 -0.11179795595E+03  0.11180516918E+03  0.12700000000E+01 0. -1.
         25    2    1    2    0    0  0.00000000000E+00  0.00000000000E+00 -0.76878329200E+02  0.14674788276E+03  0.12499865436E+03 0.  0.
    9000005    1    3    3    0    0  0.11453891755E+02  0.28384462976E+02 -0.10240088668E+03  0.10688222943E+03  0.10000000000E+01 0.  0.
    9000005    1    3    3    0    0 -0.11453891755E+02 -0.28384462976E+02  0.25522557481E+02  0.39865653327E+02  0.10000000000E+01 0.  0.
<mgrwt>
<rscale>  0 0.12499865E+03</rscale>
<asrwt>0</asrwt>
<pdfrwt beam="2">  1        4 0.17202016E-01 0.12499865E+03</pdfrwt>
<pdfrwt beam="1">  1       -4 0.53745811E-02 0.12499865E+03</pdfrwt>
<totfact> 0.99958983E+03</totfact>
</mgrwt>
</event>
<event>
 5    1  0.3289127E-002  0.1249993E+03  0.7818608E-02  0.1235070E+00
         -4   -1    0    0    0  501 -0.00000000000E+00  0.00000000000E+00  0.46055399187E+01  0.47774363358E+01  0.12700000000E+01 0. -1.
          4   -1    0    0  501    0  0.00000000000E+00 -0.00000000000E+00 -0.83244284899E+03  0.83244381777E+03  0.12700000000E+01 0. -1.
         25    2    1    2    0    0  0.00000000000E+00  0.00000000000E+00 -0.82783730907E+03  0.83722125410E+03  0.12499927211E+03 0.  0.
    9000005    1    3    3    0    0  0.69510021695E+01 -0.51188851155E+02 -0.64944828711E+03  0.65150033964E+03  0.10000000000E+01 0.  0.
    9000005    1    3    3    0    0 -0.69510021695E+01  0.51188851155E+02 -0.17838902196E+03  0.18572091446E+03  0.10000000000E+01 0.  0.
<mgrwt>
<rscale>  0 0.12499927E+03</rscale>
<asrwt>0</asrwt>
<pdfrwt beam="2">  1        4 0.12808131E+00 0.12499927E+03</pdfrwt>
<pdfrwt beam="1">  1       -4 0.72184259E-03 0.12499927E+03</pdfrwt>
<totfact> 0.36656638E+03</totfact>
</mgrwt>
</event>
<event>
 5    1  0.3289127E-002  0.1250169E+03  0.7818608E-02  0.1235043E+00
          4   -1    0    0  501    0  0.00000000000E+00  0.00000000000E+00  0.49967979114E+01  0.51556657541E+01  0.12700000000E+01 0.  1.
         -4   -1    0    0    0  501 -0.00000000000E+00 -0.00000000000E+00 -0.76956654517E+03  0.76956759310E+03  0.12700000000E+01 0.  1.
         25    2    1    2    0    0  0.00000000000E+00  0.00000000000E+00 -0.76456974726E+03  0.77472325885E+03  0.12501691638E+03 0.  0.
    9000005    1    3    3    0    0  0.45889118956E+02  0.38526601579E+02 -0.27209118068E+03  0.27861213339E+03  0.10000000000E+01 0.  0.
    9000005    1    3    3    0    0 -0.45889118956E+02 -0.38526601579E+02 -0.49247856657E+03  0.49611112546E+03  0.10000000000E+01 0.  0.
<mgrwt>
<rscale>  0 0.12501692E+03</rscale>
<asrwt>0</asrwt>
<pdfrwt beam="1">  1        4 0.78103997E-03 0.12501692E+03</pdfrwt>
<pdfrwt beam="2">  1       -4 0.11840706E+00 0.12501692E+03</pdfrwt>
<totfact> 0.39403793E+03</totfact>
</mgrwt>
</event>
<event>
 5    1  0.3289127E-002  0.1250007E+03  0.7818608E-02  0.1235068E+00
          4   -1    0    0  501    0  0.00000000000E+00  0.00000000000E+00  0.31006163794E+02  0.31032162239E+02  0.12700000000E+01 0. -1.
         -4   -1    0    0    0  501 -0.00000000000E+00 -0.00000000000E+00 -0.12590233896E+03  0.12590874416E+03  0.12700000000E+01 0. -1.
         25    2    1    2    0    0  0.00000000000E+00  0.00000000000E+00 -0.94896175164E+02  0.15694090640E+03  0.12500065616E+03 0.  0.
    9000005    1    3    3    0    0 -0.61196376807E+02  0.10169231338E+02 -0.37978996903E+02  0.72744855530E+02  0.10000000000E+01 0.  0.
    9000005    1    3    3    0    0  0.61196376807E+02 -0.10169231338E+02 -0.56917178260E+02  0.84196050866E+02  0.10000000000E+01 0.  0.
<mgrwt>
<rscale>  0 0.12500066E+03</rscale>
<asrwt>0</asrwt>
<pdfrwt beam="1">  1        4 0.47726717E-02 0.12500066E+03</pdfrwt>
<pdfrwt beam="2">  1       -4 0.19372083E-01 0.12500066E+03</pdfrwt>
<totfact> 0.97934372E+03</totfact>
</mgrwt>
</event>
<event>
 5    1  0.3289127E-002  0.1249986E+03  0.7818608E-02  0.1235071E+00
         -4   -1    0    0    0  501 -0.00000000000E+00  0.00000000000E+00  0.15680172171E+04  0.15680177314E+04  0.12700000000E+01 0. -1.
          4   -1    0    0  501    0  0.00000000000E+00 -0.00000000000E+00 -0.23287376687E+01  0.26525307028E+01  0.12700000000E+01 0. -1.
         25    2    1    2    0    0  0.00000000000E+00  0.00000000000E+00  0.15656884794E+04  0.15706702621E+04  0.12499863066E+03 0.  0.
    9000005    1    3    3    0    0  0.48310073330E+02 -0.23463753101E+02  0.11843023254E+04  0.11855198897E+04  0.10000000000E+01 0.  0.
    9000005    1    3    3    0    0 -0.48310073330E+02  0.23463753101E+02  0.38138615405E+03  0.38515037244E+03  0.10000000000E+01 0.  0.
<mgrwt>
<rscale>  0 0.12499863E+03</rscale>
<asrwt>0</asrwt>
<pdfrwt beam="2">  1        4 0.38321436E-03 0.12499863E+03</pdfrwt>
<pdfrwt beam="1">  1       -4 0.24125817E+00 0.12499863E+03</pdfrwt>
<totfact> 0.16582840E+03</totfact>
</mgrwt>
</event>
<event>
 5    1  0.3289127E-002  0.1249942E+03  0.7818608E-02  0.1235078E+00
         -4   -1    0    0    0  501 -0.00000000000E+00  0.00000000000E+00  0.30855799237E+01  0.33367204656E+01  0.12700000000E+01 0. -1.
          4   -1    0    0  501    0  0.00000000000E+00 -0.00000000000E+00 -0.12160994950E+04  0.12161001582E+04  0.12700000000E+01 0. -1.
         25    2    1    2    0    0  0.00000000000E+00  0.00000000000E+00 -0.12130139151E+04  0.12194368786E+04  0.12499417085E+03 0.  0.
    9000005    1    3    3    0    0 -0.17990451869E+02 -0.23194709082E+02 -0.11446990292E+04  0.11450757697E+04  0.10000000000E+01 0.  0.
    9000005    1    3    3    0    0  0.17990451869E+02  0.23194709082E+02 -0.68314885947E+02  0.74361108987E+02  0.10000000000E+01 0.  0.
<mgrwt>
<rscale>  0 0.12499417E+03</rscale>
<asrwt>0</asrwt>
<pdfrwt beam="2">  1        4 0.18711123E+00 0.12499417E+03</pdfrwt>
<pdfrwt beam="1">  1       -4 0.49407509E-03 0.12499417E+03</pdfrwt>
<totfact> 0.24212730E+03</totfact>
</mgrwt>
</event>
<event>
 5    1  0.3289127E-002  0.1250022E+03  0.7818608E-02  0.1235066E+00
         -4   -1    0    0    0  501 -0.00000000000E+00  0.00000000000E+00  0.40104399887E+03  0.40104600974E+03  0.12700000000E+01 0.  1.
          4   -1    0    0  501    0  0.00000000000E+00 -0.00000000000E+00 -0.96970994270E+01  0.97799098819E+01  0.12700000000E+01 0.  1.
         25    2    1    2    0    0  0.00000000000E+00  0.00000000000E+00  0.39134689945E+03  0.41082591963E+03  0.12500216210E+03 0.  0.
    9000005    1    3    3    0    0 -0.54175480855E+02 -0.10436901096E+02  0.29213656272E+03  0.29730234259E+03  0.10000000000E+01 0.  0.
    9000005    1    3    3    0    0  0.54175480855E+02  0.10436901096E+02  0.99210336728E+02  0.11352357704E+03  0.10000000000E+01 0.  0.
<mgrwt>
<rscale>  0 0.12500216E+03</rscale>
<asrwt>0</asrwt>
<pdfrwt beam="2">  1        4 0.14983866E-02 0.12500216E+03</pdfrwt>
<pdfrwt beam="1">  1       -4 0.61705584E-01 0.12500216E+03</pdfrwt>
<totfact> 0.63510297E+03</totfact>
</mgrwt>
</event>
<event>
 5    1  0.3289127E-002  0.1249997E+03  0.7818608E-02  0.1235070E+00
         -4   -1    0    0    0  501 -0.00000000000E+00  0.00000000000E+00  0.26388455605E+03  0.26388761211E+03  0.12700000000E+01 0.  1.
          4   -1    0    0  501    0  0.00000000000E+00 -0.00000000000E+00 -0.14772405295E+02  0.14826896445E+02  0.12700000000E+01 0.  1.
         25    2    1    2    0    0  0.00000000000E+00  0.00000000000E+00  0.24911215076E+03  0.27871450855E+03  0.12499965449E+03 0.  0.
    9000005    1    3    3    0    0  0.37647743123E+01 -0.42482292845E+02  0.22710972785E+02  0.48329152857E+02  0.10000000000E+01 0.  0.
    9000005    1    3    3    0    0 -0.37647743123E+01  0.42482292845E+02  0.22640117797E+03  0.23038535569E+03  0.10000000000E+01 0.  0.
<mgrwt>
<rscale>  0 0.12499965E+03</rscale>
<asrwt>0</asrwt>
<pdfrwt beam="2">  1        4 0.22771046E-02 0.12499965E+03</pdfrwt>
<pdfrwt beam="1">  1       -4 0.40602048E-01 0.12499965E+03</pdfrwt>
<totfact> 0.78349464E+03</totfact>
</mgrwt>
</event>
<event>
 5    1  0.3289127E-002  0.1249916E+03  0.7818608E-02  0.1235082E+00
          4   -1    0    0  501    0  0.00000000000E+00  0.00000000000E+00  0.27457846730E+03  0.27458140433E+03  0.12700000000E+01 0.  1.
         -4   -1    0    0    0  501 -0.00000000000E+00 -0.00000000000E+00 -0.14193074783E+02  0.14249781465E+02  0.12700000000E+01 0.  1.
         25    2    1    2    0    0  0.00000000000E+00  0.00000000000E+00  0.26038539251E+03  0.28883118579E+03  0.12499160473E+03 0.  0.
    9000005    1    3    3    0    0 -0.50823012960E+02  0.16010822793E+02  0.20561844508E+03  0.21241297053E+03  0.10000000000E+01 0.  0.
    9000005    1    3    3    0    0  0.50823012960E+02 -0.16010822793E+02  0.54766947437E+02  0.76418215265E+02  0.10000000000E+01 0.  0.
<mgrwt>
<rscale>  0 0.12499160E+03</rscale>
<asrwt>0</asrwt>
<pdfrwt beam="1">  1        4 0.42247426E-01 0.12499160E+03</pdfrwt>
<pdfrwt beam="2">  1       -4 0.21881381E-02 0.12499160E+03</pdfrwt>
<totfact> 0.77035906E+03</totfact>
</mgrwt>
</event>
<event>
 5    1  0.3289127E-002  0.1249898E+03  0.7818608E-02  0.1235085E+00
         -4   -1    0    0    0  501 -0.00000000000E+00  0.00000000000E+00  0.54180767747E+02  0.54195650136E+02  0.12700000000E+01 0.  1.
          4   -1    0    0  501    0  0.00000000000E+00 -0.00000000000E+00 -0.72054511160E+02  0.72065702511E+02  0.12700000000E+01 0.  1.
         25    2    1    2    0    0  0.00000000000E+00  0.00000000000E+00 -0.17873743412E+02  0.12626135265E+03  0.12498983346E+03 0.  0.
    9000005    1    3    3    0    0  0.12433070660E+02 -0.53542309188E+02  0.21085063072E+02  0.58880726932E+02  0.10000000000E+01 0.  0.
    9000005    1    3    3    0    0 -0.12433070660E+02  0.53542309188E+02 -0.38958806484E+02  0.67380625716E+02  0.10000000000E+01 0.  0.
<mgrwt>
<rscale>  0 0.12498983E+03</rscale>
<asrwt>0</asrwt>
<pdfrwt beam="2">  1        4 0.11087315E-01 0.12498983E+03</pdfrwt>
<pdfrwt beam="1">  1       -4 0.83375084E-02 0.12498983E+03</pdfrwt>
<totfact> 0.10427630E+04</totfact>
</mgrwt>
</event>
<event>
 5    1  0.3289127E-002  0.1249982E+03  0.7818608E-02  0.1235072E+00
         -4   -1    0    0    0  501 -0.00000000000E+00  0.00000000000E+00  0.18833733761E+02  0.18876504639E+02  0.12700000000E+01 0. -1.
          4   -1    0    0  501    0  0.00000000000E+00 -0.00000000000E+00 -0.20712113975E+03  0.20712503333E+03  0.12700000000E+01 0. -1.
         25    2    1    2    0    0  0.00000000000E+00  0.00000000000E+00 -0.18828740599E+03  0.22600153797E+03  0.12499819162E+03 0.  0.
    9000005    1    3    3    0    0 -0.22749755119E+02  0.12710409625E+02  0.85495568024E+01  0.27444503864E+02  0.10000000000E+01 0.  0.
    9000005    1    3    3    0    0  0.22749755119E+02 -0.12710409625E+02 -0.19683696279E+03  0.19855703410E+03  0.10000000000E+01 0.  0.
<mgrwt>
<rscale>  0 0.12499819E+03</rscale>
<asrwt>0</asrwt>
<pdfrwt beam="2">  1        4 0.31868379E-01 0.12499819E+03</pdfrwt>
<pdfrwt beam="1">  1       -4 0.29010872E-02 0.12499819E+03</pdfrwt>
<totfact> 0.85930839E+03</totfact>
</mgrwt>
</event>
<event>
 5    1  0.3289127E-002  0.1249989E+03  0.7818608E-02  0.1235071E+00
         -4   -1    0    0    0  501 -0.00000000000E+00  0.00000000000E+00  0.25662609306E+02  0.25694015186E+02  0.12700000000E+01 0.  1.
          4   -1    0    0  501    0  0.00000000000E+00 -0.00000000000E+00 -0.15208585490E+03  0.15209115741E+03  0.12700000000E+01 0.  1.
         25    2    1    2    0    0  0.00000000000E+00  0.00000000000E+00 -0.12642324560E+03  0.17778517259E+03  0.12499892226E+03 0.  0.
    9000005    1    3    3    0    0 -0.49126915106E+02  0.20938488740E+02 -0.10937175803E+03  0.12171711282E+03  0.10000000000E+01 0.  0.
    9000005    1    3    3    0    0  0.49126915106E+02 -0.20938488740E+02 -0.17051487566E+02  0.56068059773E+02  0.10000000000E+01 0.  0.
<mgrwt>
<rscale>  0 0.12499892E+03</rscale>
<asrwt>0</asrwt>
<pdfrwt beam="2">  1        4 0.23400647E-01 0.12499892E+03</pdfrwt>
<pdfrwt beam="1">  1       -4 0.39509175E-02 0.12499892E+03</pdfrwt>
<totfact> 0.94019478E+03</totfact>
</mgrwt>
</event>
<event>
 5    1  0.3289127E-002  0.1250095E+03  0.7818608E-02  0.1235054E+00
         -4   -1    0    0    0  501 -0.00000000000E+00  0.00000000000E+00  0.98635539915E+02  0.98643715635E+02  0.12700000000E+01 0. -1.
          4   -1    0    0  501    0  0.00000000000E+00 -0.00000000000E+00 -0.39588894007E+02  0.39609259381E+02  0.12700000000E+01 0. -1.
         25    2    1    2    0    0  0.00000000000E+00  0.00000000000E+00  0.59046645908E+02  0.13825297502E+03  0.12500951447E+03 0.  0.
    9000005    1    3    3    0    0 -0.15136045641E+02 -0.51537845507E+02  0.64854507221E+02  0.84216129714E+02  0.10000000000E+01 0.  0.
    9000005    1    3    3    0    0  0.15136045641E+02  0.51537845507E+02 -0.58078613136E+01  0.54036845302E+02  0.10000000000E+01 0.  0.
<mgrwt>
<rscale>  0 0.12500951E+03</rscale>
<asrwt>0</asrwt>
<pdfrwt beam="2">  1        4 0.60927947E-02 0.12500951E+03</pdfrwt>
<pdfrwt beam="1">  1       -4 0.15176894E-01 0.12500951E+03</pdfrwt>
<totfact> 0.10167743E+04</totfact>
</mgrwt>
</event>
<event>
 5    1  0.3289127E-002  0.1249986E+03  0.7818608E-02  0.1235071E+00
         -4   -1    0    0    0  501 -0.00000000000E+00  0.00000000000E+00  0.25552647670E+03  0.25552963272E+03  0.12700000000E+01 0. -1.
          4   -1    0    0  501    0  0.00000000000E+00 -0.00000000000E+00 -0.15257092765E+02  0.15309858903E+02  0.12700000000E+01 0. -1.
         25    2    1    2    0    0  0.00000000000E+00  0.00000000000E+00  0.24026938394E+03  0.27083949162E+03  0.12499861344E+03 0.  0.
    9000005    1    3    3    0    0 -0.11365507840E+02 -0.59093900406E+02  0.83626601883E+02  0.10303238508E+03  0.10000000000E+01 0.  0.
    9000005    1    3    3    0    0  0.11365507840E+02  0.59093900406E+02  0.15664278205E+03  0.16780710653E+03  0.10000000000E+01 0.  0.
<mgrwt>
<rscale>  0 0.12499861E+03</rscale>
<asrwt>0</asrwt>
<pdfrwt beam="2">  1        4 0.23515470E-02 0.12499861E+03</pdfrwt>
<pdfrwt beam="1">  1       -4 0.39316063E-01 0.12499861E+03</pdfrwt>
<totfact> 0.79411004E+03</totfact>
</mgrwt>
</event>
<event>
 5    1  0.3289127E-002  0.1249964E+03  0.7818608E-02  0.1235075E+00
          4   -1    0    0  501    0  0.00000000000E+00  0.00000000000E+00  0.20204935092E+02  0.20244809262E+02  0.12700000000E+01 0. -1.
         -4   -1    0    0    0  501 -0.00000000000E+00 -0.00000000000E+00 -0.19308780153E+03  0.19309197808E+03  0.12700000000E+01 0. -1.
         25    2    1    2    0    0  0.00000000000E+00  0.00000000000E+00 -0.17288286644E+03  0.21333678735E+03  0.12499639726E+03 0.  0.
    9000005    1    3    3    0    0  0.37655041458E+02  0.49836389193E+02 -0.83268084977E+02  0.10409679059E+03  0.10000000000E+01 0.  0.
    9000005    1    3    3    0    0 -0.37655041458E+02 -0.49836389193E+02 -0.89614781464E+02  0.10923999676E+03  0.10000000000E+01 0.  0.
<mgrwt>
<rscale>  0 0.12499640E+03</rscale>
<asrwt>0</asrwt>
<pdfrwt beam="1">  1        4 0.31118402E-02 0.12499640E+03</pdfrwt>
<pdfrwt beam="2">  1       -4 0.29709203E-01 0.12499640E+03</pdfrwt>
<totfact> 0.87940904E+03</totfact>
</mgrwt>
</event>
<event>
 5    1  0.3289127E-002  0.1250002E+03  0.7818608E-02  0.1235069E+00
          4   -1    0    0  501    0  0.00000000000E+00  0.00000000000E+00  0.18337850498E+02  0.18381775238E+02  0.12700000000E+01 0.  1.
         -4   -1    0    0    0  501 -0.00000000000E+00 -0.00000000000E+00 -0.21271572482E+03  0.21271951600E+03  0.12700000000E+01 0.  1.
         25    2    1    2    0    0  0.00000000000E+00  0.00000000000E+00 -0.19437787433E+03  0.23110129124E+03  0.12500019514E+03 0.  0.
    9000005    1    3    3    0    0 -0.38419271598E+02  0.25333160214E+02 -0.19024542768E+02  0.49807054360E+02  0.10000000000E+01 0.  0.
    9000005    1    3    3    0    0  0.38419271598E+02 -0.25333160214E+02 -0.17535333156E+03  0.18129423688E+03  0.10000000000E+01 0.  0.
<mgrwt>
<rscale>  0 0.12500020E+03</rscale>
<asrwt>0</asrwt>
<pdfrwt beam="1">  1        4 0.28248784E-02 0.12500020E+03</pdfrwt>
<pdfrwt beam="2">  1       -4 0.32729165E-01 0.12500020E+03</pdfrwt>
<totfact> 0.85140409E+03</totfact>
</mgrwt>
</event>
<event>
 5    1  0.3289127E-002  0.1249988E+03  0.7818608E-02  0.1235071E+00
         -4   -1    0    0    0  501 -0.00000000000E+00  0.00000000000E+00  0.50293482716E+01  0.51872192972E+01  0.12700000000E+01 0.  1.
          4   -1    0    0  501    0  0.00000000000E+00 -0.00000000000E+00 -0.76451576320E+03  0.76451681805E+03  0.12700000000E+01 0.  1.
         25    2    1    2    0    0  0.00000000000E+00  0.00000000000E+00 -0.75948641493E+03  0.76970403735E+03  0.12499876259E+03 0.  0.
    9000005    1    3    3    0    0  0.29438892189E+02 -0.20111747343E+02 -0.63712421705E+02  0.73016460021E+02  0.10000000000E+01 0.  0.
    9000005    1    3    3    0    0 -0.29438892189E+02  0.20111747343E+02 -0.69577399323E+03  0.69668757733E+03  0.10000000000E+01 0.  0.
<mgrwt>
<rscale>  0 0.12499876E+03</rscale>
<asrwt>0</asrwt>
<pdfrwt beam="2">  1        4 0.11762994E+00 0.12499876E+03</pdfrwt>
<pdfrwt beam="1">  1       -4 0.78597156E-03 0.12499876E+03</pdfrwt>
<totfact> 0.39650048E+03</totfact>
</mgrwt>
</event>
<event>
 5    1  0.3289127E-002  0.1249999E+03  0.7818608E-02  0.1235069E+00
          4   -1    0    0  501    0  0.00000000000E+00  0.00000000000E+00  0.14947438516E+03  0.14947978030E+03  0.12700000000E+01 0. -1.
         -4   -1    0    0    0  501 -0.00000000000E+00 -0.00000000000E+00 -0.26111881828E+02  0.26142747993E+02  0.12700000000E+01 0. -1.
         25    2    1    2    0    0  0.00000000000E+00  0.00000000000E+00  0.12336250333E+03  0.17562252829E+03  0.12499986086E+03 0.  0.
    9000005    1    3    3    0    0  0.43639249646E+02 -0.39473590166E+02  0.32120058389E+02  0.67046600071E+02  0.10000000000E+01 0.  0.
    9000005    1    3    3    0    0 -0.43639249646E+02  0.39473590166E+02  0.91242444939E+02  0.10857592822E+03  0.10000000000E+01 0.  0.
<mgrwt>
<rscale>  0 0.12499986E+03</rscale>
<asrwt>0</asrwt>
<pdfrwt beam="1">  1        4 0.22998848E-01 0.12499986E+03</pdfrwt>
<pdfrwt beam="2">  1       -4 0.40200020E-02 0.12499986E+03</pdfrwt>
<totfact> 0.94411244E+03</totfact>
</mgrwt>
</event>
<event>
 5    1  0.3289127E-002  0.1250010E+03  0.7818608E-02  0.1235068E+00
         -4   -1    0    0    0  501 -0.00000000000E+00  0.00000000000E+00  0.47752047598E+01  0.49412023332E+01  0.12700000000E+01 0.  1.
          4   -1    0    0  501    0  0.00000000000E+00 -0.00000000000E+00 -0.80389921090E+03  0.80390021407E+03  0.12700000000E+01 0.  1.
         25    2    1    2    0    0  0.00000000000E+00  0.00000000000E+00 -0.79912400614E+03  0.80884141640E+03  0.12500103881E+03 0.  0.
    9000005    1    3    3    0    0 -0.59072508958E+01 -0.18022761892E+02 -0.78485808207E+03  0.78508784511E+03  0.10000000000E+01 0.  0.
    9000005    1    3    3    0    0  0.59072508958E+01  0.18022761892E+02 -0.14265924068E+02  0.23753571287E+02  0.10000000000E+01 0.  0.
<mgrwt>
<rscale>  0 0.12500104E+03</rscale>
<asrwt>0</asrwt>
<pdfrwt beam="2">  1        4 0.12368954E+00 0.12500104E+03</pdfrwt>
<pdfrwt beam="1">  1       -4 0.74749374E-03 0.12500104E+03</pdfrwt>
<totfact> 0.37872227E+03</totfact>
</mgrwt>
</event>
<event>
 5    1  0.3289127E-002  0.1250012E+03  0.7818608E-02  0.1235067E+00
          4   -1    0    0  501    0  0.00000000000E+00  0.00000000000E+00  0.65803638345E+03  0.65803760899E+03  0.12700000000E+01 0. -1.
         -4   -1    0    0    0  501 -0.00000000000E+00 -0.00000000000E+00 -0.58671676342E+01  0.60030455644E+01  0.12700000000E+01 0. -1.
         25    2    1    2    0    0  0.00000000000E+00  0.00000000000E+00  0.65216921582E+03  0.66404065456E+03  0.12500121936E+03 0.  0.
    9000005    1    3    3    0    0 -0.34740623348E+02 -0.50655753505E+02  0.38721268135E+03  0.39205557881E+03  0.10000000000E+01 0.  0.
    9000005    1    3    3    0    0  0.34740623348E+02  0.50655753505E+02  0.26495653446E+03  0.27198507575E+03  0.10000000000E+01 0.  0.
<mgrwt>
<rscale>  0 0.12500122E+03</rscale>
<asrwt>0</asrwt>
<pdfrwt beam="1">  1        4 0.10124696E+00 0.12500122E+03</pdfrwt>
<pdfrwt beam="2">  1       -4 0.91318721E-03 0.12500122E+03</pdfrwt>
<totfact> 0.45052825E+03</totfact>
</mgrwt>
</event>
<event>
 5    1  0.3289127E-002  0.1249989E+03  0.7818608E-02  0.1235071E+00
          4   -1    0    0  501    0  0.00000000000E+00  0.00000000000E+00  0.63242758932E+03  0.63242886448E+03  0.12700000000E+01 0.  1.
         -4   -1    0    0    0  501 -0.00000000000E+00 -0.00000000000E+00 -0.61099106203E+01  0.62405054113E+01  0.12700000000E+01 0.  1.
         25    2    1    2    0    0  0.00000000000E+00  0.00000000000E+00  0.62631767870E+03  0.63866936989E+03  0.12499891756E+03 0.  0.
    9000005    1    3    3    0    0 -0.70609018829E+01 -0.50083900840E+02  0.12564118149E+03  0.13544356738E+03  0.10000000000E+01 0.  0.
    9000005    1    3    3    0    0  0.70609018829E+01  0.50083900840E+02  0.50067649720E+03  0.50322580251E+03  0.10000000000E+01 0.  0.
<mgrwt>
<rscale>  0 0.12499892E+03</rscale>
<asrwt>0</asrwt>
<pdfrwt beam="1">  1        4 0.97306626E-01 0.12499892E+03</pdfrwt>
<pdfrwt beam="2">  1       -4 0.95013077E-03 0.12499892E+03</pdfrwt>
<totfact> 0.46515347E+03</totfact>
</mgrwt>
</event>
<event>
 5    1  0.3289127E-002  0.1249980E+03  0.7818608E-02  0.1235072E+00
         -4   -1    0    0    0  501 -0.00000000000E+00  0.00000000000E+00  0.62355231063E+02  0.62368162879E+02  0.12700000000E+01 0.  1.
          4   -1    0    0  501    0  0.00000000000E+00 -0.00000000000E+00 -0.62617211975E+02  0.62630089698E+02  0.12700000000E+01 0.  1.
         25    2    1    2    0    0  0.00000000000E+00  0.00000000000E+00 -0.26198091252E+00  0.12499825258E+03  0.12499797804E+03 0.  0.
    9000005    1    3    3    0    0  0.12471516431E+02  0.61213943188E+02 -0.16924244871E+01  0.62502398861E+02  0.10000000000E+01 0.  0.
    9000005    1    3    3    0    0 -0.12471516431E+02 -0.61213943188E+02  0.14304435746E+01  0.62495853715E+02  0.10000000000E+01 0.  0.
<mgrwt>
<rscale>  0 0.12499798E+03</rscale>
<asrwt>0</asrwt>
<pdfrwt beam="2">  1        4 0.96354026E-02 0.12499798E+03</pdfrwt>
<pdfrwt beam="1">  1       -4 0.95950978E-02 0.12499798E+03</pdfrwt>
<totfact> 0.10453378E+04</totfact>
</mgrwt>
</event>
<event>
 5    1  0.3289127E-002  0.1250004E+03  0.7818608E-02  0.1235069E+00
         -4   -1    0    0    0  501 -0.00000000000E+00  0.00000000000E+00  0.54016665059E+02  0.54031592648E+02  0.12700000000E+01 0.  1.
          4   -1    0    0  501    0  0.00000000000E+00 -0.00000000000E+00 -0.72285606883E+02  0.72296762462E+02  0.12700000000E+01 0.  1.
         25    2    1    2    0    0  0.00000000000E+00  0.00000000000E+00 -0.18268941824E+02  0.12632835511E+03  0.12500039628E+03 0.  0.
    9000005    1    3    3    0    0  0.21525755017E+02  0.55483626436E+02  0.10133323458E+02  0.60377770544E+02  0.10000000000E+01 0.  0.
    9000005    1    3    3    0    0 -0.21525755017E+02 -0.55483626436E+02 -0.28402265282E+02  0.65950584567E+02  0.10000000000E+01 0.  0.
<mgrwt>
<rscale>  0 0.12500040E+03</rscale>
<asrwt>0</asrwt>
<pdfrwt beam="2">  1        4 0.11122869E-01 0.12500040E+03</pdfrwt>
<pdfrwt beam="1">  1       -4 0.83122625E-02 0.12500040E+03</pdfrwt>
<totfact> 0.10423681E+04</totfact>
</mgrwt>
</event>
<event>
 5    1  0.3289127E-002  0.1249625E+03  0.7818608E-02  0.1235128E+00
          4   -1    0    0  501    0  0.00000000000E+00  0.00000000000E+00  0.10095499034E+03  0.10096297824E+03  0.12700000000E+01 0.  1.
         -4   -1    0    0    0  501 -0.00000000000E+00 -0.00000000000E+00 -0.38649835066E+02  0.38670694985E+02  0.12700000000E+01 0.  1.
         25    2    1    2    0    0  0.00000000000E+00  0.00000000000E+00  0.62305155273E+02  0.13963367322E+03  0.12496251567E+03 0.  0.
    9000005    1    3    3    0    0 -0.37451787187E+02  0.32607935246E+02 -0.11205656519E+02  0.50916407400E+02  0.10000000000E+01 0.  0.
    9000005    1    3    3    0    0  0.37451787187E+02 -0.32607935246E+02  0.73510811792E+02  0.88717265822E+02  0.10000000000E+01 0.  0.
<mgrwt>
<rscale>  0 0.12496252E+03</rscale>
<asrwt>0</asrwt>
<pdfrwt beam="1">  1        4 0.15533756E-01 0.12496252E+03</pdfrwt>
<pdfrwt beam="2">  1       -4 0.59483476E-02 0.12496252E+03</pdfrwt>
<totfact> 0.10149753E+04</totfact>
</mgrwt>
</event>
<event>
 5    1  0.3289127E-002  0.1250017E+03  0.7818608E-02  0.1235067E+00
          4   -1    0    0  501    0  0.00000000000E+00  0.00000000000E+00  0.36263499099E+02  0.36285730900E+02  0.12700000000E+01 0. -1.
         -4   -1    0    0    0  501 -0.00000000000E+00 -0.00000000000E+00 -0.10766253070E+03  0.10767002097E+03  0.12700000000E+01 0. -1.
         25    2    1    2    0    0  0.00000000000E+00  0.00000000000E+00 -0.71399031597E+02  0.14395575187E+03  0.12500174712E+03 0.  0.
    9000005    1    3    3    0    0  0.21939214823E+02  0.22682995809E+02  0.26419275514E+02  0.41168259189E+02  0.10000000000E+01 0.  0.
    9000005    1    3    3    0    0 -0.21939214823E+02 -0.22682995809E+02 -0.97818307111E+02  0.10278749268E+03  0.10000000000E+01 0.  0.
<mgrwt>
<rscale>  0 0.12500175E+03</rscale>
<asrwt>0</asrwt>
<pdfrwt beam="1">  1        4 0.55812862E-02 0.12500175E+03</pdfrwt>
<pdfrwt beam="2">  1       -4 0.16565752E-01 0.12500175E+03</pdfrwt>
<totfact> 0.10051853E+04</totfact>
</mgrwt>
</event>
<event>
 5    1  0.3289127E-002  0.1249998E+03  0.7818608E-02  0.1235070E+00
         -4   -1    0    0    0  501 -0.00000000000E+00  0.00000000000E+00  0.78819465354E+02  0.78829696299E+02  0.12700000000E+01 0.  1.
          4   -1    0    0  501    0  0.00000000000E+00 -0.00000000000E+00 -0.49537704874E+02  0.49553981718E+02  0.12700000000E+01 0.  1.
         25    2    1    2    0    0  0.00000000000E+00  0.00000000000E+00  0.29281760480E+02  0.12838367802E+03  0.12499978914E+03 0.  0.
    9000005    1    3    3    0    0 -0.27452111409E+02  0.23395749919E+02  0.67054297642E+02  0.76146295821E+02  0.10000000000E+01 0.  0.
    9000005    1    3    3    0    0  0.27452111409E+02 -0.23395749919E+02 -0.37772537162E+02  0.52237382196E+02  0.10000000000E+01 0.  0.
<mgrwt>
<rscale>  0 0.12499979E+03</rscale>
<asrwt>0</asrwt>
<pdfrwt beam="2">  1        4 0.76232244E-02 0.12499979E+03</pdfrwt>
<pdfrwt beam="1">  1       -4 0.12128111E-01 0.12499979E+03</pdfrwt>
<totfact> 0.10379259E+04</totfact>
</mgrwt>
</event>
<event>
 5    1  0.3289127E-002  0.1249987E+03  0.7818608E-02  0.1235071E+00
         -4   -1    0    0    0  501 -0.00000000000E+00  0.00000000000E+00  0.19606094406E+02  0.19647183967E+02  0.12700000000E+01 0. -1.
          4   -1    0    0  501    0  0.00000000000E+00 -0.00000000000E+00 -0.19898076295E+03  0.19898481581E+03  0.12700000000E+01 0. -1.
         25    2    1    2    0    0  0.00000000000E+00  0.00000000000E+00 -0.17937466854E+03  0.21863199978E+03  0.12499871844E+03 0.  0.
    9000005    1    3    3    0    0 -0.62266489875E+02  0.34536964174E+01 -0.82663517923E+02  0.10355337260E+03  0.10000000000E+01 0.  0.
    9000005    1    3    3    0    0  0.62266489875E+02 -0.34536964174E+01 -0.96711150620E+02  0.11507862718E+03  0.10000000000E+01 0.  0.
<mgrwt>
<rscale>  0 0.12499872E+03</rscale>
<asrwt>0</asrwt>
<pdfrwt beam="2">  1        4 0.30615896E-01 0.12499872E+03</pdfrwt>
<pdfrwt beam="1">  1       -4 0.30197948E-02 0.12499872E+03</pdfrwt>
<totfact> 0.87087775E+03</totfact>
</mgrwt>
</event>
<event>
 5    1  0.3289127E-002  0.1249991E+03  0.7818608E-02  0.1235071E+00
         -4   -1    0    0    0  501 -0.00000000000E+00  0.00000000000E+00  0.77213904274E+01  0.78251370680E+01  0.12700000000E+01 0. -1.
          4   -1    0    0  501    0  0.00000000000E+00 -0.00000000000E+00 -0.50241197100E+03  0.50241357615E+03  0.12700000000E+01 0. -1.
         25    2    1    2    0    0  0.00000000000E+00  0.00000000000E+00 -0.49469058057E+03  0.51023871322E+03  0.12499909585E+03 0.  0.
    9000005    1    3    3    0    0 -0.19379792417E+02 -0.37934263693E+02 -0.60706066571E+02  0.74167454011E+02  0.10000000000E+01 0.  0.
    9000005    1    3    3    0    0  0.19379792417E+02  0.37934263693E+02 -0.43398451400E+03  0.43607125921E+03  0.10000000000E+01 0.  0.
<mgrwt>
<rscale>  0 0.12499910E+03</rscale>
<asrwt>0</asrwt>
<pdfrwt beam="2">  1        4 0.77302228E-01 0.12499910E+03</pdfrwt>
<pdfrwt beam="1">  1       -4 0.11960106E-02 0.12499910E+03</pdfrwt>
<totfact> 0.55079734E+03</totfact>
</mgrwt>
</event>
<event>
 5    1  0.3289127E-002  0.1250008E+03  0.7818608E-02  0.1235068E+00
          4   -1    0    0  501    0  0.00000000000E+00  0.00000000000E+00  0.12418752030E+02  0.12483521217E+02  0.12700000000E+01 0. -1.
         -4   -1    0    0    0  501 -0.00000000000E+00 -0.00000000000E+00 -0.31366440080E+03  0.31366697184E+03  0.12700000000E+01 0. -1.
         25    2    1    2    0    0  0.00000000000E+00  0.00000000000E+00 -0.30124564877E+03  0.32615049306E+03  0.12500081289E+03 0.  0.
    9000005    1    3    3    0    0  0.26878958850E+02  0.26665000692E+02 -0.28034429879E+03  0.28289119208E+03  0.10000000000E+01 0.  0.
    9000005    1    3    3    0    0 -0.26878958850E+02 -0.26665000692E+02 -0.20901349973E+02  0.43259300982E+02  0.10000000000E+01 0.  0.
<mgrwt>
<rscale>  0 0.12500081E+03</rscale>
<asrwt>0</asrwt>
<pdfrwt beam="1">  1        4 0.19157575E-02 0.12500081E+03</pdfrwt>
<pdfrwt beam="2">  1       -4 0.48261236E-01 0.12500081E+03</pdfrwt>
<totfact> 0.72429226E+03</totfact>
</mgrwt>
</event>
<event>
 5    1  0.3289127E-002  0.1249999E+03  0.7818608E-02  0.1235070E+00
          4   -1    0    0  501    0  0.00000000000E+00  0.00000000000E+00  0.22330811833E+02  0.22366896457E+02  0.12700000000E+01 0.  1.
         -4   -1    0    0    0  501 -0.00000000000E+00 -0.00000000000E+00 -0.17474646071E+03  0.17475107563E+03  0.12700000000E+01 0.  1.
         25    2    1    2    0    0  0.00000000000E+00  0.00000000000E+00 -0.15241564888E+03  0.19711797208E+03  0.12499985958E+03 0.  0.
    9000005    1    3    3    0    0 -0.55239596359E+02  0.79914937382E+01 -0.12052993319E+03  0.13282974732E+03  0.10000000000E+01 0.  0.
    9000005    1    3    3    0    0  0.55239596359E+02 -0.79914937382E+01 -0.31885715692E+02  0.64288224764E+02  0.10000000000E+01 0.  0.
<mgrwt>
<rscale>  0 0.12499986E+03</rscale>
<asrwt>0</asrwt>
<pdfrwt beam="1">  1        4 0.34386404E-02 0.12499986E+03</pdfrwt>
<pdfrwt beam="2">  1       -4 0.26887201E-01 0.12499986E+03</pdfrwt>
<totfact> 0.90623634E+03</totfact>
</mgrwt>
</event>
<event>
 5    1  0.3289127E-002  0.1249986E+03  0.7818608E-02  0.1235071E+00
         -4   -1    0    0    0  501 -0.00000000000E+00  0.00000000000E+00  0.10130080161E+02  0.10209379220E+02  0.12700000000E+01 0.  1.
          4   -1    0    0  501    0  0.00000000000E+00 -0.00000000000E+00 -0.38401684717E+03  0.38401894720E+03  0.12700000000E+01 0.  1.
         25    2    1    2    0    0  0.00000000000E+00  0.00000000000E+00 -0.37388676701E+03  0.39422832642E+03  0.12499863523E+03 0.  0.
    9000005    1    3    3    0    0 -0.46335899990E+01  0.55709486047E+02 -0.98852498283E+02  0.11356862863E+03  0.10000000000E+01 0.  0.
    9000005    1    3    3    0    0  0.46335899990E+01 -0.55709486047E+02 -0.27503426873E+03  0.28065969780E+03  0.10000000000E+01 0.  0.
<mgrwt>
<rscale>  0 0.12499864E+03</rscale>
<asrwt>0</asrwt>
<pdfrwt beam="2">  1        4 0.59085765E-01 0.12499864E+03</pdfrwt>
<pdfrwt beam="1">  1       -4 0.15647356E-02 0.12499864E+03</pdfrwt>
<totfact> 0.65120000E+03</totfact>
</mgrwt>
</event>
<event>
 5    1  0.3289127E-002  0.1250159E+03  0.7818608E-02  0.1235044E+00
          4   -1    0    0  501    0  0.00000000000E+00  0.00000000000E+00  0.15234247514E+03  0.15234776871E+03  0.12700000000E+01 0.  1.
         -4   -1    0    0    0  501 -0.00000000000E+00 -0.00000000000E+00 -0.25626309705E+02  0.25657760017E+02  0.12700000000E+01 0.  1.
         25    2    1    2    0    0  0.00000000000E+00  0.00000000000E+00  0.12671616543E+03  0.17800552873E+03  0.12501592569E+03 0.  0.
    9000005    1    3    3    0    0  0.77436849416E+01  0.61155635886E+02  0.78036234327E+02  0.99451648177E+02  0.10000000000E+01 0.  0.
    9000005    1    3    3    0    0 -0.77436849416E+01 -0.61155635886E+02  0.48679931104E+02  0.78553880549E+02  0.10000000000E+01 0.  0.
<mgrwt>
<rscale>  0 0.12501593E+03</rscale>
<asrwt>0</asrwt>
<pdfrwt beam="1">  1        4 0.23440130E-01 0.12501593E+03</pdfrwt>
<pdfrwt beam="2">  1       -4 0.39453358E-02 0.12501593E+03</pdfrwt>
<totfact> 0.93943695E+03</totfact>
</mgrwt>
</event>
<event>
 5    1  0.3289127E-002  0.1249847E+03  0.7818608E-02  0.1235093E+00
         -4   -1    0    0    0  501 -0.00000000000E+00  0.00000000000E+00  0.18622719208E+02  0.18665973607E+02  0.12700000000E+01 0. -1.
          4   -1    0    0  501    0  0.00000000000E+00 -0.00000000000E+00 -0.20941750579E+03  0.20942135667E+03  0.12700000000E+01 0. -1.
         25    2    1    2    0    0  0.00000000000E+00  0.00000000000E+00 -0.19079478658E+03  0.22808733028E+03  0.12498471766E+03 0.  0.
    9000005    1    3    3    0    0 -0.14239976983E+02  0.37410873362E+02 -0.18295455498E+03  0.18728512909E+03  0.10000000000E+01 0.  0.
    9000005    1    3    3    0    0  0.14239976983E+02 -0.37410873362E+02 -0.78402315964E+01  0.40802201187E+02  0.10000000000E+01 0.  0.
<mgrwt>
<rscale>  0 0.12498472E+03</rscale>
<asrwt>0</asrwt>
<pdfrwt beam="2">  1        4 0.32221700E-01 0.12498472E+03</pdfrwt>
<pdfrwt beam="1">  1       -4 0.28686574E-02 0.12498472E+03</pdfrwt>
<totfact> 0.85633358E+03</totfact>
</mgrwt>
</event>
<event>
 4    1  0.3289127E-002  0.1250855E+03  0.7818608E-02  0.1234936E+00
         -4   -1    0    0    0  501 -0.00000000000E+00  0.00000000000E+00  0.79215065407E+02  0.79225245266E+02  0.12700000000E+01 0. -1.
          4   -1    0    0  501    0  0.00000000000E+00 -0.00000000000E+00 -0.49357920926E+02  0.49374257039E+02  0.12700000000E+01 0. -1.
    9000005    1    1    2    0    0 -0.16268180709E+02  0.57455393799E+02 -0.41624145070E+01  0.59867367361E+02  0.10000000000E+01 0.  0.
    9000005    1    1    2    0    0  0.16268180709E+02 -0.57455393799E+02  0.34019558988E+02  0.68732134944E+02  0.10000000000E+01 0.  0.
<mgrwt>
<rscale>  0 0.12508550E+03</rscale>
<asrwt>0</asrwt>
<pdfrwt beam="2">  1        4 0.75955660E-02 0.12508550E+03</pdfrwt>
<pdfrwt beam="1">  1       -4 0.12188973E-01 0.12508550E+03</pdfrwt>
<totfact> 0.10354562E+04</totfact>
</mgrwt>
</event>
<event>
 5    1  0.3289127E-002  0.1250065E+03  0.7818608E-02  0.1235059E+00
          4   -1    0    0  501    0  0.00000000000E+00  0.00000000000E+00  0.93303582179E+03  0.93303668612E+03  0.12700000000E+01 0. -1.
         -4   -1    0    0    0  501 -0.00000000000E+00 -0.00000000000E+00 -0.40898459394E+01  0.42824922426E+01  0.12700000000E+01 0. -1.
         25    2    1    2    0    0  0.00000000000E+00  0.00000000000E+00  0.92894597585E+03  0.93731917836E+03  0.12500646413E+03 0.  0.
    9000005    1    3    3    0    0 -0.58722714567E+02  0.87415475359E+01  0.31813726840E+03  0.32363110698E+03  0.10000000000E+01 0.  0.
    9000005    1    3    3    0    0  0.58722714567E+02 -0.87415475359E+01  0.61080870745E+03  0.61368807139E+03  0.10000000000E+01 0.  0.
<mgrwt>
<rscale>  0 0.12500646E+03</rscale>
<asrwt>0</asrwt>
<pdfrwt beam="1">  1        4 0.14355916E+00 0.12500646E+03</pdfrwt>
<pdfrwt beam="2">  1       -4 0.64409114E-03 0.12500646E+03</pdfrwt>
<totfact> 0.32765821E+03</totfact>
</mgrwt>
</event>
<event>
 5    1  0.3289127E-002  0.1250053E+03  0.7818608E-02  0.1235061E+00
          4   -1    0    0  501    0  0.00000000000E+00  0.00000000000E+00  0.86136501772E+02  0.86145863728E+02  0.12700000000E+01 0.  1.
         -4   -1    0    0    0  501 -0.00000000000E+00 -0.00000000000E+00 -0.45332644885E+02  0.45350431004E+02  0.12700000000E+01 0.  1.
         25    2    1    2    0    0  0.00000000000E+00  0.00000000000E+00  0.40803856887E+02  0.13149629473E+03  0.12500528305E+03 0.  0.
    9000005    1    3    3    0    0  0.33150778987E+02  0.22700050172E+02 -0.29951312701E+02  0.50123323491E+02  0.10000000000E+01 0.  0.
    9000005    1    3    3    0    0 -0.33150778987E+02 -0.22700050172E+02  0.70755169588E+02  0.81372971241E+02  0.10000000000E+01 0.  0.
<mgrwt>
<rscale>  0 0.12500528E+03</rscale>
<asrwt>0</asrwt>
<pdfrwt beam="1">  1        4 0.13253858E-01 0.12500528E+03</pdfrwt>
<pdfrwt beam="2">  1       -4 0.69763414E-02 0.12500528E+03</pdfrwt>
<totfact> 0.10311232E+04</totfact>
</mgrwt>
</event>
<event>
 5    1  0.3289127E-002  0.1249995E+03  0.7818608E-02  0.1235070E+00
          4   -1    0    0  501    0  0.00000000000E+00  0.00000000000E+00  0.44692811354E+02  0.44710852002E+02  0.12700000000E+01 0. -1.
         -4   -1    0    0    0  501 -0.00000000000E+00 -0.00000000000E+00 -0.87361262106E+02  0.87370492826E+02  0.12700000000E+01 0. -1.
         25    2    1    2    0    0  0.00000000000E+00  0.00000000000E+00 -0.42668450751E+02  0.13208134483E+03  0.12499953985E+03 0.  0.
    9000005    1    3    3    0    0  0.17078760263E+02 -0.45501479710E+02  0.20174318246E+02  0.52631471807E+02  0.10000000000E+01 0.  0.
    9000005    1    3    3    0    0 -0.17078760263E+02  0.45501479710E+02 -0.62842768997E+02  0.79449873021E+02  0.10000000000E+01 0.  0.
<mgrwt>
<rscale>  0 0.12499954E+03</rscale>
<asrwt>0</asrwt>
<pdfrwt beam="1">  1        4 0.68779149E-02 0.12499954E+03</pdfrwt>
<pdfrwt beam="2">  1       -4 0.13442292E-01 0.12499954E+03</pdfrwt>
<totfact> 0.10300069E+04</totfact>
</mgrwt>
</event>
<event>
 5    1  0.3289127E-002  0.1250006E+03  0.7818608E-02  0.1235068E+00
          4   -1    0    0  501    0  0.00000000000E+00  0.00000000000E+00  0.34771023739E+03  0.34771255670E+03  0.12700000000E+01 0.  1.
         -4   -1    0    0    0  501 -0.00000000000E+00 -0.00000000000E+00 -0.11196063949E+02  0.11267863504E+02  0.12700000000E+01 0.  1.
         25    2    1    2    0    0  0.00000000000E+00  0.00000000000E+00  0.33651417345E+03  0.35898042021E+03  0.12500061265E+03 0.  0.
    9000005    1    3    3    0    0 -0.61120835255E+02 -0.26089626568E+01  0.20489121792E+03  0.21383164960E+03  0.10000000000E+01 0.  0.
    9000005    1    3    3    0    0  0.61120835255E+02  0.26089626568E+01  0.13162295552E+03  0.14514877061E+03  0.10000000000E+01 0.  0.
<mgrwt>
<rscale>  0 0.12500061E+03</rscale>
<asrwt>0</asrwt>
<pdfrwt beam="1">  1        4 0.53499585E-01 0.12500061E+03</pdfrwt>
<pdfrwt beam="2">  1       -4 0.17281728E-02 0.12500061E+03</pdfrwt>
<totfact> 0.68746835E+03</totfact>
</mgrwt>
</event>
<event>
 5    1  0.3289127E-002  0.1250031E+03  0.7818608E-02  0.1235064E+00
         -4   -1    0    0    0  501 -0.00000000000E+00  0.00000000000E+00  0.45052775887E+02  0.45070672450E+02  0.12700000000E+01 0.  1.
          4   -1    0    0  501    0  0.00000000000E+00 -0.00000000000E+00 -0.86668399185E+02  0.86677703691E+02  0.12700000000E+01 0.  1.
         25    2    1    2    0    0  0.00000000000E+00  0.00000000000E+00 -0.41615623298E+02  0.13174837614E+03  0.12500309802E+03 0.  0.
    9000005    1    3    3    0    0  0.53205119009E+02  0.19945351415E+02 -0.48227853380E+02  0.74535411540E+02  0.10000000000E+01 0.  0.
    9000005    1    3    3    0    0 -0.53205119009E+02 -0.19945351415E+02  0.66122300826E+01  0.57212964601E+02  0.10000000000E+01 0.  0.
<mgrwt>
<rscale>  0 0.12500310E+03</rscale>
<asrwt>0</asrwt>
<pdfrwt beam="2">  1        4 0.13335692E-01 0.12500310E+03</pdfrwt>
<pdfrwt beam="1">  1       -4 0.69332887E-02 0.12500310E+03</pdfrwt>
<totfact> 0.10306352E+04</totfact>
</mgrwt>
</event>
<event>
 5    1  0.3289127E-002  0.1250025E+03  0.7818608E-02  0.1235065E+00
          4   -1    0    0  501    0  0.00000000000E+00  0.00000000000E+00  0.11906112998E+02  0.11973655528E+02  0.12700000000E+01 0. -1.
         -4   -1    0    0    0  501 -0.00000000000E+00 -0.00000000000E+00 -0.32710420409E+03  0.32710666950E+03  0.12700000000E+01 0. -1.
         25    2    1    2    0    0  0.00000000000E+00  0.00000000000E+00 -0.31519809109E+03  0.33908032503E+03  0.12500252075E+03 0.  0.
    9000005    1    3    3    0    0 -0.18170184248E+02  0.14922909372E+02 -0.31466136875E+03  0.31554021266E+03  0.10000000000E+01 0.  0.
    9000005    1    3    3    0    0  0.18170184248E+02 -0.14922909372E+02 -0.53672234183E+00  0.23540112374E+02  0.10000000000E+01 0.  0.
<mgrwt>
<rscale>  0 0.12500252E+03</rscale>
<asrwt>0</asrwt>
<pdfrwt beam="1">  1        4 0.18370952E-02 0.12500252E+03</pdfrwt>
<pdfrwt beam="2">  1       -4 0.50329102E-01 0.12500252E+03</pdfrwt>
<totfact> 0.70938842E+03</totfact>
</mgrwt>
</event>
<event>
 5    1  0.3289127E-002  0.1250026E+03  0.7818608E-02  0.1235065E+00
          4   -1    0    0  501    0  0.00000000000E+00  0.00000000000E+00  0.12030934717E+03  0.12031605012E+03  0.12700000000E+01 0.  1.
         -4   -1    0    0    0  501 -0.00000000000E+00 -0.00000000000E+00 -0.32449708646E+02  0.32474551439E+02  0.12700000000E+01 0.  1.
         25    2    1    2    0    0  0.00000000000E+00  0.00000000000E+00  0.87859638528E+02  0.15279060156E+03  0.12500260735E+03 0.  0.
    9000005    1    3    3    0    0  0.46030629499E+02  0.32798085378E+02  0.11340474653E+02  0.57655352067E+02  0.10000000000E+01 0.  0.
    9000005    1    3    3    0    0 -0.46030629499E+02 -0.32798085378E+02  0.76519163875E+02  0.95135249496E+02  0.10000000000E+01 0.  0.
<mgrwt>
<rscale>  0 0.12500261E+03</rscale>
<asrwt>0</asrwt>
<pdfrwt beam="1">  1        4 0.18511557E-01 0.12500261E+03</pdfrwt>
<pdfrwt beam="2">  1       -4 0.49946895E-02 0.12500261E+03</pdfrwt>
<totfact> 0.98744522E+03</totfact>
</mgrwt>
</event>
<event>
 5    1  0.3289127E-002  0.1249991E+03  0.7818608E-02  0.1235071E+00
          4   -1    0    0  501    0  0.00000000000E+00  0.00000000000E+00  0.94141917304E+03  0.94142002967E+03  0.12700000000E+01 0. -1.
         -4   -1    0    0    0  501 -0.00000000000E+00 -0.00000000000E+00 -0.40512012803E+01  0.42456014666E+01  0.12700000000E+01 0. -1.
         25    2    1    2    0    0  0.00000000000E+00  0.00000000000E+00  0.93736797176E+03  0.94566563113E+03  0.12499908574E+03 0.  0.
    9000005    1    3    3    0    0 -0.37983750047E+01 -0.56346405446E+02  0.26626972074E+03  0.27219461648E+03  0.10000000000E+01 0.  0.
    9000005    1    3    3    0    0  0.37983750047E+01  0.56346405446E+02  0.67109825102E+03  0.67347101465E+03  0.10000000000E+01 0.  0.
<mgrwt>
<rscale>  0 0.12499909E+03</rscale>
<asrwt>0</asrwt>
<pdfrwt beam="1">  1        4 0.14484885E+00 0.12499909E+03</pdfrwt>
<pdfrwt beam="2">  1       -4 0.63828101E-03 0.12499909E+03</pdfrwt>
<totfact> 0.32470981E+03</totfact>
</mgrwt>
</event>
<event>
 5    1  0.3289127E-002  0.1250074E+03  0.7818608E-02  0.1235058E+00
         -4   -1    0    0    0  501 -0.00000000000E+00  0.00000000000E+00  0.28100163801E+03  0.28100450790E+03  0.12700000000E+01 0. -1.
          4   -1    0    0  501    0  0.00000000000E+00 -0.00000000000E+00 -0.13870858432E+02  0.13928876970E+02  0.12700000000E+01 0. -1.
         25    2    1    2    0    0  0.00000000000E+00  0.00000000000E+00  0.26713077957E+03  0.29493338487E+03  0.12500739225E+03 0.  0.
    9000005    1    3    3    0    0  0.22843088438E+01  0.37596810951E+02  0.25122403459E+03  0.25403396194E+03  0.10000000000E+01 0.  0.
    9000005    1    3    3    0    0 -0.22843088438E+01 -0.37596810951E+02  0.15906744982E+02  0.40899422936E+02  0.10000000000E+01 0.  0.
<mgrwt>
<rscale>  0 0.12500739E+03</rscale>
<asrwt>0</asrwt>
<pdfrwt beam="2">  1        4 0.21386619E-02 0.12500739E+03</pdfrwt>
<pdfrwt beam="1">  1       -4 0.43235705E-01 0.12500739E+03</pdfrwt>
<totfact> 0.76226297E+03</totfact>
</mgrwt>
</event>
<event>
 5    1  0.3289127E-002  0.1250000E+03  0.7818608E-02  0.1235069E+00
          4   -1    0    0  501    0  0.00000000000E+00  0.00000000000E+00  0.45079746681E+03  0.45079925575E+03  0.12700000000E+01 0. -1.
         -4   -1    0    0    0  501 -0.00000000000E+00 -0.00000000000E+00 -0.86168538320E+01  0.87099408702E+01  0.12700000000E+01 0. -1.
         25    2    1    2    0    0  0.00000000000E+00  0.00000000000E+00  0.44218061298E+03  0.45950919662E+03  0.12500002913E+03 0.  0.
    9000005    1    3    3    0    0 -0.53520105788E+00  0.59052259798E+02  0.29622944802E+03  0.30206016238E+03  0.10000000000E+01 0.  0.
    9000005    1    3    3    0    0  0.53520105788E+00 -0.59052259798E+02  0.14595116497E+03  0.15744903424E+03  0.10000000000E+01 0.  0.
<mgrwt>
<rscale>  0 0.12500003E+03</rscale>
<asrwt>0</asrwt>
<pdfrwt beam="1">  1        4 0.69360738E-01 0.12500003E+03</pdfrwt>
<pdfrwt beam="2">  1       -4 0.13329683E-02 0.12500003E+03</pdfrwt>
<totfact> 0.59148745E+03</totfact>
</mgrwt>
</event>
<event>
 5    1  0.3289127E-002  0.1249961E+03  0.7818608E-02  0.1235075E+00
          4   -1    0    0  501    0  0.00000000000E+00  0.00000000000E+00  0.41142847082E+02  0.41162443635E+02  0.12700000000E+01 0. -1.
         -4   -1    0    0    0  501 -0.00000000000E+00 -0.00000000000E+00 -0.94891291590E+02  0.94899789882E+02  0.12700000000E+01 0. -1.
         25    2    1    2    0    0  0.00000000000E+00  0.00000000000E+00 -0.53748444507E+02  0.13606223352E+03  0.12499614435E+03 0.  0.
    9000005    1    3    3    0    0 -0.66923380064E+01 -0.60928359345E+02 -0.13633604561E+02  0.62800696921E+02  0.10000000000E+01 0.  0.
    9000005    1    3    3    0    0  0.66923380064E+01  0.60928359345E+02 -0.40114839946E+02  0.73261536596E+02  0.10000000000E+01 0.  0.
<mgrwt>
<rscale>  0 0.12499614E+03</rscale>
<asrwt>0</asrwt>
<pdfrwt beam="1">  1        4 0.63318299E-02 0.12499614E+03</pdfrwt>
<pdfrwt beam="2">  1       -4 0.14600821E-01 0.12499614E+03</pdfrwt>
<totfact> 0.10216618E+04</totfact>
</mgrwt>
</event>
<event>
 4    1  0.3289127E-002  0.1260002E+03  0.7818608E-02  0.1233514E+00
         -4   -1    0    0    0  501 -0.00000000000E+00  0.00000000000E+00  0.41763289081E+03  0.41763482180E+03  0.12700000000E+01 0.  1.
          4   -1    0    0  501    0  0.00000000000E+00 -0.00000000000E+00 -0.94592085503E+01  0.95440833189E+01  0.12700000000E+01 0.  1.
    9000005    1    1    2    0    0 -0.61788273233E+02 -0.91719267359E+01  0.17652291854E+03  0.18725185104E+03  0.10000000000E+01 0.  0.
    9000005    1    1    2    0    0  0.61788273233E+02  0.91719267359E+01  0.23165076372E+03  0.23992705408E+03  0.10000000000E+01 0.  0.
<mgrwt>
<rscale>  0 0.12600025E+03</rscale>
<asrwt>0</asrwt>
<pdfrwt beam="2">  1        4 0.14619401E-02 0.12600025E+03</pdfrwt>
<pdfrwt beam="1">  1       -4 0.64257896E-01 0.12600025E+03</pdfrwt>
<totfact> 0.60644885E+03</totfact>
</mgrwt>
</event>
<event>
 5    1  0.3289127E-002  0.1250005E+03  0.7818608E-02  0.1235069E+00
          4   -1    0    0  501    0  0.00000000000E+00  0.00000000000E+00  0.24205466903E+03  0.24205800069E+03  0.12700000000E+01 0.  1.
         -4   -1    0    0    0  501 -0.00000000000E+00 -0.00000000000E+00 -0.16109576642E+02  0.16159559387E+02  0.12700000000E+01 0.  1.
         25    2    1    2    0    0  0.00000000000E+00  0.00000000000E+00  0.22594509239E+03  0.25821756008E+03  0.12500049423E+03 0.  0.
    9000005    1    3    3    0    0 -0.30660619802E+02  0.54155364471E+02  0.10121350549E+03  0.11881940415E+03  0.10000000000E+01 0.  0.
    9000005    1    3    3    0    0  0.30660619802E+02 -0.54155364471E+02  0.12473158689E+03  0.13939815593E+03  0.10000000000E+01 0.  0.
<mgrwt>
<rscale>  0 0.12500049E+03</rscale>
<asrwt>0</asrwt>
<pdfrwt beam="1">  1        4 0.37243280E-01 0.12500049E+03</pdfrwt>
<pdfrwt beam="2">  1       -4 0.24824975E-02 0.12500049E+03</pdfrwt>
<totfact> 0.81155960E+03</totfact>
</mgrwt>
</event>
<event>
 5    1  0.3289127E-002  0.1249954E+03  0.7818608E-02  0.1235077E+00
         -4   -1    0    0    0  501 -0.00000000000E+00  0.00000000000E+00  0.56853918310E+02  0.56868101139E+02  0.12700000000E+01 0. -1.
          4   -1    0    0  501    0  0.00000000000E+00 -0.00000000000E+00 -0.68673079750E+02  0.68684822067E+02  0.12700000000E+01 0. -1.
         25    2    1    2    0    0  0.00000000000E+00  0.00000000000E+00 -0.11819161440E+02  0.12555292321E+03  0.12499537571E+03 0.  0.
    9000005    1    3    3    0    0 -0.17659762429E+02  0.59912546976E+02 -0.78102400745E+01  0.62955383759E+02  0.10000000000E+01 0.  0.
    9000005    1    3    3    0    0  0.17659762429E+02 -0.59912546976E+02 -0.40089213655E+01  0.62597539447E+02  0.10000000000E+01 0.  0.
<mgrwt>
<rscale>  0 0.12499538E+03</rscale>
<asrwt>0</asrwt>
<pdfrwt beam="2">  1        4 0.10567083E-01 0.12499538E+03</pdfrwt>
<pdfrwt beam="1">  1       -4 0.87487509E-02 0.12499538E+03</pdfrwt>
<totfact> 0.10441875E+04</totfact>
</mgrwt>
</event>
<event>
 5    1  0.3289127E-002  0.1249980E+03  0.7818608E-02  0.1235072E+00
         -4   -1    0    0    0  501 -0.00000000000E+00  0.00000000000E+00  0.93980851554E+03  0.93980937364E+03  0.12700000000E+01 0.  1.
          4   -1    0    0  501    0  0.00000000000E+00 -0.00000000000E+00 -0.40584048101E+01  0.42524757028E+01  0.12700000000E+01 0.  1.
         25    2    1    2    0    0  0.00000000000E+00  0.00000000000E+00  0.93575011073E+03  0.94406184934E+03  0.12499802260E+03 0.  0.
    9000005    1    3    3    0    0 -0.85622060397E+01  0.21949504949E+02  0.30733664238E+02  0.38738227338E+02  0.10000000000E+01 0.  0.
    9000005    1    3    3    0    0  0.85622060397E+01 -0.21949504949E+02  0.90501644649E+03  0.90532362200E+03  0.10000000000E+01 0.  0.
<mgrwt>
<rscale>  0 0.12499802E+03</rscale>
<asrwt>0</asrwt>
<pdfrwt beam="2">  1        4 0.63936337E-03 0.12499802E+03</pdfrwt>
<pdfrwt beam="1">  1       -4 0.14460118E+00 0.12499802E+03</pdfrwt>
<totfact> 0.32529085E+03</totfact>
</mgrwt>
</event>
<event>
 5    1  0.3289127E-002  0.1250030E+03  0.7818608E-02  0.1235065E+00
          4   -1    0    0  501    0  0.00000000000E+00  0.00000000000E+00  0.11117293319E+03  0.11118018696E+03  0.12700000000E+01 0.  1.
         -4   -1    0    0    0  501 -0.00000000000E+00 -0.00000000000E+00 -0.35118530099E+02  0.35141486257E+02  0.12700000000E+01 0.  1.
         25    2    1    2    0    0  0.00000000000E+00  0.00000000000E+00  0.76054403086E+02  0.14632167322E+03  0.12500303926E+03 0.  0.
    9000005    1    3    3    0    0  0.44660323648E+02 -0.26485219169E+02 -0.26806522470E+01  0.52001896496E+02  0.10000000000E+01 0.  0.
    9000005    1    3    3    0    0 -0.44660323648E+02  0.26485219169E+02  0.78735055333E+02  0.94319776723E+02  0.10000000000E+01 0.  0.
<mgrwt>
<rscale>  0 0.12500304E+03</rscale>
<asrwt>0</asrwt>
<pdfrwt beam="1">  1        4 0.17105852E-01 0.12500304E+03</pdfrwt>
<pdfrwt beam="2">  1       -4 0.54051747E-02 0.12500304E+03</pdfrwt>
<totfact> 0.10003519E+04</totfact>
</mgrwt>
</event>
<event>
 5    1  0.3289127E-002  0.1250031E+03  0.7818608E-02  0.1235064E+00
          4   -1    0    0  501    0  0.00000000000E+00  0.00000000000E+00  0.33298070158E+01  0.35637781584E+01  0.12700000000E+01 0.  1.
         -4   -1    0    0    0  501 -0.00000000000E+00 -0.00000000000E+00 -0.11331221050E+04  0.11331228167E+04  0.12700000000E+01 0.  1.
         25    2    1    2    0    0  0.00000000000E+00  0.00000000000E+00 -0.11297922980E+04  0.11366865949E+04  0.12500311340E+03 0.  0.
    9000005    1    3    3    0    0  0.38925211130E+02  0.38397533325E+02 -0.28969870031E+03  0.29481499213E+03  0.10000000000E+01 0.  0.
    9000005    1    3    3    0    0 -0.38925211130E+02 -0.38397533325E+02 -0.84009359771E+03  0.84187160276E+03  0.10000000000E+01 0.  0.
<mgrwt>
<rscale>  0 0.12500311E+03</rscale>
<asrwt>0</asrwt>
<pdfrwt beam="1">  1        4 0.53033143E-03 0.12500311E+03</pdfrwt>
<pdfrwt beam="2">  1       -4 0.17434423E+00 0.12500311E+03</pdfrwt>
<totfact> 0.26430795E+03</totfact>
</mgrwt>
</event>
<event>
 5    1  0.3289127E-002  0.1250155E+03  0.7818608E-02  0.1235045E+00
         -4   -1    0    0    0  501 -0.00000000000E+00  0.00000000000E+00  0.18748557923E+03  0.18748988058E+03  0.12700000000E+01 0. -1.
          4   -1    0    0  501    0  0.00000000000E+00 -0.00000000000E+00 -0.20816206146E+02  0.20854911611E+02  0.12700000000E+01 0. -1.
         25    2    1    2    0    0  0.00000000000E+00  0.00000000000E+00  0.16666937308E+03  0.20834479219E+03  0.12501548907E+03 0.  0.
    9000005    1    3    3    0    0 -0.10160203698E+02  0.58818731462E+02  0.11421518671E+03  0.12887583864E+03  0.10000000000E+01 0.  0.
    9000005    1    3    3    0    0  0.10160203698E+02 -0.58818731462E+02  0.52454186373E+02  0.79468953548E+02  0.10000000000E+01 0.  0.
<mgrwt>
<rscale>  0 0.12501549E+03</rscale>
<asrwt>0</asrwt>
<pdfrwt beam="2">  1        4 0.32058014E-02 0.12501549E+03</pdfrwt>
<pdfrwt beam="1">  1       -4 0.28847244E-01 0.12501549E+03</pdfrwt>
<totfact> 0.88716183E+03</totfact>
</mgrwt>
</event>
<event>
 5    1  0.3289127E-002  0.1249992E+03  0.7818608E-02  0.1235070E+00
          4   -1    0    0  501    0  0.00000000000E+00  0.00000000000E+00  0.27519522972E+02  0.27548812037E+02  0.12700000000E+01 0. -1.
         -4   -1    0    0    0  501 -0.00000000000E+00 -0.00000000000E+00 -0.14183532939E+03  0.14184101509E+03  0.12700000000E+01 0. -1.
         25    2    1    2    0    0  0.00000000000E+00  0.00000000000E+00 -0.11431580642E+03  0.16938982713E+03  0.12499923975E+03 0.  0.
    9000005    1    3    3    0    0  0.51005537927E+01 -0.19396716191E+02 -0.13736211682E+03  0.13882218621E+03  0.10000000000E+01 0.  0.
    9000005    1    3    3    0    0 -0.51005537927E+01  0.19396716191E+02  0.23046310404E+02  0.30567640916E+02  0.10000000000E+01 0.  0.
<mgrwt>
<rscale>  0 0.12499924E+03</rscale>
<asrwt>0</asrwt>
<pdfrwt beam="1">  1        4 0.42364632E-02 0.12499924E+03</pdfrwt>
<pdfrwt beam="2">  1       -4 0.21823510E-01 0.12499924E+03</pdfrwt>
<totfact> 0.95564058E+03</totfact>
</mgrwt>
</event>
<event>
 5    1  0.3289127E-002  0.1249996E+03  0.7818608E-02  0.1235070E+00
          4   -1    0    0  501    0  0.00000000000E+00  0.00000000000E+00  0.32423550297E+02  0.32448413118E+02  0.12700000000E+01 0. -1.
         -4   -1    0    0    0  501 -0.00000000000E+00 -0.00000000000E+00 -0.12040059362E+03  0.12040729149E+03  0.12700000000E+01 0. -1.
         25    2    1    2    0    0  0.00000000000E+00  0.00000000000E+00 -0.87977043324E+02  0.15285570461E+03  0.12499962512E+03 0.  0.
    9000005    1    3    3    0    0 -0.56420967300E+02  0.23277029442E+02 -0.27578589328E+02  0.66983014564E+02  0.10000000000E+01 0.  0.
    9000005    1    3    3    0    0  0.56420967300E+02 -0.23277029442E+02 -0.60398453996E+02  0.85872690046E+02  0.10000000000E+01 0.  0.
<mgrwt>
<rscale>  0 0.12499963E+03</rscale>
<asrwt>0</asrwt>
<pdfrwt beam="1">  1        4 0.49906663E-02 0.12499963E+03</pdfrwt>
<pdfrwt beam="2">  1       -4 0.18525596E-01 0.12499963E+03</pdfrwt>
<totfact> 0.98738305E+03</totfact>
</mgrwt>
</event>
<event>
 5    1  0.3289127E-002  0.1250020E+03  0.7818608E-02  0.1235066E+00
         -4   -1    0    0    0  501 -0.00000000000E+00  0.00000000000E+00  0.39839667069E+02  0.39859904318E+02  0.12700000000E+01 0.  1.
          4   -1    0    0  501    0  0.00000000000E+00 -0.00000000000E+00 -0.98003173153E+02  0.98011401622E+02  0.12700000000E+01 0.  1.
         25    2    1    2    0    0  0.00000000000E+00  0.00000000000E+00 -0.58163506083E+02  0.13787130594E+03  0.12500201423E+03 0.  0.
    9000005    1    3    3    0    0 -0.43343487832E+02 -0.39762301228E+02 -0.52366266191E+02  0.78758646326E+02  0.10000000000E+01 0.  0.
    9000005    1    3    3    0    0  0.43343487832E+02  0.39762301228E+02 -0.57972398927E+01  0.59112659614E+02  0.10000000000E+01 0.  0.
<mgrwt>
<rscale>  0 0.12500201E+03</rscale>
<asrwt>0</asrwt>
<pdfrwt beam="2">  1        4 0.15079601E-01 0.12500201E+03</pdfrwt>
<pdfrwt beam="1">  1       -4 0.61313692E-02 0.12500201E+03</pdfrwt>
<totfact> 0.10177434E+04</totfact>
</mgrwt>
</event>
<event>
 5    1  0.3289127E-002  0.1250019E+03  0.7818608E-02  0.1235066E+00
          4   -1    0    0  501    0  0.00000000000E+00  0.00000000000E+00  0.20679321750E+02  0.20718282942E+02  0.12700000000E+01 0. -1.
         -4   -1    0    0    0  501 -0.00000000000E+00 -0.00000000000E+00 -0.18868315192E+03  0.18868742597E+03  0.12700000000E+01 0. -1.
         25    2    1    2    0    0  0.00000000000E+00  0.00000000000E+00 -0.16800383017E+03  0.20940570891E+03  0.12500185588E+03 0.  0.
    9000005    1    3    3    0    0  0.49822628457E+00  0.47764002728E+00  0.20681151836E+02  0.20716814685E+02  0.10000000000E+01 0.  0.
    9000005    1    3    3    0    0 -0.49822628457E+00 -0.47764002728E+00 -0.18868498200E+03  0.18868889422E+03  0.10000000000E+01 0.  0.
<mgrwt>
<rscale>  0 0.12500186E+03</rscale>
<asrwt>0</asrwt>
<pdfrwt beam="1">  1        4 0.31847600E-02 0.12500186E+03</pdfrwt>
<pdfrwt beam="2">  1       -4 0.29031502E-01 0.12500186E+03</pdfrwt>
<totfact> 0.88569354E+03</totfact>
</mgrwt>
</event>
<event>
 5    1  0.3289127E-002  0.1249975E+03  0.7818608E-02  0.1235073E+00
         -4   -1    0    0    0  501 -0.00000000000E+00  0.00000000000E+00  0.19971004726E+02  0.20011345026E+02  0.12700000000E+01 0.  1.
          4   -1    0    0  501    0  0.00000000000E+00 -0.00000000000E+00 -0.19534839082E+03  0.19535251905E+03  0.12700000000E+01 0.  1.
         25    2    1    2    0    0  0.00000000000E+00  0.00000000000E+00 -0.17537738610E+03  0.21536386407E+03  0.12499746555E+03 0.  0.
    9000005    1    3    3    0    0  0.19074607197E+02 -0.78813397108E+01 -0.18931526950E+03  0.19043956370E+03  0.10000000000E+01 0.  0.
    9000005    1    3    3    0    0 -0.19074607197E+02  0.78813397108E+01  0.13937883402E+02  0.24924300374E+02  0.10000000000E+01 0.  0.
<mgrwt>
<rscale>  0 0.12499747E+03</rscale>
<asrwt>0</asrwt>
<pdfrwt beam="2">  1        4 0.30057018E-01 0.12499747E+03</pdfrwt>
<pdfrwt beam="1">  1       -4 0.30758831E-02 0.12499747E+03</pdfrwt>
<totfact> 0.87612278E+03</totfact>
</mgrwt>
</event>
<event>
 5    1  0.3289127E-002  0.1250031E+03  0.7818608E-02  0.1235064E+00
          4   -1    0    0  501    0  0.00000000000E+00  0.00000000000E+00  0.67789299218E+01  0.68968681939E+01  0.12700000000E+01 0.  1.
         -4   -1    0    0    0  501 -0.00000000000E+00 -0.00000000000E+00 -0.57117452765E+03  0.57117593956E+03  0.12700000000E+01 0.  1.
         25    2    1    2    0    0  0.00000000000E+00  0.00000000000E+00 -0.56439559773E+03  0.57807280776E+03  0.12500312129E+03 0.  0.
    9000005    1    3    3    0    0 -0.35531242858E+01  0.62362900930E+02 -0.27331571726E+03  0.28036447244E+03  0.10000000000E+01 0.  0.
    9000005    1    3    3    0    0  0.35531242858E+01 -0.62362900930E+02 -0.29107988047E+03  0.29770833532E+03  0.10000000000E+01 0.  0.
<mgrwt>
<rscale>  0 0.12500312E+03</rscale>
<asrwt>0</asrwt>
<pdfrwt beam="1">  1        4 0.10520935E-02 0.12500312E+03</pdfrwt>
<pdfrwt beam="2">  1       -4 0.87882147E-01 0.12500312E+03</pdfrwt>
<totfact> 0.50278203E+03</totfact>
</mgrwt>
</event>
<event>
 5    1  0.3289127E-002  0.1250011E+03  0.7818608E-02  0.1235068E+00
         -4   -1    0    0    0  501 -0.00000000000E+00  0.00000000000E+00  0.31971076834E+02  0.31996291252E+02  0.12700000000E+01 0. -1.
          4   -1    0    0  501    0  0.00000000000E+00 -0.00000000000E+00 -0.12210612098E+03  0.12211272531E+03  0.12700000000E+01 0. -1.
         25    2    1    2    0    0  0.00000000000E+00  0.00000000000E+00 -0.90135044151E+02  0.15410901656E+03  0.12500105120E+03 0.  0.
    9000005    1    3    3    0    0  0.86754147221E+01  0.61527365577E+02 -0.53285834889E+02  0.81861222415E+02  0.10000000000E+01 0.  0.
    9000005    1    3    3    0    0 -0.86754147221E+01 -0.61527365577E+02 -0.36849209262E+02  0.72247794144E+02  0.10000000000E+01 0.  0.
<mgrwt>
<rscale>  0 0.12500105E+03</rscale>
<asrwt>0</asrwt>
<pdfrwt beam="2">  1        4 0.18788004E-01 0.12500105E+03</pdfrwt>
<pdfrwt beam="1">  1       -4 0.49210749E-02 0.12500105E+03</pdfrwt>
<totfact> 0.98488366E+03</totfact>
</mgrwt>
</event>
<event>
 5    1  0.3289127E-002  0.1249963E+03  0.7818608E-02  0.1235075E+00
          4   -1    0    0  501    0  0.00000000000E+00  0.00000000000E+00  0.33430129696E+01  0.35761202042E+01  0.12700000000E+01 0.  1.
         -4   -1    0    0    0  501 -0.00000000000E+00 -0.00000000000E+00 -0.11288145038E+04  0.11288152182E+04  0.12700000000E+01 0.  1.
         25    2    1    2    0    0  0.00000000000E+00  0.00000000000E+00 -0.11254714908E+04  0.11323913384E+04  0.12499626662E+03 0.  0.
    9000005    1    3    3    0    0  0.36877094242E+02 -0.12705415584E+02 -0.12043011123E+03  0.12659288825E+03  0.10000000000E+01 0.  0.
    9000005    1    3    3    0    0 -0.36877094242E+02  0.12705415584E+02 -0.10050413796E+04  0.10057984501E+04  0.10000000000E+01 0.  0.
<mgrwt>
<rscale>  0 0.12499627E+03</rscale>
<asrwt>0</asrwt>
<pdfrwt beam="1">  1        4 0.53229687E-03 0.12499627E+03</pdfrwt>
<pdfrwt beam="2">  1       -4 0.17368146E+00 0.12499627E+03</pdfrwt>
<totfact> 0.26556118E+03</totfact>
</mgrwt>
</event>
<event>
 5    1  0.3289127E-002  0.1250050E+03  0.7818608E-02  0.1235061E+00
          4   -1    0    0  501    0  0.00000000000E+00  0.00000000000E+00  0.47099254628E+03  0.47099425852E+03  0.12700000000E+01 0.  1.
         -4   -1    0    0    0  501 -0.00000000000E+00 -0.00000000000E+00 -0.82439734730E+01  0.83412228494E+01  0.12700000000E+01 0.  1.
         25    2    1    2    0    0  0.00000000000E+00  0.00000000000E+00  0.46274857281E+03  0.47933548136E+03  0.12500504813E+03 0.  0.
    9000005    1    3    3    0    0 -0.33273087782E+02  0.41834388230E+02  0.35552962669E+03  0.35952681383E+03  0.10000000000E+01 0.  0.
    9000005    1    3    3    0    0  0.33273087782E+02 -0.41834388230E+02  0.10721894612E+03  0.11980866754E+03  0.10000000000E+01 0.  0.
<mgrwt>
<rscale>  0 0.12500505E+03</rscale>
<asrwt>0</asrwt>
<pdfrwt beam="1">  1        4 0.72468006E-01 0.12500505E+03</pdfrwt>
<pdfrwt beam="2">  1       -4 0.12759160E-02 0.12500505E+03</pdfrwt>
<totfact> 0.57497709E+03</totfact>
</mgrwt>
</event>
<event>
 5    1  0.3289127E-002  0.1249986E+03  0.7818608E-02  0.1235072E+00
         -4   -1    0    0    0  501 -0.00000000000E+00  0.00000000000E+00  0.84020275669E+03  0.84020371652E+03  0.12700000000E+01 0.  1.
          4   -1    0    0  501    0  0.00000000000E+00 -0.00000000000E+00 -0.45613566091E+01  0.47348573490E+01  0.12700000000E+01 0.  1.
         25    2    1    2    0    0  0.00000000000E+00  0.00000000000E+00  0.83564140008E+03  0.84493857387E+03  0.12499857630E+03 0.  0.
    9000005    1    3    3    0    0  0.21850288946E+02  0.54611568305E+02  0.27517862849E+03  0.28139675921E+03  0.10000000000E+01 0.  0.
    9000005    1    3    3    0    0 -0.21850288946E+02 -0.54611568305E+02  0.56046277160E+03  0.56354181466E+03  0.10000000000E+01 0.  0.
<mgrwt>
<rscale>  0 0.12499858E+03</rscale>
<asrwt>0</asrwt>
<pdfrwt beam="2">  1        4 0.71516717E-03 0.12499858E+03</pdfrwt>
<pdfrwt beam="1">  1       -4 0.12927539E+00 0.12499858E+03</pdfrwt>
<totfact> 0.36336468E+03</totfact>
</mgrwt>
</event>
<event>
 5    1  0.3289127E-002  0.1250064E+03  0.7818608E-02  0.1235059E+00
          4   -1    0    0  501    0  0.00000000000E+00  0.00000000000E+00  0.69825036880E+01  0.70970597963E+01  0.12700000000E+01 0. -1.
         -4   -1    0    0    0  501 -0.00000000000E+00 -0.00000000000E+00 -0.55482361734E+03  0.55482507087E+03  0.12700000000E+01 0. -1.
         25    2    1    2    0    0  0.00000000000E+00  0.00000000000E+00 -0.54784111366E+03  0.56192213066E+03  0.12500638031E+03 0.  0.
    9000005    1    3    3    0    0  0.21512292348E+02 -0.47928122096E+02 -0.42607749648E+03  0.42930515559E+03  0.10000000000E+01 0.  0.
    9000005    1    3    3    0    0 -0.21512292348E+02  0.47928122096E+02 -0.12176361717E+03  0.13261697507E+03  0.10000000000E+01 0.  0.
<mgrwt>
<rscale>  0 0.12500638E+03</rscale>
<asrwt>0</asrwt>
<pdfrwt beam="1">  1        4 0.10831556E-02 0.12500638E+03</pdfrwt>
<pdfrwt beam="2">  1       -4 0.85366369E-01 0.12500638E+03</pdfrwt>
<totfact> 0.51355751E+03</totfact>
</mgrwt>
</event>
<event>
 5    1  0.3289127E-002  0.1249992E+03  0.7818608E-02  0.1235071E+00
          4   -1    0    0  501    0  0.00000000000E+00  0.00000000000E+00  0.11904385103E+02  0.11971937382E+02  0.12700000000E+01 0.  1.
         -4   -1    0    0    0  501 -0.00000000000E+00 -0.00000000000E+00 -0.32713379861E+03  0.32713626380E+03  0.12700000000E+01 0.  1.
         25    2    1    2    0    0  0.00000000000E+00  0.00000000000E+00 -0.31522941351E+03  0.33910820119E+03  0.12499915587E+03 0.  0.
    9000005    1    3    3    0    0  0.47498064912E+02 -0.16836546144E+02 -0.25786895654E+03  0.26274880438E+03  0.10000000000E+01 0.  0.
    9000005    1    3    3    0    0 -0.47498064912E+02  0.16836546144E+02 -0.57360456969E+02  0.76359396803E+02  0.10000000000E+01 0.  0.
<mgrwt>
<rscale>  0 0.12499916E+03</rscale>
<asrwt>0</asrwt>
<pdfrwt beam="1">  1        4 0.18368301E-02 0.12499916E+03</pdfrwt>
<pdfrwt beam="2">  1       -4 0.50333656E-01 0.12499916E+03</pdfrwt>
<totfact> 0.70940974E+03</totfact>
</mgrwt>
</event>
<event>
 5    1  0.3289127E-002  0.1250004E+03  0.7818608E-02  0.1235069E+00
          4   -1    0    0  501    0  0.00000000000E+00  0.00000000000E+00  0.53658974657E+02  0.53674001726E+02  0.12700000000E+01 0.  1.
         -4   -1    0    0    0  501 -0.00000000000E+00 -0.00000000000E+00 -0.72767368345E+02  0.72778450079E+02  0.12700000000E+01 0.  1.
         25    2    1    2    0    0  0.00000000000E+00  0.00000000000E+00 -0.19108393688E+02  0.12645245180E+03  0.12500036743E+03 0.  0.
    9000005    1    3    3    0    0  0.38723571037E+02 -0.18420849304E+02  0.36431878619E+02  0.56277210509E+02  0.10000000000E+01 0.  0.
    9000005    1    3    3    0    0 -0.38723571037E+02  0.18420849304E+02 -0.55540272307E+02  0.70175241296E+02  0.10000000000E+01 0.  0.
<mgrwt>
<rscale>  0 0.12500037E+03</rscale>
<asrwt>0</asrwt>
<pdfrwt beam="1">  1        4 0.82572352E-02 0.12500037E+03</pdfrwt>
<pdfrwt beam="2">  1       -4 0.11196988E-01 0.12500037E+03</pdfrwt>
<totfact> 0.10420979E+04</totfact>
</mgrwt>
</event>
<event>
 5    1  0.3289127E-002  0.1250026E+03  0.7818608E-02  0.1235065E+00
          4   -1    0    0  501    0  0.00000000000E+00  0.00000000000E+00  0.99779420469E+01  0.10058440609E+02  0.12700000000E+01 0. -1.
         -4   -1    0    0    0  501 -0.00000000000E+00 -0.00000000000E+00 -0.38985067670E+03  0.38985274530E+03  0.12700000000E+01 0. -1.
         25    2    1    2    0    0  0.00000000000E+00  0.00000000000E+00 -0.37987273465E+03  0.39991118591E+03  0.12500264832E+03 0.  0.
    9000005    1    3    3    0    0 -0.47984245750E+02  0.19213019305E+02 -0.77562705450E+02  0.93212666670E+02  0.10000000000E+01 0.  0.
    9000005    1    3    3    0    0  0.47984245750E+02 -0.19213019305E+02 -0.30231002920E+03  0.30669851924E+03  0.10000000000E+01 0.  0.
<mgrwt>
<rscale>  0 0.12500265E+03</rscale>
<asrwt>0</asrwt>
<pdfrwt beam="1">  1        4 0.15414196E-02 0.12500265E+03</pdfrwt>
<pdfrwt beam="2">  1       -4 0.59983367E-01 0.12500265E+03</pdfrwt>
<totfact> 0.64557659E+03</totfact>
</mgrwt>
</event>
<event>
 5    1  0.3289127E-002  0.1250054E+03  0.7818608E-02  0.1235061E+00
         -4   -1    0    0    0  501 -0.00000000000E+00  0.00000000000E+00  0.30641769836E+02  0.30668077192E+02  0.12700000000E+01 0.  1.
          4   -1    0    0  501    0  0.00000000000E+00 -0.00000000000E+00 -0.12740806527E+03  0.12741439478E+03  0.12700000000E+01 0.  1.
         25    2    1    2    0    0  0.00000000000E+00  0.00000000000E+00 -0.96766295439E+02  0.15808247197E+03  0.12500540793E+03 0.  0.
    9000005    1    3    3    0    0  0.11375811881E+01  0.75305185609E+01  0.30058921191E+02  0.31024853649E+02  0.10000000000E+01 0.  0.
    9000005    1    3    3    0    0 -0.11375811881E+01 -0.75305185609E+01 -0.12682521663E+03  0.12705761832E+03  0.10000000000E+01 0.  0.
<mgrwt>
<rscale>  0 0.12500541E+03</rscale>
<asrwt>0</asrwt>
<pdfrwt beam="2">  1        4 0.19603751E-01 0.12500541E+03</pdfrwt>
<pdfrwt beam="1">  1       -4 0.47166290E-02 0.12500541E+03</pdfrwt>
<totfact> 0.97701869E+03</totfact>
</mgrwt>
</event>
<event>
 5    1  0.3289127E-002  0.1249995E+03  0.7818608E-02  0.1235070E+00
          4   -1    0    0  501    0  0.00000000000E+00  0.00000000000E+00  0.15218723098E+03  0.15219252995E+03  0.12700000000E+01 0. -1.
         -4   -1    0    0    0  501 -0.00000000000E+00 -0.00000000000E+00 -0.25645743507E+02  0.25677170016E+02  0.12700000000E+01 0. -1.
         25    2    1    2    0    0  0.00000000000E+00  0.00000000000E+00  0.12654148747E+03  0.17786969997E+03  0.12499952846E+03 0.  0.
    9000005    1    3    3    0    0  0.30997890661E+01 -0.59453265321E+02  0.90304084658E+02  0.10816712604E+03  0.10000000000E+01 0.  0.
    9000005    1    3    3    0    0 -0.30997890661E+01  0.59453265321E+02  0.36237402815E+02  0.69702573929E+02  0.10000000000E+01 0.  0.
<mgrwt>
<rscale>  0 0.12499953E+03</rscale>
<asrwt>0</asrwt>
<pdfrwt beam="1">  1        4 0.23416245E-01 0.12499953E+03</pdfrwt>
<pdfrwt beam="2">  1       -4 0.39483241E-02 0.12499953E+03</pdfrwt>
<totfact> 0.94002869E+03</totfact>
</mgrwt>
</event>
<event>
 5    1  0.3289127E-002  0.1250043E+03  0.7818608E-02  0.1235063E+00
          4   -1    0    0  501    0  0.00000000000E+00  0.00000000000E+00  0.18940018324E+04  0.18940022582E+04  0.12700000000E+01 0. -1.
         -4   -1    0    0    0  501 -0.00000000000E+00 -0.00000000000E+00 -0.18666126240E+01  0.22576852500E+01  0.12700000000E+01 0. -1.
         25    2    1    2    0    0  0.00000000000E+00  0.00000000000E+00  0.18921352198E+04  0.18962599435E+04  0.12500433266E+03 0.  0.
    9000005    1    3    3    0    0  0.39115401422E+02 -0.31365747838E+02  0.15119745231E+04  0.15128059305E+04  0.10000000000E+01 0.  0.
    9000005    1    3    3    0    0 -0.39115401422E+02  0.31365747838E+02  0.38016069668E+03  0.38345401298E+03  0.10000000000E+01 0.  0.
<mgrwt>
<rscale>  0 0.12500433E+03</rscale>
<asrwt>0</asrwt>
<pdfrwt beam="1">  1        4 0.29141592E+00 0.12500433E+03</pdfrwt>
<pdfrwt beam="2">  1       -4 0.31728544E-03 0.12500433E+03</pdfrwt>
<totfact> 0.11275525E+03</totfact>
</mgrwt>
</event>
<event>
 5    1  0.3289127E-002  0.1249986E+03  0.7818608E-02  0.1235071E+00
         -4   -1    0    0    0  501 -0.00000000000E+00  0.00000000000E+00  0.57088445521E+02  0.57102570099E+02  0.12700000000E+01 0. -1.
          4   -1    0    0  501    0  0.00000000000E+00 -0.00000000000E+00 -0.68394536489E+02  0.68406326620E+02  0.12700000000E+01 0. -1.
         25    2    1    2    0    0  0.00000000000E+00  0.00000000000E+00 -0.11306090969E+02  0.12550889672E+03  0.12499862184E+03 0.  0.
    9000005    1    3    3    0    0 -0.48289795754E+02 -0.34545301597E+02  0.13917072013E+02  0.60991533264E+02  0.10000000000E+01 0.  0.
    9000005    1    3    3    0    0  0.48289795754E+02  0.34545301597E+02 -0.25223162982E+02  0.64517363455E+02  0.10000000000E+01 0.  0.
<mgrwt>
<rscale>  0 0.12499862E+03</rscale>
<asrwt>0</asrwt>
<pdfrwt beam="2">  1        4 0.10524230E-01 0.12499862E+03</pdfrwt>
<pdfrwt beam="1">  1       -4 0.87848313E-02 0.12499862E+03</pdfrwt>
<totfact> 0.10442082E+04</totfact>
</mgrwt>
</event>
<event>
 5    1  0.3289127E-002  0.1249842E+03  0.7818608E-02  0.1235094E+00
         -4   -1    0    0    0  501 -0.00000000000E+00  0.00000000000E+00  0.12522689185E+02  0.12586923548E+02  0.12700000000E+01 0. -1.
          4   -1    0    0  501    0  0.00000000000E+00 -0.00000000000E+00 -0.31099144023E+03  0.31099403337E+03  0.12700000000E+01 0. -1.
         25    2    1    2    0    0  0.00000000000E+00  0.00000000000E+00 -0.29846875104E+03  0.32358095692E+03  0.12498416033E+03 0.  0.
    9000005    1    3    3    0    0  0.16278932290E+02  0.45943221025E+02 -0.25045229736E+03  0.25515316272E+03  0.10000000000E+01 0.  0.
    9000005    1    3    3    0    0 -0.16278932290E+02 -0.45943221025E+02 -0.48016453679E+02  0.68427794196E+02  0.10000000000E+01 0.  0.
<mgrwt>
<rscale>  0 0.12498416E+03</rscale>
<asrwt>0</asrwt>
<pdfrwt beam="2">  1        4 0.47849972E-01 0.12498416E+03</pdfrwt>
<pdfrwt beam="1">  1       -4 0.19317084E-02 0.12498416E+03</pdfrwt>
<totfact> 0.72757773E+03</totfact>
</mgrwt>
</event>
<event>
 5    1  0.3289127E-002  0.1250026E+03  0.7818608E-02  0.1235065E+00
         -4   -1    0    0    0  501 -0.00000000000E+00  0.00000000000E+00  0.17083656816E+03  0.17084128868E+03  0.12700000000E+01 0.  1.
          4   -1    0    0  501    0  0.00000000000E+00 -0.00000000000E+00 -0.22843704541E+02  0.22878980247E+02  0.12700000000E+01 0.  1.
         25    2    1    2    0    0  0.00000000000E+00  0.00000000000E+00  0.14799286361E+03  0.19372026893E+03  0.12500261963E+03 0.  0.
    9000005    1    3    3    0    0 -0.27353518018E+02  0.41908850283E+02  0.13199954561E+03  0.14117169235E+03  0.10000000000E+01 0.  0.
    9000005    1    3    3    0    0  0.27353518018E+02 -0.41908850283E+02  0.15993318007E+02  0.52548576582E+02  0.10000000000E+01 0.  0.
<mgrwt>
<rscale>  0 0.12500262E+03</rscale>
<asrwt>0</asrwt>
<pdfrwt beam="2">  1        4 0.35174928E-02 0.12500262E+03</pdfrwt>
<pdfrwt beam="1">  1       -4 0.26285625E-01 0.12500262E+03</pdfrwt>
<totfact> 0.91198650E+03</totfact>
</mgrwt>
</event>
<event>
 5    1  0.3289127E-002  0.1249969E+03  0.7818608E-02  0.1235074E+00
         -4   -1    0    0    0  501 -0.00000000000E+00  0.00000000000E+00  0.68401685201E+02  0.68413474099E+02  0.12700000000E+01 0. -1.
          4   -1    0    0  501    0  0.00000000000E+00 -0.00000000000E+00 -0.57080940456E+02  0.57095066891E+02  0.12700000000E+01 0. -1.
         25    2    1    2    0    0  0.00000000000E+00  0.00000000000E+00  0.11320744745E+02  0.12550854099E+03  0.12499693836E+03 0.  0.
    9000005    1    3    3    0    0  0.48205062209E+02 -0.38573323400E+02 -0.40450751891E+01  0.61878848842E+02  0.10000000000E+01 0.  0.
    9000005    1    3    3    0    0 -0.48205062209E+02  0.38573323400E+02  0.15365819934E+02  0.63629692149E+02  0.10000000000E+01 0.  0.
<mgrwt>
<rscale>  0 0.12499694E+03</rscale>
<asrwt>0</asrwt>
<pdfrwt beam="2">  1        4 0.87836767E-02 0.12499694E+03</pdfrwt>
<pdfrwt beam="1">  1       -4 0.10525330E-01 0.12499694E+03</pdfrwt>
<totfact> 0.10442487E+04</totfact>
</mgrwt>
</event>
<event>
 5    1  0.3289127E-002  0.1250012E+03  0.7818608E-02  0.1235067E+00
         -4   -1    0    0    0  501 -0.00000000000E+00  0.00000000000E+00  0.19748055170E+03  0.19748463535E+03  0.12700000000E+01 0. -1.
          4   -1    0    0  501    0  0.00000000000E+00 -0.00000000000E+00 -0.19756139670E+02  0.19796917807E+02  0.12700000000E+01 0. -1.
         25    2    1    2    0    0  0.00000000000E+00  0.00000000000E+00  0.17772441203E+03  0.21728155316E+03  0.12500122684E+03 0.  0.
    9000005    1    3    3    0    0 -0.57804666567E+02 -0.22273312081E+02  0.74544508927E+02  0.96929684406E+02  0.10000000000E+01 0.  0.
    9000005    1    3    3    0    0  0.57804666567E+02  0.22273312081E+02  0.10317990311E+03  0.12035186876E+03  0.10000000000E+01 0.  0.
<mgrwt>
<rscale>  0 0.12500123E+03</rscale>
<asrwt>0</asrwt>
<pdfrwt beam="2">  1        4 0.30428570E-02 0.12500123E+03</pdfrwt>
<pdfrwt beam="1">  1       -4 0.30385074E-01 0.12500123E+03</pdfrwt>
<totfact> 0.87297951E+03</totfact>
</mgrwt>
</event>
<event>
 5    1  0.3289127E-002  0.1250008E+03  0.7818608E-02  0.1235068E+00
          4   -1    0    0  501    0  0.00000000000E+00  0.00000000000E+00  0.31288026715E+02  0.31313791142E+02  0.12700000000E+01 0.  1.
         -4   -1    0    0    0  501 -0.00000000000E+00 -0.00000000000E+00 -0.12476939227E+03  0.12477585562E+03  0.12700000000E+01 0.  1.
         25    2    1    2    0    0  0.00000000000E+00  0.00000000000E+00 -0.93481365553E+02  0.15608964677E+03  0.12500084849E+03 0.  0.
    9000005    1    3    3    0    0 -0.19070510644E+02  0.52327649842E+02 -0.11346107611E+02  0.56847176466E+02  0.10000000000E+01 0.  0.
    9000005    1    3    3    0    0  0.19070510644E+02 -0.52327649842E+02 -0.82135257941E+02  0.99242470301E+02  0.10000000000E+01 0.  0.
<mgrwt>
<rscale>  0 0.12500085E+03</rscale>
<asrwt>0</asrwt>
<pdfrwt beam="1">  1        4 0.48160217E-02 0.12500085E+03</pdfrwt>
<pdfrwt beam="2">  1       -4 0.19197770E-01 0.12500085E+03</pdfrwt>
<totfact> 0.98100140E+03</totfact>
</mgrwt>
</event>
<event>
 5    1  0.3289127E-002  0.1250014E+03  0.7818608E-02  0.1235067E+00
         -4   -1    0    0    0  501 -0.00000000000E+00  0.00000000000E+00  0.86428666731E+02  0.86437997043E+02  0.12700000000E+01 0. -1.
          4   -1    0    0  501    0  0.00000000000E+00 -0.00000000000E+00 -0.45176541313E+02  0.45194388867E+02  0.12700000000E+01 0. -1.
         25    2    1    2    0    0  0.00000000000E+00  0.00000000000E+00  0.41252125418E+02  0.13163238591E+03  0.12500138867E+03 0.  0.
    9000005    1    3    3    0    0  0.49978089842E+02  0.36730532986E+02  0.28673113966E+02  0.68338049301E+02  0.10000000000E+01 0.  0.
    9000005    1    3    3    0    0 -0.49978089842E+02 -0.36730532986E+02  0.12579011451E+02  0.63294336609E+02  0.10000000000E+01 0.  0.
<mgrwt>
<rscale>  0 0.12500139E+03</rscale>
<asrwt>0</asrwt>
<pdfrwt beam="2">  1        4 0.69523277E-02 0.12500139E+03</pdfrwt>
<pdfrwt beam="1">  1       -4 0.13298809E-01 0.12500139E+03</pdfrwt>
<totfact> 0.10309228E+04</totfact>
</mgrwt>
</event>
<event>
 5    1  0.3289127E-002  0.1249983E+03  0.7818608E-02  0.1235072E+00
         -4   -1    0    0    0  501 -0.00000000000E+00  0.00000000000E+00  0.36660898136E+02  0.36682889092E+02  0.12700000000E+01 0. -1.
          4   -1    0    0  501    0  0.00000000000E+00 -0.00000000000E+00 -0.10649023866E+03  0.10649781138E+03  0.12700000000E+01 0. -1.
         25    2    1    2    0    0  0.00000000000E+00  0.00000000000E+00 -0.69829340519E+02  0.14318070047E+03  0.12499830475E+03 0.  0.
    9000005    1    3    3    0    0 -0.41045746049E+02  0.14686119396E+02  0.16372176057E+02  0.46577714848E+02  0.10000000000E+01 0.  0.
    9000005    1    3    3    0    0  0.41045746049E+02 -0.14686119396E+02 -0.86201516576E+02  0.96602985625E+02  0.10000000000E+01 0.  0.
<mgrwt>
<rscale>  0 0.12499830E+03</rscale>
<asrwt>0</asrwt>
<pdfrwt beam="2">  1        4 0.16385388E-01 0.12499830E+03</pdfrwt>
<pdfrwt beam="1">  1       -4 0.56424124E-02 0.12499830E+03</pdfrwt>
<totfact> 0.10068469E+04</totfact>
</mgrwt>
</event>
<event>
 5    1  0.3289127E-002  0.1250061E+03  0.7818608E-02  0.1235060E+00
          4   -1    0    0  501    0  0.00000000000E+00  0.00000000000E+00  0.42876822797E+02  0.42895627203E+02  0.12700000000E+01 0.  1.
         -4   -1    0    0    0  501 -0.00000000000E+00 -0.00000000000E+00 -0.91069687512E+02  0.91078542388E+02  0.12700000000E+01 0.  1.
         25    2    1    2    0    0  0.00000000000E+00  0.00000000000E+00 -0.48192864715E+02  0.13397416959E+03  0.12500610348E+03 0.  0.
    9000005    1    3    3    0    0  0.39640055305E+02 -0.26602731280E+02  0.19127989767E+02  0.51438500063E+02  0.10000000000E+01 0.  0.
    9000005    1    3    3    0    0 -0.39640055305E+02  0.26602731280E+02 -0.67320854482E+02  0.82535669528E+02  0.10000000000E+01 0.  0.
<mgrwt>
<rscale>  0 0.12500610E+03</rscale>
<asrwt>0</asrwt>
<pdfrwt beam="1">  1        4 0.65985619E-02 0.12500610E+03</pdfrwt>
<pdfrwt beam="2">  1       -4 0.14012849E-01 0.12500610E+03</pdfrwt>
<totfact> 0.10258326E+04</totfact>
</mgrwt>
</event>
<event>
 5    1  0.3289127E-002  0.1250179E+03  0.7818608E-02  0.1235041E+00
         -4   -1    0    0    0  501 -0.00000000000E+00  0.00000000000E+00  0.75387663896E+02  0.75398360510E+02  0.12700000000E+01 0.  1.
          4   -1    0    0  501    0  0.00000000000E+00 -0.00000000000E+00 -0.51808225800E+02  0.51823789523E+02  0.12700000000E+01 0.  1.
         25    2    1    2    0    0  0.00000000000E+00  0.00000000000E+00  0.23579438096E+02  0.12722215003E+03  0.12501794095E+03 0.  0.
    9000005    1    3    3    0    0  0.43205259578E+02  0.35947568878E+02  0.39611263634E+02  0.68767538637E+02  0.10000000000E+01 0.  0.
    9000005    1    3    3    0    0 -0.43205259578E+02 -0.35947568878E+02 -0.16031825538E+02  0.58454611397E+02  0.10000000000E+01 0.  0.
<mgrwt>
<rscale>  0 0.12501794E+03</rscale>
<asrwt>0</asrwt>
<pdfrwt beam="2">  1        4 0.79725163E-02 0.12501794E+03</pdfrwt>
<pdfrwt beam="1">  1       -4 0.11600122E-01 0.12501794E+03</pdfrwt>
<totfact> 0.10400110E+04</totfact>
</mgrwt>
</event>
<event>
 5    1  0.3289127E-002  0.1250039E+03  0.7818608E-02  0.1235063E+00
         -4   -1    0    0    0  501 -0.00000000000E+00  0.00000000000E+00  0.22006051851E+03  0.22006418315E+03  0.12700000000E+01 0.  1.
          4   -1    0    0  501    0  0.00000000000E+00 -0.00000000000E+00 -0.17725371833E+02  0.17770810523E+02  0.12700000000E+01 0.  1.
         25    2    1    2    0    0  0.00000000000E+00  0.00000000000E+00  0.20233514668E+03  0.23783499368E+03  0.12500389048E+03 0.  0.
    9000005    1    3    3    0    0 -0.45424602233E+01  0.56713048596E+02  0.51975008611E+02  0.77067537563E+02  0.10000000000E+01 0.  0.
    9000005    1    3    3    0    0  0.45424602233E+01 -0.56713048596E+02  0.15036013807E+03  0.16076745611E+03  0.10000000000E+01 0.  0.
<mgrwt>
<rscale>  0 0.12500389E+03</rscale>
<asrwt>0</asrwt>
<pdfrwt beam="2">  1        4 0.27307575E-02 0.12500389E+03</pdfrwt>
<pdfrwt beam="1">  1       -4 0.33859241E-01 0.12500389E+03</pdfrwt>
<totfact> 0.84113569E+03</totfact>
</mgrwt>
</event>
<event>
 5    1  0.3289127E-002  0.1249961E+03  0.7818608E-02  0.1235075E+00
         -4   -1    0    0    0  501 -0.00000000000E+00  0.00000000000E+00  0.19570686829E+02  0.19611850574E+02  0.12700000000E+01 0.  1.
          4   -1    0    0  501    0  0.00000000000E+00 -0.00000000000E+00 -0.19933171388E+03  0.19933575961E+03  0.12700000000E+01 0.  1.
         25    2    1    2    0    0  0.00000000000E+00  0.00000000000E+00 -0.17976102706E+03  0.21894761019E+03  0.12499611657E+03 0.  0.
    9000005    1    3    3    0    0 -0.51538087594E+02 -0.20705623189E-01 -0.27979784262E+02  0.58651881716E+02  0.10000000000E+01 0.  0.
    9000005    1    3    3    0    0  0.51538087594E+02  0.20705623189E-01 -0.15178124279E+03  0.16029572847E+03  0.10000000000E+01 0.  0.
<mgrwt>
<rscale>  0 0.12499612E+03</rscale>
<asrwt>0</asrwt>
<pdfrwt beam="2">  1        4 0.30669894E-01 0.12499612E+03</pdfrwt>
<pdfrwt beam="1">  1       -4 0.30143527E-02 0.12499612E+03</pdfrwt>
<totfact> 0.87042702E+03</totfact>
</mgrwt>
</event>
<event>
 5    1  0.3289127E-002  0.1249472E+03  0.7818608E-02  0.1235152E+00
          4   -1    0    0  501    0  0.00000000000E+00  0.00000000000E+00  0.57585016927E+03  0.57585156972E+03  0.12700000000E+01 0. -1.
         -4   -1    0    0    0  501 -0.00000000000E+00 -0.00000000000E+00 -0.67168078744E+01  0.68358180214E+01  0.12700000000E+01 0. -1.
         25    2    1    2    0    0  0.00000000000E+00  0.00000000000E+00  0.56913336140E+03  0.58268738774E+03  0.12494722397E+03 0.  0.
    9000005    1    3    3    0    0  0.50978462002E+02  0.23107488915E+02  0.15522856054E+03  0.16501413770E+03  0.10000000000E+01 0.  0.
    9000005    1    3    3    0    0 -0.50978462002E+02 -0.23107488915E+02  0.41390480085E+03  0.41767325004E+03  0.10000000000E+01 0.  0.
<mgrwt>
<rscale>  0 0.12494722E+03</rscale>
<asrwt>0</asrwt>
<pdfrwt beam="1">  1        4 0.88601594E-01 0.12494722E+03</pdfrwt>
<pdfrwt beam="2">  1       -4 0.10426174E-02 0.12494722E+03</pdfrwt>
<totfact> 0.50036898E+03</totfact>
</mgrwt>
</event>
<event>
 5    1  0.3289127E-002  0.1250116E+03  0.7818608E-02  0.1235051E+00
         -4   -1    0    0    0  501 -0.00000000000E+00  0.00000000000E+00  0.50995099927E+02  0.51010911740E+02  0.12700000000E+01 0.  1.
          4   -1    0    0  501    0  0.00000000000E+00 -0.00000000000E+00 -0.76581730150E+02  0.76592260006E+02  0.12700000000E+01 0.  1.
         25    2    1    2    0    0  0.00000000000E+00  0.00000000000E+00 -0.25586630224E+02  0.12760317175E+03  0.12501157464E+03 0.  0.
    9000005    1    3    3    0    0 -0.53284318956E+02 -0.21806832259E-01  0.20544984887E+02  0.57116683431E+02  0.10000000000E+01 0.  0.
    9000005    1    3    3    0    0  0.53284318956E+02  0.21806832259E-01 -0.46131615110E+02  0.70486488314E+02  0.10000000000E+01 0.  0.
<mgrwt>
<rscale>  0 0.12501157E+03</rscale>
<asrwt>0</asrwt>
<pdfrwt beam="2">  1        4 0.11783831E-01 0.12501157E+03</pdfrwt>
<pdfrwt beam="1">  1       -4 0.78474263E-02 0.12501157E+03</pdfrwt>
<totfact> 0.10393351E+04</totfact>
</mgrwt>
</event>
<event>
 5    1  0.3289127E-002  0.1250004E+03  0.7818608E-02  0.1235069E+00
          4   -1    0    0  501    0  0.00000000000E+00  0.00000000000E+00  0.68730721074E+03  0.68730838408E+03  0.12700000000E+01 0. -1.
         -4   -1    0    0    0  501 -0.00000000000E+00 -0.00000000000E+00 -0.56113051187E+01  0.57532291051E+01  0.12700000000E+01 0. -1.
         25    2    1    2    0    0  0.00000000000E+00  0.00000000000E+00  0.68169590562E+03  0.69306161319E+03  0.12500036775E+03 0.  0.
    9000005    1    3    3    0    0  0.10168437450E+02 -0.58332635775E+01  0.51242043129E+00  0.11776529999E+02  0.10000000000E+01 0.  0.
    9000005    1    3    3    0    0 -0.10168437450E+02  0.58332635775E+01  0.68118348519E+03  0.68128508319E+03  0.10000000000E+01 0.  0.
<mgrwt>
<rscale>  0 0.12500037E+03</rscale>
<asrwt>0</asrwt>
<pdfrwt beam="1">  1        4 0.10575058E+00 0.12500037E+03</pdfrwt>
<pdfrwt beam="2">  1       -4 0.87428519E-03 0.12500037E+03</pdfrwt>
<totfact> 0.43455145E+03</totfact>
</mgrwt>
</event>
<event>
 5    1  0.3289127E-002  0.1250011E+03  0.7818608E-02  0.1235068E+00
         -4   -1    0    0    0  501 -0.00000000000E+00  0.00000000000E+00  0.12573194521E+02  0.12637172170E+02  0.12700000000E+01 0.  1.
          4   -1    0    0  501    0  0.00000000000E+00 -0.00000000000E+00 -0.30983238848E+03  0.30983499132E+03  0.12700000000E+01 0.  1.
         25    2    1    2    0    0  0.00000000000E+00  0.00000000000E+00 -0.29725919396E+03  0.32247216349E+03  0.12500107134E+03 0.  0.
    9000005    1    3    3    0    0 -0.52393580377E+02  0.24680555946E+02 -0.20919068147E+03  0.21706210705E+03  0.10000000000E+01 0.  0.
    9000005    1    3    3    0    0  0.52393580377E+02 -0.24680555946E+02 -0.88068512490E+02  0.10541005644E+03  0.10000000000E+01 0.  0.
<mgrwt>
<rscale>  0 0.12500107E+03</rscale>
<asrwt>0</asrwt>
<pdfrwt beam="2">  1        4 0.47671637E-01 0.12500107E+03</pdfrwt>
<pdfrwt beam="1">  1       -4 0.19394594E-02 0.12500107E+03</pdfrwt>
<totfact> 0.72861328E+03</totfact>
</mgrwt>
</event>
<event>
 5    1  0.3289127E-002  0.1250065E+03  0.7818608E-02  0.1235059E+00
         -4   -1    0    0    0  501 -0.00000000000E+00  0.00000000000E+00  0.95797159726E+01  0.96635323829E+01  0.12700000000E+01 0. -1.
          4   -1    0    0  501    0  0.00000000000E+00 -0.00000000000E+00 -0.40594420368E+03  0.40594619028E+03  0.12700000000E+01 0. -1.
         25    2    1    2    0    0  0.00000000000E+00  0.00000000000E+00 -0.39636448771E+03  0.41560972266E+03  0.12500653765E+03 0.  0.
    9000005    1    3    3    0    0 -0.20758731374E+02  0.47620026867E+02 -0.31369198524E+03  0.31796580554E+03  0.10000000000E+01 0.  0.
    9000005    1    3    3    0    0  0.20758731374E+02 -0.47620026867E+02 -0.82672502466E+02  0.97643917123E+02  0.10000000000E+01 0.  0.
<mgrwt>
<rscale>  0 0.12500654E+03</rscale>
<asrwt>0</asrwt>
<pdfrwt beam="2">  1        4 0.62459542E-01 0.12500654E+03</pdfrwt>
<pdfrwt beam="1">  1       -4 0.14804030E-02 0.12500654E+03</pdfrwt>
<totfact> 0.63053313E+03</totfact>
</mgrwt>
</event>
<event>
 5    1  0.3289127E-002  0.1250004E+03  0.7818608E-02  0.1235069E+00
         -4   -1    0    0    0  501 -0.00000000000E+00  0.00000000000E+00  0.90176314000E+02  0.90185256593E+02  0.12700000000E+01 0. -1.
          4   -1    0    0  501    0  0.00000000000E+00 -0.00000000000E+00 -0.43297813326E+02  0.43316434974E+02  0.12700000000E+01 0. -1.
         25    2    1    2    0    0  0.00000000000E+00  0.00000000000E+00  0.46878500674E+02  0.13350169157E+03  0.12500043130E+03 0.  0.
    9000005    1    3    3    0    0  0.15506301818E+02 -0.47403421527E+02 -0.16774507130E+02  0.52629971100E+02  0.10000000000E+01 0.  0.
    9000005    1    3    3    0    0 -0.15506301818E+02  0.47403421527E+02  0.63653007805E+02  0.80871720466E+02  0.10000000000E+01 0.  0.
<mgrwt>
<rscale>  0 0.12500043E+03</rscale>
<asrwt>0</asrwt>
<pdfrwt beam="2">  1        4 0.66633224E-02 0.12500043E+03</pdfrwt>
<pdfrwt beam="1">  1       -4 0.13875399E-01 0.12500043E+03</pdfrwt>
<totfact> 0.10269649E+04</totfact>
</mgrwt>
</event>
<event>
 5    1  0.3289127E-002  0.1250110E+03  0.7818608E-02  0.1235052E+00
          4   -1    0    0  501    0  0.00000000000E+00  0.00000000000E+00  0.11999859782E+02  0.12066877591E+02  0.12700000000E+01 0.  1.
         -4   -1    0    0    0  501 -0.00000000000E+00 -0.00000000000E+00 -0.32460698412E+03  0.32460946850E+03  0.12700000000E+01 0.  1.
         25    2    1    2    0    0  0.00000000000E+00  0.00000000000E+00 -0.31260712434E+03  0.33667634609E+03  0.12501099084E+03 0.  0.
    9000005    1    3    3    0    0  0.59538794567E+02  0.15937985102E+02 -0.18416841734E+03  0.19421095070E+03  0.10000000000E+01 0.  0.
    9000005    1    3    3    0    0 -0.59538794567E+02 -0.15937985102E+02 -0.12843870700E+03  0.14246539539E+03  0.10000000000E+01 0.  0.
<mgrwt>
<rscale>  0 0.12501099E+03</rscale>
<asrwt>0</asrwt>
<pdfrwt beam="1">  1        4 0.18514788E-02 0.12501099E+03</pdfrwt>
<pdfrwt beam="2">  1       -4 0.49944876E-01 0.12501099E+03</pdfrwt>
<totfact> 0.71198300E+03</totfact>
</mgrwt>
</event>
<event>
 5    1  0.3289127E-002  0.1250087E+03  0.7818608E-02  0.1235056E+00
          4   -1    0    0  501    0  0.00000000000E+00  0.00000000000E+00  0.36030000985E+02  0.36052376773E+02  0.12700000000E+01 0.  1.
         -4   -1    0    0    0  501 -0.00000000000E+00 -0.00000000000E+00 -0.10837200934E+03  0.10837945059E+03  0.12700000000E+01 0.  1.
         25    2    1    2    0    0  0.00000000000E+00  0.00000000000E+00 -0.72342008359E+02  0.14443182736E+03  0.12500874602E+03 0.  0.
    9000005    1    3    3    0    0  0.68468152280E+00  0.60075901284E+02 -0.56055988579E+02  0.82175766254E+02  0.10000000000E+01 0.  0.
    9000005    1    3    3    0    0 -0.68468152280E+00 -0.60075901284E+02 -0.16286019780E+02  0.62256061104E+02  0.10000000000E+01 0.  0.
<mgrwt>
<rscale>  0 0.12500875E+03</rscale>
<asrwt>0</asrwt>
<pdfrwt beam="1">  1        4 0.55453707E-02 0.12500875E+03</pdfrwt>
<pdfrwt beam="2">  1       -4 0.16674910E-01 0.12500875E+03</pdfrwt>
<totfact> 0.10040568E+04</totfact>
</mgrwt>
</event>
<event>
 5    1  0.3289127E-002  0.1250011E+03  0.7818608E-02  0.1235068E+00
          4   -1    0    0  501    0  0.00000000000E+00  0.00000000000E+00  0.16679724133E+03  0.16680207618E+03  0.12700000000E+01 0.  1.
         -4   -1    0    0    0  501 -0.00000000000E+00 -0.00000000000E+00 -0.23397174443E+02  0.23431616929E+02  0.12700000000E+01 0.  1.
         25    2    1    2    0    0  0.00000000000E+00  0.00000000000E+00  0.14340006689E+03  0.19023369311E+03  0.12500111523E+03 0.  0.
    9000005    1    3    3    0    0 -0.25122127199E+01  0.61536016776E+02  0.55570720061E+02  0.82958408263E+02  0.10000000000E+01 0.  0.
    9000005    1    3    3    0    0  0.25122127199E+01 -0.61536016776E+02  0.87829346830E+02  0.10727528484E+03  0.10000000000E+01 0.  0.
<mgrwt>
<rscale>  0 0.12500112E+03</rscale>
<asrwt>0</asrwt>
<pdfrwt beam="1">  1        4 0.25664135E-01 0.12500112E+03</pdfrwt>
<pdfrwt beam="2">  1       -4 0.36025867E-02 0.12500112E+03</pdfrwt>
<totfact> 0.91804376E+03</totfact>
</mgrwt>
</event>
<event>
 5    1  0.3289127E-002  0.1249964E+03  0.7818608E-02  0.1235075E+00
         -4   -1    0    0    0  501 -0.00000000000E+00  0.00000000000E+00  0.19878846698E+02  0.19919373636E+02  0.12700000000E+01 0.  1.
          4   -1    0    0  501    0  0.00000000000E+00 -0.00000000000E+00 -0.19624882661E+03  0.19625293589E+03  0.12700000000E+01 0.  1.
         25    2    1    2    0    0  0.00000000000E+00  0.00000000000E+00 -0.17636997991E+03  0.21617230953E+03  0.12499639031E+03 0.  0.
    9000005    1    3    3    0    0  0.47712038214E+02 -0.37703455194E+02 -0.63300728054E+02  0.87783661898E+02  0.10000000000E+01 0.  0.
    9000005    1    3    3    0    0 -0.47712038214E+02  0.37703455194E+02 -0.11306925186E+03  0.12838864763E+03  0.10000000000E+01 0.  0.
<mgrwt>
<rscale>  0 0.12499639E+03</rscale>
<asrwt>0</asrwt>
<pdfrwt beam="2">  1        4 0.30195559E-01 0.12499639E+03</pdfrwt>
<pdfrwt beam="1">  1       -4 0.30617178E-02 0.12499639E+03</pdfrwt>
<totfact> 0.87484735E+03</totfact>
</mgrwt>
</event>
<event>
 5    1  0.3289127E-002  0.1249997E+03  0.7818608E-02  0.1235070E+00
         -4   -1    0    0    0  501 -0.00000000000E+00  0.00000000000E+00  0.50790499580E+03  0.50790658360E+03  0.12700000000E+01 0. -1.
          4   -1    0    0  501    0  0.00000000000E+00 -0.00000000000E+00 -0.76368243790E+01  0.77417043728E+01  0.12700000000E+01 0. -1.
         25    2    1    2    0    0  0.00000000000E+00  0.00000000000E+00  0.50026817142E+03  0.51564828797E+03  0.12499965419E+03 0.  0.
    9000005    1    3    3    0    0 -0.83684440068E+01  0.54988603228E+02  0.36764438463E+03  0.37182949169E+03  0.10000000000E+01 0.  0.
    9000005    1    3    3    0    0  0.83684440068E+01 -0.54988603228E+02  0.13262378679E+03  0.14381879628E+03  0.10000000000E+01 0.  0.
<mgrwt>
<rscale>  0 0.12499965E+03</rscale>
<asrwt>0</asrwt>
<pdfrwt beam="2">  1        4 0.11830854E-02 0.12499965E+03</pdfrwt>
<pdfrwt beam="1">  1       -4 0.78147455E-01 0.12499965E+03</pdfrwt>
<totfact> 0.54670766E+03</totfact>
</mgrwt>
</event>
<event>
 5    1  0.3289127E-002  0.1250011E+03  0.7818608E-02  0.1235068E+00
          4   -1    0    0  501    0  0.00000000000E+00  0.00000000000E+00  0.13960811849E+03  0.13961389490E+03  0.12700000000E+01 0. -1.
         -4   -1    0    0    0  501 -0.00000000000E+00 -0.00000000000E+00 -0.27959835083E+02  0.27988663381E+02  0.12700000000E+01 0. -1.
         25    2    1    2    0    0  0.00000000000E+00  0.00000000000E+00  0.11164828341E+03  0.16760255828E+03  0.12500111341E+03 0.  0.
    9000005    1    3    3    0    0  0.21380041525E+02 -0.54884380847E+02  0.83818417623E+02  0.10244963919E+03  0.10000000000E+01 0.  0.
    9000005    1    3    3    0    0 -0.21380041525E+02  0.54884380847E+02  0.27829865783E+02  0.65152919091E+02  0.10000000000E+01 0.  0.
<mgrwt>
<rscale>  0 0.12500111E+03</rscale>
<asrwt>0</asrwt>
<pdfrwt beam="1">  1        4 0.21480834E-01 0.12500111E+03</pdfrwt>
<pdfrwt beam="2">  1       -4 0.43041750E-02 0.12500111E+03</pdfrwt>
<totfact> 0.95894369E+03</totfact>
</mgrwt>
</event>
<event>
 5    1  0.3289127E-002  0.1250022E+03  0.7818608E-02  0.1235066E+00
         -4   -1    0    0    0  501 -0.00000000000E+00  0.00000000000E+00  0.10148590980E+04  0.10148598926E+04  0.12700000000E+01 0.  1.
          4   -1    0    0  501    0  0.00000000000E+00 -0.00000000000E+00 -0.37436184438E+01  0.39531732890E+01  0.12700000000E+01 0.  1.
         25    2    1    2    0    0  0.00000000000E+00  0.00000000000E+00  0.10111154795E+04  0.10188130659E+04  0.12500220123E+03 0.  0.
    9000005    1    3    3    0    0 -0.52097104926E+02 -0.34441902682E+02  0.52384540668E+03  0.52755602841E+03  0.10000000000E+01 0.  0.
    9000005    1    3    3    0    0  0.52097104926E+02  0.34441902682E+02  0.48727007282E+03  0.49125703748E+03  0.10000000000E+01 0.  0.
<mgrwt>
<rscale>  0 0.12500220E+03</rscale>
<asrwt>0</asrwt>
<pdfrwt beam="2">  1        4 0.59212273E-03 0.12500220E+03</pdfrwt>
<pdfrwt beam="1">  1       -4 0.15614816E+00 0.12500220E+03</pdfrwt>
<totfact> 0.29987452E+03</totfact>
</mgrwt>
</event>
<event>
 5    1  0.3289127E-002  0.1249900E+03  0.7818608E-02  0.1235085E+00
          4   -1    0    0  501    0  0.00000000000E+00  0.00000000000E+00  0.73983412245E+03  0.73983521249E+03  0.12700000000E+01 0.  1.
         -4   -1    0    0    0  501 -0.00000000000E+00 -0.00000000000E+00 -0.52015616769E+01  0.53543574664E+01  0.12700000000E+01 0.  1.
         25    2    1    2    0    0  0.00000000000E+00  0.00000000000E+00  0.73463256077E+03  0.74518956995E+03  0.12498998290E+03 0.  0.
    9000005    1    3    3    0    0 -0.17107420259E+02 -0.48104245007E+02  0.58210880302E+03  0.58434436830E+03  0.10000000000E+01 0.  0.
    9000005    1    3    3    0    0  0.17107420259E+02  0.48104245007E+02  0.15252375775E+03  0.16084520165E+03  0.10000000000E+01 0.  0.
<mgrwt>
<rscale>  0 0.12498998E+03</rscale>
<asrwt>0</asrwt>
<pdfrwt beam="1">  1        4 0.11383246E+00 0.12498998E+03</pdfrwt>
<pdfrwt beam="2">  1       -4 0.81207772E-03 0.12498998E+03</pdfrwt>
<totfact> 0.40814223E+03</totfact>
</mgrwt>
</event>
<event>
 5    1  0.3289127E-002  0.1250007E+03  0.7818608E-02  0.1235068E+00
         -4   -1    0    0    0  501 -0.00000000000E+00  0.00000000000E+00  0.40879459407E+02  0.40899182161E+02  0.12700000000E+01 0. -1.
          4   -1    0    0  501    0  0.00000000000E+00 -0.00000000000E+00 -0.95509440486E+02  0.95517883781E+02  0.12700000000E+01 0. -1.
         25    2    1    2    0    0  0.00000000000E+00  0.00000000000E+00 -0.54629981079E+02  0.13641706594E+03  0.12500072419E+03 0.  0.
    9000005    1    3    3    0    0 -0.77110062603E+00  0.31132114662E+02  0.31813478391E+02  0.44529771691E+02  0.10000000000E+01 0.  0.
    9000005    1    3    3    0    0  0.77110062603E+00 -0.31132114662E+02 -0.86443459471E+02  0.91887294251E+02  0.10000000000E+01 0.  0.
<mgrwt>
<rscale>  0 0.12500072E+03</rscale>
<asrwt>0</asrwt>
<pdfrwt beam="2">  1        4 0.14695927E-01 0.12500072E+03</pdfrwt>
<pdfrwt beam="1">  1       -4 0.62913142E-02 0.12500072E+03</pdfrwt>
<totfact> 0.10208122E+04</totfact>
</mgrwt>
</event>
<event>
 5    1  0.3289127E-002  0.1250019E+03  0.7818608E-02  0.1235066E+00
          4   -1    0    0  501    0  0.00000000000E+00  0.00000000000E+00  0.40399471108E+01  0.42348639480E+01  0.12700000000E+01 0.  1.
         -4   -1    0    0    0  501 -0.00000000000E+00 -0.00000000000E+00 -0.94396406775E+03  0.94396492207E+03  0.12700000000E+01 0.  1.
         25    2    1    2    0    0  0.00000000000E+00  0.00000000000E+00 -0.93992412064E+03  0.94819978602E+03  0.12500192658E+03 0.  0.
    9000005    1    3    3    0    0 -0.27478580128E+02  0.77224810540E+00 -0.44248134035E+02  0.52101498045E+02  0.10000000000E+01 0.  0.
    9000005    1    3    3    0    0  0.27478580128E+02 -0.77224810540E+00 -0.89567598660E+03  0.89609828797E+03  0.10000000000E+01 0.  0.
<mgrwt>
<rscale>  0 0.12500193E+03</rscale>
<asrwt>0</asrwt>
<pdfrwt beam="1">  1        4 0.63659040E-03 0.12500193E+03</pdfrwt>
<pdfrwt beam="2">  1       -4 0.14524013E+00 0.12500193E+03</pdfrwt>
<totfact> 0.32378648E+03</totfact>
</mgrwt>
</event>
<event>
 5    1  0.3289127E-002  0.1250030E+03  0.7818608E-02  0.1235065E+00
          4   -1    0    0  501    0  0.00000000000E+00  0.00000000000E+00  0.10268451663E+02  0.10346690271E+02  0.12700000000E+01 0.  1.
         -4   -1    0    0    0  501 -0.00000000000E+00 -0.00000000000E+00 -0.37890783709E+03  0.37890996544E+03  0.12700000000E+01 0.  1.
         25    2    1    2    0    0  0.00000000000E+00  0.00000000000E+00 -0.36863938543E+03  0.38925665571E+03  0.12500299007E+03 0.  0.
    9000005    1    3    3    0    0  0.53759091556E+02  0.29743149403E+02 -0.14871368833E+03  0.16090822215E+03  0.10000000000E+01 0.  0.
    9000005    1    3    3    0    0 -0.53759091556E+02 -0.29743149403E+02 -0.21992569710E+03  0.22834843356E+03  0.10000000000E+01 0.  0.
<mgrwt>
<rscale>  0 0.12500299E+03</rscale>
<asrwt>0</asrwt>
<pdfrwt beam="1">  1        4 0.15859442E-02 0.12500299E+03</pdfrwt>
<pdfrwt beam="2">  1       -4 0.58299685E-01 0.12500299E+03</pdfrwt>
<totfact> 0.65606932E+03</totfact>
</mgrwt>
</event>
<event>
 5    1  0.3289127E-002  0.1249994E+03  0.7818608E-02  0.1235070E+00
          4   -1    0    0  501    0  0.00000000000E+00  0.00000000000E+00  0.14893497598E+03  0.14894039066E+03  0.12700000000E+01 0. -1.
         -4   -1    0    0    0  501 -0.00000000000E+00 -0.00000000000E+00 -0.26206357955E+02  0.26237112975E+02  0.12700000000E+01 0. -1.
         25    2    1    2    0    0  0.00000000000E+00  0.00000000000E+00  0.12272861802E+03  0.17517750363E+03  0.12499937639E+03 0.  0.
    9000005    1    3    3    0    0 -0.62309612152E+02  0.46918857822E+01  0.60183890151E+02  0.86761755356E+02  0.10000000000E+01 0.  0.
    9000005    1    3    3    0    0  0.62309612152E+02 -0.46918857822E+01  0.62544727871E+02  0.88415748276E+02  0.10000000000E+01 0.  0.
<mgrwt>
<rscale>  0 0.12499938E+03</rscale>
<asrwt>0</asrwt>
<pdfrwt beam="1">  1        4 0.22915855E-01 0.12499938E+03</pdfrwt>
<pdfrwt beam="2">  1       -4 0.40345297E-02 0.12499938E+03</pdfrwt>
<totfact> 0.94493663E+03</totfact>
</mgrwt>
</event>
<event>
 5    1  0.3289127E-002  0.1249981E+03  0.7818608E-02  0.1235072E+00
         -4   -1    0    0    0  501 -0.00000000000E+00  0.00000000000E+00  0.11493116471E+02  0.11563071660E+02  0.12700000000E+01 0. -1.
          4   -1    0    0  501    0  0.00000000000E+00 -0.00000000000E+00 -0.33876445903E+03  0.33876683959E+03  0.12700000000E+01 0. -1.
         25    2    1    2    0    0  0.00000000000E+00  0.00000000000E+00 -0.32727134256E+03  0.35032991125E+03  0.12499806019E+03 0.  0.
    9000005    1    3    3    0    0 -0.11821475265E+02  0.46544263524E+02 -0.51562942732E+02  0.70468807338E+02  0.10000000000E+01 0.  0.
    9000005    1    3    3    0    0  0.11821475265E+02 -0.46544263524E+02 -0.27570839983E+03  0.27986110391E+03  0.10000000000E+01 0.  0.
<mgrwt>
<rscale>  0 0.12499806E+03</rscale>
<asrwt>0</asrwt>
<pdfrwt beam="2">  1        4 0.52123166E-01 0.12499806E+03</pdfrwt>
<pdfrwt beam="1">  1       -4 0.17737363E-02 0.12499806E+03</pdfrwt>
<totfact> 0.69691272E+03</totfact>
</mgrwt>
</event>
<event>
 5    1  0.3289127E-002  0.1249992E+03  0.7818608E-02  0.1235070E+00
         -4   -1    0    0    0  501 -0.00000000000E+00  0.00000000000E+00  0.18707051201E+02  0.18750111057E+02  0.12700000000E+01 0.  1.
          4   -1    0    0  501    0  0.00000000000E+00 -0.00000000000E+00 -0.20852408163E+03  0.20852794901E+03  0.12700000000E+01 0.  1.
         25    2    1    2    0    0  0.00000000000E+00  0.00000000000E+00 -0.18981703042E+03  0.22727806007E+03  0.12499924619E+03 0.  0.
    9000005    1    3    3    0    0 -0.53842300289E+02 -0.20516922985E+01 -0.37353388808E+02  0.65570407938E+02  0.10000000000E+01 0.  0.
    9000005    1    3    3    0    0  0.53842300289E+02  0.20516922985E+01 -0.15246364162E+03  0.16170765213E+03  0.10000000000E+01 0.  0.
<mgrwt>
<rscale>  0 0.12499925E+03</rscale>
<asrwt>0</asrwt>
<pdfrwt beam="2">  1        4 0.32084236E-01 0.12499925E+03</pdfrwt>
<pdfrwt beam="1">  1       -4 0.28816178E-02 0.12499925E+03</pdfrwt>
<totfact> 0.85730756E+03</totfact>
</mgrwt>
</event>
<event>
 5    1  0.3289127E-002  0.1250020E+03  0.7818608E-02  0.1235066E+00
          4   -1    0    0  501    0  0.00000000000E+00  0.00000000000E+00  0.44927077572E+01  0.46687603270E+01  0.12700000000E+01 0.  1.
         -4   -1    0    0    0  501 -0.00000000000E+00 -0.00000000000E+00 -0.85260684423E+03  0.85260779009E+03  0.12700000000E+01 0.  1.
         25    2    1    2    0    0  0.00000000000E+00  0.00000000000E+00 -0.84811413647E+03  0.85727655042E+03  0.12500198165E+03 0.  0.
    9000005    1    3    3    0    0  0.61650728361E+02 -0.93048744375E+01 -0.45313806275E+03  0.45740845741E+03  0.10000000000E+01 0.  0.
    9000005    1    3    3    0    0 -0.61650728361E+02  0.93048744375E+01 -0.39497607372E+03  0.39986809301E+03  0.10000000000E+01 0.  0.
<mgrwt>
<rscale>  0 0.12500198E+03</rscale>
<asrwt>0</asrwt>
<pdfrwt beam="1">  1        4 0.70480175E-03 0.12500198E+03</pdfrwt>
<pdfrwt beam="2">  1       -4 0.13118377E+00 0.12500198E+03</pdfrwt>
<totfact> 0.35829878E+03</totfact>
</mgrwt>
</event>
<event>
 5    1  0.3289127E-002  0.1249982E+03  0.7818608E-02  0.1235072E+00
          4   -1    0    0  501    0  0.00000000000E+00  0.00000000000E+00  0.54501920540E+02  0.54516715258E+02  0.12700000000E+01 0.  1.
         -4   -1    0    0    0  501 -0.00000000000E+00 -0.00000000000E+00 -0.71639577836E+02  0.71650833998E+02  0.12700000000E+01 0.  1.
         25    2    1    2    0    0  0.00000000000E+00  0.00000000000E+00 -0.17137657296E+02  0.12616754926E+03  0.12499820474E+03 0.  0.
    9000005    1    3    3    0    0 -0.43930447906E+02  0.34043448658E+02 -0.37407020779E+02  0.67000939198E+02  0.10000000000E+01 0.  0.
    9000005    1    3    3    0    0  0.43930447906E+02 -0.34043448658E+02  0.20269363483E+02  0.59166610058E+02  0.10000000000E+01 0.  0.
<mgrwt>
<rscale>  0 0.12499820E+03</rscale>
<asrwt>0</asrwt>
<pdfrwt beam="1">  1        4 0.83869148E-02 0.12499820E+03</pdfrwt>
<pdfrwt beam="2">  1       -4 0.11023477E-01 0.12499820E+03</pdfrwt>
<totfact> 0.10427711E+04</totfact>
</mgrwt>
</event>
<event>
 5    1  0.3289127E-002  0.1250024E+03  0.7818608E-02  0.1235066E+00
         -4   -1    0    0    0  501 -0.00000000000E+00  0.00000000000E+00  0.50161153676E+02  0.50177228282E+02  0.12700000000E+01 0. -1.
          4   -1    0    0  501    0  0.00000000000E+00 -0.00000000000E+00 -0.77843232734E+02  0.77853591969E+02  0.12700000000E+01 0. -1.
         25    2    1    2    0    0  0.00000000000E+00  0.00000000000E+00 -0.27682079058E+02  0.12803082025E+03  0.12500237371E+03 0.  0.
    9000005    1    3    3    0    0 -0.56864989914E+01 -0.37254131816E+02 -0.64900499768E+02  0.75055189549E+02  0.10000000000E+01 0.  0.
    9000005    1    3    3    0    0  0.56864989914E+01  0.37254131816E+02  0.37218420710E+02  0.52975630702E+02  0.10000000000E+01 0.  0.
<mgrwt>
<rscale>  0 0.12500237E+03</rscale>
<asrwt>0</asrwt>
<pdfrwt beam="2">  1        4 0.11977915E-01 0.12500237E+03</pdfrwt>
<pdfrwt beam="1">  1       -4 0.77191339E-02 0.12500237E+03</pdfrwt>
<totfact> 0.10386265E+04</totfact>
</mgrwt>
</event>
<event>
 5    1  0.3289127E-002  0.1249967E+03  0.7818608E-02  0.1235074E+00
         -4   -1    0    0    0  501 -0.00000000000E+00  0.00000000000E+00  0.98746568585E+02  0.98754735114E+02  0.12700000000E+01 0.  1.
          4   -1    0    0  501    0  0.00000000000E+00 -0.00000000000E+00 -0.39536267514E+02  0.39556659982E+02  0.12700000000E+01 0.  1.
         25    2    1    2    0    0  0.00000000000E+00  0.00000000000E+00  0.59210301071E+02  0.13831139510E+03  0.12499672900E+03 0.  0.
    9000005    1    3    3    0    0 -0.41260273709E+02 -0.19624953256E+02  0.76778435060E+02  0.89350305355E+02  0.10000000000E+01 0.  0.
    9000005    1    3    3    0    0  0.41260273709E+02  0.19624953256E+02 -0.17568133988E+02  0.48961089741E+02  0.10000000000E+01 0.  0.
<mgrwt>
<rscale>  0 0.12499673E+03</rscale>
<asrwt>0</asrwt>
<pdfrwt beam="2">  1        4 0.60846996E-02 0.12499673E+03</pdfrwt>
<pdfrwt beam="1">  1       -4 0.15193976E-01 0.12499673E+03</pdfrwt>
<totfact> 0.10169453E+04</totfact>
</mgrwt>
</event>
<event>
 5    1  0.3289127E-002  0.1249921E+03  0.7818608E-02  0.1235082E+00
          4   -1    0    0  501    0  0.00000000000E+00  0.00000000000E+00  0.78597995695E+02  0.78608255465E+02  0.12700000000E+01 0.  1.
         -4   -1    0    0    0  501 -0.00000000000E+00 -0.00000000000E+00 -0.49671195006E+02  0.49687428122E+02  0.12700000000E+01 0.  1.
         25    2    1    2    0    0  0.00000000000E+00  0.00000000000E+00  0.28926800688E+02  0.12829568359E+03  0.12499209027E+03 0.  0.
    9000005    1    3    3    0    0 -0.61224309516E+02  0.34236966753E+01  0.26806962647E+02  0.66930942179E+02  0.10000000000E+01 0.  0.
    9000005    1    3    3    0    0  0.61224309516E+02 -0.34236966753E+01  0.21198380415E+01  0.61364741407E+02  0.10000000000E+01 0.  0.
<mgrwt>
<rscale>  0 0.12499209E+03</rscale>
<asrwt>0</asrwt>
<pdfrwt beam="1">  1        4 0.12094037E-01 0.12499209E+03</pdfrwt>
<pdfrwt beam="2">  1       -4 0.76437602E-02 0.12499209E+03</pdfrwt>
<totfact> 0.10382961E+04</totfact>
</mgrwt>
</event>
<event>
 5    1  0.3289127E-002  0.1250031E+03  0.7818608E-02  0.1235064E+00
          4   -1    0    0  501    0  0.00000000000E+00  0.00000000000E+00  0.67681706517E+02  0.67693620800E+02  0.12700000000E+01 0.  1.
         -4   -1    0    0    0  501 -0.00000000000E+00 -0.00000000000E+00 -0.57693928579E+02  0.57707904960E+02  0.12700000000E+01 0.  1.
         25    2    1    2    0    0  0.00000000000E+00  0.00000000000E+00  0.99877779383E+01  0.12540152576E+03  0.12500314778E+03 0.  0.
    9000005    1    3    3    0    0  0.14158464878E+01  0.15394177121E+02 -0.55750397005E+02  0.57862700220E+02  0.10000000000E+01 0.  0.
    9000005    1    3    3    0    0 -0.14158464878E+01 -0.15394177121E+02  0.65738174943E+02  0.67538825540E+02  0.10000000000E+01 0.  0.
<mgrwt>
<rscale>  0 0.12500315E+03</rscale>
<asrwt>0</asrwt>
<pdfrwt beam="1">  1        4 0.10414562E-01 0.12500315E+03</pdfrwt>
<pdfrwt beam="2">  1       -4 0.88779806E-02 0.12500315E+03</pdfrwt>
<totfact> 0.10443392E+04</totfact>
</mgrwt>
</event>
<event>
 5    1  0.3289127E-002  0.1249989E+03  0.7818608E-02  0.1235071E+00
         -4   -1    0    0    0  501 -0.00000000000E+00  0.00000000000E+00  0.33457749196E+02  0.33481844054E+02  0.12700000000E+01 0.  1.
          4   -1    0    0  501    0  0.00000000000E+00 -0.00000000000E+00 -0.11668005869E+03  0.11668697012E+03  0.12700000000E+01 0.  1.
         25    2    1    2    0    0  0.00000000000E+00  0.00000000000E+00 -0.83222309494E+02  0.15016881417E+03  0.12499887981E+03 0.  0.
    9000005    1    3    3    0    0 -0.25947096925E+02 -0.18916398285E+01 -0.10987078418E+03  0.11291332675E+03  0.10000000000E+01 0.  0.
    9000005    1    3    3    0    0  0.25947096925E+02  0.18916398285E+01  0.26648474691E+02  0.37255487427E+02  0.10000000000E+01 0.  0.
<mgrwt>
<rscale>  0 0.12499888E+03</rscale>
<asrwt>0</asrwt>
<pdfrwt beam="2">  1        4 0.17953163E-01 0.12499888E+03</pdfrwt>
<pdfrwt beam="1">  1       -4 0.51497312E-02 0.12499888E+03</pdfrwt>
<totfact> 0.99272561E+03</totfact>
</mgrwt>
</event>
<event>
 5    1  0.3289127E-002  0.1249952E+03  0.7818608E-02  0.1235077E+00
         -4   -1    0    0    0  501 -0.00000000000E+00  0.00000000000E+00  0.26592456627E+02  0.26622765624E+02  0.12700000000E+01 0.  1.
          4   -1    0    0  501    0  0.00000000000E+00 -0.00000000000E+00 -0.14676513894E+03  0.14677063367E+03  0.12700000000E+01 0.  1.
         25    2    1    2    0    0  0.00000000000E+00  0.00000000000E+00 -0.12017268231E+03  0.17339339929E+03  0.12499518928E+03 0.  0.
    9000005    1    3    3    0    0  0.25959505595E+02  0.23737928301E+02  0.11560442608E+02  0.37040909871E+02  0.10000000000E+01 0.  0.
    9000005    1    3    3    0    0 -0.25959505595E+02 -0.23737928301E+02 -0.13173312492E+03  0.13635248942E+03  0.10000000000E+01 0.  0.
<mgrwt>
<rscale>  0 0.12499519E+03</rscale>
<asrwt>0</asrwt>
<pdfrwt beam="2">  1        4 0.22582006E-01 0.12499519E+03</pdfrwt>
<pdfrwt beam="1">  1       -4 0.40939014E-02 0.12499519E+03</pdfrwt>
<totfact> 0.94830148E+03</totfact>
</mgrwt>
</event>
<event>
 5    1  0.3289127E-002  0.1250008E+03  0.7818608E-02  0.1235068E+00
         -4   -1    0    0    0  501 -0.00000000000E+00  0.00000000000E+00  0.79858868627E+02  0.79868966429E+02  0.12700000000E+01 0. -1.
          4   -1    0    0  501    0  0.00000000000E+00 -0.00000000000E+00 -0.48893608414E+02  0.48910099609E+02  0.12700000000E+01 0. -1.
         25    2    1    2    0    0  0.00000000000E+00  0.00000000000E+00  0.30965260213E+02  0.12877906604E+03  0.12500080204E+03 0.  0.
    9000005    1    3    3    0    0  0.45575488104E+02 -0.42650530792E+02  0.18591665979E+02  0.65137108753E+02  0.10000000000E+01 0.  0.
    9000005    1    3    3    0    0 -0.45575488104E+02  0.42650530792E+02  0.12373594234E+02  0.63641957285E+02  0.10000000000E+01 0.  0.
<mgrwt>
<rscale>  0 0.12500080E+03</rscale>
<asrwt>0</asrwt>
<pdfrwt beam="2">  1        4 0.75241390E-02 0.12500080E+03</pdfrwt>
<pdfrwt beam="1">  1       -4 0.12288025E-01 0.12500080E+03</pdfrwt>
<totfact> 0.10370509E+04</totfact>
</mgrwt>
</event>
<event>
 5    1  0.3289127E-002  0.1249990E+03  0.7818608E-02  0.1235071E+00
          4   -1    0    0  501    0  0.00000000000E+00  0.00000000000E+00  0.67874957826E+01  0.69052877564E+01  0.12700000000E+01 0.  1.
         -4   -1    0    0    0  501 -0.00000000000E+00 -0.00000000000E+00 -0.57042882783E+03  0.57043024159E+03  0.12700000000E+01 0.  1.
         25    2    1    2    0    0  0.00000000000E+00  0.00000000000E+00 -0.56364133205E+03  0.57733552934E+03  0.12499904901E+03 0.  0.
    9000005    1    3    3    0    0 -0.28277273026E+02  0.46867459881E+02 -0.42107544559E+03  0.42461946946E+03  0.10000000000E+01 0.  0.
    9000005    1    3    3    0    0  0.28277273026E+02 -0.46867459881E+02 -0.14256588645E+03  0.15271605988E+03  0.10000000000E+01 0.  0.
<mgrwt>
<rscale>  0 0.12499905E+03</rscale>
<asrwt>0</asrwt>
<pdfrwt beam="1">  1        4 0.10534002E-02 0.12499905E+03</pdfrwt>
<pdfrwt beam="2">  1       -4 0.87767413E-01 0.12499905E+03</pdfrwt>
<totfact> 0.50331305E+03</totfact>
</mgrwt>
</event>
<event>
 5    1  0.3289127E-002  0.1250036E+03  0.7818608E-02  0.1235064E+00
          4   -1    0    0  501    0  0.00000000000E+00  0.00000000000E+00  0.51192239206E+02  0.51207990148E+02  0.12700000000E+01 0. -1.
         -4   -1    0    0    0  501 -0.00000000000E+00 -0.00000000000E+00 -0.76277101170E+02  0.76287673073E+02  0.12700000000E+01 0. -1.
         25    2    1    2    0    0  0.00000000000E+00  0.00000000000E+00 -0.25084861964E+02  0.12749566322E+03  0.12500357531E+03 0.  0.
    9000005    1    3    3    0    0 -0.35471646191E+02  0.51416929911E+02 -0.14460099454E+02  0.64125134239E+02  0.10000000000E+01 0.  0.
    9000005    1    3    3    0    0  0.35471646191E+02 -0.51416929911E+02 -0.10624762509E+02  0.63370528981E+02  0.10000000000E+01 0.  0.
<mgrwt>
<rscale>  0 0.12500358E+03</rscale>
<asrwt>0</asrwt>
<pdfrwt beam="1">  1        4 0.78777540E-02 0.12500358E+03</pdfrwt>
<pdfrwt beam="2">  1       -4 0.11736963E-01 0.12500358E+03</pdfrwt>
<totfact> 0.10397555E+04</totfact>
</mgrwt>
</event>
<event>
 5    1  0.3289127E-002  0.1250039E+03  0.7818608E-02  0.1235063E+00
         -4   -1    0    0    0  501 -0.00000000000E+00  0.00000000000E+00  0.42057122592E+02  0.42076293334E+02  0.12700000000E+01 0. -1.
          4   -1    0    0  501    0  0.00000000000E+00 -0.00000000000E+00 -0.92840809728E+02  0.92849495696E+02  0.12700000000E+01 0. -1.
         25    2    1    2    0    0  0.00000000000E+00  0.00000000000E+00 -0.50783687136E+02  0.13492578903E+03  0.12500394260E+03 0.  0.
    9000005    1    3    3    0    0  0.42381318131E+02 -0.45561942466E+02 -0.19151084415E+02  0.65113982846E+02  0.10000000000E+01 0.  0.
    9000005    1    3    3    0    0 -0.42381318131E+02  0.45561942466E+02 -0.31632602720E+02  0.69811806184E+02  0.10000000000E+01 0.  0.
<mgrwt>
<rscale>  0 0.12500394E+03</rscale>
<asrwt>0</asrwt>
<pdfrwt beam="2">  1        4 0.14285344E-01 0.12500394E+03</pdfrwt>
<pdfrwt beam="1">  1       -4 0.64724694E-02 0.12500394E+03</pdfrwt>
<totfact> 0.10238725E+04</totfact>
</mgrwt>
</event>
<event>
 5    1  0.3289127E-002  0.1250088E+03  0.7818608E-02  0.1235056E+00
          4   -1    0    0  501    0  0.00000000000E+00  0.00000000000E+00  0.34972912553E+02  0.34995964231E+02  0.12700000000E+01 0. -1.
         -4   -1    0    0    0  501 -0.00000000000E+00 -0.00000000000E+00 -0.11164584515E+03  0.11165306820E+03  0.12700000000E+01 0. -1.
         25    2    1    2    0    0  0.00000000000E+00  0.00000000000E+00 -0.76672932598E+02  0.14664903243E+03  0.12500880017E+03 0.  0.
    9000005    1    3    3    0    0  0.18844801463E+02 -0.55925182717E+02 -0.62465122957E+02  0.85939770712E+02  0.10000000000E+01 0.  0.
    9000005    1    3    3    0    0 -0.18844801463E+02  0.55925182717E+02 -0.14207809641E+02  0.60709261722E+02  0.10000000000E+01 0.  0.
<mgrwt>
<rscale>  0 0.12500880E+03</rscale>
<asrwt>0</asrwt>
<pdfrwt beam="1">  1        4 0.53827770E-02 0.12500880E+03</pdfrwt>
<pdfrwt beam="2">  1       -4 0.17178613E-01 0.12500880E+03</pdfrwt>
<totfact> 0.99956102E+03</totfact>
</mgrwt>
</event>
<event>
 5    1  0.3289127E-002  0.1249969E+03  0.7818608E-02  0.1235074E+00
         -4   -1    0    0    0  501 -0.00000000000E+00  0.00000000000E+00  0.29471935743E+02  0.29499286372E+02  0.12700000000E+01 0.  1.
          4   -1    0    0  501    0  0.00000000000E+00 -0.00000000000E+00 -0.13244288743E+03  0.13244897633E+03  0.12700000000E+01 0.  1.
         25    2    1    2    0    0  0.00000000000E+00  0.00000000000E+00 -0.10297095168E+03  0.16194826270E+03  0.12499689156E+03 0.  0.
    9000005    1    3    3    0    0 -0.43783274690E+02 -0.21729651652E+02 -0.10192985264E+03  0.11304798876E+03  0.10000000000E+01 0.  0.
    9000005    1    3    3    0    0  0.43783274690E+02  0.21729651652E+02 -0.10410990385E+01  0.48900273933E+02  0.10000000000E+01 0.  0.
<mgrwt>
<rscale>  0 0.12499689E+03</rscale>
<asrwt>0</asrwt>
<pdfrwt beam="2">  1        4 0.20378401E-01 0.12499689E+03</pdfrwt>
<pdfrwt beam="1">  1       -4 0.45367163E-02 0.12499689E+03</pdfrwt>
<totfact> 0.96975259E+03</totfact>
</mgrwt>
</event>
<event>
 5    1  0.3289127E-002  0.1249980E+03  0.7818608E-02  0.1235072E+00
          4   -1    0    0  501    0  0.00000000000E+00  0.00000000000E+00  0.34936507881E+02  0.34959583563E+02  0.12700000000E+01 0.  1.
         -4   -1    0    0    0  501 -0.00000000000E+00 -0.00000000000E+00 -0.11174282204E+03  0.11175003882E+03  0.12700000000E+01 0.  1.
         25    2    1    2    0    0  0.00000000000E+00  0.00000000000E+00 -0.76806314155E+02  0.14670962238E+03  0.12499801361E+03 0.  0.
    9000005    1    3    3    0    0  0.50958870662E+02  0.25325286000E+02 -0.80920443878E+01  0.57486153051E+02  0.10000000000E+01 0.  0.
    9000005    1    3    3    0    0 -0.50958870662E+02 -0.25325286000E+02 -0.68714269768E+02  0.89223469333E+02  0.10000000000E+01 0.  0.
<mgrwt>
<rscale>  0 0.12499801E+03</rscale>
<asrwt>0</asrwt>
<pdfrwt beam="1">  1        4 0.53771776E-02 0.12499801E+03</pdfrwt>
<pdfrwt beam="2">  1       -4 0.17193533E-01 0.12499801E+03</pdfrwt>
<totfact> 0.99968147E+03</totfact>
</mgrwt>
</event>
<event>
 5    1  0.3289127E-002  0.1250007E+03  0.7818608E-02  0.1235068E+00
          4   -1    0    0  501    0  0.00000000000E+00  0.00000000000E+00  0.11711320819E+02  0.11779980277E+02  0.12700000000E+01 0. -1.
         -4   -1    0    0    0  501 -0.00000000000E+00 -0.00000000000E+00 -0.33250355133E+03  0.33250597671E+03  0.12700000000E+01 0. -1.
         25    2    1    2    0    0  0.00000000000E+00  0.00000000000E+00 -0.32079223051E+03  0.34428595699E+03  0.12500066008E+03 0.  0.
    9000005    1    3    3    0    0  0.59810911223E+02 -0.10473861356E+02 -0.11970697260E+03  0.13423042190E+03  0.10000000000E+01 0.  0.
    9000005    1    3    3    0    0 -0.59810911223E+02  0.10473861356E+02 -0.20108525791E+03  0.21005553509E+03  0.10000000000E+01 0.  0.
<mgrwt>
<rscale>  0 0.12500066E+03</rscale>
<asrwt>0</asrwt>
<pdfrwt beam="1">  1        4 0.18072100E-02 0.12500066E+03</pdfrwt>
<pdfrwt beam="2">  1       -4 0.51159853E-01 0.12500066E+03</pdfrwt>
<totfact> 0.70356754E+03</totfact>
</mgrwt>
</event>
<event>
 5    1  0.3289127E-002  0.1249999E+03  0.7818608E-02  0.1235069E+00
          4   -1    0    0  501    0  0.00000000000E+00  0.00000000000E+00  0.24126214929E+02  0.24159618101E+02  0.12700000000E+01 0.  1.
         -4   -1    0    0    0  501 -0.00000000000E+00 -0.00000000000E+00 -0.16176082553E+03  0.16176581090E+03  0.12700000000E+01 0.  1.
         25    2    1    2    0    0  0.00000000000E+00  0.00000000000E+00 -0.13763461060E+03  0.18592542900E+03  0.12499991646E+03 0.  0.
    9000005    1    3    3    0    0  0.44747668385E+02 -0.14760668115E+02 -0.77609636967E+01  0.47764670067E+02  0.10000000000E+01 0.  0.
    9000005    1    3    3    0    0 -0.44747668385E+02  0.14760668115E+02 -0.12987364690E+03  0.13816075893E+03  0.10000000000E+01 0.  0.
<mgrwt>
<rscale>  0 0.12499992E+03</rscale>
<asrwt>0</asrwt>
<pdfrwt beam="1">  1        4 0.37146784E-02 0.12499992E+03</pdfrwt>
<pdfrwt beam="2">  1       -4 0.24889233E-01 0.12499992E+03</pdfrwt>
<totfact> 0.92561323E+03</totfact>
</mgrwt>
</event>
<event>
 5    1  0.3289127E-002  0.1250049E+03  0.7818608E-02  0.1235062E+00
         -4   -1    0    0    0  501 -0.00000000000E+00  0.00000000000E+00  0.12026869621E+03  0.12027540142E+03  0.12700000000E+01 0. -1.
          4   -1    0    0  501    0  0.00000000000E+00 -0.00000000000E+00 -0.32461860140E+02  0.32486693641E+02  0.12700000000E+01 0. -1.
         25    2    1    2    0    0  0.00000000000E+00  0.00000000000E+00  0.87806836068E+02  0.15276209506E+03  0.12500486882E+03 0.  0.
    9000005    1    3    3    0    0  0.50094395757E+02 -0.30505264087E+02  0.70270659634E+02  0.91536797129E+02  0.10000000000E+01 0.  0.
    9000005    1    3    3    0    0 -0.50094395757E+02  0.30505264087E+02  0.17536176434E+02  0.61225297935E+02  0.10000000000E+01 0.  0.
<mgrwt>
<rscale>  0 0.12500487E+03</rscale>
<asrwt>0</asrwt>
<pdfrwt beam="2">  1        4 0.49965585E-02 0.12500487E+03</pdfrwt>
<pdfrwt beam="1">  1       -4 0.18505302E-01 0.12500487E+03</pdfrwt>
<totfact> 0.98745121E+03</totfact>
</mgrwt>
</event>
<event>
 5    1  0.3289127E-002  0.1249987E+03  0.7818608E-02  0.1235071E+00
          4   -1    0    0  501    0  0.00000000000E+00  0.00000000000E+00  0.27251224334E+03  0.27251520264E+03  0.12700000000E+01 0.  1.
         -4   -1    0    0    0  501 -0.00000000000E+00 -0.00000000000E+00 -0.14302756588E+02  0.14359030121E+02  0.12700000000E+01 0.  1.
         25    2    1    2    0    0  0.00000000000E+00  0.00000000000E+00  0.25820948676E+03  0.28687423277E+03  0.12499874549E+03 0.  0.
    9000005    1    3    3    0    0 -0.47937367782E+02  0.37722067358E+02  0.97954507047E+02  0.11539944127E+03  0.10000000000E+01 0.  0.
    9000005    1    3    3    0    0  0.47937367782E+02 -0.37722067358E+02  0.16025497971E+03  0.17147479149E+03  0.10000000000E+01 0.  0.
<mgrwt>
<rscale>  0 0.12499875E+03</rscale>
<asrwt>0</asrwt>
<pdfrwt beam="1">  1        4 0.41929512E-01 0.12499875E+03</pdfrwt>
<pdfrwt beam="2">  1       -4 0.22049807E-02 0.12499875E+03</pdfrwt>
<totfact> 0.77277529E+03</totfact>
</mgrwt>
</event>
<event>
 5    1  0.3289127E-002  0.1250000E+03  0.7818608E-02  0.1235069E+00
         -4   -1    0    0    0  501 -0.00000000000E+00  0.00000000000E+00  0.92854208635E+03  0.92854295486E+03  0.12700000000E+01 0. -1.
          4   -1    0    0  501    0  0.00000000000E+00 -0.00000000000E+00 -0.41101260770E+01  0.43018642899E+01  0.12700000000E+01 0. -1.
         25    2    1    2    0    0  0.00000000000E+00  0.00000000000E+00  0.92443196027E+03  0.93284481915E+03  0.12500002977E+03 0.  0.
    9000005    1    3    3    0    0  0.57812816028E+01 -0.20195735703E+02  0.22992267857E+02  0.31159835346E+02  0.10000000000E+01 0.  0.
    9000005    1    3    3    0    0 -0.57812816028E+01  0.20195735703E+02  0.90143969241E+03  0.90168498380E+03  0.10000000000E+01 0.  0.
<mgrwt>
<rscale>  0 0.12500003E+03</rscale>
<asrwt>0</asrwt>
<pdfrwt beam="2">  1        4 0.64714289E-03 0.12500003E+03</pdfrwt>
<pdfrwt beam="1">  1       -4 0.14286747E+00 0.12500003E+03</pdfrwt>
<totfact> 0.32932959E+03</totfact>
</mgrwt>
</event>
<event>
 5    1  0.3289127E-002  0.1249980E+03  0.7818608E-02  0.1235072E+00
          4   -1    0    0  501    0  0.00000000000E+00  0.00000000000E+00  0.80714160921E+02  0.80724151734E+02  0.12700000000E+01 0.  1.
         -4   -1    0    0    0  501 -0.00000000000E+00 -0.00000000000E+00 -0.48373246832E+02  0.48389915365E+02  0.12700000000E+01 0.  1.
         25    2    1    2    0    0  0.00000000000E+00  0.00000000000E+00  0.32340914089E+02  0.12911406710E+03  0.12499803038E+03 0.  0.
    9000005    1    3    3    0    0  0.22765548416E+02 -0.57770252509E+02  0.89064899088E+01  0.62737531288E+02  0.10000000000E+01 0.  0.
    9000005    1    3    3    0    0 -0.22765548416E+02  0.57770252509E+02  0.23434424180E+02  0.66376535811E+02  0.10000000000E+01 0.  0.
<mgrwt>
<rscale>  0 0.12499803E+03</rscale>
<asrwt>0</asrwt>
<pdfrwt beam="1">  1        4 0.12419614E-01 0.12499803E+03</pdfrwt>
<pdfrwt beam="2">  1       -4 0.74440888E-02 0.12499803E+03</pdfrwt>
<totfact> 0.10363957E+04</totfact>
</mgrwt>
</event>
<event>
 5    1  0.3289127E-002  0.1249981E+03  0.7818608E-02  0.1235072E+00
          4   -1    0    0  501    0  0.00000000000E+00  0.00000000000E+00  0.12137655820E+02  0.12203916945E+02  0.12700000000E+01 0. -1.
         -4   -1    0    0    0  501 -0.00000000000E+00 -0.00000000000E+00 -0.32087550819E+03  0.32087802146E+03  0.12700000000E+01 0. -1.
         25    2    1    2    0    0  0.00000000000E+00  0.00000000000E+00 -0.30873785237E+03  0.33308193840E+03  0.12499806481E+03 0.  0.
    9000005    1    3    3    0    0 -0.30218024038E+02  0.58693650463E-01 -0.30012556473E+03  0.30164463699E+03  0.10000000000E+01 0.  0.
    9000005    1    3    3    0    0  0.30218024038E+02 -0.58693650463E-01 -0.86122876387E+01  0.31437301412E+02  0.10000000000E+01 0.  0.
<mgrwt>
<rscale>  0 0.12499806E+03</rscale>
<asrwt>0</asrwt>
<pdfrwt beam="1">  1        4 0.18726222E-02 0.12499806E+03</pdfrwt>
<pdfrwt beam="2">  1       -4 0.49370747E-01 0.12499806E+03</pdfrwt>
<totfact> 0.71629822E+03</totfact>
</mgrwt>
</event>
<event>
 5    1  0.3289127E-002  0.1249979E+03  0.7818608E-02  0.1235073E+00
         -4   -1    0    0    0  501 -0.00000000000E+00  0.00000000000E+00  0.29240709579E+01  0.31879603145E+01  0.12700000000E+01 0.  1.
          4   -1    0    0  501    0  0.00000000000E+00 -0.00000000000E+00 -0.12779096779E+04  0.12779103089E+04  0.12700000000E+01 0.  1.
         25    2    1    2    0    0  0.00000000000E+00  0.00000000000E+00 -0.12749856069E+04  0.12810982693E+04  0.12499791059E+03 0.  0.
    9000005    1    3    3    0    0  0.51880005050E+02  0.34038788179E+02 -0.56152224569E+03  0.56494106456E+03  0.10000000000E+01 0.  0.
    9000005    1    3    3    0    0 -0.51880005050E+02 -0.34038788179E+02 -0.71346336123E+03  0.71615720470E+03  0.10000000000E+01 0.  0.
<mgrwt>
<rscale>  0 0.12499791E+03</rscale>
<asrwt>0</asrwt>
<pdfrwt beam="2">  1        4 0.19662141E+00 0.12499791E+03</pdfrwt>
<pdfrwt beam="1">  1       -4 0.47020582E-03 0.12499791E+03</pdfrwt>
<totfact> 0.22680173E+03</totfact>
</mgrwt>
</event>
<event>
 5    1  0.3289127E-002  0.1250008E+03  0.7818608E-02  0.1235068E+00
         -4   -1    0    0    0  501 -0.00000000000E+00  0.00000000000E+00  0.16668808111E+02  0.16717118886E+02  0.12700000000E+01 0.  1.
          4   -1    0    0  501    0  0.00000000000E+00 -0.00000000000E+00 -0.23395878770E+03  0.23396223465E+03  0.12700000000E+01 0.  1.
         25    2    1    2    0    0  0.00000000000E+00  0.00000000000E+00 -0.21728997959E+03  0.25067935354E+03  0.12500081223E+03 0.  0.
    9000005    1    3    3    0    0  0.11710259646E+02 -0.34571716430E+02 -0.21036885172E+03  0.21351437313E+03  0.10000000000E+01 0.  0.
    9000005    1    3    3    0    0 -0.11710259646E+02  0.34571716430E+02 -0.69211278712E+01  0.37164980410E+02  0.10000000000E+01 0.  0.
<mgrwt>
<rscale>  0 0.12500081E+03</rscale>
<asrwt>0</asrwt>
<pdfrwt beam="2">  1        4 0.35997639E-01 0.12500081E+03</pdfrwt>
<pdfrwt beam="1">  1       -4 0.25684135E-02 0.12500081E+03</pdfrwt>
<totfact> 0.82230652E+03</totfact>
</mgrwt>
</event>
<event>
 5    1  0.3289127E-002  0.1249936E+03  0.7818608E-02  0.1235079E+00
         -4   -1    0    0    0  501 -0.00000000000E+00  0.00000000000E+00  0.44910955868E+03  0.44911135434E+03  0.12700000000E+01 0. -1.
          4   -1    0    0  501    0  0.00000000000E+00 -0.00000000000E+00 -0.86486860397E+01  0.87414341051E+01  0.12700000000E+01 0. -1.
         25    2    1    2    0    0  0.00000000000E+00  0.00000000000E+00  0.44046087264E+03  0.45785278845E+03  0.12499358208E+03 0.  0.
    9000005    1    3    3    0    0 -0.29732875892E+02 -0.19914075414E+02  0.40787650771E+03  0.40944457482E+03  0.10000000000E+01 0.  0.
    9000005    1    3    3    0    0  0.29732875892E+02  0.19914075414E+02  0.32584364927E+02  0.48408213622E+02  0.10000000000E+01 0.  0.
<mgrwt>
<rscale>  0 0.12499358E+03</rscale>
<asrwt>0</asrwt>
<pdfrwt beam="2">  1        4 0.13378399E-02 0.12499358E+03</pdfrwt>
<pdfrwt beam="1">  1       -4 0.69101039E-01 0.12499358E+03</pdfrwt>
<totfact> 0.59297879E+03</totfact>
</mgrwt>
</event>
<event>
 5    1  0.3289127E-002  0.1249821E+03  0.7818608E-02  0.1235097E+00
         -4   -1    0    0    0  501 -0.00000000000E+00  0.00000000000E+00  0.12336278013E+02  0.12401477945E+02  0.12700000000E+01 0. -1.
          4   -1    0    0  501    0  0.00000000000E+00 -0.00000000000E+00 -0.31565612023E+03  0.31565867505E+03  0.12700000000E+01 0. -1.
         25    2    1    2    0    0  0.00000000000E+00  0.00000000000E+00 -0.30331984221E+03  0.32806015300E+03  0.12498214794E+03 0.  0.
    9000005    1    3    3    0    0  0.23225053669E+02 -0.17986961000E+02 -0.29641307049E+03  0.29786681963E+03  0.10000000000E+01 0.  0.
    9000005    1    3    3    0    0 -0.23225053669E+02  0.17986961000E+02 -0.69067717280E+01  0.30193333364E+02  0.10000000000E+01 0.  0.
<mgrwt>
<rscale>  0 0.12498215E+03</rscale>
<asrwt>0</asrwt>
<pdfrwt beam="2">  1        4 0.48567686E-01 0.12498215E+03</pdfrwt>
<pdfrwt beam="1">  1       -4 0.19031011E-02 0.12498215E+03</pdfrwt>
<totfact> 0.72236194E+03</totfact>
</mgrwt>
</event>
<event>
 5    1  0.3289127E-002  0.1249994E+03  0.7818608E-02  0.1235070E+00
          4   -1    0    0  501    0  0.00000000000E+00  0.00000000000E+00  0.34708861930E+01  0.36959370888E+01  0.12700000000E+01 0.  1.
         -4   -1    0    0    0  501 -0.00000000000E+00 -0.00000000000E+00 -0.10898559163E+04  0.10898566563E+04  0.12700000000E+01 0.  1.
         25    2    1    2    0    0  0.00000000000E+00  0.00000000000E+00 -0.10863850301E+04  0.10935525934E+04  0.12499936312E+03 0.  0.
    9000005    1    3    3    0    0  0.44337789846E+02  0.29477823183E+02 -0.25696544047E+03  0.26242526415E+03  0.10000000000E+01 0.  0.
    9000005    1    3    3    0    0 -0.44337789846E+02 -0.29477823183E+02 -0.82941958964E+03  0.83112732920E+03  0.10000000000E+01 0.  0.
<mgrwt>
<rscale>  0 0.12499936E+03</rscale>
<asrwt>0</asrwt>
<pdfrwt beam="1">  1        4 0.55135189E-03 0.12499936E+03</pdfrwt>
<pdfrwt beam="2">  1       -4 0.16768725E+00 0.12499936E+03</pdfrwt>
<totfact> 0.27673287E+03</totfact>
</mgrwt>
</event>
<event>
 5    1  0.3289127E-002  0.1249995E+03  0.7818608E-02  0.1235070E+00
         -4   -1    0    0    0  501 -0.00000000000E+00  0.00000000000E+00  0.82748332987E+02  0.82758078229E+02  0.12700000000E+01 0.  1.
          4   -1    0    0  501    0  0.00000000000E+00 -0.00000000000E+00 -0.47184914747E+02  0.47202002921E+02  0.12700000000E+01 0.  1.
         25    2    1    2    0    0  0.00000000000E+00  0.00000000000E+00  0.35563418240E+02  0.12996008115E+03  0.12499946390E+03 0.  0.
    9000005    1    3    3    0    0  0.36384146056E+02  0.30618239196E+02 -0.24372795585E+02  0.53444511601E+02  0.10000000000E+01 0.  0.
    9000005    1    3    3    0    0 -0.36384146056E+02 -0.30618239196E+02  0.59936213824E+02  0.76515569548E+02  0.10000000000E+01 0.  0.
<mgrwt>
<rscale>  0 0.12499946E+03</rscale>
<asrwt>0</asrwt>
<pdfrwt beam="2">  1        4 0.72612819E-02 0.12499946E+03</pdfrwt>
<pdfrwt beam="1">  1       -4 0.12732577E-01 0.12499946E+03</pdfrwt>
<totfact> 0.10345487E+04</totfact>
</mgrwt>
</event>
<event>
 5    1  0.3289127E-002  0.1250045E+03  0.7818608E-02  0.1235062E+00
         -4   -1    0    0    0  501 -0.00000000000E+00  0.00000000000E+00  0.11255668288E+04  0.11255675453E+04  0.12700000000E+01 0. -1.
          4   -1    0    0  501    0  0.00000000000E+00 -0.00000000000E+00 -0.33538052015E+01  0.35862109991E+01  0.12700000000E+01 0. -1.
         25    2    1    2    0    0  0.00000000000E+00  0.00000000000E+00  0.11222130236E+04  0.11291537563E+04  0.12500453989E+03 0.  0.
    9000005    1    3    3    0    0 -0.55372918115E+02 -0.21746803470E+02  0.38819066540E+03  0.39272391858E+03  0.10000000000E+01 0.  0.
    9000005    1    3    3    0    0  0.55372918115E+02  0.21746803470E+02  0.73402235819E+03  0.73642983769E+03  0.10000000000E+01 0.  0.
<mgrwt>
<rscale>  0 0.12500454E+03</rscale>
<asrwt>0</asrwt>
<pdfrwt beam="2">  1        4 0.53390249E-03 0.12500454E+03</pdfrwt>
<pdfrwt beam="1">  1       -4 0.17318207E+00 0.12500454E+03</pdfrwt>
<totfact> 0.26642775E+03</totfact>
</mgrwt>
</event>
<event>
 5    1  0.3289127E-002  0.1249894E+03  0.7818608E-02  0.1235086E+00
         -4   -1    0    0    0  501 -0.00000000000E+00  0.00000000000E+00  0.95367733458E+02  0.95376189297E+02  0.12700000000E+01 0. -1.
          4   -1    0    0  501    0  0.00000000000E+00 -0.00000000000E+00 -0.40932827889E+02  0.40952524940E+02  0.12700000000E+01 0. -1.
         25    2    1    2    0    0  0.00000000000E+00  0.00000000000E+00  0.54434905569E+02  0.13632871424E+03  0.12498943708E+03 0.  0.
    9000005    1    3    3    0    0 -0.16455382622E+01 -0.58634558922E+02  0.37258620085E+01  0.58784363089E+02  0.10000000000E+01 0.  0.
    9000005    1    3    3    0    0  0.16455382622E+01  0.58634558922E+02  0.50709043561E+02  0.77544351148E+02  0.10000000000E+01 0.  0.
<mgrwt>
<rscale>  0 0.12498944E+03</rscale>
<asrwt>0</asrwt>
<pdfrwt beam="2">  1        4 0.62995238E-02 0.12498944E+03</pdfrwt>
<pdfrwt beam="1">  1       -4 0.14674125E-01 0.12498944E+03</pdfrwt>
<totfact> 0.10212573E+04</totfact>
</mgrwt>
</event>
<event>
 5    1  0.3289127E-002  0.1249983E+03  0.7818608E-02  0.1235072E+00
         -4   -1    0    0    0  501 -0.00000000000E+00  0.00000000000E+00  0.49070153256E+03  0.49070317602E+03  0.12700000000E+01 0.  1.
          4   -1    0    0  501    0  0.00000000000E+00 -0.00000000000E+00 -0.79080066261E+01  0.80093363519E+01  0.12700000000E+01 0.  1.
         25    2    1    2    0    0  0.00000000000E+00  0.00000000000E+00  0.48279352594E+03  0.49871251238E+03  0.12499832524E+03 0.  0.
    9000005    1    3    3    0    0 -0.89080414804E+01 -0.60760302075E+02  0.19521584952E+03  0.20464944519E+03  0.10000000000E+01 0.  0.
    9000005    1    3    3    0    0  0.89080414804E+01  0.60760302075E+02  0.28757767642E+03  0.29406306719E+03  0.10000000000E+01 0.  0.
<mgrwt>
<rscale>  0 0.12499833E+03</rscale>
<asrwt>0</asrwt>
<pdfrwt beam="2">  1        4 0.12245373E-02 0.12499833E+03</pdfrwt>
<pdfrwt beam="1">  1       -4 0.75500470E-01 0.12499833E+03</pdfrwt>
<totfact> 0.55966455E+03</totfact>
</mgrwt>
</event>
<event>
 5    1  0.3289127E-002  0.1249993E+03  0.7818608E-02  0.1235070E+00
         -4   -1    0    0    0  501 -0.00000000000E+00  0.00000000000E+00  0.91119612798E+02  0.91128462823E+02  0.12700000000E+01 0.  1.
          4   -1    0    0  501    0  0.00000000000E+00 -0.00000000000E+00 -0.42848654469E+02  0.42867471232E+02  0.12700000000E+01 0.  1.
         25    2    1    2    0    0  0.00000000000E+00  0.00000000000E+00  0.48270958328E+02  0.13399593405E+03  0.12499929970E+03 0.  0.
    9000005    1    3    3    0    0 -0.50492381510E+02  0.31519152591E+02  0.44538732560E+02  0.74348075084E+02  0.10000000000E+01 0.  0.
    9000005    1    3    3    0    0  0.50492381510E+02 -0.31519152591E+02  0.37322257684E+01  0.59647858971E+02  0.10000000000E+01 0.  0.
<mgrwt>
<rscale>  0 0.12499930E+03</rscale>
<asrwt>0</asrwt>
<pdfrwt beam="2">  1        4 0.65942290E-02 0.12499930E+03</pdfrwt>
<pdfrwt beam="1">  1       -4 0.14020530E-01 0.12499930E+03</pdfrwt>
<totfact> 0.10259440E+04</totfact>
</mgrwt>
</event>
<event>
 5    1  0.3289127E-002  0.1250001E+03  0.7818608E-02  0.1235069E+00
          4   -1    0    0  501    0  0.00000000000E+00  0.00000000000E+00  0.78030169192E+03  0.78030272543E+03  0.12700000000E+01 0.  1.
         -4   -1    0    0    0  501 -0.00000000000E+00 -0.00000000000E+00 -0.49244825806E+01  0.50856099621E+01  0.12700000000E+01 0.  1.
         25    2    1    2    0    0  0.00000000000E+00  0.00000000000E+00  0.77537720934E+03  0.78538833539E+03  0.12500008243E+03 0.  0.
    9000005    1    3    3    0    0 -0.10920155384E+02  0.60858676351E+02  0.44466317112E+03  0.44894249524E+03  0.10000000000E+01 0.  0.
    9000005    1    3    3    0    0  0.10920155384E+02 -0.60858676351E+02  0.33071403822E+03  0.33644584015E+03  0.10000000000E+01 0.  0.
<mgrwt>
<rscale>  0 0.12500008E+03</rscale>
<asrwt>0</asrwt>
<pdfrwt beam="1">  1        4 0.12005891E+00 0.12500008E+03</pdfrwt>
<pdfrwt beam="2">  1       -4 0.77008645E-03 0.12500008E+03</pdfrwt>
<totfact> 0.38925334E+03</totfact>
</mgrwt>
</event>
<event>
 5    1  0.3289127E-002  0.1249971E+03  0.7818608E-02  0.1235074E+00
          4   -1    0    0  501    0  0.00000000000E+00  0.00000000000E+00  0.43465025873E+02  0.43483575912E+02  0.12700000000E+01 0. -1.
         -4   -1    0    0    0  501 -0.00000000000E+00 -0.00000000000E+00 -0.89824679099E+02  0.89833656696E+02  0.12700000000E+01 0. -1.
         25    2    1    2    0    0  0.00000000000E+00  0.00000000000E+00 -0.46359653227E+02  0.13331723261E+03  0.12499706822E+03 0.  0.
    9000005    1    3    3    0    0 -0.48409731962E+02  0.30016605552E+02  0.42324579513E+01  0.57126285174E+02  0.10000000000E+01 0.  0.
    9000005    1    3    3    0    0  0.48409731962E+02 -0.30016605552E+02 -0.50592111178E+02  0.76190947434E+02  0.10000000000E+01 0.  0.
<mgrwt>
<rscale>  0 0.12499707E+03</rscale>
<asrwt>0</asrwt>
<pdfrwt beam="1">  1        4 0.66890446E-02 0.12499707E+03</pdfrwt>
<pdfrwt beam="2">  1       -4 0.13821299E-01 0.12499707E+03</pdfrwt>
<totfact> 0.10274342E+04</totfact>
</mgrwt>
</event>
<event>
 5    1  0.3289127E-002  0.1249999E+03  0.7818608E-02  0.1235069E+00
         -4   -1    0    0    0  501 -0.00000000000E+00  0.00000000000E+00  0.10118088363E+02  0.10197480675E+02  0.12700000000E+01 0.  1.
          4   -1    0    0  501    0  0.00000000000E+00 -0.00000000000E+00 -0.38447624334E+03  0.38447834087E+03  0.12700000000E+01 0.  1.
         25    2    1    2    0    0  0.00000000000E+00  0.00000000000E+00 -0.37435815498E+03  0.39467582154E+03  0.12499990364E+03 0.  0.
    9000005    1    3    3    0    0 -0.47672616336E+02 -0.24165084091E+02 -0.84934863727E+02  0.10035716573E+03  0.10000000000E+01 0.  0.
    9000005    1    3    3    0    0  0.47672616336E+02  0.24165084091E+02 -0.28942329125E+03  0.29431865581E+03  0.10000000000E+01 0.  0.
<mgrwt>
<rscale>  0 0.12499990E+03</rscale>
<asrwt>0</asrwt>
<pdfrwt beam="2">  1        4 0.59156449E-01 0.12499990E+03</pdfrwt>
<pdfrwt beam="1">  1       -4 0.15628977E-02 0.12499990E+03</pdfrwt>
<totfact> 0.65074071E+03</totfact>
</mgrwt>
</event>
<event>
 4    1  0.3289127E-002  0.1248997E+03  0.7818608E-02  0.1235226E+00
         -4   -1    0    0    0  501 -0.00000000000E+00  0.00000000000E+00  0.29913335311E+03  0.29913604905E+03  0.12700000000E+01 0.  1.
          4   -1    0    0  501    0  0.00000000000E+00 -0.00000000000E+00 -0.13003914130E+02  0.13065782897E+02  0.12700000000E+01 0.  1.
    9000005    1    1    2    0    0 -0.13938423182E+02  0.39761628694E+01 -0.87528901362E+01  0.16961798186E+02  0.10000000000E+01 0.  0.
    9000005    1    1    2    0    0  0.13938423182E+02 -0.39761628694E+01  0.29488232912E+03  0.29524003377E+03  0.10000000000E+01 0.  0.
<mgrwt>
<rscale>  0 0.12489967E+03</rscale>
<asrwt>0</asrwt>
<pdfrwt beam="2">  1        4 0.20055686E-02 0.12489967E+03</pdfrwt>
<pdfrwt beam="1">  1       -4 0.46025484E-01 0.12489967E+03</pdfrwt>
<totfact> 0.74258414E+03</totfact>
</mgrwt>
</event>
<event>
 5    1  0.3289127E-002  0.1250014E+03  0.7818608E-02  0.1235067E+00
          4   -1    0    0  501    0  0.00000000000E+00  0.00000000000E+00  0.72413028916E+03  0.72413140284E+03  0.12700000000E+01 0.  1.
         -4   -1    0    0    0  501 -0.00000000000E+00 -0.00000000000E+00 -0.53186464323E+01  0.54681715291E+01  0.12700000000E+01 0.  1.
         25    2    1    2    0    0  0.00000000000E+00  0.00000000000E+00  0.71881164273E+03  0.72959957437E+03  0.12500144479E+03 0.  0.
    9000005    1    3    3    0    0 -0.48084175265E+02  0.59625008947E+01  0.58976821616E+03  0.59175602077E+03  0.10000000000E+01 0.  0.
    9000005    1    3    3    0    0  0.48084175265E+02 -0.59625008947E+01  0.12904342657E+03  0.13784355360E+03  0.10000000000E+01 0.  0.
<mgrwt>
<rscale>  0 0.12500144E+03</rscale>
<asrwt>0</asrwt>
<pdfrwt beam="1">  1        4 0.11141622E+00 0.12500144E+03</pdfrwt>
<pdfrwt beam="2">  1       -4 0.82984108E-03 0.12500144E+03</pdfrwt>
<totfact> 0.41568103E+03</totfact>
</mgrwt>
</event>
<event>
 4    1  0.3289127E-002  0.1249026E+03  0.7818608E-02  0.1235222E+00
         -4   -1    0    0    0  501 -0.00000000000E+00  0.00000000000E+00  0.33352111082E+02  0.33376282202E+02  0.12700000000E+01 0.  1.
          4   -1    0    0  501    0  0.00000000000E+00 -0.00000000000E+00 -0.11686906217E+03  0.11687596243E+03  0.12700000000E+01 0.  1.
    9000005    1    1    2    0    0 -0.26176046818E+02  0.19570188451E+02 -0.10576414162E+03  0.11070334844E+03  0.10000000000E+01 0.  0.
    9000005    1    1    2    0    0  0.26176046818E+02 -0.19570188451E+02  0.22247190532E+02  0.39548896187E+02  0.10000000000E+01 0.  0.
<mgrwt>
<rscale>  0 0.12490259E+03</rscale>
<asrwt>0</asrwt>
<pdfrwt beam="2">  1        4 0.17982246E-01 0.12490259E+03</pdfrwt>
<pdfrwt beam="1">  1       -4 0.51334842E-02 0.12490259E+03</pdfrwt>
<totfact> 0.99471349E+03</totfact>
</mgrwt>
</event>
<event>
 5    1  0.3289127E-002  0.1249963E+03  0.7818608E-02  0.1235075E+00
         -4   -1    0    0    0  501 -0.00000000000E+00  0.00000000000E+00  0.96839546756E+02  0.96847874091E+02  0.12700000000E+01 0.  1.
          4   -1    0    0  501    0  0.00000000000E+00 -0.00000000000E+00 -0.40314913429E+02  0.40334912232E+02  0.12700000000E+01 0.  1.
         25    2    1    2    0    0  0.00000000000E+00  0.00000000000E+00  0.56524633327E+02  0.13718278632E+03  0.12499633071E+03 0.  0.
    9000005    1    3    3    0    0  0.57250040335E+01  0.14351820302E+02 -0.38190683500E+02  0.41210177424E+02  0.10000000000E+01 0.  0.
    9000005    1    3    3    0    0 -0.57250040335E+01 -0.14351820302E+02  0.94715316827E+02  0.95972608899E+02  0.10000000000E+01 0.  0.
<mgrwt>
<rscale>  0 0.12499633E+03</rscale>
<asrwt>0</asrwt>
<pdfrwt beam="2">  1        4 0.62044733E-02 0.12499633E+03</pdfrwt>
<pdfrwt beam="1">  1       -4 0.14900571E-01 0.12499633E+03</pdfrwt>
<totfact> 0.10193109E+04</totfact>
</mgrwt>
</event>
<event>
 5    1  0.3289127E-002  0.1249994E+03  0.7818608E-02  0.1235070E+00
         -4   -1    0    0    0  501 -0.00000000000E+00  0.00000000000E+00  0.52603265530E+02  0.52618594094E+02  0.12700000000E+01 0.  1.
          4   -1    0    0  501    0  0.00000000000E+00 -0.00000000000E+00 -0.74226366239E+02  0.74237230181E+02  0.12700000000E+01 0.  1.
         25    2    1    2    0    0  0.00000000000E+00  0.00000000000E+00 -0.21623100708E+02  0.12685582428E+03  0.12499936667E+03 0.  0.
    9000005    1    3    3    0    0  0.60284204915E+02 -0.67957150112E+01 -0.26029024983E+02  0.66021793722E+02  0.10000000000E+01 0.  0.
    9000005    1    3    3    0    0 -0.60284204915E+02  0.67957150112E+01  0.44059242747E+01  0.60834030554E+02  0.10000000000E+01 0.  0.
<mgrwt>
<rscale>  0 0.12499937E+03</rscale>
<asrwt>0</asrwt>
<pdfrwt beam="2">  1        4 0.11421456E-01 0.12499937E+03</pdfrwt>
<pdfrwt beam="1">  1       -4 0.80948249E-02 0.12499937E+03</pdfrwt>
<totfact> 0.10412428E+04</totfact>
</mgrwt>
</event>
<event>
 5    1  0.3289127E-002  0.1249933E+03  0.7818608E-02  0.1235080E+00
          4   -1    0    0  501    0  0.00000000000E+00  0.00000000000E+00  0.13708899713E+03  0.13709487968E+03  0.12700000000E+01 0. -1.
         -4   -1    0    0    0  501 -0.00000000000E+00 -0.00000000000E+00 -0.28470578978E+02  0.28498890633E+02  0.12700000000E+01 0. -1.
         25    2    1    2    0    0  0.00000000000E+00  0.00000000000E+00  0.10861841815E+03  0.16559377031E+03  0.12499334384E+03 0.  0.
    9000005    1    3    3    0    0 -0.42099508274E+02  0.19680989130E+02  0.10965317311E+03  0.11909881738E+03  0.10000000000E+01 0.  0.
    9000005    1    3    3    0    0  0.42099508274E+02 -0.19680989130E+02 -0.10347549530E+01  0.46494952929E+02  0.10000000000E+01 0.  0.
<mgrwt>
<rscale>  0 0.12499334E+03</rscale>
<asrwt>0</asrwt>
<pdfrwt beam="1">  1        4 0.21093245E-01 0.12499334E+03</pdfrwt>
<pdfrwt beam="2">  1       -4 0.43827194E-02 0.12499334E+03</pdfrwt>
<totfact> 0.96289456E+03</totfact>
</mgrwt>
</event>
<event>
 5    1  0.3289127E-002  0.1250039E+03  0.7818608E-02  0.1235063E+00
          4   -1    0    0  501    0  0.00000000000E+00  0.00000000000E+00  0.10908794707E+04  0.10908802100E+04  0.12700000000E+01 0.  1.
         -4   -1    0    0    0  501 -0.00000000000E+00 -0.00000000000E+00 -0.34676852911E+01  0.36929312582E+01  0.12700000000E+01 0.  1.
         25    2    1    2    0    0  0.00000000000E+00  0.00000000000E+00  0.10874117854E+04  0.10945731412E+04  0.12500388171E+03 0.  0.
    9000005    1    3    3    0    0 -0.32243045840E+02 -0.37403429632E+02  0.87906949463E+03  0.88045602215E+03  0.10000000000E+01 0.  0.
    9000005    1    3    3    0    0  0.32243045840E+02  0.37403429632E+02  0.20834229080E+03  0.21411711910E+03  0.10000000000E+01 0.  0.
<mgrwt>
<rscale>  0 0.12500388E+03</rscale>
<asrwt>0</asrwt>
<pdfrwt beam="1">  1        4 0.16784480E+00 0.12500388E+03</pdfrwt>
<pdfrwt beam="2">  1       -4 0.55087417E-03 0.12500388E+03</pdfrwt>
<totfact> 0.27640457E+03</totfact>
</mgrwt>
</event>
<event>
 5    1  0.3289127E-002  0.1249984E+03  0.7818608E-02  0.1235072E+00
          4   -1    0    0  501    0  0.00000000000E+00  0.00000000000E+00  0.57739262399E+02  0.57753227809E+02  0.12700000000E+01 0. -1.
         -4   -1    0    0    0  501 -0.00000000000E+00 -0.00000000000E+00 -0.67623417616E+02  0.67635342167E+02  0.12700000000E+01 0. -1.
         25    2    1    2    0    0  0.00000000000E+00  0.00000000000E+00 -0.98841552165E+01  0.12538856998E+03  0.12499838781E+03 0.  0.
    9000005    1    3    3    0    0  0.59701855216E+02 -0.38320679442E+01 -0.23058156861E+02  0.64122342899E+02  0.10000000000E+01 0.  0.
    9000005    1    3    3    0    0 -0.59701855216E+02  0.38320679442E+01  0.13174001645E+02  0.61266227077E+02  0.10000000000E+01 0.  0.
<mgrwt>
<rscale>  0 0.12499839E+03</rscale>
<asrwt>0</asrwt>
<pdfrwt beam="1">  1        4 0.88849550E-02 0.12499839E+03</pdfrwt>
<pdfrwt beam="2">  1       -4 0.10405594E-01 0.12499839E+03</pdfrwt>
<totfact> 0.10444800E+04</totfact>
</mgrwt>
</event>
<event>
 5    1  0.3289127E-002  0.1250009E+03  0.7818608E-02  0.1235068E+00
          4   -1    0    0  501    0  0.00000000000E+00  0.00000000000E+00  0.34038328792E+03  0.34038565715E+03  0.12700000000E+01 0. -1.
         -4   -1    0    0    0  501 -0.00000000000E+00 -0.00000000000E+00 -0.11438650800E+02  0.11508937055E+02  0.12700000000E+01 0. -1.
         25    2    1    2    0    0  0.00000000000E+00  0.00000000000E+00  0.32894463712E+03  0.35189459421E+03  0.12500092457E+03 0.  0.
    9000005    1    3    3    0    0 -0.29979484772E+01  0.34126268299E+02  0.31160775927E+03  0.31348681874E+03  0.10000000000E+01 0.  0.
    9000005    1    3    3    0    0  0.29979484772E+01 -0.34126268299E+02  0.17336877848E+02  0.38407775471E+02  0.10000000000E+01 0.  0.
<mgrwt>
<rscale>  0 0.12500092E+03</rscale>
<asrwt>0</asrwt>
<pdfrwt beam="1">  1        4 0.52372246E-01 0.12500092E+03</pdfrwt>
<pdfrwt beam="2">  1       -4 0.17653814E-02 0.12500092E+03</pdfrwt>
<totfact> 0.69515206E+03</totfact>
</mgrwt>
</event>
<event>
 5    1  0.3289127E-002  0.1250002E+03  0.7818608E-02  0.1235069E+00
         -4   -1    0    0    0  501 -0.00000000000E+00  0.00000000000E+00  0.27938345554E+03  0.27938634206E+03  0.12700000000E+01 0. -1.
          4   -1    0    0  501    0  0.00000000000E+00 -0.00000000000E+00 -0.13949929694E+02  0.14007620728E+02  0.12700000000E+01 0. -1.
         25    2    1    2    0    0  0.00000000000E+00  0.00000000000E+00  0.26543352585E+03  0.29339396279E+03  0.12500024303E+03 0.  0.
    9000005    1    3    3    0    0  0.41258303052E+02 -0.45596519697E+02  0.10658267235E+03  0.12305346897E+03  0.10000000000E+01 0.  0.
    9000005    1    3    3    0    0 -0.41258303052E+02  0.45596519697E+02  0.15885085350E+03  0.17034049382E+03  0.10000000000E+01 0.  0.
<mgrwt>
<rscale>  0 0.12500024E+03</rscale>
<asrwt>0</asrwt>
<pdfrwt beam="2">  1        4 0.21508029E-02 0.12500024E+03</pdfrwt>
<pdfrwt beam="1">  1       -4 0.42986728E-01 0.12500024E+03</pdfrwt>
<totfact> 0.76434618E+03</totfact>
</mgrwt>
</event>
<event>
 4    1  0.3289127E-002  0.1249041E+03  0.7818608E-02  0.1235219E+00
         -4   -1    0    0    0  501 -0.00000000000E+00  0.00000000000E+00  0.25244079377E+03  0.25244398836E+03  0.12700000000E+01 0.  1.
          4   -1    0    0  501    0  0.00000000000E+00 -0.00000000000E+00 -0.15420801795E+02  0.15473009662E+02  0.12700000000E+01 0.  1.
    9000005    1    1    2    0    0  0.12814687591E+01 -0.53329253342E+02  0.18813467212E+03  0.19555384496E+03  0.10000000000E+01 0.  0.
    9000005    1    1    2    0    0 -0.12814687591E+01  0.53329253342E+02  0.48885319860E+02  0.72363153069E+02  0.10000000000E+01 0.  0.
<mgrwt>
<rscale>  0 0.12490413E+03</rscale>
<asrwt>0</asrwt>
<pdfrwt beam="2">  1        4 0.23766928E-02 0.12490413E+03</pdfrwt>
<pdfrwt beam="1">  1       -4 0.38841307E-01 0.12490413E+03</pdfrwt>
<totfact> 0.79978161E+03</totfact>
</mgrwt>
</event>
<event>
 5    1  0.3289127E-002  0.1250124E+03  0.7818608E-02  0.1235050E+00
          4   -1    0    0  501    0  0.00000000000E+00  0.00000000000E+00  0.61101094451E+02  0.61114291643E+02  0.12700000000E+01 0.  1.
         -4   -1    0    0    0  501 -0.00000000000E+00 -0.00000000000E+00 -0.63917218992E+02  0.63929834848E+02  0.12700000000E+01 0.  1.
         25    2    1    2    0    0  0.00000000000E+00  0.00000000000E+00 -0.28161245415E+01  0.12504412649E+03  0.12501241143E+03 0.  0.
    9000005    1    3    3    0    0  0.54200135052E+02 -0.15537145293E+02 -0.28377250861E+02  0.63129437586E+02  0.10000000000E+01 0.  0.
    9000005    1    3    3    0    0 -0.54200135052E+02  0.15537145293E+02  0.25561126320E+02  0.61914688905E+02  0.10000000000E+01 0.  0.
<mgrwt>
<rscale>  0 0.12501241E+03</rscale>
<asrwt>0</asrwt>
<pdfrwt beam="1">  1        4 0.94021540E-02 0.12501241E+03</pdfrwt>
<pdfrwt beam="2">  1       -4 0.98354039E-02 0.12501241E+03</pdfrwt>
<totfact> 0.10448973E+04</totfact>
</mgrwt>
</event>
<event>
 5    1  0.3289127E-002  0.1250021E+03  0.7818608E-02  0.1235066E+00
          4   -1    0    0  501    0  0.00000000000E+00  0.00000000000E+00  0.25681258227E+02  0.25712641329E+02  0.12700000000E+01 0.  1.
         -4   -1    0    0    0  501 -0.00000000000E+00 -0.00000000000E+00 -0.15198317662E+03  0.15198848271E+03  0.12700000000E+01 0.  1.
         25    2    1    2    0    0  0.00000000000E+00  0.00000000000E+00 -0.12630191840E+03  0.17770112404E+03  0.12500205956E+03 0.  0.
    9000005    1    3    3    0    0  0.35411835457E+02 -0.51294972463E+02 -0.69541209014E+02  0.93392462445E+02  0.10000000000E+01 0.  0.
    9000005    1    3    3    0    0 -0.35411835457E+02  0.51294972463E+02 -0.56760709383E+02  0.84308661596E+02  0.10000000000E+01 0.  0.
<mgrwt>
<rscale>  0 0.12500206E+03</rscale>
<asrwt>0</asrwt>
<pdfrwt beam="1">  1        4 0.39537851E-02 0.12500206E+03</pdfrwt>
<pdfrwt beam="2">  1       -4 0.23384849E-01 0.12500206E+03</pdfrwt>
<totfact> 0.94028110E+03</totfact>
</mgrwt>
</event>
<event>
 5    1  0.3289127E-002  0.1250058E+03  0.7818608E-02  0.1235060E+00
          4   -1    0    0  501    0  0.00000000000E+00  0.00000000000E+00  0.89150373414E+02  0.89159418907E+02  0.12700000000E+01 0.  1.
         -4   -1    0    0    0  501 -0.00000000000E+00 -0.00000000000E+00 -0.43799980684E+02  0.43818388924E+02  0.12700000000E+01 0.  1.
         25    2    1    2    0    0  0.00000000000E+00  0.00000000000E+00  0.45350392730E+02  0.13297780783E+03  0.12500575689E+03 0.  0.
    9000005    1    3    3    0    0  0.15755441891E+02 -0.57105580016E+02  0.43852802128E+02  0.73711257435E+02  0.10000000000E+01 0.  0.
    9000005    1    3    3    0    0 -0.15755441891E+02  0.57105580016E+02  0.14975906017E+01  0.59266550396E+02  0.10000000000E+01 0.  0.
<mgrwt>
<rscale>  0 0.12500576E+03</rscale>
<asrwt>0</asrwt>
<pdfrwt beam="1">  1        4 0.13717554E-01 0.12500576E+03</pdfrwt>
<pdfrwt beam="2">  1       -4 0.67405705E-02 0.12500576E+03</pdfrwt>
<totfact> 0.10279537E+04</totfact>
</mgrwt>
</event>
<event>
 5    1  0.3289127E-002  0.1249759E+03  0.7818608E-02  0.1235107E+00
          4   -1    0    0  501    0  0.00000000000E+00  0.00000000000E+00  0.23269543511E+02  0.23304174630E+02  0.12700000000E+01 0.  1.
         -4   -1    0    0    0  501 -0.00000000000E+00 -0.00000000000E+00 -0.16764309241E+03  0.16764790286E+03  0.12700000000E+01 0.  1.
         25    2    1    2    0    0  0.00000000000E+00  0.00000000000E+00 -0.14437354890E+03  0.19095207749E+03  0.12497589478E+03 0.  0.
    9000005    1    3    3    0    0  0.62317496037E+02  0.44892760816E+01 -0.72715301248E+02  0.95875643141E+02  0.10000000000E+01 0.  0.
    9000005    1    3    3    0    0 -0.62317496037E+02 -0.44892760816E+01 -0.71658247655E+02  0.95076434352E+02  0.10000000000E+01 0.  0.
<mgrwt>
<rscale>  0 0.12497589E+03</rscale>
<asrwt>0</asrwt>
<pdfrwt beam="1">  1        4 0.35829638E-02 0.12497589E+03</pdfrwt>
<pdfrwt beam="2">  1       -4 0.25794278E-01 0.12497589E+03</pdfrwt>
<totfact> 0.91731437E+03</totfact>
</mgrwt>
</event>
<event>
 5    1  0.3289127E-002  0.1249974E+03  0.7818608E-02  0.1235073E+00
         -4   -1    0    0    0  501 -0.00000000000E+00  0.00000000000E+00  0.11900508261E+03  0.11901185902E+03  0.12700000000E+01 0.  1.
          4   -1    0    0  501    0  0.00000000000E+00 -0.00000000000E+00 -0.32802878991E+02  0.32827454517E+02  0.12700000000E+01 0.  1.
         25    2    1    2    0    0  0.00000000000E+00  0.00000000000E+00  0.86202203623E+02  0.15183931354E+03  0.12499742888E+03 0.  0.
    9000005    1    3    3    0    0 -0.38360012536E+02 -0.20639922464E+02  0.97528918987E+02  0.10681941303E+03  0.10000000000E+01 0.  0.
    9000005    1    3    3    0    0  0.38360012536E+02  0.20639922464E+02 -0.11326715364E+02  0.45019900511E+02  0.10000000000E+01 0.  0.
<mgrwt>
<rscale>  0 0.12499743E+03</rscale>
<asrwt>0</asrwt>
<pdfrwt beam="2">  1        4 0.50490085E-02 0.12499743E+03</pdfrwt>
<pdfrwt beam="1">  1       -4 0.18310886E-01 0.12499743E+03</pdfrwt>
<totfact> 0.98944039E+03</totfact>
</mgrwt>
</event>
<event>
 5    1  0.3289127E-002  0.1250015E+03  0.7818608E-02  0.1235067E+00
         -4   -1    0    0    0  501 -0.00000000000E+00  0.00000000000E+00  0.77677500453E+02  0.77687881787E+02  0.12700000000E+01 0.  1.
          4   -1    0    0  501    0  0.00000000000E+00 -0.00000000000E+00 -0.50267477353E+02  0.50283517970E+02  0.12700000000E+01 0.  1.
         25    2    1    2    0    0  0.00000000000E+00  0.00000000000E+00  0.27410023100E+02  0.12797139976E+03  0.12500147915E+03 0.  0.
    9000005    1    3    3    0    0 -0.35864400470E+02 -0.43621904016E+02  0.41103083056E+02  0.69854056201E+02  0.10000000000E+01 0.  0.
    9000005    1    3    3    0    0  0.35864400470E+02  0.43621904016E+02 -0.13693059957E+02  0.58117343556E+02  0.10000000000E+01 0.  0.
<mgrwt>
<rscale>  0 0.12500148E+03</rscale>
<asrwt>0</asrwt>
<pdfrwt beam="2">  1        4 0.77354905E-02 0.12500148E+03</pdfrwt>
<pdfrwt beam="1">  1       -4 0.11952417E-01 0.12500148E+03</pdfrwt>
<totfact> 0.10387758E+04</totfact>
</mgrwt>
</event>
<event>
 5    1  0.3289127E-002  0.1250033E+03  0.7818608E-02  0.1235064E+00
          4   -1    0    0  501    0  0.00000000000E+00  0.00000000000E+00  0.69504813254E+03  0.69504929282E+03  0.12700000000E+01 0.  1.
         -4   -1    0    0    0  501 -0.00000000000E+00 -0.00000000000E+00 -0.55474882071E+01  0.56910039016E+01  0.12700000000E+01 0.  1.
         25    2    1    2    0    0  0.00000000000E+00  0.00000000000E+00  0.68950064433E+03  0.70074029672E+03  0.12500329960E+03 0.  0.
    9000005    1    3    3    0    0  0.54668477360E+02  0.72653746533E+01  0.50952844838E+03  0.51250528562E+03  0.10000000000E+01 0.  0.
    9000005    1    3    3    0    0 -0.54668477360E+02 -0.72653746533E+01  0.17997219596E+03  0.18823501110E+03  0.10000000000E+01 0.  0.
<mgrwt>
<rscale>  0 0.12500330E+03</rscale>
<asrwt>0</asrwt>
<pdfrwt beam="1">  1        4 0.10694161E+00 0.12500330E+03</pdfrwt>
<pdfrwt beam="2">  1       -4 0.86458863E-03 0.12500330E+03</pdfrwt>
<totfact> 0.43044531E+03</totfact>
</mgrwt>
</event>
<event>
 5    1  0.3289127E-002  0.1249992E+03  0.7818608E-02  0.1235070E+00
         -4   -1    0    0    0  501 -0.00000000000E+00  0.00000000000E+00  0.16754581656E+02  0.16802645818E+02  0.12700000000E+01 0. -1.
          4   -1    0    0  501    0  0.00000000000E+00 -0.00000000000E+00 -0.23275861778E+03  0.23276208251E+03  0.12700000000E+01 0. -1.
         25    2    1    2    0    0  0.00000000000E+00  0.00000000000E+00 -0.21600403613E+03  0.24956472832E+03  0.12499924000E+03 0.  0.
    9000005    1    3    3    0    0 -0.20223569417E+02  0.47375873053E+02 -0.37365013817E+02  0.63644405607E+02  0.10000000000E+01 0.  0.
    9000005    1    3    3    0    0  0.20223569417E+02 -0.47375873053E+02 -0.17863902231E+03  0.18592032272E+03  0.10000000000E+01 0.  0.
<mgrwt>
<rscale>  0 0.12499924E+03</rscale>
<asrwt>0</asrwt>
<pdfrwt beam="2">  1        4 0.35812980E-01 0.12499924E+03</pdfrwt>
<pdfrwt beam="1">  1       -4 0.25815919E-02 0.12499924E+03</pdfrwt>
<totfact> 0.82394575E+03</totfact>
</mgrwt>
</event>
<event>
 5    1  0.3289127E-002  0.1249977E+03  0.7818608E-02  0.1235073E+00
          4   -1    0    0  501    0  0.00000000000E+00  0.00000000000E+00  0.86060891104E+03  0.86060984811E+03  0.12700000000E+01 0.  1.
         -4   -1    0    0    0  501 -0.00000000000E+00 -0.00000000000E+00 -0.44489689273E+01  0.46266861268E+01  0.12700000000E+01 0.  1.
         25    2    1    2    0    0  0.00000000000E+00  0.00000000000E+00  0.85615994211E+03  0.86523653424E+03  0.12499765477E+03 0.  0.
    9000005    1    3    3    0    0  0.18384867942E+02  0.38795976310E+02  0.74240169321E+03  0.74364265963E+03  0.10000000000E+01 0.  0.
    9000005    1    3    3    0    0 -0.18384867942E+02 -0.38795976310E+02  0.11375824890E+03  0.12159387460E+03  0.10000000000E+01 0.  0.
<mgrwt>
<rscale>  0 0.12499765E+03</rscale>
<asrwt>0</asrwt>
<pdfrwt beam="1">  1        4 0.13241500E+00 0.12499765E+03</pdfrwt>
<pdfrwt beam="2">  1       -4 0.69819998E-03 0.12499765E+03</pdfrwt>
<totfact> 0.35513663E+03</totfact>
</mgrwt>
</event>
<event>
 5    1  0.3289127E-002  0.1249994E+03  0.7818608E-02  0.1235070E+00
          4   -1    0    0  501    0  0.00000000000E+00  0.00000000000E+00  0.28400147646E+02  0.28428529443E+02  0.12700000000E+01 0.  1.
         -4   -1    0    0    0  501 -0.00000000000E+00 -0.00000000000E+00 -0.13744204695E+03  0.13744791439E+03  0.12700000000E+01 0.  1.
         25    2    1    2    0    0  0.00000000000E+00  0.00000000000E+00 -0.10904189930E+03  0.16587644383E+03  0.12499943526E+03 0.  0.
    9000005    1    3    3    0    0 -0.53072477374E+02  0.31937058260E+02 -0.43533824669E+02  0.75715635342E+02  0.10000000000E+01 0.  0.
    9000005    1    3    3    0    0  0.53072477374E+02 -0.31937058260E+02 -0.65508074634E+02  0.90160808488E+02  0.10000000000E+01 0.  0.
<mgrwt>
<rscale>  0 0.12499944E+03</rscale>
<asrwt>0</asrwt>
<pdfrwt beam="1">  1        4 0.43718881E-02 0.12499944E+03</pdfrwt>
<pdfrwt beam="2">  1       -4 0.21147565E-01 0.12499944E+03</pdfrwt>
<totfact> 0.96222886E+03</totfact>
</mgrwt>
</event>
<event>
 5    1  0.3289127E-002  0.1250033E+03  0.7818608E-02  0.1235064E+00
         -4   -1    0    0    0  501 -0.00000000000E+00  0.00000000000E+00  0.46640523700E+02  0.46657811254E+02  0.12700000000E+01 0. -1.
          4   -1    0    0  501    0  0.00000000000E+00 -0.00000000000E+00 -0.83719010234E+02  0.83728642498E+02  0.12700000000E+01 0. -1.
         25    2    1    2    0    0  0.00000000000E+00  0.00000000000E+00 -0.37078486534E+02  0.13038645375E+03  0.12500325259E+03 0.  0.
    9000005    1    3    3    0    0 -0.12749467665E+02  0.45635059768E+02  0.23962859672E+02  0.53106743916E+02  0.10000000000E+01 0.  0.
    9000005    1    3    3    0    0  0.12749467665E+02 -0.45635059768E+02 -0.61041346206E+02  0.77279709836E+02  0.10000000000E+01 0.  0.
<mgrwt>
<rscale>  0 0.12500325E+03</rscale>
<asrwt>0</asrwt>
<pdfrwt beam="2">  1        4 0.12881918E-01 0.12500325E+03</pdfrwt>
<pdfrwt beam="1">  1       -4 0.71775360E-02 0.12500325E+03</pdfrwt>
<totfact> 0.10335489E+04</totfact>
</mgrwt>
</event>
<event>
 5    1  0.3289127E-002  0.1250026E+03  0.7818608E-02  0.1235065E+00
          4   -1    0    0  501    0  0.00000000000E+00  0.00000000000E+00  0.98053277492E+01  0.98872317799E+01  0.12700000000E+01 0.  1.
         -4   -1    0    0    0  501 -0.00000000000E+00 -0.00000000000E+00 -0.39665709724E+03  0.39665913035E+03  0.12700000000E+01 0.  1.
         25    2    1    2    0    0  0.00000000000E+00  0.00000000000E+00 -0.38685176949E+03  0.40654636213E+03  0.12500261199E+03 0.  0.
    9000005    1    3    3    0    0  0.58996800118E+02 -0.12745898480E+02 -0.24610244044E+03  0.25339789175E+03  0.10000000000E+01 0.  0.
    9000005    1    3    3    0    0 -0.58996800118E+02  0.12745898480E+02 -0.14074932906E+03  0.15314847039E+03  0.10000000000E+01 0.  0.
<mgrwt>
<rscale>  0 0.12500261E+03</rscale>
<asrwt>0</asrwt>
<pdfrwt beam="1">  1        4 0.15149690E-02 0.12500261E+03</pdfrwt>
<pdfrwt beam="2">  1       -4 0.61030613E-01 0.12500261E+03</pdfrwt>
<totfact> 0.63917360E+03</totfact>
</mgrwt>
</event>
<event>
 5    1  0.3289127E-002  0.1249888E+03  0.7818608E-02  0.1235087E+00
         -4   -1    0    0    0  501 -0.00000000000E+00  0.00000000000E+00  0.66957722215E+01  0.68151497154E+01  0.12700000000E+01 0. -1.
          4   -1    0    0  501    0  0.00000000000E+00 -0.00000000000E+00 -0.57801238141E+03  0.57801377662E+03  0.12700000000E+01 0. -1.
         25    2    1    2    0    0  0.00000000000E+00  0.00000000000E+00 -0.57131660919E+03  0.58482892634E+03  0.12498882008E+03 0.  0.
    9000005    1    3    3    0    0 -0.54662060807E+02 -0.30258457723E+02 -0.28089547602E+03  0.28776167849E+03  0.10000000000E+01 0.  0.
    9000005    1    3    3    0    0  0.54662060807E+02  0.30258457723E+02 -0.29042113317E+03  0.29706724785E+03  0.10000000000E+01 0.  0.
<mgrwt>
<rscale>  0 0.12498882E+03</rscale>
<asrwt>0</asrwt>
<pdfrwt beam="2">  1        4 0.88934233E-01 0.12498882E+03</pdfrwt>
<pdfrwt beam="1">  1       -4 0.10394095E-02 0.12498882E+03</pdfrwt>
<totfact> 0.49851713E+03</totfact>
</mgrwt>
</event>
<event>
 5    1  0.3289127E-002  0.1250002E+03  0.7818608E-02  0.1235069E+00
         -4   -1    0    0    0  501 -0.00000000000E+00  0.00000000000E+00  0.29450391197E+03  0.29450665029E+03  0.12700000000E+01 0.  1.
          4   -1    0    0  501    0  0.00000000000E+00 -0.00000000000E+00 -0.13230671869E+02  0.13291485173E+02  0.12700000000E+01 0.  1.
         25    2    1    2    0    0  0.00000000000E+00  0.00000000000E+00  0.28127324010E+03  0.30779813546E+03  0.12500022639E+03 0.  0.
    9000005    1    3    3    0    0 -0.50149246256E+02 -0.35777647710E+02  0.11477843740E+03  0.13026924682E+03  0.10000000000E+01 0.  0.
    9000005    1    3    3    0    0  0.50149246256E+02  0.35777647710E+02  0.16649480270E+03  0.17752888864E+03  0.10000000000E+01 0.  0.
<mgrwt>
<rscale>  0 0.12500023E+03</rscale>
<asrwt>0</asrwt>
<pdfrwt beam="2">  1        4 0.20403768E-02 0.12500023E+03</pdfrwt>
<pdfrwt beam="1">  1       -4 0.45313178E-01 0.12500023E+03</pdfrwt>
<totfact> 0.74630579E+03</totfact>
</mgrwt>
</event>
<event>
 5    1  0.3289127E-002  0.1249924E+03  0.7818608E-02  0.1235081E+00
          4   -1    0    0  501    0  0.00000000000E+00  0.00000000000E+00  0.58027728581E+02  0.58041624583E+02  0.12700000000E+01 0. -1.
         -4   -1    0    0    0  501 -0.00000000000E+00 -0.00000000000E+00 -0.67280858279E+02  0.67292843533E+02  0.12700000000E+01 0. -1.
         25    2    1    2    0    0  0.00000000000E+00  0.00000000000E+00 -0.92531296982E+01  0.12533446812E+03  0.12499243373E+03 0.  0.
    9000005    1    3    3    0    0  0.59680136947E+02 -0.96268063340E+00  0.13920850870E+02  0.61297924834E+02  0.10000000000E+01 0.  0.
    9000005    1    3    3    0    0 -0.59680136947E+02  0.96268063340E+00 -0.23173980569E+02  0.64036543282E+02  0.10000000000E+01 0.  0.
<mgrwt>
<rscale>  0 0.12499243E+03</rscale>
<asrwt>0</asrwt>
<pdfrwt beam="1">  1        4 0.89293338E-02 0.12499243E+03</pdfrwt>
<pdfrwt beam="2">  1       -4 0.10352892E-01 0.12499243E+03</pdfrwt>
<totfact> 0.10447388E+04</totfact>
</mgrwt>
</event>
<event>
 5    1  0.3289127E-002  0.1249995E+03  0.7818608E-02  0.1235070E+00
          4   -1    0    0  501    0  0.00000000000E+00  0.00000000000E+00  0.21080220212E+03  0.21080602771E+03  0.12700000000E+01 0. -1.
         -4   -1    0    0    0  501 -0.00000000000E+00 -0.00000000000E+00 -0.18504493434E+02  0.18548023540E+02  0.12700000000E+01 0. -1.
         25    2    1    2    0    0  0.00000000000E+00  0.00000000000E+00  0.19229770868E+03  0.22935405125E+03  0.12499948823E+03 0.  0.
    9000005    1    3    3    0    0  0.38536173975E+02  0.22655405174E+02  0.16024650701E+02  0.47498352796E+02  0.10000000000E+01 0.  0.
    9000005    1    3    3    0    0 -0.38536173975E+02 -0.22655405174E+02  0.17627305798E+03  0.18185569845E+03  0.10000000000E+01 0.  0.
<mgrwt>
<rscale>  0 0.12499949E+03</rscale>
<asrwt>0</asrwt>
<pdfrwt beam="1">  1        4 0.32434751E-01 0.12499949E+03</pdfrwt>
<pdfrwt beam="2">  1       -4 0.28504879E-02 0.12499949E+03</pdfrwt>
<totfact> 0.85409856E+03</totfact>
</mgrwt>
</event>
<event>
 5    1  0.3289127E-002  0.1249983E+03  0.7818608E-02  0.1235072E+00
         -4   -1    0    0    0  501 -0.00000000000E+00  0.00000000000E+00  0.22111020642E+03  0.22111385367E+03  0.12700000000E+01 0.  1.
          4   -1    0    0  501    0  0.00000000000E+00 -0.00000000000E+00 -0.17639413752E+02  0.17685073296E+02  0.12700000000E+01 0.  1.
         25    2    1    2    0    0  0.00000000000E+00  0.00000000000E+00  0.20347079267E+03  0.23879892696E+03  0.12499825619E+03 0.  0.
    9000005    1    3    3    0    0 -0.21896608132E+02 -0.15371729325E+02  0.20962564570E+03  0.21132832949E+03  0.10000000000E+01 0.  0.
    9000005    1    3    3    0    0  0.21896608132E+02  0.15371729325E+02 -0.61548530247E+01  0.27470597479E+02  0.10000000000E+01 0.  0.
<mgrwt>
<rscale>  0 0.12499826E+03</rscale>
<asrwt>0</asrwt>
<pdfrwt beam="2">  1        4 0.27175488E-02 0.12499826E+03</pdfrwt>
<pdfrwt beam="1">  1       -4 0.34020747E-01 0.12499826E+03</pdfrwt>
<totfact> 0.83979836E+03</totfact>
</mgrwt>
</event>
<event>
 5    1  0.3289127E-002  0.1249968E+03  0.7818608E-02  0.1235074E+00
          4   -1    0    0  501    0  0.00000000000E+00  0.00000000000E+00  0.31466831627E+02  0.31492449772E+02  0.12700000000E+01 0. -1.
         -4   -1    0    0    0  501 -0.00000000000E+00 -0.00000000000E+00 -0.12405296617E+03  0.12405946686E+03  0.12700000000E+01 0. -1.
         25    2    1    2    0    0  0.00000000000E+00  0.00000000000E+00 -0.92586134546E+02  0.15555191663E+03  0.12499682578E+03 0.  0.
    9000005    1    3    3    0    0  0.42882811661E+02 -0.28498341798E+02 -0.90360558464E+02  0.10400539191E+03  0.10000000000E+01 0.  0.
    9000005    1    3    3    0    0 -0.42882811661E+02  0.28498341798E+02 -0.22255760817E+01  0.51546524714E+02  0.10000000000E+01 0.  0.
<mgrwt>
<rscale>  0 0.12499683E+03</rscale>
<asrwt>0</asrwt>
<pdfrwt beam="1">  1        4 0.48435218E-02 0.12499683E+03</pdfrwt>
<pdfrwt beam="2">  1       -4 0.19087542E-01 0.12499683E+03</pdfrwt>
<totfact> 0.98214270E+03</totfact>
</mgrwt>
</event>
<event>
 5    1  0.3289127E-002  0.1250099E+03  0.7818608E-02  0.1235054E+00
          4   -1    0    0  501    0  0.00000000000E+00  0.00000000000E+00  0.59123901097E+02  0.59137539524E+02  0.12700000000E+01 0.  1.
         -4   -1    0    0    0  501 -0.00000000000E+00 -0.00000000000E+00 -0.66052013189E+02  0.66064221378E+02  0.12700000000E+01 0.  1.
         25    2    1    2    0    0  0.00000000000E+00  0.00000000000E+00 -0.69281120917E+01  0.12520176090E+03  0.12500992839E+03 0.  0.
    9000005    1    3    3    0    0 -0.18236533755E+02  0.30402926354E+02  0.48082986135E+02  0.59748494960E+02  0.10000000000E+01 0.  0.
    9000005    1    3    3    0    0  0.18236533755E+02 -0.30402926354E+02 -0.55011098227E+02  0.65453265942E+02  0.10000000000E+01 0.  0.
<mgrwt>
<rscale>  0 0.12500993E+03</rscale>
<asrwt>0</asrwt>
<pdfrwt beam="1">  1        4 0.90979730E-02 0.12500993E+03</pdfrwt>
<pdfrwt beam="2">  1       -4 0.10163836E-01 0.12500993E+03</pdfrwt>
<totfact> 0.10446138E+04</totfact>
</mgrwt>
</event>
<event>
 4    1  0.3289127E-002  0.1249324E+03  0.7818608E-02  0.1235175E+00
          4   -1    0    0  501    0  0.00000000000E+00  0.00000000000E+00  0.48809366442E+02  0.48825886090E+02  0.12700000000E+01 0. -1.
         -4   -1    0    0    0  501 -0.00000000000E+00 -0.00000000000E+00 -0.79909120666E+02  0.79919212119E+02  0.12700000000E+01 0. -1.
    9000005    1    1    2    0    0 -0.31013248980E+02  0.46189416337E+02  0.13702001999E+02  0.57306445123E+02  0.10000000000E+01 0.  0.
    9000005    1    1    2    0    0  0.31013248980E+02 -0.46189416337E+02 -0.44801756224E+02  0.71438653085E+02  0.10000000000E+01 0.  0.
<mgrwt>
<rscale>  0 0.12493240E+03</rscale>
<asrwt>0</asrwt>
<pdfrwt beam="1">  1        4 0.75111803E-02 0.12493240E+03</pdfrwt>
<pdfrwt beam="2">  1       -4 0.12295758E-01 0.12493240E+03</pdfrwt>
<totfact> 0.10387269E+04</totfact>
</mgrwt>
</event>
<event>
 5    1  0.3289127E-002  0.1249791E+03  0.7818608E-02  0.1235102E+00
          4   -1    0    0  501    0  0.00000000000E+00  0.00000000000E+00  0.11389835180E+03  0.11390543201E+03  0.12700000000E+01 0.  1.
         -4   -1    0    0    0  501 -0.00000000000E+00 -0.00000000000E+00 -0.34264540125E+02  0.34288068041E+02  0.12700000000E+01 0.  1.
         25    2    1    2    0    0  0.00000000000E+00  0.00000000000E+00  0.79633811673E+02  0.14819350006E+03  0.12497907624E+03 0.  0.
    9000005    1    3    3    0    0  0.29812138583E+02 -0.44982498640E+02  0.24752360405E+01  0.54030691132E+02  0.10000000000E+01 0.  0.
    9000005    1    3    3    0    0 -0.29812138583E+02  0.44982498640E+02  0.77158575633E+02  0.94162808924E+02  0.10000000000E+01 0.  0.
<mgrwt>
<rscale>  0 0.12497908E+03</rscale>
<asrwt>0</asrwt>
<pdfrwt beam="1">  1        4 0.17525178E-01 0.12497908E+03</pdfrwt>
<pdfrwt beam="2">  1       -4 0.52738222E-02 0.12497908E+03</pdfrwt>
<totfact> 0.99711979E+03</totfact>
</mgrwt>
</event>
<event>
 5    1  0.3289127E-002  0.1249996E+03  0.7818608E-02  0.1235070E+00
         -4   -1    0    0    0  501 -0.00000000000E+00  0.00000000000E+00  0.83816325060E+03  0.83816421276E+03  0.12700000000E+01 0.  1.
          4   -1    0    0  501    0  0.00000000000E+00 -0.00000000000E+00 -0.45729570437E+01  0.47460337255E+01  0.12700000000E+01 0.  1.
         25    2    1    2    0    0  0.00000000000E+00  0.00000000000E+00  0.83359029355E+03  0.84291024648E+03  0.12499962449E+03 0.  0.
    9000005    1    3    3    0    0  0.44329390009E+02  0.40180264635E+02  0.53848850243E+03  0.54180293072E+03  0.10000000000E+01 0.  0.
    9000005    1    3    3    0    0 -0.44329390009E+02 -0.40180264635E+02  0.29510179112E+03  0.30110731576E+03  0.10000000000E+01 0.  0.
<mgrwt>
<rscale>  0 0.12499962E+03</rscale>
<asrwt>0</asrwt>
<pdfrwt beam="2">  1        4 0.71691863E-03 0.12499962E+03</pdfrwt>
<pdfrwt beam="1">  1       -4 0.12896173E+00 0.12499962E+03</pdfrwt>
<totfact> 0.36419470E+03</totfact>
</mgrwt>
</event>
<event>
 5    1  0.3289127E-002  0.1250000E+03  0.7818608E-02  0.1235069E+00
          4   -1    0    0  501    0  0.00000000000E+00  0.00000000000E+00  0.64553025589E+02  0.64565517211E+02  0.12700000000E+01 0.  1.
         -4   -1    0    0    0  501 -0.00000000000E+00 -0.00000000000E+00 -0.60487291264E+02  0.60500622348E+02  0.12700000000E+01 0.  1.
         25    2    1    2    0    0  0.00000000000E+00  0.00000000000E+00  0.40657343249E+01  0.12506613956E+03  0.12500003627E+03 0.  0.
    9000005    1    3    3    0    0 -0.60563694196E+02 -0.13949681417E+02 -0.45049284942E+01  0.62320534714E+02  0.10000000000E+01 0.  0.
    9000005    1    3    3    0    0  0.60563694196E+02  0.13949681417E+02  0.85706628191E+01  0.62745604845E+02  0.10000000000E+01 0.  0.
<mgrwt>
<rscale>  0 0.12500004E+03</rscale>
<asrwt>0</asrwt>
<pdfrwt beam="1">  1        4 0.99332211E-02 0.12500004E+03</pdfrwt>
<pdfrwt beam="2">  1       -4 0.93077234E-02 0.12500004E+03</pdfrwt>
<totfact> 0.10451418E+04</totfact>
</mgrwt>
</event>
<event>
 5    1  0.3289127E-002  0.1250065E+03  0.7818608E-02  0.1235059E+00
          4   -1    0    0  501    0  0.00000000000E+00  0.00000000000E+00  0.39121520575E+03  0.39121726714E+03  0.12700000000E+01 0.  1.
         -4   -1    0    0    0  501 -0.00000000000E+00 -0.00000000000E+00 -0.99434700740E+01  0.10024245464E+02  0.12700000000E+01 0.  1.
         25    2    1    2    0    0  0.00000000000E+00  0.00000000000E+00  0.38127173568E+03  0.40124151261E+03  0.12500645988E+03 0.  0.
    9000005    1    3    3    0    0  0.28550243214E+02  0.45215426496E+02  0.86820765217E+02  0.10197252794E+03  0.10000000000E+01 0.  0.
    9000005    1    3    3    0    0 -0.28550243214E+02 -0.45215426496E+02  0.29445097046E+03  0.29926898467E+03  0.10000000000E+01 0.  0.
<mgrwt>
<rscale>  0 0.12500646E+03</rscale>
<asrwt>0</asrwt>
<pdfrwt beam="1">  1        4 0.60193318E-01 0.12500646E+03</pdfrwt>
<pdfrwt beam="2">  1       -4 0.15361369E-02 0.12500646E+03</pdfrwt>
<totfact> 0.64423036E+03</totfact>
</mgrwt>
</event>
<event>
 5    1  0.3289127E-002  0.1249974E+03  0.7818608E-02  0.1235073E+00
         -4   -1    0    0    0  501 -0.00000000000E+00  0.00000000000E+00  0.29441063849E+03  0.29441337768E+03  0.12700000000E+01 0.  1.
          4   -1    0    0  501    0  0.00000000000E+00 -0.00000000000E+00 -0.13234273651E+02  0.13295070480E+02  0.12700000000E+01 0.  1.
         25    2    1    2    0    0  0.00000000000E+00  0.00000000000E+00  0.28117636484E+03  0.30770844816E+03  0.12499736367E+03 0.  0.
    9000005    1    3    3    0    0  0.31590368174E+02 -0.52852458785E+02  0.16684348790E+03  0.17784567247E+03  0.10000000000E+01 0.  0.
    9000005    1    3    3    0    0 -0.31590368174E+02  0.52852458785E+02  0.11433287694E+03  0.12986277569E+03  0.10000000000E+01 0.  0.
<mgrwt>
<rscale>  0 0.12499736E+03</rscale>
<asrwt>0</asrwt>
<pdfrwt beam="2">  1        4 0.20409298E-02 0.12499736E+03</pdfrwt>
<pdfrwt beam="1">  1       -4 0.45298826E-01 0.12499736E+03</pdfrwt>
<totfact> 0.74646338E+03</totfact>
</mgrwt>
</event>
<event>
 5    1  0.3289127E-002  0.1250028E+03  0.7818608E-02  0.1235065E+00
         -4   -1    0    0    0  501 -0.00000000000E+00  0.00000000000E+00  0.28916547874E+02  0.28944423314E+02  0.12700000000E+01 0. -1.
          4   -1    0    0  501    0  0.00000000000E+00 -0.00000000000E+00 -0.13499700860E+03  0.13500298230E+03  0.12700000000E+01 0. -1.
         25    2    1    2    0    0  0.00000000000E+00  0.00000000000E+00 -0.10608046072E+03  0.16394740562E+03  0.12500275061E+03 0.  0.
    9000005    1    3    3    0    0 -0.50338934495E+02  0.15660396395E+02 -0.97053750337E+02  0.11045219235E+03  0.10000000000E+01 0.  0.
    9000005    1    3    3    0    0  0.50338934495E+02 -0.15660396395E+02 -0.90267103860E+01  0.53495213260E+02  0.10000000000E+01 0.  0.
<mgrwt>
<rscale>  0 0.12500275E+03</rscale>
<asrwt>0</asrwt>
<pdfrwt beam="2">  1        4 0.20771374E-01 0.12500275E+03</pdfrwt>
<pdfrwt beam="1">  1       -4 0.44513035E-02 0.12500275E+03</pdfrwt>
<totfact> 0.96581140E+03</totfact>
</mgrwt>
</event>
<event>
 5    1  0.3289127E-002  0.1250043E+03  0.7818608E-02  0.1235063E+00
          4   -1    0    0  501    0  0.00000000000E+00  0.00000000000E+00  0.22665093950E+02  0.22700647210E+02  0.12700000000E+01 0. -1.
         -4   -1    0    0    0  501 -0.00000000000E+00 -0.00000000000E+00 -0.17218532982E+03  0.17219001337E+03  0.12700000000E+01 0. -1.
         25    2    1    2    0    0  0.00000000000E+00  0.00000000000E+00 -0.14952023587E+03  0.19489066058E+03  0.12500427452E+03 0.  0.
    9000005    1    3    3    0    0  0.52699468231E+02  0.32972995038E+02 -0.64769299578E+02  0.89780368241E+02  0.10000000000E+01 0.  0.
    9000005    1    3    3    0    0 -0.52699468231E+02 -0.32972995038E+02 -0.84750936293E+02  0.10511029234E+03  0.10000000000E+01 0.  0.
<mgrwt>
<rscale>  0 0.12500427E+03</rscale>
<asrwt>0</asrwt>
<pdfrwt beam="1">  1        4 0.34900328E-02 0.12500427E+03</pdfrwt>
<pdfrwt beam="2">  1       -4 0.26493145E-01 0.12500427E+03</pdfrwt>
<totfact> 0.90994542E+03</totfact>
</mgrwt>
</event>
<event>
 5    1  0.3289127E-002  0.1250010E+03  0.7818608E-02  0.1235068E+00
          4   -1    0    0  501    0  0.00000000000E+00  0.00000000000E+00  0.11898211345E+02  0.11965798478E+02  0.12700000000E+01 0. -1.
         -4   -1    0    0    0  501 -0.00000000000E+00 -0.00000000000E+00 -0.32731222026E+03  0.32731468410E+03  0.12700000000E+01 0. -1.
         25    2    1    2    0    0  0.00000000000E+00  0.00000000000E+00 -0.31541400891E+03  0.33928048258E+03  0.12500099537E+03 0.  0.
    9000005    1    3    3    0    0  0.56132696858E+01  0.54736902046E+02 -0.23811741179E+03  0.24439422873E+03  0.10000000000E+01 0.  0.
    9000005    1    3    3    0    0 -0.56132696858E+01 -0.54736902046E+02 -0.77296597126E+02  0.94886253849E+02  0.10000000000E+01 0.  0.
<mgrwt>
<rscale>  0 0.12500100E+03</rscale>
<asrwt>0</asrwt>
<pdfrwt beam="1">  1        4 0.18358828E-02 0.12500100E+03</pdfrwt>
<pdfrwt beam="2">  1       -4 0.50361108E-01 0.12500100E+03</pdfrwt>
<totfact> 0.70918599E+03</totfact>
</mgrwt>
</event>
<event>
 5    1  0.3289127E-002  0.1250009E+03  0.7818608E-02  0.1235068E+00
          4   -1    0    0  501    0  0.00000000000E+00  0.00000000000E+00  0.72401214724E+02  0.72412352493E+02  0.12700000000E+01 0. -1.
         -4   -1    0    0    0  501 -0.00000000000E+00 -0.00000000000E+00 -0.53930869245E+02  0.53945820575E+02  0.12700000000E+01 0. -1.
         25    2    1    2    0    0  0.00000000000E+00  0.00000000000E+00  0.18470345479E+02  0.12635817307E+03  0.12500093695E+03 0.  0.
    9000005    1    3    3    0    0  0.14864673645E+02  0.55625644002E+02 -0.15321344594E+02  0.59589549364E+02  0.10000000000E+01 0.  0.
    9000005    1    3    3    0    0 -0.14864673645E+02 -0.55625644002E+02  0.33791690073E+02  0.66768623703E+02  0.10000000000E+01 0.  0.
<mgrwt>
<rscale>  0 0.12500094E+03</rscale>
<asrwt>0</asrwt>
<pdfrwt beam="1">  1        4 0.11140655E-01 0.12500094E+03</pdfrwt>
<pdfrwt beam="2">  1       -4 0.82990637E-02 0.12500094E+03</pdfrwt>
<totfact> 0.10422902E+04</totfact>
</mgrwt>
</event>
<event>
 5    1  0.3289127E-002  0.1250011E+03  0.7818608E-02  0.1235068E+00
          4   -1    0    0  501    0  0.00000000000E+00  0.00000000000E+00  0.20170199073E+03  0.20170598891E+03  0.12700000000E+01 0.  1.
         -4   -1    0    0    0  501 -0.00000000000E+00 -0.00000000000E+00 -0.19341763758E+02  0.19383413664E+02  0.12700000000E+01 0.  1.
         25    2    1    2    0    0  0.00000000000E+00  0.00000000000E+00  0.18236022697E+03  0.22108940258E+03  0.12500108620E+03 0.  0.
    9000005    1    3    3    0    0  0.12272511264E+02  0.25112269262E+02  0.19003884283E+03  0.19208592448E+03  0.10000000000E+01 0.  0.
    9000005    1    3    3    0    0 -0.12272511264E+02 -0.25112269262E+02 -0.76786158588E+01  0.29003478097E+02  0.10000000000E+01 0.  0.
<mgrwt>
<rscale>  0 0.12500109E+03</rscale>
<asrwt>0</asrwt>
<pdfrwt beam="1">  1        4 0.31034588E-01 0.12500109E+03</pdfrwt>
<pdfrwt beam="2">  1       -4 0.29791672E-02 0.12500109E+03</pdfrwt>
<totfact> 0.86694154E+03</totfact>
</mgrwt>
</event>
<event>
 5    1  0.3289127E-002  0.1250059E+03  0.7818608E-02  0.1235060E+00
         -4   -1    0    0    0  501 -0.00000000000E+00  0.00000000000E+00  0.31590059702E+01  0.34047347503E+01  0.12700000000E+01 0. -1.
          4   -1    0    0  501    0  0.00000000000E+00 -0.00000000000E+00 -0.11901170682E+04  0.11901177458E+04  0.12700000000E+01 0. -1.
         25    2    1    2    0    0  0.00000000000E+00  0.00000000000E+00 -0.11869580622E+04  0.11935224806E+04  0.12500588042E+03 0.  0.
    9000005    1    3    3    0    0 -0.62213692957E+02  0.48813299621E+01 -0.62549819879E+03  0.62860430134E+03  0.10000000000E+01 0.  0.
    9000005    1    3    3    0    0  0.62213692957E+02 -0.48813299621E+01 -0.56145986345E+03  0.56491817924E+03  0.10000000000E+01 0.  0.
<mgrwt>
<rscale>  0 0.12500588E+03</rscale>
<asrwt>0</asrwt>
<pdfrwt beam="2">  1        4 0.18311354E+00 0.12500588E+03</pdfrwt>
<pdfrwt beam="1">  1       -4 0.50495621E-03 0.12500588E+03</pdfrwt>
<totfact> 0.24879795E+03</totfact>
</mgrwt>
</event>
<event>
 5    1  0.3289127E-002  0.1249909E+03  0.7818608E-02  0.1235083E+00
          4   -1    0    0  501    0  0.00000000000E+00  0.00000000000E+00  0.28741551905E+03  0.28741832490E+03  0.12700000000E+01 0.  1.
         -4   -1    0    0    0  501 -0.00000000000E+00 -0.00000000000E+00 -0.13556429835E+02  0.13615788257E+02  0.12700000000E+01 0.  1.
         25    2    1    2    0    0  0.00000000000E+00  0.00000000000E+00  0.27385908921E+03  0.30103411316E+03  0.12499094584E+03 0.  0.
    9000005    1    3    3    0    0 -0.55115166983E+02  0.25289427738E+02  0.10060688865E+03  0.11747332816E+03  0.10000000000E+01 0.  0.
    9000005    1    3    3    0    0  0.55115166983E+02 -0.25289427738E+02  0.17325220057E+03  0.18356078500E+03  0.10000000000E+01 0.  0.
<mgrwt>
<rscale>  0 0.12499095E+03</rscale>
<asrwt>0</asrwt>
<pdfrwt beam="1">  1        4 0.44222553E-01 0.12499095E+03</pdfrwt>
<pdfrwt beam="2">  1       -4 0.20903865E-02 0.12499095E+03</pdfrwt>
<totfact> 0.75484474E+03</totfact>
</mgrwt>
</event>
<event>
 5    1  0.3289127E-002  0.1250001E+03  0.7818608E-02  0.1235069E+00
         -4   -1    0    0    0  501 -0.00000000000E+00  0.00000000000E+00  0.10452473485E+04  0.10452481200E+04  0.12700000000E+01 0.  1.
          4   -1    0    0  501    0  0.00000000000E+00 -0.00000000000E+00 -0.36284687434E+01  0.38443055838E+01  0.12700000000E+01 0.  1.
         25    2    1    2    0    0  0.00000000000E+00  0.00000000000E+00  0.10416188797E+04  0.10490924256E+04  0.12500010734E+03 0.  0.
    9000005    1    3    3    0    0  0.18236501367E+02  0.31418533604E+02  0.94756666576E+03  0.94826329693E+03  0.10000000000E+01 0.  0.
    9000005    1    3    3    0    0 -0.18236501367E+02 -0.31418533604E+02  0.94052213964E+02  0.10082912867E+03  0.10000000000E+01 0.  0.
<mgrwt>
<rscale>  0 0.12500011E+03</rscale>
<asrwt>0</asrwt>
<pdfrwt beam="2">  1        4 0.57488764E-03 0.12500011E+03</pdfrwt>
<pdfrwt beam="1">  1       -4 0.16082409E+00 0.12500011E+03</pdfrwt>
<totfact> 0.29023025E+03</totfact>
</mgrwt>
</event>
<event>
 5    1  0.3289127E-002  0.1249984E+03  0.7818608E-02  0.1235072E+00
         -4   -1    0    0    0  501 -0.00000000000E+00  0.00000000000E+00  0.56161080795E+01  0.57579136812E+01  0.12700000000E+01 0.  1.
          4   -1    0    0  501    0  0.00000000000E+00 -0.00000000000E+00 -0.68671259770E+03  0.68671377206E+03  0.12700000000E+01 0.  1.
         25    2    1    2    0    0  0.00000000000E+00  0.00000000000E+00 -0.68109648962E+03  0.69247168574E+03  0.12499842952E+03 0.  0.
    9000005    1    3    3    0    0 -0.59351884114E+02  0.19003440111E+02 -0.31493585295E+03  0.32104418443E+03  0.10000000000E+01 0.  0.
    9000005    1    3    3    0    0  0.59351884114E+02 -0.19003440111E+02 -0.36616063667E+03  0.37142750131E+03  0.10000000000E+01 0.  0.
<mgrwt>
<rscale>  0 0.12499843E+03</rscale>
<asrwt>0</asrwt>
<pdfrwt beam="2">  1        4 0.10565902E+00 0.12499843E+03</pdfrwt>
<pdfrwt beam="1">  1       -4 0.87501563E-03 0.12499843E+03</pdfrwt>
<totfact> 0.43488605E+03</totfact>
</mgrwt>
</event>
<event>
 5    1  0.3289127E-002  0.1249909E+03  0.7818608E-02  0.1235083E+00
         -4   -1    0    0    0  501 -0.00000000000E+00  0.00000000000E+00  0.28554948274E+03  0.28555230693E+03  0.12700000000E+01 0. -1.
          4   -1    0    0  501    0  0.00000000000E+00 -0.00000000000E+00 -0.13645400626E+02  0.13704373690E+02  0.12700000000E+01 0. -1.
         25    2    1    2    0    0  0.00000000000E+00  0.00000000000E+00  0.27190408211E+03  0.29925668062E+03  0.12499092377E+03 0.  0.
    9000005    1    3    3    0    0 -0.51481449491E+02  0.31971339999E+02  0.17243369654E+03  0.18277550691E+03  0.10000000000E+01 0.  0.
    9000005    1    3    3    0    0  0.51481449491E+02 -0.31971339999E+02  0.99470385570E+02  0.11648117371E+03  0.10000000000E+01 0.  0.
<mgrwt>
<rscale>  0 0.12499092E+03</rscale>
<asrwt>0</asrwt>
<pdfrwt beam="2">  1        4 0.21040461E-02 0.12499092E+03</pdfrwt>
<pdfrwt beam="1">  1       -4 0.43935443E-01 0.12499092E+03</pdfrwt>
<totfact> 0.75707427E+03</totfact>
</mgrwt>
</event>
<event>
 5    1  0.3289127E-002  0.1249986E+03  0.7818608E-02  0.1235071E+00
          4   -1    0    0  501    0  0.00000000000E+00  0.00000000000E+00  0.50552820505E+02  0.50568770610E+02  0.12700000000E+01 0.  1.
         -4   -1    0    0    0  501 -0.00000000000E+00 -0.00000000000E+00 -0.77235564025E+02  0.77246004752E+02  0.12700000000E+01 0.  1.
         25    2    1    2    0    0  0.00000000000E+00  0.00000000000E+00 -0.26682743519E+02  0.12781477536E+03  0.12499859199E+03 0.  0.
    9000005    1    3    3    0    0  0.33264722677E+02 -0.50469558393E+02  0.28728643417E+01  0.60522487133E+02  0.10000000000E+01 0.  0.
    9000005    1    3    3    0    0 -0.33264722677E+02  0.50469558393E+02 -0.29555607861E+02  0.67292288230E+02  0.10000000000E+01 0.  0.
<mgrwt>
<rscale>  0 0.12499859E+03</rscale>
<asrwt>0</asrwt>
<pdfrwt beam="1">  1        4 0.77793871E-02 0.12499859E+03</pdfrwt>
<pdfrwt beam="2">  1       -4 0.11884425E-01 0.12499859E+03</pdfrwt>
<totfact> 0.10391820E+04</totfact>
</mgrwt>
</event>
<event>
 5    1  0.3289127E-002  0.1250026E+03  0.7818608E-02  0.1235065E+00
         -4   -1    0    0    0  501 -0.00000000000E+00  0.00000000000E+00  0.28580001461E+02  0.28608204829E+02  0.12700000000E+01 0. -1.
          4   -1    0    0  501    0  0.00000000000E+00 -0.00000000000E+00 -0.13658476613E+03  0.13659067039E+03  0.12700000000E+01 0. -1.
         25    2    1    2    0    0  0.00000000000E+00  0.00000000000E+00 -0.10800476467E+03  0.16519887522E+03  0.12500255671E+03 0.  0.
    9000005    1    3    3    0    0 -0.51904922410E+02 -0.94680788011E+01 -0.98262826598E+02  0.11153631058E+03  0.10000000000E+01 0.  0.
    9000005    1    3    3    0    0  0.51904922410E+02  0.94680788011E+01 -0.97419380688E+01  0.53662564642E+02  0.10000000000E+01 0.  0.
<mgrwt>
<rscale>  0 0.12500256E+03</rscale>
<asrwt>0</asrwt>
<pdfrwt beam="2">  1        4 0.21015664E-01 0.12500256E+03</pdfrwt>
<pdfrwt beam="1">  1       -4 0.43995470E-02 0.12500256E+03</pdfrwt>
<totfact> 0.96344208E+03</totfact>
</mgrwt>
</event>
<event>
 5    1  0.3289127E-002  0.1250020E+03  0.7818608E-02  0.1235066E+00
          4   -1    0    0  501    0  0.00000000000E+00  0.00000000000E+00  0.75873503613E+03  0.75873609901E+03  0.12700000000E+01 0.  1.
         -4   -1    0    0    0  501 -0.00000000000E+00 -0.00000000000E+00 -0.50691355183E+01  0.52258047134E+01  0.12700000000E+01 0.  1.
         25    2    1    2    0    0  0.00000000000E+00  0.00000000000E+00  0.75366590061E+03  0.76396190373E+03  0.12500200241E+03 0.  0.
    9000005    1    3    3    0    0  0.12355566358E+02  0.48541371893E+02  0.60521790014E+03  0.60728793126E+03  0.10000000000E+01 0.  0.
    9000005    1    3    3    0    0 -0.12355566358E+02 -0.48541371893E+02  0.14844800047E+03  0.15667397247E+03  0.10000000000E+01 0.  0.
<mgrwt>
<rscale>  0 0.12500200E+03</rscale>
<asrwt>0</asrwt>
<pdfrwt beam="1">  1        4 0.11674057E+00 0.12500200E+03</pdfrwt>
<pdfrwt beam="2">  1       -4 0.79200048E-03 0.12500200E+03</pdfrwt>
<totfact> 0.39913341E+03</totfact>
</mgrwt>
</event>
<event>
 5    1  0.3289127E-002  0.1249939E+03  0.7818608E-02  0.1235079E+00
         -4   -1    0    0    0  501 -0.00000000000E+00  0.00000000000E+00  0.18537222636E+02  0.18580676066E+02  0.12700000000E+01 0. -1.
          4   -1    0    0  501    0  0.00000000000E+00 -0.00000000000E+00 -0.21041214129E+03  0.21041597397E+03  0.12700000000E+01 0. -1.
         25    2    1    2    0    0  0.00000000000E+00  0.00000000000E+00 -0.19187491865E+03  0.22899665003E+03  0.12499392513E+03 0.  0.
    9000005    1    3    3    0    0 -0.61907539188E+02  0.82155867483E+01 -0.99964270449E+02  0.11787236589E+03  0.10000000000E+01 0.  0.
    9000005    1    3    3    0    0  0.61907539188E+02 -0.82155867483E+01 -0.91910648201E+02  0.11112428414E+03  0.10000000000E+01 0.  0.
<mgrwt>
<rscale>  0 0.12499393E+03</rscale>
<asrwt>0</asrwt>
<pdfrwt beam="2">  1        4 0.32374735E-01 0.12499393E+03</pdfrwt>
<pdfrwt beam="1">  1       -4 0.28555179E-02 0.12499393E+03</pdfrwt>
<totfact> 0.85475487E+03</totfact>
</mgrwt>
</event>
<event>
 5    1  0.3289127E-002  0.1249928E+03  0.7818608E-02  0.1235081E+00
          4   -1    0    0  501    0  0.00000000000E+00  0.00000000000E+00  0.17472328994E+03  0.17472790546E+03  0.12700000000E+01 0. -1.
         -4   -1    0    0    0  501 -0.00000000000E+00 -0.00000000000E+00 -0.22331255859E+02  0.22367339766E+02  0.12700000000E+01 0. -1.
         25    2    1    2    0    0  0.00000000000E+00  0.00000000000E+00  0.15239203408E+03  0.19709524523E+03  0.12499281436E+03 0.  0.
    9000005    1    3    3    0    0  0.16184996721E+02  0.34855561609E+02  0.15389400507E+03  0.15862291477E+03  0.10000000000E+01 0.  0.
    9000005    1    3    3    0    0 -0.16184996721E+02 -0.34855561609E+02 -0.15019709906E+01  0.38472330457E+02  0.10000000000E+01 0.  0.
<mgrwt>
<rscale>  0 0.12499281E+03</rscale>
<asrwt>0</asrwt>
<pdfrwt beam="1">  1        4 0.26883638E-01 0.12499281E+03</pdfrwt>
<pdfrwt beam="2">  1       -4 0.34387085E-02 0.12499281E+03</pdfrwt>
<totfact> 0.90641789E+03</totfact>
</mgrwt>
</event>
<event>
 5    1  0.3289127E-002  0.1250241E+03  0.7818608E-02  0.1235032E+00
          4   -1    0    0  501    0  0.00000000000E+00  0.00000000000E+00  0.14827389981E+03  0.14827933863E+03  0.12700000000E+01 0.  1.
         -4   -1    0    0    0  501 -0.00000000000E+00 -0.00000000000E+00 -0.26333753533E+02  0.26364359941E+02  0.12700000000E+01 0.  1.
         25    2    1    2    0    0  0.00000000000E+00  0.00000000000E+00  0.12194014627E+03  0.17464369857E+03  0.12502408639E+03 0.  0.
    9000005    1    3    3    0    0  0.50647414792E+02  0.28084445911E+02  0.93814852636E+02  0.11025481079E+03  0.10000000000E+01 0.  0.
    9000005    1    3    3    0    0 -0.50647414792E+02 -0.28084445911E+02  0.28125293638E+02  0.64388887780E+02  0.10000000000E+01 0.  0.
<mgrwt>
<rscale>  0 0.12502409E+03</rscale>
<asrwt>0</asrwt>
<pdfrwt beam="1">  1        4 0.22814142E-01 0.12502409E+03</pdfrwt>
<pdfrwt beam="2">  1       -4 0.40541194E-02 0.12502409E+03</pdfrwt>
<totfact> 0.94539042E+03</totfact>
</mgrwt>
</event>
<event>
 5    1  0.3289127E-002  0.1250002E+03  0.7818608E-02  0.1235069E+00
          4   -1    0    0  501    0  0.00000000000E+00  0.00000000000E+00  0.19917371799E+03  0.19917776693E+03  0.12700000000E+01 0. -1.
         -4   -1    0    0    0  501 -0.00000000000E+00 -0.00000000000E+00 -0.19587519379E+02  0.19628647824E+02  0.12700000000E+01 0. -1.
         25    2    1    2    0    0  0.00000000000E+00  0.00000000000E+00  0.17958619861E+03  0.21880641475E+03  0.12500017762E+03 0.  0.
    9000005    1    3    3    0    0 -0.52165994657E+02  0.28680621282E+02  0.12306968247E+03  0.13671508980E+03  0.10000000000E+01 0.  0.
    9000005    1    3    3    0    0  0.52165994657E+02 -0.28680621282E+02  0.56516516146E+02  0.82091324956E+02  0.10000000000E+01 0.  0.
<mgrwt>
<rscale>  0 0.12500018E+03</rscale>
<asrwt>0</asrwt>
<pdfrwt beam="1">  1        4 0.30645584E-01 0.12500018E+03</pdfrwt>
<pdfrwt beam="2">  1       -4 0.30169399E-02 0.12500018E+03</pdfrwt>
<totfact> 0.87057228E+03</totfact>
</mgrwt>
</event>
<event>
 5    1  0.3289127E-002  0.1250000E+03  0.7818608E-02  0.1235069E+00
          4   -1    0    0  501    0  0.00000000000E+00  0.00000000000E+00  0.16506531934E+03  0.16507020490E+03  0.12700000000E+01 0. -1.
         -4   -1    0    0    0  501 -0.00000000000E+00 -0.00000000000E+00 -0.23642577260E+02  0.23676662761E+02  0.12700000000E+01 0. -1.
         25    2    1    2    0    0  0.00000000000E+00  0.00000000000E+00  0.14142274208E+03  0.18874686767E+03  0.12499995231E+03 0.  0.
    9000005    1    3    3    0    0  0.23782831971E+02  0.18851222975E+02  0.15319882401E+03  0.15617897228E+03  0.10000000000E+01 0.  0.
    9000005    1    3    3    0    0 -0.23782831971E+02 -0.18851222975E+02 -0.11776081933E+02  0.32567895387E+02  0.10000000000E+01 0.  0.
<mgrwt>
<rscale>  0 0.12499995E+03</rscale>
<asrwt>0</asrwt>
<pdfrwt beam="1">  1        4 0.25397662E-01 0.12499995E+03</pdfrwt>
<pdfrwt beam="2">  1       -4 0.36403174E-02 0.12499995E+03</pdfrwt>
<totfact> 0.92065912E+03</totfact>
</mgrwt>
</event>
<event>
 5    1  0.3289127E-002  0.1250206E+03  0.7818608E-02  0.1235037E+00
          4   -1    0    0  501    0  0.00000000000E+00  0.00000000000E+00  0.74418486622E+02  0.74429322523E+02  0.12700000000E+01 0.  1.
         -4   -1    0    0    0  501 -0.00000000000E+00 -0.00000000000E+00 -0.52485310603E+02  0.52500673606E+02  0.12700000000E+01 0.  1.
         25    2    1    2    0    0  0.00000000000E+00  0.00000000000E+00  0.21933176020E+02  0.12692999613E+03  0.12502063712E+03 0.  0.
    9000005    1    3    3    0    0 -0.19292356384E+02  0.93409582264E+01  0.70575193130E+02  0.73765211318E+02  0.10000000000E+01 0.  0.
    9000005    1    3    3    0    0  0.19292356384E+02 -0.93409582264E+01 -0.48642017110E+02  0.53164784811E+02  0.10000000000E+01 0.  0.
<mgrwt>
<rscale>  0 0.12502064E+03</rscale>
<asrwt>0</asrwt>
<pdfrwt beam="1">  1        4 0.11451013E-01 0.12502064E+03</pdfrwt>
<pdfrwt beam="2">  1       -4 0.80766785E-02 0.12502064E+03</pdfrwt>
<totfact> 0.10405819E+04</totfact>
</mgrwt>
</event>
<event>
 5    1  0.3289127E-002  0.1249984E+03  0.7818608E-02  0.1235072E+00
          4   -1    0    0  501    0  0.00000000000E+00  0.00000000000E+00  0.49161891085E+02  0.49178292315E+02  0.12700000000E+01 0. -1.
         -4   -1    0    0    0  501 -0.00000000000E+00 -0.00000000000E+00 -0.79420128663E+02  0.79430282240E+02  0.12700000000E+01 0. -1.
         25    2    1    2    0    0  0.00000000000E+00  0.00000000000E+00 -0.30258237578E+02  0.12860857456E+03  0.12499841802E+03 0.  0.
    9000005    1    3    3    0    0  0.35194319699E+01  0.30977943754E+02 -0.70851695639E+02  0.77414353808E+02  0.10000000000E+01 0.  0.
    9000005    1    3    3    0    0 -0.35194319699E+01 -0.30977943754E+02  0.40593458061E+02  0.51194220747E+02  0.10000000000E+01 0.  0.
<mgrwt>
<rscale>  0 0.12499842E+03</rscale>
<asrwt>0</asrwt>
<pdfrwt beam="1">  1        4 0.75654105E-02 0.12499842E+03</pdfrwt>
<pdfrwt beam="2">  1       -4 0.12220524E-01 0.12499842E+03</pdfrwt>
<totfact> 0.10374736E+04</totfact>
</mgrwt>
</event>
<event>
 5    1  0.3289127E-002  0.1250000E+03  0.7818608E-02  0.1235069E+00
         -4   -1    0    0    0  501 -0.00000000000E+00  0.00000000000E+00  0.67134586742E+02  0.67146598105E+02  0.12700000000E+01 0. -1.
          4   -1    0    0  501    0  0.00000000000E+00 -0.00000000000E+00 -0.58161244438E+02  0.58175108549E+02  0.12700000000E+01 0. -1.
         25    2    1    2    0    0  0.00000000000E+00  0.00000000000E+00  0.89733423038E+01  0.12532170665E+03  0.12500003715E+03 0.  0.
    9000005    1    3    3    0    0 -0.52804712289E+02  0.16425093693E+01 -0.28979113984E+02  0.60264620834E+02  0.10000000000E+01 0.  0.
    9000005    1    3    3    0    0  0.52804712289E+02 -0.16425093693E+01  0.37952456288E+02  0.65057085819E+02  0.10000000000E+01 0.  0.
<mgrwt>
<rscale>  0 0.12500004E+03</rscale>
<asrwt>0</asrwt>
<pdfrwt beam="2">  1        4 0.89498742E-02 0.12500004E+03</pdfrwt>
<pdfrwt beam="1">  1       -4 0.10330388E-01 0.12500004E+03</pdfrwt>
<totfact> 0.10445870E+04</totfact>
</mgrwt>
</event>
<event>
 5    1  0.3289127E-002  0.1250029E+03  0.7818608E-02  0.1235065E+00
          4   -1    0    0  501    0  0.00000000000E+00  0.00000000000E+00  0.13055922700E+03  0.13056540375E+03  0.12700000000E+01 0. -1.
         -4   -1    0    0    0  501 -0.00000000000E+00 -0.00000000000E+00 -0.29900386133E+02  0.29927345203E+02  0.12700000000E+01 0. -1.
         25    2    1    2    0    0  0.00000000000E+00  0.00000000000E+00  0.10065884087E+03  0.16049274895E+03  0.12500288085E+03 0.  0.
    9000005    1    3    3    0    0  0.26089730617E+02 -0.51661743963E+02  0.80598733525E+02  0.99230870594E+02  0.10000000000E+01 0.  0.
    9000005    1    3    3    0    0 -0.26089730617E+02  0.51661743963E+02  0.20060107346E+02  0.61261878357E+02  0.10000000000E+01 0.  0.
<mgrwt>
<rscale>  0 0.12500288E+03</rscale>
<asrwt>0</asrwt>
<pdfrwt beam="1">  1        4 0.20088584E-01 0.12500288E+03</pdfrwt>
<pdfrwt beam="2">  1       -4 0.46026084E-02 0.12500288E+03</pdfrwt>
<totfact> 0.97241574E+03</totfact>
</mgrwt>
</event>
<event>
 5    1  0.3289127E-002  0.1249949E+03  0.7818608E-02  0.1235077E+00
          4   -1    0    0  501    0  0.00000000000E+00  0.00000000000E+00  0.55693388282E+03  0.55693533084E+03  0.12700000000E+01 0.  1.
         -4   -1    0    0    0  501 -0.00000000000E+00 -0.00000000000E+00 -0.69543073602E+01  0.70693203959E+01  0.12700000000E+01 0.  1.
         25    2    1    2    0    0  0.00000000000E+00  0.00000000000E+00  0.54997957546E+03  0.56400465123E+03  0.12499485265E+03 0.  0.
    9000005    1    3    3    0    0 -0.16086753392E+02 -0.58996804363E+02  0.21693766903E+03  0.22539378608E+03  0.10000000000E+01 0.  0.
    9000005    1    3    3    0    0  0.16086753392E+02  0.58996804363E+02  0.33304190644E+03  0.33861086516E+03  0.10000000000E+01 0.  0.
<mgrwt>
<rscale>  0 0.12499485E+03</rscale>
<asrwt>0</asrwt>
<pdfrwt beam="1">  1        4 0.85691109E-01 0.12499485E+03</pdfrwt>
<pdfrwt beam="2">  1       -4 0.10788518E-02 0.12499485E+03</pdfrwt>
<totfact> 0.51227315E+03</totfact>
</mgrwt>
</event>
<event>
 5    1  0.3289127E-002  0.1250005E+03  0.7818608E-02  0.1235069E+00
         -4   -1    0    0    0  501 -0.00000000000E+00  0.00000000000E+00  0.31233920387E+02  0.31259729409E+02  0.12700000000E+01 0.  1.
          4   -1    0    0  501    0  0.00000000000E+00 -0.00000000000E+00 -0.12498463390E+03  0.12499108613E+03  0.12700000000E+01 0.  1.
         25    2    1    2    0    0  0.00000000000E+00  0.00000000000E+00 -0.93750713517E+02  0.15625081554E+03  0.12500048429E+03 0.  0.
    9000005    1    3    3    0    0  0.44069037763E+02  0.44008748924E+02 -0.40449059724E+02  0.74269620329E+02  0.10000000000E+01 0.  0.
    9000005    1    3    3    0    0 -0.44069037763E+02 -0.44008748924E+02 -0.53301653793E+02  0.81981195211E+02  0.10000000000E+01 0.  0.
<mgrwt>
<rscale>  0 0.12500048E+03</rscale>
<asrwt>0</asrwt>
<pdfrwt beam="2">  1        4 0.19230887E-01 0.12500048E+03</pdfrwt>
<pdfrwt beam="1">  1       -4 0.48077002E-02 0.12500048E+03</pdfrwt>
<totfact> 0.98069438E+03</totfact>
</mgrwt>
</event>
<event>
 5    1  0.3289127E-002  0.1250040E+03  0.7818608E-02  0.1235063E+00
          4   -1    0    0  501    0  0.00000000000E+00  0.00000000000E+00  0.15857998577E+02  0.15908771759E+02  0.12700000000E+01 0. -1.
         -4   -1    0    0    0  501 -0.00000000000E+00 -0.00000000000E+00 -0.24589649535E+03  0.24589977496E+03  0.12700000000E+01 0. -1.
         25    2    1    2    0    0  0.00000000000E+00  0.00000000000E+00 -0.23003849678E+03  0.26180854672E+03  0.12500402049E+03 0.  0.
    9000005    1    3    3    0    0 -0.54456875178E+01  0.20349178689E+01 -0.24533921546E+03  0.24541012010E+03  0.10000000000E+01 0.  0.
    9000005    1    3    3    0    0  0.54456875178E+01 -0.20349178689E+01  0.15300718689E+02  0.16398426621E+02  0.10000000000E+01 0.  0.
<mgrwt>
<rscale>  0 0.12500402E+03</rscale>
<asrwt>0</asrwt>
<pdfrwt beam="1">  1        4 0.24438502E-02 0.12500402E+03</pdfrwt>
<pdfrwt beam="2">  1       -4 0.37834385E-01 0.12500402E+03</pdfrwt>
<totfact> 0.80645710E+03</totfact>
</mgrwt>
</event>
<event>
 5    1  0.3289127E-002  0.1249991E+03  0.7818608E-02  0.1235071E+00
          4   -1    0    0  501    0  0.00000000000E+00  0.00000000000E+00  0.50155073125E+02  0.50171149679E+02  0.12700000000E+01 0.  1.
         -4   -1    0    0    0  501 -0.00000000000E+00 -0.00000000000E+00 -0.77848646184E+02  0.77859004699E+02  0.12700000000E+01 0.  1.
         25    2    1    2    0    0  0.00000000000E+00  0.00000000000E+00 -0.27693573059E+02  0.12803015438E+03  0.12499914576E+03 0.  0.
    9000005    1    3    3    0    0 -0.11163889026E+02 -0.10387350146E+02 -0.75918825178E+02  0.77441574608E+02  0.10000000000E+01 0.  0.
    9000005    1    3    3    0    0  0.11163889026E+02  0.10387350146E+02  0.48225252119E+02  0.50588579770E+02  0.10000000000E+01 0.  0.
<mgrwt>
<rscale>  0 0.12499915E+03</rscale>
<asrwt>0</asrwt>
<pdfrwt beam="1">  1        4 0.77181985E-02 0.12499915E+03</pdfrwt>
<pdfrwt beam="2">  1       -4 0.11978748E-01 0.12499915E+03</pdfrwt>
<totfact> 0.10387037E+04</totfact>
</mgrwt>
</event>
<event>
 5    1  0.3289127E-002  0.1250032E+03  0.7818608E-02  0.1235064E+00
         -4   -1    0    0    0  501 -0.00000000000E+00  0.00000000000E+00  0.45363314487E+01  0.47107539749E+01  0.12700000000E+01 0. -1.
          4   -1    0    0  501    0  0.00000000000E+00 -0.00000000000E+00 -0.84472883933E+03  0.84472979401E+03  0.12700000000E+01 0. -1.
         25    2    1    2    0    0  0.00000000000E+00  0.00000000000E+00 -0.84019250788E+03  0.84944054799E+03  0.12500317703E+03 0.  0.
    9000005    1    3    3    0    0  0.39805122103E-01  0.62485810221E+02 -0.42679063650E+03  0.43134177338E+03  0.10000000000E+01 0.  0.
    9000005    1    3    3    0    0 -0.39805122103E-01 -0.62485810221E+02 -0.41340187138E+03  0.41809877460E+03  0.10000000000E+01 0.  0.
<mgrwt>
<rscale>  0 0.12500318E+03</rscale>
<asrwt>0</asrwt>
<pdfrwt beam="2">  1        4 0.12997165E+00 0.12500318E+03</pdfrwt>
<pdfrwt beam="1">  1       -4 0.71138837E-03 0.12500318E+03</pdfrwt>
<totfact> 0.36147750E+03</totfact>
</mgrwt>
</event>
<event>
 5    1  0.3289127E-002  0.1249994E+03  0.7818608E-02  0.1235070E+00
         -4   -1    0    0    0  501 -0.00000000000E+00  0.00000000000E+00  0.51767084608E+01  0.53302167393E+01  0.12700000000E+01 0.  1.
          4   -1    0    0  501    0  0.00000000000E+00 -0.00000000000E+00 -0.74339648984E+03  0.74339757466E+03  0.12700000000E+01 0.  1.
         25    2    1    2    0    0  0.00000000000E+00  0.00000000000E+00 -0.73821978138E+03  0.74872779140E+03  0.12499943996E+03 0.  0.
    9000005    1    3    3    0    0 -0.26204794953E+02 -0.20793932400E+02 -0.52942518443E+02  0.62633770143E+02  0.10000000000E+01 0.  0.
    9000005    1    3    3    0    0  0.26204794953E+02  0.20793932400E+02 -0.68527726294E+03  0.68609402125E+03  0.10000000000E+01 0.  0.
<mgrwt>
<rscale>  0 0.12499944E+03</rscale>
<asrwt>0</asrwt>
<pdfrwt beam="2">  1        4 0.11438050E+00 0.12499944E+03</pdfrwt>
<pdfrwt beam="1">  1       -4 0.80830905E-03 0.12499944E+03</pdfrwt>
<totfact> 0.40635581E+03</totfact>
</mgrwt>
</event>
<event>
 5    1  0.3289127E-002  0.1250045E+03  0.7818608E-02  0.1235062E+00
          4   -1    0    0  501    0  0.00000000000E+00  0.00000000000E+00  0.98965229397E+02  0.98973377883E+02  0.12700000000E+01 0.  1.
         -4   -1    0    0    0  501 -0.00000000000E+00 -0.00000000000E+00 -0.39453796362E+02  0.39474231435E+02  0.12700000000E+01 0.  1.
         25    2    1    2    0    0  0.00000000000E+00  0.00000000000E+00  0.59511433035E+02  0.13844760932E+03  0.12500451937E+03 0.  0.
    9000005    1    3    3    0    0 -0.38177795851E+02  0.49476072904E+02  0.29394142304E+02  0.69068382693E+02  0.10000000000E+01 0.  0.
    9000005    1    3    3    0    0  0.38177795851E+02 -0.49476072904E+02  0.30117290732E+02  0.69379226625E+02  0.10000000000E+01 0.  0.
<mgrwt>
<rscale>  0 0.12500452E+03</rscale>
<asrwt>0</asrwt>
<pdfrwt beam="1">  1        4 0.15227619E-01 0.12500452E+03</pdfrwt>
<pdfrwt beam="2">  1       -4 0.60720136E-02 0.12500452E+03</pdfrwt>
<totfact> 0.10164826E+04</totfact>
</mgrwt>
</event>
<event>
 5    1  0.3289127E-002  0.1249999E+03  0.7818608E-02  0.1235069E+00
         -4   -1    0    0    0  501 -0.00000000000E+00  0.00000000000E+00  0.13382219118E+02  0.13442346838E+02  0.12700000000E+01 0. -1.
          4   -1    0    0  501    0  0.00000000000E+00 -0.00000000000E+00 -0.29118220046E+03  0.29118497001E+03  0.12700000000E+01 0. -1.
         25    2    1    2    0    0  0.00000000000E+00  0.00000000000E+00 -0.27779998134E+03  0.30462731685E+03  0.12499989016E+03 0.  0.
    9000005    1    3    3    0    0 -0.40893036731E+02 -0.15103713376E+02 -0.29780215524E+02  0.52803634794E+02  0.10000000000E+01 0.  0.
    9000005    1    3    3    0    0  0.40893036731E+02  0.15103713376E+02 -0.24801976581E+03  0.25182368206E+03  0.10000000000E+01 0.  0.
<mgrwt>
<rscale>  0 0.12499989E+03</rscale>
<asrwt>0</asrwt>
<pdfrwt beam="2">  1        4 0.44802095E-01 0.12499989E+03</pdfrwt>
<pdfrwt beam="1">  1       -4 0.20636414E-02 0.12499989E+03</pdfrwt>
<totfact> 0.75022224E+03</totfact>
</mgrwt>
</event>
<event>
 5    1  0.3289127E-002  0.1250037E+03  0.7818608E-02  0.1235063E+00
         -4   -1    0    0    0  501 -0.00000000000E+00  0.00000000000E+00  0.30494603234E+03  0.30494867690E+03  0.12700000000E+01 0. -1.
          4   -1    0    0  501    0  0.00000000000E+00 -0.00000000000E+00 -0.12776220265E+02  0.12839186277E+02  0.12700000000E+01 0. -1.
         25    2    1    2    0    0  0.00000000000E+00  0.00000000000E+00  0.29216981208E+03  0.31778786317E+03  0.12500370751E+03 0.  0.
    9000005    1    3    3    0    0  0.49491669055E+02 -0.97200886689E+01  0.52277872306E+02  0.72649028640E+02  0.10000000000E+01 0.  0.
    9000005    1    3    3    0    0 -0.49491669055E+02  0.97200886689E+01  0.23989193977E+03  0.24513883453E+03  0.10000000000E+01 0.  0.
<mgrwt>
<rscale>  0 0.12500371E+03</rscale>
<asrwt>0</asrwt>
<pdfrwt beam="2">  1        4 0.19706193E-02 0.12500371E+03</pdfrwt>
<pdfrwt beam="1">  1       -4 0.46919822E-01 0.12500371E+03</pdfrwt>
<totfact> 0.73413967E+03</totfact>
</mgrwt>
</event>
<event>
 5    1  0.3289127E-002  0.1250026E+03  0.7818608E-02  0.1235065E+00
          4   -1    0    0  501    0  0.00000000000E+00  0.00000000000E+00  0.29018075992E+02  0.29045853995E+02  0.12700000000E+01 0. -1.
         -4   -1    0    0    0  501 -0.00000000000E+00 -0.00000000000E+00 -0.13452475996E+03  0.13453075463E+03  0.12700000000E+01 0. -1.
         25    2    1    2    0    0  0.00000000000E+00  0.00000000000E+00 -0.10550668397E+03  0.16357660863E+03  0.12500258609E+03 0.  0.
    9000005    1    3    3    0    0  0.48887872778E+02  0.18861342525E+02 -0.81914842989E+01  0.53045968382E+02  0.10000000000E+01 0.  0.
    9000005    1    3    3    0    0 -0.48887872778E+02 -0.18861342525E+02 -0.97315199668E+02  0.11053064025E+03  0.10000000000E+01 0.  0.
<mgrwt>
<rscale>  0 0.12500259E+03</rscale>
<asrwt>0</asrwt>
<pdfrwt beam="1">  1        4 0.44669174E-02 0.12500259E+03</pdfrwt>
<pdfrwt beam="2">  1       -4 0.20698714E-01 0.12500259E+03</pdfrwt>
<totfact> 0.96652025E+03</totfact>
</mgrwt>
</event>
<event>
 4    1  0.3289127E-002  0.1254398E+03  0.7818608E-02  0.1234384E+00
          4   -1    0    0  501    0  0.00000000000E+00  0.00000000000E+00  0.32618468601E+02  0.32643182962E+02  0.12700000000E+01 0.  1.
         -4   -1    0    0    0  501 -0.00000000000E+00 -0.00000000000E+00 -0.12052622774E+03  0.12053291863E+03  0.12700000000E+01 0.  1.
    9000005    1    1    2    0    0 -0.44883418559E+02 -0.10908913322E+02  0.78428877367E+01  0.46861887920E+02  0.10000000000E+01 0.  0.
    9000005    1    1    2    0    0  0.44883418559E+02  0.10908913322E+02 -0.95750646873E+02  0.10631421367E+03  0.10000000000E+01 0.  0.
<mgrwt>
<rscale>  0 0.12543980E+03</rscale>
<asrwt>0</asrwt>
<pdfrwt beam="1">  1        4 0.50206418E-02 0.12543980E+03</pdfrwt>
<pdfrwt beam="2">  1       -4 0.18544912E-01 0.12543980E+03</pdfrwt>
<totfact> 0.97704294E+03</totfact>
</mgrwt>
</event>
<event>
 5    1  0.3289127E-002  0.1250250E+03  0.7818608E-02  0.1235030E+00
         -4   -1    0    0    0  501 -0.00000000000E+00  0.00000000000E+00  0.60976256320E+02  0.60989480526E+02  0.12700000000E+01 0.  1.
          4   -1    0    0  501    0  0.00000000000E+00 -0.00000000000E+00 -0.64061029043E+02  0.64073616583E+02  0.12700000000E+01 0.  1.
         25    2    1    2    0    0  0.00000000000E+00  0.00000000000E+00 -0.30847727231E+01  0.12506309711E+03  0.12502504723E+03 0.  0.
    9000005    1    3    3    0    0  0.32900886864E+02  0.31935273784E+02  0.40949778270E+02  0.61483448248E+02  0.10000000000E+01 0.  0.
    9000005    1    3    3    0    0 -0.32900886864E+02 -0.31935273784E+02 -0.44034550993E+02  0.63579648861E+02  0.10000000000E+01 0.  0.
<mgrwt>
<rscale>  0 0.12502505E+03</rscale>
<asrwt>0</asrwt>
<pdfrwt beam="2">  1        4 0.98575284E-02 0.12502505E+03</pdfrwt>
<pdfrwt beam="1">  1       -4 0.93829481E-02 0.12502505E+03</pdfrwt>
<totfact> 0.10445578E+04</totfact>
</mgrwt>
</event>
<event>
 5    1  0.3289127E-002  0.1250036E+03  0.7818608E-02  0.1235064E+00
          4   -1    0    0  501    0  0.00000000000E+00  0.00000000000E+00  0.14217774732E+02  0.14274383290E+02  0.12700000000E+01 0.  1.
         -4   -1    0    0    0  501 -0.00000000000E+00 -0.00000000000E+00 -0.27415592685E+03  0.27415886841E+03  0.12700000000E+01 0.  1.
         25    2    1    2    0    0  0.00000000000E+00  0.00000000000E+00 -0.25993815212E+03  0.28843325170E+03  0.12500359098E+03 0.  0.
    9000005    1    3    3    0    0 -0.90654645448E+01  0.61705489523E+02 -0.13911882671E+03  0.15246244793E+03  0.10000000000E+01 0.  0.
    9000005    1    3    3    0    0  0.90654645448E+01 -0.61705489523E+02 -0.12081932541E+03  0.13597080377E+03  0.10000000000E+01 0.  0.
<mgrwt>
<rscale>  0 0.12500359E+03</rscale>
<asrwt>0</asrwt>
<pdfrwt beam="1">  1        4 0.21919309E-02 0.12500359E+03</pdfrwt>
<pdfrwt beam="2">  1       -4 0.42182412E-01 0.12500359E+03</pdfrwt>
<totfact> 0.77066895E+03</totfact>
</mgrwt>
</event>
<event>
 5    1  0.3289127E-002  0.1250030E+03  0.7818608E-02  0.1235065E+00
          4   -1    0    0  501    0  0.00000000000E+00  0.00000000000E+00  0.27796422309E+03  0.27796712435E+03  0.12700000000E+01 0.  1.
         -4   -1    0    0    0  501 -0.00000000000E+00 -0.00000000000E+00 -0.14022063673E+02  0.14079459139E+02  0.12700000000E+01 0.  1.
         25    2    1    2    0    0  0.00000000000E+00  0.00000000000E+00  0.26394215942E+03  0.29204658349E+03  0.12500297360E+03 0.  0.
    9000005    1    3    3    0    0  0.60080043613E+02  0.16888630698E+02  0.13957699031E+03  0.15289726522E+03  0.10000000000E+01 0.  0.
    9000005    1    3    3    0    0 -0.60080043613E+02 -0.16888630698E+02  0.12436516911E+03  0.13914931827E+03  0.10000000000E+01 0.  0.
<mgrwt>
<rscale>  0 0.12500297E+03</rscale>
<asrwt>0</asrwt>
<pdfrwt beam="1">  1        4 0.42768363E-01 0.12500297E+03</pdfrwt>
<pdfrwt beam="2">  1       -4 0.21618789E-02 0.12500297E+03</pdfrwt>
<totfact> 0.76602396E+03</totfact>
</mgrwt>
</event>
<event>
 5    1  0.3289127E-002  0.1250001E+03  0.7818608E-02  0.1235069E+00
         -4   -1    0    0    0  501 -0.00000000000E+00  0.00000000000E+00  0.42252848301E+03  0.42253039163E+03  0.12700000000E+01 0. -1.
          4   -1    0    0  501    0  0.00000000000E+00 -0.00000000000E+00 -0.91993952242E+01  0.92866448458E+01  0.12700000000E+01 0. -1.
         25    2    1    2    0    0  0.00000000000E+00  0.00000000000E+00  0.41332908778E+03  0.43181703648E+03  0.12500007274E+03 0.  0.
    9000005    1    3    3    0    0 -0.23860268289E+02 -0.11887710159E+01  0.40614794036E+03  0.40685117063E+03  0.10000000000E+01 0.  0.
    9000005    1    3    3    0    0  0.23860268289E+02  0.11887710159E+01  0.71811474187E+01  0.24965865849E+02  0.10000000000E+01 0.  0.
<mgrwt>
<rscale>  0 0.12500007E+03</rscale>
<asrwt>0</asrwt>
<pdfrwt beam="2">  1        4 0.14221498E-02 0.12500007E+03</pdfrwt>
<pdfrwt beam="1">  1       -4 0.65011244E-01 0.12500007E+03</pdfrwt>
<totfact> 0.61571530E+03</totfact>
</mgrwt>
</event>
<event>
 5    1  0.3289127E-002  0.1250024E+03  0.7818608E-02  0.1235065E+00
         -4   -1    0    0    0  501 -0.00000000000E+00  0.00000000000E+00  0.71652472656E+02  0.71663726792E+02  0.12700000000E+01 0. -1.
          4   -1    0    0  501    0  0.00000000000E+00 -0.00000000000E+00 -0.54495799396E+02  0.54510595775E+02  0.12700000000E+01 0. -1.
         25    2    1    2    0    0  0.00000000000E+00  0.00000000000E+00  0.17156673260E+02  0.12617432257E+03  0.12500243293E+03 0.  0.
    9000005    1    3    3    0    0 -0.26493738743E+02  0.14889203488E+02  0.63696081778E+02  0.70581848991E+02  0.10000000000E+01 0.  0.
    9000005    1    3    3    0    0  0.26493738743E+02 -0.14889203488E+02 -0.46539408518E+02  0.55592473576E+02  0.10000000000E+01 0.  0.
<mgrwt>
<rscale>  0 0.12500243E+03</rscale>
<asrwt>0</asrwt>
<pdfrwt beam="2">  1        4 0.83859730E-02 0.12500243E+03</pdfrwt>
<pdfrwt beam="1">  1       -4 0.11025461E-01 0.12500243E+03</pdfrwt>
<totfact> 0.10426568E+04</totfact>
</mgrwt>
</event>
<event>
 4    1  0.3289127E-002  0.1250694E+03  0.7818608E-02  0.1234961E+00
         -4   -1    0    0    0  501 -0.00000000000E+00  0.00000000000E+00  0.30392513872E+03  0.30392779216E+03  0.12700000000E+01 0.  1.
          4   -1    0    0  501    0  0.00000000000E+00 -0.00000000000E+00 -0.12832888360E+02  0.12895577679E+02  0.12700000000E+01 0.  1.
    9000005    1    1    2    0    0 -0.12731650470E+02 -0.15392418309E+02  0.29563717036E+03  0.29631293925E+03  0.10000000000E+01 0.  0.
    9000005    1    1    2    0    0  0.12731650470E+02  0.15392418309E+02 -0.45449200040E+01  0.20510430588E+02  0.10000000000E+01 0.  0.
<mgrwt>
<rscale>  0 0.12506938E+03</rscale>
<asrwt>0</asrwt>
<pdfrwt beam="2">  1        4 0.19793168E-02 0.12506938E+03</pdfrwt>
<pdfrwt beam="1">  1       -4 0.46762742E-01 0.12506938E+03</pdfrwt>
<totfact> 0.73422541E+03</totfact>
</mgrwt>
</event>
<event>
 5    1  0.3289127E-002  0.1249647E+03  0.7818608E-02  0.1235125E+00
          4   -1    0    0  501    0  0.00000000000E+00  0.00000000000E+00  0.54473671544E+03  0.54473819588E+03  0.12700000000E+01 0.  1.
         -4   -1    0    0    0  501 -0.00000000000E+00 -0.00000000000E+00 -0.71090783176E+01  0.72216268615E+01  0.12700000000E+01 0.  1.
         25    2    1    2    0    0  0.00000000000E+00  0.00000000000E+00  0.53762763713E+03  0.55195982274E+03  0.12496467389E+03 0.  0.
    9000005    1    3    3    0    0  0.58489351241E+02  0.21030100841E+01  0.36534318249E+03  0.37000279439E+03  0.10000000000E+01 0.  0.
    9000005    1    3    3    0    0 -0.58489351241E+02 -0.21030100841E+01  0.17228445463E+03  0.18195702836E+03  0.10000000000E+01 0.  0.
<mgrwt>
<rscale>  0 0.12496467E+03</rscale>
<asrwt>0</asrwt>
<pdfrwt beam="1">  1        4 0.83814431E-01 0.12496467E+03</pdfrwt>
<pdfrwt beam="2">  1       -4 0.11024757E-02 0.12496467E+03</pdfrwt>
<totfact> 0.52087983E+03</totfact>
</mgrwt>
</event>
<event>
 5    1  0.3289127E-002  0.1249986E+03  0.7818608E-02  0.1235071E+00
         -4   -1    0    0    0  501 -0.00000000000E+00  0.00000000000E+00  0.62845890208E+03  0.62846018530E+03  0.12700000000E+01 0.  1.
          4   -1    0    0  501    0  0.00000000000E+00 -0.00000000000E+00 -0.61492869563E+01  0.62790628338E+01  0.12700000000E+01 0.  1.
         25    2    1    2    0    0  0.00000000000E+00  0.00000000000E+00  0.62230961512E+03  0.63473924813E+03  0.12499862416E+03 0.  0.
    9000005    1    3    3    0    0 -0.55289166978E+02 -0.28172110383E+02  0.27363131690E+03  0.28058092839E+03  0.10000000000E+01 0.  0.
    9000005    1    3    3    0    0  0.55289166978E+02  0.28172110383E+02  0.34867829822E+03  0.35415831974E+03  0.10000000000E+01 0.  0.
<mgrwt>
<rscale>  0 0.12499862E+03</rscale>
<asrwt>0</asrwt>
<pdfrwt beam="2">  1        4 0.95612546E-03 0.12499862E+03</pdfrwt>
<pdfrwt beam="1">  1       -4 0.96696082E-01 0.12499862E+03</pdfrwt>
<totfact> 0.46747116E+03</totfact>
</mgrwt>
</event>
<event>
 5    1  0.3289127E-002  0.1250045E+03  0.7818608E-02  0.1235062E+00
         -4   -1    0    0    0  501 -0.00000000000E+00  0.00000000000E+00  0.26195330601E+03  0.26195638460E+03  0.12700000000E+01 0. -1.
          4   -1    0    0  501    0  0.00000000000E+00 -0.00000000000E+00 -0.14882865997E+02  0.14936954183E+02  0.12700000000E+01 0. -1.
         25    2    1    2    0    0  0.00000000000E+00  0.00000000000E+00  0.24707044002E+03  0.27689333878E+03  0.12500447484E+03 0.  0.
    9000005    1    3    3    0    0  0.11963889065E+02 -0.12750469436E+02  0.25643595271E+03  0.25703327986E+03  0.10000000000E+01 0.  0.
    9000005    1    3    3    0    0 -0.11963889065E+02  0.12750469436E+02 -0.93655126932E+01  0.19860058922E+02  0.10000000000E+01 0.  0.
<mgrwt>
<rscale>  0 0.12500447E+03</rscale>
<asrwt>0</asrwt>
<pdfrwt beam="2">  1        4 0.22940694E-02 0.12500447E+03</pdfrwt>
<pdfrwt beam="1">  1       -4 0.40304902E-01 0.12500447E+03</pdfrwt>
<totfact> 0.78584021E+03</totfact>
</mgrwt>
</event>
<event>
 5    1  0.3289127E-002  0.1250036E+03  0.7818608E-02  0.1235064E+00
          4   -1    0    0  501    0  0.00000000000E+00  0.00000000000E+00  0.99703669883E+01  0.10050926220E+02  0.12700000000E+01 0.  1.
         -4   -1    0    0    0  501 -0.00000000000E+00 -0.00000000000E+00 -0.39015037755E+03  0.39015244457E+03  0.12700000000E+01 0.  1.
         25    2    1    2    0    0  0.00000000000E+00  0.00000000000E+00 -0.38018001056E+03  0.40020337079E+03  0.12500359019E+03 0.  0.
    9000005    1    3    3    0    0  0.23917241113E+02  0.35783299832E+02 -0.33515153273E+03  0.33790535489E+03  0.10000000000E+01 0.  0.
    9000005    1    3    3    0    0 -0.23917241113E+02 -0.35783299832E+02 -0.45028477828E+02  0.62298015898E+02  0.10000000000E+01 0.  0.
<mgrwt>
<rscale>  0 0.12500359E+03</rscale>
<asrwt>0</asrwt>
<pdfrwt beam="1">  1        4 0.15402588E-02 0.12500359E+03</pdfrwt>
<pdfrwt beam="2">  1       -4 0.60029479E-01 0.12500359E+03</pdfrwt>
<totfact> 0.64527905E+03</totfact>
</mgrwt>
</event>
<event>
 5    1  0.3289127E-002  0.1250001E+03  0.7818608E-02  0.1235069E+00
          4   -1    0    0  501    0  0.00000000000E+00  0.00000000000E+00  0.29784504463E+03  0.29784775223E+03  0.12700000000E+01 0. -1.
         -4   -1    0    0    0  501 -0.00000000000E+00 -0.00000000000E+00 -0.13081548318E+02  0.13143051640E+02  0.12700000000E+01 0. -1.
         25    2    1    2    0    0  0.00000000000E+00  0.00000000000E+00  0.28476349631E+03  0.31099080387E+03  0.12500012505E+03 0.  0.
    9000005    1    3    3    0    0  0.58571684432E+02 -0.13481097706E+01  0.88284520902E+02  0.10596044662E+03  0.10000000000E+01 0.  0.
    9000005    1    3    3    0    0 -0.58571684432E+02  0.13481097706E+01  0.19647897541E+03  0.20503035725E+03  0.10000000000E+01 0.  0.
<mgrwt>
<rscale>  0 0.12500013E+03</rscale>
<asrwt>0</asrwt>
<pdfrwt beam="1">  1        4 0.45827253E-01 0.12500013E+03</pdfrwt>
<pdfrwt beam="2">  1       -4 0.20174852E-02 0.12500013E+03</pdfrwt>
<totfact> 0.74240328E+03</totfact>
</mgrwt>
</event>
<event>
 5    1  0.3289127E-002  0.1250035E+03  0.7818608E-02  0.1235064E+00
         -4   -1    0    0    0  501 -0.00000000000E+00  0.00000000000E+00  0.82434583767E+02  0.82444366095E+02  0.12700000000E+01 0. -1.
          4   -1    0    0  501    0  0.00000000000E+00 -0.00000000000E+00 -0.47367623530E+02  0.47384645813E+02  0.12700000000E+01 0. -1.
         25    2    1    2    0    0  0.00000000000E+00  0.00000000000E+00  0.35066960237E+02  0.12982901191E+03  0.12500352248E+03 0.  0.
    9000005    1    3    3    0    0  0.60420170073E+02 -0.14600008743E+02  0.10825605140E+02  0.63102701476E+02  0.10000000000E+01 0.  0.
    9000005    1    3    3    0    0 -0.60420170073E+02  0.14600008743E+02  0.24241355097E+02  0.66726310432E+02  0.10000000000E+01 0.  0.
<mgrwt>
<rscale>  0 0.12500352E+03</rscale>
<asrwt>0</asrwt>
<pdfrwt beam="2">  1        4 0.72893886E-02 0.12500352E+03</pdfrwt>
<pdfrwt beam="1">  1       -4 0.12684305E-01 0.12500352E+03</pdfrwt>
<totfact> 0.10347344E+04</totfact>
</mgrwt>
</event>
<event>
 5    1  0.3289127E-002  0.1249982E+03  0.7818608E-02  0.1235072E+00
         -4   -1    0    0    0  501 -0.00000000000E+00  0.00000000000E+00  0.20544974064E+02  0.20584189547E+02  0.12700000000E+01 0. -1.
          4   -1    0    0  501    0  0.00000000000E+00 -0.00000000000E+00 -0.18990369994E+03  0.18990794652E+03  0.12700000000E+01 0. -1.
         25    2    1    2    0    0  0.00000000000E+00  0.00000000000E+00 -0.16935872588E+03  0.21049213607E+03  0.12499824525E+03 0.  0.
    9000005    1    3    3    0    0  0.16450024043E+02 -0.32258319842E+02  0.10859627613E+01  0.36240609890E+02  0.10000000000E+01 0.  0.
    9000005    1    3    3    0    0 -0.16450024043E+02  0.32258319842E+02 -0.17044468864E+03  0.17425152618E+03  0.10000000000E+01 0.  0.
<mgrwt>
<rscale>  0 0.12499825E+03</rscale>
<asrwt>0</asrwt>
<pdfrwt beam="2">  1        4 0.29219296E-01 0.12499825E+03</pdfrwt>
<pdfrwt beam="1">  1       -4 0.31641086E-02 0.12499825E+03</pdfrwt>
<totfact> 0.88399040E+03</totfact>
</mgrwt>
</event>
<event>
 5    1  0.3289127E-002  0.1250018E+03  0.7818608E-02  0.1235066E+00
         -4   -1    0    0    0  501 -0.00000000000E+00  0.00000000000E+00  0.23341563549E+03  0.23341909046E+03  0.12700000000E+01 0.  1.
          4   -1    0    0  501    0  0.00000000000E+00 -0.00000000000E+00 -0.16707980671E+02  0.16756178505E+02  0.12700000000E+01 0.  1.
         25    2    1    2    0    0  0.00000000000E+00  0.00000000000E+00  0.21670765482E+03  0.25017526897E+03  0.12500183016E+03 0.  0.
    9000005    1    3    3    0    0  0.42403136588E+02 -0.22297595838E+02  0.28045250717E+02  0.55522471671E+02  0.10000000000E+01 0.  0.
    9000005    1    3    3    0    0 -0.42403136588E+02  0.22297595838E+02  0.18866240410E+03  0.19465279729E+03  0.10000000000E+01 0.  0.
<mgrwt>
<rscale>  0 0.12500183E+03</rscale>
<asrwt>0</asrwt>
<pdfrwt beam="2">  1        4 0.25744321E-02 0.12500183E+03</pdfrwt>
<pdfrwt beam="1">  1       -4 0.35914067E-01 0.12500183E+03</pdfrwt>
<totfact> 0.82301550E+03</totfact>
</mgrwt>
</event>
<event>
 5    1  0.3289127E-002  0.1249981E+03  0.7818608E-02  0.1235072E+00
         -4   -1    0    0    0  501 -0.00000000000E+00  0.00000000000E+00  0.40389880475E+02  0.40409842177E+02  0.12700000000E+01 0.  1.
          4   -1    0    0  501    0  0.00000000000E+00 -0.00000000000E+00 -0.96662569414E+02  0.96670911993E+02  0.12700000000E+01 0.  1.
         25    2    1    2    0    0  0.00000000000E+00  0.00000000000E+00 -0.56272688939E+02  0.13708075417E+03  0.12499807056E+03 0.  0.
    9000005    1    3    3    0    0  0.86918734213E+01 -0.28403037178E+02 -0.88431351046E+02  0.93291934444E+02  0.10000000000E+01 0.  0.
    9000005    1    3    3    0    0 -0.86918734213E+01  0.28403037178E+02  0.32158662107E+02  0.43788819726E+02  0.10000000000E+01 0.  0.
<mgrwt>
<rscale>  0 0.12499807E+03</rscale>
<asrwt>0</asrwt>
<pdfrwt beam="2">  1        4 0.14873342E-01 0.12499807E+03</pdfrwt>
<pdfrwt beam="1">  1       -4 0.62160051E-02 0.12499807E+03</pdfrwt>
<totfact> 0.10194841E+04</totfact>
</mgrwt>
</event>
<event>
 5    1  0.3289127E-002  0.1250044E+03  0.7818608E-02  0.1235062E+00
          4   -1    0    0  501    0  0.00000000000E+00  0.00000000000E+00  0.15666867386E+03  0.15667382126E+03  0.12700000000E+01 0.  1.
         -4   -1    0    0    0  501 -0.00000000000E+00 -0.00000000000E+00 -0.24913212652E+02  0.24945562023E+02  0.12700000000E+01 0.  1.
         25    2    1    2    0    0  0.00000000000E+00  0.00000000000E+00  0.13175546121E+03  0.18161938329E+03  0.12500439523E+03 0.  0.
    9000005    1    3    3    0    0  0.34491846726E+02  0.22052045131E+02  0.13448102760E+03  0.14057783242E+03  0.10000000000E+01 0.  0.
    9000005    1    3    3    0    0 -0.34491846726E+02 -0.22052045131E+02 -0.27255663902E+01  0.41041550862E+02  0.10000000000E+01 0.  0.
<mgrwt>
<rscale>  0 0.12500440E+03</rscale>
<asrwt>0</asrwt>
<pdfrwt beam="1">  1        4 0.24105757E-01 0.12500440E+03</pdfrwt>
<pdfrwt beam="2">  1       -4 0.38356864E-02 0.12500440E+03</pdfrwt>
<totfact> 0.93317123E+03</totfact>
</mgrwt>
</event>
<event>
 5    1  0.3289127E-002  0.1249997E+03  0.7818608E-02  0.1235070E+00
          4   -1    0    0  501    0  0.00000000000E+00  0.00000000000E+00  0.38974909568E+02  0.38995595596E+02  0.12700000000E+01 0. -1.
         -4   -1    0    0    0  501 -0.00000000000E+00 -0.00000000000E+00 -0.10017288837E+03  0.10018093863E+03  0.12700000000E+01 0. -1.
         25    2    1    2    0    0  0.00000000000E+00  0.00000000000E+00 -0.61197978802E+02  0.13917653422E+03  0.12499966028E+03 0.  0.
    9000005    1    3    3    0    0 -0.25759112033E+02 -0.55816965309E+02 -0.18092837430E+02  0.64089127279E+02  0.10000000000E+01 0.  0.
    9000005    1    3    3    0    0  0.25759112033E+02  0.55816965309E+02 -0.43105141372E+02  0.75087406946E+02  0.10000000000E+01 0.  0.
<mgrwt>
<rscale>  0 0.12499966E+03</rscale>
<asrwt>0</asrwt>
<pdfrwt beam="1">  1        4 0.59983505E-02 0.12499966E+03</pdfrwt>
<pdfrwt beam="2">  1       -4 0.15413424E-01 0.12499966E+03</pdfrwt>
<totfact> 0.10150759E+04</totfact>
</mgrwt>
</event>
<event>
 5    1  0.3289127E-002  0.1250031E+03  0.7818608E-02  0.1235064E+00
         -4   -1    0    0    0  501 -0.00000000000E+00  0.00000000000E+00  0.51977844668E+02  0.51993357617E+02  0.12700000000E+01 0. -1.
          4   -1    0    0  501    0  0.00000000000E+00 -0.00000000000E+00 -0.75123798939E+02  0.75134533119E+02  0.12700000000E+01 0. -1.
         25    2    1    2    0    0  0.00000000000E+00  0.00000000000E+00 -0.23145954271E+02  0.12712789074E+03  0.12500306158E+03 0.  0.
    9000005    1    3    3    0    0  0.12456120332E+02 -0.61021616655E+02 -0.63229886246E+01  0.62608089078E+02  0.10000000000E+01 0.  0.
    9000005    1    3    3    0    0 -0.12456120332E+02  0.61021616655E+02 -0.16822965647E+02  0.64519801658E+02  0.10000000000E+01 0.  0.
<mgrwt>
<rscale>  0 0.12500306E+03</rscale>
<asrwt>0</asrwt>
<pdfrwt beam="2">  1        4 0.11559527E-01 0.12500306E+03</pdfrwt>
<pdfrwt beam="1">  1       -4 0.79986105E-02 0.12500306E+03</pdfrwt>
<totfact> 0.10405649E+04</totfact>
</mgrwt>
</event>
<event>
 5    1  0.3289127E-002  0.1250020E+03  0.7818608E-02  0.1235066E+00
          4   -1    0    0  501    0  0.00000000000E+00  0.00000000000E+00  0.63211479646E+02  0.63224236326E+02  0.12700000000E+01 0. -1.
         -4   -1    0    0    0  501 -0.00000000000E+00 -0.00000000000E+00 -0.61772947930E+02  0.61786001619E+02  0.12700000000E+01 0. -1.
         25    2    1    2    0    0  0.00000000000E+00  0.00000000000E+00  0.14385317153E+01  0.12501023794E+03  0.12500196085E+03 0.  0.
    9000005    1    3    3    0    0  0.55082276524E+02  0.24343072650E+02 -0.15977053948E+02  0.62312989224E+02  0.10000000000E+01 0.  0.
    9000005    1    3    3    0    0 -0.55082276524E+02 -0.24343072650E+02  0.17415585664E+02  0.62697248721E+02  0.10000000000E+01 0.  0.
<mgrwt>
<rscale>  0 0.12500196E+03</rscale>
<asrwt>0</asrwt>
<pdfrwt beam="1">  1        4 0.97268285E-02 0.12500196E+03</pdfrwt>
<pdfrwt beam="2">  1       -4 0.95055158E-02 0.12500196E+03</pdfrwt>
<totfact> 0.10452177E+04</totfact>
</mgrwt>
</event>
<event>
 5    1  0.3289127E-002  0.1249997E+03  0.7818608E-02  0.1235070E+00
          4   -1    0    0  501    0  0.00000000000E+00  0.00000000000E+00  0.11718143546E+02  0.11786763261E+02  0.12700000000E+01 0.  1.
         -4   -1    0    0    0  501 -0.00000000000E+00 -0.00000000000E+00 -0.33230616086E+03  0.33230858768E+03  0.12700000000E+01 0.  1.
         25    2    1    2    0    0  0.00000000000E+00  0.00000000000E+00 -0.32058801731E+03  0.34409535094E+03  0.12499973477E+03 0.  0.
    9000005    1    3    3    0    0 -0.58611100286E+02 -0.24203643356E+01 -0.21959775556E+03  0.22730000767E+03  0.10000000000E+01 0.  0.
    9000005    1    3    3    0    0  0.58611100286E+02  0.24203643356E+01 -0.10099026176E+03  0.11679534327E+03  0.10000000000E+01 0.  0.
<mgrwt>
<rscale>  0 0.12499973E+03</rscale>
<asrwt>0</asrwt>
<pdfrwt beam="1">  1        4 0.18082567E-02 0.12499973E+03</pdfrwt>
<pdfrwt beam="2">  1       -4 0.51129483E-01 0.12499973E+03</pdfrwt>
<totfact> 0.70379478E+03</totfact>
</mgrwt>
</event>
<event>
 5    1  0.3289127E-002  0.1250006E+03  0.7818608E-02  0.1235068E+00
         -4   -1    0    0    0  501 -0.00000000000E+00  0.00000000000E+00  0.11352421973E+03  0.11353132328E+03  0.12700000000E+01 0. -1.
          4   -1    0    0  501    0  0.00000000000E+00 -0.00000000000E+00 -0.34389376238E+02  0.34412818804E+02  0.12700000000E+01 0. -1.
         25    2    1    2    0    0  0.00000000000E+00  0.00000000000E+00  0.79134843493E+02  0.14794414208E+03  0.12500058289E+03 0.  0.
    9000005    1    3    3    0    0  0.29012257977E+01 -0.13805004199E+02  0.11162099176E+03  0.11251329279E+03  0.10000000000E+01 0.  0.
    9000005    1    3    3    0    0 -0.29012257977E+01  0.13805004199E+02 -0.32486148272E+02  0.35430849293E+02  0.10000000000E+01 0.  0.
<mgrwt>
<rscale>  0 0.12500058E+03</rscale>
<asrwt>0</asrwt>
<pdfrwt beam="2">  1        4 0.52930230E-02 0.12500058E+03</pdfrwt>
<pdfrwt beam="1">  1       -4 0.17467614E-01 0.12500058E+03</pdfrwt>
<totfact> 0.99713783E+03</totfact>
</mgrwt>
</event>
<event>
 5    1  0.3289127E-002  0.1249936E+03  0.7818608E-02  0.1235079E+00
          4   -1    0    0  501    0  0.00000000000E+00  0.00000000000E+00  0.46385146323E+02  0.46402529019E+02  0.12700000000E+01 0. -1.
         -4   -1    0    0    0  501 -0.00000000000E+00 -0.00000000000E+00 -0.84166831819E+02  0.84176412839E+02  0.12700000000E+01 0. -1.
         25    2    1    2    0    0  0.00000000000E+00  0.00000000000E+00 -0.37781685497E+02  0.13057894186E+03  0.12499361703E+03 0.  0.
    9000005    1    3    3    0    0  0.89408637542E+01  0.64862581054E+01  0.45362292416E+02  0.46698481368E+02  0.10000000000E+01 0.  0.
    9000005    1    3    3    0    0 -0.89408637542E+01 -0.64862581054E+01 -0.83143977912E+02  0.83880460490E+02  0.10000000000E+01 0.  0.
<mgrwt>
<rscale>  0 0.12499362E+03</rscale>
<asrwt>0</asrwt>
<pdfrwt beam="1">  1        4 0.71382505E-02 0.12499362E+03</pdfrwt>
<pdfrwt beam="2">  1       -4 0.12950818E-01 0.12499362E+03</pdfrwt>
<totfact> 0.10333613E+04</totfact>
</mgrwt>
</event>
<event>
 5    1  0.3289127E-002  0.1250028E+03  0.7818608E-02  0.1235065E+00
         -4   -1    0    0    0  501 -0.00000000000E+00  0.00000000000E+00  0.18023871887E+02  0.18068559926E+02  0.12700000000E+01 0. -1.
          4   -1    0    0  501    0  0.00000000000E+00 -0.00000000000E+00 -0.21642119447E+03  0.21642492074E+03  0.12700000000E+01 0. -1.
         25    2    1    2    0    0  0.00000000000E+00  0.00000000000E+00 -0.19839732258E+03  0.23449348066E+03  0.12500277943E+03 0.  0.
    9000005    1    3    3    0    0 -0.28670226148E+02 -0.46881171044E+02 -0.15502373835E+03  0.16447852601E+03  0.10000000000E+01 0.  0.
    9000005    1    3    3    0    0  0.28670226148E+02  0.46881171044E+02 -0.43373584231E+02  0.70014954652E+02  0.10000000000E+01 0.  0.
<mgrwt>
<rscale>  0 0.12500278E+03</rscale>
<asrwt>0</asrwt>
<pdfrwt beam="2">  1        4 0.33299291E-01 0.12500278E+03</pdfrwt>
<pdfrwt beam="1">  1       -4 0.27766277E-02 0.12500278E+03</pdfrwt>
<totfact> 0.84619116E+03</totfact>
</mgrwt>
</event>
<event>
 5    1  0.3289127E-002  0.1250001E+03  0.7818608E-02  0.1235069E+00
         -4   -1    0    0    0  501 -0.00000000000E+00  0.00000000000E+00  0.70693417521E+01  0.71825129870E+01  0.12700000000E+01 0. -1.
          4   -1    0    0  501    0  0.00000000000E+00 -0.00000000000E+00 -0.54806128454E+03  0.54806275600E+03  0.12700000000E+01 0. -1.
         25    2    1    2    0    0  0.00000000000E+00  0.00000000000E+00 -0.54099194279E+03  0.55524526898E+03  0.12500010627E+03 0.  0.
    9000005    1    3    3    0    0  0.36764959303E+02 -0.16953346284E+02 -0.59039228640E+02  0.71594054929E+02  0.10000000000E+01 0.  0.
    9000005    1    3    3    0    0 -0.36764959303E+02  0.16953346284E+02 -0.48195271415E+03  0.48365121405E+03  0.10000000000E+01 0.  0.
<mgrwt>
<rscale>  0 0.12500011E+03</rscale>
<asrwt>0</asrwt>
<pdfrwt beam="2">  1        4 0.84325906E-01 0.12500011E+03</pdfrwt>
<pdfrwt beam="1">  1       -4 0.10964101E-02 0.12500011E+03</pdfrwt>
<totfact> 0.51820170E+03</totfact>
</mgrwt>
</event>
<event>
 5    1  0.3289127E-002  0.1250001E+03  0.7818608E-02  0.1235069E+00
          4   -1    0    0  501    0  0.00000000000E+00  0.00000000000E+00  0.29670638099E+02  0.29697805730E+02  0.12700000000E+01 0. -1.
         -4   -1    0    0    0  501 -0.00000000000E+00 -0.00000000000E+00 -0.13156339098E+03  0.13156952059E+03  0.12700000000E+01 0. -1.
         25    2    1    2    0    0  0.00000000000E+00  0.00000000000E+00 -0.10189275289E+03  0.16126732632E+03  0.12500006979E+03 0.  0.
    9000005    1    3    3    0    0 -0.31570632860E+02  0.93523607273E+01  0.17577835673E+02  0.37338342455E+02  0.10000000000E+01 0.  0.
    9000005    1    3    3    0    0  0.31570632860E+02 -0.93523607273E+01 -0.11947058856E+03  0.12392898386E+03  0.10000000000E+01 0.  0.
<mgrwt>
<rscale>  0 0.12500007E+03</rscale>
<asrwt>0</asrwt>
<pdfrwt beam="1">  1        4 0.45672749E-02 0.12500007E+03</pdfrwt>
<pdfrwt beam="2">  1       -4 0.20243083E-01 0.12500007E+03</pdfrwt>
<totfact> 0.97098857E+03</totfact>
</mgrwt>
</event>
<event>
 5    1  0.3289127E-002  0.1249920E+03  0.7818608E-02  0.1235082E+00
          4   -1    0    0  501    0  0.00000000000E+00  0.00000000000E+00  0.10728635041E+02  0.10803541541E+02  0.12700000000E+01 0.  1.
         -4   -1    0    0    0  501 -0.00000000000E+00 -0.00000000000E+00 -0.36270649109E+03  0.36270871450E+03  0.12700000000E+01 0.  1.
         25    2    1    2    0    0  0.00000000000E+00  0.00000000000E+00 -0.35197785605E+03  0.37351225604E+03  0.12499197682E+03 0.  0.
    9000005    1    3    3    0    0 -0.14497193091E+02 -0.11102240955E+02 -0.35457069493E+03  0.35504197789E+03  0.10000000000E+01 0.  0.
    9000005    1    3    3    0    0  0.14497193091E+02  0.11102240955E+02  0.25928388799E+01  0.18470278157E+02  0.10000000000E+01 0.  0.
<mgrwt>
<rscale>  0 0.12499198E+03</rscale>
<asrwt>0</asrwt>
<pdfrwt beam="1">  1        4 0.16564926E-02 0.12499198E+03</pdfrwt>
<pdfrwt beam="2">  1       -4 0.55806922E-01 0.12499198E+03</pdfrwt>
<totfact> 0.67225009E+03</totfact>
</mgrwt>
</event>
<event>
 5    1  0.3289127E-002  0.1249987E+03  0.7818608E-02  0.1235071E+00
         -4   -1    0    0    0  501 -0.00000000000E+00  0.00000000000E+00  0.60461994557E+02  0.60475331217E+02  0.12700000000E+01 0.  1.
          4   -1    0    0  501    0  0.00000000000E+00 -0.00000000000E+00 -0.64578633486E+02  0.64591120155E+02  0.12700000000E+01 0.  1.
         25    2    1    2    0    0  0.00000000000E+00  0.00000000000E+00 -0.41166389292E+01  0.12506645137E+03  0.12499868216E+03 0.  0.
    9000005    1    3    3    0    0 -0.51257064751E+02  0.26375659342E+02  0.22083698070E+02  0.61738576377E+02  0.10000000000E+01 0.  0.
    9000005    1    3    3    0    0  0.51257064751E+02 -0.26375659342E+02 -0.26200336999E+02  0.63327874996E+02  0.10000000000E+01 0.  0.
<mgrwt>
<rscale>  0 0.12499868E+03</rscale>
<asrwt>0</asrwt>
<pdfrwt beam="2">  1        4 0.99371608E-02 0.12499868E+03</pdfrwt>
<pdfrwt beam="1">  1       -4 0.93038317E-02 0.12499868E+03</pdfrwt>
<totfact> 0.10451731E+04</totfact>
</mgrwt>
</event>
<event>
 5    1  0.3289127E-002  0.1249998E+03  0.7818608E-02  0.1235070E+00
         -4   -1    0    0    0  501 -0.00000000000E+00  0.00000000000E+00  0.40800995938E+02  0.40820756602E+02  0.12700000000E+01 0. -1.
          4   -1    0    0  501    0  0.00000000000E+00 -0.00000000000E+00 -0.95691599523E+02  0.95700026746E+02  0.12700000000E+01 0. -1.
         25    2    1    2    0    0  0.00000000000E+00  0.00000000000E+00 -0.54890603585E+02  0.13652078335E+03  0.12499978370E+03 0.  0.
    9000005    1    3    3    0    0 -0.56075102506E+02  0.10272230345E+02 -0.55403540422E+02  0.79501497650E+02  0.10000000000E+01 0.  0.
    9000005    1    3    3    0    0  0.56075102506E+02 -0.10272230345E+02  0.51293683674E+00  0.57019285698E+02  0.10000000000E+01 0.  0.
<mgrwt>
<rscale>  0 0.12499978E+03</rscale>
<asrwt>0</asrwt>
<pdfrwt beam="2">  1        4 0.14723953E-01 0.12499978E+03</pdfrwt>
<pdfrwt beam="1">  1       -4 0.62792446E-02 0.12499978E+03</pdfrwt>
<totfact> 0.10206165E+04</totfact>
</mgrwt>
</event>
<event>
 5    1  0.3289127E-002  0.1250045E+03  0.7818608E-02  0.1235062E+00
          4   -1    0    0  501    0  0.00000000000E+00  0.00000000000E+00  0.67644297973E+02  0.67656218844E+02  0.12700000000E+01 0.  1.
         -4   -1    0    0    0  501 -0.00000000000E+00 -0.00000000000E+00 -0.57727108279E+02  0.57741076628E+02  0.12700000000E+01 0.  1.
         25    2    1    2    0    0  0.00000000000E+00  0.00000000000E+00  0.99171896947E+01  0.12539729547E+03  0.12500452416E+03 0.  0.
    9000005    1    3    3    0    0 -0.72943478806E+01  0.56140661002E+02 -0.21592501125E+02  0.60598823698E+02  0.10000000000E+01 0.  0.
    9000005    1    3    3    0    0  0.72943478806E+01 -0.56140661002E+02  0.31509690820E+02  0.64798471775E+02  0.10000000000E+01 0.  0.
<mgrwt>
<rscale>  0 0.12500452E+03</rscale>
<asrwt>0</asrwt>
<pdfrwt beam="1">  1        4 0.10408807E-01 0.12500452E+03</pdfrwt>
<pdfrwt beam="2">  1       -4 0.88830851E-02 0.12500452E+03</pdfrwt>
<totfact> 0.10443161E+04</totfact>
</mgrwt>
</event>
<event>
 5    1  0.3289127E-002  0.1250059E+03  0.7818608E-02  0.1235060E+00
         -4   -1    0    0    0  501 -0.00000000000E+00  0.00000000000E+00  0.36350985335E+02  0.36373163663E+02  0.12700000000E+01 0. -1.
          4   -1    0    0  501    0  0.00000000000E+00 -0.00000000000E+00 -0.10741076828E+03  0.10741827611E+03  0.12700000000E+01 0. -1.
         25    2    1    2    0    0  0.00000000000E+00  0.00000000000E+00 -0.71059782941E+02  0.14379143977E+03  0.12500594146E+03 0.  0.
    9000005    1    3    3    0    0  0.23902841294E+02 -0.43117934665E+02  0.86491145547E+01  0.50063053185E+02  0.10000000000E+01 0.  0.
    9000005    1    3    3    0    0 -0.23902841294E+02  0.43117934665E+02 -0.79708897496E+02  0.93728386584E+02  0.10000000000E+01 0.  0.
<mgrwt>
<rscale>  0 0.12500594E+03</rscale>
<asrwt>0</asrwt>
<pdfrwt beam="2">  1        4 0.16527017E-01 0.12500594E+03</pdfrwt>
<pdfrwt beam="1">  1       -4 0.55947429E-02 0.12500594E+03</pdfrwt>
<totfact> 0.10054256E+04</totfact>
</mgrwt>
</event>
<event>
 5    1  0.3289127E-002  0.1250014E+03  0.7818608E-02  0.1235067E+00
         -4   -1    0    0    0  501 -0.00000000000E+00  0.00000000000E+00  0.49583968389E+02  0.49600230052E+02  0.12700000000E+01 0. -1.
          4   -1    0    0  501    0  0.00000000000E+00 -0.00000000000E+00 -0.78748019391E+02  0.78758259617E+02  0.12700000000E+01 0. -1.
         25    2    1    2    0    0  0.00000000000E+00  0.00000000000E+00 -0.29164051002E+02  0.12835848967E+03  0.12500143999E+03 0.  0.
    9000005    1    3    3    0    0  0.30332677247E+02  0.52359782727E+02 -0.30612885068E+02  0.67821581288E+02  0.10000000000E+01 0.  0.
    9000005    1    3    3    0    0 -0.30332677247E+02 -0.52359782727E+02  0.14488340660E+01  0.60536908381E+02  0.10000000000E+01 0.  0.
<mgrwt>
<rscale>  0 0.12500144E+03</rscale>
<asrwt>0</asrwt>
<pdfrwt beam="2">  1        4 0.12117119E-01 0.12500144E+03</pdfrwt>
<pdfrwt beam="1">  1       -4 0.76303414E-02 0.12500144E+03</pdfrwt>
<totfact> 0.10379416E+04</totfact>
</mgrwt>
</event>
<event>
 5    1  0.3289127E-002  0.1250030E+03  0.7818608E-02  0.1235065E+00
          4   -1    0    0  501    0  0.00000000000E+00  0.00000000000E+00  0.16290710067E+03  0.16291205096E+03  0.12700000000E+01 0.  1.
         -4   -1    0    0    0  501 -0.00000000000E+00 -0.00000000000E+00 -0.23957414170E+02  0.23991052368E+02  0.12700000000E+01 0.  1.
         25    2    1    2    0    0  0.00000000000E+00  0.00000000000E+00  0.13894968650E+03  0.18690310333E+03  0.12500301859E+03 0.  0.
    9000005    1    3    3    0    0 -0.29062618052E+02  0.48648861343E+02  0.30083183800E+02  0.64166544442E+02  0.10000000000E+01 0.  0.
    9000005    1    3    3    0    0  0.29062618052E+02 -0.48648861343E+02  0.10886650270E+03  0.12273655889E+03  0.10000000000E+01 0.  0.
<mgrwt>
<rscale>  0 0.12500302E+03</rscale>
<asrwt>0</asrwt>
<pdfrwt beam="1">  1        4 0.25065599E-01 0.12500302E+03</pdfrwt>
<pdfrwt beam="2">  1       -4 0.36887244E-02 0.12500302E+03</pdfrwt>
<totfact> 0.92382725E+03</totfact>
</mgrwt>
</event>
<event>
 5    1  0.3289127E-002  0.1250011E+03  0.7818608E-02  0.1235068E+00
         -4   -1    0    0    0  501 -0.00000000000E+00  0.00000000000E+00  0.10290363818E+02  0.10368437081E+02  0.12700000000E+01 0. -1.
          4   -1    0    0  501    0  0.00000000000E+00 -0.00000000000E+00 -0.37809538453E+03  0.37809751745E+03  0.12700000000E+01 0. -1.
         25    2    1    2    0    0  0.00000000000E+00  0.00000000000E+00 -0.36780502072E+03  0.38846595454E+03  0.12500105828E+03 0.  0.
    9000005    1    3    3    0    0  0.53988018603E+02 -0.14121386887E+02 -0.96488422442E+02  0.11146809133E+03  0.10000000000E+01 0.  0.
    9000005    1    3    3    0    0 -0.53988018603E+02  0.14121386887E+02 -0.27131659827E+03  0.27699786320E+03  0.10000000000E+01 0.  0.
<mgrwt>
<rscale>  0 0.12500106E+03</rscale>
<asrwt>0</asrwt>
<pdfrwt beam="2">  1        4 0.58174680E-01 0.12500106E+03</pdfrwt>
<pdfrwt beam="1">  1       -4 0.15893029E-02 0.12500106E+03</pdfrwt>
<totfact> 0.65688720E+03</totfact>
</mgrwt>
</event>
<event>
 5    1  0.3289127E-002  0.1250178E+03  0.7818608E-02  0.1235041E+00
         -4   -1    0    0    0  501 -0.00000000000E+00  0.00000000000E+00  0.97063395275E+03  0.97063478360E+03  0.12700000000E+01 0.  1.
          4   -1    0    0  501    0  0.00000000000E+00 -0.00000000000E+00 -0.39245586300E+01  0.41249315680E+01  0.12700000000E+01 0.  1.
         25    2    1    2    0    0  0.00000000000E+00  0.00000000000E+00  0.96670939412E+03  0.97475971517E+03  0.12501779726E+03 0.  0.
    9000005    1    3    3    0    0  0.48675686360E+02  0.37293968443E+02  0.57763028343E+03  0.58087684311E+03  0.10000000000E+01 0.  0.
    9000005    1    3    3    0    0 -0.48675686360E+02 -0.37293968443E+02  0.38907911069E+03  0.39388287206E+03  0.10000000000E+01 0.  0.
<mgrwt>
<rscale>  0 0.12501780E+03</rscale>
<asrwt>0</asrwt>
<pdfrwt beam="2">  1        4 0.61925574E-03 0.12501780E+03</pdfrwt>
<pdfrwt beam="1">  1       -4 0.14934371E+00 0.12501780E+03</pdfrwt>
<totfact> 0.31440698E+03</totfact>
</mgrwt>
</event>
<event>
 5    1  0.3289127E-002  0.1250005E+03  0.7818608E-02  0.1235068E+00
         -4   -1    0    0    0  501 -0.00000000000E+00  0.00000000000E+00  0.26149483117E+01  0.29070353752E+01  0.12700000000E+01 0. -1.
          4   -1    0    0  501    0  0.00000000000E+00 -0.00000000000E+00 -0.14145191704E+04  0.14145197405E+04  0.12700000000E+01 0. -1.
         25    2    1    2    0    0  0.00000000000E+00  0.00000000000E+00 -0.14119042221E+04  0.14174267759E+04  0.12500053073E+03 0.  0.
    9000005    1    3    3    0    0  0.93685781302E+00  0.72137544583E+01 -0.14097575435E+04  0.14097766658E+04  0.10000000000E+01 0.  0.
    9000005    1    3    3    0    0 -0.93685781302E+00 -0.72137544583E+01 -0.21466786128E+01  0.76501101308E+01  0.10000000000E+01 0.  0.
<mgrwt>
<rscale>  0 0.12500053E+03</rscale>
<asrwt>0</asrwt>
<pdfrwt beam="2">  1        4 0.21764027E+00 0.12500053E+03</pdfrwt>
<pdfrwt beam="1">  1       -4 0.42481296E-03 0.12500053E+03</pdfrwt>
<totfact> 0.19609869E+03</totfact>
</mgrwt>
</event>
<event>
 5    1  0.3289127E-002  0.1250008E+03  0.7818608E-02  0.1235068E+00
         -4   -1    0    0    0  501 -0.00000000000E+00  0.00000000000E+00  0.71643419758E+02  0.71654675316E+02  0.12700000000E+01 0. -1.
          4   -1    0    0  501    0  0.00000000000E+00 -0.00000000000E+00 -0.54501267919E+02  0.54516062815E+02  0.12700000000E+01 0. -1.
         25    2    1    2    0    0  0.00000000000E+00  0.00000000000E+00  0.17142151839E+02  0.12617073813E+03  0.12500080716E+03 0.  0.
    9000005    1    3    3    0    0 -0.34350848689E+02  0.40274571353E+02  0.42097590978E+02  0.67640439601E+02  0.10000000000E+01 0.  0.
    9000005    1    3    3    0    0  0.34350848689E+02 -0.40274571353E+02 -0.24955439139E+02  0.58530298530E+02  0.10000000000E+01 0.  0.
<mgrwt>
<rscale>  0 0.12500081E+03</rscale>
<asrwt>0</asrwt>
<pdfrwt beam="2">  1        4 0.83868144E-02 0.12500081E+03</pdfrwt>
<pdfrwt beam="1">  1       -4 0.11024068E-01 0.12500081E+03</pdfrwt>
<totfact> 0.10427029E+04</totfact>
</mgrwt>
</event>
<event>
 5    1  0.3289127E-002  0.1250031E+03  0.7818608E-02  0.1235064E+00
          4   -1    0    0  501    0  0.00000000000E+00  0.00000000000E+00  0.20859319987E+03  0.20859706598E+03  0.12700000000E+01 0.  1.
         -4   -1    0    0    0  501 -0.00000000000E+00 -0.00000000000E+00 -0.18701983314E+02  0.18745054811E+02  0.12700000000E+01 0.  1.
         25    2    1    2    0    0  0.00000000000E+00  0.00000000000E+00  0.18989121656E+03  0.22734212079E+03  0.12500306299E+03 0.  0.
    9000005    1    3    3    0    0  0.38660437462E+02  0.36853777238E+02  0.35940008584E+02  0.64385670289E+02  0.10000000000E+01 0.  0.
    9000005    1    3    3    0    0 -0.38660437462E+02 -0.36853777238E+02  0.15395120798E+03  0.16295645050E+03  0.10000000000E+01 0.  0.
<mgrwt>
<rscale>  0 0.12500306E+03</rscale>
<asrwt>0</asrwt>
<pdfrwt beam="1">  1        4 0.32094873E-01 0.12500306E+03</pdfrwt>
<pdfrwt beam="2">  1       -4 0.28808387E-02 0.12500306E+03</pdfrwt>
<totfact> 0.85713533E+03</totfact>
</mgrwt>
</event>
<event>
 5    1  0.3289127E-002  0.1250001E+03  0.7818608E-02  0.1235069E+00
          4   -1    0    0  501    0  0.00000000000E+00  0.00000000000E+00  0.78802387461E+03  0.78802489799E+03  0.12700000000E+01 0. -1.
         -4   -1    0    0    0  501 -0.00000000000E+00 -0.00000000000E+00 -0.48746392767E+01  0.50373612217E+01  0.12700000000E+01 0. -1.
         25    2    1    2    0    0  0.00000000000E+00  0.00000000000E+00  0.78314923533E+03  0.79306225921E+03  0.12500008874E+03 0.  0.
    9000005    1    3    3    0    0  0.37711452798E+02  0.42644029839E+02  0.22801601068E+03  0.23501695274E+03  0.10000000000E+01 0.  0.
    9000005    1    3    3    0    0 -0.37711452798E+02 -0.42644029839E+02  0.55513322466E+03  0.55804530647E+03  0.10000000000E+01 0.  0.
<mgrwt>
<rscale>  0 0.12500009E+03</rscale>
<asrwt>0</asrwt>
<pdfrwt beam="1">  1        4 0.12124706E+00 0.12500009E+03</pdfrwt>
<pdfrwt beam="2">  1       -4 0.76254013E-03 0.12500009E+03</pdfrwt>
<totfact> 0.38576245E+03</totfact>
</mgrwt>
</event>
<event>
 5    1  0.3289127E-002  0.1249956E+03  0.7818608E-02  0.1235076E+00
          4   -1    0    0  501    0  0.00000000000E+00  0.00000000000E+00  0.22364742906E+03  0.22365103493E+03  0.12700000000E+01 0.  1.
         -4   -1    0    0    0  501 -0.00000000000E+00 -0.00000000000E+00 -0.17438032001E+02  0.17484217457E+02  0.12700000000E+01 0.  1.
         25    2    1    2    0    0  0.00000000000E+00  0.00000000000E+00  0.20620939706E+03  0.24113525239E+03  0.12499557796E+03 0.  0.
    9000005    1    3    3    0    0  0.42631173353E+02 -0.44919117247E+02  0.11922546949E+03  0.13435347636E+03  0.10000000000E+01 0.  0.
    9000005    1    3    3    0    0 -0.42631173353E+02  0.44919117247E+02  0.86983927572E+02  0.10678177603E+03  0.10000000000E+01 0.  0.
<mgrwt>
<rscale>  0 0.12499558E+03</rscale>
<asrwt>0</asrwt>
<pdfrwt beam="1">  1        4 0.34411124E-01 0.12499558E+03</pdfrwt>
<pdfrwt beam="2">  1       -4 0.26866045E-02 0.12499558E+03</pdfrwt>
<totfact> 0.83636828E+03</totfact>
</mgrwt>
</event>
<event>
 5    1  0.3289127E-002  0.1249975E+03  0.7818608E-02  0.1235073E+00
         -4   -1    0    0    0  501 -0.00000000000E+00  0.00000000000E+00  0.24518176676E+02  0.24551046567E+02  0.12700000000E+01 0.  1.
          4   -1    0    0  501    0  0.00000000000E+00 -0.00000000000E+00 -0.15917204733E+03  0.15917711378E+03  0.12700000000E+01 0.  1.
         25    2    1    2    0    0  0.00000000000E+00  0.00000000000E+00 -0.13465387065E+03  0.18372816035E+03  0.12499748806E+03 0.  0.
    9000005    1    3    3    0    0 -0.34978346368E+02 -0.42840363214E+02 -0.11008712079E+03  0.12320290418E+03  0.10000000000E+01 0.  0.
    9000005    1    3    3    0    0  0.34978346368E+02  0.42840363214E+02 -0.24566749862E+02  0.60525256164E+02  0.10000000000E+01 0.  0.
<mgrwt>
<rscale>  0 0.12499749E+03</rscale>
<asrwt>0</asrwt>
<pdfrwt beam="2">  1        4 0.24490925E-01 0.12499749E+03</pdfrwt>
<pdfrwt beam="1">  1       -4 0.37749454E-02 0.12499749E+03</pdfrwt>
<totfact> 0.92955428E+03</totfact>
</mgrwt>
</event>
<event>
 5    1  0.3289127E-002  0.1250013E+03  0.7818608E-02  0.1235067E+00
          4   -1    0    0  501    0  0.00000000000E+00  0.00000000000E+00  0.22196202166E+02  0.22232505271E+02  0.12700000000E+01 0. -1.
         -4   -1    0    0    0  501 -0.00000000000E+00 -0.00000000000E+00 -0.17580859470E+03  0.17581318173E+03  0.12700000000E+01 0. -1.
         25    2    1    2    0    0  0.00000000000E+00  0.00000000000E+00 -0.15361239253E+03  0.19804568700E+03  0.12500130799E+03 0.  0.
    9000005    1    3    3    0    0 -0.27472741000E+02 -0.53280920513E+02 -0.48833406244E+02  0.77325995332E+02  0.10000000000E+01 0.  0.
    9000005    1    3    3    0    0  0.27472741000E+02  0.53280920513E+02 -0.10477898629E+03  0.12071969166E+03  0.10000000000E+01 0.  0.
<mgrwt>
<rscale>  0 0.12500131E+03</rscale>
<asrwt>0</asrwt>
<pdfrwt beam="1">  1        4 0.34179459E-02 0.12500131E+03</pdfrwt>
<pdfrwt beam="2">  1       -4 0.27050621E-01 0.12500131E+03</pdfrwt>
<totfact> 0.90463282E+03</totfact>
</mgrwt>
</event>
<event>
 5    1  0.3289127E-002  0.1250002E+03  0.7818608E-02  0.1235069E+00
         -4   -1    0    0    0  501 -0.00000000000E+00  0.00000000000E+00  0.16104196905E+03  0.16104697667E+03  0.12700000000E+01 0. -1.
          4   -1    0    0  501    0  0.00000000000E+00 -0.00000000000E+00 -0.24234175270E+02  0.24267429839E+02  0.12700000000E+01 0. -1.
         25    2    1    2    0    0  0.00000000000E+00  0.00000000000E+00  0.13680779378E+03  0.18531440651E+03  0.12500022729E+03 0.  0.
    9000005    1    3    3    0    0  0.40209567420E+02 -0.34765836663E+02  0.19688265970E+02  0.56693037737E+02  0.10000000000E+01 0.  0.
    9000005    1    3    3    0    0 -0.40209567420E+02  0.34765836663E+02  0.11711952781E+03  0.12862136877E+03  0.10000000000E+01 0.  0.
<mgrwt>
<rscale>  0 0.12500023E+03</rscale>
<asrwt>0</asrwt>
<pdfrwt beam="2">  1        4 0.37312778E-02 0.12500023E+03</pdfrwt>
<pdfrwt beam="1">  1       -4 0.24778631E-01 0.12500023E+03</pdfrwt>
<totfact> 0.92668573E+03</totfact>
</mgrwt>
</event>
<event>
 5    1  0.3289127E-002  0.1250065E+03  0.7818608E-02  0.1235059E+00
          4   -1    0    0  501    0  0.00000000000E+00  0.00000000000E+00  0.28537704922E+02  0.28565950049E+02  0.12700000000E+01 0.  1.
         -4   -1    0    0    0  501 -0.00000000000E+00 -0.00000000000E+00 -0.13679555540E+03  0.13680145056E+03  0.12700000000E+01 0.  1.
         25    2    1    2    0    0  0.00000000000E+00  0.00000000000E+00 -0.10825785047E+03  0.16536740061E+03  0.12500645982E+03 0.  0.
    9000005    1    3    3    0    0 -0.96688179580E+01  0.54813017568E+02 -0.16532833227E+02  0.58071400105E+02  0.10000000000E+01 0.  0.
    9000005    1    3    3    0    0  0.96688179580E+01 -0.54813017568E+02 -0.91725017247E+02  0.10729600051E+03  0.10000000000E+01 0.  0.
<mgrwt>
<rscale>  0 0.12500646E+03</rscale>
<asrwt>0</asrwt>
<pdfrwt beam="1">  1        4 0.43930424E-02 0.12500646E+03</pdfrwt>
<pdfrwt beam="2">  1       -4 0.21048096E-01 0.12500646E+03</pdfrwt>
<totfact> 0.96303882E+03</totfact>
</mgrwt>
</event>
<event>
 5    1  0.3289127E-002  0.1250000E+03  0.7818608E-02  0.1235069E+00
          4   -1    0    0  501    0  0.00000000000E+00  0.00000000000E+00  0.36134754705E+03  0.36134977882E+03  0.12700000000E+01 0. -1.
         -4   -1    0    0    0  501 -0.00000000000E+00 -0.00000000000E+00 -0.10770651593E+02  0.10845267896E+02  0.12700000000E+01 0. -1.
         25    2    1    2    0    0  0.00000000000E+00  0.00000000000E+00  0.35057689545E+03  0.37219504672E+03  0.12499997271E+03 0.  0.
    9000005    1    3    3    0    0  0.14416463968E+02 -0.31624303834E+02  0.20646722098E+02  0.40437830799E+02  0.10000000000E+01 0.  0.
    9000005    1    3    3    0    0 -0.14416463968E+02  0.31624303834E+02  0.32993017335E+03  0.33175721592E+03  0.10000000000E+01 0.  0.
<mgrwt>
<rscale>  0 0.12499997E+03</rscale>
<asrwt>0</asrwt>
<pdfrwt beam="1">  1        4 0.55597833E-01 0.12499997E+03</pdfrwt>
<pdfrwt beam="2">  1       -4 0.16629350E-02 0.12499997E+03</pdfrwt>
<totfact> 0.67349962E+03</totfact>
</mgrwt>
</event>
<event>
 5    1  0.3289127E-002  0.1249948E+03  0.7818608E-02  0.1235077E+00
         -4   -1    0    0    0  501 -0.00000000000E+00  0.00000000000E+00  0.19043921957E+02  0.19086221823E+02  0.12700000000E+01 0.  1.
          4   -1    0    0  501    0  0.00000000000E+00 -0.00000000000E+00 -0.20482910481E+03  0.20483304196E+03  0.12700000000E+01 0.  1.
         25    2    1    2    0    0  0.00000000000E+00  0.00000000000E+00 -0.18578518286E+03  0.22391926378E+03  0.12499480999E+03 0.  0.
    9000005    1    3    3    0    0  0.18139386380E+02  0.58323362892E+02 -0.11654172968E+03  0.13158125533E+03  0.10000000000E+01 0.  0.
    9000005    1    3    3    0    0 -0.18139386380E+02 -0.58323362892E+02 -0.69243453176E+02  0.92338008453E+02  0.10000000000E+01 0.  0.
<mgrwt>
<rscale>  0 0.12499481E+03</rscale>
<asrwt>0</asrwt>
<pdfrwt beam="2">  1        4 0.31515725E-01 0.12499481E+03</pdfrwt>
<pdfrwt beam="1">  1       -4 0.29333910E-02 0.12499481E+03</pdfrwt>
<totfact> 0.86261949E+03</totfact>
</mgrwt>
</event>
<event>
 5    1  0.3289127E-002  0.1249971E+03  0.7818608E-02  0.1235074E+00
          4   -1    0    0  501    0  0.00000000000E+00  0.00000000000E+00  0.12074087007E+03  0.12074754906E+03  0.12700000000E+01 0. -1.
         -4   -1    0    0    0  501 -0.00000000000E+00 -0.00000000000E+00 -0.32330780824E+02  0.32355714931E+02  0.12700000000E+01 0. -1.
         25    2    1    2    0    0  0.00000000000E+00  0.00000000000E+00  0.88410089243E+02  0.15310326399E+03  0.12499706223E+03 0.  0.
    9000005    1    3    3    0    0  0.72460920503E+01 -0.21055952452E+01 -0.31776714198E+02  0.32675662909E+02  0.10000000000E+01 0.  0.
    9000005    1    3    3    0    0 -0.72460920503E+01  0.21055952452E+01  0.12018680344E+03  0.12042760108E+03  0.10000000000E+01 0.  0.
<mgrwt>
<rscale>  0 0.12499706E+03</rscale>
<asrwt>0</asrwt>
<pdfrwt beam="1">  1        4 0.18577950E-01 0.12499706E+03</pdfrwt>
<pdfrwt beam="2">  1       -4 0.49763980E-02 0.12499706E+03</pdfrwt>
<totfact> 0.98695190E+03</totfact>
</mgrwt>
</event>
<event>
 5    1  0.3289127E-002  0.1249933E+03  0.7818608E-02  0.1235080E+00
         -4   -1    0    0    0  501 -0.00000000000E+00  0.00000000000E+00  0.40566760615E+02  0.40586635322E+02  0.12700000000E+01 0.  1.
          4   -1    0    0  501    0  0.00000000000E+00 -0.00000000000E+00 -0.96233871717E+02  0.96242251458E+02  0.12700000000E+01 0.  1.
         25    2    1    2    0    0  0.00000000000E+00  0.00000000000E+00 -0.55667111103E+02  0.13682888678E+03  0.12499326781E+03 0.  0.
    9000005    1    3    3    0    0 -0.41942713898E+02  0.41199685872E+02 -0.51009565513E+02  0.77843311459E+02  0.10000000000E+01 0.  0.
    9000005    1    3    3    0    0  0.41942713898E+02 -0.41199685872E+02 -0.46575455901E+01  0.58985575321E+02  0.10000000000E+01 0.  0.
<mgrwt>
<rscale>  0 0.12499327E+03</rscale>
<asrwt>0</asrwt>
<pdfrwt beam="2">  1        4 0.14807384E-01 0.12499327E+03</pdfrwt>
<pdfrwt beam="1">  1       -4 0.62432135E-02 0.12499327E+03</pdfrwt>
<totfact> 0.10201213E+04</totfact>
</mgrwt>
</event>
<event>
 5    1  0.3289127E-002  0.1250054E+03  0.7818608E-02  0.1235061E+00
          4   -1    0    0  501    0  0.00000000000E+00  0.00000000000E+00  0.40158227391E+02  0.40178304185E+02  0.12700000000E+01 0. -1.
         -4   -1    0    0    0  501 -0.00000000000E+00 -0.00000000000E+00 -0.97231326780E+02  0.97239620564E+02  0.12700000000E+01 0. -1.
         25    2    1    2    0    0  0.00000000000E+00  0.00000000000E+00 -0.57073099390E+02  0.13741792475E+03  0.12500538936E+03 0.  0.
    9000005    1    3    3    0    0 -0.18104584855E+02  0.24970569471E+02 -0.88286918000E+02  0.93524784001E+02  0.10000000000E+01 0.  0.
    9000005    1    3    3    0    0  0.18104584855E+02 -0.24970569471E+02  0.31213818611E+02  0.43893140748E+02  0.10000000000E+01 0.  0.
<mgrwt>
<rscale>  0 0.12500539E+03</rscale>
<asrwt>0</asrwt>
<pdfrwt beam="1">  1        4 0.61803712E-02 0.12500539E+03</pdfrwt>
<pdfrwt beam="2">  1       -4 0.14960848E-01 0.12500539E+03</pdfrwt>
<totfact> 0.10186117E+04</totfact>
</mgrwt>
</event>
<event>
 5    1  0.3289127E-002  0.1249992E+03  0.7818608E-02  0.1235070E+00
          4   -1    0    0  501    0  0.00000000000E+00  0.00000000000E+00  0.32469137389E+02  0.32493965328E+02  0.12700000000E+01 0. -1.
         -4   -1    0    0    0  501 -0.00000000000E+00 -0.00000000000E+00 -0.12023093656E+03  0.12023764388E+03  0.12700000000E+01 0. -1.
         25    2    1    2    0    0  0.00000000000E+00  0.00000000000E+00 -0.87761799173E+02  0.15273160921E+03  0.12499924423E+03 0.  0.
    9000005    1    3    3    0    0 -0.57975119851E+02  0.13376275449E+01 -0.72334743206E+02  0.92715796086E+02  0.10000000000E+01 0.  0.
    9000005    1    3    3    0    0  0.57975119851E+02 -0.13376275449E+01 -0.15427055966E+02  0.60015813125E+02  0.10000000000E+01 0.  0.
<mgrwt>
<rscale>  0 0.12499924E+03</rscale>
<asrwt>0</asrwt>
<pdfrwt beam="1">  1        4 0.49976778E-02 0.12499924E+03</pdfrwt>
<pdfrwt beam="2">  1       -4 0.18499493E-01 0.12499924E+03</pdfrwt>
<totfact> 0.98763633E+03</totfact>
</mgrwt>
</event>
<event>
 5    1  0.3289127E-002  0.1249993E+03  0.7818608E-02  0.1235070E+00
         -4   -1    0    0    0  501 -0.00000000000E+00  0.00000000000E+00  0.19043952933E+03  0.19044376396E+03  0.12700000000E+01 0.  1.
          4   -1    0    0  501    0  0.00000000000E+00 -0.00000000000E+00 -0.20487416675E+02  0.20526742118E+02  0.12700000000E+01 0.  1.
         25    2    1    2    0    0  0.00000000000E+00  0.00000000000E+00  0.16995211265E+03  0.21097050608E+03  0.12499933535E+03 0.  0.
    9000005    1    3    3    0    0  0.54291000821E+02 -0.12541852085E+02  0.37226763998E+02  0.67019719349E+02  0.10000000000E+01 0.  0.
    9000005    1    3    3    0    0 -0.54291000821E+02  0.12541852085E+02  0.13272534865E+03  0.14395078673E+03  0.10000000000E+01 0.  0.
<mgrwt>
<rscale>  0 0.12499934E+03</rscale>
<asrwt>0</asrwt>
<pdfrwt beam="2">  1        4 0.31552611E-02 0.12499934E+03</pdfrwt>
<pdfrwt beam="1">  1       -4 0.29301740E-01 0.12499934E+03</pdfrwt>
<totfact> 0.88318941E+03</totfact>
</mgrwt>
</event>
<event>
 5    1  0.3289127E-002  0.1250013E+03  0.7818608E-02  0.1235067E+00
         -4   -1    0    0    0  501 -0.00000000000E+00  0.00000000000E+00  0.93269072031E+01  0.94129749800E+01  0.12700000000E+01 0. -1.
          4   -1    0    0  501    0  0.00000000000E+00 -0.00000000000E+00 -0.41681355234E+03  0.41681548713E+03  0.12700000000E+01 0. -1.
         25    2    1    2    0    0  0.00000000000E+00  0.00000000000E+00 -0.40748664514E+03  0.42622846211E+03  0.12500134380E+03 0.  0.
    9000005    1    3    3    0    0  0.46224230203E+02  0.18665884139E+02 -0.33224492048E+03  0.33596544744E+03  0.10000000000E+01 0.  0.
    9000005    1    3    3    0    0 -0.46224230203E+02 -0.18665884139E+02 -0.75241724654E+02  0.90263014671E+02  0.10000000000E+01 0.  0.
<mgrwt>
<rscale>  0 0.12500134E+03</rscale>
<asrwt>0</asrwt>
<pdfrwt beam="2">  1        4 0.64131917E-01 0.12500134E+03</pdfrwt>
<pdfrwt beam="1">  1       -4 0.14416786E-02 0.12500134E+03</pdfrwt>
<totfact> 0.62077519E+03</totfact>
</mgrwt>
</event>
<event>
 5    1  0.3289127E-002  0.1250132E+03  0.7818608E-02  0.1235049E+00
          4   -1    0    0  501    0  0.00000000000E+00  0.00000000000E+00  0.12881094511E+04  0.12881100771E+04  0.12700000000E+01 0. -1.
         -4   -1    0    0    0  501 -0.00000000000E+00 -0.00000000000E+00 -0.28995927095E+01  0.31655233186E+01  0.12700000000E+01 0. -1.
         25    2    1    2    0    0  0.00000000000E+00  0.00000000000E+00  0.12852098583E+04  0.12912756004E+04  0.12501318458E+03 0.  0.
    9000005    1    3    3    0    0  0.33034241361E+02  0.29515022849E+00  0.94604147247E+02  0.10021124135E+03  0.10000000000E+01 0.  0.
    9000005    1    3    3    0    0 -0.33034241361E+02 -0.29515022849E+00  0.11906057111E+04  0.11910643591E+04  0.10000000000E+01 0.  0.
<mgrwt>
<rscale>  0 0.12501318E+03</rscale>
<asrwt>0</asrwt>
<pdfrwt beam="1">  1        4 0.19819120E+00 0.12501318E+03</pdfrwt>
<pdfrwt beam="2">  1       -4 0.46659552E-03 0.12501318E+03</pdfrwt>
<totfact> 0.22428910E+03</totfact>
</mgrwt>
</event>
<event>
 5    1  0.3289127E-002  0.1250013E+03  0.7818608E-02  0.1235067E+00
         -4   -1    0    0    0  501 -0.00000000000E+00  0.00000000000E+00  0.17327212017E+03  0.17327677435E+03  0.12700000000E+01 0. -1.
          4   -1    0    0  501    0  0.00000000000E+00 -0.00000000000E+00 -0.22521637793E+02  0.22557417159E+02  0.12700000000E+01 0. -1.
         25    2    1    2    0    0  0.00000000000E+00  0.00000000000E+00  0.15075048238E+03  0.19583419151E+03  0.12500129050E+03 0.  0.
    9000005    1    3    3    0    0  0.40884742911E+02 -0.59391296265E+01  0.19176330870E+01  0.41370433649E+02  0.10000000000E+01 0.  0.
    9000005    1    3    3    0    0 -0.40884742911E+02  0.59391296265E+01  0.14883284929E+03  0.15446375786E+03  0.10000000000E+01 0.  0.
<mgrwt>
<rscale>  0 0.12500129E+03</rscale>
<asrwt>0</asrwt>
<pdfrwt beam="2">  1        4 0.34679776E-02 0.12500129E+03</pdfrwt>
<pdfrwt beam="1">  1       -4 0.26660360E-01 0.12500129E+03</pdfrwt>
<totfact> 0.90839352E+03</totfact>
</mgrwt>
</event>
<event>
 5    1  0.3289127E-002  0.1249946E+03  0.7818608E-02  0.1235078E+00
          4   -1    0    0  501    0  0.00000000000E+00  0.00000000000E+00  0.76663221147E+01  0.77708039974E+01  0.12700000000E+01 0. -1.
         -4   -1    0    0    0  501 -0.00000000000E+00 -0.00000000000E+00 -0.50593629056E+03  0.50593788454E+03  0.12700000000E+01 0. -1.
         25    2    1    2    0    0  0.00000000000E+00  0.00000000000E+00 -0.49826996845E+03  0.51370868854E+03  0.12499462075E+03 0.  0.
    9000005    1    3    3    0    0  0.12004819362E+02 -0.56422708395E+02 -0.34788049813E+03  0.35263221449E+03  0.10000000000E+01 0.  0.
    9000005    1    3    3    0    0 -0.12004819362E+02  0.56422708395E+02 -0.15038947032E+03  0.16107647405E+03  0.10000000000E+01 0.  0.
<mgrwt>
<rscale>  0 0.12499462E+03</rscale>
<asrwt>0</asrwt>
<pdfrwt beam="1">  1        4 0.11875942E-02 0.12499462E+03</pdfrwt>
<pdfrwt beam="2">  1       -4 0.77844486E-01 0.12499462E+03</pdfrwt>
<totfact> 0.54822703E+03</totfact>
</mgrwt>
</event>
<event>
 5    1  0.3289127E-002  0.1249825E+03  0.7818608E-02  0.1235097E+00
          4   -1    0    0  501    0  0.00000000000E+00  0.00000000000E+00  0.55485656120E+02  0.55500188604E+02  0.12700000000E+01 0. -1.
         -4   -1    0    0    0  501 -0.00000000000E+00 -0.00000000000E+00 -0.70351924873E+02  0.70363387023E+02  0.12700000000E+01 0. -1.
         25    2    1    2    0    0  0.00000000000E+00  0.00000000000E+00 -0.14866268753E+02  0.12586357563E+03  0.12498253367E+03 0.  0.
    9000005    1    3    3    0    0  0.13306810030E+02  0.58411991044E+02 -0.25310076383E+02  0.65043307553E+02  0.10000000000E+01 0.  0.
    9000005    1    3    3    0    0 -0.13306810030E+02 -0.58411991044E+02  0.10443807629E+02  0.60820268075E+02  0.10000000000E+01 0.  0.
<mgrwt>
<rscale>  0 0.12498253E+03</rscale>
<asrwt>0</asrwt>
<pdfrwt beam="1">  1        4 0.85382543E-02 0.12498253E+03</pdfrwt>
<pdfrwt beam="2">  1       -4 0.10825373E-01 0.12498253E+03</pdfrwt>
<totfact> 0.10438062E+04</totfact>
</mgrwt>
</event>
<event>
 5    1  0.3289127E-002  0.1250107E+03  0.7818608E-02  0.1235053E+00
          4   -1    0    0  501    0  0.00000000000E+00  0.00000000000E+00  0.36293851602E+02  0.36316064821E+02  0.12700000000E+01 0.  1.
         -4   -1    0    0    0  501 -0.00000000000E+00 -0.00000000000E+00 -0.10758790820E+03  0.10759540367E+03  0.12700000000E+01 0.  1.
         25    2    1    2    0    0  0.00000000000E+00  0.00000000000E+00 -0.71294056595E+02  0.14391146849E+03  0.12501067257E+03 0.  0.
    9000005    1    3    3    0    0 -0.30807607182E+02 -0.43501385073E+02 -0.73205548940E+02  0.90562307608E+02  0.10000000000E+01 0.  0.
    9000005    1    3    3    0    0  0.30807607182E+02  0.43501385073E+02  0.19114923459E+01  0.53349160880E+02  0.10000000000E+01 0.  0.
<mgrwt>
<rscale>  0 0.12501067E+03</rscale>
<asrwt>0</asrwt>
<pdfrwt beam="1">  1        4 0.55859548E-02 0.12501067E+03</pdfrwt>
<pdfrwt beam="2">  1       -4 0.16554271E-01 0.12501067E+03</pdfrwt>
<totfact> 0.10050736E+04</totfact>
</mgrwt>
</event>
<event>
 5    1  0.3289127E-002  0.1250004E+03  0.7818608E-02  0.1235069E+00
         -4   -1    0    0    0  501 -0.00000000000E+00  0.00000000000E+00  0.95249963159E+02  0.95258429453E+02  0.12700000000E+01 0. -1.
          4   -1    0    0  501    0  0.00000000000E+00 -0.00000000000E+00 -0.40990673061E+02  0.41010342330E+02  0.12700000000E+01 0. -1.
         25    2    1    2    0    0  0.00000000000E+00  0.00000000000E+00  0.54259290098E+02  0.13626877178E+03  0.12500043040E+03 0.  0.
    9000005    1    3    3    0    0  0.20334349884E+02  0.63580644085E+01  0.91173925365E+02  0.93635438989E+02  0.10000000000E+01 0.  0.
    9000005    1    3    3    0    0 -0.20334349884E+02 -0.63580644085E+01 -0.36914635267E+02  0.42633332794E+02  0.10000000000E+01 0.  0.
<mgrwt>
<rscale>  0 0.12500043E+03</rscale>
<asrwt>0</asrwt>
<pdfrwt beam="2">  1        4 0.63084217E-02 0.12500043E+03</pdfrwt>
<pdfrwt beam="1">  1       -4 0.14656005E-01 0.12500043E+03</pdfrwt>
<totfact> 0.10211298E+04</totfact>
</mgrwt>
</event>
<event>
 5    1  0.3289127E-002  0.1250003E+03  0.7818608E-02  0.1235069E+00
          4   -1    0    0  501    0  0.00000000000E+00  0.00000000000E+00  0.11588172280E+02  0.11657557068E+02  0.12700000000E+01 0. -1.
         -4   -1    0    0    0  501 -0.00000000000E+00 -0.00000000000E+00 -0.33601403250E+03  0.33601643254E+03  0.12700000000E+01 0. -1.
         25    2    1    2    0    0  0.00000000000E+00  0.00000000000E+00 -0.32442586022E+03  0.34767398960E+03  0.12500025708E+03 0.  0.
    9000005    1    3    3    0    0 -0.43172841341E+02 -0.45098221295E+02 -0.16984137252E+03  0.18095534149E+03  0.10000000000E+01 0.  0.
    9000005    1    3    3    0    0  0.43172841341E+02  0.45098221295E+02 -0.15458448770E+03  0.16671864812E+03  0.10000000000E+01 0.  0.
<mgrwt>
<rscale>  0 0.12500026E+03</rscale>
<asrwt>0</asrwt>
<pdfrwt beam="1">  1        4 0.17883179E-02 0.12500026E+03</pdfrwt>
<pdfrwt beam="2">  1       -4 0.51699981E-01 0.12500026E+03</pdfrwt>
<totfact> 0.69980810E+03</totfact>
</mgrwt>
</event>
<event>
 5    1  0.3289127E-002  0.1249977E+03  0.7818608E-02  0.1235073E+00
          4   -1    0    0  501    0  0.00000000000E+00  0.00000000000E+00  0.43280002022E+03  0.43280188354E+03  0.12700000000E+01 0.  1.
         -4   -1    0    0    0  501 -0.00000000000E+00 -0.00000000000E+00 -0.89786223554E+01  0.90679964381E+01  0.12700000000E+01 0.  1.
         25    2    1    2    0    0  0.00000000000E+00  0.00000000000E+00  0.42382139786E+03  0.44186987998E+03  0.12499765418E+03 0.  0.
    9000005    1    3    3    0    0  0.95101285018E+00 -0.74676371874E+01 -0.73872255524E+01  0.10594391534E+02  0.10000000000E+01 0.  0.
    9000005    1    3    3    0    0 -0.95101285018E+00  0.74676371874E+01  0.43120862341E+03  0.43127548845E+03  0.10000000000E+01 0.  0.
<mgrwt>
<rscale>  0 0.12499765E+03</rscale>
<asrwt>0</asrwt>
<pdfrwt beam="1">  1        4 0.66591629E-01 0.12499765E+03</pdfrwt>
<pdfrwt beam="2">  1       -4 0.13883449E-02 0.12499765E+03</pdfrwt>
<totfact> 0.60677739E+03</totfact>
</mgrwt>
</event>
<event>
 4    1  0.3289127E-002  0.1249193E+03  0.7818608E-02  0.1235195E+00
         -4   -1    0    0    0  501 -0.00000000000E+00  0.00000000000E+00  0.15036752501E+03  0.15037288810E+03  0.12700000000E+01 0. -1.
          4   -1    0    0  501    0  0.00000000000E+00 -0.00000000000E+00 -0.25923132058E+02  0.25954222694E+02  0.12700000000E+01 0. -1.
    9000005    1    1    2    0    0  0.69684167467E+01  0.62061678468E+02  0.62222868408E+02  0.88164029622E+02  0.10000000000E+01 0.  0.
    9000005    1    1    2    0    0 -0.69684167467E+01 -0.62061678468E+02  0.62221524540E+02  0.88163081175E+02  0.10000000000E+01 0.  0.
<mgrwt>
<rscale>  0 0.12491935E+03</rscale>
<asrwt>0</asrwt>
<pdfrwt beam="2">  1        4 0.39909782E-02 0.12491935E+03</pdfrwt>
<pdfrwt beam="1">  1       -4 0.23136270E-01 0.12491935E+03</pdfrwt>
<totfact> 0.94453111E+03</totfact>
</mgrwt>
</event>
<event>
 5    1  0.3289127E-002  0.1250009E+03  0.7818608E-02  0.1235068E+00
         -4   -1    0    0    0  501 -0.00000000000E+00  0.00000000000E+00  0.64665654663E+02  0.64678124532E+02  0.12700000000E+01 0.  1.
          4   -1    0    0  501    0  0.00000000000E+00 -0.00000000000E+00 -0.60382764326E+02  0.60396118482E+02  0.12700000000E+01 0.  1.
         25    2    1    2    0    0  0.00000000000E+00  0.00000000000E+00  0.42828903367E+01  0.12507424301E+03  0.12500089246E+03 0.  0.
    9000005    1    3    3    0    0 -0.52106389291E+02 -0.11618519729E+02  0.34644964467E+02  0.63650132510E+02  0.10000000000E+01 0.  0.
    9000005    1    3    3    0    0  0.52106389291E+02  0.11618519729E+02 -0.30362074131E+02  0.61424110503E+02  0.10000000000E+01 0.  0.
<mgrwt>
<rscale>  0 0.12500089E+03</rscale>
<asrwt>0</asrwt>
<pdfrwt beam="2">  1        4 0.92916426E-02 0.12500089E+03</pdfrwt>
<pdfrwt beam="1">  1       -4 0.99505487E-02 0.12500089E+03</pdfrwt>
<totfact> 0.10451039E+04</totfact>
</mgrwt>
</event>
<event>
 5    1  0.3289127E-002  0.1249998E+03  0.7818608E-02  0.1235070E+00
          4   -1    0    0  501    0  0.00000000000E+00  0.00000000000E+00  0.84869794639E+01  0.85814754221E+01  0.12700000000E+01 0. -1.
         -4   -1    0    0    0  501 -0.00000000000E+00 -0.00000000000E+00 -0.45761913638E+03  0.45762089865E+03  0.12700000000E+01 0. -1.
         25    2    1    2    0    0  0.00000000000E+00  0.00000000000E+00 -0.44913215691E+03  0.46620237407E+03  0.12499983686E+03 0.  0.
    9000005    1    3    3    0    0  0.49159582955E+02 -0.29662185734E+02 -0.13254710847E+03  0.14445153452E+03  0.10000000000E+01 0.  0.
    9000005    1    3    3    0    0 -0.49159582955E+02  0.29662185734E+02 -0.31658504844E+03  0.32175083956E+03  0.10000000000E+01 0.  0.
<mgrwt>
<rscale>  0 0.12499984E+03</rscale>
<asrwt>0</asrwt>
<pdfrwt beam="1">  1        4 0.13130940E-02 0.12499984E+03</pdfrwt>
<pdfrwt beam="2">  1       -4 0.70410329E-01 0.12499984E+03</pdfrwt>
<totfact> 0.58585658E+03</totfact>
</mgrwt>
</event>
<event>
 5    1  0.3289127E-002  0.1249900E+03  0.7818608E-02  0.1235085E+00
         -4   -1    0    0    0  501 -0.00000000000E+00  0.00000000000E+00  0.29600055206E+03  0.29600327654E+03  0.12700000000E+01 0.  1.
          4   -1    0    0  501    0  0.00000000000E+00 -0.00000000000E+00 -0.13161295045E+02  0.13222427434E+02  0.12700000000E+01 0.  1.
         25    2    1    2    0    0  0.00000000000E+00  0.00000000000E+00  0.28283925702E+03  0.30922570397E+03  0.12498996234E+03 0.  0.
    9000005    1    3    3    0    0 -0.10411344185E+02  0.59933271241E+02  0.10606390131E+03  0.12227405387E+03  0.10000000000E+01 0.  0.
    9000005    1    3    3    0    0  0.10411344185E+02 -0.59933271241E+02  0.17677535571E+03  0.18695165011E+03  0.10000000000E+01 0.  0.
<mgrwt>
<rscale>  0 0.12498996E+03</rscale>
<asrwt>0</asrwt>
<pdfrwt beam="2">  1        4 0.20297268E-02 0.12498996E+03</pdfrwt>
<pdfrwt beam="1">  1       -4 0.45543455E-01 0.12498996E+03</pdfrwt>
<totfact> 0.74472551E+03</totfact>
</mgrwt>
</event>
<event>
 5    1  0.3289127E-002  0.1249938E+03  0.7818608E-02  0.1235079E+00
          4   -1    0    0  501    0  0.00000000000E+00  0.00000000000E+00  0.49998689486E+03  0.49998850780E+03  0.12700000000E+01 0.  1.
         -4   -1    0    0    0  501 -0.00000000000E+00 -0.00000000000E+00 -0.77586758750E+01  0.78619305093E+01  0.12700000000E+01 0.  1.
         25    2    1    2    0    0  0.00000000000E+00  0.00000000000E+00  0.49222821899E+03  0.50785043831E+03  0.12499379235E+03 0.  0.
    9000005    1    3    3    0    0  0.25452201972E+02 -0.56584658729E+02  0.21592080144E+03  0.22466070125E+03  0.10000000000E+01 0.  0.
    9000005    1    3    3    0    0 -0.25452201972E+02  0.56584658729E+02  0.27630741754E+03  0.28318973706E+03  0.10000000000E+01 0.  0.
<mgrwt>
<rscale>  0 0.12499379E+03</rscale>
<asrwt>0</asrwt>
<pdfrwt beam="1">  1        4 0.76929133E-01 0.12499379E+03</pdfrwt>
<pdfrwt beam="2">  1       -4 0.12017091E-02 0.12499379E+03</pdfrwt>
<totfact> 0.55267910E+03</totfact>
</mgrwt>
</event>
<event>
 5    1  0.3289127E-002  0.1250014E+03  0.7818608E-02  0.1235067E+00
         -4   -1    0    0    0  501 -0.00000000000E+00  0.00000000000E+00  0.87697342487E+02  0.87706537837E+02  0.12700000000E+01 0.  1.
          4   -1    0    0  501    0  0.00000000000E+00 -0.00000000000E+00 -0.44522800520E+02  0.44540910029E+02  0.12700000000E+01 0.  1.
         25    2    1    2    0    0  0.00000000000E+00  0.00000000000E+00  0.43174541967E+02  0.13224744787E+03  0.12500138556E+03 0.  0.
    9000005    1    3    3    0    0  0.34590953172E+02  0.21980625613E+02 -0.28324314011E+02  0.49829195337E+02  0.10000000000E+01 0.  0.
    9000005    1    3    3    0    0 -0.34590953172E+02 -0.21980625613E+02  0.71498855978E+02  0.82418252529E+02  0.10000000000E+01 0.  0.
<mgrwt>
<rscale>  0 0.12500139E+03</rscale>
<asrwt>0</asrwt>
<pdfrwt beam="2">  1        4 0.68517620E-02 0.12500139E+03</pdfrwt>
<pdfrwt beam="1">  1       -4 0.13493999E-01 0.12500139E+03</pdfrwt>
<totfact> 0.10296098E+04</totfact>
</mgrwt>
</event>
<event>
 5    1  0.3289127E-002  0.1250009E+03  0.7818608E-02  0.1235068E+00
         -4   -1    0    0    0  501 -0.00000000000E+00  0.00000000000E+00  0.96743380492E+02  0.96751716104E+02  0.12700000000E+01 0. -1.
          4   -1    0    0  501    0  0.00000000000E+00 -0.00000000000E+00 -0.40357963546E+02  0.40377941027E+02  0.12700000000E+01 0. -1.
         25    2    1    2    0    0  0.00000000000E+00  0.00000000000E+00  0.56385416946E+02  0.13712965713E+03  0.12500091048E+03 0.  0.
    9000005    1    3    3    0    0 -0.10920841723E+02  0.72746430118E+01  0.95220403864E+02  0.96125493637E+02  0.10000000000E+01 0.  0.
    9000005    1    3    3    0    0  0.10920841723E+02 -0.72746430118E+01 -0.38834986918E+02  0.41004163494E+02  0.10000000000E+01 0.  0.
<mgrwt>
<rscale>  0 0.12500091E+03</rscale>
<asrwt>0</asrwt>
<pdfrwt beam="2">  1        4 0.62110954E-02 0.12500091E+03</pdfrwt>
<pdfrwt beam="1">  1       -4 0.14885775E-01 0.12500091E+03</pdfrwt>
<totfact> 0.10193166E+04</totfact>
</mgrwt>
</event>
<event>
 5    1  0.3289127E-002  0.1250009E+03  0.7818608E-02  0.1235068E+00
          4   -1    0    0  501    0  0.00000000000E+00  0.00000000000E+00  0.28490382271E+02  0.28518674267E+02  0.12700000000E+01 0.  1.
         -4   -1    0    0    0  501 -0.00000000000E+00 -0.00000000000E+00 -0.13701031786E+03  0.13701620379E+03  0.12700000000E+01 0.  1.
         25    2    1    2    0    0  0.00000000000E+00  0.00000000000E+00 -0.10851993559E+03  0.16553487806E+03  0.12500087773E+03 0.  0.
    9000005    1    3    3    0    0  0.41647615135E+02  0.46560981982E+02 -0.52022003413E+02  0.81300293533E+02  0.10000000000E+01 0.  0.
    9000005    1    3    3    0    0 -0.41647615135E+02 -0.46560981982E+02 -0.56497932179E+02  0.84234584525E+02  0.10000000000E+01 0.  0.
<mgrwt>
<rscale>  0 0.12500088E+03</rscale>
<asrwt>0</asrwt>
<pdfrwt beam="1">  1        4 0.43857649E-02 0.12500088E+03</pdfrwt>
<pdfrwt beam="2">  1       -4 0.21081139E-01 0.12500088E+03</pdfrwt>
<totfact> 0.96284293E+03</totfact>
</mgrwt>
</event>
<event>
 5    1  0.3289127E-002  0.1249972E+03  0.7818608E-02  0.1235074E+00
          4   -1    0    0  501    0  0.00000000000E+00  0.00000000000E+00  0.25178057475E+02  0.25210067001E+02  0.12700000000E+01 0. -1.
         -4   -1    0    0    0  501 -0.00000000000E+00 -0.00000000000E+00 -0.15500498295E+03  0.15501018560E+03  0.12700000000E+01 0. -1.
         25    2    1    2    0    0  0.00000000000E+00  0.00000000000E+00 -0.12982692548E+03  0.18022025260E+03  0.12499723544E+03 0.  0.
    9000005    1    3    3    0    0 -0.49818208637E+01 -0.47658019394E+02 -0.70802376880E+01  0.48448272595E+02  0.10000000000E+01 0.  0.
    9000005    1    3    3    0    0  0.49818208637E+01  0.47658019394E+02 -0.12274668779E+03  0.13177198001E+03  0.10000000000E+01 0.  0.
<mgrwt>
<rscale>  0 0.12499724E+03</rscale>
<asrwt>0</asrwt>
<pdfrwt beam="1">  1        4 0.38764098E-02 0.12499724E+03</pdfrwt>
<pdfrwt beam="2">  1       -4 0.23849783E-01 0.12499724E+03</pdfrwt>
<totfact> 0.93583173E+03</totfact>
</mgrwt>
</event>
<event>
 5    1  0.3289127E-002  0.1249993E+03  0.7818608E-02  0.1235070E+00
         -4   -1    0    0    0  501 -0.00000000000E+00  0.00000000000E+00  0.39790436867E+02  0.39810699140E+02  0.12700000000E+01 0.  1.
          4   -1    0    0  501    0  0.00000000000E+00 -0.00000000000E+00 -0.98120181955E+02  0.98128400613E+02  0.12700000000E+01 0.  1.
         25    2    1    2    0    0  0.00000000000E+00  0.00000000000E+00 -0.58329745088E+02  0.13793909975E+03  0.12499934431E+03 0.  0.
    9000005    1    3    3    0    0 -0.34034463784E+02  0.52025146523E+02 -0.22163969046E+02  0.66009106339E+02  0.10000000000E+01 0.  0.
    9000005    1    3    3    0    0  0.34034463784E+02 -0.52025146523E+02 -0.36165776042E+02  0.71929993414E+02  0.10000000000E+01 0.  0.
<mgrwt>
<rscale>  0 0.12499934E+03</rscale>
<asrwt>0</asrwt>
<pdfrwt beam="2">  1        4 0.15097603E-01 0.12499934E+03</pdfrwt>
<pdfrwt beam="1">  1       -4 0.61237965E-02 0.12499934E+03</pdfrwt>
<totfact> 0.10176629E+04</totfact>
</mgrwt>
</event>
<event>
 5    1  0.3289127E-002  0.1249959E+03  0.7818608E-02  0.1235076E+00
         -4   -1    0    0    0  501 -0.00000000000E+00  0.00000000000E+00  0.13470641595E+03  0.13471240254E+03  0.12700000000E+01 0.  1.
          4   -1    0    0  501    0  0.00000000000E+00 -0.00000000000E+00 -0.28975812148E+02  0.29003630629E+02  0.12700000000E+01 0.  1.
         25    2    1    2    0    0  0.00000000000E+00  0.00000000000E+00  0.10573060380E+03  0.16371603317E+03  0.12499591568E+03 0.  0.
    9000005    1    3    3    0    0  0.59282171542E+02  0.18305414651E+02  0.62625571889E+02  0.88161365250E+02  0.10000000000E+01 0.  0.
    9000005    1    3    3    0    0 -0.59282171542E+02 -0.18305414651E+02  0.43105031914E+02  0.75554667921E+02  0.10000000000E+01 0.  0.
<mgrwt>
<rscale>  0 0.12499592E+03</rscale>
<asrwt>0</asrwt>
<pdfrwt beam="2">  1        4 0.44604177E-02 0.12499592E+03</pdfrwt>
<pdfrwt beam="1">  1       -4 0.20726664E-01 0.12499592E+03</pdfrwt>
<totfact> 0.96639977E+03</totfact>
</mgrwt>
</event>
<event>
 5    1  0.3289127E-002  0.1249980E+03  0.7818608E-02  0.1235072E+00
          4   -1    0    0  501    0  0.00000000000E+00  0.00000000000E+00  0.15495776150E+03  0.15496296574E+03  0.12700000000E+01 0.  1.
         -4   -1    0    0    0  501 -0.00000000000E+00 -0.00000000000E+00 -0.25186057941E+02  0.25218057312E+02  0.12700000000E+01 0.  1.
         25    2    1    2    0    0  0.00000000000E+00  0.00000000000E+00  0.12977170356E+03  0.18018102305E+03  0.12499802407E+03 0.  0.
    9000005    1    3    3    0    0 -0.46507486743E+01 -0.46863116945E+02  0.56741033578E+01  0.47444458495E+02  0.10000000000E+01 0.  0.
    9000005    1    3    3    0    0  0.46507486743E+01  0.46863116945E+02  0.12409760021E+03  0.13273656455E+03  0.10000000000E+01 0.  0.
<mgrwt>
<rscale>  0 0.12499802E+03</rscale>
<asrwt>0</asrwt>
<pdfrwt beam="1">  1        4 0.23842518E-01 0.12499802E+03</pdfrwt>
<pdfrwt beam="2">  1       -4 0.38776399E-02 0.12499802E+03</pdfrwt>
<totfact> 0.93588574E+03</totfact>
</mgrwt>
</event>
<event>
 5    1  0.3289127E-002  0.1250002E+03  0.7818608E-02  0.1235069E+00
         -4   -1    0    0    0  501 -0.00000000000E+00  0.00000000000E+00  0.10206025187E+03  0.10206815327E+03  0.12700000000E+01 0.  1.
          4   -1    0    0  501    0  0.00000000000E+00 -0.00000000000E+00 -0.38254159821E+02  0.38275235383E+02  0.12700000000E+01 0.  1.
         25    2    1    2    0    0  0.00000000000E+00  0.00000000000E+00  0.63806092045E+02  0.14034338865E+03  0.12500019742E+03 0.  0.
    9000005    1    3    3    0    0 -0.35076306045E+02  0.37338497272E+02  0.72083397608E+02  0.88439396396E+02  0.10000000000E+01 0.  0.
    9000005    1    3    3    0    0  0.35076306045E+02 -0.37338497272E+02 -0.82773055624E+01  0.51903992252E+02  0.10000000000E+01 0.  0.
<mgrwt>
<rscale>  0 0.12500020E+03</rscale>
<asrwt>0</asrwt>
<pdfrwt beam="2">  1        4 0.58874844E-02 0.12500020E+03</pdfrwt>
<pdfrwt beam="1">  1       -4 0.15703806E-01 0.12500020E+03</pdfrwt>
<totfact> 0.10126429E+04</totfact>
</mgrwt>
</event>
<event>
 5    1  0.3289127E-002  0.1250043E+03  0.7818608E-02  0.1235063E+00
         -4   -1    0    0    0  501 -0.00000000000E+00  0.00000000000E+00  0.51163608651E+01  0.52716267415E+01  0.12700000000E+01 0.  1.
          4   -1    0    0  501    0  0.00000000000E+00 -0.00000000000E+00 -0.75196674077E+03  0.75196781323E+03  0.12700000000E+01 0.  1.
         25    2    1    2    0    0  0.00000000000E+00  0.00000000000E+00 -0.74685037991E+03  0.75723943997E+03  0.12500431782E+03 0.  0.
    9000005    1    3    3    0    0  0.31204921746E+02 -0.49462030650E+02 -0.50687087031E+03  0.51023457232E+03  0.10000000000E+01 0.  0.
    9000005    1    3    3    0    0 -0.31204921746E+02  0.49462030650E+02 -0.23997950959E+03  0.24700486765E+03  0.10000000000E+01 0.  0.
<mgrwt>
<rscale>  0 0.12500432E+03</rscale>
<asrwt>0</asrwt>
<pdfrwt beam="2">  1        4 0.11569913E+00 0.12500432E+03</pdfrwt>
<pdfrwt beam="1">  1       -4 0.79915906E-03 0.12500432E+03</pdfrwt>
<totfact> 0.40226475E+03</totfact>
</mgrwt>
</event>
<event>
 5    1  0.3289127E-002  0.1250001E+03  0.7818608E-02  0.1235069E+00
         -4   -1    0    0    0  501 -0.00000000000E+00  0.00000000000E+00  0.15236851717E+03  0.15237380984E+03  0.12700000000E+01 0.  1.
          4   -1    0    0  501    0  0.00000000000E+00 -0.00000000000E+00 -0.25615434938E+02  0.25646898586E+02  0.12700000000E+01 0.  1.
         25    2    1    2    0    0  0.00000000000E+00  0.00000000000E+00  0.12675308223E+03  0.17802070842E+03  0.12500011509E+03 0.  0.
    9000005    1    3    3    0    0 -0.12723671920E+02  0.60965415548E+02  0.70719413350E+02  0.94238575672E+02  0.10000000000E+01 0.  0.
    9000005    1    3    3    0    0  0.12723671920E+02 -0.60965415548E+02  0.56033668880E+02  0.83782132751E+02  0.10000000000E+01 0.  0.
<mgrwt>
<rscale>  0 0.12500012E+03</rscale>
<asrwt>0</asrwt>
<pdfrwt beam="2">  1        4 0.39436635E-02 0.12500012E+03</pdfrwt>
<pdfrwt beam="1">  1       -4 0.23444138E-01 0.12500012E+03</pdfrwt>
<totfact> 0.93974257E+03</totfact>
</mgrwt>
</event>
<event>
 5    1  0.3289127E-002  0.1249844E+03  0.7818608E-02  0.1235094E+00
         -4   -1    0    0    0  501 -0.00000000000E+00  0.00000000000E+00  0.42044681461E+03  0.42044873268E+03  0.12700000000E+01 0.  1.
          4   -1    0    0  501    0  0.00000000000E+00 -0.00000000000E+00 -0.92430289543E+01  0.93298705377E+01  0.12700000000E+01 0.  1.
         25    2    1    2    0    0  0.00000000000E+00  0.00000000000E+00  0.41120378566E+03  0.42977860322E+03  0.12498437682E+03 0.  0.
    9000005    1    3    3    0    0 -0.50525150546E+02 -0.36746869655E+02  0.20928999684E+03  0.21841800760E+03  0.10000000000E+01 0.  0.
    9000005    1    3    3    0    0  0.50525150546E+02  0.36746869655E+02  0.20191378881E+03  0.21136059562E+03  0.10000000000E+01 0.  0.
<mgrwt>
<rscale>  0 0.12498438E+03</rscale>
<asrwt>0</asrwt>
<pdfrwt beam="2">  1        4 0.14288319E-02 0.12498438E+03</pdfrwt>
<pdfrwt beam="1">  1       -4 0.64690961E-01 0.12498438E+03</pdfrwt>
<totfact> 0.61777336E+03</totfact>
</mgrwt>
</event>
<event>
 5    1  0.3289127E-002  0.1250016E+03  0.7818608E-02  0.1235067E+00
         -4   -1    0    0    0  501 -0.00000000000E+00  0.00000000000E+00  0.15136865619E+04  0.15136870947E+04  0.12700000000E+01 0.  1.
          4   -1    0    0  501    0  0.00000000000E+00 -0.00000000000E+00 -0.24238719584E+01  0.27364311193E+01  0.12700000000E+01 0.  1.
         25    2    1    2    0    0  0.00000000000E+00  0.00000000000E+00  0.15112626899E+04  0.15164235258E+04  0.12500156624E+03 0.  0.
    9000005    1    3    3    0    0 -0.22296618772E+02 -0.22556076004E+02  0.10240824929E+03  0.10721177779E+03  0.10000000000E+01 0.  0.
    9000005    1    3    3    0    0  0.22296618772E+02  0.22556076004E+02  0.14088544406E+04  0.14092117480E+04  0.10000000000E+01 0.  0.
<mgrwt>
<rscale>  0 0.12500157E+03</rscale>
<asrwt>0</asrwt>
<pdfrwt beam="2">  1        4 0.39698796E-03 0.12500157E+03</pdfrwt>
<pdfrwt beam="1">  1       -4 0.23289860E+00 0.12500157E+03</pdfrwt>
<totfact> 0.17609246E+03</totfact>
</mgrwt>
</event>
<event>
 5    1  0.3289127E-002  0.1250009E+03  0.7818608E-02  0.1235068E+00
          4   -1    0    0  501    0  0.00000000000E+00  0.00000000000E+00  0.52719392840E+02  0.52734687648E+02  0.12700000000E+01 0. -1.
         -4   -1    0    0    0  501 -0.00000000000E+00 -0.00000000000E+00 -0.74064661331E+02  0.74075548989E+02  0.12700000000E+01 0. -1.
         25    2    1    2    0    0  0.00000000000E+00  0.00000000000E+00 -0.21345268492E+02  0.12681023664E+03  0.12500086251E+03 0.  0.
    9000005    1    3    3    0    0 -0.15261148267E+02 -0.19257216467E+02  0.47618292216E+02  0.53593327813E+02  0.10000000000E+01 0.  0.
    9000005    1    3    3    0    0  0.15261148267E+02  0.19257216467E+02 -0.68963560707E+02  0.73216908825E+02  0.10000000000E+01 0.  0.
<mgrwt>
<rscale>  0 0.12500086E+03</rscale>
<asrwt>0</asrwt>
<pdfrwt beam="1">  1        4 0.81126899E-02 0.12500086E+03</pdfrwt>
<pdfrwt beam="2">  1       -4 0.11396577E-01 0.12500086E+03</pdfrwt>
<totfact> 0.10413068E+04</totfact>
</mgrwt>
</event>
<event>
 5    1  0.3289127E-002  0.1249986E+03  0.7818608E-02  0.1235072E+00
          4   -1    0    0  501    0  0.00000000000E+00  0.00000000000E+00  0.14483607475E+02  0.14539181046E+02  0.12700000000E+01 0. -1.
         -4   -1    0    0    0  501 -0.00000000000E+00 -0.00000000000E+00 -0.26912172415E+03  0.26912472073E+03  0.12700000000E+01 0. -1.
         25    2    1    2    0    0  0.00000000000E+00  0.00000000000E+00 -0.25463811667E+03  0.28366390177E+03  0.12499855482E+03 0.  0.
    9000005    1    3    3    0    0 -0.88591364865E+01  0.37105747915E+02 -0.23964183712E+03  0.24266135029E+03  0.10000000000E+01 0.  0.
    9000005    1    3    3    0    0  0.88591364865E+01 -0.37105747915E+02 -0.14996279551E+02  0.41002551481E+02  0.10000000000E+01 0.  0.
<mgrwt>
<rscale>  0 0.12499855E+03</rscale>
<asrwt>0</asrwt>
<pdfrwt beam="1">  1        4 0.22327529E-02 0.12499855E+03</pdfrwt>
<pdfrwt beam="2">  1       -4 0.41407844E-01 0.12499855E+03</pdfrwt>
<totfact> 0.77697290E+03</totfact>
</mgrwt>
</event>
<event>
 5    1  0.3289127E-002  0.1250019E+03  0.7818608E-02  0.1235066E+00
         -4   -1    0    0    0  501 -0.00000000000E+00  0.00000000000E+00  0.26898697159E+01  0.29746090649E+01  0.12700000000E+01 0. -1.
          4   -1    0    0  501    0  0.00000000000E+00 -0.00000000000E+00 -0.13789658402E+04  0.13789664250E+04  0.12700000000E+01 0. -1.
         25    2    1    2    0    0  0.00000000000E+00  0.00000000000E+00 -0.13762759704E+04  0.13819410340E+04  0.12500189903E+03 0.  0.
    9000005    1    3    3    0    0  0.31740707311E+02  0.16704186613E+02 -0.12538945064E+04  0.12544078027E+04  0.10000000000E+01 0.  0.
    9000005    1    3    3    0    0 -0.31740707311E+02 -0.16704186613E+02 -0.12238146409E+03  0.12753323137E+03  0.10000000000E+01 0.  0.
<mgrwt>
<rscale>  0 0.12500190E+03</rscale>
<asrwt>0</asrwt>
<pdfrwt beam="2">  1        4 0.21217000E+00 0.12500190E+03</pdfrwt>
<pdfrwt beam="1">  1       -4 0.43577522E-03 0.12500190E+03</pdfrwt>
<totfact> 0.20371033E+03</totfact>
</mgrwt>
</event>
<event>
 5    1  0.3289127E-002  0.1250031E+03  0.7818608E-02  0.1235064E+00
          4   -1    0    0  501    0  0.00000000000E+00  0.00000000000E+00  0.26934529118E+02  0.26964453616E+02  0.12700000000E+01 0. -1.
         -4   -1    0    0    0  501 -0.00000000000E+00 -0.00000000000E+00 -0.14492158104E+03  0.14492714566E+03  0.12700000000E+01 0. -1.
         25    2    1    2    0    0  0.00000000000E+00  0.00000000000E+00 -0.11798705192E+03  0.17189159928E+03  0.12500310989E+03 0.  0.
    9000005    1    3    3    0    0  0.31700132895E+02 -0.39976305477E+02 -0.93671164489E+01  0.51882042132E+02  0.10000000000E+01 0.  0.
    9000005    1    3    3    0    0 -0.31700132895E+02  0.39976305477E+02 -0.10861993547E+03  0.12000955715E+03  0.10000000000E+01 0.  0.
<mgrwt>
<rscale>  0 0.12500311E+03</rscale>
<asrwt>0</asrwt>
<pdfrwt beam="1">  1        4 0.41465037E-02 0.12500311E+03</pdfrwt>
<pdfrwt beam="2">  1       -4 0.22298357E-01 0.12500311E+03</pdfrwt>
<totfact> 0.95090603E+03</totfact>
</mgrwt>
</event>
<event>
 5    1  0.3289127E-002  0.1250024E+03  0.7818608E-02  0.1235066E+00
          4   -1    0    0  501    0  0.00000000000E+00  0.00000000000E+00  0.23960754515E+03  0.23961091084E+03  0.12700000000E+01 0. -1.
         -4   -1    0    0    0  501 -0.00000000000E+00 -0.00000000000E+00 -0.16275103930E+02  0.16324579870E+02  0.12700000000E+01 0. -1.
         25    2    1    2    0    0  0.00000000000E+00  0.00000000000E+00  0.22333244122E+03  0.25593549071E+03  0.12500238439E+03 0.  0.
    9000005    1    3    3    0    0  0.50021562250E+02  0.27918572167E+02  0.16280300235E+03  0.17259032689E+03  0.10000000000E+01 0.  0.
    9000005    1    3    3    0    0 -0.50021562250E+02 -0.27918572167E+02  0.60529438865E+02  0.83345163813E+02  0.10000000000E+01 0.  0.
<mgrwt>
<rscale>  0 0.12500238E+03</rscale>
<asrwt>0</asrwt>
<pdfrwt beam="1">  1        4 0.36866761E-01 0.12500238E+03</pdfrwt>
<pdfrwt beam="2">  1       -4 0.25079271E-02 0.12500238E+03</pdfrwt>
<totfact> 0.81475538E+03</totfact>
</mgrwt>
</event>
<event>
 5    1  0.3289127E-002  0.1249994E+03  0.7818608E-02  0.1235070E+00
          4   -1    0    0  501    0  0.00000000000E+00  0.00000000000E+00  0.41050716784E+02  0.41070357296E+02  0.12700000000E+01 0. -1.
         -4   -1    0    0    0  501 -0.00000000000E+00 -0.00000000000E+00 -0.95109173607E+02  0.95117652432E+02  0.12700000000E+01 0. -1.
         25    2    1    2    0    0  0.00000000000E+00  0.00000000000E+00 -0.54058456824E+02  0.13618800973E+03  0.12499942896E+03 0.  0.
    9000005    1    3    3    0    0 -0.47436335492E+02  0.99253312698E-01  0.17293822908E+02  0.50500416700E+02  0.10000000000E+01 0.  0.
    9000005    1    3    3    0    0  0.47436335492E+02 -0.99253312698E-01 -0.71352279732E+02  0.85687593029E+02  0.10000000000E+01 0.  0.
<mgrwt>
<rscale>  0 0.12499943E+03</rscale>
<asrwt>0</asrwt>
<pdfrwt beam="1">  1        4 0.63176579E-02 0.12499943E+03</pdfrwt>
<pdfrwt beam="2">  1       -4 0.14634344E-01 0.12499943E+03</pdfrwt>
<totfact> 0.10213222E+04</totfact>
</mgrwt>
</event>
<event>
 5    1  0.3289127E-002  0.1250003E+03  0.7818608E-02  0.1235069E+00
         -4   -1    0    0    0  501 -0.00000000000E+00  0.00000000000E+00  0.32009039504E+02  0.32034224041E+02  0.12700000000E+01 0. -1.
          4   -1    0    0  501    0  0.00000000000E+00 -0.00000000000E+00 -0.12196003339E+03  0.12196664562E+03  0.12700000000E+01 0. -1.
         25    2    1    2    0    0  0.00000000000E+00  0.00000000000E+00 -0.89950993888E+02  0.15400086967E+03  0.12500034623E+03 0.  0.
    9000005    1    3    3    0    0 -0.66660283070E+01 -0.60606721658E+02 -0.28098352575E+02  0.67142594983E+02  0.10000000000E+01 0.  0.
    9000005    1    3    3    0    0  0.66660283070E+01  0.60606721658E+02 -0.61852641313E+02  0.86858274684E+02  0.10000000000E+01 0.  0.
<mgrwt>
<rscale>  0 0.12500035E+03</rscale>
<asrwt>0</asrwt>
<pdfrwt beam="2">  1        4 0.18765528E-01 0.12500035E+03</pdfrwt>
<pdfrwt beam="1">  1       -4 0.49269136E-02 0.12500035E+03</pdfrwt>
<totfact> 0.98511231E+03</totfact>
</mgrwt>
</event>
<event>
 5    1  0.3289127E-002  0.1249976E+03  0.7818608E-02  0.1235073E+00
         -4   -1    0    0    0  501 -0.00000000000E+00  0.00000000000E+00  0.11954845689E+03  0.11955520250E+03  0.12700000000E+01 0. -1.
          4   -1    0    0  501    0  0.00000000000E+00 -0.00000000000E+00 -0.32653743480E+02  0.32678431163E+02  0.12700000000E+01 0. -1.
         25    2    1    2    0    0  0.00000000000E+00  0.00000000000E+00  0.86894713407E+02  0.15223363366E+03  0.12499755197E+03 0.  0.
    9000005    1    3    3    0    0 -0.42139767916E+02  0.12919097551E+02  0.97399241639E+02  0.10691246603E+03  0.10000000000E+01 0.  0.
    9000005    1    3    3    0    0  0.42139767916E+02 -0.12919097551E+02 -0.10504528232E+02  0.45321167626E+02  0.10000000000E+01 0.  0.
<mgrwt>
<rscale>  0 0.12499755E+03</rscale>
<asrwt>0</asrwt>
<pdfrwt beam="2">  1        4 0.50260708E-02 0.12499755E+03</pdfrwt>
<pdfrwt beam="1">  1       -4 0.18394488E-01 0.12499755E+03</pdfrwt>
<totfact> 0.98865752E+03</totfact>
</mgrwt>
</event>
<event>
 5    1  0.3289127E-002  0.1249988E+03  0.7818608E-02  0.1235071E+00
         -4   -1    0    0    0  501 -0.00000000000E+00  0.00000000000E+00  0.33856841280E+02  0.33880652318E+02  0.12700000000E+01 0.  1.
          4   -1    0    0  501    0  0.00000000000E+00 -0.00000000000E+00 -0.11530550427E+03  0.11531249809E+03  0.12700000000E+01 0.  1.
         25    2    1    2    0    0  0.00000000000E+00  0.00000000000E+00 -0.81448662993E+02  0.14919315041E+03  0.12499884570E+03 0.  0.
    9000005    1    3    3    0    0 -0.83053292452E+01 -0.58949059804E+02 -0.18040240096E+02  0.62212702950E+02  0.10000000000E+01 0.  0.
    9000005    1    3    3    0    0  0.83053292452E+01  0.58949059804E+02 -0.63408422897E+02  0.86980447458E+02  0.10000000000E+01 0.  0.
<mgrwt>
<rscale>  0 0.12499885E+03</rscale>
<asrwt>0</asrwt>
<pdfrwt beam="2">  1        4 0.17741678E-01 0.12499885E+03</pdfrwt>
<pdfrwt beam="1">  1       -4 0.52111145E-02 0.12499885E+03</pdfrwt>
<totfact> 0.99467359E+03</totfact>
</mgrwt>
</event>
<event>
 5    1  0.3289127E-002  0.1250008E+03  0.7818608E-02  0.1235068E+00
         -4   -1    0    0    0  501 -0.00000000000E+00  0.00000000000E+00  0.41715423198E+02  0.41734750899E+02  0.12700000000E+01 0.  1.
          4   -1    0    0  501    0  0.00000000000E+00 -0.00000000000E+00 -0.93596324723E+02  0.93604940583E+02  0.12700000000E+01 0.  1.
         25    2    1    2    0    0  0.00000000000E+00  0.00000000000E+00 -0.51880901525E+02  0.13533969148E+03  0.12500081659E+03 0.  0.
    9000005    1    3    3    0    0 -0.15517567024E+02  0.60320646774E+02 -0.20427580494E+02  0.65556550843E+02  0.10000000000E+01 0.  0.
    9000005    1    3    3    0    0  0.15517567024E+02 -0.60320646774E+02 -0.31453321030E+02  0.69783140639E+02  0.10000000000E+01 0.  0.
<mgrwt>
<rscale>  0 0.12500082E+03</rscale>
<asrwt>0</asrwt>
<pdfrwt beam="2">  1        4 0.14401584E-01 0.12500082E+03</pdfrwt>
<pdfrwt beam="1">  1       -4 0.64199069E-02 0.12500082E+03</pdfrwt>
<totfact> 0.10230728E+04</totfact>
</mgrwt>
</event>
<event>
 5    1  0.3289127E-002  0.1250025E+03  0.7818608E-02  0.1235065E+00
         -4   -1    0    0    0  501 -0.00000000000E+00  0.00000000000E+00  0.82940248910E+02  0.82949971605E+02  0.12700000000E+01 0. -1.
          4   -1    0    0  501    0  0.00000000000E+00 -0.00000000000E+00 -0.47077979329E+02  0.47095106303E+02  0.12700000000E+01 0. -1.
         25    2    1    2    0    0  0.00000000000E+00  0.00000000000E+00  0.35862269581E+02  0.13004507791E+03  0.12500247961E+03 0.  0.
    9000005    1    3    3    0    0 -0.32056088328E+01 -0.23596656798E+02  0.78040164574E+02  0.81598685203E+02  0.10000000000E+01 0.  0.
    9000005    1    3    3    0    0  0.32056088328E+01  0.23596656798E+02 -0.42177894994E+02  0.48446392705E+02  0.10000000000E+01 0.  0.
<mgrwt>
<rscale>  0 0.12500248E+03</rscale>
<asrwt>0</asrwt>
<pdfrwt beam="2">  1        4 0.72448315E-02 0.12500248E+03</pdfrwt>
<pdfrwt beam="1">  1       -4 0.12762103E-01 0.12500248E+03</pdfrwt>
<totfact> 0.10342964E+04</totfact>
</mgrwt>
</event>
<event>
 5    1  0.3289127E-002  0.1249951E+03  0.7818608E-02  0.1235077E+00
          4   -1    0    0  501    0  0.00000000000E+00  0.00000000000E+00  0.71933469025E+02  0.71944679205E+02  0.12700000000E+01 0.  1.
         -4   -1    0    0    0  501 -0.00000000000E+00 -0.00000000000E+00 -0.54276526400E+02  0.54291382539E+02  0.12700000000E+01 0.  1.
         25    2    1    2    0    0  0.00000000000E+00  0.00000000000E+00  0.17656942625E+02  0.12623606174E+03  0.12499510255E+03 0.  0.
    9000005    1    3    3    0    0  0.32107266247E+02  0.52937145447E+02  0.17381673739E+02  0.64314387939E+02  0.10000000000E+01 0.  0.
    9000005    1    3    3    0    0 -0.32107266247E+02 -0.52937145447E+02  0.27526888586E+00  0.61921673806E+02  0.10000000000E+01 0.  0.
<mgrwt>
<rscale>  0 0.12499510E+03</rscale>
<asrwt>0</asrwt>
<pdfrwt beam="1">  1        4 0.11068693E-01 0.12499510E+03</pdfrwt>
<pdfrwt beam="2">  1       -4 0.83522400E-02 0.12499510E+03</pdfrwt>
<totfact> 0.10426943E+04</totfact>
</mgrwt>
</event>
<event>
 5    1  0.3289127E-002  0.1249391E+03  0.7818608E-02  0.1235165E+00
          4   -1    0    0  501    0  0.00000000000E+00  0.00000000000E+00  0.19872984888E+03  0.19873390686E+03  0.12700000000E+01 0. -1.
         -4   -1    0    0    0  501 -0.00000000000E+00 -0.00000000000E+00 -0.19612128505E+02  0.19653205451E+02  0.12700000000E+01 0. -1.
         25    2    1    2    0    0  0.00000000000E+00  0.00000000000E+00  0.17911772038E+03  0.21838711231E+03  0.12493907744E+03 0.  0.
    9000005    1    3    3    0    0 -0.57835524094E+02  0.23309299030E+02  0.83214986012E+02  0.10399040901E+03  0.10000000000E+01 0.  0.
    9000005    1    3    3    0    0  0.57835524094E+02 -0.23309299030E+02  0.95902734367E+02  0.11439670331E+03  0.10000000000E+01 0.  0.
<mgrwt>
<rscale>  0 0.12493908E+03</rscale>
<asrwt>0</asrwt>
<pdfrwt beam="1">  1        4 0.30577296E-01 0.12493908E+03</pdfrwt>
<pdfrwt beam="2">  1       -4 0.30207224E-02 0.12493908E+03</pdfrwt>
<totfact> 0.87242894E+03</totfact>
</mgrwt>
</event>
<event>
 5    1  0.3289127E-002  0.1249570E+03  0.7818608E-02  0.1235136E+00
         -4   -1    0    0    0  501 -0.00000000000E+00  0.00000000000E+00  0.92837646485E+01  0.93702287084E+01  0.12700000000E+01 0.  1.
          4   -1    0    0  501    0  0.00000000000E+00 -0.00000000000E+00 -0.41843572172E+03  0.41843764902E+03  0.12700000000E+01 0.  1.
         25    2    1    2    0    0  0.00000000000E+00  0.00000000000E+00 -0.40915195707E+03  0.42780787772E+03  0.12495701767E+03 0.  0.
    9000005    1    3    3    0    0 -0.39184668014E+02 -0.74675107098E+01 -0.39978899478E+02  0.56484637973E+02  0.10000000000E+01 0.  0.
    9000005    1    3    3    0    0  0.39184668014E+02  0.74675107098E+01 -0.36917305760E+03  0.37132323975E+03  0.10000000000E+01 0.  0.
<mgrwt>
<rscale>  0 0.12495702E+03</rscale>
<asrwt>0</asrwt>
<pdfrwt beam="2">  1        4 0.64381511E-01 0.12495702E+03</pdfrwt>
<pdfrwt beam="1">  1       -4 0.14350711E-02 0.12495702E+03</pdfrwt>
<totfact> 0.61993942E+03</totfact>
</mgrwt>
</event>
<event>
 5    1  0.3289127E-002  0.1249992E+03  0.7818608E-02  0.1235071E+00
          4   -1    0    0  501    0  0.00000000000E+00  0.00000000000E+00  0.98469967991E+02  0.98478157457E+02  0.12700000000E+01 0.  1.
         -4   -1    0    0    0  501 -0.00000000000E+00 -0.00000000000E+00 -0.39648946316E+02  0.39669280860E+02  0.12700000000E+01 0.  1.
         25    2    1    2    0    0  0.00000000000E+00  0.00000000000E+00  0.58821021675E+02  0.13814743832E+03  0.12499920849E+03 0.  0.
    9000005    1    3    3    0    0  0.44101479214E+02  0.71200402514E+01 -0.18884559868E+02  0.48510432316E+02  0.10000000000E+01 0.  0.
    9000005    1    3    3    0    0 -0.44101479214E+02 -0.71200402514E+01  0.77705581543E+02  0.89637006002E+02  0.10000000000E+01 0.  0.
<mgrwt>
<rscale>  0 0.12499921E+03</rscale>
<asrwt>0</asrwt>
<pdfrwt beam="1">  1        4 0.15151420E-01 0.12499921E+03</pdfrwt>
<pdfrwt beam="2">  1       -4 0.61020321E-02 0.12499921E+03</pdfrwt>
<totfact> 0.10172308E+04</totfact>
</mgrwt>
</event>
<event>
 5    1  0.3289127E-002  0.1250034E+03  0.7818608E-02  0.1235064E+00
         -4   -1    0    0    0  501 -0.00000000000E+00  0.00000000000E+00  0.54047312522E+02  0.54062231649E+02  0.12700000000E+01 0. -1.
          4   -1    0    0  501    0  0.00000000000E+00 -0.00000000000E+00 -0.72248040367E+02  0.72259201745E+02  0.12700000000E+01 0. -1.
         25    2    1    2    0    0  0.00000000000E+00  0.00000000000E+00 -0.18200727845E+02  0.12632143339E+03  0.12500335212E+03 0.  0.
    9000005    1    3    3    0    0 -0.58137570145E+02 -0.22060391732E+02 -0.28039698418E+01  0.62253515504E+02  0.10000000000E+01 0.  0.
    9000005    1    3    3    0    0  0.58137570145E+02  0.22060391732E+02 -0.15396758003E+02  0.64067917890E+02  0.10000000000E+01 0.  0.
<mgrwt>
<rscale>  0 0.12500335E+03</rscale>
<asrwt>0</asrwt>
<pdfrwt beam="2">  1        4 0.11117089E-01 0.12500335E+03</pdfrwt>
<pdfrwt beam="1">  1       -4 0.83169773E-02 0.12500335E+03</pdfrwt>
<totfact> 0.10423136E+04</totfact>
</mgrwt>
</event>
<event>
 5    1  0.3289127E-002  0.1249990E+03  0.7818608E-02  0.1235071E+00
          4   -1    0    0  501    0  0.00000000000E+00  0.00000000000E+00  0.26181291767E+02  0.26212076197E+02  0.12700000000E+01 0.  1.
         -4   -1    0    0    0  501 -0.00000000000E+00 -0.00000000000E+00 -0.14907657754E+03  0.14908198708E+03  0.12700000000E+01 0.  1.
         25    2    1    2    0    0  0.00000000000E+00  0.00000000000E+00 -0.12289528577E+03  0.17529406327E+03  0.12499902941E+03 0.  0.
    9000005    1    3    3    0    0  0.30868062744E+02 -0.39506515952E+02 -0.11376138484E+03  0.12432318682E+03  0.10000000000E+01 0.  0.
    9000005    1    3    3    0    0 -0.30868062744E+02  0.39506515952E+02 -0.91339009309E+01  0.50970876454E+02  0.10000000000E+01 0.  0.
<mgrwt>
<rscale>  0 0.12499903E+03</rscale>
<asrwt>0</asrwt>
<pdfrwt beam="1">  1        4 0.40306753E-02 0.12499903E+03</pdfrwt>
<pdfrwt beam="2">  1       -4 0.22937642E-01 0.12499903E+03</pdfrwt>
<totfact> 0.94473068E+03</totfact>
</mgrwt>
</event>
<event>
 5    1  0.3289127E-002  0.1249806E+03  0.7818608E-02  0.1235100E+00
         -4   -1    0    0    0  501 -0.00000000000E+00  0.00000000000E+00  0.26227858608E+03  0.26228166084E+03  0.12700000000E+01 0.  1.
          4   -1    0    0  501    0  0.00000000000E+00 -0.00000000000E+00 -0.14858638993E+02  0.14912815050E+02  0.12700000000E+01 0.  1.
         25    2    1    2    0    0  0.00000000000E+00  0.00000000000E+00  0.24741994708E+03  0.27719447589E+03  0.12498058750E+03 0.  0.
    9000005    1    3    3    0    0  0.11851004446E+02 -0.58975552165E+02  0.86236335091E+02  0.10514878767E+03  0.10000000000E+01 0.  0.
    9000005    1    3    3    0    0 -0.11851004446E+02  0.58975552165E+02  0.16118361199E+03  0.17204568822E+03  0.10000000000E+01 0.  0.
<mgrwt>
<rscale>  0 0.12498059E+03</rscale>
<asrwt>0</asrwt>
<pdfrwt beam="2">  1        4 0.22903484E-02 0.12498059E+03</pdfrwt>
<pdfrwt beam="1">  1       -4 0.40354956E-01 0.12498059E+03</pdfrwt>
<totfact> 0.78585484E+03</totfact>
</mgrwt>
</event>
<event>
 5    1  0.3289127E-002  0.1249994E+03  0.7818608E-02  0.1235070E+00
         -4   -1    0    0    0  501 -0.00000000000E+00  0.00000000000E+00  0.18696759409E+03  0.18697190735E+03  0.12700000000E+01 0.  1.
          4   -1    0    0  501    0  0.00000000000E+00 -0.00000000000E+00 -0.20868611471E+02  0.20907219919E+02  0.12700000000E+01 0.  1.
         25    2    1    2    0    0  0.00000000000E+00  0.00000000000E+00  0.16609898262E+03  0.20787912727E+03  0.12499943811E+03 0.  0.
    9000005    1    3    3    0    0  0.28136061387E+02  0.40898121662E+02  0.19921372804E+02  0.53499115883E+02  0.10000000000E+01 0.  0.
    9000005    1    3    3    0    0 -0.28136061387E+02 -0.40898121662E+02  0.14617760981E+03  0.15438001139E+03  0.10000000000E+01 0.  0.
<mgrwt>
<rscale>  0 0.12499944E+03</rscale>
<asrwt>0</asrwt>
<pdfrwt beam="2">  1        4 0.32138571E-02 0.12499944E+03</pdfrwt>
<pdfrwt beam="1">  1       -4 0.28767549E-01 0.12499944E+03</pdfrwt>
<totfact> 0.88824536E+03</totfact>
</mgrwt>
</event>
<event>
 5    1  0.3289127E-002  0.1250006E+03  0.7818608E-02  0.1235068E+00
          4   -1    0    0  501    0  0.00000000000E+00  0.00000000000E+00  0.55610769520E+03  0.55610914537E+03  0.12700000000E+01 0.  1.
         -4   -1    0    0    0  501 -0.00000000000E+00 -0.00000000000E+00 -0.69654600284E+01  0.70802919013E+01  0.12700000000E+01 0.  1.
         25    2    1    2    0    0  0.00000000000E+00  0.00000000000E+00  0.54914223517E+03  0.56318943727E+03  0.12500059120E+03 0.  0.
    9000005    1    3    3    0    0  0.59708736707E+02  0.99522653303E+01  0.20461164023E+03  0.21338018686E+03  0.10000000000E+01 0.  0.
    9000005    1    3    3    0    0 -0.59708736707E+02 -0.99522653303E+01  0.34453059494E+03  0.34980925041E+03  0.10000000000E+01 0.  0.
<mgrwt>
<rscale>  0 0.12500059E+03</rscale>
<asrwt>0</asrwt>
<pdfrwt beam="1">  1        4 0.85563997E-01 0.12500059E+03</pdfrwt>
<pdfrwt beam="2">  1       -4 0.10805537E-02 0.12500059E+03</pdfrwt>
<totfact> 0.51276138E+03</totfact>
</mgrwt>
</event>
<event>
 5    1  0.3289127E-002  0.1249992E+03  0.7818608E-02  0.1235071E+00
          4   -1    0    0  501    0  0.00000000000E+00  0.00000000000E+00  0.12935116956E+04  0.12935123190E+04  0.12700000000E+01 0.  1.
         -4   -1    0    0    0  501 -0.00000000000E+00 -0.00000000000E+00 -0.28856640103E+01  0.31527696999E+01  0.12700000000E+01 0.  1.
         25    2    1    2    0    0  0.00000000000E+00  0.00000000000E+00  0.12906260315E+04  0.12966650887E+04  0.12499919594E+03 0.  0.
    9000005    1    3    3    0    0 -0.46715676351E+02  0.34612403800E+02  0.40766805251E+03  0.41179438309E+03  0.10000000000E+01 0.  0.
    9000005    1    3    3    0    0  0.46715676351E+02 -0.34612403800E+02  0.88295797904E+03  0.88487070562E+03  0.10000000000E+01 0.  0.
<mgrwt>
<rscale>  0 0.12499920E+03</rscale>
<asrwt>0</asrwt>
<pdfrwt beam="1">  1        4 0.19902216E+00 0.12499920E+03</pdfrwt>
<pdfrwt beam="2">  1       -4 0.46454342E-03 0.12499920E+03</pdfrwt>
<totfact> 0.22307789E+03</totfact>
</mgrwt>
</event>
<event>
 5    1  0.3289127E-002  0.1250106E+03  0.7818608E-02  0.1235053E+00
         -4   -1    0    0    0  501 -0.00000000000E+00  0.00000000000E+00  0.16325603350E+02  0.16374926710E+02  0.12700000000E+01 0. -1.
          4   -1    0    0  501    0  0.00000000000E+00 -0.00000000000E+00 -0.23890017683E+03  0.23890355248E+03  0.12700000000E+01 0. -1.
         25    2    1    2    0    0  0.00000000000E+00  0.00000000000E+00 -0.22257457348E+03  0.25527847919E+03  0.12501064427E+03 0.  0.
    9000005    1    3    3    0    0 -0.13634499820E+02 -0.56937962294E+02 -0.15593707335E+03  0.16656891060E+03  0.10000000000E+01 0.  0.
    9000005    1    3    3    0    0  0.13634499820E+02  0.56937962294E+02 -0.66637500132E+02  0.88709568590E+02  0.10000000000E+01 0.  0.
<mgrwt>
<rscale>  0 0.12501064E+03</rscale>
<asrwt>0</asrwt>
<pdfrwt beam="2">  1        4 0.36757925E-01 0.12501064E+03</pdfrwt>
<pdfrwt beam="1">  1       -4 0.25156852E-02 0.12501064E+03</pdfrwt>
<totfact> 0.81553928E+03</totfact>
</mgrwt>
</event>
<event>
 5    1  0.3289127E-002  0.1250040E+03  0.7818608E-02  0.1235063E+00
          4   -1    0    0  501    0  0.00000000000E+00  0.00000000000E+00  0.17913710062E+03  0.17914160242E+03  0.12700000000E+01 0. -1.
         -4   -1    0    0    0  501 -0.00000000000E+00 -0.00000000000E+00 -0.21784061341E+02  0.21821050124E+02  0.12700000000E+01 0. -1.
         25    2    1    2    0    0  0.00000000000E+00  0.00000000000E+00  0.15735303928E+03  0.20096265255E+03  0.12500403493E+03 0.  0.
    9000005    1    3    3    0    0 -0.11243431088E+02 -0.56850493435E+02  0.41073026591E+02  0.71037925504E+02  0.10000000000E+01 0.  0.
    9000005    1    3    3    0    0  0.11243431088E+02  0.56850493435E+02  0.11628001269E+03  0.12992472704E+03  0.10000000000E+01 0.  0.
<mgrwt>
<rscale>  0 0.12500403E+03</rscale>
<asrwt>0</asrwt>
<pdfrwt beam="1">  1        4 0.27562746E-01 0.12500403E+03</pdfrwt>
<pdfrwt beam="2">  1       -4 0.33545856E-02 0.12500403E+03</pdfrwt>
<totfact> 0.89965277E+03</totfact>
</mgrwt>
</event>
<event>
 5    1  0.3289127E-002  0.1249982E+03  0.7818608E-02  0.1235072E+00
         -4   -1    0    0    0  501 -0.00000000000E+00  0.00000000000E+00  0.25338132432E+01  0.28342740784E+01  0.12700000000E+01 0. -1.
          4   -1    0    0  501    0  0.00000000000E+00 -0.00000000000E+00 -0.14550169201E+04  0.14550174744E+04  0.12700000000E+01 0. -1.
         25    2    1    2    0    0  0.00000000000E+00  0.00000000000E+00 -0.14524831069E+04  0.14578517484E+04  0.12499817881E+03 0.  0.
    9000005    1    3    3    0    0 -0.61827464925E+02  0.30517475438E+00 -0.83211654209E+03  0.83441097078E+03  0.10000000000E+01 0.  0.
    9000005    1    3    3    0    0  0.61827464925E+02 -0.30517475438E+00 -0.62036656477E+03  0.62344077765E+03  0.10000000000E+01 0.  0.
<mgrwt>
<rscale>  0 0.12499818E+03</rscale>
<asrwt>0</asrwt>
<pdfrwt beam="2">  1        4 0.22387128E+00 0.12499818E+03</pdfrwt>
<pdfrwt beam="1">  1       -4 0.41297359E-03 0.12499818E+03</pdfrwt>
<totfact> 0.18773317E+03</totfact>
</mgrwt>
</event>
<event>
 5    1  0.3289127E-002  0.1249929E+03  0.7818608E-02  0.1235080E+00
         -4   -1    0    0    0  501 -0.00000000000E+00  0.00000000000E+00  0.88769752302E+02  0.88778836576E+02  0.12700000000E+01 0.  1.
          4   -1    0    0  501    0  0.00000000000E+00 -0.00000000000E+00 -0.43978765476E+02  0.43997098914E+02  0.12700000000E+01 0.  1.
         25    2    1    2    0    0  0.00000000000E+00  0.00000000000E+00  0.44790986825E+02  0.13277593549E+03  0.12499286597E+03 0.  0.
    9000005    1    3    3    0    0 -0.55232390868E+01  0.58571571698E+02  0.44770525362E+02  0.73936020466E+02  0.10000000000E+01 0.  0.
    9000005    1    3    3    0    0  0.55232390868E+01 -0.58571571698E+02  0.20461463078E-01  0.58839915023E+02  0.10000000000E+01 0.  0.
<mgrwt>
<rscale>  0 0.12499287E+03</rscale>
<asrwt>0</asrwt>
<pdfrwt beam="2">  1        4 0.67680731E-02 0.12499287E+03</pdfrwt>
<pdfrwt beam="1">  1       -4 0.13658994E-01 0.12499287E+03</pdfrwt>
<totfact> 0.10286820E+04</totfact>
</mgrwt>
</event>
<event>
 5    1  0.3289127E-002  0.1250014E+03  0.7818608E-02  0.1235067E+00
         -4   -1    0    0    0  501 -0.00000000000E+00  0.00000000000E+00  0.42198925415E+02  0.42218031766E+02  0.12700000000E+01 0.  1.
          4   -1    0    0  501    0  0.00000000000E+00 -0.00000000000E+00 -0.92525250456E+02  0.92533966044E+02  0.12700000000E+01 0.  1.
         25    2    1    2    0    0  0.00000000000E+00  0.00000000000E+00 -0.50326325040E+02  0.13475199781E+03  0.12500144768E+03 0.  0.
    9000005    1    3    3    0    0  0.55092726137E+02 -0.14870726941E+02  0.22993545163E+01  0.57119471497E+02  0.10000000000E+01 0.  0.
    9000005    1    3    3    0    0 -0.55092726137E+02  0.14870726941E+02 -0.52625679556E+02  0.77632526313E+02  0.10000000000E+01 0.  0.
<mgrwt>
<rscale>  0 0.12500145E+03</rscale>
<asrwt>0</asrwt>
<pdfrwt beam="2">  1        4 0.14236794E-01 0.12500145E+03</pdfrwt>
<pdfrwt beam="1">  1       -4 0.64942825E-02 0.12500145E+03</pdfrwt>
<totfact> 0.10242966E+04</totfact>
</mgrwt>
</event>
<event>
 5    1  0.3289127E-002  0.1250137E+03  0.7818608E-02  0.1235048E+00
          4   -1    0    0  501    0  0.00000000000E+00  0.00000000000E+00  0.22734200468E+03  0.22734555195E+03  0.12700000000E+01 0.  1.
         -4   -1    0    0    0  501 -0.00000000000E+00 -0.00000000000E+00 -0.17158884935E+02  0.17205819719E+02  0.12700000000E+01 0.  1.
         25    2    1    2    0    0  0.00000000000E+00  0.00000000000E+00  0.21018311974E+03  0.24455137167E+03  0.12501371749E+03 0.  0.
    9000005    1    3    3    0    0 -0.52917447759E+02 -0.12567220523E+01  0.17009710681E+03  0.17814561845E+03  0.10000000000E+01 0.  0.
    9000005    1    3    3    0    0  0.52917447759E+02  0.12567220523E+01  0.40086012934E+02  0.66405753219E+02  0.10000000000E+01 0.  0.
<mgrwt>
<rscale>  0 0.12501372E+03</rscale>
<asrwt>0</asrwt>
<pdfrwt beam="1">  1        4 0.34979574E-01 0.12501372E+03</pdfrwt>
<pdfrwt beam="2">  1       -4 0.26437119E-02 0.12501372E+03</pdfrwt>
<totfact> 0.83098752E+03</totfact>
</mgrwt>
</event>
<event>
 5    1  0.3289127E-002  0.1249956E+03  0.7818608E-02  0.1235076E+00
         -4   -1    0    0    0  501 -0.00000000000E+00  0.00000000000E+00  0.12329645288E+04  0.12329651828E+04  0.12700000000E+01 0.  1.
          4   -1    0    0  501    0  0.00000000000E+00 -0.00000000000E+00 -0.30399881519E+01  0.32946058890E+01  0.12700000000E+01 0.  1.
         25    2    1    2    0    0  0.00000000000E+00  0.00000000000E+00  0.12299245406E+04  0.12362597887E+04  0.12499555841E+03 0.  0.
    9000005    1    3    3    0    0 -0.30315105924E+01 -0.34879017697E+02  0.10302035878E+03  0.10881144359E+03  0.10000000000E+01 0.  0.
    9000005    1    3    3    0    0  0.30315105924E+01  0.34879017697E+02  0.11269041818E+04  0.11274483451E+04  0.10000000000E+01 0.  0.
<mgrwt>
<rscale>  0 0.12499556E+03</rscale>
<asrwt>0</asrwt>
<pdfrwt beam="2">  1        4 0.48732694E-03 0.12499556E+03</pdfrwt>
<pdfrwt beam="1">  1       -4 0.18970643E+00 0.12499556E+03</pdfrwt>
<totfact> 0.23785207E+03</totfact>
</mgrwt>
</event>
<event>
 5    1  0.3289127E-002  0.1250003E+03  0.7818608E-02  0.1235069E+00
          4   -1    0    0  501    0  0.00000000000E+00  0.00000000000E+00  0.78162709835E+02  0.78173026734E+02  0.12700000000E+01 0. -1.
         -4   -1    0    0    0  501 -0.00000000000E+00 -0.00000000000E+00 -0.49954468894E+02  0.49970609987E+02  0.12700000000E+01 0. -1.
         25    2    1    2    0    0  0.00000000000E+00  0.00000000000E+00  0.28208240941E+02  0.12814363672E+03  0.12500034710E+03 0.  0.
    9000005    1    3    3    0    0 -0.33705190597E+02  0.43774312225E+02  0.44045436355E+02  0.70662796065E+02  0.10000000000E+01 0.  0.
    9000005    1    3    3    0    0  0.33705190597E+02 -0.43774312225E+02 -0.15837195415E+02  0.57480840656E+02  0.10000000000E+01 0.  0.
<mgrwt>
<rscale>  0 0.12500035E+03</rscale>
<asrwt>0</asrwt>
<pdfrwt beam="1">  1        4 0.12027067E-01 0.12500035E+03</pdfrwt>
<pdfrwt beam="2">  1       -4 0.76873382E-02 0.12500035E+03</pdfrwt>
<totfact> 0.10384305E+04</totfact>
</mgrwt>
</event>
<event>
 5    1  0.3289127E-002  0.1249985E+03  0.7818608E-02  0.1235072E+00
         -4   -1    0    0    0  501 -0.00000000000E+00  0.00000000000E+00  0.61201731976E+02  0.61214907472E+02  0.12700000000E+01 0. -1.
          4   -1    0    0  501    0  0.00000000000E+00 -0.00000000000E+00 -0.63797961298E+02  0.63810600732E+02  0.12700000000E+01 0. -1.
         25    2    1    2    0    0  0.00000000000E+00  0.00000000000E+00 -0.25962293220E+01  0.12502550820E+03  0.12499854917E+03 0.  0.
    9000005    1    3    3    0    0 -0.55504320929E+02 -0.12842688514E+02 -0.26984288708E+02  0.63046142842E+02  0.10000000000E+01 0.  0.
    9000005    1    3    3    0    0  0.55504320929E+02  0.12842688514E+02  0.24388059387E+02  0.61979365362E+02  0.10000000000E+01 0.  0.
<mgrwt>
<rscale>  0 0.12499855E+03</rscale>
<asrwt>0</asrwt>
<pdfrwt beam="2">  1        4 0.98170567E-02 0.12499855E+03</pdfrwt>
<pdfrwt beam="1">  1       -4 0.94176369E-02 0.12499855E+03</pdfrwt>
<totfact> 0.10452651E+04</totfact>
</mgrwt>
</event>
<event>
 5    1  0.3289127E-002  0.1249997E+03  0.7818608E-02  0.1235070E+00
         -4   -1    0    0    0  501 -0.00000000000E+00  0.00000000000E+00  0.39055379111E+02  0.39076022539E+02  0.12700000000E+01 0. -1.
          4   -1    0    0  501    0  0.00000000000E+00 -0.00000000000E+00 -0.99966613176E+02  0.99974680043E+02  0.12700000000E+01 0. -1.
         25    2    1    2    0    0  0.00000000000E+00  0.00000000000E+00 -0.60911234065E+02  0.13905070258E+03  0.12499967781E+03 0.  0.
    9000005    1    3    3    0    0 -0.22918711298E+02 -0.23873311865E+02  0.28512815028E+02  0.43694198331E+02  0.10000000000E+01 0.  0.
    9000005    1    3    3    0    0  0.22918711298E+02  0.23873311865E+02 -0.89424049093E+02  0.95356504252E+02  0.10000000000E+01 0.  0.
<mgrwt>
<rscale>  0 0.12499968E+03</rscale>
<asrwt>0</asrwt>
<pdfrwt beam="2">  1        4 0.15381687E-01 0.12499968E+03</pdfrwt>
<pdfrwt beam="1">  1       -4 0.60107284E-02 0.12499968E+03</pdfrwt>
<totfact> 0.10153372E+04</totfact>
</mgrwt>
</event>
<event>
 5    1  0.3289127E-002  0.1249837E+03  0.7818608E-02  0.1235095E+00
          4   -1    0    0  501    0  0.00000000000E+00  0.00000000000E+00  0.81667522211E+02  0.81677396408E+02  0.12700000000E+01 0.  1.
         -4   -1    0    0    0  501 -0.00000000000E+00 -0.00000000000E+00 -0.47797483027E+02  0.47814352277E+02  0.12700000000E+01 0.  1.
         25    2    1    2    0    0  0.00000000000E+00  0.00000000000E+00  0.33870039184E+02  0.12949174869E+03  0.12498373263E+03 0.  0.
    9000005    1    3    3    0    0  0.36120914935E+02 -0.10945815920E+02  0.68527730578E+02  0.78240534508E+02  0.10000000000E+01 0.  0.
    9000005    1    3    3    0    0 -0.36120914935E+02  0.10945815920E+02 -0.34657691394E+02  0.51251214177E+02  0.10000000000E+01 0.  0.
<mgrwt>
<rscale>  0 0.12498373E+03</rscale>
<asrwt>0</asrwt>
<pdfrwt beam="1">  1        4 0.12566291E-01 0.12498373E+03</pdfrwt>
<pdfrwt beam="2">  1       -4 0.73555161E-02 0.12498373E+03</pdfrwt>
<totfact> 0.10359196E+04</totfact>
</mgrwt>
</event>
<event>
 5    1  0.3289127E-002  0.1250003E+03  0.7818608E-02  0.1235069E+00
         -4   -1    0    0    0  501 -0.00000000000E+00  0.00000000000E+00  0.19961895832E+02  0.20002254503E+02  0.12700000000E+01 0. -1.
          4   -1    0    0  501    0  0.00000000000E+00 -0.00000000000E+00 -0.19544626229E+03  0.19545038845E+03  0.12700000000E+01 0. -1.
         25    2    1    2    0    0  0.00000000000E+00  0.00000000000E+00 -0.17548436646E+03  0.21545264295E+03  0.12500031393E+03 0.  0.
    9000005    1    3    3    0    0 -0.57496810112E+02 -0.20683240322E+02 -0.11032024887E+03  0.12611596613E+03  0.10000000000E+01 0.  0.
    9000005    1    3    3    0    0  0.57496810112E+02  0.20683240322E+02 -0.65164117589E+02  0.89336676815E+02  0.10000000000E+01 0.  0.
<mgrwt>
<rscale>  0 0.12500031E+03</rscale>
<asrwt>0</asrwt>
<pdfrwt beam="2">  1        4 0.30072076E-01 0.12500031E+03</pdfrwt>
<pdfrwt beam="1">  1       -4 0.30744829E-02 0.12500031E+03</pdfrwt>
<totfact> 0.87592450E+03</totfact>
</mgrwt>
</event>
<event>
 5    1  0.3289127E-002  0.1249969E+03  0.7818608E-02  0.1235074E+00
          4   -1    0    0  501    0  0.00000000000E+00  0.00000000000E+00  0.31639595114E+03  0.31639849999E+03  0.12700000000E+01 0. -1.
         -4   -1    0    0    0  501 -0.00000000000E+00 -0.00000000000E+00 -0.12310209684E+02  0.12375546956E+02  0.12700000000E+01 0. -1.
         25    2    1    2    0    0  0.00000000000E+00  0.00000000000E+00  0.30408574145E+03  0.32877404695E+03  0.12499694312E+03 0.  0.
    9000005    1    3    3    0    0 -0.61690454988E+02  0.94577842882E+01  0.14376820387E+03  0.15673371802E+03  0.10000000000E+01 0.  0.
    9000005    1    3    3    0    0  0.61690454988E+02 -0.94577842882E+01  0.16031753758E+03  0.17204032892E+03  0.10000000000E+01 0.  0.
<mgrwt>
<rscale>  0 0.12499694E+03</rscale>
<asrwt>0</asrwt>
<pdfrwt beam="1">  1        4 0.48681519E-01 0.12499694E+03</pdfrwt>
<pdfrwt beam="2">  1       -4 0.18991005E-02 0.12499694E+03</pdfrwt>
<totfact> 0.72129465E+03</totfact>
</mgrwt>
</event>
<event>
 5    1  0.3289127E-002  0.1249929E+03  0.7818608E-02  0.1235080E+00
         -4   -1    0    0    0  501 -0.00000000000E+00  0.00000000000E+00  0.37574831922E+03  0.37575046547E+03  0.12700000000E+01 0.  1.
          4   -1    0    0  501    0  0.00000000000E+00 -0.00000000000E+00 -0.10353756766E+02  0.10431355576E+02  0.12700000000E+01 0.  1.
         25    2    1    2    0    0  0.00000000000E+00  0.00000000000E+00  0.36539456246E+03  0.38618182104E+03  0.12499285032E+03 0.  0.
    9000005    1    3    3    0    0 -0.58320234243E+02 -0.19599189887E+02  0.14893322402E+03  0.16114429306E+03  0.10000000000E+01 0.  0.
    9000005    1    3    3    0    0  0.58320234243E+02  0.19599189887E+02  0.21646133843E+03  0.22503752799E+03  0.10000000000E+01 0.  0.
<mgrwt>
<rscale>  0 0.12499285E+03</rscale>
<asrwt>0</asrwt>
<pdfrwt beam="2">  1        4 0.15990196E-02 0.12499285E+03</pdfrwt>
<pdfrwt beam="1">  1       -4 0.57813578E-01 0.12499285E+03</pdfrwt>
<totfact> 0.65929693E+03</totfact>
</mgrwt>
</event>
<event>
 5    1  0.3289127E-002  0.1249987E+03  0.7818608E-02  0.1235071E+00
          4   -1    0    0  501    0  0.00000000000E+00  0.00000000000E+00  0.44157822345E+03  0.44158004973E+03  0.12700000000E+01 0.  1.
         -4   -1    0    0    0  501 -0.00000000000E+00 -0.00000000000E+00 -0.87984856635E+01  0.88896709709E+01  0.12700000000E+01 0.  1.
         25    2    1    2    0    0  0.00000000000E+00  0.00000000000E+00  0.43277973778E+03  0.45046972070E+03  0.12499867133E+03 0.  0.
    9000005    1    3    3    0    0  0.26484815378E+01  0.58100774676E+02  0.29876262699E+03  0.30437283347E+03  0.10000000000E+01 0.  0.
    9000005    1    3    3    0    0 -0.26484815378E+01 -0.58100774676E+02  0.13401711080E+03  0.14609688723E+03  0.10000000000E+01 0.  0.
<mgrwt>
<rscale>  0 0.12499867E+03</rscale>
<asrwt>0</asrwt>
<pdfrwt beam="1">  1        4 0.67942265E-01 0.12499867E+03</pdfrwt>
<pdfrwt beam="2">  1       -4 0.13607679E-02 0.12499867E+03</pdfrwt>
<totfact> 0.59924877E+03</totfact>
</mgrwt>
</event>
