<event>
 6    4  0.6195789E-003  0.1429940E+03  0.7818608E-02  0.1209356E+00
         -4   -1    0    0    0  501 -0.00000000000E+00  0.00000000000E+00  0.12764304478E+02  0.12827328982E+02  0.12700000000E+01 0. -1.
         21   -1    0    0  501  502  0.00000000000E+00 -0.00000000000E+00 -0.11686587213E+04  0.11686587213E+04  0.00000000000E+00 0.  1.
         25    2    1    2    0    0 -0.59216749893E+02 -0.36269174215E+02 -0.44975822243E+03  0.47194252491E+03  0.12500084683E+03 0.  0.
    9000005    1    3    3    0    0  0.35667608026E+02  0.35952380593E+01 -0.72329526973E+02  0.80732053554E+02  0.10000000000E+01 0.  0.
    9000005    1    3    3    0    0 -0.94884357919E+02 -0.39864412274E+02 -0.37742869546E+03  0.39121047136E+03  0.10000000000E+01 0.  0.
         -4    1    1    2    0  502  0.59216749893E+02  0.36269174215E+02 -0.70613619435E+03  0.70954352533E+03  0.12700000000E+01 0.  1.
<mgrwt>
<rscale>  1 0.14299401E+03</rscale>
<asrwt>0</asrwt>
<pdfrwt beam="2">  1       21 0.17979364E+00 0.14299401E+03</pdfrwt>
<pdfrwt beam="1">  1       -4 0.19686404E-02 0.14299401E+03</pdfrwt>
<totfact> 0.79840830E+03</totfact>
</mgrwt>
</event>
<event>
 6    4  0.6195789E-003  0.1271888E+03  0.7818608E-02  0.1231688E+00
         21   -1    0    0  501  502  0.00000000000E+00  0.00000000000E+00  0.70741396006E+03  0.70741396006E+03  0.00000000000E+00 0. -1.
         -4   -1    0    0    0  501 -0.00000000000E+00 -0.00000000000E+00 -0.89084320680E+01  0.89985033150E+01  0.12700000000E+01 0. -1.
         25    2    1    2    0    0 -0.13357541681E+01 -0.23472441451E+02  0.65196242282E+03  0.66425296485E+03  0.12499704317E+03 0.  0.
    9000005    1    3    3    0    0 -0.31992151899E+02  0.42584332707E+02  0.23348782363E+03  0.23948796830E+03  0.10000000000E+01 0.  0.
    9000005    1    3    3    0    0  0.30656397731E+02 -0.66056774158E+02  0.41847459919E+03  0.42476499655E+03  0.10000000000E+01 0.  0.
         -4    1    1    2    0  502  0.13357541681E+01  0.23472441451E+02  0.46543105174E+02  0.52159498522E+02  0.12700000000E+01 0.  1.
<mgrwt>
<rscale>  1 0.12718884E+03</rscale>
<asrwt>0</asrwt>
<pdfrwt beam="1">  1       21 0.10883287E+00 0.12718884E+03</pdfrwt>
<pdfrwt beam="2">  1       -4 0.13775448E-02 0.12718884E+03</pdfrwt>
<totfact> 0.49351293E+04</totfact>
</mgrwt>
</event>
<event>
 6    4  0.6195789E-003  0.1540722E+03  0.7818608E-02  0.1195557E+00
          4   -1    0    0  502    0 -0.00000000000E+00  0.00000000000E+00  0.10484726090E+04  0.10484733781E+04  0.12700000000E+01 0. -1.
         21   -1    0    0  501  502  0.00000000000E+00 -0.00000000000E+00 -0.48170927515E+02  0.48170927515E+02  0.00000000000E+00 0.  1.
         25    2    1    2    0    0 -0.89823065035E+02 -0.65856313484E+01  0.99452223215E+03  0.10063859626E+04  0.12500672775E+03 0.  0.
    9000005    1    3    3    0    0 -0.29228606208E+02  0.57431394372E+02  0.49002212372E+03  0.49424220603E+03  0.10000000000E+01 0.  0.
    9000005    1    3    3    0    0 -0.60594458827E+02 -0.64017025720E+02  0.50450010842E+03  0.51214375660E+03  0.10000000000E+01 0.  0.
          4    1    1    2  501    0  0.89823065035E+02  0.65856313484E+01  0.57794493131E+01  0.90258343032E+02  0.12700000000E+01 0.  1.
<mgrwt>
<rscale>  1 0.15407218E+03</rscale>
<asrwt>0</asrwt>
<pdfrwt beam="2">  1       21 0.74109127E-02 0.15407218E+03</pdfrwt>
<pdfrwt beam="1">  1        4 0.16130481E+00 0.15407218E+03</pdfrwt>
<totfact> 0.15058570E+03</totfact>
</mgrwt>
</event>
<event>
 6    4  0.6195789E-003  0.1272631E+03  0.7818608E-02  0.1231574E+00
         21   -1    0    0  501  502  0.00000000000E+00  0.00000000000E+00  0.17708804976E+02  0.17708804976E+02  0.00000000000E+00 0.  1.
          4   -1    0    0  502    0 -0.00000000000E+00 -0.00000000000E+00 -0.41213894759E+03  0.41214090433E+03  0.12700000000E+01 0.  1.
         25    2    1    2    0    0  0.22173153325E+02 -0.89252937315E+01 -0.38248009629E+03  0.40309665147E+03  0.12499830706E+03 0.  0.
    9000005    1    3    3    0    0 -0.40342748381E+02 -0.15144537240E+02 -0.27689930016E+03  0.28023403931E+03  0.10000000000E+01 0.  0.
    9000005    1    3    3    0    0  0.62515901707E+02  0.62192435080E+01 -0.10558079613E+03  0.12286261216E+03  0.10000000000E+01 0.  0.
          4    1    1    2  501    0 -0.22173153325E+02  0.89252937315E+01 -0.11950046327E+02  0.26753057840E+02  0.12700000000E+01 0. -1.
<mgrwt>
<rscale>  1 0.12726306E+03</rscale>
<asrwt>0</asrwt>
<pdfrwt beam="1">  1       21 0.27244315E-02 0.12726306E+03</pdfrwt>
<pdfrwt beam="2">  1        4 0.63409646E-01 0.12726306E+03</pdfrwt>
<totfact> 0.69851680E+04</totfact>
</mgrwt>
</event>
<event>
 6    4  0.6195789E-003  0.1267818E+03  0.7818608E-02  0.1232311E+00
         -4   -1    0    0    0  501 -0.00000000000E+00  0.00000000000E+00  0.69192997955E+02  0.69204652054E+02  0.12700000000E+01 0.  1.
         21   -1    0    0  501  502  0.00000000000E+00 -0.00000000000E+00 -0.22468812038E+03  0.22468812038E+03  0.00000000000E+00 0. -1.
         25    2    1    2    0    0 -0.42943147164E+00  0.21192230329E+02  0.98741197250E+01  0.12716576746E+03  0.12499735652E+03 0.  0.
    9000005    1    3    3    0    0  0.27158769010E+02 -0.45192940000E+02 -0.73229817897E+01  0.53241211691E+02  0.10000000000E+01 0.  0.
    9000005    1    3    3    0    0 -0.27588200481E+02  0.66385170329E+02  0.17197101515E+02  0.73924555771E+02  0.10000000000E+01 0.  0.
         -4    1    1    2    0  502  0.42943147164E+00 -0.21192230329E+02 -0.16536924215E+03  0.16672700497E+03  0.12700000000E+01 0. -1.
<mgrwt>
<rscale>  1 0.12678184E+03</rscale>
<asrwt>0</asrwt>
<pdfrwt beam="2">  1       21 0.34567403E-01 0.12678184E+03</pdfrwt>
<pdfrwt beam="1">  1       -4 0.10646249E-01 0.12678184E+03</pdfrwt>
<totfact> 0.22339786E+04</totfact>
</mgrwt>
</event>
<event>
 6    4  0.6195789E-003  0.1579576E+03  0.7818608E-02  0.1191022E+00
         -4   -1    0    0    0  501 -0.00000000000E+00  0.00000000000E+00  0.14352368247E+03  0.14352930130E+03  0.12700000000E+01 0. -1.
         21   -1    0    0  501  502  0.00000000000E+00 -0.00000000000E+00 -0.12718671715E+03  0.12718671715E+03  0.00000000000E+00 0.  1.
         25    2    1    2    0    0  0.95539220136E+02  0.14149900753E+02  0.54160109117E+02  0.16698480144E+03  0.12499057651E+03 0.  0.
    9000005    1    3    3    0    0  0.39882212705E+02  0.69055681338E+02  0.28621019729E+02  0.84731580805E+02  0.10000000000E+01 0.  0.
    9000005    1    3    3    0    0  0.55657007430E+02 -0.54905780585E+02  0.25539089388E+02  0.82253220633E+02  0.10000000000E+01 0.  0.
         -4    1    1    2    0  502 -0.95539220136E+02 -0.14149900753E+02 -0.37823143787E+02  0.10373121701E+03  0.12700000000E+01 0.  1.
<mgrwt>
<rscale>  1 0.15795761E+03</rscale>
<asrwt>0</asrwt>
<pdfrwt beam="2">  1       21 0.19567187E-01 0.15795761E+03</pdfrwt>
<pdfrwt beam="1">  1       -4 0.22081486E-01 0.15795761E+03</pdfrwt>
<totfact> 0.18755047E+04</totfact>
</mgrwt>
</event>
<event>
 6    4  0.6195789E-003  0.1273292E+03  0.7818608E-02  0.1231473E+00
          4   -1    0    0  502    0 -0.00000000000E+00  0.00000000000E+00  0.11476085766E+04  0.11476092793E+04  0.12700000000E+01 0. -1.
         21   -1    0    0  501  502  0.00000000000E+00 -0.00000000000E+00 -0.50064684704E+01  0.50064684704E+01  0.00000000000E+00 0. -1.
         25    2    1    2    0    0 -0.21583237000E+02 -0.11017364360E+02  0.95532675373E+03  0.96377483670E+03  0.12500204409E+03 0.  0.
    9000005    1    3    3    0    0  0.30093616428E+01 -0.57370963111E+02  0.25087874226E+03  0.25737448783E+03  0.10000000000E+01 0.  0.
    9000005    1    3    3    0    0 -0.24592598642E+02  0.46353598750E+02  0.70444801146E+03  0.70640034887E+03  0.10000000000E+01 0.  0.
          4    1    1    2  501    0  0.21583237000E+02  0.11017364360E+02  0.18727535442E+03  0.18884091111E+03  0.12700000000E+01 0.  1.
<mgrwt>
<rscale>  1 0.12732922E+03</rscale>
<asrwt>0</asrwt>
<pdfrwt beam="2">  1       21 0.77022684E-03 0.12732922E+03</pdfrwt>
<pdfrwt beam="1">  1        4 0.17656740E+00 0.12732922E+03</pdfrwt>
<totfact> 0.47039151E+04</totfact>
</mgrwt>
</event>
<event>
 6    4  0.6195789E-003  0.1267115E+03  0.7818608E-02  0.1232418E+00
         21   -1    0    0  501  502  0.00000000000E+00  0.00000000000E+00  0.31875381064E+03  0.31875381064E+03  0.00000000000E+00 0.  1.
          4   -1    0    0  502    0 -0.00000000000E+00 -0.00000000000E+00 -0.20797582078E+02  0.20836322139E+02  0.12700000000E+01 0.  1.
         25    2    1    2    0    0 -0.52705717452E+01 -0.20081980924E+02  0.18189136609E+03  0.22167605353E+03  0.12499895506E+03 0.  0.
    9000005    1    3    3    0    0 -0.60087999462E+02 -0.35446468547E+02  0.99605034013E+02  0.12161078329E+03  0.10000000000E+01 0.  0.
    9000005    1    3    3    0    0  0.54817427717E+02  0.15364487623E+02  0.82286332075E+02  0.10006527024E+03  0.10000000000E+01 0.  0.
          4    1    1    2  501    0  0.52705717452E+01  0.20081980924E+02  0.11606486247E+03  0.11791407925E+03  0.12700000000E+01 0. -1.
<mgrwt>
<rscale>  1 0.12671150E+03</rscale>
<asrwt>0</asrwt>
<pdfrwt beam="1">  1       21 0.49039044E-01 0.12671150E+03</pdfrwt>
<pdfrwt beam="2">  1        4 0.32028029E-02 0.12671150E+03</pdfrwt>
<totfact> 0.77834186E+04</totfact>
</mgrwt>
</event>
<event>
 6    4  0.6195789E-003  0.1338654E+03  0.7818608E-02  0.1221830E+00
         -4   -1    0    0    0  501 -0.00000000000E+00  0.00000000000E+00  0.72162926303E+03  0.72163038057E+03  0.12700000000E+01 0.  1.
         21   -1    0    0  501  502  0.00000000000E+00 -0.00000000000E+00 -0.15784391170E+02  0.15784391170E+02  0.00000000000E+00 0. -1.
         25    2    1    2    0    0 -0.45823384996E+02  0.13967157299E+02  0.65083313934E+03  0.66445747115E+03  0.12500036639E+03 0.  0.
    9000005    1    3    3    0    0 -0.64309945167E+02 -0.40257217668E+02  0.40371336389E+03  0.41078205024E+03  0.10000000000E+01 0.  0.
    9000005    1    3    3    0    0  0.18486560170E+02  0.54224374967E+02  0.24711977546E+03  0.25367542090E+03  0.10000000000E+01 0.  0.
         -4    1    1    2    0  502  0.45823384996E+02 -0.13967157299E+02  0.55011732511E+02  0.72957300590E+02  0.12700000000E+01 0. -1.
<mgrwt>
<rscale>  1 0.13386544E+03</rscale>
<asrwt>0</asrwt>
<pdfrwt beam="2">  1       21 0.24283684E-02 0.13386544E+03</pdfrwt>
<pdfrwt beam="1">  1       -4 0.11102388E+00 0.13386544E+03</pdfrwt>
<totfact> 0.24284254E+04</totfact>
</mgrwt>
</event>
<event>
 6    4  0.6195789E-003  0.1274027E+03  0.7818608E-02  0.1231361E+00
          4   -1    0    0  502    0 -0.00000000000E+00  0.00000000000E+00  0.55175978175E+03  0.55176124335E+03  0.12700000000E+01 0.  1.
         21   -1    0    0  501  502  0.00000000000E+00 -0.00000000000E+00 -0.11971246446E+02  0.11971246446E+02  0.00000000000E+00 0.  1.
         25    2    1    2    0    0  0.14319264798E+02 -0.20037542746E+02  0.50666174743E+03  0.52243428839E+03  0.12499965967E+03 0.  0.
    9000005    1    3    3    0    0  0.26985629025E+02  0.35176237193E+02  0.39239137893E+03  0.39488933399E+03  0.10000000000E+01 0.  0.
    9000005    1    3    3    0    0 -0.12666364227E+02 -0.55213779940E+02  0.11427036849E+03  0.12754495440E+03  0.10000000000E+01 0.  0.
          4    1    1    2  501    0 -0.14319264798E+02  0.20037542746E+02  0.33126787879E+02  0.41298201400E+02  0.12700000000E+01 0. -1.
<mgrwt>
<rscale>  1 0.12740274E+03</rscale>
<asrwt>0</asrwt>
<pdfrwt beam="2">  1       21 0.18417307E-02 0.12740274E+03</pdfrwt>
<pdfrwt beam="1">  1        4 0.84891395E-01 0.12740274E+03</pdfrwt>
<totfact> 0.69882389E+04</totfact>
</mgrwt>
</event>
<event>
 6    4  0.6195789E-003  0.1268165E+03  0.7818608E-02  0.1232257E+00
          4   -1    0    0  502    0 -0.00000000000E+00  0.00000000000E+00  0.68593319318E+03  0.68593436887E+03  0.12700000000E+01 0.  1.
         21   -1    0    0  501  502  0.00000000000E+00 -0.00000000000E+00 -0.10688982024E+02  0.10688982024E+02  0.00000000000E+00 0. -1.
         25    2    1    2    0    0  0.12927569109E+02 -0.17016598258E+02  0.65498513654E+03  0.66714913057E+03  0.12500298669E+03 0.  0.
    9000005    1    3    3    0    0 -0.31373263960E+02 -0.43249697880E+02  0.14435721752E+03  0.15393123240E+03  0.10000000000E+01 0.  0.
    9000005    1    3    3    0    0  0.44300833069E+02  0.26233099622E+02  0.51062791901E+03  0.51321789817E+03  0.10000000000E+01 0.  0.
          4    1    1    2  501    0 -0.12927569109E+02  0.17016598258E+02  0.20259074617E+02  0.29474220324E+02  0.12700000000E+01 0. -1.
<mgrwt>
<rscale>  1 0.12681653E+03</rscale>
<asrwt>0</asrwt>
<pdfrwt beam="2">  1       21 0.16444593E-02 0.12681653E+03</pdfrwt>
<pdfrwt beam="1">  1        4 0.10553404E+00 0.12681653E+03</pdfrwt>
<totfact> 0.50973557E+04</totfact>
</mgrwt>
</event>
<event>
 6    4  0.6195789E-003  0.1285197E+03  0.7818608E-02  0.1229669E+00
         -4   -1    0    0    0  501 -0.00000000000E+00  0.00000000000E+00  0.20216451723E+02  0.20256303223E+02  0.12700000000E+01 0. -1.
         21   -1    0    0  501  502  0.00000000000E+00 -0.00000000000E+00 -0.31640804781E+03  0.31640804781E+03  0.00000000000E+00 0. -1.
         25    2    1    2    0    0  0.26269590336E+02  0.14227664277E+02 -0.21961101165E+03  0.25445293686E+03  0.12499913133E+03 0.  0.
    9000005    1    3    3    0    0 -0.73665633670E+00  0.31988641191E+02  0.46252828480E+00  0.32016085960E+02  0.10000000000E+01 0.  0.
    9000005    1    3    3    0    0  0.27006246673E+02 -0.17760976913E+02 -0.22007353993E+03  0.22243685090E+03  0.10000000000E+01 0.  0.
         -4    1    1    2    0  502 -0.26269590336E+02 -0.14227664277E+02 -0.76580584439E+02  0.82211414173E+02  0.12700000000E+01 0.  1.
<mgrwt>
<rscale>  1 0.12851965E+03</rscale>
<asrwt>0</asrwt>
<pdfrwt beam="2">  1       21 0.48678158E-01 0.12851965E+03</pdfrwt>
<pdfrwt beam="1">  1       -4 0.31134851E-02 0.12851965E+03</pdfrwt>
<totfact> 0.82751388E+04</totfact>
</mgrwt>
</event>
<event>
 6    4  0.6195789E-003  0.1275794E+03  0.7818608E-02  0.1231092E+00
         21   -1    0    0  501  502  0.00000000000E+00  0.00000000000E+00  0.90833808046E+02  0.90833808046E+02  0.00000000000E+00 0.  1.
          4   -1    0    0  502    0 -0.00000000000E+00 -0.00000000000E+00 -0.16133199680E+03  0.16133699542E+03  0.12700000000E+01 0. -1.
         25    2    1    2    0    0 -0.22477712083E+02 -0.12106917166E+02 -0.13321017292E+03  0.18444908729E+03  0.12499876259E+03 0.  0.
    9000005    1    3    3    0    0  0.91734295315E+01  0.32624782311E+02 -0.12440216165E+03  0.12893962173E+03  0.10000000000E+01 0.  0.
    9000005    1    3    3    0    0 -0.31651141615E+02 -0.44731699477E+02 -0.88080112753E+01  0.55509465556E+02  0.10000000000E+01 0.  0.
          4    1    1    2  501    0  0.22477712083E+02  0.12106917166E+02  0.62711984169E+02  0.67721716179E+02  0.12700000000E+01 0.  1.
<mgrwt>
<rscale>  1 0.12757945E+03</rscale>
<asrwt>0</asrwt>
<pdfrwt beam="1">  1       21 0.13974432E-01 0.12757945E+03</pdfrwt>
<pdfrwt beam="2">  1        4 0.24821374E-01 0.12757945E+03</pdfrwt>
<totfact> 0.27361905E+04</totfact>
</mgrwt>
</event>
<event>
 6    4  0.6195789E-003  0.1274075E+03  0.7818608E-02  0.1231354E+00
         -4   -1    0    0    0  501 -0.00000000000E+00  0.00000000000E+00  0.13541078052E+03  0.13541673597E+03  0.12700000000E+01 0. -1.
         21   -1    0    0  501  502  0.00000000000E+00 -0.00000000000E+00 -0.63151458776E+02  0.63151458776E+02  0.00000000000E+00 0. -1.
         25    2    1    2    0    0  0.19674580442E+02  0.14906867303E+02  0.99594820695E+02  0.16171515944E+03  0.12499344253E+03 0.  0.
    9000005    1    3    3    0    0  0.61181810212E+02  0.19843735924E+02  0.13104357836E+02  0.65648396405E+02  0.10000000000E+01 0.  0.
    9000005    1    3    3    0    0 -0.41507229771E+02 -0.49368686204E+01  0.86490462858E+02  0.96066763037E+02  0.10000000000E+01 0.  0.
         -4    1    1    2    0  502 -0.19674580442E+02 -0.14906867303E+02 -0.27335498950E+02  0.36853035305E+02  0.12700000000E+01 0.  1.
<mgrwt>
<rscale>  1 0.12740747E+03</rscale>
<asrwt>0</asrwt>
<pdfrwt beam="2">  1       21 0.97156091E-02 0.12740747E+03</pdfrwt>
<pdfrwt beam="1">  1       -4 0.20833868E-01 0.12740747E+03</pdfrwt>
<totfact> 0.71583003E+04</totfact>
</mgrwt>
</event>
<event>
 6    4  0.6195789E-003  0.1319060E+03  0.7818608E-02  0.1224655E+00
          4   -1    0    0  502    0 -0.00000000000E+00  0.00000000000E+00  0.75674019979E+02  0.75684676122E+02  0.12700000000E+01 0. -1.
         21   -1    0    0  501  502  0.00000000000E+00 -0.00000000000E+00 -0.21435624719E+03  0.21435624719E+03  0.00000000000E+00 0.  1.
         25    2    1    2    0    0 -0.25186357173E+02 -0.33768722841E+02  0.13063291330E+02  0.13255125849E+03  0.12499802925E+03 0.  0.
    9000005    1    3    3    0    0  0.38155457304E+02  0.23130799427E+02  0.15831095017E+02  0.47355003681E+02  0.10000000000E+01 0.  0.
    9000005    1    3    3    0    0 -0.63341814477E+02 -0.56899522267E+02 -0.27678036869E+01  0.85196254804E+02  0.10000000000E+01 0.  0.
          4    1    1    2  501    0  0.25186357173E+02  0.33768722841E+02 -0.15174551854E+03  0.15748966482E+03  0.12700000000E+01 0.  1.
<mgrwt>
<rscale>  1 0.13190598E+03</rscale>
<asrwt>0</asrwt>
<pdfrwt beam="2">  1       21 0.32977884E-01 0.13190598E+03</pdfrwt>
<pdfrwt beam="1">  1        4 0.11643266E-01 0.13190598E+03</pdfrwt>
<totfact> 0.21122705E+04</totfact>
</mgrwt>
</event>
<event>
 6    4  0.6195789E-003  0.1270123E+03  0.7818608E-02  0.1231957E+00
         -4   -1    0    0    0  501 -0.00000000000E+00  0.00000000000E+00  0.27441331135E+03  0.27441625015E+03  0.12700000000E+01 0.  1.
         21   -1    0    0  501  502  0.00000000000E+00 -0.00000000000E+00 -0.26402030425E+02  0.26402030425E+02  0.00000000000E+00 0.  1.
         25    2    1    2    0    0  0.15234047887E+02 -0.16596501484E+02  0.24757003546E+03  0.27824999145E+03  0.12499846080E+03 0.  0.
    9000005    1    3    3    0    0  0.47297652222E+02 -0.53926408108E+02  0.18645807055E+03  0.19978172457E+03  0.10000000000E+01 0.  0.
    9000005    1    3    3    0    0 -0.32063604335E+02  0.37329906623E+02  0.61111964914E+02  0.78468266880E+02  0.10000000000E+01 0.  0.
         -4    1    1    2    0  502 -0.15234047887E+02  0.16596501484E+02  0.44124545825E+00  0.22568289126E+02  0.12700000000E+01 0. -1.
<mgrwt>
<rscale>  1 0.12701234E+03</rscale>
<asrwt>0</asrwt>
<pdfrwt beam="2">  1       21 0.40618510E-02 0.12701234E+03</pdfrwt>
<pdfrwt beam="1">  1       -4 0.42220006E-01 0.12701234E+03</pdfrwt>
<totfact> 0.83161026E+04</totfact>
</mgrwt>
</event>
<event>
 6    4  0.6195789E-003  0.1381565E+03  0.7818608E-02  0.1215831E+00
         21   -1    0    0  501  502  0.00000000000E+00  0.00000000000E+00  0.21542927637E+02  0.21542927637E+02  0.00000000000E+00 0.  1.
          4   -1    0    0  502    0 -0.00000000000E+00 -0.00000000000E+00 -0.49412349083E+03  0.49412512291E+03  0.12700000000E+01 0. -1.
         25    2    1    2    0    0 -0.54233775174E+02 -0.22802804072E+02 -0.39382839156E+03  0.41735839852E+03  0.12500384226E+03 0.  0.
    9000005    1    3    3    0    0 -0.27385663314E+02  0.31905196060E+02 -0.31459930482E+03  0.31739823359E+03  0.10000000000E+01 0.  0.
    9000005    1    3    3    0    0 -0.26848111861E+02 -0.54708000132E+02 -0.79229086732E+02  0.99960164932E+02  0.10000000000E+01 0.  0.
          4    1    1    2  501    0  0.54233775174E+02  0.22802804072E+02 -0.78752171635E+02  0.98309652021E+02  0.12700000000E+01 0.  1.
<mgrwt>
<rscale>  1 0.13815654E+03</rscale>
<asrwt>0</asrwt>
<pdfrwt beam="1">  1       21 0.33142969E-02 0.13815654E+03</pdfrwt>
<pdfrwt beam="2">  1        4 0.76021995E-01 0.13815654E+03</pdfrwt>
<totfact> 0.34629122E+04</totfact>
</mgrwt>
</event>
<event>
 6    4  0.6195789E-003  0.1502811E+03  0.7818608E-02  0.1200128E+00
         21   -1    0    0  501  502  0.00000000000E+00  0.00000000000E+00  0.27675242275E+03  0.27675242275E+03  0.00000000000E+00 0.  1.
         -4   -1    0    0    0  501 -0.00000000000E+00 -0.00000000000E+00 -0.15700735334E+03  0.15701248964E+03  0.12700000000E+01 0. -1.
         25    2    1    2    0    0 -0.20661581040E+02 -0.80826653201E+02 -0.11202078562E+03  0.18743815124E+03  0.12499822132E+03 0.  0.
    9000005    1    3    3    0    0  0.31672595273E+02 -0.46734319915E+02 -0.11148502241E+03  0.12496863675E+03  0.10000000000E+01 0.  0.
    9000005    1    3    3    0    0 -0.52334176313E+02 -0.34092333286E+02 -0.53576321049E+00  0.62469514497E+02  0.10000000000E+01 0.  0.
         -4    1    1    2    0  502  0.20661581040E+02  0.80826653201E+02  0.23176585503E+03  0.24632676114E+03  0.12700000000E+01 0.  1.
<mgrwt>
<rscale>  1 0.15028108E+03</rscale>
<asrwt>0</asrwt>
<pdfrwt beam="1">  1       21 0.42577296E-01 0.15028108E+03</pdfrwt>
<pdfrwt beam="2">  1       -4 0.24155597E-01 0.15028108E+03</pdfrwt>
<totfact> 0.35285498E+03</totfact>
</mgrwt>
</event>
<event>
 6    4  0.6195789E-003  0.1268134E+03  0.7818608E-02  0.1232262E+00
         -4   -1    0    0    0  501 -0.00000000000E+00  0.00000000000E+00  0.24825746390E+03  0.24826071233E+03  0.12700000000E+01 0.  1.
         21   -1    0    0  501  502  0.00000000000E+00 -0.00000000000E+00 -0.22711775837E+02  0.22711775837E+02  0.00000000000E+00 0.  1.
         25    2    1    2    0    0  0.11671886453E+02 -0.17916879442E+02  0.20638632403E+03  0.24223328789E+03  0.12499761402E+03 0.  0.
    9000005    1    3    3    0    0  0.12106397897E+02 -0.22984567271E+02 -0.84487940242E+01  0.27335641992E+02  0.10000000000E+01 0.  0.
    9000005    1    3    3    0    0 -0.43451144311E+00  0.50676878289E+01  0.21483511806E+03  0.21489764589E+03  0.10000000000E+01 0.  0.
         -4    1    1    2    0  502 -0.11671886453E+02  0.17916879442E+02  0.19159364036E+02  0.28739200277E+02  0.12700000000E+01 0. -1.
<mgrwt>
<rscale>  1 0.12681345E+03</rscale>
<asrwt>0</asrwt>
<pdfrwt beam="2">  1       21 0.34941195E-02 0.12681345E+03</pdfrwt>
<pdfrwt beam="1">  1       -4 0.38196435E-01 0.12681345E+03</pdfrwt>
<totfact> 0.12989954E+05</totfact>
</mgrwt>
</event>
<event>
 6    4  0.6195789E-003  0.1296125E+03  0.7818608E-02  0.1228032E+00
         21   -1    0    0  501  502  0.00000000000E+00  0.00000000000E+00  0.21917346308E+02  0.21917346308E+02  0.00000000000E+00 0.  1.
         -4   -1    0    0    0  501 -0.00000000000E+00 -0.00000000000E+00 -0.46154380873E+03  0.46154555602E+03  0.12700000000E+01 0. -1.
         25    2    1    2    0    0 -0.18466733230E+02 -0.28887625257E+02 -0.42806615972E+03  0.44725836355E+03  0.12499556610E+03 0.  0.
    9000005    1    3    3    0    0  0.17004055966E+02  0.24510469309E+02 -0.24455442665E+02  0.38587170161E+02  0.10000000000E+01 0.  0.
    9000005    1    3    3    0    0 -0.35470789196E+02 -0.53398094566E+02 -0.40361071705E+03  0.40867119339E+03  0.10000000000E+01 0.  0.
         -4    1    1    2    0  502  0.18466733230E+02  0.28887625257E+02 -0.11560302711E+02  0.36204538776E+02  0.12700000000E+01 0.  1.
<mgrwt>
<rscale>  1 0.12961253E+03</rscale>
<asrwt>0</asrwt>
<pdfrwt beam="1">  1       21 0.33718993E-02 0.12961253E+03</pdfrwt>
<pdfrwt beam="2">  1       -4 0.71009707E-01 0.12961253E+03</pdfrwt>
<totfact> 0.38742510E+04</totfact>
</mgrwt>
</event>
<event>
 6    4  0.6195789E-003  0.1272457E+03  0.7818608E-02  0.1231601E+00
         -4   -1    0    0    0  501 -0.00000000000E+00  0.00000000000E+00  0.52064657568E+02  0.52080144659E+02  0.12700000000E+01 0.  1.
         21   -1    0    0  501  502  0.00000000000E+00 -0.00000000000E+00 -0.12040225412E+03  0.12040225412E+03  0.00000000000E+00 0.  1.
         25    2    1    2    0    0 -0.99910044267E+01  0.21554923169E+02 -0.35821542579E+02  0.13219168585E+03  0.12500809579E+03 0.  0.
    9000005    1    3    3    0    0  0.11687262438E+01 -0.50734070881E+02 -0.29642177454E+02  0.58778997554E+02  0.10000000000E+01 0.  0.
    9000005    1    3    3    0    0 -0.11159730670E+02  0.72288994051E+02 -0.61793651249E+01  0.73412688296E+02  0.10000000000E+01 0.  0.
         -4    1    1    2    0  502  0.99910044267E+01 -0.21554923169E+02 -0.32516053969E+02  0.40290712925E+02  0.12700000000E+01 0. -1.
<mgrwt>
<rscale>  1 0.12724566E+03</rscale>
<asrwt>0</asrwt>
<pdfrwt beam="2">  1       21 0.18523424E-01 0.12724566E+03</pdfrwt>
<pdfrwt beam="1">  1       -4 0.80116538E-02 0.12724566E+03</pdfrwt>
<totfact> 0.11718793E+05</totfact>
</mgrwt>
</event>
<event>
 6    4  0.6195789E-003  0.1276390E+03  0.7818608E-02  0.1231002E+00
         21   -1    0    0  501  502  0.00000000000E+00  0.00000000000E+00  0.43111985706E+02  0.43111985706E+02  0.00000000000E+00 0. -1.
         -4   -1    0    0    0  501 -0.00000000000E+00 -0.00000000000E+00 -0.39781574041E+03  0.39781776760E+03  0.12700000000E+01 0.  1.
         25    2    1    2    0    0 -0.22037147726E+02 -0.13512580798E+02 -0.38233060199E+03  0.40307369289E+03  0.12499394770E+03 0.  0.
    9000005    1    3    3    0    0  0.16674652403E+02 -0.33679330327E+02 -0.30133441046E+02  0.48180552024E+02  0.10000000000E+01 0.  0.
    9000005    1    3    3    0    0 -0.38711800129E+02  0.20166749529E+02 -0.35219716094E+03  0.35489314086E+03  0.10000000000E+01 0.  0.
         -4    1    1    2    0  502  0.22037147726E+02  0.13512580798E+02  0.27626847284E+02  0.37856060420E+02  0.12700000000E+01 0. -1.
<mgrwt>
<rscale>  1 0.12763899E+03</rscale>
<asrwt>0</asrwt>
<pdfrwt beam="1">  1       21 0.66326127E-02 0.12763899E+03</pdfrwt>
<pdfrwt beam="2">  1       -4 0.61204021E-01 0.12763899E+03</pdfrwt>
<totfact> 0.17091708E+04</totfact>
</mgrwt>
</event>
<event>
 6    4  0.6195789E-003  0.1278564E+03  0.7818608E-02  0.1230672E+00
         21   -1    0    0  501  502  0.00000000000E+00  0.00000000000E+00  0.16922306549E+02  0.16922306549E+02  0.00000000000E+00 0.  1.
          4   -1    0    0  502    0 -0.00000000000E+00 -0.00000000000E+00 -0.35389207041E+03  0.35389434921E+03  0.12700000000E+01 0.  1.
         25    2    1    2    0    0  0.20076310419E+02 -0.17884928956E+02 -0.27946253352E+03  0.30732159008E+03  0.12499729262E+03 0.  0.
    9000005    1    3    3    0    0  0.55741729716E+02 -0.31410372186E+02 -0.25279768882E+03  0.26077082541E+03  0.10000000000E+01 0.  0.
    9000005    1    3    3    0    0 -0.35665419297E+02  0.13525443231E+02 -0.26664844702E+02  0.46550764668E+02  0.10000000000E+01 0.  0.
          4    1    1    2  501    0 -0.20076310419E+02  0.17884928956E+02 -0.57507230338E+02  0.63495065674E+02  0.12700000000E+01 0. -1.
<mgrwt>
<rscale>  1 0.12785637E+03</rscale>
<asrwt>0</asrwt>
<pdfrwt beam="1">  1       21 0.26034318E-02 0.12785637E+03</pdfrwt>
<pdfrwt beam="2">  1        4 0.54448775E-01 0.12785637E+03</pdfrwt>
<totfact> 0.10349741E+05</totfact>
</mgrwt>
</event>
<event>
 6    4  0.6195789E-003  0.1266237E+03  0.7818608E-02  0.1232553E+00
          4   -1    0    0  502    0 -0.00000000000E+00  0.00000000000E+00  0.15524431467E+03  0.15524950930E+03  0.12700000000E+01 0. -1.
         21   -1    0    0  501  502  0.00000000000E+00 -0.00000000000E+00 -0.55461947852E+02  0.55461947852E+02  0.00000000000E+00 0.  1.
         25    2    1    2    0    0 -0.18913176700E+02  0.71193592476E+01  0.12529777018E+03  0.17813781386E+03  0.12500062393E+03 0.  0.
    9000005    1    3    3    0    0  0.25087830132E+02 -0.40481716896E+02  0.95638749911E+02  0.10684539816E+03  0.10000000000E+01 0.  0.
    9000005    1    3    3    0    0 -0.44001006832E+02  0.47601076143E+02  0.29659020273E+02  0.71292415697E+02  0.10000000000E+01 0.  0.
          4    1    1    2  501    0  0.18913176700E+02 -0.71193592476E+01 -0.25515403361E+02  0.32573643298E+02  0.12700000000E+01 0.  1.
<mgrwt>
<rscale>  1 0.12662365E+03</rscale>
<asrwt>0</asrwt>
<pdfrwt beam="2">  1       21 0.85326074E-02 0.12662365E+03</pdfrwt>
<pdfrwt beam="1">  1        4 0.23885259E-01 0.12662365E+03</pdfrwt>
<totfact> 0.69898231E+04</totfact>
</mgrwt>
</event>
<event>
 6    4  0.6195789E-003  0.1348366E+03  0.7818608E-02  0.1220451E+00
         -4   -1    0    0    0  501 -0.00000000000E+00  0.00000000000E+00  0.24222668011E+02  0.24255938357E+02  0.12700000000E+01 0. -1.
         21   -1    0    0  501  502  0.00000000000E+00 -0.00000000000E+00 -0.66702266235E+03  0.66702266235E+03  0.00000000000E+00 0.  1.
         25    2    1    2    0    0 -0.65709102358E+01 -0.50127772637E+02 -0.17583260423E+03  0.22158069059E+03  0.12499970911E+03 0.  0.
    9000005    1    3    3    0    0  0.54225256310E+02  0.12507664023E+01 -0.58389966587E+02  0.79701512134E+02  0.10000000000E+01 0.  0.
    9000005    1    3    3    0    0 -0.60796166545E+02 -0.51378539039E+02 -0.11744263765E+03  0.14187917845E+03  0.10000000000E+01 0.  0.
         -4    1    1    2    0  502  0.65709102358E+01  0.50127772637E+02 -0.46696739011E+03  0.46969791013E+03  0.12700000000E+01 0.  1.
<mgrwt>
<rscale>  1 0.13483656E+03</rscale>
<asrwt>0</asrwt>
<pdfrwt beam="2">  1       21 0.10261886E+00 0.13483656E+03</pdfrwt>
<pdfrwt beam="1">  1       -4 0.37292169E-02 0.13483656E+03</pdfrwt>
<totfact> 0.12200513E+04</totfact>
</mgrwt>
</event>
<event>
 6    4  0.6195789E-003  0.1273739E+03  0.7818608E-02  0.1231405E+00
         21   -1    0    0  501  502  0.00000000000E+00  0.00000000000E+00  0.18527754138E+04  0.18527754138E+04  0.00000000000E+00 0.  1.
          4   -1    0    0  502    0 -0.00000000000E+00 -0.00000000000E+00 -0.29974519173E+01  0.32553982854E+01  0.12700000000E+01 0.  1.
         25    2    1    2    0    0  0.67200706818E+01  0.23548100609E+02  0.15035698753E+04  0.15089554247E+04  0.12499772607E+03 0.  0.
    9000005    1    3    3    0    0  0.19713445616E+00  0.73327980854E+02  0.70372384400E+03  0.70753464950E+03  0.10000000000E+01 0.  0.
    9000005    1    3    3    0    0  0.65229362257E+01 -0.49779880246E+02  0.79984603131E+03  0.80142077523E+03  0.10000000000E+01 0.  0.
          4    1    1    2  501    0 -0.67200706818E+01 -0.23548100609E+02  0.34620808655E+03  0.34707538732E+03  0.12700000000E+01 0. -1.
<mgrwt>
<rscale>  1 0.12737387E+03</rscale>
<asrwt>0</asrwt>
<pdfrwt beam="1">  1       21 0.28504149E+00 0.12737387E+03</pdfrwt>
<pdfrwt beam="2">  1        4 0.48102344E-03 0.12737387E+03</pdfrwt>
<totfact> 0.15631284E+04</totfact>
</mgrwt>
</event>
<event>
 6    4  0.6195789E-003  0.1351619E+03  0.7818608E-02  0.1219991E+00
         -4   -1    0    0    0  501 -0.00000000000E+00  0.00000000000E+00  0.11580738541E+03  0.11581434891E+03  0.12700000000E+01 0.  1.
         21   -1    0    0  501  502  0.00000000000E+00 -0.00000000000E+00 -0.10194106239E+03  0.10194106239E+03  0.00000000000E+00 0. -1.
         25    2    1    2    0    0 -0.29853532846E+02 -0.41859707986E+02  0.60727755374E+02  0.14817757490E+03  0.12500105941E+03 0.  0.
    9000005    1    3    3    0    0 -0.75262031969E+02 -0.28920251320E+02  0.14186640116E+02  0.81871943609E+02  0.10000000000E+01 0.  0.
    9000005    1    3    3    0    0  0.45408499124E+02 -0.12939456666E+02  0.46541115258E+02  0.66305631291E+02  0.10000000000E+01 0.  0.
         -4    1    1    2    0  502  0.29853532846E+02  0.41859707986E+02 -0.46861432361E+02  0.69577836406E+02  0.12700000000E+01 0. -1.
<mgrwt>
<rscale>  1 0.13516188E+03</rscale>
<asrwt>0</asrwt>
<pdfrwt beam="2">  1       21 0.15683240E-01 0.13516188E+03</pdfrwt>
<pdfrwt beam="1">  1       -4 0.17817665E-01 0.13516188E+03</pdfrwt>
<totfact> 0.40744751E+04</totfact>
</mgrwt>
</event>
<event>
 6    4  0.6195789E-003  0.1303345E+03  0.7818608E-02  0.1226960E+00
         21   -1    0    0  501  502  0.00000000000E+00  0.00000000000E+00  0.39811218073E+03  0.39811218073E+03  0.00000000000E+00 0.  1.
          4   -1    0    0  502    0 -0.00000000000E+00 -0.00000000000E+00 -0.32992473934E+02  0.33016908340E+02  0.12700000000E+01 0. -1.
         25    2    1    2    0    0 -0.31785697448E+01  0.36750961956E+02  0.10218559537E+03  0.16561694931E+03  0.12500536583E+03 0.  0.
    9000005    1    3    3    0    0  0.10517229822E+02 -0.43737480888E+02  0.18360348121E+02  0.48597137165E+02  0.10000000000E+01 0.  0.
    9000005    1    3    3    0    0 -0.13695799566E+02  0.80488442844E+02  0.83825247249E+02  0.11701981214E+03  0.10000000000E+01 0.  0.
          4    1    1    2  501    0  0.31785697448E+01 -0.36750961956E+02  0.26293411143E+03  0.26551213977E+03  0.12700000000E+01 0.  1.
<mgrwt>
<rscale>  1 0.13033449E+03</rscale>
<asrwt>0</asrwt>
<pdfrwt beam="1">  1       21 0.61248024E-01 0.13033449E+03</pdfrwt>
<pdfrwt beam="2">  1        4 0.50778009E-02 0.13033449E+03</pdfrwt>
<totfact> 0.23587764E+04</totfact>
</mgrwt>
</event>
<event>
 6    4  0.6195789E-003  0.1391891E+03  0.7818608E-02  0.1214424E+00
         21   -1    0    0  501  502  0.00000000000E+00  0.00000000000E+00  0.86851927955E+02  0.86851927955E+02  0.00000000000E+00 0. -1.
          4   -1    0    0  502    0 -0.00000000000E+00 -0.00000000000E+00 -0.12196178366E+03  0.12196839580E+03  0.12700000000E+01 0. -1.
         25    2    1    2    0    0  0.22600692982E+02 -0.56903569684E+02 -0.46052326323E+02  0.14660972876E+03  0.12499915296E+03 0.  0.
    9000005    1    3    3    0    0 -0.19002536655E+02 -0.66589976953E+02 -0.69294543298E+02  0.97969664493E+02  0.10000000000E+01 0.  0.
    9000005    1    3    3    0    0  0.41603229637E+02  0.96864072700E+01  0.23242216975E+02  0.48640064267E+02  0.10000000000E+01 0.  0.
          4    1    1    2  501    0 -0.22600692982E+02  0.56903569684E+02  0.10942470619E+02  0.62210594992E+02  0.12700000000E+01 0.  1.
<mgrwt>
<rscale>  1 0.13918906E+03</rscale>
<asrwt>0</asrwt>
<pdfrwt beam="1">  1       21 0.13361835E-01 0.13918906E+03</pdfrwt>
<pdfrwt beam="2">  1        4 0.18764574E-01 0.13918906E+03</pdfrwt>
<totfact> 0.49742656E+04</totfact>
</mgrwt>
</event>
<event>
 6    4  0.6195789E-003  0.1285275E+03  0.7818608E-02  0.1229657E+00
         -4   -1    0    0    0  501 -0.00000000000E+00  0.00000000000E+00  0.18809794451E+03  0.18810223186E+03  0.12700000000E+01 0.  1.
         21   -1    0    0  501  502  0.00000000000E+00 -0.00000000000E+00 -0.73951773837E+02  0.73951773837E+02  0.00000000000E+00 0.  1.
         25    2    1    2    0    0  0.18363389799E+02 -0.23633237085E+02  0.16126588813E+03  0.20621831233E+03  0.12499424662E+03 0.  0.
    9000005    1    3    3    0    0  0.54179060837E+02 -0.48414236793E+02  0.54273858132E+02  0.90697081728E+02  0.10000000000E+01 0.  0.
    9000005    1    3    3    0    0 -0.35815671038E+02  0.24780999708E+02  0.10699202999E+03  0.11552123061E+03  0.10000000000E+01 0.  0.
         -4    1    1    2    0  502 -0.18363389799E+02  0.23633237085E+02 -0.47119717452E+02  0.55835693358E+02  0.12700000000E+01 0. -1.
<mgrwt>
<rscale>  1 0.12852745E+03</rscale>
<asrwt>0</asrwt>
<pdfrwt beam="2">  1       21 0.11377196E-01 0.12852745E+03</pdfrwt>
<pdfrwt beam="1">  1       -4 0.28939314E-01 0.12852745E+03</pdfrwt>
<totfact> 0.29668067E+04</totfact>
</mgrwt>
</event>
<event>
 6    4  0.6195789E-003  0.1638365E+03  0.7818608E-02  0.1184432E+00
         21   -1    0    0  501  502  0.00000000000E+00  0.00000000000E+00  0.89300110473E+03  0.89300110473E+03  0.00000000000E+00 0.  1.
          4   -1    0    0  502    0 -0.00000000000E+00 -0.00000000000E+00 -0.20440866970E+02  0.20480281797E+02  0.12700000000E+01 0.  1.
         25    2    1    2    0    0 -0.10566759708E+03  0.72035897381E+01  0.50010902842E+03  0.52626174729E+03  0.12499941426E+03 0.  0.
    9000005    1    3    3    0    0  0.48275665638E+01 -0.27016123662E+02  0.24549454913E+02  0.36835473028E+02  0.10000000000E+01 0.  0.
    9000005    1    3    3    0    0 -0.11049516365E+03  0.34219713400E+02  0.47555957351E+03  0.48942627426E+03  0.10000000000E+01 0.  0.
          4    1    1    2  501    0  0.10566759708E+03 -0.72035897381E+01  0.37245120933E+03  0.38721963924E+03  0.12700000000E+01 0. -1.
<mgrwt>
<rscale>  1 0.16383646E+03</rscale>
<asrwt>0</asrwt>
<pdfrwt beam="1">  1       21 0.13738476E+00 0.16383646E+03</pdfrwt>
<pdfrwt beam="2">  1        4 0.31478508E-02 0.16383646E+03</pdfrwt>
<totfact> 0.78846211E+03</totfact>
</mgrwt>
</event>
<event>
 6    4  0.6195789E-003  0.1346829E+03  0.7818608E-02  0.1220668E+00
         21   -1    0    0  501  502  0.00000000000E+00  0.00000000000E+00  0.64711116823E+03  0.64711116823E+03  0.00000000000E+00 0. -1.
         -4   -1    0    0    0  501 -0.00000000000E+00 -0.00000000000E+00 -0.13228968271E+02  0.13289789371E+02  0.12700000000E+01 0.  1.
         25    2    1    2    0    0  0.15075832648E+02 -0.47837231784E+02  0.48070309276E+03  0.49921431654E+03  0.12499515580E+03 0.  0.
    9000005    1    3    3    0    0  0.26704244159E+02 -0.86525964579E+02  0.27335329545E+03  0.28796333679E+03  0.10000000000E+01 0.  0.
    9000005    1    3    3    0    0 -0.11628411511E+02  0.38688732796E+02  0.20734979731E+03  0.21125097975E+03  0.10000000000E+01 0.  0.
         -4    1    1    2    0  502 -0.15075832648E+02  0.47837231784E+02  0.15317910720E+03  0.16118664106E+03  0.12700000000E+01 0. -1.
<mgrwt>
<rscale>  1 0.13468285E+03</rscale>
<asrwt>0</asrwt>
<pdfrwt beam="1">  1       21 0.99555540E-01 0.13468285E+03</pdfrwt>
<pdfrwt beam="2">  1       -4 0.20400008E-02 0.13468285E+03</pdfrwt>
<totfact> 0.33595560E+04</totfact>
</mgrwt>
</event>
<event>
 6    4  0.6195789E-003  0.1271821E+03  0.7818608E-02  0.1231698E+00
         -4   -1    0    0    0  501 -0.00000000000E+00  0.00000000000E+00  0.22246750969E+03  0.22247113468E+03  0.12700000000E+01 0.  1.
         21   -1    0    0  501  502  0.00000000000E+00 -0.00000000000E+00 -0.31364502117E+02  0.31364502117E+02  0.00000000000E+00 0.  1.
         25    2    1    2    0    0  0.19941457618E+02  0.12278390278E+02  0.19207225765E+03  0.23036282390E+03  0.12500743129E+03 0.  0.
    9000005    1    3    3    0    0  0.18100170081E+01  0.17415776522E+02 -0.14606661950E+02  0.22824110208E+02  0.10000000000E+01 0.  0.
    9000005    1    3    3    0    0  0.18131440610E+02 -0.51373862443E+01  0.20667891960E+03  0.20753871369E+03  0.10000000000E+01 0.  0.
         -4    1    1    2    0  502 -0.19941457618E+02 -0.12278390278E+02 -0.96925007299E+00  0.23472812900E+02  0.12700000000E+01 0. -1.
<mgrwt>
<rscale>  1 0.12718207E+03</rscale>
<asrwt>0</asrwt>
<pdfrwt beam="2">  1       21 0.48253082E-02 0.12718207E+03</pdfrwt>
<pdfrwt beam="1">  1       -4 0.34228026E-01 0.12718207E+03</pdfrwt>
<totfact> 0.93959374E+04</totfact>
</mgrwt>
</event>
<event>
 6    4  0.6195789E-003  0.1878436E+03  0.7818608E-02  0.1160421E+00
         -4   -1    0    0    0  501 -0.00000000000E+00  0.00000000000E+00  0.33857570381E+04  0.33857572763E+04  0.12700000000E+01 0.  1.
         21   -1    0    0  501  502  0.00000000000E+00 -0.00000000000E+00 -0.20569013911E+02  0.20569013911E+02  0.00000000000E+00 0. -1.
         25    2    1    2    0    0 -0.68276008301E+02 -0.12246990506E+03  0.31056972855E+04  0.31113728239E+04  0.12499891507E+03 0.  0.
    9000005    1    3    3    0    0  0.32566749027E+02 -0.49291998616E+02  0.13282505140E+04  0.13295641098E+04  0.10000000000E+01 0.  0.
    9000005    1    3    3    0    0 -0.10084275733E+03 -0.73177906440E+02  0.17774467716E+04  0.17818087140E+04  0.10000000000E+01 0.  0.
         -4    1    1    2    0  502  0.68276008301E+02  0.12246990506E+03  0.25949073866E+03  0.29495346633E+03  0.12700000000E+01 0. -1.
<mgrwt>
<rscale>  1 0.18784360E+03</rscale>
<asrwt>0</asrwt>
<pdfrwt beam="2">  1       21 0.31644664E-02 0.18784360E+03</pdfrwt>
<pdfrwt beam="1">  1       -4 0.52088829E+00 0.18784360E+03</pdfrwt>
<totfact> 0.28232981E+01</totfact>
</mgrwt>
</event>
<event>
 6    4  0.6195789E-003  0.1268739E+03  0.7818608E-02  0.1232169E+00
         -4   -1    0    0    0  501 -0.00000000000E+00  0.00000000000E+00  0.16799583331E+03  0.16800063365E+03  0.12700000000E+01 0.  1.
         21   -1    0    0  501  502  0.00000000000E+00 -0.00000000000E+00 -0.75426795294E+02  0.75426795294E+02  0.00000000000E+00 0. -1.
         25    2    1    2    0    0 -0.16863702406E+02  0.13695022701E+02  0.14139446898E+03  0.18997208577E+03  0.12500023763E+03 0.  0.
    9000005    1    3    3    0    0  0.23079790327E+02  0.20355877755E+02 -0.10684080481E+02  0.32591226679E+02  0.10000000000E+01 0.  0.
    9000005    1    3    3    0    0 -0.39943492733E+02 -0.66608550541E+01  0.15207854946E+03  0.15738085909E+03  0.10000000000E+01 0.  0.
         -4    1    1    2    0  502  0.16863702406E+02 -0.13695022701E+02 -0.48825430965E+02  0.53455343181E+02  0.12700000000E+01 0. -1.
<mgrwt>
<rscale>  1 0.12687394E+03</rscale>
<asrwt>0</asrwt>
<pdfrwt beam="2">  1       21 0.11604122E-01 0.12687394E+03</pdfrwt>
<pdfrwt beam="1">  1       -4 0.25846704E-01 0.12687394E+03</pdfrwt>
<totfact> 0.35319327E+04</totfact>
</mgrwt>
</event>
<event>
 6    4  0.6195789E-003  0.1280405E+03  0.7818608E-02  0.1230393E+00
         21   -1    0    0  501  502  0.00000000000E+00  0.00000000000E+00  0.28089968354E+02  0.28089968354E+02  0.00000000000E+00 0.  1.
          4   -1    0    0  502    0 -0.00000000000E+00 -0.00000000000E+00 -0.21626954593E+03  0.21627327481E+03  0.12700000000E+01 0.  1.
         25    2    1    2    0    0 -0.85808800369E+01  0.26454069812E+02 -0.15350212398E+03  0.19989316334E+03  0.12498370042E+03 0.  0.
    9000005    1    3    3    0    0  0.30882514826E+01  0.68506769980E+02 -0.13703126913E+03  0.15323603868E+03  0.10000000000E+01 0.  0.
    9000005    1    3    3    0    0 -0.11669131519E+02 -0.42052700168E+02 -0.16470854849E+02  0.46657124657E+02  0.10000000000E+01 0.  0.
          4    1    1    2  501    0  0.85808800369E+01 -0.26454069812E+02 -0.34677453595E+02  0.44470079826E+02  0.12700000000E+01 0. -1.
<mgrwt>
<rscale>  1 0.12804052E+03</rscale>
<asrwt>0</asrwt>
<pdfrwt beam="1">  1       21 0.43215338E-02 0.12804052E+03</pdfrwt>
<pdfrwt beam="2">  1        4 0.33274732E-01 0.12804052E+03</pdfrwt>
<totfact> 0.11938592E+05</totfact>
</mgrwt>
</event>
<event>
 6    4  0.6195789E-003  0.1279795E+03  0.7818608E-02  0.1230485E+00
         21   -1    0    0  501  502  0.00000000000E+00  0.00000000000E+00  0.21887773885E+03  0.21887773885E+03  0.00000000000E+00 0. -1.
         -4   -1    0    0    0  501 -0.00000000000E+00 -0.00000000000E+00 -0.27592289376E+02  0.27621501280E+02  0.12700000000E+01 0. -1.
         25    2    1    2    0    0  0.22817160213E+02 -0.15267221834E+02  0.15639460152E+03  0.20208420851E+03  0.12500018033E+03 0.  0.
    9000005    1    3    3    0    0  0.20438272690E+02  0.22400741909E+02  0.16119371574E+03  0.16402417572E+03  0.10000000000E+01 0.  0.
    9000005    1    3    3    0    0  0.23788875231E+01 -0.37667963743E+02 -0.47991142203E+01  0.38060032786E+02  0.10000000000E+01 0.  0.
         -4    1    1    2    0  502 -0.22817160213E+02  0.15267221834E+02  0.34890847958E+02  0.44415031622E+02  0.12700000000E+01 0.  1.
<mgrwt>
<rscale>  1 0.12797951E+03</rscale>
<asrwt>0</asrwt>
<pdfrwt beam="1">  1       21 0.33673497E-01 0.12797951E+03</pdfrwt>
<pdfrwt beam="2">  1       -4 0.42474982E-02 0.12797951E+03</pdfrwt>
<totfact> 0.10595018E+05</totfact>
</mgrwt>
</event>
<event>
 6    4  0.6195789E-003  0.1856183E+03  0.7818608E-02  0.1162474E+00
          4   -1    0    0  502    0 -0.00000000000E+00  0.00000000000E+00  0.16775074077E+03  0.16775554813E+03  0.12700000000E+01 0.  1.
         21   -1    0    0  501  502  0.00000000000E+00 -0.00000000000E+00 -0.87302798315E+03  0.87302798315E+03  0.00000000000E+00 0. -1.
         25    2    1    2    0    0 -0.54224277149E+02  0.12610554182E+03  0.10883917974E+03  0.21517463988E+03  0.12494510271E+03 0.  0.
    9000005    1    3    3    0    0 -0.11798973409E+02  0.13747859806E+03  0.99862499146E+02  0.17033232058E+03  0.10000000000E+01 0.  0.
    9000005    1    3    3    0    0 -0.42425303740E+02 -0.11373056241E+02  0.89766805903E+01  0.44842319299E+02  0.10000000000E+01 0.  0.
          4    1    1    2  501    0  0.54224277149E+02 -0.12610554182E+03 -0.81411642212E+03  0.82560889141E+03  0.12700000000E+01 0. -1.
<mgrwt>
<rscale>  1 0.18561831E+03</rscale>
<asrwt>0</asrwt>
<pdfrwt beam="2">  1       21 0.13431200E+00 0.18561831E+03</pdfrwt>
<pdfrwt beam="1">  1        4 0.25808247E-01 0.18561831E+03</pdfrwt>
<totfact> 0.23666929E+02</totfact>
</mgrwt>
</event>
<event>
 6    4  0.6195789E-003  0.1493493E+03  0.7818608E-02  0.1201275E+00
         -4   -1    0    0    0  501 -0.00000000000E+00  0.00000000000E+00  0.32768810544E+03  0.32769056646E+03  0.12700000000E+01 0. -1.
         21   -1    0    0  501  502  0.00000000000E+00 -0.00000000000E+00 -0.50239075876E+02  0.50239075876E+02  0.00000000000E+00 0.  1.
         25    2    1    2    0    0 -0.14540640038E+02  0.80434230088E+02  0.25088621044E+03  0.29197446889E+03  0.12499641719E+03 0.  0.
    9000005    1    3    3    0    0 -0.59544723189E+02  0.85340666546E+02  0.17410780277E+03  0.20283769475E+03  0.10000000000E+01 0.  0.
    9000005    1    3    3    0    0  0.45004083151E+02 -0.49064364579E+01  0.76778407669E+02  0.89136774135E+02  0.10000000000E+01 0.  0.
         -4    1    1    2    0  502  0.14540640038E+02 -0.80434230088E+02  0.26562819122E+02  0.85955173447E+02  0.12700000000E+01 0.  1.
<mgrwt>
<rscale>  1 0.14934925E+03</rscale>
<asrwt>0</asrwt>
<pdfrwt beam="2">  1       21 0.77290888E-02 0.14934925E+03</pdfrwt>
<pdfrwt beam="1">  1       -4 0.50414977E-01 0.14934925E+03</pdfrwt>
<totfact> 0.19970572E+04</totfact>
</mgrwt>
</event>
<event>
 6    4  0.6195789E-003  0.1310384E+03  0.7818608E-02  0.1225923E+00
          4   -1    0    0  502    0 -0.00000000000E+00  0.00000000000E+00  0.77078718497E+02  0.77089180468E+02  0.12700000000E+01 0. -1.
         21   -1    0    0  501  502  0.00000000000E+00 -0.00000000000E+00 -0.10146227495E+03  0.10146227495E+03  0.00000000000E+00 0. -1.
         25    2    1    2    0    0 -0.31410229857E+01  0.39194197545E+02 -0.38785284115E+02  0.13665785439E+03  0.12500007903E+03 0.  0.
    9000005    1    3    3    0    0  0.23801981968E+02 -0.40455254765E+02 -0.13650059483E+02  0.48892597677E+02  0.10000000000E+01 0.  0.
    9000005    1    3    3    0    0 -0.26943004954E+02  0.79649452310E+02 -0.25135224631E+02  0.87765256716E+02  0.10000000000E+01 0.  0.
          4    1    1    2  501    0  0.31410229857E+01 -0.39194197545E+02  0.14401727666E+02  0.41893601020E+02  0.12700000000E+01 0.  1.
<mgrwt>
<rscale>  1 0.13103843E+03</rscale>
<asrwt>0</asrwt>
<pdfrwt beam="2">  1       21 0.15609581E-01 0.13103843E+03</pdfrwt>
<pdfrwt beam="1">  1        4 0.11859681E-01 0.13103843E+03</pdfrwt>
<totfact> 0.83144383E+04</totfact>
</mgrwt>
</event>
<event>
 6    4  0.6195789E-003  0.1266594E+03  0.7818608E-02  0.1232498E+00
         21   -1    0    0  501  502  0.00000000000E+00  0.00000000000E+00  0.23115303271E+03  0.23115303271E+03  0.00000000000E+00 0. -1.
          4   -1    0    0  502    0 -0.00000000000E+00 -0.00000000000E+00 -0.49415582059E+02  0.49431899116E+02  0.12700000000E+01 0.  1.
         25    2    1    2    0    0  0.20450353757E+02 -0.49704198236E+00  0.33605451726E+02  0.13104174066E+03  0.12499658951E+03 0.  0.
    9000005    1    3    3    0    0  0.42399294030E+02 -0.48717598364E+02 -0.60234106460E+01  0.64872074118E+02  0.10000000000E+01 0.  0.
    9000005    1    3    3    0    0 -0.21948940272E+02  0.48220556382E+02  0.39628862372E+02  0.66169666538E+02  0.10000000000E+01 0.  0.
          4    1    1    2  501    0 -0.20450353757E+02  0.49704198236E+00  0.14813199893E+03  0.14954319117E+03  0.12700000000E+01 0. -1.
<mgrwt>
<rscale>  1 0.12665943E+03</rscale>
<asrwt>0</asrwt>
<pdfrwt beam="1">  1       21 0.35562005E-01 0.12665943E+03</pdfrwt>
<pdfrwt beam="2">  1        4 0.76039209E-02 0.12665943E+03</pdfrwt>
<totfact> 0.37049337E+04</totfact>
</mgrwt>
</event>
<event>
 6    4  0.6195789E-003  0.1268148E+03  0.7818608E-02  0.1232260E+00
         -4   -1    0    0    0  501 -0.00000000000E+00  0.00000000000E+00  0.23423781739E+02  0.23458185159E+02  0.12700000000E+01 0.  1.
         21   -1    0    0  501  502  0.00000000000E+00 -0.00000000000E+00 -0.23539227177E+03  0.23539227177E+03  0.00000000000E+00 0.  1.
         25    2    1    2    0    0  0.18358198037E+02  0.10895844473E+02 -0.17458430024E+03  0.21578151907E+03  0.12500497278E+03 0.  0.
    9000005    1    3    3    0    0 -0.44524905695E+02  0.43033229507E+01 -0.13242705726E+03  0.13978165584E+03  0.10000000000E+01 0.  0.
    9000005    1    3    3    0    0  0.62883103732E+02  0.65925215223E+01 -0.42157242977E+02  0.75999863226E+02  0.10000000000E+01 0.  0.
         -4    1    1    2    0  502 -0.18358198037E+02 -0.10895844473E+02 -0.37384189797E+02  0.43068937864E+02  0.12700000000E+01 0. -1.
<mgrwt>
<rscale>  1 0.12681477E+03</rscale>
<asrwt>0</asrwt>
<pdfrwt beam="2">  1       21 0.36214197E-01 0.12681477E+03</pdfrwt>
<pdfrwt beam="1">  1       -4 0.36065686E-02 0.12681477E+03</pdfrwt>
<totfact> 0.11887995E+05</totfact>
</mgrwt>
</event>
<event>
 6    4  0.6195789E-003  0.1270485E+03  0.7818608E-02  0.1231902E+00
          4   -1    0    0  502    0 -0.00000000000E+00  0.00000000000E+00  0.60580906417E+02  0.60594216905E+02  0.12700000000E+01 0.  1.
         21   -1    0    0  501  502  0.00000000000E+00 -0.00000000000E+00 -0.14898129719E+03  0.14898129719E+03  0.00000000000E+00 0.  1.
         25    2    1    2    0    0 -0.21681207231E+02 -0.68594377800E+01 -0.94431266519E+01  0.12739894145E+03  0.12499676399E+03 0.  0.
    9000005    1    3    3    0    0  0.19371158825E+02 -0.32724718799E+02 -0.50918097321E+02  0.63559433992E+02  0.10000000000E+01 0.  0.
    9000005    1    3    3    0    0 -0.41052366056E+02  0.25865281019E+02  0.41474970669E+02  0.63839507462E+02  0.10000000000E+01 0.  0.
          4    1    1    2  501    0  0.21681207231E+02  0.68594377800E+01 -0.78957264120E+02  0.82176572640E+02  0.12700000000E+01 0. -1.
<mgrwt>
<rscale>  1 0.12704849E+03</rscale>
<asrwt>0</asrwt>
<pdfrwt beam="2">  1       21 0.22920199E-01 0.12704849E+03</pdfrwt>
<pdfrwt beam="1">  1        4 0.93215798E-02 0.12704849E+03</pdfrwt>
<totfact> 0.61365548E+04</totfact>
</mgrwt>
</event>
<event>
 6    4  0.6195789E-003  0.1323874E+03  0.7818608E-02  0.1223956E+00
         21   -1    0    0  501  502  0.00000000000E+00  0.00000000000E+00  0.52408805218E+03  0.52408805218E+03  0.00000000000E+00 0.  1.
          4   -1    0    0  502    0 -0.00000000000E+00 -0.00000000000E+00 -0.17283191919E+02  0.17329790042E+02  0.12700000000E+01 0.  1.
         25    2    1    2    0    0  0.42681398872E+02  0.89509070568E+01  0.45406742839E+03  0.47297319183E+03  0.12499836047E+03 0.  0.
    9000005    1    3    3    0    0  0.80538865129E+02  0.23788840243E+02  0.37221158324E+03  0.38156897203E+03  0.10000000000E+01 0.  0.
    9000005    1    3    3    0    0 -0.37857466257E+02 -0.14837933186E+02  0.81855845146E+02  0.91404219799E+02  0.10000000000E+01 0.  0.
          4    1    1    2  501    0 -0.42681398872E+02 -0.89509070568E+01  0.52737431872E+02  0.68444650392E+02  0.12700000000E+01 0. -1.
<mgrwt>
<rscale>  1 0.13238735E+03</rscale>
<asrwt>0</asrwt>
<pdfrwt beam="1">  1       21 0.80628919E-01 0.13238735E+03</pdfrwt>
<pdfrwt beam="2">  1        4 0.26626558E-02 0.13238735E+03</pdfrwt>
<totfact> 0.35965352E+04</totfact>
</mgrwt>
</event>
<event>
 6    4  0.6195789E-003  0.1294998E+03  0.7818608E-02  0.1228200E+00
         21   -1    0    0  501  502  0.00000000000E+00  0.00000000000E+00  0.17600727657E+03  0.17600727657E+03  0.00000000000E+00 0.  1.
          4   -1    0    0  502    0 -0.00000000000E+00 -0.00000000000E+00 -0.11000355031E+03  0.11001088119E+03  0.12700000000E+01 0.  1.
         25    2    1    2    0    0 -0.33815985638E+02  0.11829296288E+00 -0.69071292676E+02  0.14676871066E+03  0.12500670413E+03 0.  0.
    9000005    1    3    3    0    0 -0.25381480333E+02  0.61638815661E+02 -0.27979152774E+02  0.72300733952E+02  0.10000000000E+01 0.  0.
    9000005    1    3    3    0    0 -0.84345053055E+01 -0.61520522699E+02 -0.41092139902E+02  0.74467976706E+02  0.10000000000E+01 0.  0.
          4    1    1    2  501    0  0.33815985638E+02 -0.11829296288E+00  0.13507501894E+03  0.13924944711E+03  0.12700000000E+01 0. -1.
<mgrwt>
<rscale>  1 0.12949985E+03</rscale>
<asrwt>0</asrwt>
<pdfrwt beam="1">  1       21 0.27078043E-01 0.12949985E+03</pdfrwt>
<pdfrwt beam="2">  1        4 0.16924539E-01 0.12949985E+03</pdfrwt>
<totfact> 0.16121659E+04</totfact>
</mgrwt>
</event>
<event>
 6    4  0.6195789E-003  0.1269752E+03  0.7818608E-02  0.1232014E+00
         21   -1    0    0  501  502  0.00000000000E+00  0.00000000000E+00  0.11566159217E+03  0.11566159217E+03  0.00000000000E+00 0. -1.
          4   -1    0    0  502    0 -0.00000000000E+00 -0.00000000000E+00 -0.70719470834E+02  0.70730873422E+02  0.12700000000E+01 0.  1.
         25    2    1    2    0    0  0.27405459752E+01 -0.22172141151E+02 -0.97007805572E+01  0.12734524667E+03  0.12499436895E+03 0.  0.
    9000005    1    3    3    0    0  0.13135572303E+01  0.49105732357E+02 -0.23912581514E+02  0.54643480284E+02  0.10000000000E+01 0.  0.
    9000005    1    3    3    0    0  0.14269887448E+01 -0.71277873508E+02  0.14211800957E+02  0.72701766383E+02  0.10000000000E+01 0.  0.
          4    1    1    2  501    0 -0.27405459752E+01  0.22172141151E+02  0.54642901891E+02  0.59047218923E+02  0.12700000000E+01 0. -1.
<mgrwt>
<rscale>  1 0.12697522E+03</rscale>
<asrwt>0</asrwt>
<pdfrwt beam="1">  1       21 0.17794091E-01 0.12697522E+03</pdfrwt>
<pdfrwt beam="2">  1        4 0.10881332E-01 0.12697522E+03</pdfrwt>
<totfact> 0.75535911E+04</totfact>
</mgrwt>
</event>
<event>
 6    4  0.6195789E-003  0.1271421E+03  0.7818608E-02  0.1231759E+00
          4   -1    0    0  502    0 -0.00000000000E+00  0.00000000000E+00  0.54966888720E+03  0.54967035435E+03  0.12700000000E+01 0.  1.
         21   -1    0    0  501  502  0.00000000000E+00 -0.00000000000E+00 -0.11388373408E+02  0.11388373408E+02  0.00000000000E+00 0.  1.
         25    2    1    2    0    0  0.23204211289E+02  0.13688105395E+01  0.50277741779E+03  0.51860414274E+03  0.12499926384E+03 0.  0.
    9000005    1    3    3    0    0  0.66519080208E+02 -0.12061284996E+02  0.40761024426E+03  0.41317959032E+03  0.10000000000E+01 0.  0.
    9000005    1    3    3    0    0 -0.43314868919E+02  0.13430095536E+02  0.95167173527E+02  0.10542455242E+03  0.10000000000E+01 0.  0.
          4    1    1    2  501    0 -0.23204211289E+02 -0.13688105395E+01  0.35503096001E+02  0.42454585024E+02  0.12700000000E+01 0. -1.
<mgrwt>
<rscale>  1 0.12714214E+03</rscale>
<asrwt>0</asrwt>
<pdfrwt beam="2">  1       21 0.17520579E-02 0.12714214E+03</pdfrwt>
<pdfrwt beam="1">  1        4 0.84569983E-01 0.12714214E+03</pdfrwt>
<totfact> 0.76337834E+04</totfact>
</mgrwt>
</event>
<event>
 6    4  0.6195789E-003  0.1573514E+03  0.7818608E-02  0.1191720E+00
          4   -1    0    0  502    0 -0.00000000000E+00  0.00000000000E+00  0.52509892222E+02  0.52525248035E+02  0.12700000000E+01 0. -1.
         21   -1    0    0  501  502  0.00000000000E+00 -0.00000000000E+00 -0.35672846800E+03  0.35672846800E+03  0.00000000000E+00 0.  1.
         25    2    1    2    0    0 -0.73745928333E+02  0.60792020652E+02 -0.10756821309E+03  0.19060534590E+03  0.12500138277E+03 0.  0.
    9000005    1    3    3    0    0 -0.22660153797E+02 -0.65266547145E+01  0.24366216647E+02  0.33923329812E+02  0.10000000000E+01 0.  0.
    9000005    1    3    3    0    0 -0.51085774537E+02  0.67318675367E+02 -0.13193442974E+03  0.15668201609E+03  0.10000000000E+01 0.  0.
          4    1    1    2  501    0  0.73745928333E+02 -0.60792020652E+02 -0.19665036269E+03  0.21864837014E+03  0.12700000000E+01 0.  1.
<mgrwt>
<rscale>  1 0.15735145E+03</rscale>
<asrwt>0</asrwt>
<pdfrwt beam="2">  1       21 0.54881304E-01 0.15735145E+03</pdfrwt>
<pdfrwt beam="1">  1        4 0.80797999E-02 0.15735145E+03</pdfrwt>
<totfact> 0.14143918E+04</totfact>
</mgrwt>
</event>
<event>
 6    4  0.6195789E-003  0.1269826E+03  0.7818608E-02  0.1232003E+00
         21   -1    0    0  501  502  0.00000000000E+00  0.00000000000E+00  0.25236516399E+02  0.25236516399E+02  0.00000000000E+00 0. -1.
          4   -1    0    0  502    0 -0.00000000000E+00 -0.00000000000E+00 -0.33081264158E+03  0.33081507936E+03  0.12700000000E+01 0.  1.
         25    2    1    2    0    0  0.21127788168E+02 -0.82189508797E+01 -0.30806531480E+03  0.33320988935E+03  0.12494261721E+03 0.  0.
    9000005    1    3    3    0    0  0.25958605540E+01 -0.24506125549E+02 -0.30752434737E+03  0.30851177110E+03  0.10000000000E+01 0.  0.
    9000005    1    3    3    0    0  0.18531927614E+02  0.16287174669E+02 -0.54096743175E+00  0.24698118260E+02  0.10000000000E+01 0.  0.
          4    1    1    2  501    0 -0.21127788168E+02  0.82189508797E+01  0.24891896143E+01  0.22841706403E+02  0.12700000000E+01 0. -1.
<mgrwt>
<rscale>  1 0.12698265E+03</rscale>
<asrwt>0</asrwt>
<pdfrwt beam="1">  1       21 0.38825409E-02 0.12698265E+03</pdfrwt>
<pdfrwt beam="2">  1        4 0.50896899E-01 0.12698265E+03</pdfrwt>
<totfact> 0.61558889E+04</totfact>
</mgrwt>
</event>
<event>
 6    4  0.6195789E-003  0.1313256E+03  0.7818608E-02  0.1225502E+00
          4   -1    0    0  502    0 -0.00000000000E+00  0.00000000000E+00  0.16850129395E+03  0.16850607989E+03  0.12700000000E+01 0.  1.
         21   -1    0    0  501  502  0.00000000000E+00 -0.00000000000E+00 -0.60175398430E+02  0.60175398430E+02  0.00000000000E+00 0. -1.
         25    2    1    2    0    0 -0.16862325426E+02  0.36554654145E+02  0.12841243975E+03  0.18367411318E+03  0.12500337760E+03 0.  0.
    9000005    1    3    3    0    0  0.40541634870E+02 -0.67050760134E+01  0.57576089387E+01  0.41505809990E+02  0.10000000000E+01 0.  0.
    9000005    1    3    3    0    0 -0.57403960296E+02  0.43259730158E+02  0.12265483081E+03  0.14216830319E+03  0.10000000000E+01 0.  0.
          4    1    1    2  501    0  0.16862325426E+02 -0.36554654145E+02 -0.20086544229E+02  0.45007365147E+02  0.12700000000E+01 0. -1.
<mgrwt>
<rscale>  1 0.13132565E+03</rscale>
<asrwt>0</asrwt>
<pdfrwt beam="2">  1       21 0.92577537E-02 0.13132565E+03</pdfrwt>
<pdfrwt beam="1">  1        4 0.25924675E-01 0.13132565E+03</pdfrwt>
<totfact> 0.52421571E+04</totfact>
</mgrwt>
</event>
<event>
 6    4  0.6195789E-003  0.1331220E+03  0.7818608E-02  0.1222895E+00
         -4   -1    0    0    0  501 -0.00000000000E+00  0.00000000000E+00  0.63434992755E+03  0.63435119885E+03  0.12700000000E+01 0.  1.
         21   -1    0    0  501  502  0.00000000000E+00 -0.00000000000E+00 -0.12730413485E+02  0.12730413485E+02  0.00000000000E+00 0.  1.
         25    2    1    2    0    0 -0.70777096268E+01 -0.45242718456E+02  0.43447303535E+03  0.45440983198E+03  0.12499791764E+03 0.  0.
    9000005    1    3    3    0    0  0.41982943573E+02  0.28208667437E+00  0.55645659873E+02  0.69714321245E+02  0.10000000000E+01 0.  0.
    9000005    1    3    3    0    0 -0.49060653200E+02 -0.45524805130E+02  0.37882737547E+03  0.38469551074E+03  0.10000000000E+01 0.  0.
         -4    1    1    2    0  502  0.70777096268E+01  0.45242718456E+02  0.18714647872E+03  0.19267178035E+03  0.12700000000E+01 0. -1.
<mgrwt>
<rscale>  1 0.13312204E+03</rscale>
<asrwt>0</asrwt>
<pdfrwt beam="2">  1       21 0.19585256E-02 0.13312204E+03</pdfrwt>
<pdfrwt beam="1">  1       -4 0.97597243E-01 0.13312204E+03</pdfrwt>
<totfact> 0.46441129E+04</totfact>
</mgrwt>
</event>
<event>
 6    4  0.6195789E-003  0.1272003E+03  0.7818608E-02  0.1231670E+00
         -4   -1    0    0    0  501 -0.00000000000E+00  0.00000000000E+00  0.32212257611E+02  0.32237283391E+02  0.12700000000E+01 0. -1.
         21   -1    0    0  501  502  0.00000000000E+00 -0.00000000000E+00 -0.33662024556E+03  0.33662024556E+03  0.00000000000E+00 0.  1.
         25    2    1    2    0    0  0.16354639394E+02  0.16936030232E+02 -0.96617695280E+02  0.15973382877E+03  0.12500245463E+03 0.  0.
    9000005    1    3    3    0    0 -0.28036761305E+02  0.87038457580E+01  0.19423605563E+02  0.35214959443E+02  0.10000000000E+01 0.  0.
    9000005    1    3    3    0    0  0.44391400699E+02  0.82321844740E+01 -0.11604130084E+03  0.12451886933E+03  0.10000000000E+01 0.  0.
         -4    1    1    2    0  502 -0.16354639394E+02 -0.16936030232E+02 -0.20779029267E+03  0.20912370018E+03  0.12700000000E+01 0.  1.
<mgrwt>
<rscale>  1 0.12720030E+03</rscale>
<asrwt>0</asrwt>
<pdfrwt beam="2">  1       21 0.51787733E-01 0.12720030E+03</pdfrwt>
<pdfrwt beam="1">  1       -4 0.49578410E-02 0.12720030E+03</pdfrwt>
<totfact> 0.34791215E+04</totfact>
</mgrwt>
</event>
<event>
 6    4  0.6195789E-003  0.1332810E+03  0.7818608E-02  0.1222667E+00
         21   -1    0    0  501  502  0.00000000000E+00  0.00000000000E+00  0.21267724093E+02  0.21267724093E+02  0.00000000000E+00 0. -1.
          4   -1    0    0  502    0 -0.00000000000E+00 -0.00000000000E+00 -0.86928987547E+03  0.86929080318E+03  0.12700000000E+01 0. -1.
         25    2    1    2    0    0  0.41741863882E+02  0.19924548975E+02 -0.83042807430E+03  0.84105564554E+03  0.12499776577E+03 0.  0.
    9000005    1    3    3    0    0  0.84918765558E+01  0.49492621362E+01 -0.77272426993E+03  0.77278742517E+03  0.10000000000E+01 0.  0.
    9000005    1    3    3    0    0  0.33249987326E+02  0.14975286838E+02 -0.57703804379E+02  0.68268220373E+02  0.10000000000E+01 0.  0.
          4    1    1    2  501    0 -0.41741863882E+02 -0.19924548975E+02 -0.17594077077E+02  0.49502881738E+02  0.12700000000E+01 0.  1.
<mgrwt>
<rscale>  1 0.13328095E+03</rscale>
<asrwt>0</asrwt>
<pdfrwt beam="1">  1       21 0.32719581E-02 0.13328095E+03</pdfrwt>
<pdfrwt beam="2">  1        4 0.13373987E+00 0.13328095E+03</pdfrwt>
<totfact> 0.95127860E+03</totfact>
</mgrwt>
</event>
<event>
 6    4  0.6195789E-003  0.1284061E+03  0.7818608E-02  0.1229840E+00
          4   -1    0    0  502    0 -0.00000000000E+00  0.00000000000E+00  0.18359342463E+02  0.18403215906E+02  0.12700000000E+01 0. -1.
         21   -1    0    0  501  502  0.00000000000E+00 -0.00000000000E+00 -0.34140429661E+03  0.34140429661E+03  0.00000000000E+00 0. -1.
         25    2    1    2    0    0  0.22015903504E+02  0.19514834992E+02 -0.27411659836E+03  0.30270124586E+03  0.12499042345E+03 0.  0.
    9000005    1    3    3    0    0 -0.49778971158E+02  0.10588922049E+02 -0.73245484699E+02  0.89196257032E+02  0.10000000000E+01 0.  0.
    9000005    1    3    3    0    0  0.71794874661E+02  0.89259129431E+01 -0.20087111366E+03  0.21350498882E+03  0.10000000000E+01 0.  0.
          4    1    1    2  501    0 -0.22015903504E+02 -0.19514834992E+02 -0.48928355786E+02  0.57106266659E+02  0.12700000000E+01 0.  1.
<mgrwt>
<rscale>  1 0.12840613E+03</rscale>
<asrwt>0</asrwt>
<pdfrwt beam="2">  1       21 0.52523739E-01 0.12840613E+03</pdfrwt>
<pdfrwt beam="1">  1        4 0.28280707E-02 0.12840613E+03</pdfrwt>
<totfact> 0.82186980E+04</totfact>
</mgrwt>
</event>
<event>
 6    4  0.6195789E-003  0.1352460E+03  0.7818608E-02  0.1219873E+00
         -4   -1    0    0    0  501 -0.00000000000E+00  0.00000000000E+00  0.20311322709E+04  0.20311326679E+04  0.12700000000E+01 0. -1.
         21   -1    0    0  501  502  0.00000000000E+00 -0.00000000000E+00 -0.52430539388E+01  0.52430539388E+01  0.00000000000E+00 0.  1.
         25    2    1    2    0    0 -0.50108424433E+02 -0.11949064632E+02  0.17807898922E+04  0.17859182879E+04  0.12505141546E+03 0.  0.
    9000005    1    3    3    0    0 -0.60683571987E+02 -0.60229757760E+02  0.11851412463E+04  0.11882217357E+04  0.10000000000E+01 0.  0.
    9000005    1    3    3    0    0  0.10575147554E+02  0.48280693128E+02  0.59564864594E+03  0.59769655218E+03  0.10000000000E+01 0.  0.
         -4    1    1    2    0  502  0.50108424433E+02  0.11949064632E+02  0.24509932474E+03  0.25045743397E+03  0.12700000000E+01 0.  1.
<mgrwt>
<rscale>  1 0.13524604E+03</rscale>
<asrwt>0</asrwt>
<pdfrwt beam="2">  1       21 0.80662530E-03 0.13524604E+03</pdfrwt>
<pdfrwt beam="1">  1       -4 0.31249312E+00 0.13524604E+03</pdfrwt>
<totfact> 0.68680147E+03</totfact>
</mgrwt>
</event>
<event>
 6    4  0.6195789E-003  0.1279988E+03  0.7818608E-02  0.1230456E+00
          4   -1    0    0  502    0 -0.00000000000E+00  0.00000000000E+00  0.19562464772E+03  0.19562877011E+03  0.12700000000E+01 0. -1.
         21   -1    0    0  501  502  0.00000000000E+00 -0.00000000000E+00 -0.33294316580E+02  0.33294316580E+02  0.00000000000E+00 0. -1.
         25    2    1    2    0    0  0.69145899090E+01 -0.26654240688E+02  0.15374130191E+03  0.20005018550E+03  0.12500171481E+03 0.  0.
    9000005    1    3    3    0    0  0.63814211558E+02 -0.19018557817E+01  0.95929157195E+02  0.11523573167E+03  0.10000000000E+01 0.  0.
    9000005    1    3    3    0    0 -0.56899621649E+02 -0.24752384907E+02  0.57812144713E+02  0.84814453831E+02  0.10000000000E+01 0.  0.
          4    1    1    2  501    0 -0.69145899090E+01  0.26654240688E+02  0.85890292322E+01  0.28872901195E+02  0.12700000000E+01 0.  1.
<mgrwt>
<rscale>  1 0.12799878E+03</rscale>
<asrwt>0</asrwt>
<pdfrwt beam="2">  1       21 0.51222027E-02 0.12799878E+03</pdfrwt>
<pdfrwt beam="1">  1        4 0.30098279E-01 0.12799878E+03</pdfrwt>
<totfact> 0.10868753E+05</totfact>
</mgrwt>
</event>
<event>
 6    4  0.6195789E-003  0.1269077E+03  0.7818608E-02  0.1232118E+00
         -4   -1    0    0    0  501 -0.00000000000E+00  0.00000000000E+00  0.31261297709E+03  0.31261555679E+03  0.12700000000E+01 0. -1.
         21   -1    0    0  501  502  0.00000000000E+00 -0.00000000000E+00 -0.32396470177E+02  0.32396470177E+02  0.00000000000E+00 0. -1.
         25    2    1    2    0    0  0.19817138222E+02  0.94421447984E+01  0.29319288142E+03  0.31948023774E+03  0.12499473399E+03 0.  0.
    9000005    1    3    3    0    0 -0.28533505640E+02  0.11878247852E+01  0.25682603677E+03  0.25841088413E+03  0.10000000000E+01 0.  0.
    9000005    1    3    3    0    0  0.48350643863E+02  0.82543200132E+01  0.36366844649E+02  0.61069353611E+02  0.10000000000E+01 0.  0.
         -4    1    1    2    0  502 -0.19817138222E+02 -0.94421447984E+01 -0.12976374506E+02  0.25531789225E+02  0.12700000000E+01 0.  1.
<mgrwt>
<rscale>  1 0.12690767E+03</rscale>
<asrwt>0</asrwt>
<pdfrwt beam="2">  1       21 0.49840726E-02 0.12690767E+03</pdfrwt>
<pdfrwt beam="1">  1       -4 0.48096415E-01 0.12690767E+03</pdfrwt>
<totfact> 0.45520977E+04</totfact>
</mgrwt>
</event>
<event>
 6    4  0.6195789E-003  0.1272588E+03  0.7818608E-02  0.1231581E+00
         -4   -1    0    0    0  501 -0.00000000000E+00  0.00000000000E+00  0.14977686592E+03  0.14978225017E+03  0.12700000000E+01 0.  1.
         21   -1    0    0  501  502  0.00000000000E+00 -0.00000000000E+00 -0.49026823889E+02  0.49026823889E+02  0.00000000000E+00 0. -1.
         25    2    1    2    0    0 -0.12042018347E+02 -0.20641497505E+02  0.11451880036E+03  0.17119977796E+03  0.12499490674E+03 0.  0.
    9000005    1    3    3    0    0  0.43148447148E+02  0.28078816975E+02  0.62875035027E+02  0.81267942534E+02  0.10000000000E+01 0.  0.
    9000005    1    3    3    0    0 -0.55190465495E+02 -0.48720314480E+02  0.51643765334E+02  0.89931835422E+02  0.10000000000E+01 0.  0.
         -4    1    1    2    0  502  0.12042018347E+02  0.20641497505E+02 -0.13768758330E+02  0.27609296098E+02  0.12700000000E+01 0. -1.
<mgrwt>
<rscale>  1 0.12725882E+03</rscale>
<asrwt>0</asrwt>
<pdfrwt beam="2">  1       21 0.75425884E-02 0.12725882E+03</pdfrwt>
<pdfrwt beam="1">  1       -4 0.23044274E-01 0.12725882E+03</pdfrwt>
<totfact> 0.92379009E+04</totfact>
</mgrwt>
</event>
<event>
 6    4  0.6195789E-003  0.1268835E+03  0.7818608E-02  0.1232155E+00
         -4   -1    0    0    0  501 -0.00000000000E+00  0.00000000000E+00  0.29632498667E+02  0.29659701233E+02  0.12700000000E+01 0.  1.
         21   -1    0    0  501  502  0.00000000000E+00 -0.00000000000E+00 -0.33947236448E+03  0.33947236448E+03  0.00000000000E+00 0.  1.
         25    2    1    2    0    0  0.32165836034E+01 -0.21543805360E+02 -0.10947735773E+03  0.16758497567E+03  0.12499980102E+03 0.  0.
    9000005    1    3    3    0    0 -0.13041321673E+02  0.19694150367E+02  0.19848907162E+02  0.30869317213E+02  0.10000000000E+01 0.  0.
    9000005    1    3    3    0    0  0.16257905277E+02 -0.41237955726E+02 -0.12932626489E+03  0.13671565845E+03  0.10000000000E+01 0.  0.
         -4    1    1    2    0  502 -0.32165836034E+01  0.21543805360E+02 -0.20036250809E+03  0.20154709005E+03  0.12700000000E+01 0.  1.
<mgrwt>
<rscale>  1 0.12688354E+03</rscale>
<asrwt>0</asrwt>
<pdfrwt beam="2">  1       21 0.52226518E-01 0.12688354E+03</pdfrwt>
<pdfrwt beam="1">  1       -4 0.45611211E-02 0.12688354E+03</pdfrwt>
<totfact> 0.39061212E+04</totfact>
</mgrwt>
</event>
<event>
 6    4  0.6195789E-003  0.1516308E+03  0.7818608E-02  0.1198483E+00
         21   -1    0    0  501  502  0.00000000000E+00  0.00000000000E+00  0.21780784383E+03  0.21780784383E+03  0.00000000000E+00 0. -1.
          4   -1    0    0  502    0 -0.00000000000E+00 -0.00000000000E+00 -0.15980526110E+03  0.15981030747E+03  0.12700000000E+01 0.  1.
         25    2    1    2    0    0 -0.81850875014E+02  0.25825658442E+02 -0.11110033410E+03  0.18797654259E+03  0.12500146381E+03 0.  0.
    9000005    1    3    3    0    0 -0.64340015926E+02 -0.20804799042E+02 -0.15672587902E+01  0.67645647403E+02  0.10000000000E+01 0.  0.
    9000005    1    3    3    0    0 -0.17510859088E+02  0.46630457484E+02 -0.10953307531E+03  0.12033089519E+03  0.10000000000E+01 0.  0.
          4    1    1    2  501    0  0.81850875014E+02 -0.25825658442E+02  0.16910291683E+03  0.18964160871E+03  0.12700000000E+01 0. -1.
<mgrwt>
<rscale>  1 0.15163079E+03</rscale>
<asrwt>0</asrwt>
<pdfrwt beam="1">  1       21 0.33508899E-01 0.15163079E+03</pdfrwt>
<pdfrwt beam="2">  1        4 0.24586098E-01 0.15163079E+03</pdfrwt>
<totfact> 0.55069072E+03</totfact>
</mgrwt>
</event>
<event>
 6    4  0.6195789E-003  0.1290371E+03  0.7818608E-02  0.1228892E+00
         -4   -1    0    0    0  501 -0.00000000000E+00  0.00000000000E+00  0.20904125764E+03  0.20904511545E+03  0.12700000000E+01 0. -1.
         21   -1    0    0  501  502  0.00000000000E+00 -0.00000000000E+00 -0.64700248751E+02  0.64700248751E+02  0.00000000000E+00 0.  1.
         25    2    1    2    0    0 -0.30387321432E+02  0.10106327329E+02  0.18275444578E+03  0.22371804976E+03  0.12500020472E+03 0.  0.
    9000005    1    3    3    0    0 -0.61264408201E+02  0.34727421748E+02  0.53170692926E+02  0.88246496359E+02  0.10000000000E+01 0.  0.
    9000005    1    3    3    0    0  0.30877086769E+02 -0.24621094419E+02  0.12958375285E+03  0.13547155340E+03  0.10000000000E+01 0.  0.
         -4    1    1    2    0  502  0.30387321432E+02 -0.10106327329E+02 -0.38413436895E+02  0.50027314439E+02  0.12700000000E+01 0.  1.
<mgrwt>
<rscale>  1 0.12903712E+03</rscale>
<asrwt>0</asrwt>
<pdfrwt beam="2">  1       21 0.99538846E-02 0.12903712E+03</pdfrwt>
<pdfrwt beam="1">  1       -4 0.32161449E-01 0.12903712E+03</pdfrwt>
<totfact> 0.30740096E+04</totfact>
</mgrwt>
</event>
<event>
 6    4  0.6195789E-003  0.1297239E+03  0.7818608E-02  0.1227866E+00
         21   -1    0    0  501  502  0.00000000000E+00  0.00000000000E+00  0.41987324913E+02  0.41987324913E+02  0.00000000000E+00 0.  1.
          4   -1    0    0  502    0 -0.00000000000E+00 -0.00000000000E+00 -0.18602161205E+03  0.18602594725E+03  0.12700000000E+01 0.  1.
         25    2    1    2    0    0  0.14255728927E+02 -0.31607846661E+02 -0.14331768468E+03  0.19330868749E+03  0.12500403250E+03 0.  0.
    9000005    1    3    3    0    0  0.41895563114E+02 -0.70216716483E+02 -0.82693202255E+02  0.11629613571E+03  0.10000000000E+01 0.  0.
    9000005    1    3    3    0    0 -0.27639834187E+02  0.38608869822E+02 -0.60624482420E+02  0.77012551779E+02  0.10000000000E+01 0.  0.
          4    1    1    2  501    0 -0.14255728927E+02  0.31607846661E+02 -0.71660245910E+00  0.34704584667E+02  0.12700000000E+01 0. -1.
<mgrwt>
<rscale>  1 0.12972390E+03</rscale>
<asrwt>0</asrwt>
<pdfrwt beam="1">  1       21 0.64595885E-02 0.12972390E+03</pdfrwt>
<pdfrwt beam="2">  1        4 0.28620520E-01 0.12972390E+03</pdfrwt>
<totfact> 0.80860087E+04</totfact>
</mgrwt>
</event>
<event>
 6    4  0.6195789E-003  0.1643681E+03  0.7818608E-02  0.1183852E+00
         21   -1    0    0  501  502  0.00000000000E+00  0.00000000000E+00  0.14643505876E+02  0.14643505876E+02  0.00000000000E+00 0. -1.
          4   -1    0    0  502    0 -0.00000000000E+00 -0.00000000000E+00 -0.16418693597E+04  0.16418698508E+04  0.12700000000E+01 0.  1.
         25    2    1    2    0    0 -0.36201144758E+02  0.10040608714E+03 -0.13409338069E+04  0.13509701450E+04  0.12499981191E+03 0.  0.
    9000005    1    3    3    0    0 -0.63833019422E+02  0.86353868566E+02 -0.12554300442E+04  0.12600147780E+04  0.10000000000E+01 0.  0.
    9000005    1    3    3    0    0  0.27631874664E+02  0.14052218570E+02 -0.85503762719E+02  0.90955366984E+02  0.10000000000E+01 0.  0.
          4    1    1    2  501    0  0.36201144758E+02 -0.10040608714E+03 -0.28629204687E+03  0.30554321170E+03  0.12700000000E+01 0. -1.
<mgrwt>
<rscale>  1 0.16436806E+03</rscale>
<asrwt>0</asrwt>
<pdfrwt beam="1">  1       21 0.22528488E-02 0.16436806E+03</pdfrwt>
<pdfrwt beam="2">  1        4 0.25259937E+00 0.16436806E+03</pdfrwt>
<totfact> 0.29773405E+03</totfact>
</mgrwt>
</event>
<event>
 6    4  0.6195789E-003  0.1271834E+03  0.7818608E-02  0.1231696E+00
          4   -1    0    0  502    0 -0.00000000000E+00  0.00000000000E+00  0.20926272636E+03  0.20926658010E+03  0.12700000000E+01 0.  1.
         21   -1    0    0  501  502  0.00000000000E+00 -0.00000000000E+00 -0.30535132413E+02  0.30535132413E+02  0.00000000000E+00 0.  1.
         25    2    1    2    0    0 -0.68099630220E+01 -0.22637061767E+02  0.17421853501E+03  0.21570281888E+03  0.12496717956E+03 0.  0.
    9000005    1    3    3    0    0 -0.46405557241E+02  0.45278762173E+01  0.15842091282E+03  0.16514285641E+03  0.10000000000E+01 0.  0.
    9000005    1    3    3    0    0  0.39595594219E+02 -0.27164937985E+02  0.15797622189E+02  0.50559962461E+02  0.10000000000E+01 0.  0.
          4    1    1    2  501    0  0.68099630220E+01  0.22637061767E+02  0.45090589417E+01  0.24098893633E+02  0.12700000000E+01 0. -1.
<mgrwt>
<rscale>  1 0.12718336E+03</rscale>
<asrwt>0</asrwt>
<pdfrwt beam="2">  1       21 0.46977128E-02 0.12718336E+03</pdfrwt>
<pdfrwt beam="1">  1        4 0.32196593E-01 0.12718336E+03</pdfrwt>
<totfact> 0.11047736E+05</totfact>
</mgrwt>
</event>
<event>
 6    4  0.6195789E-003  0.1401484E+03  0.7818608E-02  0.1213129E+00
         21   -1    0    0  501  502  0.00000000000E+00  0.00000000000E+00  0.11735260943E+03  0.11735260943E+03  0.00000000000E+00 0.  1.
         -4   -1    0    0    0  501 -0.00000000000E+00 -0.00000000000E+00 -0.24728432903E+03  0.24728759023E+03  0.12700000000E+01 0. -1.
         25    2    1    2    0    0 -0.54958934851E+02  0.31553486256E+02 -0.21616239256E+03  0.25761941255E+03  0.12500189899E+03 0.  0.
    9000005    1    3    3    0    0  0.35050085419E+02  0.20833579537E+02 -0.30237386239E+02  0.50772493053E+02  0.10000000000E+01 0.  0.
    9000005    1    3    3    0    0 -0.90009020270E+02  0.10719906719E+02 -0.18592500632E+03  0.20684691950E+03  0.10000000000E+01 0.  0.
         -4    1    1    2    0  502  0.54958934851E+02 -0.31553486256E+02  0.86230672967E+02  0.10702078712E+03  0.12700000000E+01 0.  1.
<mgrwt>
<rscale>  1 0.14014843E+03</rscale>
<asrwt>0</asrwt>
<pdfrwt beam="1">  1       21 0.18054248E-01 0.14014843E+03</pdfrwt>
<pdfrwt beam="2">  1       -4 0.38044522E-01 0.14014843E+03</pdfrwt>
<totfact> 0.77189605E+03</totfact>
</mgrwt>
</event>
<event>
 6    4  0.6195789E-003  0.1331944E+03  0.7818608E-02  0.1222791E+00
         21   -1    0    0  501  502  0.00000000000E+00  0.00000000000E+00  0.23908357803E+04  0.23908357803E+04  0.00000000000E+00 0. -1.
         -4   -1    0    0    0  501 -0.00000000000E+00 -0.00000000000E+00 -0.24723083695E+02  0.24755681518E+02  0.12700000000E+01 0.  1.
         25    2    1    2    0    0 -0.18663748952E+02 -0.42112695750E+02  0.15653501713E+03  0.20553332928E+03  0.12497569039E+03 0.  0.
    9000005    1    3    3    0    0  0.15623607718E+00 -0.34448140024E+02  0.17481643476E+03  0.17818104451E+03  0.10000000000E+01 0.  0.
    9000005    1    3    3    0    0 -0.18819985029E+02 -0.76645557256E+01 -0.18281417636E+02  0.27352284762E+02  0.10000000000E+01 0.  0.
         -4    1    1    2    0  502  0.18663748952E+02  0.42112695750E+02  0.22095776795E+04  0.22100581326E+04  0.12700000000E+01 0. -1.
<mgrwt>
<rscale>  1 0.13319436E+03</rscale>
<asrwt>0</asrwt>
<pdfrwt beam="1">  1       21 0.36782071E+00 0.13319436E+03</pdfrwt>
<pdfrwt beam="2">  1       -4 0.38060867E-02 0.13319436E+03</pdfrwt>
<totfact> 0.22560102E+02</totfact>
</mgrwt>
</event>
<event>
 6    4  0.6195789E-003  0.1270844E+03  0.7818608E-02  0.1231847E+00
         -4   -1    0    0    0  501 -0.00000000000E+00  0.00000000000E+00  0.43597592085E+03  0.43597777060E+03  0.12700000000E+01 0. -1.
         21   -1    0    0  501  502  0.00000000000E+00 -0.00000000000E+00 -0.13104557496E+02  0.13104557496E+02  0.00000000000E+00 0. -1.
         25    2    1    2    0    0 -0.88042594472E-01 -0.22885182416E+02  0.37621972435E+03  0.39710418224E+03  0.12500684474E+03 0.  0.
    9000005    1    3    3    0    0  0.26097805207E+02 -0.15450193623E+02  0.13246021435E+02  0.33109832428E+02  0.10000000000E+01 0.  0.
    9000005    1    3    3    0    0 -0.26185847801E+02 -0.74349887937E+01  0.36297370292E+03  0.36399434981E+03  0.10000000000E+01 0.  0.
         -4    1    1    2    0  502  0.88042594472E-01  0.22885182416E+02  0.46651638998E+02  0.51978145859E+02  0.12700000000E+01 0.  1.
<mgrwt>
<rscale>  1 0.12708442E+03</rscale>
<asrwt>0</asrwt>
<pdfrwt beam="2">  1       21 0.20160861E-02 0.12708442E+03</pdfrwt>
<pdfrwt beam="1">  1       -4 0.67078083E-01 0.12708442E+03</pdfrwt>
<totfact> 0.10100844E+05</totfact>
</mgrwt>
</event>
<event>
 6    4  0.6195789E-003  0.1310072E+03  0.7818608E-02  0.1225969E+00
         21   -1    0    0  501  502  0.00000000000E+00  0.00000000000E+00  0.17234102161E+03  0.17234102161E+03  0.00000000000E+00 0. -1.
         -4   -1    0    0    0  501 -0.00000000000E+00 -0.00000000000E+00 -0.42917503655E+02  0.42936290245E+02  0.12700000000E+01 0. -1.
         25    2    1    2    0    0  0.12887392574E+02  0.37035777476E+02  0.85786593748E+02  0.15659573251E+03  0.12500060029E+03 0.  0.
    9000005    1    3    3    0    0 -0.31088518151E+02 -0.34610782461E+02  0.24773841028E+02  0.52717600691E+02  0.10000000000E+01 0.  0.
    9000005    1    3    3    0    0  0.43975910726E+02  0.71646559937E+02  0.61012752720E+02  0.10387813181E+03  0.10000000000E+01 0.  0.
         -4    1    1    2    0  502 -0.12887392574E+02 -0.37035777476E+02  0.43636924207E+02  0.58681579349E+02  0.12700000000E+01 0.  1.
<mgrwt>
<rscale>  1 0.13100719E+03</rscale>
<asrwt>0</asrwt>
<pdfrwt beam="1">  1       21 0.26514003E-01 0.13100719E+03</pdfrwt>
<pdfrwt beam="2">  1       -4 0.66044980E-02 0.13100719E+03</pdfrwt>
<totfact> 0.82721266E+04</totfact>
</mgrwt>
</event>
<event>
 6    4  0.6195789E-003  0.1276238E+03  0.7818608E-02  0.1231025E+00
         21   -1    0    0  501  502  0.00000000000E+00  0.00000000000E+00  0.22631015688E+02  0.22631015688E+02  0.00000000000E+00 0. -1.
          4   -1    0    0  502    0 -0.00000000000E+00 -0.00000000000E+00 -0.16213200977E+04  0.16213205951E+04  0.12700000000E+01 0.  1.
         25    2    1    2    0    0  0.16027740461E+02 -0.20148408857E+02 -0.16105343828E+04  0.16155831266E+04  0.12499997505E+03 0.  0.
    9000005    1    3    3    0    0 -0.49047047416E+02 -0.35741873296E+02 -0.76080545906E+03  0.76322279900E+03  0.10000000000E+01 0.  0.
    9000005    1    3    3    0    0  0.65074787877E+02  0.15593464439E+02 -0.84972892375E+03  0.85236032757E+03  0.10000000000E+01 0.  0.
          4    1    1    2  501    0 -0.16027740461E+02  0.20148408857E+02  0.11845300834E+02  0.28368484196E+02  0.12700000000E+01 0. -1.
<mgrwt>
<rscale>  1 0.12762382E+03</rscale>
<asrwt>0</asrwt>
<pdfrwt beam="1">  1       21 0.34816954E-02 0.12762382E+03</pdfrwt>
<pdfrwt beam="2">  1        4 0.24943659E+00 0.12762382E+03</pdfrwt>
<totfact> 0.15109006E+03</totfact>
</mgrwt>
</event>
<event>
 6    4  0.6195789E-003  0.1309745E+03  0.7818608E-02  0.1226017E+00
         21   -1    0    0  501  502  0.00000000000E+00  0.00000000000E+00  0.15495256206E+03  0.15495256206E+03  0.00000000000E+00 0. -1.
          4   -1    0    0  502    0 -0.00000000000E+00 -0.00000000000E+00 -0.46793176340E+02  0.46810407518E+02  0.12700000000E+01 0.  1.
         25    2    1    2    0    0 -0.58973996265E+01 -0.38660830146E+02  0.78891952449E+02  0.15289954092E+03  0.12499956137E+03 0.  0.
    9000005    1    3    3    0    0 -0.54480583290E+02  0.16346818909E+02  0.26735490324E+02  0.62858085295E+02  0.10000000000E+01 0.  0.
    9000005    1    3    3    0    0  0.48583183664E+02 -0.55007649055E+02  0.52156462125E+02  0.90041455624E+02  0.10000000000E+01 0.  0.
          4    1    1    2  501    0  0.58973996265E+01  0.38660830146E+02  0.29267433266E+02  0.48863428655E+02  0.12700000000E+01 0. -1.
<mgrwt>
<rscale>  1 0.13097454E+03</rscale>
<asrwt>0</asrwt>
<pdfrwt beam="1">  1       21 0.23838855E-01 0.13097454E+03</pdfrwt>
<pdfrwt beam="2">  1        4 0.72006761E-02 0.13097454E+03</pdfrwt>
<totfact> 0.87795155E+04</totfact>
</mgrwt>
</event>
<event>
 6    4  0.6195789E-003  0.1265988E+03  0.7818608E-02  0.1232592E+00
         21   -1    0    0  501  502  0.00000000000E+00  0.00000000000E+00  0.85467129318E+03  0.85467129318E+03  0.00000000000E+00 0. -1.
          4   -1    0    0  502    0 -0.00000000000E+00 -0.00000000000E+00 -0.64571944394E+01  0.65809011562E+01  0.12700000000E+01 0. -1.
         25    2    1    2    0    0 -0.87137845447E+01 -0.18075516791E+02  0.66544439705E+03  0.67737987151E+03  0.12499836160E+03 0.  0.
    9000005    1    3    3    0    0  0.72669848746E+01  0.48181776900E+02  0.15711350017E+03  0.16449907183E+03  0.10000000000E+01 0.  0.
    9000005    1    3    3    0    0 -0.15980769419E+02 -0.66257293691E+02  0.50833089688E+03  0.51288079968E+03  0.10000000000E+01 0.  0.
          4    1    1    2  501    0  0.87137845447E+01  0.18075516791E+02  0.18276970168E+03  0.18387232283E+03  0.12700000000E+01 0.  1.
<mgrwt>
<rscale>  1 0.12659875E+03</rscale>
<asrwt>0</asrwt>
<pdfrwt beam="1">  1       21 0.13148780E+00 0.12659875E+03</pdfrwt>
<pdfrwt beam="2">  1        4 0.10030037E-02 0.12659875E+03</pdfrwt>
<totfact> 0.50269955E+04</totfact>
</mgrwt>
</event>
<event>
 6    4  0.6195789E-003  0.1277726E+03  0.7818608E-02  0.1230799E+00
         21   -1    0    0  501  502  0.00000000000E+00  0.00000000000E+00  0.10649534979E+02  0.10649534979E+02  0.00000000000E+00 0.  1.
          4   -1    0    0  502    0 -0.00000000000E+00 -0.00000000000E+00 -0.11091565669E+04  0.11091572939E+04  0.12700000000E+01 0. -1.
         25    2    1    2    0    0 -0.16027925981E+02  0.21079916888E+02 -0.10798628404E+04  0.10873957802E+04  0.12499828497E+03 0.  0.
    9000005    1    3    3    0    0  0.89532855003E+01 -0.31192967444E+02 -0.84022412892E+03  0.84085120524E+03  0.10000000000E+01 0.  0.
    9000005    1    3    3    0    0 -0.24981211481E+02  0.52272884332E+02 -0.23963871152E+03  0.24654457492E+03  0.10000000000E+01 0.  0.
          4    1    1    2  501    0  0.16027925981E+02 -0.21079916888E+02 -0.18644191443E+02  0.32411048761E+02  0.12700000000E+01 0.  1.
<mgrwt>
<rscale>  1 0.12777257E+03</rscale>
<asrwt>0</asrwt>
<pdfrwt beam="1">  1       21 0.16383907E-02 0.12777257E+03</pdfrwt>
<pdfrwt beam="2">  1        4 0.17064528E+00 0.12777257E+03</pdfrwt>
<totfact> 0.15626404E+04</totfact>
</mgrwt>
</event>
<event>
 6    4  0.6195789E-003  0.1295239E+03  0.7818608E-02  0.1228164E+00
          4   -1    0    0  502    0 -0.00000000000E+00  0.00000000000E+00  0.60560167225E+03  0.60560300390E+03  0.12700000000E+01 0.  1.
         21   -1    0    0  501  502  0.00000000000E+00 -0.00000000000E+00 -0.11030907299E+02  0.11030907299E+02  0.00000000000E+00 0.  1.
         25    2    1    2    0    0 -0.32525810007E+02 -0.96385986091E+01  0.47131730182E+03  0.48879080433E+03  0.12500248199E+03 0.  0.
    9000005    1    3    3    0    0 -0.77656134001E+01 -0.52339394840E+02  0.39062327398E+03  0.39419190654E+03  0.10000000000E+01 0.  0.
    9000005    1    3    3    0    0 -0.24760196606E+02  0.42700796231E+02  0.80694027839E+02  0.94598897793E+02  0.10000000000E+01 0.  0.
          4    1    1    2  501    0  0.32525810007E+02  0.96385986091E+01  0.12325346313E+03  0.12784310687E+03  0.12700000000E+01 0. -1.
<mgrwt>
<rscale>  1 0.12952394E+03</rscale>
<asrwt>0</asrwt>
<pdfrwt beam="2">  1       21 0.16970631E-02 0.12952394E+03</pdfrwt>
<pdfrwt beam="1">  1        4 0.93175188E-01 0.12952394E+03</pdfrwt>
<totfact> 0.64772987E+04</totfact>
</mgrwt>
</event>
<event>
 6    4  0.6195789E-003  0.1281114E+03  0.7818608E-02  0.1230285E+00
          4   -1    0    0  502    0 -0.00000000000E+00  0.00000000000E+00  0.21468112398E+03  0.21468488044E+03  0.12700000000E+01 0. -1.
         21   -1    0    0  501  502  0.00000000000E+00 -0.00000000000E+00 -0.90040108440E+02  0.90040108440E+02  0.00000000000E+00 0.  1.
         25    2    1    2    0    0  0.27985019143E+02 -0.21907854482E+01  0.19252568066E+03  0.23125457650E+03  0.12499832240E+03 0.  0.
    9000005    1    3    3    0    0  0.71909171291E+02 -0.25676239093E+02  0.13547069913E+03  0.15551047712E+03  0.10000000000E+01 0.  0.
    9000005    1    3    3    0    0 -0.43924152147E+02  0.23485453645E+02  0.57054981521E+02  0.75744099382E+02  0.10000000000E+01 0.  0.
          4    1    1    2  501    0 -0.27985019143E+02  0.21907854482E+01 -0.67884665120E+02  0.73470412384E+02  0.12700000000E+01 0.  1.
<mgrwt>
<rscale>  1 0.12811144E+03</rscale>
<asrwt>0</asrwt>
<pdfrwt beam="2">  1       21 0.13852324E-01 0.12811144E+03</pdfrwt>
<pdfrwt beam="1">  1        4 0.33028843E-01 0.12811144E+03</pdfrwt>
<totfact> 0.16269691E+04</totfact>
</mgrwt>
</event>
<event>
 6    4  0.6195789E-003  0.1284223E+03  0.7818608E-02  0.1229816E+00
          4   -1    0    0  502    0 -0.00000000000E+00  0.00000000000E+00  0.53144782272E+03  0.53144934017E+03  0.12700000000E+01 0. -1.
         21   -1    0    0  501  502  0.00000000000E+00 -0.00000000000E+00 -0.14080789648E+02  0.14080789648E+02  0.00000000000E+00 0. -1.
         25    2    1    2    0    0  0.23261589272E+02  0.18010820525E+02  0.48525476250E+03  0.50196062199E+03  0.12500716103E+03 0.  0.
    9000005    1    3    3    0    0  0.73231352092E+02  0.12271813517E+02  0.34648066690E+03  0.35434909464E+03  0.10000000000E+01 0.  0.
    9000005    1    3    3    0    0 -0.49969762820E+02  0.57390070075E+01  0.13877409560E+03  0.14761152735E+03  0.10000000000E+01 0.  0.
          4    1    1    2  501    0 -0.23261589272E+02 -0.18010820525E+02  0.32112270572E+02  0.43569507832E+02  0.12700000000E+01 0.  1.
<mgrwt>
<rscale>  1 0.12842228E+03</rscale>
<asrwt>0</asrwt>
<pdfrwt beam="2">  1       21 0.21662757E-02 0.12842228E+03</pdfrwt>
<pdfrwt beam="1">  1        4 0.81765710E-01 0.12842228E+03</pdfrwt>
<totfact> 0.58530360E+04</totfact>
</mgrwt>
</event>
<event>
 6    4  0.6195789E-003  0.1860548E+03  0.7818608E-02  0.1162069E+00
         21   -1    0    0  501  502  0.00000000000E+00  0.00000000000E+00  0.12699556090E+04  0.12699556090E+04  0.00000000000E+00 0. -1.
          4   -1    0    0  502    0 -0.00000000000E+00 -0.00000000000E+00 -0.43507565197E+02  0.43526097107E+02  0.12700000000E+01 0.  1.
         25    2    1    2    0    0 -0.13144229475E+03 -0.41394728816E+02  0.18299232512E+03  0.26096469903E+03  0.12500313062E+03 0.  0.
    9000005    1    3    3    0    0 -0.12050264480E+03 -0.11543279446E+02  0.62294876971E+02  0.13614619496E+03  0.10000000000E+01 0.  0.
    9000005    1    3    3    0    0 -0.10939649951E+02 -0.29851449371E+02  0.12069744815E+03  0.12481850408E+03  0.10000000000E+01 0.  0.
          4    1    1    2  501    0  0.13144229475E+03  0.41394728816E+02  0.10434557187E+04  0.10525170071E+04  0.12700000000E+01 0. -1.
<mgrwt>
<rscale>  1 0.18605479E+03</rscale>
<asrwt>0</asrwt>
<pdfrwt beam="1">  1       21 0.19537776E+00 0.18605479E+03</pdfrwt>
<pdfrwt beam="2">  1        4 0.66949469E-02 0.18605479E+03</pdfrwt>
<totfact> 0.89927900E+02</totfact>
</mgrwt>
</event>
<event>
 6    4  0.6195789E-003  0.1318958E+03  0.7818608E-02  0.1224670E+00
          4   -1    0    0  502    0 -0.00000000000E+00  0.00000000000E+00  0.15865633230E+03  0.15866141522E+03  0.12700000000E+01 0.  1.
         21   -1    0    0  501  502  0.00000000000E+00 -0.00000000000E+00 -0.21438721093E+03  0.21438721093E+03  0.00000000000E+00 0.  1.
         25    2    1    2    0    0  0.71493884409E+01 -0.41485173500E+02  0.12845326864E+03  0.18411068295E+03  0.12499747189E+03 0.  0.
    9000005    1    3    3    0    0 -0.50626913675E+02 -0.88554222356E+01  0.16538411930E+02  0.54000203337E+02  0.10000000000E+01 0.  0.
    9000005    1    3    3    0    0  0.57776302116E+02 -0.32629751265E+02  0.11191485671E+03  0.13011047962E+03  0.10000000000E+01 0.  0.
          4    1    1    2  501    0 -0.71493884409E+01  0.41485173500E+02 -0.18418414727E+03  0.18893794320E+03  0.12700000000E+01 0. -1.
<mgrwt>
<rscale>  1 0.13189580E+03</rscale>
<asrwt>0</asrwt>
<pdfrwt beam="2">  1       21 0.32982648E-01 0.13189580E+03</pdfrwt>
<pdfrwt beam="1">  1        4 0.24409347E-01 0.13189580E+03</pdfrwt>
<totfact> 0.57061376E+03</totfact>
</mgrwt>
</event>
<event>
 6    4  0.6195789E-003  0.1267059E+03  0.7818608E-02  0.1232427E+00
         21   -1    0    0  501  502  0.00000000000E+00  0.00000000000E+00  0.10550235778E+04  0.10550235778E+04  0.00000000000E+00 0. -1.
         -4   -1    0    0    0  501 -0.00000000000E+00 -0.00000000000E+00 -0.57685997651E+01  0.59067455718E+01  0.12700000000E+01 0. -1.
         25    2    1    2    0    0  0.80659015707E+01 -0.19059403764E+02  0.72311852742E+03  0.73413540762E+03  0.12500428947E+03 0.  0.
    9000005    1    3    3    0    0 -0.32167477171E+02 -0.29558708942E+01  0.63607369341E+03  0.63689420409E+03  0.10000000000E+01 0.  0.
    9000005    1    3    3    0    0  0.40233378741E+02 -0.16103532870E+02  0.87044834010E+02  0.97241203529E+02  0.10000000000E+01 0.  0.
         -4    1    1    2    0  502 -0.80659015707E+01  0.19059403764E+02  0.32613645060E+03  0.32679491574E+03  0.12700000000E+01 0.  1.
<mgrwt>
<rscale>  1 0.12670593E+03</rscale>
<asrwt>0</asrwt>
<pdfrwt beam="1">  1       21 0.16231117E+00 0.12670593E+03</pdfrwt>
<pdfrwt beam="2">  1       -4 0.89816312E-03 0.12670593E+03</pdfrwt>
<totfact> 0.34524337E+04</totfact>
</mgrwt>
</event>
<event>
 6    4  0.6195789E-003  0.1283894E+03  0.7818608E-02  0.1229865E+00
         21   -1    0    0  501  502  0.00000000000E+00  0.00000000000E+00  0.76597807682E+02  0.76597807682E+02  0.00000000000E+00 0.  1.
         -4   -1    0    0    0  501 -0.00000000000E+00 -0.00000000000E+00 -0.96034250837E+02  0.96042647994E+02  0.12700000000E+01 0.  1.
         25    2    1    2    0    0  0.14774037217E+02  0.25328962189E+02 -0.42576923443E+02  0.13526501950E+03  0.12499601029E+03 0.  0.
    9000005    1    3    3    0    0 -0.76724089620E+01  0.73702627641E+02 -0.32788004771E+02  0.81037006592E+02  0.10000000000E+01 0.  0.
    9000005    1    3    3    0    0  0.22446446179E+02 -0.48373665452E+02 -0.97889186725E+01  0.54228012909E+02  0.10000000000E+01 0.  0.
         -4    1    1    2    0  502 -0.14774037217E+02 -0.25328962189E+02  0.23140480288E+02  0.37375436175E+02  0.12700000000E+01 0. -1.
<mgrwt>
<rscale>  1 0.12838937E+03</rscale>
<asrwt>0</asrwt>
<pdfrwt beam="1">  1       21 0.11784278E-01 0.12838937E+03</pdfrwt>
<pdfrwt beam="2">  1       -4 0.14775956E-01 0.12838937E+03</pdfrwt>
<totfact> 0.93837244E+04</totfact>
</mgrwt>
</event>
<event>
 6    4  0.6195789E-003  0.1272250E+03  0.7818608E-02  0.1231632E+00
          4   -1    0    0  502    0 -0.00000000000E+00  0.00000000000E+00  0.50729672842E+02  0.50745567360E+02  0.12700000000E+01 0.  1.
         21   -1    0    0  501  502  0.00000000000E+00 -0.00000000000E+00 -0.27018506567E+03  0.27018506567E+03  0.00000000000E+00 0. -1.
         25    2    1    2    0    0 -0.53967441653E+01  0.23075767866E+02 -0.30947727537E+02  0.13093492602E+03  0.12499830839E+03 0.  0.
    9000005    1    3    3    0    0 -0.41806527976E+01 -0.42285076057E+02 -0.47249636972E+02  0.63553392584E+02  0.10000000000E+01 0.  0.
    9000005    1    3    3    0    0 -0.12160913677E+01  0.65360843922E+02  0.16301909435E+02  0.67381533432E+02  0.10000000000E+01 0.  0.
          4    1    1    2  501    0  0.53967441653E+01 -0.23075767866E+02 -0.18850766530E+03  0.18999570702E+03  0.12700000000E+01 0. -1.
<mgrwt>
<rscale>  1 0.12722497E+03</rscale>
<asrwt>0</asrwt>
<pdfrwt beam="2">  1       21 0.41566934E-01 0.12722497E+03</pdfrwt>
<pdfrwt beam="1">  1        4 0.78060172E-02 0.12722497E+03</pdfrwt>
<totfact> 0.26032132E+04</totfact>
</mgrwt>
</event>
<event>
 6    4  0.6195789E-003  0.1304729E+03  0.7818608E-02  0.1226756E+00
         21   -1    0    0  501  502  0.00000000000E+00  0.00000000000E+00  0.47179122974E+02  0.47179122974E+02  0.00000000000E+00 0.  1.
         -4   -1    0    0    0  501 -0.00000000000E+00 -0.00000000000E+00 -0.14969367126E+03  0.14969905849E+03  0.12700000000E+01 0.  1.
         25    2    1    2    0    0 -0.36590659073E+02 -0.75380220115E+01 -0.83885844587E+02  0.15511288956E+03  0.12500990151E+03 0.  0.
    9000005    1    3    3    0    0 -0.92054007723E-02 -0.25847607534E+02 -0.10564621912E+03  0.10876682635E+03  0.10000000000E+01 0.  0.
    9000005    1    3    3    0    0 -0.36581453673E+02  0.18309585523E+02  0.21760374532E+02  0.46346063205E+02  0.10000000000E+01 0.  0.
         -4    1    1    2    0  502  0.36590659073E+02  0.75380220115E+01 -0.18628703695E+02  0.41765291914E+02  0.12700000000E+01 0. -1.
<mgrwt>
<rscale>  1 0.13047288E+03</rscale>
<asrwt>0</asrwt>
<pdfrwt beam="1">  1       21 0.72583268E-02 0.13047288E+03</pdfrwt>
<pdfrwt beam="2">  1       -4 0.23031524E-01 0.13047288E+03</pdfrwt>
<totfact> 0.99130457E+04</totfact>
</mgrwt>
</event>
<event>
 6    4  0.6195789E-003  0.1300607E+03  0.7818608E-02  0.1227366E+00
         21   -1    0    0  501  502  0.00000000000E+00  0.00000000000E+00  0.18823228323E+02  0.18823228323E+02  0.00000000000E+00 0.  1.
          4   -1    0    0  502    0 -0.00000000000E+00 -0.00000000000E+00 -0.76936338216E+03  0.76936443036E+03  0.12700000000E+01 0. -1.
         25    2    1    2    0    0  0.20064674958E+02  0.29770583890E+02 -0.73914452223E+03  0.75050009885E+03  0.12500757893E+03 0.  0.
    9000005    1    3    3    0    0 -0.78796484029E+01  0.49132742771E+02 -0.68332389818E+03  0.68513404899E+03  0.10000000000E+01 0.  0.
    9000005    1    3    3    0    0  0.27944323360E+02 -0.19362158881E+02 -0.55820624055E+02  0.65366049861E+02  0.10000000000E+01 0.  0.
          4    1    1    2  501    0 -0.20064674958E+02 -0.29770583890E+02 -0.11395631604E+02  0.37687559830E+02  0.12700000000E+01 0.  1.
<mgrwt>
<rscale>  1 0.13006065E+03</rscale>
<asrwt>0</asrwt>
<pdfrwt beam="1">  1       21 0.28958821E-02 0.13006065E+03</pdfrwt>
<pdfrwt beam="2">  1        4 0.11836694E+00 0.13006065E+03</pdfrwt>
<totfact> 0.15603913E+04</totfact>
</mgrwt>
</event>
<event>
 6    4  0.6195789E-003  0.1347965E+03  0.7818608E-02  0.1220507E+00
         21   -1    0    0  501  502  0.00000000000E+00  0.00000000000E+00  0.25770815300E+03  0.25770815300E+03  0.00000000000E+00 0. -1.
          4   -1    0    0  502    0 -0.00000000000E+00 -0.00000000000E+00 -0.57477688310E+02  0.57491717259E+02  0.12700000000E+01 0.  1.
         25    2    1    2    0    0  0.29475589471E+02  0.40957307857E+02  0.30610410656E+02  0.13822844016E+03  0.12499517185E+03 0.  0.
    9000005    1    3    3    0    0  0.17259737086E+02 -0.33841770564E+02 -0.23876029991E+02  0.44880160063E+02  0.10000000000E+01 0.  0.
    9000005    1    3    3    0    0  0.12215852385E+02  0.74799078422E+02  0.54486440647E+02  0.93348280094E+02  0.10000000000E+01 0.  0.
          4    1    1    2  501    0 -0.29475589471E+02 -0.40957307857E+02  0.16962005404E+03  0.17697143010E+03  0.12700000000E+01 0. -1.
<mgrwt>
<rscale>  1 0.13479653E+03</rscale>
<asrwt>0</asrwt>
<pdfrwt beam="1">  1       21 0.39647407E-01 0.13479653E+03</pdfrwt>
<pdfrwt beam="2">  1        4 0.88440413E-02 0.13479653E+03</pdfrwt>
<totfact> 0.23393738E+04</totfact>
</mgrwt>
</event>
<event>
 6    4  0.6195789E-003  0.1270698E+03  0.7818608E-02  0.1231870E+00
         21   -1    0    0  501  502  0.00000000000E+00  0.00000000000E+00  0.51576475800E+01  0.51576475800E+01  0.00000000000E+00 0.  1.
          4   -1    0    0  502    0 -0.00000000000E+00 -0.00000000000E+00 -0.11127812258E+04  0.11127819505E+04  0.12700000000E+01 0. -1.
         25    2    1    2    0    0 -0.22394833106E+02  0.44703311188E+01 -0.98914158628E+03  0.99727018306E+03  0.12500091162E+03 0.  0.
    9000005    1    3    3    0    0 -0.38620529937E+02  0.23915554164E+02 -0.12922731924E+03  0.13698247736E+03  0.10000000000E+01 0.  0.
    9000005    1    3    3    0    0  0.16225696831E+02 -0.19445223046E+02 -0.85991426704E+03  0.86028770571E+03  0.10000000000E+01 0.  0.
          4    1    1    2  501    0  0.22394833106E+02 -0.44703311188E+01 -0.11848199189E+03  0.12066941499E+03  0.12700000000E+01 0.  1.
<mgrwt>
<rscale>  1 0.12706982E+03</rscale>
<asrwt>0</asrwt>
<pdfrwt beam="1">  1       21 0.79348417E-03 0.12706982E+03</pdfrwt>
<pdfrwt beam="2">  1        4 0.17120921E+00 0.12706982E+03</pdfrwt>
<totfact> 0.48752203E+04</totfact>
</mgrwt>
</event>
<event>
 6    4  0.6195789E-003  0.1280492E+03  0.7818608E-02  0.1230379E+00
         -4   -1    0    0    0  501 -0.00000000000E+00  0.00000000000E+00  0.13557732972E+04  0.13557738921E+04  0.12700000000E+01 0.  1.
         21   -1    0    0  501  502  0.00000000000E+00 -0.00000000000E+00 -0.15456920696E+02  0.15456920696E+02  0.00000000000E+00 0. -1.
         25    2    1    2    0    0 -0.24303986459E+02 -0.13437745574E+02  0.13371311337E+04  0.13432483998E+04  0.12500135181E+03 0.  0.
    9000005    1    3    3    0    0  0.49715522894E+02  0.41299349879E+01  0.65179441562E+03  0.65370149902E+03  0.10000000000E+01 0.  0.
    9000005    1    3    3    0    0 -0.74019509353E+02 -0.17567680562E+02  0.68533671811E+03  0.68954690077E+03  0.10000000000E+01 0.  0.
         -4    1    1    2    0  502  0.24303986459E+02  0.13437745574E+02  0.31852427992E+01  0.27982412969E+02  0.12700000000E+01 0. -1.
<mgrwt>
<rscale>  1 0.12804919E+03</rscale>
<asrwt>0</asrwt>
<pdfrwt beam="2">  1       21 0.23779889E-02 0.12804919E+03</pdfrwt>
<pdfrwt beam="1">  1       -4 0.20858447E+00 0.12804919E+03</pdfrwt>
<totfact> 0.49068051E+03</totfact>
</mgrwt>
</event>
<event>
 6    4  0.6195789E-003  0.1330059E+03  0.7818608E-02  0.1223062E+00
         -4   -1    0    0    0  501 -0.00000000000E+00  0.00000000000E+00  0.40170901621E+03  0.40171102376E+03  0.12700000000E+01 0. -1.
         21   -1    0    0  501  502  0.00000000000E+00 -0.00000000000E+00 -0.21516380856E+02  0.21516380856E+02  0.00000000000E+00 0.  1.
         25    2    1    2    0    0  0.24464041627E+02 -0.38301338663E+02  0.32838902225E+03  0.35430201664E+03  0.12500034874E+03 0.  0.
    9000005    1    3    3    0    0 -0.36819853858E+02 -0.94089579811E+01  0.23966953831E+03  0.24266585611E+03  0.10000000000E+01 0.  0.
    9000005    1    3    3    0    0  0.61283895485E+02 -0.28892380682E+02  0.88719483941E+02  0.11163616053E+03  0.10000000000E+01 0.  0.
         -4    1    1    2    0  502 -0.24464041627E+02  0.38301338663E+02  0.51803613111E+02  0.68925387975E+02  0.12700000000E+01 0.  1.
<mgrwt>
<rscale>  1 0.13300590E+03</rscale>
<asrwt>0</asrwt>
<pdfrwt beam="2">  1       21 0.33102128E-02 0.13300590E+03</pdfrwt>
<pdfrwt beam="1">  1       -4 0.61804419E-01 0.13300590E+03</pdfrwt>
<totfact> 0.53904163E+04</totfact>
</mgrwt>
</event>
<event>
 6    4  0.6195789E-003  0.1266684E+03  0.7818608E-02  0.1232485E+00
         21   -1    0    0  501  502  0.00000000000E+00  0.00000000000E+00  0.27991797085E+03  0.27991797085E+03  0.00000000000E+00 0.  1.
          4   -1    0    0  502    0 -0.00000000000E+00 -0.00000000000E+00 -0.19370912228E+02  0.19412499595E+02  0.12700000000E+01 0.  1.
         25    2    1    2    0    0 -0.28131158359E+01 -0.20300743823E+02  0.21925807893E+03  0.25321727749E+03  0.12499940249E+03 0.  0.
    9000005    1    3    3    0    0 -0.10831718962E+01  0.52529091817E+02  0.10982095876E+03  0.12174613641E+03  0.10000000000E+01 0.  0.
    9000005    1    3    3    0    0 -0.17299439397E+01 -0.72829835639E+02  0.10943712018E+03  0.13147114109E+03  0.10000000000E+01 0.  0.
          4    1    1    2  501    0  0.28131158359E+01  0.20300743823E+02  0.41288979683E+02  0.46113192947E+02  0.12700000000E+01 0. -1.
<mgrwt>
<rscale>  1 0.12666840E+03</rscale>
<asrwt>0</asrwt>
<pdfrwt beam="1">  1       21 0.43064300E-01 0.12666840E+03</pdfrwt>
<pdfrwt beam="2">  1        4 0.29835612E-02 0.12666840E+03</pdfrwt>
<totfact> 0.11332710E+05</totfact>
</mgrwt>
</event>
<event>
 6    4  0.6195789E-003  0.1334914E+03  0.7818608E-02  0.1222365E+00
          4   -1    0    0  502    0 -0.00000000000E+00  0.00000000000E+00  0.13503580340E+02  0.13563170057E+02  0.12700000000E+01 0. -1.
         21   -1    0    0  501  502  0.00000000000E+00 -0.00000000000E+00 -0.60101050167E+03  0.60101050167E+03  0.00000000000E+00 0. -1.
         25    2    1    2    0    0  0.44482359559E+02 -0.14732079934E+02 -0.43783793616E+03  0.45773575376E+03  0.12499698971E+03 0.  0.
    9000005    1    3    3    0    0 -0.14365190407E+02 -0.31989068735E+02 -0.32622979909E+02  0.47905302756E+02  0.10000000000E+01 0.  0.
    9000005    1    3    3    0    0  0.58847549966E+02  0.17256988801E+02 -0.40521495625E+03  0.40983045100E+03  0.10000000000E+01 0.  0.
          4    1    1    2  501    0 -0.44482359559E+02  0.14732079934E+02 -0.14966898518E+03  0.15683791798E+03  0.12700000000E+01 0.  1.
<mgrwt>
<rscale>  1 0.13349143E+03</rscale>
<asrwt>0</asrwt>
<pdfrwt beam="2">  1       21 0.92463159E-01 0.13349143E+03</pdfrwt>
<pdfrwt beam="1">  1        4 0.20821608E-02 0.13349143E+03</pdfrwt>
<totfact> 0.38611256E+04</totfact>
</mgrwt>
</event>
<event>
 6    4  0.6195789E-003  0.1275057E+03  0.7818608E-02  0.1231204E+00
         21   -1    0    0  501  502  0.00000000000E+00  0.00000000000E+00  0.82529122844E+01  0.82529122844E+01  0.00000000000E+00 0. -1.
          4   -1    0    0  502    0 -0.00000000000E+00 -0.00000000000E+00 -0.12443735423E+04  0.12443741904E+04  0.12700000000E+01 0. -1.
         25    2    1    2    0    0 -0.85541822700E+01 -0.23661200458E+02 -0.12086389938E+04  0.12153460127E+04  0.12499874693E+03 0.  0.
    9000005    1    3    3    0    0  0.13788261036E+02 -0.20052138667E+02 -0.42479077064E+02  0.48966073926E+02  0.10000000000E+01 0.  0.
    9000005    1    3    3    0    0 -0.22342443306E+02 -0.36090617915E+01 -0.11661599168E+04  0.11663799388E+04  0.10000000000E+01 0.  0.
          4    1    1    2  501    0  0.85541822700E+01  0.23661200458E+02 -0.27481636189E+02  0.37281089966E+02  0.12700000000E+01 0.  1.
<mgrwt>
<rscale>  1 0.12750574E+03</rscale>
<asrwt>0</asrwt>
<pdfrwt beam="1">  1       21 0.12696788E-02 0.12750574E+03</pdfrwt>
<pdfrwt beam="2">  1        4 0.19144965E+00 0.12750574E+03</pdfrwt>
<totfact> 0.17151224E+04</totfact>
</mgrwt>
</event>
<event>
 6    4  0.6195789E-003  0.1270198E+03  0.7818608E-02  0.1231946E+00
          4   -1    0    0  502    0 -0.00000000000E+00  0.00000000000E+00  0.29303623905E+03  0.29303899109E+03  0.12700000000E+01 0. -1.
         21   -1    0    0  501  502  0.00000000000E+00 -0.00000000000E+00 -0.10280614284E+03  0.10280614284E+03  0.00000000000E+00 0.  1.
         25    2    1    2    0    0 -0.20666688512E+02  0.90411917575E+01  0.27777114956E+03  0.30543548796E+03  0.12500068247E+03 0.  0.
    9000005    1    3    3    0    0  0.52349852207E+02  0.29595668400E+01  0.94836099450E+02  0.10837043795E+03  0.10000000000E+01 0.  0.
    9000005    1    3    3    0    0 -0.73016540719E+02  0.60816249176E+01  0.18293505011E+03  0.19706505002E+03  0.10000000000E+01 0.  0.
          4    1    1    2  501    0  0.20666688512E+02 -0.90411917575E+01 -0.87541053347E+02  0.90409645966E+02  0.12700000000E+01 0.  1.
<mgrwt>
<rscale>  1 0.12701978E+03</rscale>
<asrwt>0</asrwt>
<pdfrwt beam="2">  1       21 0.15816330E-01 0.12701978E+03</pdfrwt>
<pdfrwt beam="1">  1        4 0.45083313E-01 0.12701978E+03</pdfrwt>
<totfact> 0.69687135E+03</totfact>
</mgrwt>
</event>
<event>
 6    4  0.6195789E-003  0.1293793E+03  0.7818608E-02  0.1228380E+00
         -4   -1    0    0    0  501 -0.00000000000E+00  0.00000000000E+00  0.16366435397E+03  0.16366928136E+03  0.12700000000E+01 0.  1.
         21   -1    0    0  501  502  0.00000000000E+00 -0.00000000000E+00 -0.42945550543E+02  0.42945550543E+02  0.00000000000E+00 0.  1.
         25    2    1    2    0    0 -0.27341373973E+01 -0.33225845165E+02  0.73501022664E+02  0.14879992021E+03  0.12501033408E+03 0.  0.
    9000005    1    3    3    0    0  0.11670057442E+02  0.37440741294E+02 -0.79253426628E+01  0.40022623673E+02  0.10000000000E+01 0.  0.
    9000005    1    3    3    0    0 -0.14404194840E+02 -0.70666586459E+02  0.81426365327E+02  0.10877729653E+03  0.10000000000E+01 0.  0.
         -4    1    1    2    0  502  0.27341373973E+01  0.33225845165E+02  0.47217780768E+02  0.57814911700E+02  0.12700000000E+01 0. -1.
<mgrwt>
<rscale>  1 0.12937935E+03</rscale>
<asrwt>0</asrwt>
<pdfrwt beam="2">  1       21 0.66070078E-02 0.12937935E+03</pdfrwt>
<pdfrwt beam="1">  1       -4 0.25180955E-01 0.12937935E+03</pdfrwt>
<totfact> 0.98706412E+04</totfact>
</mgrwt>
</event>
<event>
 6    4  0.6195789E-003  0.1276228E+03  0.7818608E-02  0.1231026E+00
         21   -1    0    0  501  502  0.00000000000E+00  0.00000000000E+00  0.37794696137E+03  0.37794696137E+03  0.00000000000E+00 0.  1.
          4   -1    0    0  502    0 -0.00000000000E+00 -0.00000000000E+00 -0.15822948221E+02  0.15873833514E+02  0.12700000000E+01 0. -1.
         25    2    1    2    0    0 -0.25650325895E+02  0.23410190975E+01  0.27933846021E+03  0.30711162430E+03  0.12499661930E+03 0.  0.
    9000005    1    3    3    0    0 -0.52528931903E+02  0.43804148579E+02  0.10050528285E+03  0.12157468486E+03  0.10000000000E+01 0.  0.
    9000005    1    3    3    0    0  0.26878606008E+02 -0.41463129482E+02  0.17883317737E+03  0.18553693943E+03  0.10000000000E+01 0.  0.
          4    1    1    2  501    0  0.25650325895E+02 -0.23410190975E+01  0.82785552932E+02  0.86709170583E+02  0.12700000000E+01 0.  1.
<mgrwt>
<rscale>  1 0.12762278E+03</rscale>
<asrwt>0</asrwt>
<pdfrwt beam="1">  1       21 0.58145679E-01 0.12762278E+03</pdfrwt>
<pdfrwt beam="2">  1        4 0.24383784E-02 0.12762278E+03</pdfrwt>
<totfact> 0.83587138E+04</totfact>
</mgrwt>
</event>
<event>
 6    4  0.6195789E-003  0.1376898E+03  0.7818608E-02  0.1216472E+00
          4   -1    0    0  502    0 -0.00000000000E+00  0.00000000000E+00  0.82412703675E+02  0.82422488600E+02  0.12700000000E+01 0. -1.
         21   -1    0    0  501  502  0.00000000000E+00 -0.00000000000E+00 -0.31332745091E+03  0.31332745091E+03  0.00000000000E+00 0.  1.
         25    2    1    2    0    0 -0.34479804972E+02 -0.46308716083E+02  0.19229502809E+02  0.13902613293E+03  0.12500055089E+03 0.  0.
    9000005    1    3    3    0    0 -0.26454944392E+02 -0.25985529171E+02 -0.52360296990E+02  0.64169404781E+02  0.10000000000E+01 0.  0.
    9000005    1    3    3    0    0 -0.80248605798E+01 -0.20323186912E+02  0.71589799799E+02  0.74856728147E+02  0.10000000000E+01 0.  0.
          4    1    1    2  501    0  0.34479804972E+02  0.46308716083E+02 -0.25014425005E+03  0.25672380658E+03  0.12700000000E+01 0.  1.
<mgrwt>
<rscale>  1 0.13768984E+03</rscale>
<asrwt>0</asrwt>
<pdfrwt beam="2">  1       21 0.48204224E-01 0.13768984E+03</pdfrwt>
<pdfrwt beam="1">  1        4 0.12679828E-01 0.13768984E+03</pdfrwt>
<totfact> 0.85678068E+03</totfact>
</mgrwt>
</event>
<event>
 6    4  0.6195789E-003  0.1398105E+03  0.7818608E-02  0.1213584E+00
         21   -1    0    0  501  502  0.00000000000E+00  0.00000000000E+00  0.23081808491E+03  0.23081808491E+03  0.00000000000E+00 0. -1.
          4   -1    0    0  502    0 -0.00000000000E+00 -0.00000000000E+00 -0.47963231189E+02  0.47980042164E+02  0.12700000000E+01 0. -1.
         25    2    1    2    0    0 -0.47080550360E+02 -0.41466188872E+02  0.88447658484E+02  0.16543872317E+03  0.12494382654E+03 0.  0.
    9000005    1    3    3    0    0 -0.47398122951E+02  0.14494844938E+02 -0.11495315566E+02  0.50890321959E+02  0.10000000000E+01 0.  0.
    9000005    1    3    3    0    0  0.31757259154E+00 -0.55961033810E+02  0.99942974049E+02  0.11454840121E+03  0.10000000000E+01 0.  0.
          4    1    1    2  501    0  0.47080550360E+02  0.41466188872E+02  0.94407195236E+02  0.11335940391E+03  0.12700000000E+01 0.  1.
<mgrwt>
<rscale>  1 0.13981052E+03</rscale>
<asrwt>0</asrwt>
<pdfrwt beam="1">  1       21 0.35510474E-01 0.13981052E+03</pdfrwt>
<pdfrwt beam="2">  1        4 0.73805207E-02 0.13981052E+03</pdfrwt>
<totfact> 0.39438407E+04</totfact>
</mgrwt>
</event>
<event>
 6    4  0.6195789E-003  0.1266329E+03  0.7818608E-02  0.1232539E+00
          4   -1    0    0  502    0 -0.00000000000E+00  0.00000000000E+00  0.19845473747E+03  0.19845880107E+03  0.12700000000E+01 0. -1.
         21   -1    0    0  501  502  0.00000000000E+00 -0.00000000000E+00 -0.23623649116E+03  0.23623649116E+03  0.00000000000E+00 0.  1.
         25    2    1    2    0    0 -0.13068089188E+00 -0.20272906257E+02  0.17772970503E+03  0.21822864458E+03  0.12499954184E+03 0.  0.
    9000005    1    3    3    0    0 -0.17417579082E+02 -0.49036504713E+02  0.18097643880E+02  0.55104224608E+02  0.10000000000E+01 0.  0.
    9000005    1    3    3    0    0  0.17286898190E+02  0.28763598456E+02  0.15963206115E+03  0.16312441997E+03  0.10000000000E+01 0.  0.
          4    1    1    2  501    0  0.13068089188E+00  0.20272906257E+02 -0.21551145872E+03  0.21646664765E+03  0.12700000000E+01 0.  1.
<mgrwt>
<rscale>  1 0.12663291E+03</rscale>
<asrwt>0</asrwt>
<pdfrwt beam="2">  1       21 0.36344076E-01 0.12663291E+03</pdfrwt>
<pdfrwt beam="1">  1        4 0.30532073E-01 0.12663291E+03</pdfrwt>
<totfact> 0.30992030E+03</totfact>
</mgrwt>
</event>
<event>
 6    4  0.6195789E-003  0.1286232E+03  0.7818608E-02  0.1229513E+00
         21   -1    0    0  501  502  0.00000000000E+00  0.00000000000E+00  0.39443272939E+02  0.39443272939E+02  0.00000000000E+00 0. -1.
          4   -1    0    0  502    0 -0.00000000000E+00 -0.00000000000E+00 -0.20077391310E+03  0.20077792977E+03  0.12700000000E+01 0.  1.
         25    2    1    2    0    0  0.23635392547E+02  0.19033320178E+02 -0.16545529261E+03  0.20956953529E+03  0.12499214860E+03 0.  0.
    9000005    1    3    3    0    0  0.15872022109E+02 -0.52707017912E+02 -0.56543913624E+02  0.78918723957E+02  0.10000000000E+01 0.  0.
    9000005    1    3    3    0    0  0.77633704376E+01  0.71740338090E+02 -0.10891137899E+03  0.13065081133E+03  0.10000000000E+01 0.  0.
          4    1    1    2  501    0 -0.23635392547E+02 -0.19033320178E+02  0.41246524432E+01  0.30651667420E+02  0.12700000000E+01 0. -1.
<mgrwt>
<rscale>  1 0.12862323E+03</rscale>
<asrwt>0</asrwt>
<pdfrwt beam="1">  1       21 0.60681960E-02 0.12862323E+03</pdfrwt>
<pdfrwt beam="2">  1        4 0.30890175E-01 0.12862323E+03</pdfrwt>
<totfact> 0.77778181E+04</totfact>
</mgrwt>
</event>
<event>
 6    4  0.6195789E-003  0.1314107E+03  0.7818608E-02  0.1225377E+00
          4   -1    0    0  502    0 -0.00000000000E+00  0.00000000000E+00  0.71725182123E+03  0.71725294559E+03  0.12700000000E+01 0.  1.
         21   -1    0    0  501  502  0.00000000000E+00 -0.00000000000E+00 -0.16073941141E+02  0.16073941141E+02  0.00000000000E+00 0. -1.
         25    2    1    2    0    0  0.42834782503E+01  0.40317096344E+02  0.66834176434E+03  0.68113838377E+03  0.12499986978E+03 0.  0.
    9000005    1    3    3    0    0  0.28275394272E+02  0.19356254127E+00  0.58413394294E+03  0.58481877423E+03  0.10000000000E+01 0.  0.
    9000005    1    3    3    0    0 -0.23991916021E+02  0.40123533803E+02  0.84207821396E+02  0.96319609548E+02  0.10000000000E+01 0.  0.
          4    1    1    2  501    0 -0.42834782503E+01 -0.40317096344E+02  0.32836115750E+02  0.52188502959E+02  0.12700000000E+01 0. -1.
<mgrwt>
<rscale>  1 0.13141074E+03</rscale>
<asrwt>0</asrwt>
<pdfrwt beam="2">  1       21 0.24729146E-02 0.13141074E+03</pdfrwt>
<pdfrwt beam="1">  1        4 0.11035036E+00 0.13141074E+03</pdfrwt>
<totfact> 0.23867237E+04</totfact>
</mgrwt>
</event>
<event>
 6    4  0.6195789E-003  0.1331487E+03  0.7818608E-02  0.1222857E+00
          4   -1    0    0  502    0 -0.00000000000E+00  0.00000000000E+00  0.74017366479E+03  0.74017475433E+03  0.12700000000E+01 0. -1.
         21   -1    0    0  501  502  0.00000000000E+00 -0.00000000000E+00 -0.15344550259E+02  0.15344550259E+02  0.00000000000E+00 0.  1.
         25    2    1    2    0    0  0.45816976821E+02  0.21569027804E+01  0.67406988830E+03  0.68709445864E+03  0.12499893278E+03 0.  0.
    9000005    1    3    3    0    0 -0.80189868597E+01  0.53087323348E+02  0.19230091117E+03  0.19965772834E+03  0.10000000000E+01 0.  0.
    9000005    1    3    3    0    0  0.53835963681E+02 -0.50930420567E+02  0.48176897713E+03  0.48743673030E+03  0.10000000000E+01 0.  0.
          4    1    1    2  501    0 -0.45816976821E+02 -0.21569027804E+01  0.50759226232E+02  0.68424845943E+02  0.12700000000E+01 0.  1.
<mgrwt>
<rscale>  1 0.13314872E+03</rscale>
<asrwt>0</asrwt>
<pdfrwt beam="2">  1       21 0.23607006E-02 0.13314872E+03</pdfrwt>
<pdfrwt beam="1">  1        4 0.11387697E+00 0.13314872E+03</pdfrwt>
<totfact> 0.23932637E+04</totfact>
</mgrwt>
</event>
<event>
 6    4  0.6195789E-003  0.1268811E+03  0.7818608E-02  0.1232158E+00
         21   -1    0    0  501  502  0.00000000000E+00  0.00000000000E+00  0.45102369317E+03  0.45102369317E+03  0.00000000000E+00 0.  1.
         -4   -1    0    0    0  501 -0.00000000000E+00 -0.00000000000E+00 -0.12550697076E+02  0.12614788825E+02  0.12700000000E+01 0.  1.
         25    2    1    2    0    0  0.20141369159E+02 -0.82291762082E+01  0.34316400433E+03  0.36586931046E+03  0.12500169748E+03 0.  0.
    9000005    1    3    3    0    0 -0.40156311022E+02  0.32630427960E+02  0.10949463246E+03  0.12110882990E+03  0.10000000000E+01 0.  0.
    9000005    1    3    3    0    0  0.60297680181E+02 -0.40859604168E+02  0.23366937188E+03  0.24476048055E+03  0.10000000000E+01 0.  0.
         -4    1    1    2    0  502 -0.20141369159E+02  0.82291762082E+01  0.95308991760E+02  0.97769171537E+02  0.12700000000E+01 0. -1.
<mgrwt>
<rscale>  1 0.12688112E+03</rscale>
<asrwt>0</asrwt>
<pdfrwt beam="1">  1       21 0.69388248E-01 0.12688112E+03</pdfrwt>
<pdfrwt beam="2">  1       -4 0.19359445E-02 0.12688112E+03</pdfrwt>
<totfact> 0.81647752E+04</totfact>
</mgrwt>
</event>
<event>
 6    4  0.6195789E-003  0.1275895E+03  0.7818608E-02  0.1231077E+00
          4   -1    0    0  502    0 -0.00000000000E+00  0.00000000000E+00  0.69562472744E+02  0.69574064954E+02  0.12700000000E+01 0. -1.
         21   -1    0    0  501  502  0.00000000000E+00 -0.00000000000E+00 -0.85436153108E+02  0.85436153108E+02  0.00000000000E+00 0. -1.
         25    2    1    2    0    0 -0.23649308578E+02  0.97718156449E+01 -0.65886729655E+01  0.12775948524E+03  0.12499718908E+03 0.  0.
    9000005    1    3    3    0    0  0.25475533139E+02 -0.45261972393E+02  0.79813337748E+01  0.52558069052E+02  0.10000000000E+01 0.  0.
    9000005    1    3    3    0    0 -0.49124841717E+02  0.55033788038E+02 -0.14570006740E+02  0.75201416183E+02  0.10000000000E+01 0.  0.
          4    1    1    2  501    0  0.23649308578E+02 -0.97718156449E+01 -0.92850073984E+01  0.27250732827E+02  0.12700000000E+01 0.  1.
<mgrwt>
<rscale>  1 0.12758948E+03</rscale>
<asrwt>0</asrwt>
<pdfrwt beam="2">  1       21 0.13144024E-01 0.12758948E+03</pdfrwt>
<pdfrwt beam="1">  1        4 0.10703537E-01 0.12758948E+03</pdfrwt>
<totfact> 0.13428552E+05</totfact>
</mgrwt>
</event>
<event>
 6    4  0.6195789E-003  0.1306032E+03  0.7818608E-02  0.1226563E+00
         -4   -1    0    0    0  501 -0.00000000000E+00  0.00000000000E+00  0.20233975026E+03  0.20234373585E+03  0.12700000000E+01 0. -1.
         21   -1    0    0  501  502  0.00000000000E+00 -0.00000000000E+00 -0.37862705960E+02  0.37862705960E+02  0.00000000000E+00 0. -1.
         25    2    1    2    0    0  0.37615075116E+02 -0.42258028787E+01  0.15183887960E+03  0.20028041780E+03  0.12499779642E+03 0.  0.
    9000005    1    3    3    0    0 -0.34882132672E+02  0.33166338612E+02  0.67844293244E+02  0.83190247760E+02  0.10000000000E+01 0.  0.
    9000005    1    3    3    0    0  0.72497207788E+02 -0.37392141491E+02  0.83994586361E+02  0.11709017004E+03  0.10000000000E+01 0.  0.
         -4    1    1    2    0  502 -0.37615075116E+02  0.42258028787E+01  0.12638164697E+02  0.39926024006E+02  0.12700000000E+01 0.  1.
<mgrwt>
<rscale>  1 0.13060322E+03</rscale>
<asrwt>0</asrwt>
<pdfrwt beam="2">  1       21 0.58250318E-02 0.13060322E+03</pdfrwt>
<pdfrwt beam="1">  1       -4 0.31131137E-01 0.13060322E+03</pdfrwt>
<totfact> 0.82319269E+04</totfact>
</mgrwt>
</event>
<event>
 6    4  0.6195789E-003  0.1287613E+03  0.7818608E-02  0.1229305E+00
         21   -1    0    0  501  502  0.00000000000E+00  0.00000000000E+00  0.21520061426E+04  0.21520061426E+04  0.00000000000E+00 0.  1.
          4   -1    0    0  502    0 -0.00000000000E+00 -0.00000000000E+00 -0.42424661662E+02  0.42443666396E+02  0.12700000000E+01 0. -1.
         25    2    1    2    0    0 -0.30047517783E+02 -0.71796204466E+01  0.55628319927E+02  0.14026393600E+03  0.12500024596E+03 0.  0.
    9000005    1    3    3    0    0  0.12045513264E+02  0.41853270340E+01 -0.36314914151E+02  0.38501744662E+02  0.10000000000E+01 0.  0.
    9000005    1    3    3    0    0 -0.42093031047E+02 -0.11364947481E+02  0.91943234078E+02  0.10176219134E+03  0.10000000000E+01 0.  0.
          4    1    1    2  501    0  0.30047517783E+02  0.71796204466E+01  0.20539531610E+04  0.20541858730E+04  0.12700000000E+01 0.  1.
<mgrwt>
<rscale>  1 0.12876126E+03</rscale>
<asrwt>0</asrwt>
<pdfrwt beam="1">  1       21 0.33107778E+00 0.12876126E+03</pdfrwt>
<pdfrwt beam="2">  1        4 0.65283634E-02 0.12876126E+03</pdfrwt>
<totfact> 0.15534125E+02</totfact>
</mgrwt>
</event>
<event>
 6    4  0.6195789E-003  0.1265953E+03  0.7818608E-02  0.1232597E+00
         -4   -1    0    0    0  501 -0.00000000000E+00  0.00000000000E+00  0.10272511081E+04  0.10272518931E+04  0.12700000000E+01 0.  1.
         21   -1    0    0  501  502  0.00000000000E+00 -0.00000000000E+00 -0.93028908503E+01  0.93028908503E+01  0.00000000000E+00 0. -1.
         25    2    1    2    0    0 -0.14619026412E+02  0.13743880706E+02  0.10043167386E+04  0.10122640388E+04  0.12499505060E+03 0.  0.
    9000005    1    3    3    0    0 -0.26176503859E+02 -0.45545165640E+02  0.24619774686E+03  0.25174173676E+03  0.10000000000E+01 0.  0.
    9000005    1    3    3    0    0  0.11557477447E+02  0.59289046346E+02  0.75811899175E+03  0.76052230207E+03  0.10000000000E+01 0.  0.
         -4    1    1    2    0  502  0.14619026412E+02 -0.13743880706E+02  0.13631478591E+02  0.24290745124E+02  0.12700000000E+01 0. -1.
<mgrwt>
<rscale>  1 0.12659531E+03</rscale>
<asrwt>0</asrwt>
<pdfrwt beam="2">  1       21 0.14312148E-02 0.12659531E+03</pdfrwt>
<pdfrwt beam="1">  1       -4 0.15804527E+00 0.12659531E+03</pdfrwt>
<totfact> 0.23691335E+04</totfact>
</mgrwt>
</event>
<event>
 6    4  0.6195789E-003  0.1374189E+03  0.7818608E-02  0.1216845E+00
         -4   -1    0    0    0  501 -0.00000000000E+00  0.00000000000E+00  0.24990996719E+02  0.25023245533E+02  0.12700000000E+01 0.  1.
         21   -1    0    0  501  502  0.00000000000E+00 -0.00000000000E+00 -0.50193223796E+03  0.50193223796E+03  0.00000000000E+00 0. -1.
         25    2    1    2    0    0 -0.17809247275E+02 -0.54236451245E+02 -0.19057891835E+03  0.23495590335E+03  0.12500076187E+03 0.  0.
    9000005    1    3    3    0    0  0.19022132532E+02  0.32086598811E+02 -0.89779302641E+02  0.97225071520E+02  0.10000000000E+01 0.  0.
    9000005    1    3    3    0    0 -0.36831379807E+02 -0.86323050057E+02 -0.10079961571E+03  0.13773083183E+03  0.10000000000E+01 0.  0.
         -4    1    1    2    0  502  0.17809247275E+02  0.54236451245E+02 -0.28636232289E+03  0.29199958014E+03  0.12700000000E+01 0. -1.
<mgrwt>
<rscale>  1 0.13741889E+03</rscale>
<asrwt>0</asrwt>
<pdfrwt beam="2">  1       21 0.77220338E-01 0.13741889E+03</pdfrwt>
<pdfrwt beam="1">  1       -4 0.38473733E-02 0.13741889E+03</pdfrwt>
<totfact> 0.22284721E+04</totfact>
</mgrwt>
</event>
<event>
 6    4  0.6195789E-003  0.1280134E+03  0.7818608E-02  0.1230434E+00
         21   -1    0    0  501  502  0.00000000000E+00  0.00000000000E+00  0.33754108444E+02  0.33754108444E+02  0.00000000000E+00 0. -1.
          4   -1    0    0  502    0 -0.00000000000E+00 -0.00000000000E+00 -0.20802745360E+03  0.20803133022E+03  0.12700000000E+01 0.  1.
         25    2    1    2    0    0 -0.64429725927E+01 -0.26850607055E+02 -0.17149442817E+03  0.21400410905E+03  0.12499981122E+03 0.  0.
    9000005    1    3    3    0    0 -0.21353026914E+00 -0.22257652766E+02 -0.19136409765E+03  0.19265686225E+03  0.10000000000E+01 0.  0.
    9000005    1    3    3    0    0 -0.62294423235E+01 -0.45929542886E+01  0.19869669484E+02  0.21347246805E+02  0.10000000000E+01 0.  0.
          4    1    1    2  501    0  0.64429725927E+01  0.26850607055E+02 -0.27789169889E+01  0.27781329606E+02  0.12700000000E+01 0. -1.
<mgrwt>
<rscale>  1 0.12801336E+03</rscale>
<asrwt>0</asrwt>
<pdfrwt beam="1">  1       21 0.51929397E-02 0.12801336E+03</pdfrwt>
<pdfrwt beam="2">  1        4 0.32006360E-01 0.12801336E+03</pdfrwt>
<totfact> 0.94526234E+04</totfact>
</mgrwt>
</event>
<event>
 6    4  0.6195789E-003  0.1269360E+03  0.7818608E-02  0.1232074E+00
         -4   -1    0    0    0  501 -0.00000000000E+00  0.00000000000E+00  0.59561642626E+02  0.59575180841E+02  0.12700000000E+01 0.  1.
         21   -1    0    0  501  502  0.00000000000E+00 -0.00000000000E+00 -0.19718423685E+03  0.19718423685E+03  0.00000000000E+00 0. -1.
         25    2    1    2    0    0 -0.15847122271E+02 -0.15407302905E+02 -0.10108621215E+02  0.12733784886E+03  0.12499690901E+03 0.  0.
    9000005    1    3    3    0    0 -0.61719234887E+01 -0.28420680899E+02 -0.64398975031E+02  0.70668633264E+02  0.10000000000E+01 0.  0.
    9000005    1    3    3    0    0 -0.96751987820E+01  0.13013377994E+02  0.54290353816E+02  0.56669215592E+02  0.10000000000E+01 0.  0.
         -4    1    1    2    0  502  0.15847122271E+02  0.15407302905E+02 -0.12751397301E+03  0.12942156883E+03  0.12700000000E+01 0. -1.
<mgrwt>
<rscale>  1 0.12693598E+03</rscale>
<asrwt>0</asrwt>
<pdfrwt beam="2">  1       21 0.30336036E-01 0.12693598E+03</pdfrwt>
<pdfrwt beam="1">  1       -4 0.91646857E-02 0.12693598E+03</pdfrwt>
<totfact> 0.37054778E+04</totfact>
</mgrwt>
</event>
<event>
 6    4  0.6195789E-003  0.1385756E+03  0.7818608E-02  0.1215259E+00
         21   -1    0    0  501  502  0.00000000000E+00  0.00000000000E+00  0.46414396494E+02  0.46414396494E+02  0.00000000000E+00 0.  1.
         -4   -1    0    0    0  501 -0.00000000000E+00 -0.00000000000E+00 -0.23362630890E+03  0.23362976075E+03  0.12700000000E+01 0. -1.
         25    2    1    2    0    0 -0.24666164102E+01  0.59769544277E+02 -0.16673472324E+03  0.21680326228E+03  0.12499881593E+03 0.  0.
    9000005    1    3    3    0    0  0.47707105103E+02  0.10033124826E+02 -0.12632419093E+03  0.13540839222E+03  0.10000000000E+01 0.  0.
    9000005    1    3    3    0    0 -0.50173721513E+02  0.49736419451E+02 -0.40410532309E+02  0.81394870058E+02  0.10000000000E+01 0.  0.
         -4    1    1    2    0  502  0.24666164102E+01 -0.59769544277E+02 -0.20477189164E+02  0.63240894963E+02  0.12700000000E+01 0.  1.
<mgrwt>
<rscale>  1 0.13857556E+03</rscale>
<asrwt>0</asrwt>
<pdfrwt beam="1">  1       21 0.71406764E-02 0.13857556E+03</pdfrwt>
<pdfrwt beam="2">  1       -4 0.35944111E-01 0.13857556E+03</pdfrwt>
<totfact> 0.44496974E+04</totfact>
</mgrwt>
</event>
<event>
 6    4  0.6195789E-003  0.1342998E+03  0.7818608E-02  0.1221212E+00
          4   -1    0    0  502    0 -0.00000000000E+00  0.00000000000E+00  0.15111414534E+03  0.15111948194E+03  0.12700000000E+01 0. -1.
         21   -1    0    0  501  502  0.00000000000E+00 -0.00000000000E+00 -0.21447001524E+03  0.21447001524E+03  0.00000000000E+00 0.  1.
         25    2    1    2    0    0 -0.41092756513E+02 -0.26886063299E+02  0.11733728199E+03  0.17833805372E+03  0.12499979449E+03 0.  0.
    9000005    1    3    3    0    0  0.27639575145E+02 -0.17717997292E+02 -0.91418324473E+01  0.34094671765E+02  0.10000000000E+01 0.  0.
    9000005    1    3    3    0    0 -0.68732331659E+02 -0.91680660073E+01  0.12647911444E+03  0.14424338196E+03  0.10000000000E+01 0.  0.
          4    1    1    2  501    0  0.41092756513E+02  0.26886063299E+02 -0.18069315189E+03  0.18725144346E+03  0.12700000000E+01 0.  1.
<mgrwt>
<rscale>  1 0.13429975E+03</rscale>
<asrwt>0</asrwt>
<pdfrwt beam="2">  1       21 0.32995387E-01 0.13429975E+03</pdfrwt>
<pdfrwt beam="1">  1        4 0.23249030E-01 0.13429975E+03</pdfrwt>
<totfact> 0.62422487E+03</totfact>
</mgrwt>
</event>
<event>
 6    4  0.6195789E-003  0.1281820E+03  0.7818608E-02  0.1230178E+00
         21   -1    0    0  501  502  0.00000000000E+00  0.00000000000E+00  0.11121011271E+03  0.11121011271E+03  0.00000000000E+00 0.  1.
          4   -1    0    0  502    0 -0.00000000000E+00 -0.00000000000E+00 -0.66441664206E+02  0.66453800813E+02  0.12700000000E+01 0.  1.
         25    2    1    2    0    0  0.25909831635E+02 -0.11601842590E+02  0.43503391458E+01  0.12825583128E+03  0.12499884271E+03 0.  0.
    9000005    1    3    3    0    0 -0.16802286814E+02 -0.28566078236E+02  0.52240273385E+02  0.61873934991E+02  0.10000000000E+01 0.  0.
    9000005    1    3    3    0    0  0.42712118449E+02  0.16964235646E+02 -0.47889934239E+02  0.66381896289E+02  0.10000000000E+01 0.  0.
          4    1    1    2  501    0 -0.25909831635E+02  0.11601842590E+02  0.40418109354E+02  0.49408082240E+02  0.12700000000E+01 0. -1.
<mgrwt>
<rscale>  1 0.12818203E+03</rscale>
<asrwt>0</asrwt>
<pdfrwt beam="1">  1       21 0.17109248E-01 0.12818203E+03</pdfrwt>
<pdfrwt beam="2">  1        4 0.10223286E-01 0.12818203E+03</pdfrwt>
<totfact> 0.90280379E+04</totfact>
</mgrwt>
</event>
<event>
 6    4  0.6195789E-003  0.1385682E+03  0.7818608E-02  0.1215269E+00
         21   -1    0    0  501  502  0.00000000000E+00  0.00000000000E+00  0.45416299788E+02  0.45416299788E+02  0.00000000000E+00 0.  1.
         -4   -1    0    0    0  501 -0.00000000000E+00 -0.00000000000E+00 -0.75019355907E+03  0.75019463406E+03  0.12700000000E+01 0. -1.
         25    2    1    2    0    0 -0.16960669899E+02  0.57332614735E+02 -0.72055861986E+03  0.73376146111E+03  0.12500585637E+03 0.  0.
    9000005    1    3    3    0    0 -0.58351462564E+01 -0.33037126285E+02 -0.37179397313E+03  0.37330585195E+03  0.10000000000E+01 0.  0.
    9000005    1    3    3    0    0 -0.11125523643E+02  0.90369741020E+02 -0.34876464672E+03  0.36045560916E+03  0.10000000000E+01 0.  0.
         -4    1    1    2    0  502  0.16960669899E+02 -0.57332614735E+02  0.15781360577E+02  0.61849472734E+02  0.12700000000E+01 0.  1.
<mgrwt>
<rscale>  1 0.13856824E+03</rscale>
<asrwt>0</asrwt>
<pdfrwt beam="1">  1       21 0.69871237E-02 0.13856824E+03</pdfrwt>
<pdfrwt beam="2">  1       -4 0.11541583E+00 0.13856824E+03</pdfrwt>
<totfact> 0.38151658E+03</totfact>
</mgrwt>
</event>
<event>
 6    4  0.6195789E-003  0.1824948E+03  0.7818608E-02  0.1165410E+00
          4   -1    0    0  502    0 -0.00000000000E+00  0.00000000000E+00  0.37269070939E+03  0.37269287324E+03  0.12700000000E+01 0.  1.
         21   -1    0    0  501  502  0.00000000000E+00 -0.00000000000E+00 -0.82355871152E+02  0.82355871152E+02  0.00000000000E+00 0. -1.
         25    2    1    2    0    0  0.65482797522E+02 -0.11572452949E+03  0.26166765996E+03  0.31902086671E+03  0.12499674247E+03 0.  0.
    9000005    1    3    3    0    0  0.50041566087E+02 -0.12699517391E+03  0.13881516076E+03  0.19468585308E+03  0.10000000000E+01 0.  0.
    9000005    1    3    3    0    0  0.15441231435E+02  0.11270644416E+02  0.12285249920E+03  0.12433501363E+03  0.10000000000E+01 0.  0.
          4    1    1    2  501    0 -0.65482797522E+02  0.11572452949E+03  0.28667178275E+02  0.13602787769E+03  0.12700000000E+01 0. -1.
<mgrwt>
<rscale>  1 0.18249479E+03</rscale>
<asrwt>0</asrwt>
<pdfrwt beam="2">  1       21 0.12670134E-01 0.18249479E+03</pdfrwt>
<pdfrwt beam="1">  1        4 0.57337951E-01 0.18249479E+03</pdfrwt>
<totfact> 0.65140425E+03</totfact>
</mgrwt>
</event>
<event>
 6    4  0.6195789E-003  0.1276059E+03  0.7818608E-02  0.1231052E+00
         21   -1    0    0  501  502  0.00000000000E+00  0.00000000000E+00  0.16000680270E+03  0.16000680270E+03  0.00000000000E+00 0.  1.
         -4   -1    0    0    0  501 -0.00000000000E+00 -0.00000000000E+00 -0.63213675458E+02  0.63226431695E+02  0.12700000000E+01 0. -1.
         25    2    1    2    0    0 -0.94480153567E+01  0.23892739123E+02  0.47838353407E+01  0.12769554197E+03  0.12499255331E+03 0.  0.
    9000005    1    3    3    0    0 -0.42271529137E+01 -0.41540596675E+02 -0.31842342013E+02  0.52520707714E+02  0.10000000000E+01 0.  0.
    9000005    1    3    3    0    0 -0.52208624430E+01  0.65433335798E+02  0.36626177354E+02  0.75174834259E+02  0.10000000000E+01 0.  0.
         -4    1    1    2    0  502  0.94480153567E+01 -0.23892739123E+02  0.92009291906E+02  0.95537692425E+02  0.12700000000E+01 0.  1.
<mgrwt>
<rscale>  1 0.12760590E+03</rscale>
<asrwt>0</asrwt>
<pdfrwt beam="1">  1       21 0.24616431E-01 0.12760590E+03</pdfrwt>
<pdfrwt beam="2">  1       -4 0.97265498E-02 0.12760590E+03</pdfrwt>
<totfact> 0.49995256E+04</totfact>
</mgrwt>
</event>
<event>
 6    4  0.6195789E-003  0.1762293E+03  0.7818608E-02  0.1171503E+00
         21   -1    0    0  501  502  0.00000000000E+00  0.00000000000E+00  0.12604988791E+04  0.12604988791E+04  0.00000000000E+00 0.  1.
         -4   -1    0    0    0  501 -0.00000000000E+00 -0.00000000000E+00 -0.11910609791E+03  0.11911286857E+03  0.12700000000E+01 0. -1.
         25    2    1    2    0    0 -0.12006329212E+03 -0.31882761949E+02 -0.48872762082E+02  0.18288062456E+03  0.12500028536E+03 0.  0.
    9000005    1    3    3    0    0 -0.14364725684E+03 -0.38537619246E+02 -0.29501639680E+02  0.15162793027E+03  0.10000000000E+01 0.  0.
    9000005    1    3    3    0    0  0.23583964711E+02  0.66548572965E+01 -0.19371122403E+02  0.31252694288E+02  0.10000000000E+01 0.  0.
         -4    1    1    2    0  502  0.12006329212E+03  0.31882761949E+02  0.11902655433E+04  0.11967311231E+04  0.12700000000E+01 0.  1.
<mgrwt>
<rscale>  1 0.17622933E+03</rscale>
<asrwt>0</asrwt>
<pdfrwt beam="1">  1       21 0.19392290E+00 0.17622933E+03</pdfrwt>
<pdfrwt beam="2">  1       -4 0.18324586E-01 0.17622933E+03</pdfrwt>
<totfact> 0.16437263E+02</totfact>
</mgrwt>
</event>
<event>
 6    4  0.6195789E-003  0.1351162E+03  0.7818608E-02  0.1220056E+00
          4   -1    0    0  502    0 -0.00000000000E+00  0.00000000000E+00  0.49113706833E+02  0.49130124149E+02  0.12700000000E+01 0. -1.
         21   -1    0    0  501  502  0.00000000000E+00 -0.00000000000E+00 -0.48850978847E+03  0.48850978847E+03  0.00000000000E+00 0.  1.
         25    2    1    2    0    0 -0.28692802886E+02 -0.42546011020E+02 -0.48759493879E+02  0.14364499313E+03  0.12499182300E+03 0.  0.
    9000005    1    3    3    0    0 -0.62613420912E+02 -0.50698529794E+02 -0.66521830407E+02  0.10448413909E+03  0.10000000000E+01 0.  0.
    9000005    1    3    3    0    0  0.33920618026E+02  0.81525187737E+01  0.17762336528E+02  0.39160854032E+02  0.10000000000E+01 0.  0.
          4    1    1    2  501    0  0.28692802886E+02  0.42546011020E+02 -0.39063658775E+03  0.39399491949E+03  0.12700000000E+01 0.  1.
<mgrwt>
<rscale>  1 0.13511623E+03</rscale>
<asrwt>0</asrwt>
<pdfrwt beam="2">  1       21 0.75155348E-01 0.13511623E+03</pdfrwt>
<pdfrwt beam="1">  1        4 0.75573452E-02 0.13511623E+03</pdfrwt>
<totfact> 0.79398536E+03</totfact>
</mgrwt>
</event>
<event>
 6    4  0.6195789E-003  0.1267024E+03  0.7818608E-02  0.1232432E+00
         21   -1    0    0  501  502  0.00000000000E+00  0.00000000000E+00  0.17626531420E+02  0.17626531420E+02  0.00000000000E+00 0. -1.
         -4   -1    0    0    0  501 -0.00000000000E+00 -0.00000000000E+00 -0.31378456847E+03  0.31378713854E+03  0.12700000000E+01 0. -1.
         25    2    1    2    0    0 -0.10651089806E+02 -0.17750376124E+02 -0.23727591910E+03  0.26898580533E+03  0.12499992048E+03 0.  0.
    9000005    1    3    3    0    0  0.25856773862E+02  0.42645871295E+02 -0.59084672788E+02  0.77325556264E+02  0.10000000000E+01 0.  0.
    9000005    1    3    3    0    0 -0.36507863668E+02 -0.60396247419E+02 -0.17819124631E+03  0.19166024907E+03  0.10000000000E+01 0.  0.
         -4    1    1    2    0  502  0.10651089806E+02  0.17750376124E+02 -0.58882117955E+02  0.62427864623E+02  0.12700000000E+01 0.  1.
<mgrwt>
<rscale>  1 0.12670241E+03</rscale>
<asrwt>0</asrwt>
<pdfrwt beam="1">  1       21 0.27117742E-02 0.12670241E+03</pdfrwt>
<pdfrwt beam="2">  1       -4 0.48278264E-01 0.12670241E+03</pdfrwt>
<totfact> 0.12363566E+05</totfact>
</mgrwt>
</event>
<event>
 6    4  0.6195789E-003  0.1326803E+03  0.7818608E-02  0.1223532E+00
         21   -1    0    0  501  502  0.00000000000E+00  0.00000000000E+00  0.93397134635E+01  0.93397134635E+01  0.00000000000E+00 0. -1.
          4   -1    0    0  502    0 -0.00000000000E+00 -0.00000000000E+00 -0.10864018985E+04  0.10864026409E+04  0.12700000000E+01 0. -1.
         25    2    1    2    0    0 -0.16521491931E+02  0.41313204219E+02 -0.98023548525E+03  0.98917423883E+03  0.12499731072E+03 0.  0.
    9000005    1    3    3    0    0 -0.44823857906E+02  0.62340346502E+02 -0.87115050967E+03  0.87452827715E+03  0.10000000000E+01 0.  0.
    9000005    1    3    3    0    0  0.28302365975E+02 -0.21027142283E+02 -0.10908497558E+03  0.11464596168E+03  0.10000000000E+01 0.  0.
          4    1    1    2  501    0  0.16521491931E+02 -0.41313204219E+02 -0.96826699826E+02  0.10656811548E+03  0.12700000000E+01 0.  1.
<mgrwt>
<rscale>  1 0.13268032E+03</rscale>
<asrwt>0</asrwt>
<pdfrwt beam="1">  1       21 0.14368798E-02 0.13268032E+03</pdfrwt>
<pdfrwt beam="2">  1        4 0.16714536E+00 0.13268032E+03</pdfrwt>
<totfact> 0.20440625E+04</totfact>
</mgrwt>
</event>
<event>
 6    4  0.6195789E-003  0.1274528E+03  0.7818608E-02  0.1231285E+00
          4   -1    0    0  502    0 -0.00000000000E+00  0.00000000000E+00  0.44531354500E+02  0.44549460531E+02  0.12700000000E+01 0.  1.
         21   -1    0    0  501  502  0.00000000000E+00 -0.00000000000E+00 -0.95503858353E+03  0.95503858353E+03  0.00000000000E+00 0. -1.
         25    2    1    2    0    0 -0.71314715624E+01  0.23858386956E+02 -0.47186380824E+02  0.13590721160E+03  0.12499654041E+03 0.  0.
    9000005    1    3    3    0    0 -0.15334685028E+02 -0.11362883718E+02  0.38452538780E+02  0.42940254190E+02  0.10000000000E+01 0.  0.
    9000005    1    3    3    0    0  0.82032134651E+01  0.35221270674E+02 -0.85638919604E+02  0.92966957409E+02  0.10000000000E+01 0.  0.
          4    1    1    2  501    0  0.71314715624E+01 -0.23858386956E+02 -0.86332084820E+03  0.86368083246E+03  0.12700000000E+01 0. -1.
<mgrwt>
<rscale>  1 0.12745280E+03</rscale>
<asrwt>0</asrwt>
<pdfrwt beam="2">  1       21 0.14692900E+00 0.12745280E+03</pdfrwt>
<pdfrwt beam="1">  1        4 0.68524360E-02 0.12745280E+03</pdfrwt>
<totfact> 0.18937106E+03</totfact>
</mgrwt>
</event>
<event>
 6    4  0.6195789E-003  0.1439547E+03  0.7818608E-02  0.1208104E+00
         21   -1    0    0  501  502  0.00000000000E+00  0.00000000000E+00  0.32026923192E+03  0.32026923192E+03  0.00000000000E+00 0. -1.
          4   -1    0    0  502    0 -0.00000000000E+00 -0.00000000000E+00 -0.61572075181E+02  0.61585171446E+02  0.12700000000E+01 0.  1.
         25    2    1    2    0    0  0.69032774744E+02 -0.18238437916E+02  0.36565967632E+02  0.14852621673E+03  0.12499920984E+03 0.  0.
    9000005    1    3    3    0    0  0.95200198680E+02 -0.28035227183E+02  0.56486635043E+02  0.11419628597E+03  0.10000000000E+01 0.  0.
    9000005    1    3    3    0    0 -0.26167423936E+02  0.97967892667E+01 -0.19920667411E+02  0.34329930753E+02  0.10000000000E+01 0.  0.
          4    1    1    2  501    0 -0.69032774744E+02  0.18238437916E+02  0.22213118911E+03  0.23332818664E+03  0.12700000000E+01 0. -1.
<mgrwt>
<rscale>  1 0.14395474E+03</rscale>
<asrwt>0</asrwt>
<pdfrwt beam="1">  1       21 0.49272189E-01 0.14395474E+03</pdfrwt>
<pdfrwt beam="2">  1        4 0.94738282E-02 0.14395474E+03</pdfrwt>
<totfact> 0.13481179E+04</totfact>
</mgrwt>
</event>
<event>
 6    4  0.6195789E-003  0.1318600E+03  0.7818608E-02  0.1224722E+00
         -4   -1    0    0    0  501 -0.00000000000E+00  0.00000000000E+00  0.50582600277E+03  0.50582759709E+03  0.12700000000E+01 0.  1.
         21   -1    0    0  501  502  0.00000000000E+00 -0.00000000000E+00 -0.15094294348E+02  0.15094294348E+02  0.00000000000E+00 0.  1.
         25    2    1    2    0    0  0.13278888989E+02 -0.39822937956E+02  0.39358383335E+03  0.41508466825E+03  0.12499941066E+03 0.  0.
    9000005    1    3    3    0    0  0.46331588181E+02 -0.70949456157E+02  0.22299164985E+03  0.23855128860E+03  0.10000000000E+01 0.  0.
    9000005    1    3    3    0    0 -0.33052699191E+02  0.31126518201E+02  0.17059218350E+03  0.17653337965E+03  0.10000000000E+01 0.  0.
         -4    1    1    2    0  502 -0.13278888989E+02  0.39822937956E+02  0.97147875071E+02  0.10583722318E+03  0.12700000000E+01 0. -1.
<mgrwt>
<rscale>  1 0.13185996E+03</rscale>
<asrwt>0</asrwt>
<pdfrwt beam="2">  1       21 0.23221995E-02 0.13185996E+03</pdfrwt>
<pdfrwt beam="1">  1       -4 0.77823604E-01 0.13185996E+03</pdfrwt>
<totfact> 0.58535393E+04</totfact>
</mgrwt>
</event>
<event>
 6    4  0.6195789E-003  0.1322121E+03  0.7818608E-02  0.1224210E+00
         21   -1    0    0  501  502  0.00000000000E+00  0.00000000000E+00  0.15683908175E+02  0.15683908175E+02  0.00000000000E+00 0.  1.
          4   -1    0    0  502    0 -0.00000000000E+00 -0.00000000000E+00 -0.65466607172E+03  0.65466730357E+03  0.12700000000E+01 0. -1.
         25    2    1    2    0    0 -0.42198306919E+02  0.86200208442E+01 -0.59207639033E+03  0.60665846233E+03  0.12500014429E+03 0.  0.
    9000005    1    3    3    0    0 -0.10762295584E+01 -0.15414691426E+02 -0.52017795762E+03  0.52040837673E+03  0.10000000000E+01 0.  0.
    9000005    1    3    3    0    0 -0.41122077360E+02  0.24034712271E+02 -0.71898432710E+02  0.86250085603E+02  0.10000000000E+01 0.  0.
          4    1    1    2  501    0  0.42198306919E+02 -0.86200208442E+01 -0.46905773218E+02  0.63692749410E+02  0.12700000000E+01 0.  1.
<mgrwt>
<rscale>  1 0.13221209E+03</rscale>
<asrwt>0</asrwt>
<pdfrwt beam="1">  1       21 0.24129094E-02 0.13221209E+03</pdfrwt>
<pdfrwt beam="2">  1        4 0.10072189E+00 0.13221209E+03</pdfrwt>
<totfact> 0.30775323E+04</totfact>
</mgrwt>
</event>
<event>
 6    4  0.6195789E-003  0.1336521E+03  0.7818608E-02  0.1222135E+00
         21   -1    0    0  501  502  0.00000000000E+00  0.00000000000E+00  0.16314572162E+02  0.16314572162E+02  0.00000000000E+00 0. -1.
         -4   -1    0    0    0  501 -0.00000000000E+00 -0.00000000000E+00 -0.52062220475E+03  0.52062375376E+03  0.12700000000E+01 0. -1.
         25    2    1    2    0    0 -0.47217724861E+01  0.46973408987E+02 -0.41382000577E+03  0.43486766513E+03  0.12503636556E+03 0.  0.
    9000005    1    3    3    0    0  0.36535495503E+02  0.38361630623E+02 -0.66639313156E+02  0.85136685357E+02  0.10000000000E+01 0.  0.
    9000005    1    3    3    0    0 -0.41257267989E+02  0.86117783646E+01 -0.34718069261E+03  0.34973097977E+03  0.10000000000E+01 0.  0.
         -4    1    1    2    0  502  0.47217724861E+01 -0.46973408987E+02 -0.90487626819E+02  0.10207066079E+03  0.12700000000E+01 0.  1.
<mgrwt>
<rscale>  1 0.13365212E+03</rscale>
<asrwt>0</asrwt>
<pdfrwt beam="1">  1       21 0.25099340E-02 0.13365212E+03</pdfrwt>
<pdfrwt beam="2">  1       -4 0.80099651E-01 0.13365212E+03</pdfrwt>
<totfact> 0.48492433E+04</totfact>
</mgrwt>
</event>
<event>
 6    4  0.6195789E-003  0.2759705E+03  0.7818608E-02  0.1097910E+00
          4   -1    0    0  502    0 -0.00000000000E+00  0.00000000000E+00  0.91466705131E+03  0.91466793299E+03  0.12700000000E+01 0. -1.
         21   -1    0    0  501  502  0.00000000000E+00 -0.00000000000E+00 -0.10779320955E+03  0.10779320955E+03  0.00000000000E+00 0.  1.
         25    2    1    2    0    0 -0.20170794247E+02  0.24520905733E+03  0.70330377425E+03  0.75551037083E+03  0.12500151530E+03 0.  0.
    9000005    1    3    3    0    0  0.47247297456E+02  0.15476312861E+03  0.45038795029E+03  0.47857521756E+03  0.10000000000E+01 0.  0.
    9000005    1    3    3    0    0 -0.67418091704E+02  0.90445928716E+02  0.25291582395E+03  0.27693515327E+03  0.10000000000E+01 0.  0.
          4    1    1    2  501    0  0.20170794247E+02 -0.24520905733E+03  0.10357006750E+03  0.26695077172E+03  0.12700000000E+01 0.  1.
<mgrwt>
<rscale>  1 0.27597051E+03</rscale>
<asrwt>0</asrwt>
<pdfrwt beam="2">  1       21 0.16583571E-01 0.27597051E+03</pdfrwt>
<pdfrwt beam="1">  1        4 0.14071865E+00 0.27597051E+03</pdfrwt>
<totfact> 0.51081113E+02</totfact>
</mgrwt>
</event>
<event>
 6    4  0.6195789E-003  0.1268698E+03  0.7818608E-02  0.1232176E+00
         21   -1    0    0  501  502  0.00000000000E+00  0.00000000000E+00  0.17527054001E+02  0.17527054001E+02  0.00000000000E+00 0. -1.
          4   -1    0    0  502    0 -0.00000000000E+00 -0.00000000000E+00 -0.46099057891E+03  0.46099232830E+03  0.12700000000E+01 0.  1.
         25    2    1    2    0    0 -0.13067817964E+02 -0.17340224038E+02 -0.43812411386E+03  0.45612354683E+03  0.12499799834E+03 0.  0.
    9000005    1    3    3    0    0  0.27950210719E+02 -0.59387952355E+02 -0.27550833568E+03  0.28322073758E+03  0.10000000000E+01 0.  0.
    9000005    1    3    3    0    0 -0.41018028682E+02  0.42047728317E+02 -0.16261577817E+03  0.17290280925E+03  0.10000000000E+01 0.  0.
          4    1    1    2  501    0  0.13067817964E+02  0.17340224038E+02 -0.53394110540E+01  0.22395835471E+02  0.12700000000E+01 0. -1.
<mgrwt>
<rscale>  1 0.12686982E+03</rscale>
<asrwt>0</asrwt>
<pdfrwt beam="1">  1       21 0.26964699E-02 0.12686982E+03</pdfrwt>
<pdfrwt beam="2">  1        4 0.70925301E-01 0.12686982E+03</pdfrwt>
<totfact> 0.55884358E+04</totfact>
</mgrwt>
</event>
<event>
 6    4  0.6195789E-003  0.1324128E+03  0.7818608E-02  0.1223919E+00
         21   -1    0    0  501  502  0.00000000000E+00  0.00000000000E+00  0.11540753421E+04  0.11540753421E+04  0.00000000000E+00 0.  1.
          4   -1    0    0  502    0 -0.00000000000E+00 -0.00000000000E+00 -0.81737999608E+01  0.82718743825E+01  0.12700000000E+01 0. -1.
         25    2    1    2    0    0 -0.14156388174E+02  0.41338461148E+02  0.58748828316E+03  0.60222557576E+03  0.12499555816E+03 0.  0.
    9000005    1    3    3    0    0 -0.35370085201E+02  0.67846279442E+02  0.21535221755E+03  0.22854263971E+03  0.10000000000E+01 0.  0.
    9000005    1    3    3    0    0  0.21213697028E+02 -0.26507818294E+02  0.37213606561E+03  0.37368293605E+03  0.10000000000E+01 0.  0.
          4    1    1    2  501    0  0.14156388174E+02 -0.41338461148E+02  0.55841325899E+03  0.56012164073E+03  0.12700000000E+01 0.  1.
<mgrwt>
<rscale>  1 0.13241284E+03</rscale>
<asrwt>0</asrwt>
<pdfrwt beam="1">  1       21 0.17754992E+00 0.13241284E+03</pdfrwt>
<pdfrwt beam="2">  1        4 0.12651065E-02 0.13241284E+03</pdfrwt>
<totfact> 0.16201491E+04</totfact>
</mgrwt>
</event>
<event>
 6    4  0.6195789E-003  0.1496149E+03  0.7818608E-02  0.1200947E+00
          4   -1    0    0  502    0 -0.00000000000E+00  0.00000000000E+00  0.11692362752E+04  0.11692369649E+04  0.12700000000E+01 0.  1.
         21   -1    0    0  501  502  0.00000000000E+00 -0.00000000000E+00 -0.11525076403E+02  0.11525076403E+02  0.00000000000E+00 0.  1.
         25    2    1    2    0    0 -0.55214273858E+02  0.60922411035E+02  0.71664794109E+03  0.73209895347E+03  0.12499779999E+03 0.  0.
    9000005    1    3    3    0    0  0.38831743013E+02  0.11634354421E+02  0.26841002373E+03  0.27145571151E+03  0.10000000000E+01 0.  0.
    9000005    1    3    3    0    0 -0.94046016872E+02  0.49288056615E+02  0.44823791736E+03  0.46064324197E+03  0.10000000000E+01 0.  0.
          4    1    1    2  501    0  0.55214273858E+02 -0.60922411035E+02  0.44106325772E+03  0.44866308787E+03  0.12700000000E+01 0. -1.
<mgrwt>
<rscale>  1 0.14961486E+03</rscale>
<asrwt>0</asrwt>
<pdfrwt beam="2">  1       21 0.17730896E-02 0.14961486E+03</pdfrwt>
<pdfrwt beam="1">  1        4 0.17988785E+00 0.14961486E+03</pdfrwt>
<totfact> 0.12108447E+04</totfact>
</mgrwt>
</event>
<event>
 6    4  0.6195789E-003  0.1293816E+03  0.7818608E-02  0.1228376E+00
         21   -1    0    0  501  502  0.00000000000E+00  0.00000000000E+00  0.87716663839E+02  0.87716663839E+02  0.00000000000E+00 0. -1.
          4   -1    0    0  502    0 -0.00000000000E+00 -0.00000000000E+00 -0.80095529812E+02  0.80105597781E+02  0.12700000000E+01 0. -1.
         25    2    1    2    0    0 -0.31271398250E+00 -0.33395904503E+02  0.22352303904E+02  0.13129823537E+03  0.12499686753E+03 0.  0.
    9000005    1    3    3    0    0 -0.16915928255E+02 -0.45180071045E+02 -0.41889854410E+02  0.63899509786E+02  0.10000000000E+01 0.  0.
    9000005    1    3    3    0    0  0.16603214273E+02  0.11784166542E+02  0.64242158314E+02  0.67398725583E+02  0.10000000000E+01 0.  0.
          4    1    1    2  501    0  0.31271398250E+00  0.33395904503E+02 -0.14731169878E+02  0.36524026251E+02  0.12700000000E+01 0.  1.
<mgrwt>
<rscale>  1 0.12938161E+03</rscale>
<asrwt>0</asrwt>
<pdfrwt beam="1">  1       21 0.13494871E-01 0.12938161E+03</pdfrwt>
<pdfrwt beam="2">  1        4 0.12323871E-01 0.12938161E+03</pdfrwt>
<totfact> 0.10098720E+05</totfact>
</mgrwt>
</event>
<event>
 6    4  0.6195789E-003  0.1279941E+03  0.7818608E-02  0.1230463E+00
          4   -1    0    0  502    0 -0.00000000000E+00  0.00000000000E+00  0.19448835017E+03  0.19449249664E+03  0.12700000000E+01 0. -1.
         21   -1    0    0  501  502  0.00000000000E+00 -0.00000000000E+00 -0.63484601820E+02  0.63484601820E+02  0.00000000000E+00 0. -1.
         25    2    1    2    0    0  0.10011208138E+02 -0.25695281381E+02  0.16838403753E+03  0.21150806906E+03  0.12498802907E+03 0.  0.
    9000005    1    3    3    0    0  0.53119381277E+01  0.70105679627E+01 -0.19142465424E+02  0.21090252069E+02  0.10000000000E+01 0.  0.
    9000005    1    3    3    0    0  0.46992700099E+01 -0.32705849344E+02  0.18752650295E+03  0.19041781700E+03  0.10000000000E+01 0.  0.
          4    1    1    2  501    0 -0.10011208138E+02  0.25695281381E+02 -0.37380289184E+02  0.46469029397E+02  0.12700000000E+01 0.  1.
<mgrwt>
<rscale>  1 0.12799406E+03</rscale>
<asrwt>0</asrwt>
<pdfrwt beam="2">  1       21 0.97668619E-02 0.12799406E+03</pdfrwt>
<pdfrwt beam="1">  1        4 0.29922580E-01 0.12799406E+03</pdfrwt>
<totfact> 0.36399719E+04</totfact>
</mgrwt>
</event>
<event>
 6    4  0.6195789E-003  0.1524521E+03  0.7818608E-02  0.1197492E+00
          4   -1    0    0  502    0 -0.00000000000E+00  0.00000000000E+00  0.36961014484E+03  0.36961232673E+03  0.12700000000E+01 0.  1.
         21   -1    0    0  501  502  0.00000000000E+00 -0.00000000000E+00 -0.10529299948E+03  0.10529299948E+03  0.00000000000E+00 0. -1.
         25    2    1    2    0    0  0.76870833414E+02 -0.41319803977E+02  0.33142532234E+03  0.36480731738E+03  0.12500073319E+03 0.  0.
    9000005    1    3    3    0    0  0.58058778823E+02 -0.81310006892E+02  0.27831904939E+03  0.29571038581E+03  0.10000000000E+01 0.  0.
    9000005    1    3    3    0    0  0.18812054591E+02  0.39990202915E+02  0.53106272943E+02  0.69096931575E+02  0.10000000000E+01 0.  0.
          4    1    1    2  501    0 -0.76870833414E+02  0.41319803977E+02 -0.67108176979E+02  0.11009800883E+03  0.12700000000E+01 0. -1.
<mgrwt>
<rscale>  1 0.15245207E+03</rscale>
<asrwt>0</asrwt>
<pdfrwt beam="2">  1       21 0.16198923E-01 0.15245207E+03</pdfrwt>
<pdfrwt beam="1">  1        4 0.56863855E-01 0.15245207E+03</pdfrwt>
<totfact> 0.42068107E+03</totfact>
</mgrwt>
</event>
<event>
 6    4  0.6195789E-003  0.1278385E+03  0.7818608E-02  0.1230699E+00
         21   -1    0    0  501  502  0.00000000000E+00  0.00000000000E+00  0.24876034730E+03  0.24876034730E+03  0.00000000000E+00 0. -1.
          4   -1    0    0  502    0 -0.00000000000E+00 -0.00000000000E+00 -0.25307820217E+02  0.25339665826E+02  0.12700000000E+01 0. -1.
         25    2    1    2    0    0 -0.24434433909E+01  0.26656451905E+02  0.15710933168E+03  0.20254884737E+03  0.12500462643E+03 0.  0.
    9000005    1    3    3    0    0 -0.47215415865E+02  0.52788669482E+02  0.11790938789E+03  0.13754840193E+03  0.10000000000E+01 0.  0.
    9000005    1    3    3    0    0  0.44771972474E+02 -0.26132217578E+02  0.39199943783E+02  0.65000445440E+02  0.10000000000E+01 0.  0.
          4    1    1    2  501    0  0.24434433909E+01 -0.26656451905E+02  0.66343195404E+02  0.71551165750E+02  0.12700000000E+01 0.  1.
<mgrwt>
<rscale>  1 0.12783854E+03</rscale>
<asrwt>0</asrwt>
<pdfrwt beam="1">  1       21 0.38270821E-01 0.12783854E+03</pdfrwt>
<pdfrwt beam="2">  1        4 0.38962100E-02 0.12783854E+03</pdfrwt>
<totfact> 0.94419001E+04</totfact>
</mgrwt>
</event>
<event>
 6    4  0.6195789E-003  0.1269917E+03  0.7818608E-02  0.1231989E+00
         21   -1    0    0  501  502  0.00000000000E+00  0.00000000000E+00  0.49856492831E+02  0.49856492831E+02  0.00000000000E+00 0.  1.
         -4   -1    0    0    0  501 -0.00000000000E+00 -0.00000000000E+00 -0.24704676538E+03  0.24705002972E+03  0.12700000000E+01 0. -1.
         25    2    1    2    0    0 -0.18291311202E+02 -0.12930286548E+02 -0.22669436909E+03  0.25984078381E+03  0.12500052630E+03 0.  0.
    9000005    1    3    3    0    0 -0.71512225444E+01 -0.27917111644E+02 -0.23682399227E+03  0.23857306725E+03  0.10000000000E+01 0.  0.
    9000005    1    3    3    0    0 -0.11140088657E+02  0.14986825096E+02  0.10129623173E+02  0.21267716553E+02  0.10000000000E+01 0.  0.
         -4    1    1    2    0  502  0.18291311202E+02  0.12930286548E+02  0.29504096544E+02  0.37065738743E+02  0.12700000000E+01 0.  1.
<mgrwt>
<rscale>  1 0.12699172E+03</rscale>
<asrwt>0</asrwt>
<pdfrwt beam="1">  1       21 0.76702300E-02 0.12699172E+03</pdfrwt>
<pdfrwt beam="2">  1       -4 0.38008689E-01 0.12699172E+03</pdfrwt>
<totfact> 0.34933869E+04</totfact>
</mgrwt>
</event>
<event>
 6    4  0.6195789E-003  0.1517378E+03  0.7818608E-02  0.1198354E+00
         -4   -1    0    0    0  501 -0.00000000000E+00  0.00000000000E+00  0.19323151128E+03  0.19323568473E+03  0.12700000000E+01 0.  1.
         21   -1    0    0  501  502  0.00000000000E+00 -0.00000000000E+00 -0.15800217588E+03  0.15800217588E+03  0.00000000000E+00 0. -1.
         25    2    1    2    0    0 -0.67986237816E+01  0.85756376229E+02  0.14627560515E+03  0.21076272305E+03  0.12499598160E+03 0.  0.
    9000005    1    3    3    0    0  0.24182773511E+02  0.57384521777E+02  0.39966398986E+01  0.62408036380E+02  0.10000000000E+01 0.  0.
    9000005    1    3    3    0    0 -0.30981397293E+02  0.28371854452E+02  0.14227896525E+03  0.14835468667E+03  0.10000000000E+01 0.  0.
         -4    1    1    2    0  502  0.67986237816E+01 -0.85756376229E+02 -0.11104626975E+03  0.14047513757E+03  0.12700000000E+01 0. -1.
<mgrwt>
<rscale>  1 0.15173784E+03</rscale>
<asrwt>0</asrwt>
<pdfrwt beam="2">  1       21 0.24308027E-01 0.15173784E+03</pdfrwt>
<pdfrwt beam="1">  1       -4 0.29728638E-01 0.15173784E+03</pdfrwt>
<totfact> 0.71668700E+03</totfact>
</mgrwt>
</event>
<event>
 6    4  0.6195789E-003  0.1317406E+03  0.7818608E-02  0.1224896E+00
         21   -1    0    0  501  502  0.00000000000E+00  0.00000000000E+00  0.40895091373E+03  0.40895091373E+03  0.00000000000E+00 0. -1.
         -4   -1    0    0    0  501 -0.00000000000E+00 -0.00000000000E+00 -0.37440247389E+02  0.37461780851E+02  0.12700000000E+01 0.  1.
         25    2    1    2    0    0  0.87342037713E+00 -0.41591623450E+02  0.84748096057E+02  0.15664552836E+03  0.12499982306E+03 0.  0.
    9000005    1    3    3    0    0  0.75740933963E+01 -0.21954442031E+02  0.11644805795E+03  0.11874558777E+03  0.10000000000E+01 0.  0.
    9000005    1    3    3    0    0 -0.67006730192E+01 -0.19637181419E+02 -0.31699961888E+02  0.37899940590E+02  0.10000000000E+01 0.  0.
         -4    1    1    2    0  502 -0.87342037713E+00  0.41591623450E+02  0.28676257029E+03  0.28976716622E+03  0.12700000000E+01 0. -1.
<mgrwt>
<rscale>  1 0.13174059E+03</rscale>
<asrwt>0</asrwt>
<pdfrwt beam="1">  1       21 0.62915522E-01 0.13174059E+03</pdfrwt>
<pdfrwt beam="2">  1       -4 0.57618465E-02 0.13174059E+03</pdfrwt>
<totfact> 0.18180079E+04</totfact>
</mgrwt>
</event>
<event>
 6    4  0.6195789E-003  0.1294488E+03  0.7818608E-02  0.1228276E+00
         -4   -1    0    0    0  501 -0.00000000000E+00  0.00000000000E+00  0.46802389352E+02  0.46819617139E+02  0.12700000000E+01 0.  1.
         21   -1    0    0  501  502  0.00000000000E+00 -0.00000000000E+00 -0.15095567244E+03  0.15095567244E+03  0.00000000000E+00 0. -1.
         25    2    1    2    0    0  0.28652102200E+02  0.17634279368E+02 -0.61164131791E+02  0.14317134468E+03  0.12500028860E+03 0.  0.
    9000005    1    3    3    0    0  0.19802805731E+02  0.51844826261E+02 -0.84292416724E+02  0.10092694706E+03  0.10000000000E+01 0.  0.
    9000005    1    3    3    0    0  0.88492964689E+01 -0.34210546893E+02  0.23128284933E+02  0.42244397624E+02  0.10000000000E+01 0.  0.
         -4    1    1    2    0  502 -0.28652102200E+02 -0.17634279368E+02 -0.42989151300E+02  0.54603944901E+02  0.12700000000E+01 0. -1.
<mgrwt>
<rscale>  1 0.12944877E+03</rscale>
<asrwt>0</asrwt>
<pdfrwt beam="2">  1       21 0.23223950E-01 0.12944877E+03</pdfrwt>
<pdfrwt beam="1">  1       -4 0.72021038E-02 0.12944877E+03</pdfrwt>
<totfact> 0.92039588E+04</totfact>
</mgrwt>
</event>
<event>
 6    4  0.6195789E-003  0.1281834E+03  0.7818608E-02  0.1230176E+00
          4   -1    0    0  502    0 -0.00000000000E+00  0.00000000000E+00  0.11070998820E+02  0.11143604214E+02  0.12700000000E+01 0. -1.
         21   -1    0    0  501  502  0.00000000000E+00 -0.00000000000E+00 -0.55455691612E+03  0.55455691612E+03  0.00000000000E+00 0. -1.
         25    2    1    2    0    0  0.22866176592E+02 -0.16865196038E+02 -0.45854531776E+03  0.47612476904E+03  0.12499476143E+03 0.  0.
    9000005    1    3    3    0    0  0.64053027614E+02 -0.11782726931E+02 -0.39424202242E+03  0.39958653036E+03  0.10000000000E+01 0.  0.
    9000005    1    3    3    0    0 -0.41186851022E+02 -0.50824691075E+01 -0.64303295338E+02  0.76538238683E+02  0.10000000000E+01 0.  0.
          4    1    1    2  501    0 -0.22866176592E+02  0.16865196038E+02 -0.84940599542E+02  0.89575751294E+02  0.12700000000E+01 0.  1.
<mgrwt>
<rscale>  1 0.12818341E+03</rscale>
<asrwt>0</asrwt>
<pdfrwt beam="2">  1       21 0.85316452E-01 0.12818341E+03</pdfrwt>
<pdfrwt beam="1">  1        4 0.17089274E-02 0.12818341E+03</pdfrwt>
<totfact> 0.62582052E+04</totfact>
</mgrwt>
</event>
<event>
 6    4  0.6195789E-003  0.1456518E+03  0.7818608E-02  0.1205920E+00
         21   -1    0    0  501  502  0.00000000000E+00  0.00000000000E+00  0.47516418951E+02  0.47516418951E+02  0.00000000000E+00 0.  1.
         -4   -1    0    0    0  501 -0.00000000000E+00 -0.00000000000E+00 -0.57436561349E+03  0.57436701756E+03  0.12700000000E+01 0. -1.
         25    2    1    2    0    0  0.44450213517E+01 -0.74636685154E+02 -0.52735769306E+03  0.54710199191E+03  0.12499624047E+03 0.  0.
    9000005    1    3    3    0    0 -0.29544012493E+02 -0.54197122666E+02 -0.48557656499E+03  0.48948521658E+03  0.10000000000E+01 0.  0.
    9000005    1    3    3    0    0  0.33989033844E+02 -0.20439562488E+02 -0.41781128070E+02  0.57616775328E+02  0.10000000000E+01 0.  0.
         -4    1    1    2    0  502 -0.44450213517E+01  0.74636685154E+02  0.50849852667E+00  0.74781444600E+02  0.12700000000E+01 0.  1.
<mgrwt>
<rscale>  1 0.14565182E+03</rscale>
<asrwt>0</asrwt>
<pdfrwt beam="1">  1       21 0.73102183E-02 0.14565182E+03</pdfrwt>
<pdfrwt beam="2">  1       -4 0.88365354E-01 0.14565182E+03</pdfrwt>
<totfact> 0.65804114E+03</totfact>
</mgrwt>
</event>
<event>
 6    4  0.6195789E-003  0.1271159E+03  0.7818608E-02  0.1231799E+00
         21   -1    0    0  501  502  0.00000000000E+00  0.00000000000E+00  0.84762311734E+01  0.84762311734E+01  0.00000000000E+00 0.  1.
          4   -1    0    0  502    0 -0.00000000000E+00 -0.00000000000E+00 -0.76446776030E+03  0.76446881521E+03  0.12700000000E+01 0. -1.
         25    2    1    2    0    0 -0.22912757264E+02 -0.28944140227E+01 -0.71185173721E+03  0.72311226392E+03  0.12500031355E+03 0.  0.
    9000005    1    3    3    0    0  0.23655933570E+02 -0.48070290471E+02 -0.19590856843E+03  0.20310470995E+03  0.10000000000E+01 0.  0.
    9000005    1    3    3    0    0 -0.46568690834E+02  0.45175876448E+02 -0.51594316878E+03  0.52000755397E+03  0.10000000000E+01 0.  0.
          4    1    1    2  501    0  0.22912757264E+02  0.28944140227E+01 -0.44139791916E+02  0.49832782467E+02  0.12700000000E+01 0.  1.
<mgrwt>
<rscale>  1 0.12711589E+03</rscale>
<asrwt>0</asrwt>
<pdfrwt beam="1">  1       21 0.13040353E-02 0.12711589E+03</pdfrwt>
<pdfrwt beam="2">  1        4 0.11761785E+00 0.12711589E+03</pdfrwt>
<totfact> 0.57174005E+04</totfact>
</mgrwt>
</event>
<event>
 6    4  0.6195789E-003  0.1277359E+03  0.7818608E-02  0.1230854E+00
         21   -1    0    0  501  502  0.00000000000E+00  0.00000000000E+00  0.25634525892E+03  0.25634525892E+03  0.00000000000E+00 0. -1.
         -4   -1    0    0    0  501 -0.00000000000E+00 -0.00000000000E+00 -0.24581784861E+02  0.24614569811E+02  0.12700000000E+01 0. -1.
         25    2    1    2    0    0  0.16527561069E+02  0.20478162591E+02  0.16143571074E+03  0.20585907899E+03  0.12499582506E+03 0.  0.
    9000005    1    3    3    0    0  0.12792797220E+02 -0.43869718770E+01  0.17617506862E+03  0.17669622516E+03  0.10000000000E+01 0.  0.
    9000005    1    3    3    0    0  0.37347638482E+01  0.24865134468E+02 -0.14739357877E+02  0.29162853834E+02  0.10000000000E+01 0.  0.
         -4    1    1    2    0  502 -0.16527561069E+02 -0.20478162591E+02  0.70327763319E+02  0.75100749740E+02  0.12700000000E+01 0.  1.
<mgrwt>
<rscale>  1 0.12773595E+03</rscale>
<asrwt>0</asrwt>
<pdfrwt beam="1">  1       21 0.39437730E-01 0.12773595E+03</pdfrwt>
<pdfrwt beam="2">  1       -4 0.37845771E-02 0.12773595E+03</pdfrwt>
<totfact> 0.93119988E+04</totfact>
</mgrwt>
</event>
<event>
 6    4  0.6195789E-003  0.1446976E+03  0.7818608E-02  0.1207144E+00
          4   -1    0    0  502    0 -0.00000000000E+00  0.00000000000E+00  0.27126357352E+02  0.27156070467E+02  0.12700000000E+01 0. -1.
         21   -1    0    0  501  502  0.00000000000E+00 -0.00000000000E+00 -0.49362190246E+03  0.49362190246E+03  0.00000000000E+00 0.  1.
         25    2    1    2    0    0 -0.28097090376E+02 -0.67255641777E+02 -0.21675341529E+03  0.26061357846E+03  0.12499850560E+03 0.  0.
    9000005    1    3    3    0    0  0.20002576565E+02 -0.62502593746E+02 -0.19827939108E+03  0.20885974773E+03  0.10000000000E+01 0.  0.
    9000005    1    3    3    0    0 -0.48099666941E+02 -0.47530480310E+01 -0.18474024206E+02  0.51753830735E+02  0.10000000000E+01 0.  0.
          4    1    1    2  501    0  0.28097090376E+02  0.67255641777E+02 -0.24974212982E+03  0.26016439446E+03  0.12700000000E+01 0.  1.
<mgrwt>
<rscale>  1 0.14469760E+03</rscale>
<asrwt>0</asrwt>
<pdfrwt beam="2">  1       21 0.75941834E-01 0.14469760E+03</pdfrwt>
<pdfrwt beam="1">  1        4 0.41756969E-02 0.14469760E+03</pdfrwt>
<totfact> 0.20387719E+04</totfact>
</mgrwt>
</event>
<event>
 6    4  0.6195789E-003  0.1268183E+03  0.7818608E-02  0.1232255E+00
         -4   -1    0    0    0  501 -0.00000000000E+00  0.00000000000E+00  0.38276708346E+02  0.38297771500E+02  0.12700000000E+01 0. -1.
         21   -1    0    0  501  502  0.00000000000E+00 -0.00000000000E+00 -0.14381315605E+03  0.14381315605E+03  0.00000000000E+00 0. -1.
         25    2    1    2    0    0  0.15909189927E+02 -0.14309778240E+02 -0.93166124146E+02  0.15736199056E+03  0.12499998923E+03 0.  0.
    9000005    1    3    3    0    0  0.56650147997E+02  0.67591612465E+01 -0.95694290152E+02  0.11141509187E+03  0.10000000000E+01 0.  0.
    9000005    1    3    3    0    0 -0.40740958070E+02 -0.21068939487E+02  0.25281660066E+01  0.45946898687E+02  0.10000000000E+01 0.  0.
         -4    1    1    2    0  502 -0.15909189927E+02  0.14309778240E+02 -0.12370323562E+02  0.24748936996E+02  0.12700000000E+01 0.  1.
<mgrwt>
<rscale>  1 0.12681825E+03</rscale>
<asrwt>0</asrwt>
<pdfrwt beam="2">  1       21 0.22125101E-01 0.12681825E+03</pdfrwt>
<pdfrwt beam="1">  1       -4 0.58907759E-02 0.12681825E+03</pdfrwt>
<totfact> 0.13949790E+05</totfact>
</mgrwt>
</event>
<event>
 6    4  0.6195789E-003  0.1272326E+03  0.7818608E-02  0.1231621E+00
         21   -1    0    0  501  502  0.00000000000E+00  0.00000000000E+00  0.39174443432E+02  0.39174443432E+02  0.00000000000E+00 0. -1.
          4   -1    0    0  502    0 -0.00000000000E+00 -0.00000000000E+00 -0.23052610775E+03  0.23052960603E+03  0.12700000000E+01 0.  1.
         25    2    1    2    0    0 -0.97059265578E+01  0.21654408848E+02 -0.20575497450E+03  0.24191580236E+03  0.12500010988E+03 0.  0.
    9000005    1    3    3    0    0 -0.29968157692E+02  0.59538942626E+02 -0.59081634027E+02  0.89076459538E+02  0.10000000000E+01 0.  0.
    9000005    1    3    3    0    0  0.20262231134E+02 -0.37884533778E+02 -0.14667334047E+03  0.15283934282E+03  0.10000000000E+01 0.  0.
          4    1    1    2  501    0  0.97059265578E+01 -0.21654408848E+02  0.14403310175E+02  0.27788247100E+02  0.12700000000E+01 0. -1.
<mgrwt>
<rscale>  1 0.12723264E+03</rscale>
<asrwt>0</asrwt>
<pdfrwt beam="1">  1       21 0.60268374E-02 0.12723264E+03</pdfrwt>
<pdfrwt beam="2">  1        4 0.35467408E-01 0.12723264E+03</pdfrwt>
<totfact> 0.60318920E+04</totfact>
</mgrwt>
</event>
<event>
 6    4  0.6195789E-003  0.1271310E+03  0.7818608E-02  0.1231776E+00
          4   -1    0    0  502    0 -0.00000000000E+00  0.00000000000E+00  0.64337065280E+03  0.64337190628E+03  0.12700000000E+01 0. -1.
         21   -1    0    0  501  502  0.00000000000E+00 -0.00000000000E+00 -0.18300904078E+02  0.18300904078E+02  0.00000000000E+00 0.  1.
         25    2    1    2    0    0 -0.47573053260E+01 -0.22682843951E+02  0.62566857664E+03  0.63845396330E+03  0.12500060839E+03 0.  0.
    9000005    1    3    3    0    0  0.10108040273E+02  0.45293665030E+02  0.13241240908E+03  0.14031298817E+03  0.10000000000E+01 0.  0.
    9000005    1    3    3    0    0 -0.14865345599E+02 -0.67976508981E+02  0.49325616756E+03  0.49814097514E+03  0.10000000000E+01 0.  0.
          4    1    1    2  501    0  0.47573053260E+01  0.22682843951E+02 -0.59882791385E+00  0.23218847054E+02  0.12700000000E+01 0.  1.
<mgrwt>
<rscale>  1 0.12713102E+03</rscale>
<asrwt>0</asrwt>
<pdfrwt beam="2">  1       21 0.28155242E-02 0.12713102E+03</pdfrwt>
<pdfrwt beam="1">  1        4 0.98983569E-01 0.12713102E+03</pdfrwt>
<totfact> 0.24793006E+04</totfact>
</mgrwt>
</event>
<event>
 6    4  0.6195789E-003  0.1295026E+03  0.7818608E-02  0.1228196E+00
         21   -1    0    0  501  502  0.00000000000E+00  0.00000000000E+00  0.31930807558E+03  0.31930807558E+03  0.00000000000E+00 0. -1.
          4   -1    0    0  502    0 -0.00000000000E+00 -0.00000000000E+00 -0.36342431370E+02  0.36364614915E+02  0.12700000000E+01 0. -1.
         25    2    1    2    0    0  0.82246564705E+01  0.32839377973E+02  0.85176211371E+02  0.15500295595E+03  0.12499943860E+03 0.  0.
    9000005    1    3    3    0    0 -0.52581627983E+02  0.20418929578E+02  0.72137652539E+02  0.91578388282E+02  0.10000000000E+01 0.  0.
    9000005    1    3    3    0    0  0.60806284454E+02  0.12420448395E+02  0.13038558832E+02  0.63424567668E+02  0.10000000000E+01 0.  0.
          4    1    1    2  501    0 -0.82246564705E+01 -0.32839377973E+02  0.19778943284E+03  0.20066973455E+03  0.12700000000E+01 0.  1.
<mgrwt>
<rscale>  1 0.12950262E+03</rscale>
<asrwt>0</asrwt>
<pdfrwt beam="1">  1       21 0.49124317E-01 0.12950262E+03</pdfrwt>
<pdfrwt beam="2">  1        4 0.55930442E-02 0.12950262E+03</pdfrwt>
<totfact> 0.32011438E+04</totfact>
</mgrwt>
</event>
<event>
 6    4  0.6195789E-003  0.2264200E+03  0.7818608E-02  0.1129185E+00
         21   -1    0    0  501  502  0.00000000000E+00  0.00000000000E+00  0.97086139511E+02  0.97086139511E+02  0.00000000000E+00 0.  1.
         -4   -1    0    0    0  501 -0.00000000000E+00 -0.00000000000E+00 -0.52726234076E+03  0.52726387026E+03  0.12700000000E+01 0. -1.
         25    2    1    2    0    0  0.10654264240E+03  0.15585136732E+03 -0.35517148935E+03  0.42120399565E+03  0.12500014304E+03 0.  0.
    9000005    1    3    3    0    0  0.53869118137E+02  0.15652886311E+03 -0.21423506717E+03  0.27074126187E+03  0.10000000000E+01 0.  0.
    9000005    1    3    3    0    0  0.52673524265E+02 -0.67749578870E+00 -0.14093642218E+03  0.15046273378E+03  0.10000000000E+01 0.  0.
         -4    1    1    2    0  502 -0.10654264240E+03 -0.15585136732E+03 -0.75004711891E+02  0.20314601412E+03  0.12700000000E+01 0.  1.
<mgrwt>
<rscale>  1 0.22642001E+03</rscale>
<asrwt>0</asrwt>
<pdfrwt beam="1">  1       21 0.14936329E-01 0.22642001E+03</pdfrwt>
<pdfrwt beam="2">  1       -4 0.81118041E-01 0.22642001E+03</pdfrwt>
<totfact> 0.22992345E+03</totfact>
</mgrwt>
</event>
<event>
 6    4  0.6195789E-003  0.1315751E+03  0.7818608E-02  0.1225137E+00
         21   -1    0    0  501  502  0.00000000000E+00  0.00000000000E+00  0.93751836036E+03  0.93751836036E+03  0.00000000000E+00 0. -1.
         -4   -1    0    0    0  501 -0.00000000000E+00 -0.00000000000E+00 -0.85688796092E+01  0.86624821937E+01  0.12700000000E+01 0. -1.
         25    2    1    2    0    0  0.52957111882E+01 -0.40721981999E+02  0.57537529831E+03  0.59022769990E+03  0.12500271778E+03 0.  0.
    9000005    1    3    3    0    0  0.40079287893E+02 -0.36435480092E+02  0.53060046991E+03  0.53335893374E+03  0.10000000000E+01 0.  0.
    9000005    1    3    3    0    0 -0.34783576705E+02 -0.42865019072E+01  0.44774828401E+02  0.56868766167E+02  0.10000000000E+01 0.  0.
         -4    1    1    2    0  502 -0.52957111882E+01  0.40721981999E+02  0.35357418244E+03  0.35595314265E+03  0.12700000000E+01 0.  1.
<mgrwt>
<rscale>  1 0.13157509E+03</rscale>
<asrwt>0</asrwt>
<pdfrwt beam="1">  1       21 0.14423351E+00 0.13157509E+03</pdfrwt>
<pdfrwt beam="2">  1       -4 0.13255563E-02 0.13157509E+03</pdfrwt>
<totfact> 0.26188470E+04</totfact>
</mgrwt>
</event>
<event>
 6    4  0.6195789E-003  0.1288608E+03  0.7818608E-02  0.1229156E+00
         21   -1    0    0  501  502  0.00000000000E+00  0.00000000000E+00  0.19339032720E+02  0.19339032720E+02  0.00000000000E+00 0. -1.
         -4   -1    0    0    0  501 -0.00000000000E+00 -0.00000000000E+00 -0.94613106953E+03  0.94613192190E+03  0.12700000000E+01 0.  1.
         25    2    1    2    0    0 -0.21139399940E+02 -0.23088054589E+02 -0.92516828880E+03  0.93409928026E+03  0.12500068114E+03 0.  0.
    9000005    1    3    3    0    0  0.16293173661E+02  0.12369147109E+01 -0.81583225157E+03  0.81599648294E+03  0.10000000000E+01 0.  0.
    9000005    1    3    3    0    0 -0.37432573601E+02 -0.24324969300E+02 -0.10933603722E+03  0.11810279732E+03  0.10000000000E+01 0.  0.
         -4    1    1    2    0  502  0.21139399940E+02  0.23088054589E+02 -0.16237480148E+01  0.31371674360E+02  0.12700000000E+01 0. -1.
<mgrwt>
<rscale>  1 0.12886079E+03</rscale>
<asrwt>0</asrwt>
<pdfrwt beam="1">  1       21 0.29752358E-02 0.12886079E+03</pdfrwt>
<pdfrwt beam="2">  1       -4 0.14556190E+00 0.12886079E+03</pdfrwt>
<totfact> 0.89762414E+03</totfact>
</mgrwt>
</event>
<event>
 6    4  0.6195789E-003  0.1295336E+03  0.7818608E-02  0.1228149E+00
         -4   -1    0    0    0  501 -0.00000000000E+00  0.00000000000E+00  0.26196157941E+02  0.26226924922E+02  0.12700000000E+01 0. -1.
         21   -1    0    0  501  502  0.00000000000E+00 -0.00000000000E+00 -0.39901488144E+03  0.39901488144E+03  0.00000000000E+00 0.  1.
         25    2    1    2    0    0 -0.33835819299E+02  0.30519413428E+01 -0.14309410040E+03  0.19301520932E+03  0.12499908979E+03 0.  0.
    9000005    1    3    3    0    0  0.23265722898E+02  0.45458148652E+02 -0.92702770642E+02  0.10584205603E+03  0.10000000000E+01 0.  0.
    9000005    1    3    3    0    0 -0.57101542197E+02 -0.42406207309E+02 -0.50391329753E+02  0.87173153287E+02  0.10000000000E+01 0.  0.
         -4    1    1    2    0  502  0.33835819299E+02 -0.30519413428E+01 -0.22972462311E+03  0.23222659705E+03  0.12700000000E+01 0.  1.
<mgrwt>
<rscale>  1 0.12953358E+03</rscale>
<asrwt>0</asrwt>
<pdfrwt beam="2">  1       21 0.61386906E-01 0.12953358E+03</pdfrwt>
<pdfrwt beam="1">  1       -4 0.40327002E-02 0.12953358E+03</pdfrwt>
<totfact> 0.33900361E+04</totfact>
</mgrwt>
</event>
<event>
 6    4  0.6195789E-003  0.1406669E+03  0.7818608E-02  0.1212434E+00
          4   -1    0    0  502    0 -0.00000000000E+00  0.00000000000E+00  0.46330613597E+03  0.46330787661E+03  0.12700000000E+01 0.  1.
         21   -1    0    0  501  502  0.00000000000E+00 -0.00000000000E+00 -0.50545172673E+02  0.50545172673E+02  0.00000000000E+00 0. -1.
         25    2    1    2    0    0  0.45130063545E+02 -0.46098024647E+02  0.42544268873E+03  0.44809447895E+03  0.12500172063E+03 0.  0.
    9000005    1    3    3    0    0  0.51045739685E+02 -0.64895538640E+02  0.14425661465E+03  0.16621693460E+03  0.10000000000E+01 0.  0.
    9000005    1    3    3    0    0 -0.59156761399E+01  0.18797513993E+02  0.28118607408E+03  0.28187754435E+03  0.10000000000E+01 0.  0.
          4    1    1    2  501    0 -0.45130063545E+02  0.46098024647E+02 -0.12681725433E+02  0.65758570330E+02  0.12700000000E+01 0. -1.
<mgrwt>
<rscale>  1 0.14066691E+03</rscale>
<asrwt>0</asrwt>
<pdfrwt beam="2">  1       21 0.77761807E-02 0.14066691E+03</pdfrwt>
<pdfrwt beam="1">  1        4 0.71279225E-01 0.14066691E+03</pdfrwt>
<totfact> 0.94855981E+03</totfact>
</mgrwt>
</event>
<event>
 6    4  0.6195789E-003  0.1293109E+03  0.7818608E-02  0.1228482E+00
         -4   -1    0    0    0  501 -0.00000000000E+00  0.00000000000E+00  0.79138057977E+02  0.79148247741E+02  0.12700000000E+01 0. -1.
         21   -1    0    0  501  502  0.00000000000E+00 -0.00000000000E+00 -0.11343143795E+03  0.11343143795E+03  0.00000000000E+00 0.  1.
         25    2    1    2    0    0 -0.16703433783E+02 -0.28581246637E+02  0.18120047811E+02  0.13057426116E+03  0.12500163673E+03 0.  0.
    9000005    1    3    3    0    0  0.40043354835E+00 -0.68713664350E+02 -0.21114774171E+02  0.71892709670E+02  0.10000000000E+01 0.  0.
    9000005    1    3    3    0    0 -0.17103867332E+02  0.40132417713E+02  0.39234821982E+02  0.58681551489E+02  0.10000000000E+01 0.  0.
         -4    1    1    2    0  502  0.16703433783E+02  0.28581246637E+02 -0.52413427789E+02  0.62005424537E+02  0.12700000000E+01 0.  1.
<mgrwt>
<rscale>  1 0.12931087E+03</rscale>
<asrwt>0</asrwt>
<pdfrwt beam="2">  1       21 0.17450991E-01 0.12931087E+03</pdfrwt>
<pdfrwt beam="1">  1       -4 0.12176416E-01 0.12931087E+03</pdfrwt>
<totfact> 0.64788315E+04</totfact>
</mgrwt>
</event>
<event>
 6    4  0.6195789E-003  0.1274533E+03  0.7818608E-02  0.1231284E+00
          4   -1    0    0  502    0 -0.00000000000E+00  0.00000000000E+00  0.54338423748E+02  0.54353262970E+02  0.12700000000E+01 0.  1.
         21   -1    0    0  501  502  0.00000000000E+00 -0.00000000000E+00 -0.32518244374E+03  0.32518244374E+03  0.00000000000E+00 0. -1.
         25    2    1    2    0    0 -0.11421483093E+02 -0.22100160849E+02 -0.21866753780E+02  0.12931548495E+03  0.12500188935E+03 0.  0.
    9000005    1    3    3    0    0 -0.38375909650E+02  0.41964175220E+02 -0.15474237943E+01  0.56895491595E+02  0.10000000000E+01 0.  0.
    9000005    1    3    3    0    0  0.26954426557E+02 -0.64064336069E+02 -0.20319329985E+02  0.72419993359E+02  0.10000000000E+01 0.  0.
          4    1    1    2  501    0  0.11421483093E+02  0.22100160849E+02 -0.24897726621E+03  0.25022022175E+03  0.12700000000E+01 0. -1.
<mgrwt>
<rscale>  1 0.12745328E+03</rscale>
<asrwt>0</asrwt>
<pdfrwt beam="2">  1       21 0.50028069E-01 0.12745328E+03</pdfrwt>
<pdfrwt beam="1">  1        4 0.83610897E-02 0.12745328E+03</pdfrwt>
<totfact> 0.15937535E+04</totfact>
</mgrwt>
</event>
<event>
 6    4  0.6195789E-003  0.1283876E+03  0.7818608E-02  0.1229868E+00
         -4   -1    0    0    0  501 -0.00000000000E+00  0.00000000000E+00  0.65054574155E+02  0.65066969489E+02  0.12700000000E+01 0.  1.
         21   -1    0    0  501  502  0.00000000000E+00 -0.00000000000E+00 -0.11419251421E+03  0.11419251421E+03  0.00000000000E+00 0.  1.
         25    2    1    2    0    0  0.21054741129E+02 -0.20376703481E+02 -0.78657702994E+01  0.12862829701E+03  0.12499942513E+03 0.  0.
    9000005    1    3    3    0    0 -0.16028971209E+02 -0.35418241099E+02  0.46815055924E+02  0.60860735961E+02  0.10000000000E+01 0.  0.
    9000005    1    3    3    0    0  0.37083712338E+02  0.15041537618E+02 -0.54680826223E+02  0.67767561054E+02  0.10000000000E+01 0.  0.
         -4    1    1    2    0  502 -0.21054741129E+02  0.20376703481E+02 -0.41272169757E+02  0.50631186686E+02  0.12700000000E+01 0. -1.
<mgrwt>
<rscale>  1 0.12838757E+03</rscale>
<asrwt>0</asrwt>
<pdfrwt beam="2">  1       21 0.17568079E-01 0.12838757E+03</pdfrwt>
<pdfrwt beam="1">  1       -4 0.10009893E-01 0.12838757E+03</pdfrwt>
<totfact> 0.89156664E+04</totfact>
</mgrwt>
</event>
<event>
 6    4  0.6195789E-003  0.1287973E+03  0.7818608E-02  0.1229251E+00
         21   -1    0    0  501  502  0.00000000000E+00  0.00000000000E+00  0.21665705005E+03  0.21665705005E+03  0.00000000000E+00 0. -1.
          4   -1    0    0  502    0 -0.00000000000E+00 -0.00000000000E+00 -0.32068815253E+03  0.32069066727E+03  0.12700000000E+01 0.  1.
         25    2    1    2    0    0  0.29619080770E+02  0.93060265406E+01 -0.30652426862E+03  0.33248437919E+03  0.12499937229E+03 0.  0.
    9000005    1    3    3    0    0  0.18304477922E+02  0.49705521280E+02 -0.27484349456E+03  0.27990291042E+03  0.10000000000E+01 0.  0.
    9000005    1    3    3    0    0  0.11314602848E+02 -0.40399494739E+02 -0.31680774063E+02  0.52581468770E+02  0.10000000000E+01 0.  0.
          4    1    1    2  501    0 -0.29619080770E+02 -0.93060265406E+01  0.20249316614E+03  0.20486333813E+03  0.12700000000E+01 0. -1.
<mgrwt>
<rscale>  1 0.12879726E+03</rscale>
<asrwt>0</asrwt>
<pdfrwt beam="1">  1       21 0.33331854E-01 0.12879726E+03</pdfrwt>
<pdfrwt beam="2">  1        4 0.49337119E-01 0.12879726E+03</pdfrwt>
<totfact> 0.14364045E+03</totfact>
</mgrwt>
</event>
<event>
 6    4  0.6195789E-003  0.1595558E+03  0.7818608E-02  0.1189199E+00
          4   -1    0    0  502    0 -0.00000000000E+00  0.00000000000E+00  0.44844391118E+02  0.44862370810E+02  0.12700000000E+01 0.  1.
         21   -1    0    0  501  502  0.00000000000E+00 -0.00000000000E+00 -0.40356353228E+03  0.40356353228E+03  0.00000000000E+00 0. -1.
         25    2    1    2    0    0  0.24360592272E+02 -0.96125373121E+02 -0.15802617198E+03  0.22456700425E+03  0.12499817019E+03 0.  0.
    9000005    1    3    3    0    0  0.29361412973E+02 -0.34318619911E+02 -0.15611581500E+03  0.16252079233E+03  0.10000000000E+01 0.  0.
    9000005    1    3    3    0    0 -0.50008207015E+01 -0.61806753210E+02 -0.19103569822E+01  0.62046211922E+02  0.10000000000E+01 0.  0.
          4    1    1    2  501    0 -0.24360592272E+02  0.96125373121E+02 -0.20069296918E+03  0.22385889884E+03  0.12700000000E+01 0. -1.
<mgrwt>
<rscale>  1 0.15955585E+03</rscale>
<asrwt>0</asrwt>
<pdfrwt beam="2">  1       21 0.62086699E-01 0.15955585E+03</pdfrwt>
<pdfrwt beam="1">  1        4 0.69006737E-02 0.15955585E+03</pdfrwt>
<totfact> 0.14139180E+04</totfact>
</mgrwt>
</event>
<event>
 6    4  0.6195789E-003  0.1314055E+03  0.7818608E-02  0.1225385E+00
         21   -1    0    0  501  502  0.00000000000E+00  0.00000000000E+00  0.22507431933E+03  0.22507431933E+03  0.00000000000E+00 0. -1.
         -4   -1    0    0    0  501 -0.00000000000E+00 -0.00000000000E+00 -0.11171534773E+03  0.11172256629E+03  0.12700000000E+01 0.  1.
         25    2    1    2    0    0  0.34396076394E+02 -0.21437183241E+02 -0.70083282889E+02  0.14892640756E+03  0.12499906172E+03 0.  0.
    9000005    1    3    3    0    0  0.11847644761E+02 -0.22676543281E+02  0.33917772431E+02  0.42497148001E+02  0.10000000000E+01 0.  0.
    9000005    1    3    3    0    0  0.22548431633E+02  0.12393600404E+01 -0.10400105532E+03  0.10642925956E+03  0.10000000000E+01 0.  0.
         -4    1    1    2    0  502 -0.34396076394E+02  0.21437183241E+02  0.18344225449E+03  0.18787047807E+03  0.12700000000E+01 0. -1.
<mgrwt>
<rscale>  1 0.13140551E+03</rscale>
<asrwt>0</asrwt>
<pdfrwt beam="1">  1       21 0.34626818E-01 0.13140551E+03</pdfrwt>
<pdfrwt beam="2">  1       -4 0.17187808E-01 0.13140551E+03</pdfrwt>
<totfact> 0.97621303E+03</totfact>
</mgrwt>
</event>
<event>
 6    4  0.6195789E-003  0.1423810E+03  0.7818608E-02  0.1210161E+00
         21   -1    0    0  501  502  0.00000000000E+00  0.00000000000E+00  0.50032289946E+02  0.50032289946E+02  0.00000000000E+00 0. -1.
          4   -1    0    0  502    0 -0.00000000000E+00 -0.00000000000E+00 -0.29932916385E+03  0.29933185803E+03  0.12700000000E+01 0. -1.
         25    2    1    2    0    0  0.28760409964E+01  0.68112965563E+02 -0.24201482393E+03  0.28079091091E+03  0.12499885183E+03 0.  0.
    9000005    1    3    3    0    0 -0.29365945970E+02  0.43670101076E+02 -0.21938307165E+02  0.57023905793E+02  0.10000000000E+01 0.  0.
    9000005    1    3    3    0    0  0.32241986966E+02  0.24442864487E+02 -0.22007651676E+03  0.22376700512E+03  0.10000000000E+01 0.  0.
          4    1    1    2  501    0 -0.28760409964E+01 -0.68112965563E+02 -0.72820499731E+01  0.68573237064E+02  0.12700000000E+01 0.  1.
<mgrwt>
<rscale>  1 0.14238104E+03</rscale>
<asrwt>0</asrwt>
<pdfrwt beam="1">  1       21 0.76972753E-02 0.14238104E+03</pdfrwt>
<pdfrwt beam="2">  1        4 0.46052088E-01 0.14238104E+03</pdfrwt>
<totfact> 0.24047689E+04</totfact>
</mgrwt>
</event>
<event>
 6    4  0.6195789E-003  0.1269862E+03  0.7818608E-02  0.1231998E+00
         -4   -1    0    0    0  501 -0.00000000000E+00  0.00000000000E+00  0.18051551228E+02  0.18096170914E+02  0.12700000000E+01 0.  1.
         21   -1    0    0  501  502  0.00000000000E+00 -0.00000000000E+00 -0.40966347109E+03  0.40966347109E+03  0.00000000000E+00 0. -1.
         25    2    1    2    0    0  0.38480971427E+01  0.22026901783E+02 -0.21475208290E+03  0.24948735845E+03  0.12500197063E+03 0.  0.
    9000005    1    3    3    0    0  0.31372750816E+02 -0.44794451599E+02 -0.94329839379E+02  0.10904086842E+03  0.10000000000E+01 0.  0.
    9000005    1    3    3    0    0 -0.27524653674E+02  0.66821353382E+02 -0.12042224352E+03  0.14044649004E+03  0.10000000000E+01 0.  0.
         -4    1    1    2    0  502 -0.38480971427E+01 -0.22026901783E+02 -0.17685983696E+03  0.17827228355E+03  0.12700000000E+01 0. -1.
<mgrwt>
<rscale>  1 0.12698616E+03</rscale>
<asrwt>0</asrwt>
<pdfrwt beam="2">  1       21 0.63025145E-01 0.12698616E+03</pdfrwt>
<pdfrwt beam="1">  1       -4 0.27807456E-02 0.12698616E+03</pdfrwt>
<totfact> 0.57380977E+04</totfact>
</mgrwt>
</event>
<event>
 6    4  0.6195789E-003  0.1304411E+03  0.7818608E-02  0.1226803E+00
          4   -1    0    0  502    0 -0.00000000000E+00  0.00000000000E+00  0.10402834688E+02  0.10480070112E+02  0.12700000000E+01 0.  1.
         21   -1    0    0  501  502  0.00000000000E+00 -0.00000000000E+00 -0.12647706346E+04  0.12647706346E+04  0.00000000000E+00 0.  1.
         25    2    1    2    0    0 -0.33202848880E+02 -0.16976261137E+02 -0.41418288373E+03  0.43423766742E+03  0.12499707203E+03 0.  0.
    9000005    1    3    3    0    0 -0.11584311889E+02  0.51011387783E+01  0.51971791831E+01  0.13719641768E+02  0.10000000000E+01 0.  0.
    9000005    1    3    3    0    0 -0.21618536991E+02 -0.22077399915E+02 -0.41938006291E+03  0.42051802565E+03  0.10000000000E+01 0.  0.
          4    1    1    2  501    0  0.33202848880E+02  0.16976261137E+02 -0.84018491620E+03  0.84101303731E+03  0.12700000000E+01 0. -1.
<mgrwt>
<rscale>  1 0.13044114E+03</rscale>
<asrwt>0</asrwt>
<pdfrwt beam="2">  1       21 0.19458011E+00 0.13044114E+03</pdfrwt>
<pdfrwt beam="1">  1        4 0.16064262E-02 0.13044114E+03</pdfrwt>
<totfact> 0.87084361E+03</totfact>
</mgrwt>
</event>
<event>
 6    4  0.6195789E-003  0.1292383E+03  0.7818608E-02  0.1228590E+00
          4   -1    0    0  502    0 -0.00000000000E+00  0.00000000000E+00  0.55357324330E+02  0.55371890495E+02  0.12700000000E+01 0. -1.
         21   -1    0    0  501  502  0.00000000000E+00 -0.00000000000E+00 -0.15446997637E+03  0.15446997637E+03  0.00000000000E+00 0.  1.
         25    2    1    2    0    0 -0.13758136831E+02  0.29807488451E+02 -0.29056254098E+02  0.13246432174E+03  0.12499903174E+03 0.  0.
    9000005    1    3    3    0    0 -0.58543162941E+02 -0.20166103016E+02 -0.10276648831E+02  0.62774064303E+02  0.10000000000E+01 0.  0.
    9000005    1    3    3    0    0  0.44785026110E+02  0.49973591467E+02 -0.18779605268E+02  0.69690257438E+02  0.10000000000E+01 0.  0.
          4    1    1    2  501    0  0.13758136831E+02 -0.29807488451E+02 -0.70056397946E+02  0.77377545127E+02  0.12700000000E+01 0.  1.
<mgrwt>
<rscale>  1 0.12923827E+03</rscale>
<asrwt>0</asrwt>
<pdfrwt beam="2">  1       21 0.23764611E-01 0.12923827E+03</pdfrwt>
<pdfrwt beam="1">  1        4 0.85180336E-02 0.12923827E+03</pdfrwt>
<totfact> 0.66784455E+04</totfact>
</mgrwt>
</event>
<event>
 6    4  0.6195789E-003  0.1277035E+03  0.7818608E-02  0.1230904E+00
         -4   -1    0    0    0  501 -0.00000000000E+00  0.00000000000E+00  0.36342027293E+02  0.36364211084E+02  0.12700000000E+01 0. -1.
         21   -1    0    0  501  502  0.00000000000E+00 -0.00000000000E+00 -0.41665446283E+03  0.41665446283E+03  0.00000000000E+00 0.  1.
         25    2    1    2    0    0 -0.23306863891E+02 -0.11755717117E+02 -0.78129567322E+02  0.14970776819E+03  0.12500711891E+03 0.  0.
    9000005    1    3    3    0    0  0.40152894158E+01  0.99359527743E+01  0.32220296146E+02  0.33970475274E+02  0.10000000000E+01 0.  0.
    9000005    1    3    3    0    0 -0.27322153306E+02 -0.21691669892E+02 -0.11034986347E+03  0.11573729292E+03  0.10000000000E+01 0.  0.
         -4    1    1    2    0  502  0.23306863891E+02  0.11755717117E+02 -0.30218286822E+03  0.30331090573E+03  0.12700000000E+01 0.  1.
<mgrwt>
<rscale>  1 0.12770351E+03</rscale>
<asrwt>0</asrwt>
<pdfrwt beam="2">  1       21 0.64100688E-01 0.12770351E+03</pdfrwt>
<pdfrwt beam="1">  1       -4 0.55929363E-02 0.12770351E+03</pdfrwt>
<totfact> 0.18279516E+04</totfact>
</mgrwt>
</event>
<event>
 6    4  0.6195789E-003  0.1291890E+03  0.7818608E-02  0.1228664E+00
         21   -1    0    0  501  502  0.00000000000E+00  0.00000000000E+00  0.90625511994E+01  0.90625511994E+01  0.00000000000E+00 0. -1.
          4   -1    0    0  502    0 -0.00000000000E+00 -0.00000000000E+00 -0.77725718290E+03  0.77725822046E+03  0.12700000000E+01 0. -1.
         25    2    1    2    0    0 -0.12680245417E+02 -0.30070412781E+02 -0.51174598403E+03  0.52780086886E+03  0.12499914661E+03 0.  0.
    9000005    1    3    3    0    0 -0.22392757320E+02  0.12010682766E+02 -0.45863611624E+03  0.45934059172E+03  0.10000000000E+01 0.  0.
    9000005    1    3    3    0    0  0.97125119028E+01 -0.42081095547E+02 -0.53109867786E+02  0.68460277140E+02  0.10000000000E+01 0.  0.
          4    1    1    2  501    0  0.12680245417E+02  0.30070412781E+02 -0.25644864767E+03  0.25851990280E+03  0.12700000000E+01 0.  1.
<mgrwt>
<rscale>  1 0.12918903E+03</rscale>
<asrwt>0</asrwt>
<pdfrwt beam="1">  1       21 0.13942388E-02 0.12918903E+03</pdfrwt>
<pdfrwt beam="2">  1        4 0.11958494E+00 0.12918903E+03</pdfrwt>
<totfact> 0.49511396E+04</totfact>
</mgrwt>
</event>
<event>
 6    4  0.6195789E-003  0.1267301E+03  0.7818608E-02  0.1232390E+00
         21   -1    0    0  501  502  0.00000000000E+00  0.00000000000E+00  0.13261393681E+02  0.13261393681E+02  0.00000000000E+00 0. -1.
          4   -1    0    0  502    0 -0.00000000000E+00 -0.00000000000E+00 -0.44029540946E+03  0.44029724107E+03  0.12700000000E+01 0. -1.
         25    2    1    2    0    0  0.76197778823E+00 -0.20819721532E+02 -0.31392863720E+03  0.33854350105E+03  0.12500588561E+03 0.  0.
    9000005    1    3    3    0    0 -0.57306839462E+02  0.12044492322E+02 -0.17228494968E+03  0.18196771013E+03  0.10000000000E+01 0.  0.
    9000005    1    3    3    0    0  0.58068817250E+02 -0.32864213854E+02 -0.14164368752E+03  0.15657579092E+03  0.10000000000E+01 0.  0.
          4    1    1    2  501    0 -0.76197778823E+00  0.20819721532E+02 -0.11310537858E+03  0.11501513369E+03  0.12700000000E+01 0.  1.
<mgrwt>
<rscale>  1 0.12673008E+03</rscale>
<asrwt>0</asrwt>
<pdfrwt beam="1">  1       21 0.20402142E-02 0.12673008E+03</pdfrwt>
<pdfrwt beam="2">  1        4 0.67742583E-01 0.12673008E+03</pdfrwt>
<totfact> 0.96978147E+04</totfact>
</mgrwt>
</event>
<event>
 6    4  0.6195789E-003  0.1340104E+03  0.7818608E-02  0.1221623E+00
         21   -1    0    0  501  502  0.00000000000E+00  0.00000000000E+00  0.37987013841E+02  0.37987013841E+02  0.00000000000E+00 0.  1.
         -4   -1    0    0    0  501 -0.00000000000E+00 -0.00000000000E+00 -0.75361625822E+03  0.75361732833E+03  0.12700000000E+01 0. -1.
         25    2    1    2    0    0  0.17158387332E+02 -0.45159400625E+02 -0.72919787670E+03  0.74140969700E+03  0.12500005484E+03 0.  0.
    9000005    1    3    3    0    0  0.26737155069E+02 -0.70006367859E+02 -0.23870833357E+03  0.25019679358E+03  0.10000000000E+01 0.  0.
    9000005    1    3    3    0    0 -0.95787677371E+01  0.24846967235E+02 -0.49048954313E+03  0.49121290343E+03  0.10000000000E+01 0.  0.
         -4    1    1    2    0  502 -0.17158387332E+02  0.45159400625E+02  0.13568632314E+02  0.50194645167E+02  0.12700000000E+01 0.  1.
<mgrwt>
<rscale>  1 0.13401043E+03</rscale>
<asrwt>0</asrwt>
<pdfrwt beam="1">  1       21 0.58441562E-02 0.13401043E+03</pdfrwt>
<pdfrwt beam="2">  1       -4 0.11594267E+00 0.13401043E+03</pdfrwt>
<totfact> 0.51054573E+03</totfact>
</mgrwt>
</event>
<event>
 6    4  0.6195789E-003  0.1266375E+03  0.7818608E-02  0.1232532E+00
         21   -1    0    0  501  502  0.00000000000E+00  0.00000000000E+00  0.85784024544E+01  0.85784024544E+01  0.00000000000E+00 0. -1.
          4   -1    0    0  502    0 -0.00000000000E+00 -0.00000000000E+00 -0.72176623311E+03  0.72176735044E+03  0.12700000000E+01 0.  1.
         25    2    1    2    0    0  0.45309253910E+01 -0.19794406089E+02 -0.67777562740E+03  0.68950478282E+03  0.12499878652E+03 0.  0.
    9000005    1    3    3    0    0 -0.47599829118E+02 -0.24708278977E+02 -0.53030396208E+03  0.53300988263E+03  0.10000000000E+01 0.  0.
    9000005    1    3    3    0    0  0.52130754509E+02  0.49138728887E+01 -0.14747166532E+03  0.15649490019E+03  0.10000000000E+01 0.  0.
          4    1    1    2  501    0 -0.45309253910E+01  0.19794406089E+02 -0.35412203253E+02  0.40840970073E+02  0.12700000000E+01 0. -1.
<mgrwt>
<rscale>  1 0.12663745E+03</rscale>
<asrwt>0</asrwt>
<pdfrwt beam="1">  1       21 0.13197540E-02 0.12663745E+03</pdfrwt>
<pdfrwt beam="2">  1        4 0.11104830E+00 0.12663745E+03</pdfrwt>
<totfact> 0.64233777E+04</totfact>
</mgrwt>
</event>
<event>
 6    4  0.6195789E-003  0.1270583E+03  0.7818608E-02  0.1231887E+00
         -4   -1    0    0    0  501 -0.00000000000E+00  0.00000000000E+00  0.56684852257E+03  0.56684994526E+03  0.12700000000E+01 0.  1.
         21   -1    0    0  501  502  0.00000000000E+00 -0.00000000000E+00 -0.26599487395E+02  0.26599487395E+02  0.00000000000E+00 0.  1.
         25    2    1    2    0    0 -0.20466633456E+02 -0.10011656974E+02  0.55293173947E+03  0.56734234074E+03  0.12499882686E+03 0.  0.
    9000005    1    3    3    0    0  0.24609759957E+02 -0.53845053380E+02  0.19029973003E+03  0.19929856323E+03  0.10000000000E+01 0.  0.
    9000005    1    3    3    0    0 -0.45076393413E+02  0.43833396406E+02  0.36263200945E+03  0.36804377750E+03  0.10000000000E+01 0.  0.
         -4    1    1    2    0  502  0.20466633456E+02  0.10011656974E+02 -0.12682704294E+02  0.26107091922E+02  0.12700000000E+01 0. -1.
<mgrwt>
<rscale>  1 0.12705835E+03</rscale>
<asrwt>0</asrwt>
<pdfrwt beam="2">  1       21 0.40922293E-02 0.12705835E+03</pdfrwt>
<pdfrwt beam="1">  1       -4 0.87209898E-01 0.12705835E+03</pdfrwt>
<totfact> 0.17844070E+04</totfact>
</mgrwt>
</event>
<event>
 6    4  0.6195789E-003  0.1269228E+03  0.7818608E-02  0.1232095E+00
         -4   -1    0    0    0  501 -0.00000000000E+00  0.00000000000E+00  0.12730936130E+03  0.12731569571E+03  0.12700000000E+01 0.  1.
         21   -1    0    0  501  502  0.00000000000E+00 -0.00000000000E+00 -0.85426145378E+02  0.85426145378E+02  0.00000000000E+00 0.  1.
         25    2    1    2    0    0  0.16259873486E+01  0.21949039654E+02  0.92818184061E+02  0.15724059736E+03  0.12499994395E+03 0.  0.
    9000005    1    3    3    0    0 -0.54871711203E+02  0.19085113875E+02  0.13231534793E+02  0.59592111684E+02  0.10000000000E+01 0.  0.
    9000005    1    3    3    0    0  0.56497698552E+02  0.28639257785E+01  0.79586649268E+02  0.97648485673E+02  0.10000000000E+01 0.  0.
         -4    1    1    2    0  502 -0.16259873486E+01 -0.21949039654E+02 -0.50934968139E+02  0.55501243733E+02  0.12700000000E+01 0. -1.
<mgrwt>
<rscale>  1 0.12692277E+03</rscale>
<asrwt>0</asrwt>
<pdfrwt beam="2">  1       21 0.13142484E-01 0.12692277E+03</pdfrwt>
<pdfrwt beam="1">  1       -4 0.19587269E-01 0.12692277E+03</pdfrwt>
<totfact> 0.46923366E+04</totfact>
</mgrwt>
</event>
<event>
 6    4  0.6195789E-003  0.1272273E+03  0.7818608E-02  0.1231629E+00
         -4   -1    0    0    0  501 -0.00000000000E+00  0.00000000000E+00  0.36513623226E+01  0.38659212111E+01  0.12700000000E+01 0. -1.
         21   -1    0    0  501  502  0.00000000000E+00 -0.00000000000E+00 -0.16213757586E+04  0.16213757586E+04  0.00000000000E+00 0. -1.
         25    2    1    2    0    0 -0.28812592845E+01 -0.23548980935E+02 -0.11721965616E+04  0.11790808114E+04  0.12499569813E+03 0.  0.
    9000005    1    3    3    0    0 -0.47822982514E+02 -0.47094114196E+02 -0.43596407899E+03  0.44110154320E+03  0.10000000000E+01 0.  0.
    9000005    1    3    3    0    0  0.44941723229E+02  0.23545133261E+02 -0.73623248264E+03  0.73797926819E+03  0.10000000000E+01 0.  0.
         -4    1    1    2    0  502  0.28812592845E+01  0.23548980935E+02 -0.44552783464E+03  0.44616086841E+03  0.12700000000E+01 0.  1.
<mgrwt>
<rscale>  1 0.12722728E+03</rscale>
<asrwt>0</asrwt>
<pdfrwt beam="2">  1       21 0.24944187E+00 0.12722728E+03</pdfrwt>
<pdfrwt beam="1">  1       -4 0.57829213E-03 0.12722728E+03</pdfrwt>
<totfact> 0.18935746E+04</totfact>
</mgrwt>
</event>
<event>
 6    4  0.6195789E-003  0.1310866E+03  0.7818608E-02  0.1225852E+00
          4   -1    0    0  502    0 -0.00000000000E+00  0.00000000000E+00  0.12054690253E+03  0.12055359227E+03  0.12700000000E+01 0. -1.
         21   -1    0    0  501  502  0.00000000000E+00 -0.00000000000E+00 -0.11808321006E+03  0.11808321006E+03  0.00000000000E+00 0.  1.
         25    2    1    2    0    0 -0.20578331478E+02  0.33690723200E+02  0.78613787565E+02  0.15285229067E+03  0.12500065045E+03 0.  0.
    9000005    1    3    3    0    0 -0.45323621154E+01  0.11864600081E+01  0.10680992837E+03  0.10691730820E+03  0.10000000000E+01 0.  0.
    9000005    1    3    3    0    0 -0.16045969363E+02  0.32504263192E+02 -0.28196140808E+02  0.45934982474E+02  0.10000000000E+01 0.  0.
          4    1    1    2  501    0  0.20578331478E+02 -0.33690723200E+02 -0.76150095103E+02  0.85784511657E+02  0.12700000000E+01 0.  1.
<mgrwt>
<rscale>  1 0.13108659E+03</rscale>
<asrwt>0</asrwt>
<pdfrwt beam="2">  1       21 0.18166648E-01 0.13108659E+03</pdfrwt>
<pdfrwt beam="1">  1        4 0.18546717E-01 0.13108659E+03</pdfrwt>
<totfact> 0.28927354E+04</totfact>
</mgrwt>
</event>
<event>
 6    4  0.6195789E-003  0.1283072E+03  0.7818608E-02  0.1229989E+00
          4   -1    0    0  502    0 -0.00000000000E+00  0.00000000000E+00  0.50226956218E+03  0.50227116779E+03  0.12700000000E+01 0. -1.
         21   -1    0    0  501  502  0.00000000000E+00 -0.00000000000E+00 -0.17177585643E+02  0.17177585643E+02  0.00000000000E+00 0.  1.
         25    2    1    2    0    0  0.20621372613E+02 -0.20332273458E+02  0.46912527040E+03  0.48635508399E+03  0.12499642412E+03 0.  0.
    9000005    1    3    3    0    0  0.22765604054E+01  0.36573398350E+02  0.36049292167E+03  0.36235195980E+03  0.10000000000E+01 0.  0.
    9000005    1    3    3    0    0  0.18344812208E+02 -0.56905671808E+02  0.10863234873E+03  0.12400312419E+03  0.10000000000E+01 0.  0.
          4    1    1    2  501    0 -0.20621372613E+02  0.20332273458E+02  0.15966706138E+02  0.33093669445E+02  0.12700000000E+01 0.  1.
<mgrwt>
<rscale>  1 0.12830724E+03</rscale>
<asrwt>0</asrwt>
<pdfrwt beam="2">  1       21 0.26427059E-02 0.12830724E+03</pdfrwt>
<pdfrwt beam="1">  1        4 0.77275964E-01 0.12830724E+03</pdfrwt>
<totfact> 0.47991047E+04</totfact>
</mgrwt>
</event>
<event>
 6    4  0.6195789E-003  0.1291260E+03  0.7818608E-02  0.1228758E+00
         21   -1    0    0  501  502  0.00000000000E+00  0.00000000000E+00  0.65779708559E+02  0.65779708559E+02  0.00000000000E+00 0.  1.
         -4   -1    0    0    0  501 -0.00000000000E+00 -0.00000000000E+00 -0.49628507816E+03  0.49628670313E+03  0.12700000000E+01 0. -1.
         25    2    1    2    0    0 -0.32322866384E+02  0.17973030264E+01 -0.48322932123E+03  0.50018405584E+03  0.12500205928E+03 0.  0.
    9000005    1    3    3    0    0 -0.14114273964E+02  0.27341362648E+02 -0.21881454268E+02  0.37769840904E+02  0.10000000000E+01 0.  0.
    9000005    1    3    3    0    0 -0.18208592420E+02 -0.25544059622E+02 -0.46134786696E+03  0.46241421493E+03  0.10000000000E+01 0.  0.
         -4    1    1    2    0  502  0.32322866384E+02 -0.17973030264E+01  0.52723951635E+02  0.61882355849E+02  0.12700000000E+01 0.  1.
<mgrwt>
<rscale>  1 0.12912596E+03</rscale>
<asrwt>0</asrwt>
<pdfrwt beam="1">  1       21 0.10119955E-01 0.12912596E+03</pdfrwt>
<pdfrwt beam="2">  1       -4 0.76352619E-01 0.12912596E+03</pdfrwt>
<totfact> 0.51314592E+03</totfact>
</mgrwt>
</event>
<event>
 6    4  0.6195789E-003  0.1447233E+03  0.7818608E-02  0.1207111E+00
         -4   -1    0    0    0  501 -0.00000000000E+00  0.00000000000E+00  0.16124670987E+03  0.16125171114E+03  0.12700000000E+01 0. -1.
         21   -1    0    0  501  502  0.00000000000E+00 -0.00000000000E+00 -0.17665263029E+03  0.17665263029E+03  0.00000000000E+00 0.  1.
         25    2    1    2    0    0  0.49994693616E+02 -0.53103567875E+02  0.11742014686E+03  0.18636611074E+03  0.12500151211E+03 0.  0.
    9000005    1    3    3    0    0  0.25952601967E+02  0.34159577626E+02  0.74979623423E+02  0.86390729949E+02  0.10000000000E+01 0.  0.
    9000005    1    3    3    0    0  0.24042091649E+02 -0.87263145501E+02  0.42440523441E+02  0.99975380787E+02  0.10000000000E+01 0.  0.
         -4    1    1    2    0  502 -0.49994693616E+02  0.53103567875E+02 -0.13282606728E+03  0.15153823069E+03  0.12700000000E+01 0.  1.
<mgrwt>
<rscale>  1 0.14472331E+03</rscale>
<asrwt>0</asrwt>
<pdfrwt beam="2">  1       21 0.27177328E-01 0.14472331E+03</pdfrwt>
<pdfrwt beam="1">  1       -4 0.24807922E-01 0.14472331E+03</pdfrwt>
<totfact> 0.81017513E+03</totfact>
</mgrwt>
</event>
<event>
 6    4  0.6195789E-003  0.1274115E+03  0.7818608E-02  0.1231348E+00
         21   -1    0    0  501  502  0.00000000000E+00  0.00000000000E+00  0.50008874431E+02  0.50008874431E+02  0.00000000000E+00 0.  1.
          4   -1    0    0  502    0 -0.00000000000E+00 -0.00000000000E+00 -0.12798609555E+03  0.12799239647E+03  0.12700000000E+01 0.  1.
         25    2    1    2    0    0  0.21908401932E+02  0.11332494383E+02 -0.41598089796E+02  0.13403017130E+03  0.12500112896E+03 0.  0.
    9000005    1    3    3    0    0  0.10335343478E+02 -0.50124839957E+02  0.10941948455E+02  0.52345440504E+02  0.10000000000E+01 0.  0.
    9000005    1    3    3    0    0  0.11573058455E+02  0.61457334340E+02 -0.52540038251E+02  0.81684730799E+02  0.10000000000E+01 0.  0.
          4    1    1    2  501    0 -0.21908401932E+02 -0.11332494383E+02 -0.36379131324E+02  0.43971099600E+02  0.12700000000E+01 0. -1.
<mgrwt>
<rscale>  1 0.12741148E+03</rscale>
<asrwt>0</asrwt>
<pdfrwt beam="1">  1       21 0.76936730E-02 0.12741148E+03</pdfrwt>
<pdfrwt beam="2">  1        4 0.19691894E-01 0.12741148E+03</pdfrwt>
<totfact> 0.11868285E+05</totfact>
</mgrwt>
</event>
<event>
 6    4  0.6195789E-003  0.1277958E+03  0.7818608E-02  0.1230763E+00
         21   -1    0    0  501  502  0.00000000000E+00  0.00000000000E+00  0.10378703971E+03  0.10378703971E+03  0.00000000000E+00 0. -1.
          4   -1    0    0  502    0 -0.00000000000E+00 -0.00000000000E+00 -0.96103792831E+02  0.96112183913E+02  0.12700000000E+01 0.  1.
         25    2    1    2    0    0  0.26585800131E+02  0.17037781701E+00 -0.49324274157E+02  0.13698416857E+03  0.12499977848E+03 0.  0.
    9000005    1    3    3    0    0  0.76178947543E+02 -0.99234906421E+01 -0.34642570008E+02  0.84278202236E+02  0.10000000000E+01 0.  0.
    9000005    1    3    3    0    0 -0.49593147413E+02  0.10093868459E+02 -0.14681704149E+02  0.52705966337E+02  0.10000000000E+01 0.  0.
          4    1    1    2  501    0 -0.26585800131E+02 -0.17037781701E+00  0.57007521032E+02  0.62915055045E+02  0.12700000000E+01 0. -1.
<mgrwt>
<rscale>  1 0.12779585E+03</rscale>
<asrwt>0</asrwt>
<pdfrwt beam="1">  1       21 0.15967237E-01 0.12779585E+03</pdfrwt>
<pdfrwt beam="2">  1        4 0.14786442E-01 0.12779585E+03</pdfrwt>
<totfact> 0.54380796E+04</totfact>
</mgrwt>
</event>
<event>
 6    4  0.6195789E-003  0.1269645E+03  0.7818608E-02  0.1232031E+00
         21   -1    0    0  501  502  0.00000000000E+00  0.00000000000E+00  0.12618166975E+02  0.12618166975E+02  0.00000000000E+00 0.  1.
         -4   -1    0    0    0  501 -0.00000000000E+00 -0.00000000000E+00 -0.12106836633E+04  0.12106843294E+04  0.12700000000E+01 0. -1.
         25    2    1    2    0    0 -0.42197407376E+01 -0.21892651970E+02 -0.11938426695E+04  0.12005749891E+04  0.12499156112E+03 0.  0.
    9000005    1    3    3    0    0  0.17662560686E+01 -0.62096965558E+02 -0.33135711272E+03  0.33713156029E+03  0.10000000000E+01 0.  0.
    9000005    1    3    3    0    0 -0.59859968062E+01  0.40204313588E+02 -0.86248555682E+03  0.86344342879E+03  0.10000000000E+01 0.  0.
         -4    1    1    2    0  502  0.42197407376E+01  0.21892651970E+02 -0.42228267739E+01  0.22727507301E+02  0.12700000000E+01 0.  1.
<mgrwt>
<rscale>  1 0.12696450E+03</rscale>
<asrwt>0</asrwt>
<pdfrwt beam="1">  1       21 0.19412561E-02 0.12696450E+03</pdfrwt>
<pdfrwt beam="2">  1       -4 0.18626402E+00 0.12696450E+03</pdfrwt>
<totfact> 0.93827325E+03</totfact>
</mgrwt>
</event>
<event>
 6    4  0.6195789E-003  0.1277589E+03  0.7818608E-02  0.1230819E+00
         21   -1    0    0  501  502  0.00000000000E+00  0.00000000000E+00  0.30837051662E+02  0.30837051662E+02  0.00000000000E+00 0. -1.
         -4   -1    0    0    0  501 -0.00000000000E+00 -0.00000000000E+00 -0.19520017526E+03  0.19520430662E+03  0.12700000000E+01 0. -1.
         25    2    1    2    0    0 -0.54020078450E+01 -0.25842282357E+02 -0.12587376868E+03  0.17935036784E+03  0.12500137422E+03 0.  0.
    9000005    1    3    3    0    0  0.25480439832E+02  0.33357376936E+02 -0.63888822481E+01  0.42470992765E+02  0.10000000000E+01 0.  0.
    9000005    1    3    3    0    0 -0.30882447677E+02 -0.59199659292E+02 -0.11948488643E+03  0.13687937507E+03  0.10000000000E+01 0.  0.
         -4    1    1    2    0  502  0.54020078450E+01  0.25842282357E+02 -0.38489354923E+02  0.46690990443E+02  0.12700000000E+01 0.  1.
<mgrwt>
<rscale>  1 0.12775895E+03</rscale>
<asrwt>0</asrwt>
<pdfrwt beam="1">  1       21 0.47441618E-02 0.12775895E+03</pdfrwt>
<pdfrwt beam="2">  1       -4 0.30033126E-01 0.12775895E+03</pdfrwt>
<totfact> 0.12408147E+05</totfact>
</mgrwt>
</event>
<event>
 6    4  0.6195789E-003  0.1284975E+03  0.7818608E-02  0.1229702E+00
         -4   -1    0    0    0  501 -0.00000000000E+00  0.00000000000E+00  0.84583181474E+03  0.84583276818E+03  0.12700000000E+01 0. -1.
         21   -1    0    0  501  502  0.00000000000E+00 -0.00000000000E+00 -0.83869266159E+01  0.83869266159E+01  0.00000000000E+00 0. -1.
         25    2    1    2    0    0 -0.26491141583E+02 -0.13597613483E+02  0.53089679647E+03  0.54622615417E+03  0.12499970926E+03 0.  0.
    9000005    1    3    3    0    0 -0.25184526740E+02  0.16094380831E+01  0.13564649252E+02  0.28667933085E+02  0.10000000000E+01 0.  0.
    9000005    1    3    3    0    0 -0.13066148432E+01 -0.15207051567E+02  0.51733214722E+03  0.51755822108E+03  0.10000000000E+01 0.  0.
         -4    1    1    2    0  502  0.26491141583E+02  0.13597613483E+02  0.30654809165E+03  0.30799354063E+03  0.12700000000E+01 0.  1.
<mgrwt>
<rscale>  1 0.12849748E+03</rscale>
<asrwt>0</asrwt>
<pdfrwt beam="2">  1       21 0.12902971E-02 0.12849748E+03</pdfrwt>
<pdfrwt beam="1">  1       -4 0.13013537E+00 0.12849748E+03</pdfrwt>
<totfact> 0.45592401E+04</totfact>
</mgrwt>
</event>
<event>
 6    4  0.6195789E-003  0.1284367E+03  0.7818608E-02  0.1229794E+00
         21   -1    0    0  501  502  0.00000000000E+00  0.00000000000E+00  0.14359170765E+02  0.14359170765E+02  0.00000000000E+00 0. -1.
         -4   -1    0    0    0  501 -0.00000000000E+00 -0.00000000000E+00 -0.46182122582E+03  0.46182297206E+03  0.12700000000E+01 0. -1.
         25    2    1    2    0    0 -0.28610516664E+02  0.72724814060E+01 -0.40149136281E+03  0.42153447046E+03  0.12499817887E+03 0.  0.
    9000005    1    3    3    0    0  0.26985390843E+02  0.47057814854E+02 -0.11738911887E+03  0.12932074267E+03  0.10000000000E+01 0.  0.
    9000005    1    3    3    0    0 -0.55595907507E+02 -0.39785333448E+02 -0.28410224395E+03  0.29221372778E+03  0.10000000000E+01 0.  0.
         -4    1    1    2    0  502  0.28610516664E+02 -0.72724814060E+01 -0.45970692245E+02  0.54647672366E+02  0.12700000000E+01 0.  1.
<mgrwt>
<rscale>  1 0.12843674E+03</rscale>
<asrwt>0</asrwt>
<pdfrwt beam="1">  1       21 0.22091029E-02 0.12843674E+03</pdfrwt>
<pdfrwt beam="2">  1       -4 0.71053883E-01 0.12843674E+03</pdfrwt>
<totfact> 0.77107610E+04</totfact>
</mgrwt>
</event>
<event>
 6    4  0.6195789E-003  0.1280621E+03  0.7818608E-02  0.1230360E+00
         21   -1    0    0  501  502  0.00000000000E+00  0.00000000000E+00  0.83078305762E+02  0.83078305762E+02  0.00000000000E+00 0. -1.
          4   -1    0    0  502    0 -0.00000000000E+00 -0.00000000000E+00 -0.16427483937E+03  0.16427974844E+03  0.12700000000E+01 0.  1.
         25    2    1    2    0    0 -0.12086768682E+01  0.27819688720E+02 -0.13542411190E+03  0.18638560856E+03  0.12499803605E+03 0.  0.
    9000005    1    3    3    0    0  0.47155589490E+02  0.55035809897E+02 -0.79850814721E+02  0.10784128432E+03  0.10000000000E+01 0.  0.
    9000005    1    3    3    0    0 -0.48364266358E+02 -0.27216121178E+02 -0.55573297178E+02  0.78544324248E+02  0.10000000000E+01 0.  0.
          4    1    1    2  501    0  0.12086768682E+01 -0.27819688720E+02  0.54227578293E+02  0.60972445644E+02  0.12700000000E+01 0. -1.
<mgrwt>
<rscale>  1 0.12806211E+03</rscale>
<asrwt>0</asrwt>
<pdfrwt beam="1">  1       21 0.12781278E-01 0.12806211E+03</pdfrwt>
<pdfrwt beam="2">  1        4 0.25274176E-01 0.12806211E+03</pdfrwt>
<totfact> 0.31051493E+04</totfact>
</mgrwt>
</event>
<event>
 6    4  0.6195789E-003  0.1283475E+03  0.7818608E-02  0.1229929E+00
          4   -1    0    0  502    0 -0.00000000000E+00  0.00000000000E+00  0.10651328337E+03  0.10652085446E+03  0.12700000000E+01 0.  1.
         21   -1    0    0  501  502  0.00000000000E+00 -0.00000000000E+00 -0.61938654342E+02  0.61938654342E+02  0.00000000000E+00 0. -1.
         25    2    1    2    0    0  0.18244411717E+02  0.22698318520E+02  0.51835211473E+02  0.13841951579E+03  0.12500000393E+03 0.  0.
    9000005    1    3    3    0    0  0.26828009883E+02  0.21674764537E+02 -0.36168285406E+02  0.49986822276E+02  0.10000000000E+01 0.  0.
    9000005    1    3    3    0    0 -0.85835981657E+01  0.10235539831E+01  0.88003496879E+02  0.88432693519E+02  0.10000000000E+01 0.  0.
          4    1    1    2  501    0 -0.18244411717E+02 -0.22698318520E+02 -0.72605824401E+01  0.30039993008E+02  0.12700000000E+01 0. -1.
<mgrwt>
<rscale>  1 0.12834747E+03</rscale>
<asrwt>0</asrwt>
<pdfrwt beam="2">  1       21 0.95290238E-02 0.12834747E+03</pdfrwt>
<pdfrwt beam="1">  1        4 0.16388243E-01 0.12834747E+03</pdfrwt>
<totfact> 0.11366887E+05</totfact>
</mgrwt>
</event>
<event>
 6    4  0.6195789E-003  0.1271646E+03  0.7818608E-02  0.1231725E+00
         21   -1    0    0  501  502  0.00000000000E+00  0.00000000000E+00  0.10154600996E+03  0.10154600996E+03  0.00000000000E+00 0. -1.
          4   -1    0    0  502    0 -0.00000000000E+00 -0.00000000000E+00 -0.11473052488E+03  0.11473755375E+03  0.12700000000E+01 0.  1.
         25    2    1    2    0    0 -0.22561062821E+02 -0.60281427494E+01 -0.76764800481E+02  0.14853841132E+03  0.12500193992E+03 0.  0.
    9000005    1    3    3    0    0  0.18178273574E+02 -0.45797358786E+02 -0.77206949037E+02  0.91595636804E+02  0.10000000000E+01 0.  0.
    9000005    1    3    3    0    0 -0.40739336395E+02  0.39769216037E+02  0.44214855628E+00  0.56942774515E+02  0.10000000000E+01 0.  0.
          4    1    1    2  501    0  0.22561062821E+02  0.60281427494E+01  0.63580285555E+02  0.67745152386E+02  0.12700000000E+01 0. -1.
<mgrwt>
<rscale>  1 0.12716456E+03</rscale>
<asrwt>0</asrwt>
<pdfrwt beam="1">  1       21 0.15622463E-01 0.12716456E+03</pdfrwt>
<pdfrwt beam="2">  1        4 0.17652002E-01 0.12716456E+03</pdfrwt>
<totfact> 0.41419725E+04</totfact>
</mgrwt>
</event>
<event>
 6    4  0.6195789E-003  0.2345914E+03  0.7818608E-02  0.1123449E+00
         -4   -1    0    0    0  501 -0.00000000000E+00  0.00000000000E+00  0.56297313580E+03  0.56297456828E+03  0.12700000000E+01 0. -1.
         21   -1    0    0  501  502  0.00000000000E+00 -0.00000000000E+00 -0.15766782463E+03  0.15766782463E+03  0.00000000000E+00 0.  1.
         25    2    1    2    0    0 -0.19849078516E+03 -0.25097342432E+01  0.45858570510E+03  0.51510576884E+03  0.12501285378E+03 0.  0.
    9000005    1    3    3    0    0 -0.20965572217E+03 -0.42769764759E+01  0.45802054870E+03  0.50374362268E+03  0.10000000000E+01 0.  0.
    9000005    1    3    3    0    0  0.11164937006E+02  0.17672422327E+01  0.56515640013E+00  0.11362146153E+02  0.10000000000E+01 0.  0.
         -4    1    1    2    0  502  0.19849078516E+03  0.25097342432E+01 -0.53280393932E+02  0.20553662408E+03  0.12700000000E+01 0.  1.
<mgrwt>
<rscale>  1 0.23459136E+03</rscale>
<asrwt>0</asrwt>
<pdfrwt beam="2">  1       21 0.24256589E-01 0.23459136E+03</pdfrwt>
<pdfrwt beam="1">  1       -4 0.86611754E-01 0.23459136E+03</pdfrwt>
<totfact> 0.80213068E+02</totfact>
</mgrwt>
</event>
<event>
 6    4  0.6195789E-003  0.1476508E+03  0.7818608E-02  0.1203390E+00
         21   -1    0    0  501  502  0.00000000000E+00  0.00000000000E+00  0.17647830176E+03  0.17647830176E+03  0.00000000000E+00 0. -1.
          4   -1    0    0  502    0 -0.00000000000E+00 -0.00000000000E+00 -0.80102315438E+02  0.80112382554E+02  0.12700000000E+01 0. -1.
         25    2    1    2    0    0  0.47349262664E+02 -0.62716824183E+02  0.23691766598E+02  0.14953947504E+03  0.12500160831E+03 0.  0.
    9000005    1    3    3    0    0  0.71851227761E+02 -0.79976786340E+02 -0.55428682874E+01  0.10765968917E+03  0.10000000000E+01 0.  0.
    9000005    1    3    3    0    0 -0.24501965097E+02  0.17259962157E+02  0.29234634885E+02  0.41879785866E+02  0.10000000000E+01 0.  0.
          4    1    1    2  501    0 -0.47349262664E+02  0.62716824183E+02  0.72684219726E+02  0.10705120928E+03  0.12700000000E+01 0.  1.
<mgrwt>
<rscale>  1 0.14765079E+03</rscale>
<asrwt>0</asrwt>
<pdfrwt beam="1">  1       21 0.27150508E-01 0.14765079E+03</pdfrwt>
<pdfrwt beam="2">  1        4 0.12324559E-01 0.14765079E+03</pdfrwt>
<totfact> 0.28205223E+04</totfact>
</mgrwt>
</event>
<event>
 6    4  0.6195789E-003  0.1272026E+03  0.7818608E-02  0.1231667E+00
         21   -1    0    0  501  502  0.00000000000E+00  0.00000000000E+00  0.10395709721E+03  0.10395709721E+03  0.00000000000E+00 0.  1.
         -4   -1    0    0    0  501 -0.00000000000E+00 -0.00000000000E+00 -0.55881078583E+02  0.55895508260E+02  0.12700000000E+01 0.  1.
         25    2    1    2    0    0  0.11652804106E+02  0.20472904222E+02  0.48820940659E+02  0.13624973574E+03  0.12500231434E+03 0.  0.
    9000005    1    3    3    0    0  0.39609710722E+02 -0.41231960756E+02  0.96546192756E+01  0.57993236197E+02  0.10000000000E+01 0.  0.
    9000005    1    3    3    0    0 -0.27956906616E+02  0.61704864978E+02  0.39166321384E+02  0.78256499539E+02  0.10000000000E+01 0.  0.
         -4    1    1    2    0  502 -0.11652804106E+02 -0.20472904222E+02 -0.74492203199E+00  0.23602869734E+02  0.12700000000E+01 0. -1.
<mgrwt>
<rscale>  1 0.12720262E+03</rscale>
<asrwt>0</asrwt>
<pdfrwt beam="1">  1       21 0.15993400E-01 0.12720262E+03</pdfrwt>
<pdfrwt beam="2">  1       -4 0.85987957E-02 0.12720262E+03</pdfrwt>
<totfact> 0.13619726E+05</totfact>
</mgrwt>
</event>
<event>
 6    4  0.6195789E-003  0.1271294E+03  0.7818608E-02  0.1231778E+00
          4   -1    0    0  502    0 -0.00000000000E+00  0.00000000000E+00  0.56683643480E+02  0.56697868904E+02  0.12700000000E+01 0.  1.
         21   -1    0    0  501  502  0.00000000000E+00 -0.00000000000E+00 -0.15888565291E+03  0.15888565291E+03  0.00000000000E+00 0.  1.
         25    2    1    2    0    0  0.12693047596E+02  0.19386225904E+02 -0.18188699209E+02  0.12842396464E+03  0.12499978681E+03 0.  0.
    9000005    1    3    3    0    0 -0.32653331664E+02  0.38977989585E+02 -0.48650553601E+02  0.70380395755E+02  0.10000000000E+01 0.  0.
    9000005    1    3    3    0    0  0.45346379260E+02 -0.19591763681E+02  0.30461854393E+02  0.58043568887E+02  0.10000000000E+01 0.  0.
          4    1    1    2  501    0 -0.12693047596E+02 -0.19386225904E+02 -0.84013310216E+02  0.87159557167E+02  0.12700000000E+01 0. -1.
<mgrwt>
<rscale>  1 0.12712941E+03</rscale>
<asrwt>0</asrwt>
<pdfrwt beam="2">  1       21 0.24443947E-01 0.12712941E+03</pdfrwt>
<pdfrwt beam="1">  1        4 0.87220451E-02 0.12712941E+03</pdfrwt>
<totfact> 0.60762912E+04</totfact>
</mgrwt>
</event>
<event>
 6    4  0.6195789E-003  0.1268314E+03  0.7818608E-02  0.1232235E+00
         21   -1    0    0  501  502  0.00000000000E+00  0.00000000000E+00  0.90720348973E+03  0.90720348973E+03  0.00000000000E+00 0.  1.
         -4   -1    0    0    0  501 -0.00000000000E+00 -0.00000000000E+00 -0.62463829760E+01  0.63741823226E+01  0.12700000000E+01 0.  1.
         25    2    1    2    0    0  0.17379274698E+02  0.12571737043E+02  0.82291589980E+03  0.83263243968E+03  0.12500445472E+03 0.  0.
    9000005    1    3    3    0    0  0.61034535985E+02  0.34854883644E+02  0.61554495709E+03  0.61954553642E+03  0.10000000000E+01 0.  0.
    9000005    1    3    3    0    0 -0.43655261287E+02 -0.22283146601E+02  0.20737094271E+03  0.21308690326E+03  0.10000000000E+01 0.  0.
         -4    1    1    2    0  502 -0.17379274698E+02 -0.12571737043E+02  0.78041206958E+02  0.80945232378E+02  0.12700000000E+01 0. -1.
<mgrwt>
<rscale>  1 0.12683139E+03</rscale>
<asrwt>0</asrwt>
<pdfrwt beam="1">  1       21 0.13956966E+00 0.12683139E+03</pdfrwt>
<pdfrwt beam="2">  1       -4 0.97088182E-03 0.12683139E+03</pdfrwt>
<totfact> 0.45450870E+04</totfact>
</mgrwt>
</event>
<event>
 6    4  0.6195789E-003  0.1279437E+03  0.7818608E-02  0.1230539E+00
         -4   -1    0    0    0  501 -0.00000000000E+00  0.00000000000E+00  0.45114764007E+03  0.45114942762E+03  0.12700000000E+01 0. -1.
         21   -1    0    0  501  502  0.00000000000E+00 -0.00000000000E+00 -0.16101425794E+02  0.16101425794E+02  0.00000000000E+00 0. -1.
         25    2    1    2    0    0 -0.22330501349E+02  0.15604123178E+02  0.41243597556E+03  0.43182521657E+03  0.12500977475E+03 0.  0.
    9000005    1    3    3    0    0  0.48752247309E+02 -0.14305189426E+02  0.16307895360E+03  0.17081324647E+03  0.10000000000E+01 0.  0.
    9000005    1    3    3    0    0 -0.71082748658E+02  0.29909312604E+02  0.24935702196E+03  0.26101197011E+03  0.10000000000E+01 0.  0.
         -4    1    1    2    0  502  0.22330501349E+02 -0.15604123178E+02  0.22610238720E+02  0.35425636842E+02  0.12700000000E+01 0.  1.
<mgrwt>
<rscale>  1 0.12794367E+03</rscale>
<asrwt>0</asrwt>
<pdfrwt beam="2">  1       21 0.24771428E-02 0.12794367E+03</pdfrwt>
<pdfrwt beam="1">  1       -4 0.69411310E-01 0.12794367E+03</pdfrwt>
<totfact> 0.67302429E+04</totfact>
</mgrwt>
</event>
<event>
 6    4  0.6195789E-003  0.1310340E+03  0.7818608E-02  0.1225929E+00
         -4   -1    0    0    0  501 -0.00000000000E+00  0.00000000000E+00  0.16918715371E+03  0.16919192026E+03  0.12700000000E+01 0.  1.
         21   -1    0    0  501  502  0.00000000000E+00 -0.00000000000E+00 -0.56993322463E+02  0.56993322463E+02  0.00000000000E+00 0.  1.
         25    2    1    2    0    0  0.34460296571E+02 -0.18893898476E+02  0.12858366227E+03  0.18358558427E+03  0.12500166843E+03 0.  0.
    9000005    1    3    3    0    0 -0.28920885840E+02 -0.50303403178E+02  0.41280114782E+02  0.71217258340E+02  0.10000000000E+01 0.  0.
    9000005    1    3    3    0    0  0.63381182411E+02  0.31409504701E+02  0.87303547484E+02  0.11236832593E+03  0.10000000000E+01 0.  0.
         -4    1    1    2    0  502 -0.34460296571E+02  0.18893898476E+02 -0.16389831018E+02  0.42599658451E+02  0.12700000000E+01 0. -1.
<mgrwt>
<rscale>  1 0.13103400E+03</rscale>
<asrwt>0</asrwt>
<pdfrwt beam="2">  1       21 0.87682035E-02 0.13103400E+03</pdfrwt>
<pdfrwt beam="1">  1       -4 0.26030248E-01 0.13103400E+03</pdfrwt>
<totfact> 0.57163923E+04</totfact>
</mgrwt>
</event>
<event>
 6    4  0.6195789E-003  0.1464037E+03  0.7818608E-02  0.1204963E+00
         21   -1    0    0  501  502  0.00000000000E+00  0.00000000000E+00  0.59938584373E+02  0.59938584373E+02  0.00000000000E+00 0. -1.
          4   -1    0    0  502    0 -0.00000000000E+00 -0.00000000000E+00 -0.23569742849E+03  0.23570085001E+03  0.12700000000E+01 0.  1.
         25    2    1    2    0    0  0.39063492805E+01  0.76119388906E+02 -0.16168777278E+03  0.21812150820E+03  0.12499854215E+03 0.  0.
    9000005    1    3    3    0    0  0.46340986561E+02  0.69152598884E+02 -0.15308218683E+03  0.17425477007E+03  0.10000000000E+01 0.  0.
    9000005    1    3    3    0    0 -0.42434637280E+02  0.69667900224E+01 -0.86055859464E+01  0.43866738126E+02  0.10000000000E+01 0.  0.
          4    1    1    2  501    0 -0.39063492805E+01 -0.76119388906E+02 -0.14071071343E+02  0.77517926191E+02  0.12700000000E+01 0. -1.
<mgrwt>
<rscale>  1 0.14640374E+03</rscale>
<asrwt>0</asrwt>
<pdfrwt beam="1">  1       21 0.92213207E-02 0.14640374E+03</pdfrwt>
<pdfrwt beam="2">  1        4 0.36262441E-01 0.14640374E+03</pdfrwt>
<totfact> 0.28278908E+04</totfact>
</mgrwt>
</event>
<event>
 6    4  0.6195789E-003  0.1328656E+03  0.7818608E-02  0.1223265E+00
         -4   -1    0    0    0  501 -0.00000000000E+00  0.00000000000E+00  0.31341643300E+02  0.31367363688E+02  0.12700000000E+01 0.  1.
         21   -1    0    0  501  502  0.00000000000E+00 -0.00000000000E+00 -0.61546839504E+03  0.61546839504E+03  0.00000000000E+00 0. -1.
         25    2    1    2    0    0 -0.45044228857E+02  0.11614610662E+01 -0.11551106558E+03  0.17605703601E+03  0.12499176818E+03 0.  0.
    9000005    1    3    3    0    0  0.30075070643E+02 -0.37549433136E+02 -0.36948175081E+02  0.60668257309E+02  0.10000000000E+01 0.  0.
    9000005    1    3    3    0    0 -0.75119299500E+02  0.38710894203E+02 -0.78562890499E+02  0.11538877870E+03  0.10000000000E+01 0.  0.
         -4    1    1    2    0  502  0.45044228857E+02 -0.11614610662E+01 -0.46861568616E+03  0.47077872272E+03  0.12700000000E+01 0. -1.
<mgrwt>
<rscale>  1 0.13286562E+03</rscale>
<asrwt>0</asrwt>
<pdfrwt beam="2">  1       21 0.94687441E-01 0.13286562E+03</pdfrwt>
<pdfrwt beam="1">  1       -4 0.48238708E-02 0.13286562E+03</pdfrwt>
<totfact> 0.97626223E+03</totfact>
</mgrwt>
</event>
<event>
 6    4  0.6195789E-003  0.1295008E+03  0.7818608E-02  0.1228198E+00
         -4   -1    0    0    0  501 -0.00000000000E+00  0.00000000000E+00  0.80649529323E+02  0.80659528142E+02  0.12700000000E+01 0. -1.
         21   -1    0    0  501  502  0.00000000000E+00 -0.00000000000E+00 -0.41556107843E+03  0.41556107843E+03  0.00000000000E+00 0.  1.
         25    2    1    2    0    0 -0.66563203013E+01 -0.33154493047E+02  0.27370383082E+02  0.13236165272E+03  0.12500776868E+03 0.  0.
    9000005    1    3    3    0    0 -0.16329811921E+02  0.45399548513E+02 -0.10262263436E+01  0.48268363376E+02  0.10000000000E+01 0.  0.
    9000005    1    3    3    0    0  0.96734916192E+01 -0.78554041559E+02  0.28396609426E+02  0.84093289342E+02  0.10000000000E+01 0.  0.
         -4    1    1    2    0  502  0.66563203013E+01  0.33154493047E+02 -0.36228193219E+03  0.36385895386E+03  0.12700000000E+01 0.  1.
<mgrwt>
<rscale>  1 0.12950085E+03</rscale>
<asrwt>0</asrwt>
<pdfrwt beam="2">  1       21 0.63932472E-01 0.12950085E+03</pdfrwt>
<pdfrwt beam="1">  1       -4 0.12408539E-01 0.12950085E+03</pdfrwt>
<totfact> 0.48961698E+03</totfact>
</mgrwt>
</event>
<event>
 6    4  0.6195789E-003  0.1283445E+03  0.7818608E-02  0.1229933E+00
         -4   -1    0    0    0  501 -0.00000000000E+00  0.00000000000E+00  0.82419057662E+01  0.83391792557E+01  0.12700000000E+01 0. -1.
         21   -1    0    0  501  502  0.00000000000E+00 -0.00000000000E+00 -0.84905676498E+03  0.84905676498E+03  0.00000000000E+00 0.  1.
         25    2    1    2    0    0 -0.20776994887E+02 -0.20274775330E+02 -0.53394975054E+03  0.54915811747E+03  0.12501820605E+03 0.  0.
    9000005    1    3    3    0    0 -0.52188441191E+02 -0.58790535255E+02 -0.33116323358E+03  0.34036751858E+03  0.10000000000E+01 0.  0.
    9000005    1    3    3    0    0  0.31411446304E+02  0.38515759925E+02 -0.20278651696E+03  0.20879059889E+03  0.10000000000E+01 0.  0.
         -4    1    1    2    0  502  0.20776994887E+02  0.20274775330E+02 -0.30686510868E+03  0.30823782677E+03  0.12700000000E+01 0.  1.
<mgrwt>
<rscale>  1 0.12834447E+03</rscale>
<asrwt>0</asrwt>
<pdfrwt beam="2">  1       21 0.13062402E+00 0.12834447E+03</pdfrwt>
<pdfrwt beam="1">  1       -4 0.12755421E-02 0.12834447E+03</pdfrwt>
<totfact> 0.35593968E+04</totfact>
</mgrwt>
</event>
<event>
 6    4  0.6195789E-003  0.1301873E+03  0.7818608E-02  0.1227178E+00
         -4   -1    0    0    0  501 -0.00000000000E+00  0.00000000000E+00  0.31273693463E+02  0.31299469690E+02  0.12700000000E+01 0. -1.
         21   -1    0    0  501  502  0.00000000000E+00 -0.00000000000E+00 -0.34790540009E+03  0.34790540009E+03  0.00000000000E+00 0.  1.
         25    2    1    2    0    0  0.35927599020E+02  0.57022462662E+01 -0.11313019536E+03  0.17247367724E+03  0.12500168100E+03 0.  0.
    9000005    1    3    3    0    0  0.76144942627E+01  0.48338820324E+02 -0.71348290295E+00  0.48950292451E+02  0.10000000000E+01 0.  0.
    9000005    1    3    3    0    0  0.28313104757E+02 -0.42636574058E+02 -0.11241671246E+03  0.12352338478E+03  0.10000000000E+01 0.  0.
         -4    1    1    2    0  502 -0.35927599020E+02 -0.57022462662E+01 -0.20350151127E+03  0.20673119254E+03  0.12700000000E+01 0.  1.
<mgrwt>
<rscale>  1 0.13018728E+03</rscale>
<asrwt>0</asrwt>
<pdfrwt beam="2">  1       21 0.53523909E-01 0.13018728E+03</pdfrwt>
<pdfrwt beam="1">  1       -4 0.48134984E-02 0.13018728E+03</pdfrwt>
<totfact> 0.34143700E+04</totfact>
</mgrwt>
</event>
<event>
 6    4  0.6195789E-003  0.1305211E+03  0.7818608E-02  0.1226685E+00
         -4   -1    0    0    0  501 -0.00000000000E+00  0.00000000000E+00  0.56047760379E+03  0.56047904265E+03  0.12700000000E+01 0.  1.
         21   -1    0    0  501  502  0.00000000000E+00 -0.00000000000E+00 -0.16222742275E+02  0.16222742275E+02  0.00000000000E+00 0.  1.
         25    2    1    2    0    0 -0.24706188422E+02 -0.28354187431E+02  0.50781435682E+03  0.52431973672E+03  0.12498563772E+03 0.  0.
    9000005    1    3    3    0    0 -0.72597734891E+02  0.20412794318E+01  0.31912387247E+03  0.32728526382E+03  0.10000000000E+01 0.  0.
    9000005    1    3    3    0    0  0.47891546469E+02 -0.30395466863E+02  0.18869048434E+03  0.19703447290E+03  0.10000000000E+01 0.  0.
         -4    1    1    2    0  502  0.24706188422E+02  0.28354187431E+02  0.36440504698E+02  0.52382048203E+02  0.12700000000E+01 0. -1.
<mgrwt>
<rscale>  1 0.13052113E+03</rscale>
<asrwt>0</asrwt>
<pdfrwt beam="2">  1       21 0.24958069E-02 0.13052113E+03</pdfrwt>
<pdfrwt beam="1">  1       -4 0.86231243E-01 0.13052113E+03</pdfrwt>
<totfact> 0.41406430E+04</totfact>
</mgrwt>
</event>
<event>
 6    4  0.6195789E-003  0.1300937E+03  0.7818608E-02  0.1227317E+00
         21   -1    0    0  501  502  0.00000000000E+00  0.00000000000E+00  0.60860044681E+02  0.60860044681E+02  0.00000000000E+00 0. -1.
          4   -1    0    0  502    0 -0.00000000000E+00 -0.00000000000E+00 -0.16783216388E+03  0.16783696891E+03  0.12700000000E+01 0.  1.
         25    2    1    2    0    0  0.35940895988E+02 -0.27573076414E+01 -0.13157933385E+03  0.18503377203E+03  0.12500009978E+03 0.  0.
    9000005    1    3    3    0    0 -0.86313121589E+01  0.51330979794E+02 -0.25710979270E+02  0.58063960347E+02  0.10000000000E+01 0.  0.
    9000005    1    3    3    0    0  0.44572208147E+02 -0.54088287435E+02 -0.10586835458E+03  0.12696981168E+03  0.10000000000E+01 0.  0.
          4    1    1    2  501    0 -0.35940895988E+02  0.27573076414E+01  0.24607214658E+02  0.43663241555E+02  0.12700000000E+01 0. -1.
<mgrwt>
<rscale>  1 0.13009372E+03</rscale>
<asrwt>0</asrwt>
<pdfrwt beam="1">  1       21 0.93630839E-02 0.13009372E+03</pdfrwt>
<pdfrwt beam="2">  1        4 0.25821722E-01 0.13009372E+03</pdfrwt>
<totfact> 0.51715763E+04</totfact>
</mgrwt>
</event>
<event>
 6    4  0.6195789E-003  0.1536852E+03  0.7818608E-02  0.1196016E+00
         -4   -1    0    0    0  501 -0.00000000000E+00  0.00000000000E+00  0.84871321593E+02  0.84880823093E+02  0.12700000000E+01 0. -1.
         21   -1    0    0  501  502  0.00000000000E+00 -0.00000000000E+00 -0.21984579473E+03  0.21984579473E+03  0.00000000000E+00 0. -1.
         25    2    1    2    0    0 -0.89409411846E+02  0.12867507219E+00 -0.14040997024E+02  0.15432522811E+03  0.12500026780E+03 0.  0.
    9000005    1    3    3    0    0 -0.36664222434E+02 -0.52800097843E+02  0.26231372751E+02  0.69434864840E+02  0.10000000000E+01 0.  0.
    9000005    1    3    3    0    0 -0.52745189413E+02  0.52928772915E+02 -0.40272369775E+02  0.84890363268E+02  0.10000000000E+01 0.  0.
         -4    1    1    2    0  502  0.89409411846E+02 -0.12867507219E+00 -0.12093347612E+03  0.15040138972E+03  0.12700000000E+01 0.  1.
<mgrwt>
<rscale>  1 0.15368515E+03</rscale>
<asrwt>0</asrwt>
<pdfrwt beam="2">  1       21 0.33822430E-01 0.15368515E+03</pdfrwt>
<pdfrwt beam="1">  1       -4 0.13058140E-01 0.15368515E+03</pdfrwt>
<totfact> 0.16733705E+04</totfact>
</mgrwt>
</event>
<event>
 6    4  0.6195789E-003  0.1275550E+03  0.7818608E-02  0.1231129E+00
         21   -1    0    0  501  502  0.00000000000E+00  0.00000000000E+00  0.14327973112E+03  0.14327973112E+03  0.00000000000E+00 0. -1.
          4   -1    0    0  502    0 -0.00000000000E+00 -0.00000000000E+00 -0.45650036255E+02  0.45667698760E+02  0.12700000000E+01 0. -1.
         25    2    1    2    0    0 -0.67300799914E+01  0.24484121882E+02  0.10178202034E+03  0.16318658929E+03  0.12500206822E+03 0.  0.
    9000005    1    3    3    0    0 -0.28161450268E+02 -0.45922097004E+02  0.45768351881E+02  0.70694047192E+02  0.10000000000E+01 0.  0.
    9000005    1    3    3    0    0  0.21431370276E+02  0.70406218886E+02  0.56013668458E+02  0.92492542099E+02  0.10000000000E+01 0.  0.
          4    1    1    2  501    0  0.67300799914E+01 -0.24484121882E+02 -0.41523254746E+01  0.25760840590E+02  0.12700000000E+01 0.  1.
<mgrwt>
<rscale>  1 0.12755502E+03</rscale>
<asrwt>0</asrwt>
<pdfrwt beam="1">  1       21 0.22043035E-01 0.12755502E+03</pdfrwt>
<pdfrwt beam="2">  1        4 0.70248742E-02 0.12755502E+03</pdfrwt>
<totfact> 0.10550383E+05</totfact>
</mgrwt>
</event>
<event>
 6    4  0.6195789E-003  0.1316286E+03  0.7818608E-02  0.1225059E+00
         21   -1    0    0  501  502  0.00000000000E+00  0.00000000000E+00  0.37445591782E+03  0.37445591782E+03  0.00000000000E+00 0. -1.
         -4   -1    0    0    0  501 -0.00000000000E+00 -0.00000000000E+00 -0.81127248829E+02  0.81137188777E+02  0.12700000000E+01 0.  1.
         25    2    1    2    0    0  0.40342742881E+02 -0.83245401031E+01 -0.25530485787E+02  0.13408166301E+03  0.12501700596E+03 0.  0.
    9000005    1    3    3    0    0  0.29943777299E+02  0.57172687557E+02 -0.19769033272E+02  0.67506745426E+02  0.10000000000E+01 0.  0.
    9000005    1    3    3    0    0  0.10398965582E+02 -0.65497227660E+02 -0.57614525149E+01  0.66574917585E+02  0.10000000000E+01 0.  0.
         -4    1    1    2    0  502 -0.40342742881E+02  0.83245401031E+01  0.31885915478E+03  0.32151144359E+03  0.12700000000E+01 0. -1.
<mgrwt>
<rscale>  1 0.13162859E+03</rscale>
<asrwt>0</asrwt>
<pdfrwt beam="1">  1       21 0.57608602E-01 0.13162859E+03</pdfrwt>
<pdfrwt beam="2">  1       -4 0.12482046E-01 0.13162859E+03</pdfrwt>
<totfact> 0.60559224E+03</totfact>
</mgrwt>
</event>
<event>
 6    4  0.6195789E-003  0.1276231E+03  0.7818608E-02  0.1231026E+00
          4   -1    0    0  502    0 -0.00000000000E+00  0.00000000000E+00  0.34459215108E+02  0.34482610195E+02  0.12700000000E+01 0. -1.
         21   -1    0    0  501  502  0.00000000000E+00 -0.00000000000E+00 -0.70907107362E+03  0.70907107362E+03  0.00000000000E+00 0.  1.
         25    2    1    2    0    0 -0.17858317935E+02  0.18595320897E+02 -0.84913102893E+02  0.15329023352E+03  0.12499182041E+03 0.  0.
    9000005    1    3    3    0    0  0.96448783124E+01  0.63511830735E+02 -0.15392006890E+02  0.66065802024E+02  0.10000000000E+01 0.  0.
    9000005    1    3    3    0    0 -0.27503196248E+02 -0.44916509838E+02 -0.69521096003E+02  0.87224431493E+02  0.10000000000E+01 0.  0.
          4    1    1    2  501    0  0.17858317935E+02 -0.18595320897E+02 -0.58969875562E+03  0.59026345030E+03  0.12700000000E+01 0.  1.
<mgrwt>
<rscale>  1 0.12762312E+03</rscale>
<asrwt>0</asrwt>
<pdfrwt beam="2">  1       21 0.10908786E+00 0.12762312E+03</pdfrwt>
<pdfrwt beam="1">  1        4 0.53033049E-02 0.12762312E+03</pdfrwt>
<totfact> 0.59958639E+03</totfact>
</mgrwt>
</event>
<event>
 6    4  0.6195789E-003  0.1285875E+03  0.7818608E-02  0.1229567E+00
         21   -1    0    0  501  502  0.00000000000E+00  0.00000000000E+00  0.21791332207E+03  0.21791332207E+03  0.00000000000E+00 0. -1.
          4   -1    0    0  502    0 -0.00000000000E+00 -0.00000000000E+00 -0.29316404929E+02  0.29343900523E+02  0.12700000000E+01 0. -1.
         25    2    1    2    0    0 -0.30000632559E+02 -0.31188125817E+01  0.16344162113E+03  0.20796133524E+03  0.12499995395E+03 0.  0.
    9000005    1    3    3    0    0  0.18408503758E+02 -0.34431253814E+01 -0.14400522617E+02  0.23645362646E+02  0.10000000000E+01 0.  0.
    9000005    1    3    3    0    0 -0.48409136317E+02  0.32431279966E+00  0.17784214375E+03  0.18431597259E+03  0.10000000000E+01 0.  0.
          4    1    1    2  501    0  0.30000632559E+02  0.31188125817E+01  0.25155296002E+02  0.39295887353E+02  0.12700000000E+01 0.  1.
<mgrwt>
<rscale>  1 0.12858753E+03</rscale>
<asrwt>0</asrwt>
<pdfrwt beam="1">  1       21 0.33525125E-01 0.12858753E+03</pdfrwt>
<pdfrwt beam="2">  1        4 0.45126160E-02 0.12858753E+03</pdfrwt>
<totfact> 0.97096054E+04</totfact>
</mgrwt>
</event>
<event>
 6    4  0.6195789E-003  0.1306923E+03  0.7818608E-02  0.1226432E+00
         21   -1    0    0  501  502  0.00000000000E+00  0.00000000000E+00  0.16249877948E+02  0.16249877948E+02  0.00000000000E+00 0.  1.
         -4   -1    0    0    0  501 -0.00000000000E+00 -0.00000000000E+00 -0.44041793900E+03  0.44041977010E+03  0.12700000000E+01 0.  1.
         25    2    1    2    0    0  0.39100081670E+01 -0.37953866103E+02 -0.31585563761E+03  0.34182637185E+03  0.12499880226E+03 0.  0.
    9000005    1    3    3    0    0 -0.16978042389E+02 -0.74896383871E+02 -0.26327230554E+03  0.27424629278E+03  0.10000000000E+01 0.  0.
    9000005    1    3    3    0    0  0.20888050556E+02  0.36942517768E+02 -0.52583332071E+02  0.67580079068E+02  0.10000000000E+01 0.  0.
         -4    1    1    2    0  502 -0.39100081670E+01  0.37953866103E+02 -0.10831242344E+03  0.11484327620E+03  0.12700000000E+01 0. -1.
<mgrwt>
<rscale>  1 0.13069233E+03</rscale>
<asrwt>0</asrwt>
<pdfrwt beam="1">  1       21 0.24999814E-02 0.13069233E+03</pdfrwt>
<pdfrwt beam="2">  1       -4 0.67760559E-01 0.13069233E+03</pdfrwt>
<totfact> 0.70033772E+04</totfact>
</mgrwt>
</event>
<event>
 6    4  0.6195789E-003  0.1367576E+03  0.7818608E-02  0.1217760E+00
         21   -1    0    0  501  502  0.00000000000E+00  0.00000000000E+00  0.50509240045E+02  0.50509240045E+02  0.00000000000E+00 0. -1.
         -4   -1    0    0    0  501 -0.00000000000E+00 -0.00000000000E+00 -0.29793977867E+03  0.29794248542E+03  0.12700000000E+01 0.  1.
         25    2    1    2    0    0 -0.47290604688E+02 -0.29047619929E+02 -0.25794040906E+03  0.29195185120E+03  0.12498985270E+03 0.  0.
    9000005    1    3    3    0    0 -0.67194048027E+02 -0.45421015330E+02 -0.86493977817E+02  0.11857620724E+03  0.10000000000E+01 0.  0.
    9000005    1    3    3    0    0  0.19903443339E+02  0.16373395401E+02 -0.17144643124E+03  0.17337564396E+03  0.10000000000E+01 0.  0.
         -4    1    1    2    0  502  0.47290604688E+02  0.29047619929E+02  0.10509870430E+02  0.56499874263E+02  0.12700000000E+01 0. -1.
<mgrwt>
<rscale>  1 0.13675755E+03</rscale>
<asrwt>0</asrwt>
<pdfrwt beam="1">  1       21 0.77706522E-02 0.13675755E+03</pdfrwt>
<pdfrwt beam="2">  1       -4 0.45838326E-01 0.13675755E+03</pdfrwt>
<totfact> 0.23779160E+04</totfact>
</mgrwt>
</event>
<event>
 6    4  0.6195789E-003  0.1408314E+03  0.7818608E-02  0.1212215E+00
          4   -1    0    0  502    0 -0.00000000000E+00  0.00000000000E+00  0.49493245840E+03  0.49493408781E+03  0.12700000000E+01 0. -1.
         21   -1    0    0  501  502  0.00000000000E+00 -0.00000000000E+00 -0.21440922540E+02  0.21440922540E+02  0.00000000000E+00 0.  1.
         25    2    1    2    0    0 -0.31800231992E+02  0.56543038618E+02  0.33715890095E+03  0.36538967924E+03  0.12500049292E+03 0.  0.
    9000005    1    3    3    0    0 -0.62514030245E+02 -0.16756635595E+01  0.89893779354E+02  0.10951120213E+03  0.10000000000E+01 0.  0.
    9000005    1    3    3    0    0  0.30713798253E+02  0.58218702178E+02  0.24726512160E+03  0.25587847710E+03  0.10000000000E+01 0.  0.
          4    1    1    2  501    0  0.31800231992E+02 -0.56543038618E+02  0.13633263491E+03  0.15098533112E+03  0.12700000000E+01 0.  1.
<mgrwt>
<rscale>  1 0.14083144E+03</rscale>
<asrwt>0</asrwt>
<pdfrwt beam="2">  1       21 0.32986038E-02 0.14083144E+03</pdfrwt>
<pdfrwt beam="1">  1        4 0.76146465E-01 0.14083144E+03</pdfrwt>
<totfact> 0.34854321E+04</totfact>
</mgrwt>
</event>
<event>
 6    4  0.6195789E-003  0.1267881E+03  0.7818608E-02  0.1232301E+00
         21   -1    0    0  501  502  0.00000000000E+00  0.00000000000E+00  0.61163292774E+02  0.61163292774E+02  0.00000000000E+00 0. -1.
          4   -1    0    0  502    0 -0.00000000000E+00 -0.00000000000E+00 -0.12215941524E+03  0.12216601668E+03  0.12700000000E+01 0.  1.
         25    2    1    2    0    0  0.11442387476E+02 -0.17863311817E+02 -0.83939220175E+02  0.15205592185E+03  0.12500073818E+03 0.  0.
    9000005    1    3    3    0    0 -0.31762669529E+00  0.48256537596E+02 -0.67371556353E+02  0.82877746789E+02  0.10000000000E+01 0.  0.
    9000005    1    3    3    0    0  0.11760014171E+02 -0.66119849413E+02 -0.16567663822E+02  0.69178175057E+02  0.10000000000E+01 0.  0.
          4    1    1    2  501    0 -0.11442387476E+02  0.17863311817E+02  0.22943097708E+02  0.31273387610E+02  0.12700000000E+01 0. -1.
<mgrwt>
<rscale>  1 0.12678805E+03</rscale>
<asrwt>0</asrwt>
<pdfrwt beam="1">  1       21 0.94097374E-02 0.12678805E+03</pdfrwt>
<pdfrwt beam="2">  1        4 0.18795278E-01 0.12678805E+03</pdfrwt>
<totfact> 0.90989111E+04</totfact>
</mgrwt>
</event>
<event>
 6    4  0.6195789E-003  0.1278396E+03  0.7818608E-02  0.1230697E+00
         -4   -1    0    0    0  501 -0.00000000000E+00  0.00000000000E+00  0.90642662178E+01  0.91528040549E+01  0.12700000000E+01 0.  1.
         21   -1    0    0  501  502  0.00000000000E+00 -0.00000000000E+00 -0.88366931952E+03  0.88366931952E+03  0.00000000000E+00 0.  1.
         25    2    1    2    0    0 -0.24801156852E+02 -0.10149804677E+02 -0.46244546062E+03  0.47979033466E+03  0.12499938107E+03 0.  0.
    9000005    1    3    3    0    0  0.21146076713E+02  0.18063885880E+02 -0.38157529626E+03  0.38258877042E+03  0.10000000000E+01 0.  0.
    9000005    1    3    3    0    0 -0.45947233565E+02 -0.28213690557E+02 -0.80870164357E+02  0.97201564237E+02  0.10000000000E+01 0.  0.
         -4    1    1    2    0  502  0.24801156852E+02  0.10149804677E+02 -0.41215959268E+03  0.41303178892E+03  0.12700000000E+01 0. -1.
<mgrwt>
<rscale>  1 0.12783959E+03</rscale>
<asrwt>0</asrwt>
<pdfrwt beam="2">  1       21 0.13594914E+00 0.12783959E+03</pdfrwt>
<pdfrwt beam="1">  1       -4 0.14013831E-02 0.12783959E+03</pdfrwt>
<totfact> 0.27918412E+04</totfact>
</mgrwt>
</event>
<event>
 6    4  0.6195789E-003  0.1280443E+03  0.7818608E-02  0.1230387E+00
          4   -1    0    0  502    0 -0.00000000000E+00  0.00000000000E+00  0.24088197931E+03  0.24088532719E+03  0.12700000000E+01 0.  1.
         21   -1    0    0  501  502  0.00000000000E+00 -0.00000000000E+00 -0.34874344735E+02  0.34874344735E+02  0.00000000000E+00 0. -1.
         25    2    1    2    0    0 -0.12469000979E+02  0.24816468327E+02  0.21167151615E+03  0.24738669992E+03  0.12499606180E+03 0.  0.
    9000005    1    3    3    0    0  0.76002152051E+01 -0.36394307190E+02  0.16150907641E+03  0.16573620796E+03  0.10000000000E+01 0.  0.
    9000005    1    3    3    0    0 -0.20069216184E+02  0.61210775516E+02  0.50162439741E+02  0.81650491966E+02  0.10000000000E+01 0.  0.
          4    1    1    2  501    0  0.12469000979E+02 -0.24816468327E+02 -0.56638815733E+01  0.28372972000E+02  0.12700000000E+01 0. -1.
<mgrwt>
<rscale>  1 0.12804432E+03</rscale>
<asrwt>0</asrwt>
<pdfrwt beam="2">  1       21 0.53652840E-02 0.12804432E+03</pdfrwt>
<pdfrwt beam="1">  1        4 0.37060801E-01 0.12804432E+03</pdfrwt>
<totfact> 0.67485668E+04</totfact>
</mgrwt>
</event>
<event>
 6    4  0.6195789E-003  0.1270931E+03  0.7818608E-02  0.1231834E+00
         21   -1    0    0  501  502  0.00000000000E+00  0.00000000000E+00  0.42448218101E+03  0.42448218101E+03  0.00000000000E+00 0. -1.
         -4   -1    0    0    0  501 -0.00000000000E+00 -0.00000000000E+00 -0.19256791961E+02  0.19298625252E+02  0.12700000000E+01 0.  1.
         25    2    1    2    0    0  0.33694338883E+00 -0.22999807513E+02  0.19800746768E+03  0.23528623916E+03  0.12499420948E+03 0.  0.
    9000005    1    3    3    0    0  0.29753442443E+02  0.36757741659E+02  0.33958318970E+02  0.58228569760E+02  0.10000000000E+01 0.  0.
    9000005    1    3    3    0    0 -0.29416499054E+02 -0.59757549171E+02  0.16404914871E+03  0.17705766940E+03  0.10000000000E+01 0.  0.
         -4    1    1    2    0  502 -0.33694338883E+00  0.22999807513E+02  0.20721792136E+03  0.20849456710E+03  0.12700000000E+01 0. -1.
<mgrwt>
<rscale>  1 0.12709310E+03</rscale>
<asrwt>0</asrwt>
<pdfrwt beam="1">  1       21 0.65304944E-01 0.12709310E+03</pdfrwt>
<pdfrwt beam="2">  1       -4 0.29659478E-02 0.12709310E+03</pdfrwt>
<totfact> 0.48079663E+04</totfact>
</mgrwt>
</event>
<event>
 6    4  0.6195789E-003  0.1298380E+03  0.7818608E-02  0.1227696E+00
         21   -1    0    0  501  502  0.00000000000E+00  0.00000000000E+00  0.50365526036E+03  0.50365526036E+03  0.00000000000E+00 0. -1.
          4   -1    0    0  502    0 -0.00000000000E+00 -0.00000000000E+00 -0.14018466084E+02  0.14075876219E+02  0.12700000000E+01 0. -1.
         25    2    1    2    0    0 -0.28952163606E+02  0.19863310457E+02  0.33806507614E+03  0.36214072068E+03  0.12500050797E+03 0.  0.
    9000005    1    3    3    0    0  0.13155796165E+02 -0.19783473469E+02  0.52704926045E+01  0.24356495797E+02  0.10000000000E+01 0.  0.
    9000005    1    3    3    0    0 -0.42107959771E+02  0.39646783926E+02  0.33279458353E+03  0.33778422488E+03  0.10000000000E+01 0.  0.
          4    1    1    2  501    0  0.28952163606E+02 -0.19863310457E+02  0.15157171814E+03  0.15559041590E+03  0.12700000000E+01 0.  1.
<mgrwt>
<rscale>  1 0.12983800E+03</rscale>
<asrwt>0</asrwt>
<pdfrwt beam="1">  1       21 0.77485411E-01 0.12983800E+03</pdfrwt>
<pdfrwt beam="2">  1        4 0.21612268E-02 0.12983800E+03</pdfrwt>
<totfact> 0.54206737E+04</totfact>
</mgrwt>
</event>
<event>
 6    4  0.6195789E-003  0.1272317E+03  0.7818608E-02  0.1231622E+00
         21   -1    0    0  501  502  0.00000000000E+00  0.00000000000E+00  0.20391523986E+01  0.20391523986E+01  0.00000000000E+00 0.  1.
          4   -1    0    0  502    0 -0.00000000000E+00 -0.00000000000E+00 -0.28306294726E+04  0.28306297575E+04  0.12700000000E+01 0.  1.
         25    2    1    2    0    0 -0.86593183216E+01 -0.21910754269E+02 -0.22457535311E+04  0.22493547574E+04  0.12503134397E+03 0.  0.
    9000005    1    3    3    0    0 -0.35580107494E+02  0.15676610064E+02 -0.24508848506E+03  0.24815532568E+03  0.10000000000E+01 0.  0.
    9000005    1    3    3    0    0  0.26920789172E+02 -0.37587364332E+02 -0.20006650461E+04  0.20011994317E+04  0.10000000000E+01 0.  0.
          4    1    1    2  501    0  0.86593183216E+01  0.21910754269E+02 -0.58283678906E+03  0.58331415252E+03  0.12700000000E+01 0. -1.
<mgrwt>
<rscale>  1 0.12723169E+03</rscale>
<asrwt>0</asrwt>
<pdfrwt beam="1">  1       21 0.31371635E-03 0.12723169E+03</pdfrwt>
<pdfrwt beam="2">  1        4 0.43551107E+00 0.12723169E+03</pdfrwt>
<totfact> 0.49152123E+03</totfact>
</mgrwt>
</event>
<event>
 6    4  0.6195789E-003  0.1280829E+03  0.7818608E-02  0.1230328E+00
         21   -1    0    0  501  502  0.00000000000E+00  0.00000000000E+00  0.15842067800E+03  0.15842067800E+03  0.00000000000E+00 0. -1.
          4   -1    0    0  502    0 -0.00000000000E+00 -0.00000000000E+00 -0.40209592067E+02  0.40229643227E+02  0.12700000000E+01 0. -1.
         25    2    1    2    0    0 -0.11387865336E+02  0.25478579773E+02  0.78936288587E+02  0.15045318323E+03  0.12500552462E+03 0.  0.
    9000005    1    3    3    0    0  0.28255608841E+02  0.60817643894E+02  0.69353459369E+02  0.96478326925E+02  0.10000000000E+01 0.  0.
    9000005    1    3    3    0    0 -0.39643474177E+02 -0.35339064121E+02  0.95828292185E+01  0.53974856310E+02  0.10000000000E+01 0.  0.
          4    1    1    2  501    0  0.11387865336E+02 -0.25478579773E+02  0.39274797350E+02  0.48197137996E+02  0.12700000000E+01 0.  1.
<mgrwt>
<rscale>  1 0.12808287E+03</rscale>
<asrwt>0</asrwt>
<pdfrwt beam="1">  1       21 0.24372412E-01 0.12808287E+03</pdfrwt>
<pdfrwt beam="2">  1        4 0.61880251E-02 0.12808287E+03</pdfrwt>
<totfact> 0.10756725E+05</totfact>
</mgrwt>
</event>
<event>
 6    4  0.6195789E-003  0.1283401E+03  0.7818608E-02  0.1229940E+00
         -4   -1    0    0    0  501 -0.00000000000E+00  0.00000000000E+00  0.18384783421E+03  0.18385222067E+03  0.12700000000E+01 0.  1.
         21   -1    0    0  501  502  0.00000000000E+00 -0.00000000000E+00 -0.36045631760E+02  0.36045631760E+02  0.00000000000E+00 0.  1.
         25    2    1    2    0    0  0.27257227396E+02  0.10166261941E+02  0.13963468520E+03  0.18965499269E+03  0.12499944645E+03 0.  0.
    9000005    1    3    3    0    0 -0.14374287571E+02 -0.13015790880E+02  0.14064899467E+03  0.14198299425E+03  0.10000000000E+01 0.  0.
    9000005    1    3    3    0    0  0.41631514967E+02  0.23182052821E+02 -0.10143094667E+01  0.47671998439E+02  0.10000000000E+01 0.  0.
         -4    1    1    2    0  502 -0.27257227396E+02 -0.10166261941E+02  0.81675172522E+01  0.30242859740E+02  0.12700000000E+01 0. -1.
<mgrwt>
<rscale>  1 0.12834006E+03</rscale>
<asrwt>0</asrwt>
<pdfrwt beam="2">  1       21 0.55454819E-02 0.12834006E+03</pdfrwt>
<pdfrwt beam="1">  1       -4 0.28286340E-01 0.12834006E+03</pdfrwt>
<totfact> 0.10689907E+05</totfact>
</mgrwt>
</event>
<event>
 6    4  0.6195789E-003  0.1268252E+03  0.7818608E-02  0.1232244E+00
         21   -1    0    0  501  502  0.00000000000E+00  0.00000000000E+00  0.60320057704E+02  0.60320057704E+02  0.00000000000E+00 0. -1.
         -4   -1    0    0    0  501 -0.00000000000E+00 -0.00000000000E+00 -0.15367873184E+03  0.15368397939E+03  0.12700000000E+01 0. -1.
         25    2    1    2    0    0  0.17885571004E+02  0.11816416183E+02 -0.12348228656E+03  0.17700989881E+03  0.12500043136E+03 0.  0.
    9000005    1    3    3    0    0 -0.28410681716E+02  0.41346943287E+02 -0.10324797530E+02  0.51228292952E+02  0.10000000000E+01 0.  0.
    9000005    1    3    3    0    0  0.46296252720E+02 -0.29530527104E+02 -0.11315748904E+03  0.12578160586E+03  0.10000000000E+01 0.  0.
         -4    1    1    2    0  502 -0.17885571004E+02 -0.11816416183E+02  0.30123612428E+02  0.36994138283E+02  0.12700000000E+01 0.  1.
<mgrwt>
<rscale>  1 0.12682519E+03</rscale>
<asrwt>0</asrwt>
<pdfrwt beam="1">  1       21 0.92800091E-02 0.12682519E+03</pdfrwt>
<pdfrwt beam="2">  1       -4 0.23644313E-01 0.12682519E+03</pdfrwt>
<totfact> 0.61568392E+04</totfact>
</mgrwt>
</event>
<event>
 6    4  0.6195789E-003  0.1275679E+03  0.7818608E-02  0.1231110E+00
         21   -1    0    0  501  502  0.00000000000E+00  0.00000000000E+00  0.83677113891E+02  0.83677113891E+02  0.00000000000E+00 0.  1.
         -4   -1    0    0    0  501 -0.00000000000E+00 -0.00000000000E+00 -0.71534699099E+02  0.71545971760E+02  0.12700000000E+01 0.  1.
         25    2    1    2    0    0  0.24926863076E+02  0.51911771571E+01  0.14444961149E+01  0.12757611137E+03  0.12500112319E+03 0.  0.
    9000005    1    3    3    0    0  0.42535808995E+02 -0.52203402171E+02  0.41309062837E+01  0.67472621350E+02  0.10000000000E+01 0.  0.
    9000005    1    3    3    0    0 -0.17608945919E+02  0.57394579328E+02 -0.26864101689E+01  0.60103490017E+02  0.10000000000E+01 0.  0.
         -4    1    1    2    0  502 -0.24926863076E+02 -0.51911771571E+01  0.10697918678E+02  0.27646974285E+02  0.12700000000E+01 0. -1.
<mgrwt>
<rscale>  1 0.12756793E+03</rscale>
<asrwt>0</asrwt>
<pdfrwt beam="1">  1       21 0.12873402E-01 0.12756793E+03</pdfrwt>
<pdfrwt beam="2">  1       -4 0.11006947E-01 0.12756793E+03</pdfrwt>
<totfact> 0.13291022E+05</totfact>
</mgrwt>
</event>
<event>
 6    4  0.6195789E-003  0.1269007E+03  0.7818608E-02  0.1232128E+00
         21   -1    0    0  501  502  0.00000000000E+00  0.00000000000E+00  0.12371825892E+02  0.12371825892E+02  0.00000000000E+00 0.  1.
          4   -1    0    0  502    0 -0.00000000000E+00 -0.00000000000E+00 -0.50824419248E+03  0.50824577922E+03  0.12700000000E+01 0.  1.
         25    2    1    2    0    0  0.14078748151E+02 -0.16701041630E+02 -0.46951330968E+03  0.48636050771E+03  0.12500663803E+03 0.  0.
    9000005    1    3    3    0    0 -0.31065555395E+02 -0.52279918680E+02 -0.15258116061E+03  0.16425671737E+03  0.10000000000E+01 0.  0.
    9000005    1    3    3    0    0  0.45144303546E+02  0.35578877050E+02 -0.31693214907E+03  0.32210379034E+03  0.10000000000E+01 0.  0.
          4    1    1    2  501    0 -0.14078748151E+02  0.16701041630E+02 -0.26359056913E+02  0.34257097401E+02  0.12700000000E+01 0. -1.
<mgrwt>
<rscale>  1 0.12690073E+03</rscale>
<asrwt>0</asrwt>
<pdfrwt beam="1">  1       21 0.19033582E-02 0.12690073E+03</pdfrwt>
<pdfrwt beam="2">  1        4 0.78196537E-01 0.12690073E+03</pdfrwt>
<totfact> 0.79458113E+04</totfact>
</mgrwt>
</event>
<event>
 6    4  0.6195789E-003  0.1491062E+03  0.7818608E-02  0.1201576E+00
          4   -1    0    0  502    0 -0.00000000000E+00  0.00000000000E+00  0.33211210664E+02  0.33235484257E+02  0.12700000000E+01 0.  1.
         21   -1    0    0  501  502  0.00000000000E+00 -0.00000000000E+00 -0.96328565920E+03  0.96328565920E+03  0.00000000000E+00 0. -1.
         25    2    1    2    0    0  0.39521877046E+02  0.71035306638E+02 -0.14750105477E+03  0.20973608826E+03  0.12499868801E+03 0.  0.
    9000005    1    3    3    0    0  0.11112904679E+02  0.84466325697E+02 -0.33617696489E+02  0.91592610752E+02  0.10000000000E+01 0.  0.
    9000005    1    3    3    0    0  0.28408972367E+02 -0.13431019058E+02 -0.11388335828E+03  0.11814347751E+03  0.10000000000E+01 0.  0.
          4    1    1    2  501    0 -0.39521877046E+02 -0.71035306638E+02 -0.78257339377E+03  0.78678505520E+03  0.12700000000E+01 0. -1.
<mgrwt>
<rscale>  1 0.14910622E+03</rscale>
<asrwt>0</asrwt>
<pdfrwt beam="2">  1       21 0.14819778E+00 0.14910622E+03</pdfrwt>
<pdfrwt beam="1">  1        4 0.51113492E-02 0.14910622E+03</pdfrwt>
<totfact> 0.29887979E+03</totfact>
</mgrwt>
</event>
<event>
 6    4  0.6195789E-003  0.1270823E+03  0.7818608E-02  0.1231850E+00
          4   -1    0    0  502    0 -0.00000000000E+00  0.00000000000E+00  0.37825141173E+02  0.37846455644E+02  0.12700000000E+01 0. -1.
         21   -1    0    0  501  502  0.00000000000E+00 -0.00000000000E+00 -0.17087984082E+03  0.17087984082E+03  0.00000000000E+00 0. -1.
         25    2    1    2    0    0 -0.18237500978E+02  0.13867404359E+02 -0.78073269442E+02  0.14914876787E+03  0.12500003284E+03 0.  0.
    9000005    1    3    3    0    0  0.12853070632E+02  0.33668301863E+02  0.22180435585E+02  0.42328804586E+02  0.10000000000E+01 0.  0.
    9000005    1    3    3    0    0 -0.31090571610E+02 -0.19800897504E+02 -0.10025370503E+03  0.10681996329E+03  0.10000000000E+01 0.  0.
          4    1    1    2  501    0  0.18237500978E+02 -0.13867404359E+02 -0.54981430203E+02  0.59577528589E+02  0.12700000000E+01 0.  1.
<mgrwt>
<rscale>  1 0.12708233E+03</rscale>
<asrwt>0</asrwt>
<pdfrwt beam="2">  1       21 0.26289207E-01 0.12708233E+03</pdfrwt>
<pdfrwt beam="1">  1        4 0.58212549E-02 0.12708233E+03</pdfrwt>
<totfact> 0.10282322E+05</totfact>
</mgrwt>
</event>
<event>
 6    4  0.6195789E-003  0.1298016E+03  0.7818608E-02  0.1227750E+00
         -4   -1    0    0    0  501 -0.00000000000E+00  0.00000000000E+00  0.12985126801E+02  0.13047084657E+02  0.12700000000E+01 0. -1.
         21   -1    0    0  501  502  0.00000000000E+00 -0.00000000000E+00 -0.61135122363E+03  0.61135122363E+03  0.00000000000E+00 0.  1.
         25    2    1    2    0    0  0.31694749997E+02  0.15018270559E+02 -0.34494747271E+03  0.36856102098E+03  0.12497344369E+03 0.  0.
    9000005    1    3    3    0    0 -0.34335963793E+02 -0.22216675361E+02 -0.53119481650E+02  0.67046389944E+02  0.10000000000E+01 0.  0.
    9000005    1    3    3    0    0  0.66030713790E+02  0.37234945919E+02 -0.29182799106E+03  0.30151463104E+03  0.10000000000E+01 0.  0.
         -4    1    1    2    0  502 -0.31694749997E+02 -0.15018270559E+02 -0.25341862411E+03  0.25583728730E+03  0.12700000000E+01 0.  1.
<mgrwt>
<rscale>  1 0.12980165E+03</rscale>
<asrwt>0</asrwt>
<pdfrwt beam="2">  1       21 0.94054055E-01 0.12980165E+03</pdfrwt>
<pdfrwt beam="1">  1       -4 0.20025788E-02 0.12980165E+03</pdfrwt>
<totfact> 0.39318075E+04</totfact>
</mgrwt>
</event>
<event>
 6    4  0.6195789E-003  0.1268776E+03  0.7818608E-02  0.1232164E+00
         -4   -1    0    0    0  501 -0.00000000000E+00  0.00000000000E+00  0.70317501952E+03  0.70317616638E+03  0.12700000000E+01 0. -1.
         21   -1    0    0  501  502  0.00000000000E+00 -0.00000000000E+00 -0.18546640692E+02  0.18546640692E+02  0.00000000000E+00 0.  1.
         25    2    1    2    0    0 -0.18134171202E+02  0.11917144043E+02  0.68810974683E+03  0.69970919060E+03  0.12500824466E+03 0.  0.
    9000005    1    3    3    0    0  0.23401453249E+01  0.22258176730E+02  0.67024219932E+03  0.67061651371E+03  0.10000000000E+01 0.  0.
    9000005    1    3    3    0    0 -0.20474316527E+02 -0.10341032687E+02  0.17867547510E+02  0.29092676885E+02  0.10000000000E+01 0.  0.
         -4    1    1    2    0  502  0.18134171202E+02 -0.11917144043E+02 -0.34813680083E+01  0.22013616480E+02  0.12700000000E+01 0.  1.
<mgrwt>
<rscale>  1 0.12687761E+03</rscale>
<asrwt>0</asrwt>
<pdfrwt beam="2">  1       21 0.28533299E-02 0.12687761E+03</pdfrwt>
<pdfrwt beam="1">  1       -4 0.10818418E+00 0.12687761E+03</pdfrwt>
<totfact> 0.19719611E+04</totfact>
</mgrwt>
</event>
<event>
 6    4  0.6195789E-003  0.1368735E+03  0.7818608E-02  0.1217599E+00
         -4   -1    0    0    0  501 -0.00000000000E+00  0.00000000000E+00  0.77659716736E+03  0.77659820580E+03  0.12700000000E+01 0.  1.
         21   -1    0    0  501  502  0.00000000000E+00 -0.00000000000E+00 -0.22940483931E+02  0.22940483931E+02  0.00000000000E+00 0. -1.
         25    2    1    2    0    0 -0.52009672463E+02 -0.20099863713E+02  0.72310679413E+03  0.73594687275E+03  0.12500141296E+03 0.  0.
    9000005    1    3    3    0    0 -0.53058134642E+02  0.16710966411E+02  0.12638580278E+03  0.13808980120E+03  0.10000000000E+01 0.  0.
    9000005    1    3    3    0    0  0.10484621790E+01 -0.36810830124E+02  0.59672099135E+03  0.59785707156E+03  0.10000000000E+01 0.  0.
         -4    1    1    2    0  502  0.52009672463E+02  0.20099863713E+02  0.30549889302E+02  0.63591816984E+02  0.12700000000E+01 0. -1.
<mgrwt>
<rscale>  1 0.13687353E+03</rscale>
<asrwt>0</asrwt>
<pdfrwt beam="2">  1       21 0.35293058E-02 0.13687353E+03</pdfrwt>
<pdfrwt beam="1">  1       -4 0.11947925E+00 0.13687353E+03</pdfrwt>
<totfact> 0.11071761E+04</totfact>
</mgrwt>
</event>
<event>
 6    4  0.6195789E-003  0.1287023E+03  0.7818608E-02  0.1229394E+00
         -4   -1    0    0    0  501 -0.00000000000E+00  0.00000000000E+00  0.27296950704E+02  0.27326478327E+02  0.12700000000E+01 0. -1.
         21   -1    0    0  501  502  0.00000000000E+00 -0.00000000000E+00 -0.23578106608E+03  0.23578106608E+03  0.00000000000E+00 0. -1.
         25    2    1    2    0    0 -0.24557877656E+02 -0.18387764543E+02 -0.15532682516E+03  0.20171935626E+03  0.12499230712E+03 0.  0.
    9000005    1    3    3    0    0 -0.45291170449E+02  0.31314848226E+02 -0.13198955827E+03  0.14301801751E+03  0.10000000000E+01 0.  0.
    9000005    1    3    3    0    0  0.20733292794E+02 -0.49702612769E+02 -0.23337266890E+02  0.58701338758E+02  0.10000000000E+01 0.  0.
         -4    1    1    2    0  502  0.24557877656E+02  0.18387764543E+02 -0.53157290218E+02  0.61388188140E+02  0.12700000000E+01 0.  1.
<mgrwt>
<rscale>  1 0.12870228E+03</rscale>
<asrwt>0</asrwt>
<pdfrwt beam="2">  1       21 0.36274010E-01 0.12870228E+03</pdfrwt>
<pdfrwt beam="1">  1       -4 0.42020653E-02 0.12870228E+03</pdfrwt>
<totfact> 0.93198118E+04</totfact>
</mgrwt>
</event>
<event>
 6    4  0.6195789E-003  0.1272472E+03  0.7818608E-02  0.1231599E+00
         -4   -1    0    0    0  501 -0.00000000000E+00  0.00000000000E+00  0.12031009141E+03  0.12031679432E+03  0.12700000000E+01 0.  1.
         21   -1    0    0  501  502  0.00000000000E+00 -0.00000000000E+00 -0.57445944535E+02  0.57445944535E+02  0.00000000000E+00 0. -1.
         25    2    1    2    0    0  0.16694961239E+02 -0.17041592649E+02  0.78217036965E+02  0.14936446876E+03  0.12499080784E+03 0.  0.
    9000005    1    3    3    0    0  0.18067758347E+02  0.48810290606E+02  0.63057604984E+02  0.81768881043E+02  0.10000000000E+01 0.  0.
    9000005    1    3    3    0    0 -0.13727971075E+01 -0.65851883255E+02  0.15159431981E+02  0.67595587712E+02  0.10000000000E+01 0.  0.
         -4    1    1    2    0  502 -0.16694961239E+02  0.17041592649E+02 -0.15352890086E+02  0.28398270102E+02  0.12700000000E+01 0. -1.
<mgrwt>
<rscale>  1 0.12724716E+03</rscale>
<asrwt>0</asrwt>
<pdfrwt beam="2">  1       21 0.88378376E-02 0.12724716E+03</pdfrwt>
<pdfrwt beam="1">  1       -4 0.18510840E-01 0.12724716E+03</pdfrwt>
<totfact> 0.10431596E+05</totfact>
</mgrwt>
</event>
<event>
 6    4  0.6195789E-003  0.1267440E+03  0.7818608E-02  0.1232369E+00
         21   -1    0    0  501  502  0.00000000000E+00  0.00000000000E+00  0.68805029704E+03  0.68805029704E+03  0.00000000000E+00 0. -1.
         -4   -1    0    0    0  501 -0.00000000000E+00 -0.00000000000E+00 -0.13417677834E+02  0.13477647363E+02  0.12700000000E+01 0. -1.
         25    2    1    2    0    0 -0.17426348449E+02 -0.11553269911E+02  0.29197849859E+03  0.31830092997E+03  0.12500753064E+03 0.  0.
    9000005    1    3    3    0    0 -0.78813992602E+01 -0.29921741952E+02  0.29563906307E+03  0.29725558482E+03  0.10000000000E+01 0.  0.
    9000005    1    3    3    0    0 -0.95449491890E+01  0.18368472041E+02 -0.36605644791E+01  0.21045345149E+02  0.10000000000E+01 0.  0.
         -4    1    1    2    0  502  0.17426348449E+02  0.11553269911E+02  0.38265412061E+03  0.38322701443E+03  0.12700000000E+01 0.  1.
<mgrwt>
<rscale>  1 0.12674399E+03</rscale>
<asrwt>0</asrwt>
<pdfrwt beam="1">  1       21 0.10585386E+00 0.12674399E+03</pdfrwt>
<pdfrwt beam="2">  1       -4 0.20689619E-02 0.12674399E+03</pdfrwt>
<totfact> 0.28295834E+04</totfact>
</mgrwt>
</event>
<event>
 6    4  0.6195789E-003  0.1285621E+03  0.7818608E-02  0.1229605E+00
         21   -1    0    0  501  502  0.00000000000E+00  0.00000000000E+00  0.14955405656E+02  0.14955405656E+02  0.00000000000E+00 0.  1.
          4   -1    0    0  502    0 -0.00000000000E+00 -0.00000000000E+00 -0.52162037297E+03  0.52162191902E+03  0.12700000000E+01 0.  1.
         25    2    1    2    0    0  0.13904912388E+02 -0.26654827458E+02 -0.47811430054E+03  0.49509745138E+03  0.12499750223E+03 0.  0.
    9000005    1    3    3    0    0  0.64765850388E+02 -0.39739337909E+02 -0.27636786746E+03  0.28662524055E+03  0.10000000000E+01 0.  0.
    9000005    1    3    3    0    0 -0.50860938001E+02  0.13084510451E+02 -0.20174643308E+03  0.20847221083E+03  0.10000000000E+01 0.  0.
          4    1    1    2  501    0 -0.13904912388E+02  0.26654827458E+02 -0.28550666774E+02  0.41479873295E+02  0.12700000000E+01 0. -1.
<mgrwt>
<rscale>  1 0.12856205E+03</rscale>
<asrwt>0</asrwt>
<pdfrwt beam="1">  1       21 0.23008314E-02 0.12856205E+03</pdfrwt>
<pdfrwt beam="2">  1        4 0.80253564E-01 0.12856205E+03</pdfrwt>
<totfact> 0.55332996E+04</totfact>
</mgrwt>
</event>
<event>
 6    4  0.6195789E-003  0.1305717E+03  0.7818608E-02  0.1226610E+00
         -4   -1    0    0    0  501 -0.00000000000E+00  0.00000000000E+00  0.49824548463E+03  0.49824710321E+03  0.12700000000E+01 0. -1.
         21   -1    0    0  501  502  0.00000000000E+00 -0.00000000000E+00 -0.17142647153E+02  0.17142647153E+02  0.00000000000E+00 0. -1.
         25    2    1    2    0    0  0.12521918024E+02 -0.35591182792E+02  0.44263759061E+03  0.46149430677E+03  0.12500171132E+03 0.  0.
    9000005    1    3    3    0    0  0.46099858607E+02  0.19155424855E+01  0.37141407737E+03  0.37427033430E+03  0.10000000000E+01 0.  0.
    9000005    1    3    3    0    0 -0.33577940583E+02 -0.37506725278E+02  0.71223513237E+02  0.87223972466E+02  0.10000000000E+01 0.  0.
         -4    1    1    2    0  502 -0.12521918024E+02  0.35591182792E+02  0.38465246865E+02  0.53895443592E+02  0.12700000000E+01 0.  1.
<mgrwt>
<rscale>  1 0.13057166E+03</rscale>
<asrwt>0</asrwt>
<pdfrwt beam="2">  1       21 0.26373307E-02 0.13057166E+03</pdfrwt>
<pdfrwt beam="1">  1       -4 0.76656884E-01 0.13057166E+03</pdfrwt>
<totfact> 0.49123105E+04</totfact>
</mgrwt>
</event>
<event>
 6    4  0.6195789E-003  0.1324318E+03  0.7818608E-02  0.1223891E+00
         21   -1    0    0  501  502  0.00000000000E+00  0.00000000000E+00  0.99414292411E+02  0.99414292411E+02  0.00000000000E+00 0.  1.
          4   -1    0    0  502    0 -0.00000000000E+00 -0.00000000000E+00 -0.15462107370E+03  0.15462628926E+03  0.12700000000E+01 0. -1.
         25    2    1    2    0    0 -0.36925207412E+02  0.23435751487E+02 -0.11808861667E+03  0.17743481485E+03  0.12500194696E+03 0.  0.
    9000005    1    3    3    0    0 -0.68989780320E+01  0.54820394240E+02 -0.12188048382E+03  0.13382348022E+03  0.10000000000E+01 0.  0.
    9000005    1    3    3    0    0 -0.30026229380E+02 -0.31384642753E+02  0.37918671535E+01  0.43611334628E+02  0.10000000000E+01 0.  0.
          4    1    1    2  501    0  0.36925207412E+02 -0.23435751487E+02  0.62881835379E+02  0.76605766825E+02  0.12700000000E+01 0.  1.
<mgrwt>
<rscale>  1 0.13243184E+03</rscale>
<asrwt>0</asrwt>
<pdfrwt beam="1">  1       21 0.15294507E-01 0.13243184E+03</pdfrwt>
<pdfrwt beam="2">  1        4 0.23788883E-01 0.13243184E+03</pdfrwt>
<totfact> 0.25253793E+04</totfact>
</mgrwt>
</event>
<event>
 6    4  0.6195789E-003  0.1277890E+03  0.7818608E-02  0.1230774E+00
          4   -1    0    0  502    0 -0.00000000000E+00  0.00000000000E+00  0.13366684132E+02  0.13426881421E+02  0.12700000000E+01 0.  1.
         21   -1    0    0  501  502  0.00000000000E+00 -0.00000000000E+00 -0.44521956178E+03  0.44521956178E+03  0.00000000000E+00 0.  1.
         25    2    1    2    0    0 -0.19515568047E+02 -0.18003789376E+02 -0.36337949535E+03  0.38519434445E+03  0.12500012610E+03 0.  0.
    9000005    1    3    3    0    0  0.28306378787E+02 -0.57996201466E+02 -0.16200622208E+03  0.17438986914E+03  0.10000000000E+01 0.  0.
    9000005    1    3    3    0    0 -0.47821946834E+02  0.39992412089E+02 -0.20137327327E+03  0.21080447531E+03  0.10000000000E+01 0.  0.
          4    1    1    2  501    0  0.19515568047E+02  0.18003789376E+02 -0.68473382301E+02  0.73452098757E+02  0.12700000000E+01 0. -1.
<mgrwt>
<rscale>  1 0.12778899E+03</rscale>
<asrwt>0</asrwt>
<pdfrwt beam="2">  1       21 0.68495301E-01 0.12778899E+03</pdfrwt>
<pdfrwt beam="1">  1        4 0.20611833E-02 0.12778899E+03</pdfrwt>
<totfact> 0.76322065E+04</totfact>
</mgrwt>
</event>
<event>
 6    4  0.6195789E-003  0.1287849E+03  0.7818608E-02  0.1229270E+00
          4   -1    0    0  502    0 -0.00000000000E+00  0.00000000000E+00  0.17572400631E+03  0.17572859555E+03  0.12700000000E+01 0. -1.
         21   -1    0    0  501  502  0.00000000000E+00 -0.00000000000E+00 -0.80523887257E+02  0.80523887257E+02  0.00000000000E+00 0.  1.
         25    2    1    2    0    0  0.14185591871E+02 -0.27555469553E+02  0.14727392262E+03  0.19564036490E+03  0.12500003670E+03 0.  0.
    9000005    1    3    3    0    0  0.51514518344E+02  0.14594040415E+02  0.12332013429E+03  0.13444548016E+03  0.10000000000E+01 0.  0.
    9000005    1    3    3    0    0 -0.37328926473E+02 -0.42149509967E+02  0.23953788328E+02  0.61194884732E+02  0.10000000000E+01 0.  0.
          4    1    1    2  501    0 -0.14185591871E+02  0.27555469553E+02 -0.52073803567E+02  0.60612117905E+02  0.12700000000E+01 0.  1.
<mgrwt>
<rscale>  1 0.12878488E+03</rscale>
<asrwt>0</asrwt>
<pdfrwt beam="2">  1       21 0.12388290E-01 0.12878488E+03</pdfrwt>
<pdfrwt beam="1">  1        4 0.27035586E-01 0.12878488E+03</pdfrwt>
<totfact> 0.28988281E+04</totfact>
</mgrwt>
</event>
<event>
 6    4  0.6195789E-003  0.1279806E+03  0.7818608E-02  0.1230483E+00
         21   -1    0    0  501  502  0.00000000000E+00  0.00000000000E+00  0.37854755063E+03  0.37854755063E+03  0.00000000000E+00 0.  1.
          4   -1    0    0  502    0 -0.00000000000E+00 -0.00000000000E+00 -0.24928312016E+02  0.24960641818E+02  0.12700000000E+01 0. -1.
         25    2    1    2    0    0 -0.26908578412E+02  0.54298593148E+01  0.14630909917E+03  0.19438463619E+03  0.12500191728E+03 0.  0.
    9000005    1    3    3    0    0 -0.10365219457E+02 -0.12174777239E+02 -0.20395754138E+02  0.25935492324E+02  0.10000000000E+01 0.  0.
    9000005    1    3    3    0    0 -0.16543358955E+02  0.17604636554E+02  0.16670485331E+03  0.16844914387E+03  0.10000000000E+01 0.  0.
          4    1    1    2  501    0  0.26908578412E+02 -0.54298593148E+01  0.20731013944E+03  0.20912355625E+03  0.12700000000E+01 0.  1.
<mgrwt>
<rscale>  1 0.12798060E+03</rscale>
<asrwt>0</asrwt>
<pdfrwt beam="1">  1       21 0.58238080E-01 0.12798060E+03</pdfrwt>
<pdfrwt beam="2">  1        4 0.38377760E-02 0.12798060E+03</pdfrwt>
<totfact> 0.40955926E+04</totfact>
</mgrwt>
</event>
<event>
 6    4  0.6195789E-003  0.1368700E+03  0.7818608E-02  0.1217604E+00
         -4   -1    0    0    0  501 -0.00000000000E+00  0.00000000000E+00  0.12817097622E+03  0.12817726805E+03  0.12700000000E+01 0.  1.
         21   -1    0    0  501  502  0.00000000000E+00 -0.00000000000E+00 -0.96391563981E+02  0.96391563981E+02  0.00000000000E+00 0.  1.
         25    2    1    2    0    0  0.46870345237E+02  0.30186970045E+02  0.73096149834E+02  0.15516589168E+03  0.12500129758E+03 0.  0.
    9000005    1    3    3    0    0 -0.33637160403E+02 -0.10251534891E+02 -0.54970658614E+01  0.35605761622E+02  0.10000000000E+01 0.  0.
    9000005    1    3    3    0    0  0.80507505640E+02  0.40438504936E+02  0.78593215696E+02  0.11956013006E+03  0.10000000000E+01 0.  0.
         -4    1    1    2    0  502 -0.46870345237E+02 -0.30186970045E+02 -0.41316737601E+02  0.69402940349E+02  0.12700000000E+01 0. -1.
<mgrwt>
<rscale>  1 0.13687004E+03</rscale>
<asrwt>0</asrwt>
<pdfrwt beam="2">  1       21 0.14829471E-01 0.13687004E+03</pdfrwt>
<pdfrwt beam="1">  1       -4 0.19719739E-01 0.13687004E+03</pdfrwt>
<totfact> 0.37664670E+04</totfact>
</mgrwt>
</event>
<event>
 6    4  0.6195789E-003  0.1287992E+03  0.7818608E-02  0.1229248E+00
          4   -1    0    0  502    0 -0.00000000000E+00  0.00000000000E+00  0.23405204483E+02  0.23439635170E+02  0.12700000000E+01 0. -1.
         21   -1    0    0  501  502  0.00000000000E+00 -0.00000000000E+00 -0.28436324941E+03  0.28436324941E+03  0.00000000000E+00 0. -1.
         25    2    1    2    0    0  0.29299371558E+02  0.10314979562E+02 -0.18217115448E+03  0.22310436639E+03  0.12499750718E+03 0.  0.
    9000005    1    3    3    0    0  0.49859470268E+02  0.83626348689E+01 -0.19317389040E+03  0.19968237871E+03  0.10000000000E+01 0.  0.
    9000005    1    3    3    0    0 -0.20560098710E+02  0.19523446927E+01  0.11002735923E+02  0.23421987673E+02  0.10000000000E+01 0.  0.
          4    1    1    2  501    0 -0.29299371558E+02 -0.10314979562E+02 -0.78786890447E+02  0.84698518188E+02  0.12700000000E+01 0.  1.
<mgrwt>
<rscale>  1 0.12879918E+03</rscale>
<asrwt>0</asrwt>
<pdfrwt beam="2">  1       21 0.43748192E-01 0.12879918E+03</pdfrwt>
<pdfrwt beam="1">  1        4 0.36036673E-02 0.12879918E+03</pdfrwt>
<totfact> 0.81768336E+04</totfact>
</mgrwt>
</event>
<event>
 6    4  0.6195789E-003  0.1290457E+03  0.7818608E-02  0.1228879E+00
         21   -1    0    0  501  502  0.00000000000E+00  0.00000000000E+00  0.16289853505E+03  0.16289853505E+03  0.00000000000E+00 0. -1.
         -4   -1    0    0    0  501 -0.00000000000E+00 -0.00000000000E+00 -0.40050408618E+02  0.40070539433E+02  0.12700000000E+01 0. -1.
         25    2    1    2    0    0  0.27993694333E+02  0.15607081118E+02  0.10423080647E+03  0.16588207668E+03  0.12500229775E+03 0.  0.
    9000005    1    3    3    0    0 -0.25662753992E+02 -0.37676648098E+02  0.68382707345E+02  0.82190640697E+02  0.10000000000E+01 0.  0.
    9000005    1    3    3    0    0  0.53656448325E+02  0.53283729216E+02  0.35848099125E+02  0.83691435983E+02  0.10000000000E+01 0.  0.
         -4    1    1    2    0  502 -0.27993694333E+02 -0.15607081118E+02  0.18617319963E+02  0.37086997803E+02  0.12700000000E+01 0.  1.
<mgrwt>
<rscale>  1 0.12904574E+03</rscale>
<asrwt>0</asrwt>
<pdfrwt beam="1">  1       21 0.25061313E-01 0.12904574E+03</pdfrwt>
<pdfrwt beam="2">  1       -4 0.61635307E-02 0.12904574E+03</pdfrwt>
<totfact> 0.10281984E+05</totfact>
</mgrwt>
</event>
<event>
 6    4  0.6195789E-003  0.1273499E+03  0.7818608E-02  0.1231442E+00
          4   -1    0    0  502    0 -0.00000000000E+00  0.00000000000E+00  0.12254133656E+04  0.12254140237E+04  0.12700000000E+01 0. -1.
         21   -1    0    0  501  502  0.00000000000E+00 -0.00000000000E+00 -0.61684226633E+01  0.61684226633E+01  0.00000000000E+00 0. -1.
         25    2    1    2    0    0  0.84544125254E+01  0.22836225564E+02  0.11669916376E+04  0.11739197105E+04  0.12500013674E+03 0.  0.
    9000005    1    3    3    0    0  0.33113736506E+02  0.50164156613E+02  0.29050530647E+03  0.29666023535E+03  0.10000000000E+01 0.  0.
    9000005    1    3    3    0    0 -0.24659323981E+02 -0.27327931050E+02  0.87648633110E+03  0.87725947512E+03  0.10000000000E+01 0.  0.
          4    1    1    2  501    0 -0.84544125254E+01 -0.22836225564E+02  0.52253305354E+02  0.57662735883E+02  0.12700000000E+01 0.  1.
<mgrwt>
<rscale>  1 0.12734993E+03</rscale>
<asrwt>0</asrwt>
<pdfrwt beam="2">  1       21 0.94898908E-03 0.12734993E+03</pdfrwt>
<pdfrwt beam="1">  1        4 0.18853505E+00 0.12734993E+03</pdfrwt>
<totfact> 0.28348326E+04</totfact>
</mgrwt>
</event>
<event>
 6    4  0.6195789E-003  0.1276331E+03  0.7818608E-02  0.1231011E+00
         21   -1    0    0  501  502  0.00000000000E+00  0.00000000000E+00  0.40298864595E+02  0.40298864595E+02  0.00000000000E+00 0.  1.
          4   -1    0    0  502    0 -0.00000000000E+00 -0.00000000000E+00 -0.39966088678E+03  0.39966290461E+03  0.12700000000E+01 0. -1.
         25    2    1    2    0    0  0.24563611148E+02 -0.78140719126E+01 -0.38377160885E+03  0.40443893804E+03  0.12500310448E+03 0.  0.
    9000005    1    3    3    0    0  0.19014549534E+02 -0.43890041463E+01  0.10428498628E+01  0.19567932625E+02  0.10000000000E+01 0.  0.
    9000005    1    3    3    0    0  0.55490616149E+01 -0.34250677664E+01 -0.38481445871E+03  0.38487100541E+03  0.10000000000E+01 0.  0.
          4    1    1    2  501    0 -0.24563611148E+02  0.78140719126E+01  0.24409586668E+02  0.35522831163E+02  0.12700000000E+01 0.  1.
<mgrwt>
<rscale>  1 0.12763309E+03</rscale>
<asrwt>0</asrwt>
<pdfrwt beam="1">  1       21 0.61998253E-02 0.12763309E+03</pdfrwt>
<pdfrwt beam="2">  1        4 0.61487985E-01 0.12763309E+03</pdfrwt>
<totfact> 0.18985569E+04</totfact>
</mgrwt>
</event>
<event>
 6    4  0.6195789E-003  0.1535309E+03  0.7818608E-02  0.1196200E+00
         -4   -1    0    0    0  501 -0.00000000000E+00  0.00000000000E+00  0.42034615467E+02  0.42053796469E+02  0.12700000000E+01 0. -1.
         21   -1    0    0  501  502  0.00000000000E+00 -0.00000000000E+00 -0.51866478511E+03  0.51866478511E+03  0.00000000000E+00 0.  1.
         25    2    1    2    0    0  0.83030353410E+02 -0.32429504234E+02 -0.12505306367E+03  0.19801513980E+03  0.12500405804E+03 0.  0.
    9000005    1    3    3    0    0  0.98052723671E+02  0.13375516435E+02 -0.55746342012E+02  0.11358651199E+03  0.10000000000E+01 0.  0.
    9000005    1    3    3    0    0 -0.15022370261E+02 -0.45805020669E+02 -0.69306721654E+02  0.84428627806E+02  0.10000000000E+01 0.  0.
         -4    1    1    2    0  502 -0.83030353410E+02  0.32429504234E+02 -0.35157710598E+03  0.36270344178E+03  0.12700000000E+01 0.  1.
<mgrwt>
<rscale>  1 0.15353087E+03</rscale>
<asrwt>0</asrwt>
<pdfrwt beam="2">  1       21 0.79794587E-01 0.15353087E+03</pdfrwt>
<pdfrwt beam="1">  1       -4 0.64684586E-02 0.15353087E+03</pdfrwt>
<totfact> 0.90411460E+03</totfact>
</mgrwt>
</event>
<event>
 6    4  0.6195789E-003  0.1275122E+03  0.7818608E-02  0.1231195E+00
         -4   -1    0    0    0  501 -0.00000000000E+00  0.00000000000E+00  0.26198580242E+03  0.26198888062E+03  0.12700000000E+01 0.  1.
         21   -1    0    0  501  502  0.00000000000E+00 -0.00000000000E+00 -0.59110327854E+02  0.59110327854E+02  0.00000000000E+00 0. -1.
         25    2    1    2    0    0  0.25218930230E+02 -0.58542639569E+00  0.24257418155E+03  0.27404671224E+03  0.12499211883E+03 0.  0.
    9000005    1    3    3    0    0  0.60487367706E+02 -0.41296862884E+02  0.15027260777E+03  0.16717358997E+03  0.10000000000E+01 0.  0.
    9000005    1    3    3    0    0 -0.35268437476E+02  0.40711436489E+02  0.92301573774E+02  0.10687312227E+03  0.10000000000E+01 0.  0.
         -4    1    1    2    0  502 -0.25218930230E+02  0.58542639569E+00 -0.39698706981E+02  0.47052496235E+02  0.12700000000E+01 0. -1.
<mgrwt>
<rscale>  1 0.12751222E+03</rscale>
<asrwt>0</asrwt>
<pdfrwt beam="2">  1       21 0.90938968E-02 0.12751222E+03</pdfrwt>
<pdfrwt beam="1">  1       -4 0.40306793E-01 0.12751222E+03</pdfrwt>
<totfact> 0.23213354E+04</totfact>
</mgrwt>
</event>
<event>
 6    4  0.6195789E-003  0.1283319E+03  0.7818608E-02  0.1229952E+00
         21   -1    0    0  501  502  0.00000000000E+00  0.00000000000E+00  0.16583423882E+02  0.16583423882E+02  0.00000000000E+00 0. -1.
          4   -1    0    0  502    0 -0.00000000000E+00 -0.00000000000E+00 -0.37327849986E+03  0.37328066031E+03  0.12700000000E+01 0. -1.
         25    2    1    2    0    0 -0.51839709746E+01 -0.28479245755E+02 -0.28693758526E+03  0.31432825556E+03  0.12502453127E+03 0.  0.
    9000005    1    3    3    0    0 -0.37067849638E+02  0.27142062356E+02 -0.20603643326E+03  0.21109886038E+03  0.10000000000E+01 0.  0.
    9000005    1    3    3    0    0  0.31883878664E+02 -0.55621308111E+02 -0.80901152002E+02  0.10322939518E+03  0.10000000000E+01 0.  0.
          4    1    1    2  501    0  0.51839709746E+01  0.28479245755E+02 -0.69757490721E+02  0.75535828622E+02  0.12700000000E+01 0.  1.
<mgrwt>
<rscale>  1 0.12833189E+03</rscale>
<asrwt>0</asrwt>
<pdfrwt beam="1">  1       21 0.25512961E-02 0.12833189E+03</pdfrwt>
<pdfrwt beam="2">  1        4 0.57431366E-01 0.12833189E+03</pdfrwt>
<totfact> 0.95827244E+04</totfact>
</mgrwt>
</event>
<event>
 6    4  0.6195789E-003  0.1304319E+03  0.7818608E-02  0.1226816E+00
         21   -1    0    0  501  502  0.00000000000E+00  0.00000000000E+00  0.11873565565E+03  0.11873565565E+03  0.00000000000E+00 0. -1.
          4   -1    0    0  502    0 -0.00000000000E+00 -0.00000000000E+00 -0.60628357679E+02  0.60641657751E+02  0.12700000000E+01 0. -1.
         25    2    1    2    0    0  0.70273807321E+01 -0.36591567052E+02  0.33363301628E+02  0.13463130671E+03  0.12499660792E+03 0.  0.
    9000005    1    3    3    0    0 -0.22714638056E+02 -0.57830265512E+01  0.72751309924E+02  0.76440508069E+02  0.10000000000E+01 0.  0.
    9000005    1    3    3    0    0  0.29742018788E+02 -0.30808540501E+02 -0.39388008296E+02  0.58190798645E+02  0.10000000000E+01 0.  0.
          4    1    1    2  501    0 -0.70273807321E+01  0.36591567052E+02  0.24743996340E+02  0.44746006684E+02  0.12700000000E+01 0.  1.
<mgrwt>
<rscale>  1 0.13043189E+03</rscale>
<asrwt>0</asrwt>
<pdfrwt beam="1">  1       21 0.18267024E-01 0.13043189E+03</pdfrwt>
<pdfrwt beam="2">  1        4 0.93289852E-02 0.13043189E+03</pdfrwt>
<totfact> 0.93636692E+04</totfact>
</mgrwt>
</event>
<event>
 6    4  0.6195789E-003  0.1267809E+03  0.7818608E-02  0.1232312E+00
          4   -1    0    0  502    0 -0.00000000000E+00  0.00000000000E+00  0.13926066549E+04  0.13926072340E+04  0.12700000000E+01 0.  1.
         21   -1    0    0  501  502  0.00000000000E+00 -0.00000000000E+00 -0.40742785400E+01  0.40742785400E+01  0.00000000000E+00 0.  1.
         25    2    1    2    0    0  0.20854855547E+02 -0.38987343966E+01  0.12646619098E+04  0.12710008437E+04  0.12499309377E+03 0.  0.
    9000005    1    3    3    0    0 -0.31103202252E+02  0.14729657250E+02  0.10024233073E+04  0.10030143862E+04  0.10000000000E+01 0.  0.
    9000005    1    3    3    0    0  0.51958057799E+02 -0.18628391647E+02  0.26223860248E+03  0.26798645745E+03  0.10000000000E+01 0.  0.
          4    1    1    2  501    0 -0.20854855547E+02  0.38987343966E+01  0.12387046663E+03  0.12568066889E+03  0.12700000000E+01 0. -1.
<mgrwt>
<rscale>  1 0.12678091E+03</rscale>
<asrwt>0</asrwt>
<pdfrwt beam="2">  1       21 0.62681320E-03 0.12678091E+03</pdfrwt>
<pdfrwt beam="1">  1        4 0.21426207E+00 0.12678091E+03</pdfrwt>
<totfact> 0.37571205E+04</totfact>
</mgrwt>
</event>
<event>
 6    4  0.6195789E-003  0.1441999E+03  0.7818608E-02  0.1207787E+00
         21   -1    0    0  501  502  0.00000000000E+00  0.00000000000E+00  0.65999496817E+02  0.65999496817E+02  0.00000000000E+00 0. -1.
          4   -1    0    0  502    0 -0.00000000000E+00 -0.00000000000E+00 -0.20646820213E+03  0.20647210803E+03  0.12700000000E+01 0. -1.
         25    2    1    2    0    0 -0.22633002605E+02  0.68239728762E+02 -0.13938991569E+03  0.20055714124E+03  0.12499881967E+03 0.  0.
    9000005    1    3    3    0    0 -0.69590458449E+02  0.48978757713E+02 -0.11795910190E+03  0.14545480513E+03  0.10000000000E+01 0.  0.
    9000005    1    3    3    0    0  0.46957455844E+02  0.19260971049E+02 -0.21430813785E+02  0.55102336108E+02  0.10000000000E+01 0.  0.
          4    1    1    2  501    0  0.22633002605E+02 -0.68239728762E+02 -0.10787896311E+01  0.71914463604E+02  0.12700000000E+01 0.  1.
<mgrwt>
<rscale>  1 0.14419992E+03</rscale>
<asrwt>0</asrwt>
<pdfrwt beam="1">  1       21 0.10153769E-01 0.14419992E+03</pdfrwt>
<pdfrwt beam="2">  1        4 0.31765579E-01 0.14419992E+03</pdfrwt>
<totfact> 0.30773280E+04</totfact>
</mgrwt>
</event>
<event>
 6    4  0.6195789E-003  0.1540941E+03  0.7818608E-02  0.1195531E+00
         21   -1    0    0  501  502  0.00000000000E+00  0.00000000000E+00  0.28228220373E+02  0.28228220373E+02  0.00000000000E+00 0. -1.
          4   -1    0    0  502    0 -0.00000000000E+00 -0.00000000000E+00 -0.11668086583E+04  0.11668093495E+04  0.12700000000E+01 0.  1.
         25    2    1    2    0    0 -0.10826080930E+02  0.89452426668E+02 -0.10719409950E+04  0.10829600568E+04  0.12500418908E+03 0.  0.
    9000005    1    3    3    0    0 -0.54587087056E+02  0.42996022087E+02 -0.82433729784E+03  0.82726137865E+03  0.10000000000E+01 0.  0.
    9000005    1    3    3    0    0  0.43761006126E+02  0.46456404581E+02 -0.24760369715E+03  0.25569867819E+03  0.10000000000E+01 0.  0.
          4    1    1    2  501    0  0.10826080930E+02 -0.89452426668E+02 -0.66639442936E+02  0.11207751300E+03  0.12700000000E+01 0. -1.
<mgrwt>
<rscale>  1 0.15409409E+03</rscale>
<asrwt>0</asrwt>
<pdfrwt beam="1">  1       21 0.43428042E-02 0.15409409E+03</pdfrwt>
<pdfrwt beam="2">  1        4 0.17951123E+00 0.15409409E+03</pdfrwt>
<totfact> 0.28039972E+03</totfact>
</mgrwt>
</event>
<event>
 6    4  0.6195789E-003  0.1387598E+03  0.7818608E-02  0.1215007E+00
         -4   -1    0    0    0  501 -0.00000000000E+00  0.00000000000E+00  0.86424302793E+01  0.87352447667E+01  0.12700000000E+01 0.  1.
         21   -1    0    0  501  502  0.00000000000E+00 -0.00000000000E+00 -0.13022290674E+04  0.13022290674E+04  0.00000000000E+00 0. -1.
         25    2    1    2    0    0 -0.48879546676E+02 -0.35179943278E+02 -0.65463371429E+03  0.66917829721E+03  0.12500981996E+03 0.  0.
    9000005    1    3    3    0    0  0.17127846614E+02  0.36382853683E+02 -0.23324745636E+03  0.23669062312E+03  0.10000000000E+01 0.  0.
    9000005    1    3    3    0    0 -0.66007393290E+02 -0.71562796961E+02 -0.42138625792E+03  0.43248767410E+03  0.10000000000E+01 0.  0.
         -4    1    1    2    0  502  0.48879546676E+02  0.35179943278E+02 -0.63895292283E+03  0.64178601495E+03  0.12700000000E+01 0. -1.
<mgrwt>
<rscale>  1 0.13875984E+03</rscale>
<asrwt>0</asrwt>
<pdfrwt beam="2">  1       21 0.20034283E+00 0.13875984E+03</pdfrwt>
<pdfrwt beam="1">  1       -4 0.13367926E-02 0.13875984E+03</pdfrwt>
<totfact> 0.10606776E+04</totfact>
</mgrwt>
</event>
<event>
 6    4  0.6195789E-003  0.1287501E+03  0.7818608E-02  0.1229322E+00
         21   -1    0    0  501  502  0.00000000000E+00  0.00000000000E+00  0.42581032668E+01  0.42581032668E+01  0.00000000000E+00 0.  1.
         -4   -1    0    0    0  501 -0.00000000000E+00 -0.00000000000E+00 -0.19385943091E+04  0.19385947251E+04  0.12700000000E+01 0. -1.
         25    2    1    2    0    0 -0.13756533546E+02 -0.27582377030E+02 -0.18161160050E+04  0.18206740310E+04  0.12500621518E+03 0.  0.
    9000005    1    3    3    0    0  0.44262345641E+02  0.11921865721E+00 -0.30564021198E+03  0.30883022623E+03  0.10000000000E+01 0.  0.
    9000005    1    3    3    0    0 -0.58018879186E+02 -0.27701595687E+02 -0.15104757930E+04  0.15118438048E+04  0.10000000000E+01 0.  0.
         -4    1    1    2    0  502  0.13756533546E+02  0.27582377030E+02 -0.11822020079E+03  0.12217879731E+03  0.12700000000E+01 0.  1.
<mgrwt>
<rscale>  1 0.12875008E+03</rscale>
<asrwt>0</asrwt>
<pdfrwt beam="1">  1       21 0.65509302E-03 0.12875008E+03</pdfrwt>
<pdfrwt beam="2">  1       -4 0.29825978E+00 0.12875008E+03</pdfrwt>
<totfact> 0.11467512E+04</totfact>
</mgrwt>
</event>
<event>
 6    4  0.6195789E-003  0.1314249E+03  0.7818608E-02  0.1225357E+00
         21   -1    0    0  501  502  0.00000000000E+00  0.00000000000E+00  0.73435187671E+02  0.73435187671E+02  0.00000000000E+00 0. -1.
          4   -1    0    0  502    0 -0.00000000000E+00 -0.00000000000E+00 -0.10119867007E+03  0.10120663874E+03  0.12700000000E+01 0. -1.
         25    2    1    2    0    0  0.27903670540E+02 -0.29487486295E+02 -0.16257965533E+02  0.13242670476E+03  0.12499753602E+03 0.  0.
    9000005    1    3    3    0    0  0.21088009231E+02 -0.77541725731E+02  0.24488870666E+01  0.80401619452E+02  0.10000000000E+01 0.  0.
    9000005    1    3    3    0    0  0.68156613092E+01  0.48054239436E+02 -0.18706852599E+02  0.52025085305E+02  0.10000000000E+01 0.  0.
          4    1    1    2  501    0 -0.27903670540E+02  0.29487486295E+02 -0.11505516871E+02  0.42215121652E+02  0.12700000000E+01 0.  1.
<mgrwt>
<rscale>  1 0.13142492E+03</rscale>
<asrwt>0</asrwt>
<pdfrwt beam="1">  1       21 0.11297721E-01 0.13142492E+03</pdfrwt>
<pdfrwt beam="2">  1        4 0.15570484E-01 0.13142492E+03</pdfrwt>
<totfact> 0.92561933E+04</totfact>
</mgrwt>
</event>
<event>
 6    4  0.6195789E-003  0.1266579E+03  0.7818608E-02  0.1232501E+00
          4   -1    0    0  502    0 -0.00000000000E+00  0.00000000000E+00  0.74876837834E+03  0.74876945538E+03  0.12700000000E+01 0.  1.
         21   -1    0    0  501  502  0.00000000000E+00 -0.00000000000E+00 -0.16999949125E+02  0.16999949125E+02  0.00000000000E+00 0. -1.
         25    2    1    2    0    0 -0.13699233142E+02 -0.15171190919E+02  0.73429070783E+03  0.74513426912E+03  0.12499760558E+03 0.  0.
    9000005    1    3    3    0    0 -0.21623448403E+02 -0.64063439928E+02  0.27553986572E+03  0.28371625871E+03  0.10000000000E+01 0.  0.
    9000005    1    3    3    0    0  0.79242152607E+01  0.48892249009E+02  0.45875084210E+03  0.46141801041E+03  0.10000000000E+01 0.  0.
          4    1    1    2  501    0  0.13699233142E+02  0.15171190919E+02 -0.25222786095E+01  0.20635135376E+02  0.12700000000E+01 0. -1.
<mgrwt>
<rscale>  1 0.12665795E+03</rscale>
<asrwt>0</asrwt>
<pdfrwt beam="2">  1       21 0.26153774E-02 0.12665795E+03</pdfrwt>
<pdfrwt beam="1">  1        4 0.11519884E+00 0.12665795E+03</pdfrwt>
<totfact> 0.19599049E+04</totfact>
</mgrwt>
</event>
<event>
 6    4  0.6195789E-003  0.1367304E+03  0.7818608E-02  0.1217797E+00
         21   -1    0    0  501  502  0.00000000000E+00  0.00000000000E+00  0.63905221855E+02  0.63905221855E+02  0.00000000000E+00 0. -1.
         -4   -1    0    0    0  501 -0.00000000000E+00 -0.00000000000E+00 -0.44471804996E+03  0.44471986336E+03  0.12700000000E+01 0.  1.
         25    2    1    2    0    0 -0.54966081556E+02 -0.69545144072E+01 -0.41938051797E+03  0.44110682847E+03  0.12500231949E+03 0.  0.
    9000005    1    3    3    0    0 -0.23132426439E+02 -0.30070600147E+02 -0.26566342597E+02  0.46326242078E+02  0.10000000000E+01 0.  0.
    9000005    1    3    3    0    0 -0.31833655117E+02  0.23116085740E+02 -0.39281417537E+03  0.39478058639E+03  0.10000000000E+01 0.  0.
         -4    1    1    2    0  502  0.54966081556E+02  0.69545144072E+01  0.38567689860E+02  0.67518256741E+02  0.12700000000E+01 0. -1.
<mgrwt>
<rscale>  1 0.13673045E+03</rscale>
<asrwt>0</asrwt>
<pdfrwt beam="1">  1       21 0.98315730E-02 0.13673045E+03</pdfrwt>
<pdfrwt beam="2">  1       -4 0.68419269E-01 0.13673045E+03</pdfrwt>
<totfact> 0.68786643E+03</totfact>
</mgrwt>
</event>
<event>
 6    4  0.6195789E-003  0.1266712E+03  0.7818608E-02  0.1232480E+00
         21   -1    0    0  501  502  0.00000000000E+00  0.00000000000E+00  0.44509926435E+01  0.44509926435E+01  0.00000000000E+00 0. -1.
         -4   -1    0    0    0  501 -0.00000000000E+00 -0.00000000000E+00 -0.14233279297E+04  0.14233284963E+04  0.12700000000E+01 0. -1.
         25    2    1    2    0    0  0.16562875135E+02 -0.12069171255E+02 -0.13493863669E+04  0.13553188377E+04  0.12500236439E+03 0.  0.
    9000005    1    3    3    0    0  0.43535707038E+01 -0.68153244389E+02 -0.81546405451E+03  0.81831927907E+03  0.10000000000E+01 0.  0.
    9000005    1    3    3    0    0  0.12209304431E+02  0.56084073135E+02 -0.53392231236E+03  0.53699955867E+03  0.10000000000E+01 0.  0.
         -4    1    1    2    0  502 -0.16562875135E+02  0.12069171255E+02 -0.69490570178E+02  0.72460651192E+02  0.12700000000E+01 0.  1.
<mgrwt>
<rscale>  1 0.12667117E+03</rscale>
<asrwt>0</asrwt>
<pdfrwt beam="1">  1       21 0.68476863E-03 0.12667117E+03</pdfrwt>
<pdfrwt beam="2">  1       -4 0.21898734E+00 0.12667117E+03</pdfrwt>
<totfact> 0.30676611E+04</totfact>
</mgrwt>
</event>
<event>
 6    4  0.6195789E-003  0.1270605E+03  0.7818608E-02  0.1231884E+00
         21   -1    0    0  501  502  0.00000000000E+00  0.00000000000E+00  0.54456005227E+03  0.54456005227E+03  0.00000000000E+00 0.  1.
         -4   -1    0    0    0  501 -0.00000000000E+00 -0.00000000000E+00 -0.36983410074E+02  0.37005209372E+02  0.12700000000E+01 0. -1.
         25    2    1    2    0    0  0.22788769952E+02  0.11770441993E+01  0.73299919340E+02  0.14668757955E+03  0.12499461728E+03 0.  0.
    9000005    1    3    3    0    0  0.54619290259E+02 -0.89910541173E+00  0.93945706592E+02  0.10867783144E+03  0.10000000000E+01 0.  0.
    9000005    1    3    3    0    0 -0.31830520307E+02  0.20761496110E+01 -0.20645787251E+02  0.38009748111E+02  0.10000000000E+01 0.  0.
         -4    1    1    2    0  502 -0.22788769952E+02 -0.11770441993E+01  0.43427672286E+03  0.43487768210E+03  0.12700000000E+01 0.  1.
<mgrwt>
<rscale>  1 0.12706049E+03</rscale>
<asrwt>0</asrwt>
<pdfrwt beam="1">  1       21 0.83778464E-01 0.12706049E+03</pdfrwt>
<pdfrwt beam="2">  1       -4 0.56915466E-02 0.12706049E+03</pdfrwt>
<totfact> 0.98613626E+03</totfact>
</mgrwt>
</event>
<event>
 6    4  0.6195789E-003  0.1274098E+03  0.7818608E-02  0.1231350E+00
         -4   -1    0    0    0  501 -0.00000000000E+00  0.00000000000E+00  0.26378467369E+03  0.26378773090E+03  0.12700000000E+01 0.  1.
         21   -1    0    0  501  502  0.00000000000E+00 -0.00000000000E+00 -0.25131658123E+02  0.25131658123E+02  0.00000000000E+00 0. -1.
         25    2    1    2    0    0 -0.19813111856E+02 -0.14640237452E+02  0.22971366738E+03  0.26268161473E+03  0.12500546300E+03 0.  0.
    9000005    1    3    3    0    0 -0.59094099507E+02  0.20787412541E+02  0.67669625530E+02  0.92219343611E+02  0.10000000000E+01 0.  0.
    9000005    1    3    3    0    0  0.39280987651E+02 -0.35427649994E+02  0.16204404185E+03  0.17046227111E+03  0.10000000000E+01 0.  0.
         -4    1    1    2    0  502  0.19813111856E+02  0.14640237452E+02  0.89393481885E+01  0.26237774298E+02  0.12700000000E+01 0. -1.
<mgrwt>
<rscale>  1 0.12740982E+03</rscale>
<asrwt>0</asrwt>
<pdfrwt beam="2">  1       21 0.38664091E-02 0.12740982E+03</pdfrwt>
<pdfrwt beam="1">  1       -4 0.40584959E-01 0.12740982E+03</pdfrwt>
<totfact> 0.97621603E+04</totfact>
</mgrwt>
</event>
<event>
 6    4  0.6195789E-003  0.1288546E+03  0.7818608E-02  0.1229165E+00
         -4   -1    0    0    0  501 -0.00000000000E+00  0.00000000000E+00  0.87003010704E+02  0.87012279430E+02  0.12700000000E+01 0. -1.
         21   -1    0    0  501  502  0.00000000000E+00 -0.00000000000E+00 -0.25449901575E+03  0.25449901575E+03  0.00000000000E+00 0.  1.
         25    2    1    2    0    0 -0.29805577739E+02 -0.95909489008E+01  0.37447576789E+02  0.13418584233E+03  0.12499264182E+03 0.  0.
    9000005    1    3    3    0    0 -0.48993558407E+01  0.27583109153E+02 -0.37543044314E+02  0.46854154293E+02  0.10000000000E+01 0.  0.
    9000005    1    3    3    0    0 -0.24906221899E+02 -0.37174058054E+02  0.74990621103E+02  0.87331688034E+02  0.10000000000E+01 0.  0.
         -4    1    1    2    0  502  0.29805577739E+02  0.95909489008E+01 -0.20494358183E+03  0.20732545285E+03  0.12700000000E+01 0.  1.
<mgrwt>
<rscale>  1 0.12885464E+03</rscale>
<asrwt>0</asrwt>
<pdfrwt beam="2">  1       21 0.39153695E-01 0.12885464E+03</pdfrwt>
<pdfrwt beam="1">  1       -4 0.13386035E-01 0.12885464E+03</pdfrwt>
<totfact> 0.11829243E+04</totfact>
</mgrwt>
</event>
<event>
 6    4  0.6195789E-003  0.1346088E+03  0.7818608E-02  0.1220773E+00
         21   -1    0    0  501  502  0.00000000000E+00  0.00000000000E+00  0.10488478533E+03  0.10488478533E+03  0.00000000000E+00 0. -1.
         -4   -1    0    0    0  501 -0.00000000000E+00 -0.00000000000E+00 -0.37768798320E+03  0.37769011843E+03  0.12700000000E+01 0.  1.
         25    2    1    2    0    0 -0.37781503783E+02 -0.32660111018E+02 -0.35874515549E+03  0.38316787253E+03  0.12500162827E+03 0.  0.
    9000005    1    3    3    0    0 -0.79795750611E+02 -0.43422733053E+02 -0.22906919545E+03  0.24642766052E+03  0.10000000000E+01 0.  0.
    9000005    1    3    3    0    0  0.42014246828E+02  0.10762622034E+02 -0.12967596003E+03  0.13674021201E+03  0.10000000000E+01 0.  0.
         -4    1    1    2    0  502  0.37781503783E+02  0.32660111018E+02  0.85941957611E+02  0.99407031229E+02  0.12700000000E+01 0. -1.
<mgrwt>
<rscale>  1 0.13460881E+03</rscale>
<asrwt>0</asrwt>
<pdfrwt beam="1">  1       21 0.16136121E-01 0.13460881E+03</pdfrwt>
<pdfrwt beam="2">  1       -4 0.58106599E-01 0.13460881E+03</pdfrwt>
<totfact> 0.40183119E+03</totfact>
</mgrwt>
</event>
<event>
 6    4  0.6195789E-003  0.1309487E+03  0.7818608E-02  0.1226055E+00
         -4   -1    0    0    0  501 -0.00000000000E+00  0.00000000000E+00  0.10371778477E+04  0.10371786253E+04  0.12700000000E+01 0.  1.
         21   -1    0    0  501  502  0.00000000000E+00 -0.00000000000E+00 -0.15351810198E+02  0.15351810198E+02  0.00000000000E+00 0.  1.
         25    2    1    2    0    0 -0.35512261774E+02  0.16159691208E+02  0.99851130230E+03  0.10070612576E+04  0.12500119759E+03 0.  0.
    9000005    1    3    3    0    0  0.28075446626E+02 -0.29223233919E+02  0.57334102865E+03  0.57477227076E+03  0.10000000000E+01 0.  0.
    9000005    1    3    3    0    0 -0.63587708400E+02  0.45382925128E+02  0.42517027365E+03  0.43228898685E+03  0.10000000000E+01 0.  0.
         -4    1    1    2    0  502  0.35512261774E+02 -0.16159691208E+02  0.23314735227E+02  0.45469177857E+02  0.12700000000E+01 0. -1.
<mgrwt>
<rscale>  1 0.13094868E+03</rscale>
<asrwt>0</asrwt>
<pdfrwt beam="2">  1       21 0.23618178E-02 0.13094868E+03</pdfrwt>
<pdfrwt beam="1">  1       -4 0.15956987E+00 0.13094868E+03</pdfrwt>
<totfact> 0.10358813E+04</totfact>
</mgrwt>
</event>
<event>
 6    4  0.6195789E-003  0.1278718E+03  0.7818608E-02  0.1230648E+00
          4   -1    0    0  502    0 -0.00000000000E+00  0.00000000000E+00  0.19043297607E+02  0.19085598857E+02  0.12700000000E+01 0. -1.
         21   -1    0    0  501  502  0.00000000000E+00 -0.00000000000E+00 -0.31873883080E+03  0.31873883080E+03  0.00000000000E+00 0. -1.
         25    2    1    2    0    0  0.18968436012E+02 -0.19160829979E+02 -0.23125788441E+03  0.26425634118E+03  0.12499706311E+03 0.  0.
    9000005    1    3    3    0    0 -0.36811125992E+02 -0.36262103093E+02 -0.43216437463E+02  0.67369574620E+02  0.10000000000E+01 0.  0.
    9000005    1    3    3    0    0  0.55779562004E+02  0.17101273113E+02 -0.18804144694E+03  0.19688676656E+03  0.10000000000E+01 0.  0.
          4    1    1    2  501    0 -0.18968436012E+02  0.19160829979E+02 -0.68437648791E+02  0.73568088478E+02  0.12700000000E+01 0.  1.
<mgrwt>
<rscale>  1 0.12787183E+03</rscale>
<asrwt>0</asrwt>
<pdfrwt beam="2">  1       21 0.49036745E-01 0.12787183E+03</pdfrwt>
<pdfrwt beam="1">  1        4 0.29331865E-02 0.12787183E+03</pdfrwt>
<totfact> 0.89434344E+04</totfact>
</mgrwt>
</event>
<event>
 6    4  0.6195789E-003  0.1278113E+03  0.7818608E-02  0.1230740E+00
         21   -1    0    0  501  502  0.00000000000E+00  0.00000000000E+00  0.21133586213E+01  0.21133586213E+01  0.00000000000E+00 0. -1.
         -4   -1    0    0    0  501 -0.00000000000E+00 -0.00000000000E+00 -0.34243004109E+04  0.34243006464E+04  0.12700000000E+01 0. -1.
         25    2    1    2    0    0  0.12584077692E+02 -0.23490068386E+02 -0.32118124286E+04  0.32143544909E+04  0.12500229859E+03 0.  0.
    9000005    1    3    3    0    0 -0.50140993344E+02 -0.14096301448E+02 -0.21619353538E+04  0.21625629006E+04  0.10000000000E+01 0.  0.
    9000005    1    3    3    0    0  0.62725071035E+02 -0.93937669378E+01 -0.10498770748E+04  0.10517915903E+04  0.10000000000E+01 0.  0.
         -4    1    1    2    0  502 -0.12584077692E+02  0.23490068386E+02 -0.21037462375E+03  0.21205951416E+03  0.12700000000E+01 0.  1.
<mgrwt>
<rscale>  1 0.12781126E+03</rscale>
<asrwt>0</asrwt>
<pdfrwt beam="1">  1       21 0.32513490E-03 0.12781126E+03</pdfrwt>
<pdfrwt beam="2">  1       -4 0.52684028E+00 0.12781126E+03</pdfrwt>
<totfact> 0.95923847E+02</totfact>
</mgrwt>
</event>
<event>
 6    4  0.6195789E-003  0.1329890E+03  0.7818608E-02  0.1223087E+00
         21   -1    0    0  501  502  0.00000000000E+00  0.00000000000E+00  0.33109529703E+03  0.33109529703E+03  0.00000000000E+00 0. -1.
         -4   -1    0    0    0  501 -0.00000000000E+00 -0.00000000000E+00 -0.76983272615E+02  0.76993747555E+02  0.12700000000E+01 0.  1.
         25    2    1    2    0    0 -0.82438207110E+01  0.44648100115E+02 -0.16213998971E+02  0.13397376730E+03  0.12499865254E+03 0.  0.
    9000005    1    3    3    0    0 -0.87632559928E+01  0.88528032724E+02 -0.13619397713E+02  0.90002751223E+02  0.10000000000E+01 0.  0.
    9000005    1    3    3    0    0  0.51943528178E+00 -0.43879932609E+02 -0.25946012584E+01  0.43971016073E+02  0.10000000000E+01 0.  0.
         -4    1    1    2    0  502  0.82438207110E+01 -0.44648100115E+02  0.27032602338E+03  0.27411527728E+03  0.12700000000E+01 0. -1.
<mgrwt>
<rscale>  1 0.13298901E+03</rscale>
<asrwt>0</asrwt>
<pdfrwt beam="1">  1       21 0.50937737E-01 0.13298901E+03</pdfrwt>
<pdfrwt beam="2">  1       -4 0.11844574E-01 0.13298901E+03</pdfrwt>
<totfact> 0.85730912E+03</totfact>
</mgrwt>
</event>
<event>
 6    4  0.6195789E-003  0.1267573E+03  0.7818608E-02  0.1232348E+00
         21   -1    0    0  501  502  0.00000000000E+00  0.00000000000E+00  0.37835337268E+02  0.37835337268E+02  0.00000000000E+00 0.  1.
          4   -1    0    0  502    0 -0.00000000000E+00 -0.00000000000E+00 -0.14878025179E+03  0.14878567211E+03  0.12700000000E+01 0.  1.
         25    2    1    2    0    0  0.14666311827E+02  0.15120265307E+02 -0.10526535505E+03  0.16476709848E+03  0.12499471445E+03 0.  0.
    9000005    1    3    3    0    0  0.43762963222E+02  0.23808717401E+01 -0.12143860865E+03  0.12910926059E+03  0.10000000000E+01 0.  0.
    9000005    1    3    3    0    0 -0.29096651395E+02  0.12739393567E+02  0.16173253597E+02  0.35657837887E+02  0.10000000000E+01 0.  0.
          4    1    1    2  501    0 -0.14666311827E+02 -0.15120265307E+02 -0.56795594731E+01  0.21853910894E+02  0.12700000000E+01 0. -1.
<mgrwt>
<rscale>  1 0.12675726E+03</rscale>
<asrwt>0</asrwt>
<pdfrwt beam="1">  1       21 0.58208211E-02 0.12675726E+03</pdfrwt>
<pdfrwt beam="2">  1        4 0.22891326E-01 0.12675726E+03</pdfrwt>
<totfact> 0.14535607E+05</totfact>
</mgrwt>
</event>
<event>
 6    4  0.6195789E-003  0.1516129E+03  0.7818608E-02  0.1198505E+00
         -4   -1    0    0    0  501 -0.00000000000E+00  0.00000000000E+00  0.60034748475E+02  0.60048180026E+02  0.12700000000E+01 0. -1.
         21   -1    0    0  501  502  0.00000000000E+00 -0.00000000000E+00 -0.24395970965E+03  0.24395970965E+03  0.00000000000E+00 0. -1.
         25    2    1    2    0    0 -0.84732209304E+02  0.13475044301E+02 -0.87982371821E+02  0.17529224391E+03  0.12500139564E+03 0.  0.
    9000005    1    3    3    0    0 -0.83499897881E+02  0.24245476702E+02 -0.11615071561E+03  0.14509329696E+03  0.10000000000E+01 0.  0.
    9000005    1    3    3    0    0 -0.12323114231E+01 -0.10770432401E+02  0.28168343785E+02  0.30198946954E+02  0.10000000000E+01 0.  0.
         -4    1    1    2    0  502  0.84732209304E+02 -0.13475044301E+02 -0.95942589358E+02  0.12871564577E+03  0.12700000000E+01 0.  1.
<mgrwt>
<rscale>  1 0.15161291E+03</rscale>
<asrwt>0</asrwt>
<pdfrwt beam="2">  1       21 0.37532264E-01 0.15161291E+03</pdfrwt>
<pdfrwt beam="1">  1       -4 0.92374025E-02 0.15161291E+03</pdfrwt>
<totfact> 0.24524653E+04</totfact>
</mgrwt>
</event>
<event>
 6    4  0.6195789E-003  0.1281211E+03  0.7818608E-02  0.1230271E+00
         -4   -1    0    0    0  501 -0.00000000000E+00  0.00000000000E+00  0.26861844362E+02  0.26891849742E+02  0.12700000000E+01 0.  1.
         21   -1    0    0  501  502  0.00000000000E+00 -0.00000000000E+00 -0.40124719155E+03  0.40124719155E+03  0.00000000000E+00 0. -1.
         25    2    1    2    0    0  0.10824589244E+02  0.25952463622E+02 -0.13138217395E+03  0.18351104371E+03  0.12499730169E+03 0.  0.
    9000005    1    3    3    0    0  0.40371982185E+02  0.60660278369E+01 -0.14084475578E+03  0.14664562342E+03  0.10000000000E+01 0.  0.
    9000005    1    3    3    0    0 -0.29547392941E+02  0.19886435785E+02  0.94625818241E+01  0.36865420283E+02  0.10000000000E+01 0.  0.
         -4    1    1    2    0  502 -0.10824589244E+02 -0.25952463622E+02 -0.24300317323E+03  0.24462799758E+03  0.12700000000E+01 0. -1.
<mgrwt>
<rscale>  1 0.12812114E+03</rscale>
<asrwt>0</asrwt>
<pdfrwt beam="2">  1       21 0.61730335E-01 0.12812114E+03</pdfrwt>
<pdfrwt beam="1">  1       -4 0.41350543E-02 0.12812114E+03</pdfrwt>
<totfact> 0.32157185E+04</totfact>
</mgrwt>
</event>
<event>
 6    4  0.6195789E-003  0.1553233E+03  0.7818608E-02  0.1194080E+00
         -4   -1    0    0    0  501 -0.00000000000E+00  0.00000000000E+00  0.59819830699E+03  0.59819965512E+03  0.12700000000E+01 0.  1.
         21   -1    0    0  501  502  0.00000000000E+00 -0.00000000000E+00 -0.63353474944E+02  0.63353474944E+02  0.00000000000E+00 0. -1.
         25    2    1    2    0    0  0.92191188530E+02 -0.96412938754E+00  0.54693175306E+03  0.56855930582E+03  0.12500078774E+03 0.  0.
    9000005    1    3    3    0    0  0.40960086122E+02  0.32673193547E+02  0.68650852548E+02  0.86366693737E+02  0.10000000000E+01 0.  0.
    9000005    1    3    3    0    0  0.51231102408E+02 -0.33637322934E+02  0.47828090052E+03  0.48219261208E+03  0.10000000000E+01 0.  0.
         -4    1    1    2    0  502 -0.92191188530E+02  0.96412938754E+00 -0.12086921018E+02  0.92993824245E+02  0.12700000000E+01 0. -1.
<mgrwt>
<rscale>  1 0.15532335E+03</rscale>
<asrwt>0</asrwt>
<pdfrwt beam="2">  1       21 0.97466888E-02 0.15532335E+03</pdfrwt>
<pdfrwt beam="1">  1       -4 0.92031588E-01 0.15532335E+03</pdfrwt>
<totfact> 0.36578699E+03</totfact>
</mgrwt>
</event>
<event>
 6    4  0.6195789E-003  0.1269363E+03  0.7818608E-02  0.1232074E+00
         21   -1    0    0  501  502  0.00000000000E+00  0.00000000000E+00  0.28255145817E+02  0.28255145817E+02  0.00000000000E+00 0.  1.
         -4   -1    0    0    0  501 -0.00000000000E+00 -0.00000000000E+00 -0.21505694628E+03  0.21506069619E+03  0.12700000000E+01 0.  1.
         25    2    1    2    0    0 -0.21591531712E+02 -0.45076079637E+01 -0.12698589830E+03  0.17955011592E+03  0.12500525184E+03 0.  0.
    9000005    1    3    3    0    0 -0.37206397944E+02  0.42997573754E+02 -0.18023526808E+02  0.59656977089E+02  0.10000000000E+01 0.  0.
    9000005    1    3    3    0    0  0.15614866232E+02 -0.47505181718E+02 -0.10896237150E+03  0.11989313884E+03  0.10000000000E+01 0.  0.
         -4    1    1    2    0  502  0.21591531712E+02  0.45076079637E+01 -0.59815902159E+02  0.63765726079E+02  0.12700000000E+01 0. -1.
<mgrwt>
<rscale>  1 0.12693631E+03</rscale>
<asrwt>0</asrwt>
<pdfrwt beam="1">  1       21 0.43469454E-02 0.12693631E+03</pdfrwt>
<pdfrwt beam="2">  1       -4 0.33088168E-01 0.12693631E+03</pdfrwt>
<totfact> 0.11934541E+05</totfact>
</mgrwt>
</event>
<event>
 6    4  0.6195789E-003  0.1278453E+03  0.7818608E-02  0.1230688E+00
         21   -1    0    0  501  502  0.00000000000E+00  0.00000000000E+00  0.16154039893E+03  0.16154039893E+03  0.00000000000E+00 0.  1.
         -4   -1    0    0    0  501 -0.00000000000E+00 -0.00000000000E+00 -0.41511625245E+02  0.41531047790E+02  0.12700000000E+01 0.  1.
         25    2    1    2    0    0  0.24036605548E+02 -0.11939777906E+02  0.68698328542E+02  0.14513403047E+03  0.12499643897E+03 0.  0.
    9000005    1    3    3    0    0  0.63289953817E+01 -0.54075200084E+02 -0.87966547253E+01  0.55159446888E+02  0.10000000000E+01 0.  0.
    9000005    1    3    3    0    0  0.17707610166E+02  0.42135422178E+02  0.77494983268E+02  0.89974583586E+02  0.10000000000E+01 0.  0.
         -4    1    1    2    0  502 -0.24036605548E+02  0.11939777906E+02  0.51330445143E+02  0.57937416246E+02  0.12700000000E+01 0. -1.
<mgrwt>
<rscale>  1 0.12784532E+03</rscale>
<asrwt>0</asrwt>
<pdfrwt beam="1">  1       21 0.24852369E-01 0.12784532E+03</pdfrwt>
<pdfrwt beam="2">  1       -4 0.63882820E-02 0.12784532E+03</pdfrwt>
<totfact> 0.98417993E+04</totfact>
</mgrwt>
</event>
<event>
 6    4  0.6195789E-003  0.1270344E+03  0.7818608E-02  0.1231924E+00
          4   -1    0    0  502    0 -0.00000000000E+00  0.00000000000E+00  0.87708590376E+02  0.87717784547E+02  0.12700000000E+01 0.  1.
         21   -1    0    0  501  502  0.00000000000E+00 -0.00000000000E+00 -0.68485476501E+02  0.68485476501E+02  0.00000000000E+00 0.  1.
         25    2    1    2    0    0 -0.65701921389E+01  0.21676739809E+02  0.30827594975E+02  0.13072139779E+03  0.12499877901E+03 0.  0.
    9000005    1    3    3    0    0 -0.46428654361E+02  0.67470811085E+01 -0.30570683744E+02  0.56006336729E+02  0.10000000000E+01 0.  0.
    9000005    1    3    3    0    0  0.39858462222E+02  0.14929658700E+02  0.61398278719E+02  0.74715061061E+02  0.10000000000E+01 0.  0.
          4    1    1    2  501    0  0.65701921389E+01 -0.21676739809E+02 -0.11604481100E+02  0.25481863258E+02  0.12700000000E+01 0. -1.
<mgrwt>
<rscale>  1 0.12703442E+03</rscale>
<asrwt>0</asrwt>
<pdfrwt beam="2">  1       21 0.10536227E-01 0.12703442E+03</pdfrwt>
<pdfrwt beam="1">  1        4 0.13495242E-01 0.12703442E+03</pdfrwt>
<totfact> 0.13354749E+05</totfact>
</mgrwt>
</event>
<event>
 6    4  0.6195789E-003  0.1265983E+03  0.7818608E-02  0.1232592E+00
         -4   -1    0    0    0  501 -0.00000000000E+00  0.00000000000E+00  0.70589681967E+02  0.70601105517E+02  0.12700000000E+01 0.  1.
         21   -1    0    0  501  502  0.00000000000E+00 -0.00000000000E+00 -0.76623349247E+02  0.76623349247E+02  0.00000000000E+00 0.  1.
         25    2    1    2    0    0  0.19968831989E+02  0.29189088484E+01 -0.83381137049E+01  0.12687260833E+03  0.12497943961E+03 0.  0.
    9000005    1    3    3    0    0 -0.14840625565E+02 -0.93649541217E+01  0.52688788228E+02  0.55543270860E+02  0.10000000000E+01 0.  0.
    9000005    1    3    3    0    0  0.34809457554E+02  0.12283862970E+02 -0.61026901933E+02  0.71329337472E+02  0.10000000000E+01 0.  0.
         -4    1    1    2    0  502 -0.19968831989E+02 -0.29189088484E+01  0.23044464252E+01  0.20351846432E+02  0.12700000000E+01 0. -1.
<mgrwt>
<rscale>  1 0.12659832E+03</rscale>
<asrwt>0</asrwt>
<pdfrwt beam="2">  1       21 0.11788208E-01 0.12659832E+03</pdfrwt>
<pdfrwt beam="1">  1       -4 0.10861639E-01 0.12659832E+03</pdfrwt>
<totfact> 0.15874420E+05</totfact>
</mgrwt>
</event>
<event>
 6    4  0.6195789E-003  0.1275744E+03  0.7818608E-02  0.1231100E+00
         21   -1    0    0  501  502  0.00000000000E+00  0.00000000000E+00  0.14245424495E+03  0.14245424495E+03  0.00000000000E+00 0. -1.
         -4   -1    0    0    0  501 -0.00000000000E+00 -0.00000000000E+00 -0.85089741432E+02  0.85099218545E+02  0.12700000000E+01 0.  1.
         25    2    1    2    0    0 -0.58502401558E+01 -0.25034970126E+02 -0.34494921989E+02  0.13215565433E+03  0.12495696175E+03 0.  0.
    9000005    1    3    3    0    0 -0.55915742095E+02 -0.44775597627E+02 -0.77726870600E+01  0.72061355947E+02  0.10000000000E+01 0.  0.
    9000005    1    3    3    0    0  0.50065501939E+02  0.19740627501E+02 -0.26722234929E+02  0.60094298383E+02  0.10000000000E+01 0.  0.
         -4    1    1    2    0  502  0.58502401558E+01  0.25034970126E+02  0.91859425507E+02  0.95397809165E+02  0.12700000000E+01 0. -1.
<mgrwt>
<rscale>  1 0.12757436E+03</rscale>
<asrwt>0</asrwt>
<pdfrwt beam="1">  1       21 0.21916038E-01 0.12757436E+03</pdfrwt>
<pdfrwt beam="2">  1       -4 0.13091894E-01 0.12757436E+03</pdfrwt>
<totfact> 0.37516322E+04</totfact>
</mgrwt>
</event>
<event>
 6    4  0.6195789E-003  0.1354044E+03  0.7818608E-02  0.1219650E+00
          4   -1    0    0  502    0 -0.00000000000E+00  0.00000000000E+00  0.99014588387E+02  0.99022732811E+02  0.12700000000E+01 0. -1.
         21   -1    0    0  501  502  0.00000000000E+00 -0.00000000000E+00 -0.11418917385E+03  0.11418917385E+03  0.00000000000E+00 0.  1.
         25    2    1    2    0    0 -0.50021063983E+02 -0.14404204427E+02  0.36100556648E+02  0.14013426955E+03  0.12499910146E+03 0.  0.
    9000005    1    3    3    0    0  0.35786547547E+02 -0.14733088601E+02  0.38072086455E+02  0.54297556594E+02  0.10000000000E+01 0.  0.
    9000005    1    3    3    0    0 -0.85807611530E+02  0.32888417424E+00 -0.19715298067E+01  0.85836712956E+02  0.10000000000E+01 0.  0.
          4    1    1    2  501    0  0.50021063983E+02  0.14404204427E+02 -0.51275142112E+02  0.73077637111E+02  0.12700000000E+01 0.  1.
<mgrwt>
<rscale>  1 0.13540444E+03</rscale>
<asrwt>0</asrwt>
<pdfrwt beam="2">  1       21 0.17567565E-01 0.13540444E+03</pdfrwt>
<pdfrwt beam="1">  1        4 0.15234183E-01 0.13540444E+03</pdfrwt>
<totfact> 0.43687467E+04</totfact>
</mgrwt>
</event>
<event>
 6    4  0.6195789E-003  0.1275659E+03  0.7818608E-02  0.1231113E+00
         21   -1    0    0  501  502  0.00000000000E+00  0.00000000000E+00  0.39051498083E+03  0.39051498083E+03  0.00000000000E+00 0.  1.
          4   -1    0    0  502    0 -0.00000000000E+00 -0.00000000000E+00 -0.18931374591E+02  0.18973925369E+02  0.12700000000E+01 0. -1.
         25    2    1    2    0    0 -0.10662643672E+02 -0.23129064311E+02  0.20853582442E+03  0.24445909785E+03  0.12499765946E+03 0.  0.
    9000005    1    3    3    0    0  0.17620391520E+02 -0.23288212618E+02  0.21370186889E+03  0.21569030533E+03  0.10000000000E+01 0.  0.
    9000005    1    3    3    0    0 -0.28283035191E+02  0.15914830721E+00 -0.51660444750E+01  0.28768792525E+02  0.10000000000E+01 0.  0.
          4    1    1    2  501    0  0.10662643672E+02  0.23129064311E+02  0.16304778182E+03  0.16502980834E+03  0.12700000000E+01 0.  1.
<mgrwt>
<rscale>  1 0.12756591E+03</rscale>
<asrwt>0</asrwt>
<pdfrwt beam="1">  1       21 0.60079222E-01 0.12756591E+03</pdfrwt>
<pdfrwt beam="2">  1        4 0.29159514E-02 0.12756591E+03</pdfrwt>
<totfact> 0.59038234E+04</totfact>
</mgrwt>
</event>
<event>
 6    4  0.6195789E-003  0.1312310E+03  0.7818608E-02  0.1225641E+00
         21   -1    0    0  501  502  0.00000000000E+00  0.00000000000E+00  0.20915410540E+02  0.20915410540E+02  0.00000000000E+00 0. -1.
         -4   -1    0    0    0  501 -0.00000000000E+00 -0.00000000000E+00 -0.50247985295E+03  0.50248145788E+03  0.12700000000E+01 0. -1.
         25    2    1    2    0    0 -0.24998747435E+02 -0.31172391450E+02 -0.45920939364E+03  0.47759275871E+03  0.12499968238E+03 0.  0.
    9000005    1    3    3    0    0 -0.28916557225E+01 -0.69536259432E+02 -0.38444452537E+03  0.39069456886E+03  0.10000000000E+01 0.  0.
    9000005    1    3    3    0    0 -0.22107091713E+02  0.38363867983E+02 -0.74764868276E+02  0.86898189848E+02  0.10000000000E+01 0.  0.
         -4    1    1    2    0  502  0.24998747435E+02  0.31172391450E+02 -0.22355048761E+02  0.45804109719E+02  0.12700000000E+01 0.  1.
<mgrwt>
<rscale>  1 0.13123100E+03</rscale>
<asrwt>0</asrwt>
<pdfrwt beam="1">  1       21 0.32177558E-02 0.13123100E+03</pdfrwt>
<pdfrwt beam="2">  1       -4 0.77307674E-01 0.13123100E+03</pdfrwt>
<totfact> 0.34831229E+04</totfact>
</mgrwt>
</event>
<event>
 6    4  0.6195789E-003  0.1279285E+03  0.7818608E-02  0.1230562E+00
         21   -1    0    0  501  502  0.00000000000E+00  0.00000000000E+00  0.24295078616E+03  0.24295078616E+03  0.00000000000E+00 0. -1.
         -4   -1    0    0    0  501 -0.00000000000E+00 -0.00000000000E+00 -0.30043022710E+02  0.30069853900E+02  0.12700000000E+01 0. -1.
         25    2    1    2    0    0  0.75654990282E+01  0.26146950233E+02  0.20962082008E+03  0.24557402499E+03  0.12499925502E+03 0.  0.
    9000005    1    3    3    0    0  0.31323828655E+02 -0.40249478747E+02  0.12749575857E+03  0.13732214401E+03  0.10000000000E+01 0.  0.
    9000005    1    3    3    0    0 -0.23758329627E+02  0.66396428980E+02  0.82125061512E+02  0.10825188098E+03  0.10000000000E+01 0.  0.
         -4    1    1    2    0  502 -0.75654990282E+01 -0.26146950233E+02  0.32869433662E+01  0.27446615069E+02  0.12700000000E+01 0.  1.
<mgrwt>
<rscale>  1 0.12792855E+03</rscale>
<asrwt>0</asrwt>
<pdfrwt beam="1">  1       21 0.37377043E-01 0.12792855E+03</pdfrwt>
<pdfrwt beam="2">  1       -4 0.46243229E-02 0.12792855E+03</pdfrwt>
<totfact> 0.75343480E+04</totfact>
</mgrwt>
</event>
<event>
 6    4  0.6195789E-003  0.1267913E+03  0.7818608E-02  0.1232296E+00
         -4   -1    0    0    0  501 -0.00000000000E+00  0.00000000000E+00  0.47995894791E+03  0.47996062815E+03  0.12700000000E+01 0.  1.
         21   -1    0    0  501  502  0.00000000000E+00 -0.00000000000E+00 -0.64007284664E+02  0.64007284664E+02  0.00000000000E+00 0. -1.
         25    2    1    2    0    0  0.55501851280E+01 -0.20497502238E+02  0.46951553448E+03  0.48633412624E+03  0.12500037229E+03 0.  0.
    9000005    1    3    3    0    0  0.25581571553E+02  0.32429562803E+02  0.36626271654E+03  0.36858577139E+03  0.10000000000E+01 0.  0.
    9000005    1    3    3    0    0 -0.20031386425E+02 -0.52927065041E+02  0.10325281794E+03  0.11774835485E+03  0.10000000000E+01 0.  0.
         -4    1    1    2    0  502 -0.55501851280E+01  0.20497502238E+02 -0.53563871239E+02  0.57633786576E+02  0.12700000000E+01 0. -1.
<mgrwt>
<rscale>  1 0.12679135E+03</rscale>
<asrwt>0</asrwt>
<pdfrwt beam="2">  1       21 0.98472749E-02 0.12679135E+03</pdfrwt>
<pdfrwt beam="1">  1       -4 0.73840934E-01 0.12679135E+03</pdfrwt>
<totfact> 0.57816336E+03</totfact>
</mgrwt>
</event>
<event>
 6    4  0.6195789E-003  0.1277936E+03  0.7818608E-02  0.1230767E+00
          4   -1    0    0  502    0 -0.00000000000E+00  0.00000000000E+00  0.45850794804E+02  0.45868380004E+02  0.12700000000E+01 0.  1.
         21   -1    0    0  501  502  0.00000000000E+00 -0.00000000000E+00 -0.23413237327E+03  0.23413237327E+03  0.00000000000E+00 0.  1.
         25    2    1    2    0    0  0.26313200687E+02 -0.32848883734E+01 -0.46868199643E+02  0.13611700981E+03  0.12501214821E+03 0.  0.
    9000005    1    3    3    0    0 -0.34307177387E+02  0.30206020297E+02 -0.48740002248E+02  0.66827942521E+02  0.10000000000E+01 0.  0.
    9000005    1    3    3    0    0  0.60620378074E+02 -0.33490908671E+02  0.18718026047E+01  0.69289067293E+02  0.10000000000E+01 0.  0.
          4    1    1    2  501    0 -0.26313200687E+02  0.32848883734E+01 -0.14141337882E+03  0.14388374346E+03  0.12700000000E+01 0. -1.
<mgrwt>
<rscale>  1 0.12779363E+03</rscale>
<asrwt>0</asrwt>
<pdfrwt beam="2">  1       21 0.36020365E-01 0.12779363E+03</pdfrwt>
<pdfrwt beam="1">  1        4 0.70555861E-02 0.12779363E+03</pdfrwt>
<totfact> 0.40898268E+04</totfact>
</mgrwt>
</event>
<event>
 6    4  0.6195789E-003  0.1268389E+03  0.7818608E-02  0.1232223E+00
         -4   -1    0    0    0  501 -0.00000000000E+00  0.00000000000E+00  0.61308922540E+02  0.61322075006E+02  0.12700000000E+01 0. -1.
         21   -1    0    0  501  502  0.00000000000E+00 -0.00000000000E+00 -0.44561103220E+03  0.44561103220E+03  0.00000000000E+00 0.  1.
         25    2    1    2    0    0 -0.19614151931E+02  0.88082352294E+01 -0.49139284567E+01  0.12693402181E+03  0.12500319691E+03 0.  0.
    9000005    1    3    3    0    0  0.42445767024E+01  0.65161549556E+02  0.20194037154E+01  0.65338518221E+02  0.10000000000E+01 0.  0.
    9000005    1    3    3    0    0 -0.23858728633E+02 -0.56353314327E+02 -0.69333321720E+01  0.61595503591E+02  0.10000000000E+01 0.  0.
         -4    1    1    2    0  502  0.19614151931E+02 -0.88082352294E+01 -0.37938818121E+03  0.37999908540E+03  0.12700000000E+01 0.  1.
<mgrwt>
<rscale>  1 0.12683887E+03</rscale>
<asrwt>0</asrwt>
<pdfrwt beam="2">  1       21 0.68555543E-01 0.12683887E+03</pdfrwt>
<pdfrwt beam="1">  1       -4 0.94332929E-02 0.12683887E+03</pdfrwt>
<totfact> 0.66912698E+03</totfact>
</mgrwt>
</event>
<event>
 6    4  0.6195789E-003  0.1328129E+03  0.7818608E-02  0.1223341E+00
         21   -1    0    0  501  502  0.00000000000E+00  0.00000000000E+00  0.37201670856E+02  0.37201670856E+02  0.00000000000E+00 0.  1.
         -4   -1    0    0    0  501 -0.00000000000E+00 -0.00000000000E+00 -0.21220268341E+03  0.21220648375E+03  0.12700000000E+01 0.  1.
         25    2    1    2    0    0 -0.41340925867E+02  0.17448300788E+02 -0.13028674345E+03  0.18604811899E+03  0.12500300680E+03 0.  0.
    9000005    1    3    3    0    0 -0.38504864677E+02  0.48378976003E+01  0.13934331026E+02  0.41245550525E+02  0.10000000000E+01 0.  0.
    9000005    1    3    3    0    0 -0.28360611895E+01  0.12610403187E+02 -0.14422107448E+03  0.14480256847E+03  0.10000000000E+01 0.  0.
         -4    1    1    2    0  502  0.41340925867E+02 -0.17448300788E+02 -0.44714269107E+02  0.63360035619E+02  0.12700000000E+01 0. -1.
<mgrwt>
<rscale>  1 0.13281290E+03</rscale>
<asrwt>0</asrwt>
<pdfrwt beam="1">  1       21 0.57233340E-02 0.13281290E+03</pdfrwt>
<pdfrwt beam="2">  1       -4 0.32648527E-01 0.13281290E+03</pdfrwt>
<totfact> 0.77646311E+04</totfact>
</mgrwt>
</event>
<event>
 6    4  0.6195789E-003  0.1281154E+03  0.7818608E-02  0.1230279E+00
          4   -1    0    0  502    0 -0.00000000000E+00  0.00000000000E+00  0.10876350468E+03  0.10877091914E+03  0.12700000000E+01 0. -1.
         21   -1    0    0  501  502  0.00000000000E+00 -0.00000000000E+00 -0.10196165098E+03  0.10196165098E+03  0.00000000000E+00 0.  1.
         25    2    1    2    0    0  0.25703129909E+02 -0.11325986616E+02  0.66791601736E+02  0.14448068992E+03  0.12499849134E+03 0.  0.
    9000005    1    3    3    0    0 -0.28118397327E+02 -0.21288220643E+02  0.80631996247E+02  0.88013359356E+02  0.10000000000E+01 0.  0.
    9000005    1    3    3    0    0  0.53821527236E+02  0.99622340267E+01 -0.13840394511E+02  0.56467330564E+02  0.10000000000E+01 0.  0.
          4    1    1    2  501    0 -0.25703129909E+02  0.11325986616E+02 -0.59989748043E+02  0.66251880201E+02  0.12700000000E+01 0.  1.
<mgrwt>
<rscale>  1 0.12811538E+03</rscale>
<asrwt>0</asrwt>
<pdfrwt beam="2">  1       21 0.15686408E-01 0.12811538E+03</pdfrwt>
<pdfrwt beam="1">  1        4 0.16734026E-01 0.12811538E+03</pdfrwt>
<totfact> 0.45225679E+04</totfact>
</mgrwt>
</event>
<event>
 6    4  0.6195789E-003  0.1267032E+03  0.7818608E-02  0.1232431E+00
         21   -1    0    0  501  502  0.00000000000E+00  0.00000000000E+00  0.14454779081E+03  0.14454779081E+03  0.00000000000E+00 0. -1.
          4   -1    0    0  502    0 -0.00000000000E+00 -0.00000000000E+00 -0.37931767504E+02  0.37953022092E+02  0.12700000000E+01 0. -1.
         25    2    1    2    0    0 -0.80237407521E+00 -0.20692694106E+02  0.85212071708E+02  0.15269186395E+03  0.12499950703E+03 0.  0.
    9000005    1    3    3    0    0 -0.33288111331E+02  0.36731241483E+02  0.65374862874E+01  0.50010210795E+02  0.10000000000E+01 0.  0.
    9000005    1    3    3    0    0  0.32485737255E+02 -0.57423935589E+02  0.78674585421E+02  0.10268165315E+03  0.10000000000E+01 0.  0.
          4    1    1    2  501    0  0.80237407521E+00  0.20692694106E+02  0.21403951594E+02  0.29808948947E+02  0.12700000000E+01 0.  1.
<mgrwt>
<rscale>  1 0.12670323E+03</rscale>
<asrwt>0</asrwt>
<pdfrwt beam="1">  1       21 0.22238121E-01 0.12670323E+03</pdfrwt>
<pdfrwt beam="2">  1        4 0.58377207E-02 0.12670323E+03</pdfrwt>
<totfact> 0.14020004E+05</totfact>
</mgrwt>
</event>
<event>
 6    4  0.6195789E-003  0.1269849E+03  0.7818608E-02  0.1231999E+00
          4   -1    0    0  502    0 -0.00000000000E+00  0.00000000000E+00  0.64462771454E+02  0.64475280562E+02  0.12700000000E+01 0. -1.
         21   -1    0    0  501  502  0.00000000000E+00 -0.00000000000E+00 -0.11533634742E+03  0.11533634742E+03  0.00000000000E+00 0.  1.
         25    2    1    2    0    0 -0.10097184804E+02 -0.19981341868E+02 -0.30835720496E+01  0.12702238156E+03  0.12499587927E+03 0.  0.
    9000005    1    3    3    0    0 -0.23273606191E+02 -0.31431083183E+02 -0.57679068547E+02  0.69695399300E+02  0.10000000000E+01 0.  0.
    9000005    1    3    3    0    0  0.13176421387E+02  0.11449741315E+02  0.54595496497E+02  0.57326982255E+02  0.10000000000E+01 0.  0.
          4    1    1    2  501    0  0.10097184804E+02  0.19981341868E+02 -0.47790003917E+02  0.52789246426E+02  0.12700000000E+01 0.  1.
<mgrwt>
<rscale>  1 0.12698495E+03</rscale>
<asrwt>0</asrwt>
<pdfrwt beam="2">  1       21 0.17744053E-01 0.12698495E+03</pdfrwt>
<pdfrwt beam="1">  1        4 0.99188496E-02 0.12698495E+03</pdfrwt>
<totfact> 0.88771537E+04</totfact>
</mgrwt>
</event>
<event>
 6    4  0.6195789E-003  0.1281635E+03  0.7818608E-02  0.1230207E+00
         21   -1    0    0  501  502  0.00000000000E+00  0.00000000000E+00  0.53345097544E+02  0.53345097544E+02  0.00000000000E+00 0. -1.
          4   -1    0    0  502    0 -0.00000000000E+00 -0.00000000000E+00 -0.12743195163E+03  0.12743827995E+03  0.12700000000E+01 0. -1.
         25    2    1    2    0    0 -0.28053750959E+02 -0.36160404328E+01 -0.81029896061E+02  0.15163020575E+03  0.12500314615E+03 0.  0.
    9000005    1    3    3    0    0 -0.13244067267E+01 -0.91075499276E+01 -0.11082750482E+03  0.11121347645E+03  0.10000000000E+01 0.  0.
    9000005    1    3    3    0    0 -0.26729344232E+02  0.54915094948E+01  0.29797608758E+02  0.40416729300E+02  0.10000000000E+01 0.  0.
          4    1    1    2  501    0  0.28053750959E+02  0.36160404328E+01  0.69430419715E+01  0.29153171750E+02  0.12700000000E+01 0.  1.
<mgrwt>
<rscale>  1 0.12816347E+03</rscale>
<asrwt>0</asrwt>
<pdfrwt beam="1">  1       21 0.82069382E-02 0.12816347E+03</pdfrwt>
<pdfrwt beam="2">  1        4 0.19606565E-01 0.12816347E+03</pdfrwt>
<totfact> 0.10710817E+05</totfact>
</mgrwt>
</event>
<event>
 6    4  0.6195789E-003  0.1414110E+03  0.7818608E-02  0.1211443E+00
          4   -1    0    0  502    0 -0.00000000000E+00  0.00000000000E+00  0.24190551195E+03  0.24190884566E+03  0.12700000000E+01 0.  1.
         21   -1    0    0  501  502  0.00000000000E+00 -0.00000000000E+00 -0.96386684561E+02  0.96386684561E+02  0.00000000000E+00 0. -1.
         25    2    1    2    0    0  0.14444062298E+01 -0.66093026925E+02  0.20521107631E+03  0.24921606009E+03  0.12500673681E+03 0.  0.
    9000005    1    3    3    0    0 -0.37094355238E+02 -0.36016753765E+02  0.19160721356E+03  0.19846289837E+03  0.10000000000E+01 0.  0.
    9000005    1    3    3    0    0  0.38538761467E+02 -0.30076273161E+02  0.13603862751E+02  0.50753161719E+02  0.10000000000E+01 0.  0.
          4    1    1    2  501    0 -0.14444062298E+01  0.66093026925E+02 -0.59692248925E+02  0.89079470133E+02  0.12700000000E+01 0. -1.
<mgrwt>
<rscale>  1 0.14141096E+03</rscale>
<asrwt>0</asrwt>
<pdfrwt beam="2">  1       21 0.14828721E-01 0.14141096E+03</pdfrwt>
<pdfrwt beam="1">  1        4 0.37217132E-01 0.14141096E+03</pdfrwt>
<totfact> 0.11535968E+04</totfact>
</mgrwt>
</event>
<event>
 6    4  0.6195789E-003  0.1341966E+03  0.7818608E-02  0.1221358E+00
         -4   -1    0    0    0  501 -0.00000000000E+00  0.00000000000E+00  0.11381566490E+03  0.11382275026E+03  0.12700000000E+01 0.  1.
         21   -1    0    0  501  502  0.00000000000E+00 -0.00000000000E+00 -0.10248939574E+03  0.10248939574E+03  0.00000000000E+00 0. -1.
         25    2    1    2    0    0  0.47399342914E+02  0.11222658728E+02  0.60394435380E+02  0.14716054722E+03  0.12504436434E+03 0.  0.
    9000005    1    3    3    0    0  0.55809791939E+02 -0.23142673611E+02  0.84830056346E+02  0.10415111463E+03  0.10000000000E+01 0.  0.
    9000005    1    3    3    0    0 -0.84104490256E+01  0.34365332340E+02 -0.24435620966E+02  0.43009432589E+02  0.10000000000E+01 0.  0.
         -4    1    1    2    0  502 -0.47399342914E+02 -0.11222658728E+02 -0.49068166221E+02  0.69151598781E+02  0.12700000000E+01 0. -1.
<mgrwt>
<rscale>  1 0.13419664E+03</rscale>
<asrwt>0</asrwt>
<pdfrwt beam="2">  1       21 0.15767599E-01 0.13419664E+03</pdfrwt>
<pdfrwt beam="1">  1       -4 0.17511253E-01 0.13419664E+03</pdfrwt>
<totfact> 0.41578696E+04</totfact>
</mgrwt>
</event>
<event>
 6    4  0.6195789E-003  0.1266681E+03  0.7818608E-02  0.1232485E+00
          4   -1    0    0  502    0 -0.00000000000E+00  0.00000000000E+00  0.35852010774E+03  0.35852235712E+03  0.12700000000E+01 0. -1.
         21   -1    0    0  501  502  0.00000000000E+00 -0.00000000000E+00 -0.18243696980E+02  0.18243696980E+02  0.00000000000E+00 0. -1.
         25    2    1    2    0    0 -0.15730955493E+02 -0.13323007318E+02  0.33044678097E+03  0.35389248843E+03  0.12497940960E+03 0.  0.
    9000005    1    3    3    0    0  0.45544369107E+01  0.54142610743E+02  0.11447954745E+03  0.12672305228E+03  0.10000000000E+01 0.  0.
    9000005    1    3    3    0    0 -0.20285392404E+02 -0.67465618062E+02  0.21596723352E+03  0.22716943615E+03  0.10000000000E+01 0.  0.
          4    1    1    2  501    0  0.15730955493E+02  0.13323007318E+02  0.98296297853E+01  0.22873565670E+02  0.12700000000E+01 0.  1.
<mgrwt>
<rscale>  1 0.12666814E+03</rscale>
<asrwt>0</asrwt>
<pdfrwt beam="2">  1       21 0.28067229E-02 0.12666814E+03</pdfrwt>
<pdfrwt beam="1">  1        4 0.55160508E-01 0.12666814E+03</pdfrwt>
<totfact> 0.88998105E+04</totfact>
</mgrwt>
</event>
<event>
 6    4  0.6195789E-003  0.1438239E+03  0.7818608E-02  0.1208274E+00
         21   -1    0    0  501  502  0.00000000000E+00  0.00000000000E+00  0.78988217525E+02  0.78988217525E+02  0.00000000000E+00 0.  1.
          4   -1    0    0  502    0 -0.00000000000E+00 -0.00000000000E+00 -0.27985520875E+03  0.27985809040E+03  0.12700000000E+01 0. -1.
         25    2    1    2    0    0  0.71137251742E+02 -0.20804852846E+00 -0.23838529485E+03  0.27841131631E+03  0.12499904153E+03 0.  0.
    9000005    1    3    3    0    0  0.20546669997E+02  0.44232598910E+02 -0.25331246950E+02  0.54966903918E+02  0.10000000000E+01 0.  0.
    9000005    1    3    3    0    0  0.50590581744E+02 -0.44440647438E+02 -0.21305404790E+03  0.22344441240E+03  0.10000000000E+01 0.  0.
          4    1    1    2  501    0 -0.71137251742E+02  0.20804852846E+00  0.37518303620E+02  0.80434991615E+02  0.12700000000E+01 0.  1.
<mgrwt>
<rscale>  1 0.14382389E+03</rscale>
<asrwt>0</asrwt>
<pdfrwt beam="1">  1       21 0.12152033E-01 0.14382389E+03</pdfrwt>
<pdfrwt beam="2">  1        4 0.43055655E-01 0.14382389E+03</pdfrwt>
<totfact> 0.12385040E+04</totfact>
</mgrwt>
</event>
<event>
 6    4  0.6195789E-003  0.1281914E+03  0.7818608E-02  0.1230164E+00
         -4   -1    0    0    0  501 -0.00000000000E+00  0.00000000000E+00  0.11992310330E+03  0.11992982784E+03  0.12700000000E+01 0.  1.
         21   -1    0    0  501  502  0.00000000000E+00 -0.00000000000E+00 -0.40143687880E+03  0.40143687880E+03  0.00000000000E+00 0. -1.
         25    2    1    2    0    0  0.19191636924E+02  0.21066687414E+02  0.84956663768E+02  0.15378770832E+03  0.12498359999E+03 0.  0.
    9000005    1    3    3    0    0  0.66539432051E+02  0.24739228532E+02  0.20838906481E+02  0.73991793257E+02  0.10000000000E+01 0.  0.
    9000005    1    3    3    0    0 -0.47347795127E+02 -0.36725411182E+01  0.64117757287E+02  0.79795915065E+02  0.10000000000E+01 0.  0.
         -4    1    1    2    0  502 -0.19191636924E+02 -0.21066687414E+02 -0.36647043927E+03  0.36757899832E+03  0.12700000000E+01 0. -1.
<mgrwt>
<rscale>  1 0.12819136E+03</rscale>
<asrwt>0</asrwt>
<pdfrwt beam="2">  1       21 0.61759520E-01 0.12819136E+03</pdfrwt>
<pdfrwt beam="1">  1       -4 0.18450380E-01 0.12819136E+03</pdfrwt>
<totfact> 0.26359504E+03</totfact>
</mgrwt>
</event>
<event>
 6    4  0.6195789E-003  0.1274329E+03  0.7818608E-02  0.1231315E+00
         -4   -1    0    0    0  501 -0.00000000000E+00  0.00000000000E+00  0.12576922971E+03  0.12577564168E+03  0.12700000000E+01 0.  1.
         21   -1    0    0  501  502  0.00000000000E+00 -0.00000000000E+00 -0.46889990351E+02  0.46889990351E+02  0.00000000000E+00 0.  1.
         25    2    1    2    0    0  0.17671851165E+02 -0.17357734081E+02  0.74085141352E+02  0.14740337696E+03  0.12500224843E+03 0.  0.
    9000005    1    3    3    0    0 -0.26601262106E+02 -0.60036789238E+02  0.33583700352E+02  0.73762511732E+02  0.10000000000E+01 0.  0.
    9000005    1    3    3    0    0  0.44273113271E+02  0.42679055158E+02  0.40501441001E+02  0.73640865224E+02  0.10000000000E+01 0.  0.
         -4    1    1    2    0  502 -0.17671851165E+02  0.17357734081E+02  0.47940980022E+01  0.25262255079E+02  0.12700000000E+01 0. -1.
<mgrwt>
<rscale>  1 0.12743291E+03</rscale>
<asrwt>0</asrwt>
<pdfrwt beam="2">  1       21 0.72138448E-02 0.12743291E+03</pdfrwt>
<pdfrwt beam="1">  1       -4 0.19350928E-01 0.12743291E+03</pdfrwt>
<totfact> 0.13676999E+05</totfact>
</mgrwt>
</event>
<event>
 6    4  0.6195789E-003  0.1449275E+03  0.7818608E-02  0.1206848E+00
         21   -1    0    0  501  502  0.00000000000E+00  0.00000000000E+00  0.47674138077E+03  0.47674138077E+03  0.00000000000E+00 0. -1.
          4   -1    0    0  502    0 -0.00000000000E+00 -0.00000000000E+00 -0.36831070019E+02  0.36852959430E+02  0.12700000000E+01 0.  1.
         25    2    1    2    0    0 -0.37395240922E+02  0.63086500895E+02  0.12859181719E+03  0.19375199158E+03  0.12500267259E+03 0.  0.
    9000005    1    3    3    0    0 -0.38565852893E+02 -0.17565623608E+02  0.51964533182E+00  0.42392760861E+02  0.10000000000E+01 0.  0.
    9000005    1    3    3    0    0  0.11706119708E+01  0.80652124502E+02  0.12807217186E+03  0.15135923072E+03  0.10000000000E+01 0.  0.
          4    1    1    2  501    0  0.37395240922E+02 -0.63086500895E+02  0.31131849356E+03  0.31984234862E+03  0.12700000000E+01 0. -1.
<mgrwt>
<rscale>  1 0.14492749E+03</rscale>
<asrwt>0</asrwt>
<pdfrwt beam="1">  1       21 0.73344823E-01 0.14492749E+03</pdfrwt>
<pdfrwt beam="2">  1        4 0.56681327E-02 0.14492749E+03</pdfrwt>
<totfact> 0.13474614E+04</totfact>
</mgrwt>
</event>
<event>
 6    4  0.6195789E-003  0.1293048E+03  0.7818608E-02  0.1228491E+00
         -4   -1    0    0    0  501 -0.00000000000E+00  0.00000000000E+00  0.53829552175E+03  0.53829701990E+03  0.12700000000E+01 0.  1.
         21   -1    0    0  501  502  0.00000000000E+00 -0.00000000000E+00 -0.17697475978E+02  0.17697475978E+02  0.00000000000E+00 0. -1.
         25    2    1    2    0    0 -0.31908346072E+02  0.87440250666E+01  0.50122232257E+03  0.51763263887E+03  0.12500052664E+03 0.  0.
    9000005    1    3    3    0    0 -0.17490311780E+02 -0.46467960554E+02  0.38461422239E+03  0.38780701700E+03  0.10000000000E+01 0.  0.
    9000005    1    3    3    0    0 -0.14418034292E+02  0.55211985620E+02  0.11660810018E+03  0.12982562188E+03  0.10000000000E+01 0.  0.
         -4    1    1    2    0  502  0.31908346072E+02 -0.87440250666E+01  0.19375723203E+02  0.38361857007E+02  0.12700000000E+01 0. -1.
<mgrwt>
<rscale>  1 0.12930480E+03</rscale>
<asrwt>0</asrwt>
<pdfrwt beam="2">  1       21 0.27226890E-02 0.12930480E+03</pdfrwt>
<pdfrwt beam="1">  1       -4 0.82818303E-01 0.12930480E+03</pdfrwt>
<totfact> 0.39267993E+04</totfact>
</mgrwt>
</event>
<event>
 6    4  0.6195789E-003  0.1266741E+03  0.7818608E-02  0.1232476E+00
         -4   -1    0    0    0  501 -0.00000000000E+00  0.00000000000E+00  0.12539642984E+02  0.12603790944E+02  0.12700000000E+01 0.  1.
         21   -1    0    0  501  502  0.00000000000E+00 -0.00000000000E+00 -0.46871715282E+03  0.46871715282E+03  0.00000000000E+00 0.  1.
         25    2    1    2    0    0 -0.18272700882E+02 -0.93917983663E+01 -0.42847705507E+03  0.44680970548E+03  0.12499691480E+03 0.  0.
    9000005    1    3    3    0    0  0.38019261106E+02  0.16481297040E+02 -0.58594763590E+02  0.71773558414E+02  0.10000000000E+01 0.  0.
    9000005    1    3    3    0    0 -0.56291961989E+02 -0.25873095406E+02 -0.36988229148E+03  0.37503614706E+03  0.10000000000E+01 0.  0.
         -4    1    1    2    0  502  0.18272700882E+02  0.93917983663E+01 -0.27700454760E+02  0.34511238285E+02  0.12700000000E+01 0. -1.
<mgrwt>
<rscale>  1 0.12667409E+03</rscale>
<asrwt>0</asrwt>
<pdfrwt beam="2">  1       21 0.72110326E-01 0.12667409E+03</pdfrwt>
<pdfrwt beam="1">  1       -4 0.19342428E-02 0.12667409E+03</pdfrwt>
<totfact> 0.75156087E+04</totfact>
</mgrwt>
</event>
<event>
 6    4  0.6195789E-003  0.1429205E+03  0.7818608E-02  0.1209452E+00
         21   -1    0    0  501  502  0.00000000000E+00  0.00000000000E+00  0.23742051230E+02  0.23742051230E+02  0.00000000000E+00 0.  1.
         -4   -1    0    0    0  501 -0.00000000000E+00 -0.00000000000E+00 -0.81281719406E+03  0.81281818622E+03  0.12700000000E+01 0. -1.
         25    2    1    2    0    0 -0.15560270127E+02 -0.67493043563E+02 -0.73475971860E+03  0.74853063365E+03  0.12501532910E+03 0.  0.
    9000005    1    3    3    0    0  0.50455924294E+02 -0.60413913765E+01 -0.32595546121E+03  0.32989431853E+03  0.10000000000E+01 0.  0.
    9000005    1    3    3    0    0 -0.66016194420E+02 -0.61451652187E+02 -0.40880425739E+03  0.41863631513E+03  0.10000000000E+01 0.  0.
         -4    1    1    2    0  502  0.15560270127E+02  0.67493043563E+02 -0.54315424229E+02  0.88029603799E+02  0.12700000000E+01 0.  1.
<mgrwt>
<rscale>  1 0.14292049E+03</rscale>
<asrwt>0</asrwt>
<pdfrwt beam="1">  1       21 0.36526235E-02 0.14292049E+03</pdfrwt>
<pdfrwt beam="2">  1       -4 0.12505148E+00 0.14292049E+03</pdfrwt>
<totfact> 0.94022667E+03</totfact>
</mgrwt>
</event>
<event>
 6    4  0.6195789E-003  0.1305494E+03  0.7818608E-02  0.1226643E+00
          4   -1    0    0  502    0 -0.00000000000E+00  0.00000000000E+00  0.59405653582E+03  0.59405789335E+03  0.12700000000E+01 0. -1.
         21   -1    0    0  501  502  0.00000000000E+00 -0.00000000000E+00 -0.40340687896E+02  0.40340687896E+02  0.00000000000E+00 0.  1.
         25    2    1    2    0    0 -0.28553421223E+02 -0.24550678088E+02  0.57600989140E+03  0.59061878074E+03  0.12500046208E+03 0.  0.
    9000005    1    3    3    0    0 -0.19829979554E+02 -0.25064451326E+02  0.58005635802E+03  0.58093703040E+03  0.10000000000E+01 0.  0.
    9000005    1    3    3    0    0 -0.87234416692E+01  0.51377323810E+00 -0.40464666263E+01  0.96817503404E+01  0.10000000000E+01 0.  0.
          4    1    1    2  501    0  0.28553421223E+02  0.24550678088E+02 -0.22294043470E+02  0.43779800506E+02  0.12700000000E+01 0.  1.
<mgrwt>
<rscale>  1 0.13054941E+03</rscale>
<asrwt>0</asrwt>
<pdfrwt beam="2">  1       21 0.62062601E-02 0.13054941E+03</pdfrwt>
<pdfrwt beam="1">  1        4 0.91394949E-01 0.13054941E+03</pdfrwt>
<totfact> 0.79962326E+03</totfact>
</mgrwt>
</event>
<event>
 6    4  0.6195789E-003  0.1279440E+03  0.7818608E-02  0.1230539E+00
         21   -1    0    0  501  502  0.00000000000E+00  0.00000000000E+00  0.16624052380E+03  0.16624052380E+03  0.00000000000E+00 0. -1.
          4   -1    0    0  502    0 -0.00000000000E+00 -0.00000000000E+00 -0.52438380371E+02  0.52453757120E+02  0.12700000000E+01 0. -1.
         25    2    1    2    0    0 -0.12592684465E+02 -0.24226119953E+02  0.31208281738E+02  0.13169520346E+03  0.12499675666E+03 0.  0.
    9000005    1    3    3    0    0 -0.33514905429E+02 -0.62945780728E+02 -0.92361803722E+01  0.71914721895E+02  0.10000000000E+01 0.  0.
    9000005    1    3    3    0    0  0.20922220964E+02  0.38719660775E+02  0.40444462110E+02  0.59780481563E+02  0.10000000000E+01 0.  0.
          4    1    1    2  501    0  0.12592684465E+02  0.24226119953E+02  0.82593861692E+02  0.86999077462E+02  0.12700000000E+01 0.  1.
<mgrwt>
<rscale>  1 0.12794401E+03</rscale>
<asrwt>0</asrwt>
<pdfrwt beam="1">  1       21 0.25575465E-01 0.12794401E+03</pdfrwt>
<pdfrwt beam="2">  1        4 0.80689992E-02 0.12794401E+03</pdfrwt>
<totfact> 0.63528161E+04</totfact>
</mgrwt>
</event>
<event>
 6    4  0.6195789E-003  0.1267284E+03  0.7818608E-02  0.1232393E+00
         21   -1    0    0  501  502  0.00000000000E+00  0.00000000000E+00  0.35724492811E+03  0.35724492811E+03  0.00000000000E+00 0. -1.
          4   -1    0    0  502    0 -0.00000000000E+00 -0.00000000000E+00 -0.11043742187E+03  0.11044472396E+03  0.12700000000E+01 0.  1.
         25    2    1    2    0    0  0.35669033346E+01  0.20555563690E+02 -0.73633752862E+02  0.14656745191E+03  0.12499933760E+03 0.  0.
    9000005    1    3    3    0    0 -0.34868651850E+02 -0.25261198886E+02 -0.75283607907E+02  0.86732765841E+02  0.10000000000E+01 0.  0.
    9000005    1    3    3    0    0  0.38435555185E+02  0.45816762576E+02  0.16498550447E+01  0.59834686069E+02  0.10000000000E+01 0.  0.
          4    1    1    2  501    0 -0.35669033346E+01 -0.20555563690E+02  0.32044125910E+03  0.32112220015E+03  0.12700000000E+01 0. -1.
<mgrwt>
<rscale>  1 0.12672840E+03</rscale>
<asrwt>0</asrwt>
<pdfrwt beam="1">  1       21 0.54960758E-01 0.12672840E+03</pdfrwt>
<pdfrwt beam="2">  1        4 0.16991108E-01 0.12672840E+03</pdfrwt>
<totfact> 0.39005936E+03</totfact>
</mgrwt>
</event>
<event>
 6    4  0.6195789E-003  0.1364300E+03  0.7818608E-02  0.1218215E+00
          4   -1    0    0  502    0 -0.00000000000E+00  0.00000000000E+00  0.42039443128E+03  0.42039634960E+03  0.12700000000E+01 0. -1.
         21   -1    0    0  501  502  0.00000000000E+00 -0.00000000000E+00 -0.30444565719E+02  0.30444565719E+02  0.00000000000E+00 0.  1.
         25    2    1    2    0    0 -0.11252046993E+01 -0.54634485871E+02  0.36703542472E+03  0.39157138156E+03  0.12500780267E+03 0.  0.
    9000005    1    3    3    0    0  0.37352840275E+02 -0.14862466317E+02  0.30813003498E+03  0.31074305469E+03  0.10000000000E+01 0.  0.
    9000005    1    3    3    0    0 -0.38478044974E+02 -0.39772019554E+02  0.58905389737E+02  0.80828326870E+02  0.10000000000E+01 0.  0.
          4    1    1    2  501    0  0.11252046993E+01  0.54634485871E+02  0.22914440845E+02  0.59269533753E+02  0.12700000000E+01 0.  1.
<mgrwt>
<rscale>  1 0.13643000E+03</rscale>
<asrwt>0</asrwt>
<pdfrwt beam="2">  1       21 0.46837797E-02 0.13643000E+03</pdfrwt>
<pdfrwt beam="1">  1        4 0.64678247E-01 0.13643000E+03</pdfrwt>
<totfact> 0.27580247E+04</totfact>
</mgrwt>
</event>
<event>
 6    4  0.6195789E-003  0.1267078E+03  0.7818608E-02  0.1232424E+00
          4   -1    0    0  502    0 -0.00000000000E+00  0.00000000000E+00  0.19611625016E+02  0.19652703015E+02  0.12700000000E+01 0.  1.
         21   -1    0    0  501  502  0.00000000000E+00 -0.00000000000E+00 -0.28382303535E+03  0.28382303535E+03  0.00000000000E+00 0.  1.
         25    2    1    2    0    0 -0.20598534092E+02  0.17497842538E+01 -0.20781863598E+03  0.24339979267E+03  0.12501004864E+03 0.  0.
    9000005    1    3    3    0    0 -0.19838260345E+02  0.42197402942E+02 -0.19111815043E+02  0.50402766420E+02  0.10000000000E+01 0.  0.
    9000005    1    3    3    0    0 -0.76027374711E+00 -0.40447618688E+02 -0.18870682094E+03  0.19299702625E+03  0.10000000000E+01 0.  0.
          4    1    1    2  501    0  0.20598534092E+02 -0.17497842538E+01 -0.56392774353E+02  0.60075945693E+02  0.12700000000E+01 0. -1.
<mgrwt>
<rscale>  1 0.12670783E+03</rscale>
<asrwt>0</asrwt>
<pdfrwt beam="2">  1       21 0.43665077E-01 0.12670783E+03</pdfrwt>
<pdfrwt beam="1">  1        4 0.30205518E-02 0.12670783E+03</pdfrwt>
<totfact> 0.10809925E+05</totfact>
</mgrwt>
</event>
<event>
 6    4  0.6195789E-003  0.1268212E+03  0.7818608E-02  0.1232250E+00
         -4   -1    0    0    0  501 -0.00000000000E+00  0.00000000000E+00  0.16553461698E+03  0.16553948870E+03  0.12700000000E+01 0.  1.
         21   -1    0    0  501  502  0.00000000000E+00 -0.00000000000E+00 -0.10398103568E+03  0.10398103568E+03  0.00000000000E+00 0. -1.
         25    2    1    2    0    0  0.97597786386E+00 -0.21402306744E+02  0.13958362789E+03  0.18859270261E+03  0.12499842813E+03 0.  0.
    9000005    1    3    3    0    0  0.53774757063E+02  0.12900348713E+02  0.99815736726E+02  0.11411540121E+03  0.10000000000E+01 0.  0.
    9000005    1    3    3    0    0 -0.52798779199E+02 -0.34302655458E+02  0.39767891166E+02  0.74477301402E+02  0.10000000000E+01 0.  0.
         -4    1    1    2    0  502 -0.97597786386E+00  0.21402306744E+02 -0.78030046589E+02  0.80927821776E+02  0.12700000000E+01 0. -1.
<mgrwt>
<rscale>  1 0.12682121E+03</rscale>
<asrwt>0</asrwt>
<pdfrwt beam="2">  1       21 0.15997082E-01 0.12682121E+03</pdfrwt>
<pdfrwt beam="1">  1       -4 0.25467835E-01 0.12682121E+03</pdfrwt>
<totfact> 0.20440601E+04</totfact>
</mgrwt>
</event>
<event>
 6    4  0.6195789E-003  0.1277710E+03  0.7818608E-02  0.1230801E+00
         21   -1    0    0  501  502  0.00000000000E+00  0.00000000000E+00  0.12777178643E+03  0.12777178643E+03  0.00000000000E+00 0. -1.
         -4   -1    0    0    0  501 -0.00000000000E+00 -0.00000000000E+00 -0.59271630578E+02  0.59285235020E+02  0.12700000000E+01 0.  1.
         25    2    1    2    0    0  0.14898265939E+02 -0.21897406226E+02  0.16690589398E+02  0.12885651627E+03  0.12499588506E+03 0.  0.
    9000005    1    3    3    0    0 -0.22681248927E+02 -0.51974596732E+02 -0.27924425691E+02  0.63218441206E+02  0.10000000000E+01 0.  0.
    9000005    1    3    3    0    0  0.37579514866E+02  0.30077190506E+02  0.44615015089E+02  0.65638075061E+02  0.10000000000E+01 0.  0.
         -4    1    1    2    0  502 -0.14898265939E+02  0.21897406226E+02  0.51809566449E+02  0.58200505179E+02  0.12700000000E+01 0. -1.
<mgrwt>
<rscale>  1 0.12777099E+03</rscale>
<asrwt>0</asrwt>
<pdfrwt beam="1">  1       21 0.19657198E-01 0.12777099E+03</pdfrwt>
<pdfrwt beam="2">  1       -4 0.91202444E-02 0.12777099E+03</pdfrwt>
<totfact> 0.84738364E+04</totfact>
</mgrwt>
</event>
<event>
 6    4  0.6195789E-003  0.1307721E+03  0.7818608E-02  0.1226315E+00
         -4   -1    0    0    0  501 -0.00000000000E+00  0.00000000000E+00  0.91821826426E+02  0.91830608776E+02  0.12700000000E+01 0.  1.
         21   -1    0    0  501  502  0.00000000000E+00 -0.00000000000E+00 -0.78099351350E+02  0.78099351350E+02  0.00000000000E+00 0. -1.
         25    2    1    2    0    0 -0.15708518335E+02  0.35052047187E+02  0.73990901880E+01  0.13098125467E+03  0.12500375586E+03 0.  0.
    9000005    1    3    3    0    0 -0.36087084027E+02  0.45367996178E+02  0.53900714949E+02  0.79163247677E+02  0.10000000000E+01 0.  0.
    9000005    1    3    3    0    0  0.20378565692E+02 -0.10315948991E+02 -0.46501624761E+02  0.51818006992E+02  0.10000000000E+01 0.  0.
         -4    1    1    2    0  502  0.15708518335E+02 -0.35052047187E+02  0.63233848882E+01  0.38948705457E+02  0.12700000000E+01 0. -1.
<mgrwt>
<rscale>  1 0.13077210E+03</rscale>
<asrwt>0</asrwt>
<pdfrwt beam="2">  1       21 0.12015285E-01 0.13077210E+03</pdfrwt>
<pdfrwt beam="1">  1       -4 0.14127905E-01 0.13077210E+03</pdfrwt>
<totfact> 0.98271192E+04</totfact>
</mgrwt>
</event>
<event>
 6    4  0.6195789E-003  0.1300717E+03  0.7818608E-02  0.1227349E+00
         21   -1    0    0  501  502  0.00000000000E+00  0.00000000000E+00  0.87381213801E+02  0.87381213801E+02  0.00000000000E+00 0.  1.
          4   -1    0    0  502    0 -0.00000000000E+00 -0.00000000000E+00 -0.79432735409E+02  0.79442887375E+02  0.12700000000E+01 0.  1.
         25    2    1    2    0    0  0.29388570784E+02 -0.20758537687E+02  0.11849591957E+02  0.13061033906E+03  0.12499617138E+03 0.  0.
    9000005    1    3    3    0    0  0.53383301821E+02 -0.49320174200E+02 -0.26249544038E+02  0.77280625377E+02  0.10000000000E+01 0.  0.
    9000005    1    3    3    0    0 -0.23994731037E+02  0.28561636514E+02  0.38099135995E+02  0.53329713682E+02  0.10000000000E+01 0.  0.
          4    1    1    2  501    0 -0.29388570784E+02  0.20758537687E+02 -0.39011135647E+01  0.36213762117E+02  0.12700000000E+01 0. -1.
<mgrwt>
<rscale>  1 0.13007170E+03</rscale>
<asrwt>0</asrwt>
<pdfrwt beam="1">  1       21 0.13443264E-01 0.13007170E+03</pdfrwt>
<pdfrwt beam="2">  1        4 0.12221912E-01 0.13007170E+03</pdfrwt>
<totfact> 0.10321538E+05</totfact>
</mgrwt>
</event>
<event>
 6    4  0.6195789E-003  0.1268644E+03  0.7818608E-02  0.1232184E+00
         -4   -1    0    0    0  501 -0.00000000000E+00  0.00000000000E+00  0.17555278326E+03  0.17555737697E+03  0.12700000000E+01 0. -1.
         21   -1    0    0  501  502  0.00000000000E+00 -0.00000000000E+00 -0.59361319000E+02  0.59361319000E+02  0.00000000000E+00 0. -1.
         25    2    1    2    0    0  0.67344625434E+01 -0.20594103446E+02  0.14892984687E+03  0.19563912522E+03  0.12500039177E+03 0.  0.
    9000005    1    3    3    0    0 -0.45006558271E+02 -0.27846376955E+02  0.12947671838E+03  0.13987934658E+03  0.10000000000E+01 0.  0.
    9000005    1    3    3    0    0  0.51741020814E+02  0.72522735091E+01  0.19453128498E+02  0.55759778643E+02  0.10000000000E+01 0.  0.
         -4    1    1    2    0  502 -0.67344625434E+01  0.20594103446E+02 -0.32738382615E+02  0.39279570756E+02  0.12700000000E+01 0.  1.
<mgrwt>
<rscale>  1 0.12686437E+03</rscale>
<asrwt>0</asrwt>
<pdfrwt beam="2">  1       21 0.91325107E-02 0.12686437E+03</pdfrwt>
<pdfrwt beam="1">  1       -4 0.27009519E-01 0.12686437E+03</pdfrwt>
<totfact> 0.49521808E+04</totfact>
</mgrwt>
</event>
<event>
 6    4  0.6195789E-003  0.1268681E+03  0.7818608E-02  0.1232178E+00
         21   -1    0    0  501  502  0.00000000000E+00  0.00000000000E+00  0.19480131629E+03  0.19480131629E+03  0.00000000000E+00 0.  1.
          4   -1    0    0  502    0 -0.00000000000E+00 -0.00000000000E+00 -0.96742708355E+02  0.96751044025E+02  0.12700000000E+01 0. -1.
         25    2    1    2    0    0 -0.78564258641E+01 -0.20240636982E+02 -0.54046288154E+02  0.13790041881E+03  0.12499646968E+03 0.  0.
    9000005    1    3    3    0    0 -0.49171220477E+02 -0.34925375551E+02 -0.68919599866E+02  0.91588765830E+02  0.10000000000E+01 0.  0.
    9000005    1    3    3    0    0  0.41314794613E+02  0.14684738569E+02  0.14873311712E+02  0.46311652983E+02  0.10000000000E+01 0.  0.
          4    1    1    2  501    0  0.78564258641E+01  0.20240636982E+02  0.15210489609E+03  0.15365194150E+03  0.12700000000E+01 0.  1.
<mgrwt>
<rscale>  1 0.12686814E+03</rscale>
<asrwt>0</asrwt>
<pdfrwt beam="1">  1       21 0.29969433E-01 0.12686814E+03</pdfrwt>
<pdfrwt beam="2">  1        4 0.14884453E-01 0.12686814E+03</pdfrwt>
<totfact> 0.16592294E+04</totfact>
</mgrwt>
</event>
<event>
 6    4  0.6195789E-003  0.1269743E+03  0.7818608E-02  0.1232016E+00
          4   -1    0    0  502    0 -0.00000000000E+00  0.00000000000E+00  0.16436562868E+03  0.16437053505E+03  0.12700000000E+01 0. -1.
         21   -1    0    0  501  502  0.00000000000E+00 -0.00000000000E+00 -0.46352650720E+02  0.46352650720E+02  0.00000000000E+00 0. -1.
         25    2    1    2    0    0 -0.13538069657E+02 -0.17738006095E+02  0.13294871312E+03  0.18384186744E+03  0.12499822284E+03 0.  0.
    9000005    1    3    3    0    0 -0.43650668717E+02  0.28470360766E+02  0.15981349485E+02  0.54519224618E+02  0.10000000000E+01 0.  0.
    9000005    1    3    3    0    0  0.30112599060E+02 -0.46208366861E+02  0.11696736364E+03  0.12932264282E+03  0.10000000000E+01 0.  0.
          4    1    1    2  501    0  0.13538069657E+02  0.17738006095E+02 -0.14935735161E+02  0.26881318328E+02  0.12700000000E+01 0.  1.
<mgrwt>
<rscale>  1 0.12697430E+03</rscale>
<asrwt>0</asrwt>
<pdfrwt beam="2">  1       21 0.71311771E-02 0.12697430E+03</pdfrwt>
<pdfrwt beam="1">  1        4 0.25288735E-01 0.12697430E+03</pdfrwt>
<totfact> 0.85723328E+04</totfact>
</mgrwt>
</event>
<event>
 6    4  0.6195789E-003  0.1280946E+03  0.7818608E-02  0.1230311E+00
         21   -1    0    0  501  502  0.00000000000E+00  0.00000000000E+00  0.25312605089E+03  0.25312605089E+03  0.00000000000E+00 0. -1.
         -4   -1    0    0    0  501 -0.00000000000E+00 -0.00000000000E+00 -0.24056938788E+02  0.24090438017E+02  0.12700000000E+01 0. -1.
         25    2    1    2    0    0 -0.26952192551E+02 -0.75370668822E+01  0.18625713976E+03  0.22605296737E+03  0.12499997554E+03 0.  0.
    9000005    1    3    3    0    0 -0.71313213489E+02  0.22161746060E+02  0.10681841629E+03  0.13033760572E+03  0.10000000000E+01 0.  0.
    9000005    1    3    3    0    0  0.44361020938E+02 -0.29698812942E+02  0.79438723479E+02  0.95715361655E+02  0.10000000000E+01 0.  0.
         -4    1    1    2    0  502  0.26952192551E+02  0.75370668822E+01  0.42811972341E+02  0.51163521538E+02  0.12700000000E+01 0.  1.
<mgrwt>
<rscale>  1 0.12809458E+03</rscale>
<asrwt>0</asrwt>
<pdfrwt beam="1">  1       21 0.38942468E-01 0.12809458E+03</pdfrwt>
<pdfrwt beam="2">  1       -4 0.37038896E-02 0.12809458E+03</pdfrwt>
<totfact> 0.98839440E+04</totfact>
</mgrwt>
</event>
<event>
 6    4  0.6195789E-003  0.1306901E+03  0.7818608E-02  0.1226435E+00
         -4   -1    0    0    0  501 -0.00000000000E+00  0.00000000000E+00  0.25883852800E+03  0.25884164363E+03  0.12700000000E+01 0. -1.
         21   -1    0    0  501  502  0.00000000000E+00 -0.00000000000E+00 -0.51225029009E+02  0.51225029009E+02  0.00000000000E+00 0.  1.
         25    2    1    2    0    0  0.34371405805E+02  0.16552359885E+02  0.23092421002E+03  0.26534110608E+03  0.12499815058E+03 0.  0.
    9000005    1    3    3    0    0 -0.18096465889E+02  0.55247391138E+02  0.65792057450E+02  0.87802910708E+02  0.10000000000E+01 0.  0.
    9000005    1    3    3    0    0  0.52467871694E+02 -0.38695031253E+02  0.16513215257E+03  0.17753819537E+03  0.10000000000E+01 0.  0.
         -4    1    1    2    0  502 -0.34371405805E+02 -0.16552359885E+02 -0.23310711033E+02  0.44725566555E+02  0.12700000000E+01 0.  1.
<mgrwt>
<rscale>  1 0.13069014E+03</rscale>
<asrwt>0</asrwt>
<pdfrwt beam="2">  1       21 0.78807739E-02 0.13069014E+03</pdfrwt>
<pdfrwt beam="1">  1       -4 0.39822762E-01 0.13069014E+03</pdfrwt>
<totfact> 0.30540868E+04</totfact>
</mgrwt>
</event>
<event>
 6    4  0.6195789E-003  0.1904583E+03  0.7818608E-02  0.1158049E+00
         21   -1    0    0  501  502  0.00000000000E+00  0.00000000000E+00  0.60734847463E+03  0.60734847463E+03  0.00000000000E+00 0. -1.
          4   -1    0    0  502    0 -0.00000000000E+00 -0.00000000000E+00 -0.70085552341E+02  0.70097058048E+02  0.12700000000E+01 0.  1.
         25    2    1    2    0    0 -0.18944688656E+02  0.14244423406E+03  0.95824937367E+02  0.21320597332E+03  0.12500042957E+03 0.  0.
    9000005    1    3    3    0    0 -0.11965316805E+02  0.93300510372E+02 -0.11678664471E+02  0.94792115947E+02  0.10000000000E+01 0.  0.
    9000005    1    3    3    0    0 -0.69793718509E+01  0.49143723684E+02  0.10750360184E+03  0.11841385737E+03  0.10000000000E+01 0.  0.
          4    1    1    2  501    0  0.18944688656E+02 -0.14244423406E+03  0.44143798492E+03  0.46423955936E+03  0.12700000000E+01 0. -1.
<mgrwt>
<rscale>  1 0.19045831E+03</rscale>
<asrwt>0</asrwt>
<pdfrwt beam="1">  1       21 0.93438223E-01 0.19045831E+03</pdfrwt>
<pdfrwt beam="2">  1        4 0.10783380E-01 0.19045831E+03</pdfrwt>
<totfact> 0.27033205E+03</totfact>
</mgrwt>
</event>
<event>
 6    4  0.6195789E-003  0.1290549E+03  0.7818608E-02  0.1228865E+00
         21   -1    0    0  501  502  0.00000000000E+00  0.00000000000E+00  0.17794774445E+02  0.17794774445E+02  0.00000000000E+00 0.  1.
         -4   -1    0    0    0  501 -0.00000000000E+00 -0.00000000000E+00 -0.45979598979E+03  0.45979774372E+03  0.12700000000E+01 0.  1.
         25    2    1    2    0    0  0.92620242619E+01  0.30726256798E+02 -0.41808139764E+03  0.43754681266E+03  0.12500108106E+03 0.  0.
    9000005    1    3    3    0    0 -0.18740314570E+02 -0.11171586615E+02 -0.63543936239E+01  0.22746033852E+02  0.10000000000E+01 0.  0.
    9000005    1    3    3    0    0  0.28002338832E+02  0.41897843413E+02 -0.41172700402E+03  0.41480077881E+03  0.10000000000E+01 0.  0.
         -4    1    1    2    0  502 -0.92620242619E+01 -0.30726256798E+02 -0.23919817706E+02  0.40045705504E+02  0.12700000000E+01 0. -1.
<mgrwt>
<rscale>  1 0.12905487E+03</rscale>
<asrwt>0</asrwt>
<pdfrwt beam="1">  1       21 0.27376571E-02 0.12905487E+03</pdfrwt>
<pdfrwt beam="2">  1       -4 0.70741479E-01 0.12905487E+03</pdfrwt>
<totfact> 0.54953668E+04</totfact>
</mgrwt>
</event>
<event>
 6    4  0.6195789E-003  0.1362460E+03  0.7818608E-02  0.1218471E+00
         21   -1    0    0  501  502  0.00000000000E+00  0.00000000000E+00  0.15744883910E+03  0.15744883910E+03  0.00000000000E+00 0.  1.
         -4   -1    0    0    0  501 -0.00000000000E+00 -0.00000000000E+00 -0.75683035207E+02  0.75693690082E+02  0.12700000000E+01 0. -1.
         25    2    1    2    0    0  0.97657162078E+01  0.53320628728E+02  0.14705805200E+01  0.13625396196E+03  0.12499808352E+03 0.  0.
    9000005    1    3    3    0    0 -0.53333217214E+02  0.31132724869E+01  0.12457172805E+02  0.54866252636E+02  0.10000000000E+01 0.  0.
    9000005    1    3    3    0    0  0.63098933422E+02  0.50207356241E+02 -0.10986592285E+02  0.81387709328E+02  0.10000000000E+01 0.  0.
         -4    1    1    2    0  502 -0.97657162078E+01 -0.53320628728E+02  0.80295223372E+02  0.96888567217E+02  0.12700000000E+01 0.  1.
<mgrwt>
<rscale>  1 0.13624603E+03</rscale>
<asrwt>0</asrwt>
<pdfrwt beam="1">  1       21 0.24222898E-01 0.13624603E+03</pdfrwt>
<pdfrwt beam="2">  1       -4 0.11644758E-01 0.13624603E+03</pdfrwt>
<totfact> 0.38288751E+04</totfact>
</mgrwt>
</event>
<event>
 6    4  0.6195789E-003  0.1280756E+03  0.7818608E-02  0.1230339E+00
          4   -1    0    0  502    0 -0.00000000000E+00  0.00000000000E+00  0.19918747333E+03  0.19919152199E+03  0.12700000000E+01 0.  1.
         21   -1    0    0  501  502  0.00000000000E+00 -0.00000000000E+00 -0.34814380836E+02  0.34814380836E+02  0.00000000000E+00 0. -1.
         25    2    1    2    0    0  0.26252773104E+02 -0.93819564591E+01  0.16124912570E+03  0.20592385747E+03  0.12500450126E+03 0.  0.
    9000005    1    3    3    0    0 -0.40755671253E+02 -0.53276230318E+01  0.12902171204E+02  0.43091464679E+02  0.10000000000E+01 0.  0.
    9000005    1    3    3    0    0  0.67008444357E+02 -0.40543334273E+01  0.14834695450E+03  0.16283239280E+03  0.10000000000E+01 0.  0.
          4    1    1    2  501    0 -0.26252773104E+02  0.93819564591E+01  0.31239667948E+01  0.28082045353E+02  0.12700000000E+01 0. -1.
<mgrwt>
<rscale>  1 0.12807558E+03</rscale>
<asrwt>0</asrwt>
<pdfrwt beam="2">  1       21 0.53560587E-02 0.12807558E+03</pdfrwt>
<pdfrwt beam="1">  1        4 0.30646319E-01 0.12807558E+03</pdfrwt>
<totfact> 0.97446824E+04</totfact>
</mgrwt>
</event>
<event>
 6    4  0.6195789E-003  0.1315683E+03  0.7818608E-02  0.1225147E+00
         -4   -1    0    0    0  501 -0.00000000000E+00  0.00000000000E+00  0.11981923851E+04  0.11981930581E+04  0.12700000000E+01 0. -1.
         21   -1    0    0  501  502  0.00000000000E+00 -0.00000000000E+00 -0.11248373461E+02  0.11248373461E+02  0.00000000000E+00 0. -1.
         25    2    1    2    0    0 -0.11141591357E+02  0.39509722064E+02  0.11378606990E+04  0.11454419185E+04  0.12500026084E+03 0.  0.
    9000005    1    3    3    0    0 -0.60256465285E+02  0.20316285519E+02  0.34387631479E+03  0.34970775362E+03  0.10000000000E+01 0.  0.
    9000005    1    3    3    0    0  0.49114873928E+02  0.19193436545E+02  0.79398438416E+03  0.79573416487E+03  0.10000000000E+01 0.  0.
         -4    1    1    2    0  502  0.11141591357E+02 -0.39509722064E+02  0.49083312648E+02  0.63999513092E+02  0.12700000000E+01 0.  1.
<mgrwt>
<rscale>  1 0.13156830E+03</rscale>
<asrwt>0</asrwt>
<pdfrwt beam="2">  1       21 0.17305199E-02 0.13156830E+03</pdfrwt>
<pdfrwt beam="1">  1       -4 0.18434276E+00 0.13156830E+03</pdfrwt>
<totfact> 0.11650290E+04</totfact>
</mgrwt>
</event>
<event>
 6    4  0.6195789E-003  0.1298790E+03  0.7818608E-02  0.1227635E+00
         21   -1    0    0  501  502  0.00000000000E+00  0.00000000000E+00  0.70512340805E+03  0.70512340805E+03  0.00000000000E+00 0.  1.
         -4   -1    0    0    0  501 -0.00000000000E+00 -0.00000000000E+00 -0.18774733146E+02  0.18817638128E+02  0.12700000000E+01 0. -1.
         25    2    1    2    0    0  0.22938613815E+02 -0.26779574863E+02  0.21436931950E+03  0.25064467977E+03  0.12500089887E+03 0.  0.
    9000005    1    3    3    0    0  0.32375784730E+02  0.31157213549E+02  0.17320789001E+03  0.17894394808E+03  0.10000000000E+01 0.  0.
    9000005    1    3    3    0    0 -0.94371709149E+01 -0.57936788412E+02  0.41161429495E+02  0.71700731687E+02  0.10000000000E+01 0.  0.
         -4    1    1    2    0  502 -0.22938613815E+02  0.26779574863E+02  0.47197935540E+03  0.47329636641E+03  0.12700000000E+01 0.  1.
<mgrwt>
<rscale>  1 0.12987898E+03</rscale>
<asrwt>0</asrwt>
<pdfrwt beam="1">  1       21 0.10848050E+00 0.12987898E+03</pdfrwt>
<pdfrwt beam="2">  1       -4 0.28918094E-02 0.12987898E+03</pdfrwt>
<totfact> 0.15910332E+04</totfact>
</mgrwt>
</event>
<event>
 6    4  0.6195789E-003  0.1269888E+03  0.7818608E-02  0.1231993E+00
         -4   -1    0    0    0  501 -0.00000000000E+00  0.00000000000E+00  0.77535507323E+01  0.78568727212E+01  0.12700000000E+01 0. -1.
         21   -1    0    0  501  502  0.00000000000E+00 -0.00000000000E+00 -0.71716408075E+03  0.71716408075E+03  0.00000000000E+00 0. -1.
         25    2    1    2    0    0 -0.21765404672E+02 -0.54688265363E+01 -0.58967261352E+03  0.60319147242E+03  0.12499008108E+03 0.  0.
    9000005    1    3    3    0    0 -0.69342703728E+02  0.16107422866E+02 -0.40754059429E+03  0.41371269696E+03  0.10000000000E+01 0.  0.
    9000005    1    3    3    0    0  0.47577299056E+02 -0.21576249402E+02 -0.18213201923E+03  0.18947877547E+03  0.10000000000E+01 0.  0.
         -4    1    1    2    0  502  0.21765404672E+02  0.54688265363E+01 -0.11973791650E+03  0.12182948104E+03  0.12700000000E+01 0.  1.
<mgrwt>
<rscale>  1 0.12698882E+03</rscale>
<asrwt>0</asrwt>
<pdfrwt beam="2">  1       21 0.11033295E+00 0.12698882E+03</pdfrwt>
<pdfrwt beam="1">  1       -4 0.12008881E-02 0.12698882E+03</pdfrwt>
<totfact> 0.58796441E+04</totfact>
</mgrwt>
</event>
<event>
 6    4  0.6195789E-003  0.1286102E+03  0.7818608E-02  0.1229533E+00
         21   -1    0    0  501  502  0.00000000000E+00  0.00000000000E+00  0.14415572275E+04  0.14415572275E+04  0.00000000000E+00 0. -1.
         -4   -1    0    0    0  501 -0.00000000000E+00 -0.00000000000E+00 -0.91632999587E+01  0.92508900185E+01  0.12700000000E+01 0.  1.
         25    2    1    2    0    0 -0.19071765002E+02 -0.23669758181E+02  0.45196817967E+03  0.46991044209E+03  0.12496638939E+03 0.  0.
    9000005    1    3    3    0    0  0.35451820430E+02 -0.46401606724E+02  0.12930372970E+03  0.14188162387E+03  0.10000000000E+01 0.  0.
    9000005    1    3    3    0    0 -0.54523585433E+02  0.22731848543E+02  0.32266444997E+03  0.32802881822E+03  0.10000000000E+01 0.  0.
         -4    1    1    2    0  502  0.19071765002E+02  0.23669758181E+02  0.98042574788E+03  0.98089767544E+03  0.12700000000E+01 0. -1.
<mgrwt>
<rscale>  1 0.12861022E+03</rscale>
<asrwt>0</asrwt>
<pdfrwt beam="1">  1       21 0.22177786E+00 0.12861022E+03</pdfrwt>
<pdfrwt beam="2">  1       -4 0.14165203E-02 0.12861022E+03</pdfrwt>
<totfact> 0.71676486E+03</totfact>
</mgrwt>
</event>
<event>
 6    4  0.6195789E-003  0.1273032E+03  0.7818608E-02  0.1231513E+00
         21   -1    0    0  501  502  0.00000000000E+00  0.00000000000E+00  0.32912989511E+03  0.32912989511E+03  0.00000000000E+00 0.  1.
          4   -1    0    0  502    0 -0.00000000000E+00 -0.00000000000E+00 -0.27720164902E+02  0.27749242192E+02  0.12700000000E+01 0. -1.
         25    2    1    2    0    0  0.39111928556E+01  0.23790776118E+02  0.12358944363E+03  0.17742728950E+03  0.12499917611E+03 0.  0.
    9000005    1    3    3    0    0  0.43226196890E+02  0.43469883948E+02  0.19352663535E+02  0.64293549396E+02  0.10000000000E+01 0.  0.
    9000005    1    3    3    0    0 -0.39315004034E+02 -0.19679107830E+02  0.10423678009E+03  0.11313374011E+03  0.10000000000E+01 0.  0.
          4    1    1    2  501    0 -0.39111928556E+01 -0.23790776118E+02  0.17782028658E+03  0.17945184779E+03  0.12700000000E+01 0.  1.
<mgrwt>
<rscale>  1 0.12730315E+03</rscale>
<asrwt>0</asrwt>
<pdfrwt beam="1">  1       21 0.50635366E-01 0.12730315E+03</pdfrwt>
<pdfrwt beam="2">  1        4 0.42670662E-02 0.12730315E+03</pdfrwt>
<totfact> 0.46331238E+04</totfact>
</mgrwt>
</event>
<event>
 6    4  0.6195789E-003  0.1267715E+03  0.7818608E-02  0.1232326E+00
          4   -1    0    0  502    0 -0.00000000000E+00  0.00000000000E+00  0.13381534734E+01  0.18448725480E+01  0.12700000000E+01 0. -1.
         21   -1    0    0  501  502  0.00000000000E+00 -0.00000000000E+00 -0.37941187618E+04  0.37941187618E+04  0.00000000000E+00 0. -1.
         25    2    1    2    0    0 -0.98964526704E+00  0.21097182798E+02 -0.26959235316E+04  0.26989025011E+04  0.12499980576E+03 0.  0.
    9000005    1    3    3    0    0  0.33789810807E+02  0.15879361986E+02 -0.25453893986E+03  0.25726441137E+03  0.10000000000E+01 0.  0.
    9000005    1    3    3    0    0 -0.34779456074E+02  0.52178208120E+01 -0.24413845917E+04  0.24416380897E+04  0.10000000000E+01 0.  0.
          4    1    1    2  501    0  0.98964526704E+00 -0.21097182798E+02 -0.10968570767E+04  0.10970611333E+04  0.12700000000E+01 0.  1.
<mgrwt>
<rscale>  1 0.12677153E+03</rscale>
<asrwt>0</asrwt>
<pdfrwt beam="2">  1       21 0.58370342E+00 0.12677153E+03</pdfrwt>
<pdfrwt beam="1">  1        4 0.24486751E-03 0.12677153E+03</pdfrwt>
<totfact> 0.49068601E+02</totfact>
</mgrwt>
</event>
<event>
 6    4  0.6195789E-003  0.1267189E+03  0.7818608E-02  0.1232407E+00
         21   -1    0    0  501  502  0.00000000000E+00  0.00000000000E+00  0.42804298270E+02  0.42804298270E+02  0.00000000000E+00 0. -1.
          4   -1    0    0  502    0 -0.00000000000E+00 -0.00000000000E+00 -0.55731723350E+03  0.55731868052E+03  0.12700000000E+01 0.  1.
         25    2    1    2    0    0 -0.63720495048E+01 -0.19463720125E+02 -0.54711652679E+03  0.56159965471E+03  0.12505294424E+03 0.  0.
    9000005    1    3    3    0    0 -0.38787134719E+02 -0.46717772676E+02 -0.14425130383E+03  0.15651335649E+03  0.10000000000E+01 0.  0.
    9000005    1    3    3    0    0  0.32415085214E+02  0.27254052551E+02 -0.40286522297E+03  0.40508629822E+03  0.10000000000E+01 0.  0.
          4    1    1    2  501    0  0.63720495048E+01  0.19463720125E+02  0.32603591559E+02  0.38523324085E+02  0.12700000000E+01 0. -1.
<mgrwt>
<rscale>  1 0.12671889E+03</rscale>
<asrwt>0</asrwt>
<pdfrwt beam="1">  1       21 0.65852767E-02 0.12671889E+03</pdfrwt>
<pdfrwt beam="2">  1        4 0.85742673E-01 0.12671889E+03</pdfrwt>
<totfact> 0.83226233E+03</totfact>
</mgrwt>
</event>
<event>
 6    4  0.6195789E-003  0.1273767E+03  0.7818608E-02  0.1231401E+00
         21   -1    0    0  501  502  0.00000000000E+00  0.00000000000E+00  0.18765092607E+03  0.18765092607E+03  0.00000000000E+00 0. -1.
          4   -1    0    0  502    0 -0.00000000000E+00 -0.00000000000E+00 -0.13966125621E+04  0.13966131395E+04  0.12700000000E+01 0.  1.
         25    2    1    2    0    0 -0.29357780170E+01 -0.24328221114E+02 -0.13928920768E+04  0.13987040993E+04  0.12499735440E+03 0.  0.
    9000005    1    3    3    0    0 -0.10420876620E+02  0.42560269082E+02 -0.24861115612E+03  0.25244500019E+03  0.10000000000E+01 0.  0.
    9000005    1    3    3    0    0  0.74850986025E+01 -0.66888490196E+02 -0.11442809207E+04  0.11462590991E+04  0.10000000000E+01 0.  0.
          4    1    1    2  501    0  0.29357780170E+01  0.24328221114E+02  0.18393044080E+03  0.18555996629E+03  0.12700000000E+01 0. -1.
<mgrwt>
<rscale>  1 0.12737668E+03</rscale>
<asrwt>0</asrwt>
<pdfrwt beam="1">  1       21 0.28869373E-01 0.12737668E+03</pdfrwt>
<pdfrwt beam="2">  1        4 0.21486384E+00 0.12737668E+03</pdfrwt>
<totfact> 0.58125671E+01</totfact>
</mgrwt>
</event>
<event>
 6    4  0.6195789E-003  0.1270868E+03  0.7818608E-02  0.1231844E+00
          4   -1    0    0  502    0 -0.00000000000E+00  0.00000000000E+00  0.30812747867E+02  0.30838909369E+02  0.12700000000E+01 0. -1.
         21   -1    0    0  501  502  0.00000000000E+00 -0.00000000000E+00 -0.18349878399E+03  0.18349878399E+03  0.00000000000E+00 0. -1.
         25    2    1    2    0    0  0.22462394726E+02 -0.46350830887E+01 -0.12365286621E+03  0.17731633429E+03  0.12500003165E+03 0.  0.
    9000005    1    3    3    0    0  0.55840880392E+02  0.39518507888E+02 -0.48016823119E+02  0.83585475360E+02  0.10000000000E+01 0.  0.
    9000005    1    3    3    0    0 -0.33378485666E+02 -0.44153590977E+02 -0.75636043086E+02  0.93730858927E+02  0.10000000000E+01 0.  0.
          4    1    1    2  501    0 -0.22462394726E+02  0.46350830887E+01 -0.29033169917E+02  0.37021359072E+02  0.12700000000E+01 0.  1.
<mgrwt>
<rscale>  1 0.12708679E+03</rscale>
<asrwt>0</asrwt>
<pdfrwt beam="2">  1       21 0.28230583E-01 0.12708679E+03</pdfrwt>
<pdfrwt beam="1">  1        4 0.47427731E-02 0.12708679E+03</pdfrwt>
<totfact> 0.12484262E+05</totfact>
</mgrwt>
</event>
<event>
 6    4  0.6195789E-003  0.1305214E+03  0.7818608E-02  0.1226684E+00
          4   -1    0    0  502    0 -0.00000000000E+00  0.00000000000E+00  0.11871165341E+03  0.11871844656E+03  0.12700000000E+01 0. -1.
         21   -1    0    0  501  502  0.00000000000E+00 -0.00000000000E+00 -0.69354785486E+02  0.69354785486E+02  0.00000000000E+00 0.  1.
         25    2    1    2    0    0  0.28628391816E+01  0.37447410981E+02  0.66824806698E+02  0.14663356238E+03  0.12500136954E+03 0.  0.
    9000005    1    3    3    0    0 -0.57106813907E+00  0.51186394317E+02  0.99005420383E+02  0.11146051474E+03  0.10000000000E+01 0.  0.
    9000005    1    3    3    0    0  0.34339073207E+01 -0.13738983335E+02 -0.32180613685E+02  0.35173047632E+02  0.10000000000E+01 0.  0.
          4    1    1    2  501    0 -0.28628391816E+01 -0.37447410981E+02 -0.17467938778E+02  0.41439669672E+02  0.12700000000E+01 0.  1.
<mgrwt>
<rscale>  1 0.13052144E+03</rscale>
<asrwt>0</asrwt>
<pdfrwt beam="2">  1       21 0.10669967E-01 0.13052144E+03</pdfrwt>
<pdfrwt beam="1">  1        4 0.18264748E-01 0.13052144E+03</pdfrwt>
<totfact> 0.77161800E+04</totfact>
</mgrwt>
</event>
<event>
 6    4  0.6195789E-003  0.1469908E+03  0.7818608E-02  0.1204220E+00
         21   -1    0    0  501  502  0.00000000000E+00  0.00000000000E+00  0.22406739835E+03  0.22406739835E+03  0.00000000000E+00 0.  1.
         -4   -1    0    0    0  501 -0.00000000000E+00 -0.00000000000E+00 -0.80379797852E+02  0.80389830219E+02  0.12700000000E+01 0. -1.
         25    2    1    2    0    0  0.57224877121E+02 -0.52029704894E+02  0.67052161980E+01  0.14714364600E+03  0.12499806351E+03 0.  0.
    9000005    1    3    3    0    0  0.13189013531E+02  0.34665941042E+02  0.29337971220E+02  0.47301100426E+02  0.10000000000E+01 0.  0.
    9000005    1    3    3    0    0  0.44035863590E+02 -0.86695645936E+02 -0.22632755022E+02  0.99842545572E+02  0.10000000000E+01 0.  0.
         -4    1    1    2    0  502 -0.57224877121E+02  0.52029704894E+02  0.13698238430E+03  0.15731358257E+03  0.12700000000E+01 0.  1.
<mgrwt>
<rscale>  1 0.14699079E+03</rscale>
<asrwt>0</asrwt>
<pdfrwt beam="1">  1       21 0.34471907E-01 0.14699079E+03</pdfrwt>
<pdfrwt beam="2">  1       -4 0.12367171E-01 0.14699079E+03</pdfrwt>
<totfact> 0.17635529E+04</totfact>
</mgrwt>
</event>
<event>
 6    4  0.6195789E-003  0.1283131E+03  0.7818608E-02  0.1229981E+00
         21   -1    0    0  501  502  0.00000000000E+00  0.00000000000E+00  0.36477723215E+03  0.36477723215E+03  0.00000000000E+00 0. -1.
         -4   -1    0    0    0  501 -0.00000000000E+00 -0.00000000000E+00 -0.27067778056E+02  0.27097555404E+02  0.12700000000E+01 0.  1.
         25    2    1    2    0    0  0.17406013995E+02  0.23172067129E+02  0.13184495493E+03  0.18397644958E+03  0.12499731133E+03 0.  0.
    9000005    1    3    3    0    0 -0.53668435348E+02  0.16326255299E+02  0.68272077158E+02  0.88368116899E+02  0.10000000000E+01 0.  0.
    9000005    1    3    3    0    0  0.71074449343E+02  0.68458118304E+01  0.63572877775E+02  0.95608332679E+02  0.10000000000E+01 0.  0.
         -4    1    1    2    0  502 -0.17406013995E+02 -0.23172067129E+02  0.20586449916E+03  0.20789833798E+03  0.12700000000E+01 0. -1.
<mgrwt>
<rscale>  1 0.12831306E+03</rscale>
<asrwt>0</asrwt>
<pdfrwt beam="1">  1       21 0.56119571E-01 0.12831306E+03</pdfrwt>
<pdfrwt beam="2">  1       -4 0.41667344E-02 0.12831306E+03</pdfrwt>
<totfact> 0.38875179E+04</totfact>
</mgrwt>
</event>
<event>
 6    4  0.6195789E-003  0.1287638E+03  0.7818608E-02  0.1229302E+00
          4   -1    0    0  502    0 -0.00000000000E+00  0.00000000000E+00  0.49292218893E+03  0.49292382499E+03  0.12700000000E+01 0. -1.
         21   -1    0    0  501  502  0.00000000000E+00 -0.00000000000E+00 -0.30931795455E+02  0.30931795455E+02  0.00000000000E+00 0.  1.
         25    2    1    2    0    0  0.11180115753E+02  0.28821122071E+02  0.47361304651E+03  0.49080488627E+03  0.12499786596E+03 0.  0.
    9000005    1    3    3    0    0 -0.67330023771E+01 -0.37226165016E+02  0.55792692599E+02  0.67416208957E+02  0.10000000000E+01 0.  0.
    9000005    1    3    3    0    0  0.17913118130E+02  0.66047287086E+02  0.41782035391E+03  0.42338867731E+03  0.10000000000E+01 0.  0.
          4    1    1    2  501    0 -0.11180115753E+02 -0.28821122071E+02 -0.11622653037E+02  0.33050734172E+02  0.12700000000E+01 0.  1.
<mgrwt>
<rscale>  1 0.12876381E+03</rscale>
<asrwt>0</asrwt>
<pdfrwt beam="2">  1       21 0.47587381E-02 0.12876381E+03</pdfrwt>
<pdfrwt beam="1">  1        4 0.75836308E-01 0.12876381E+03</pdfrwt>
<totfact> 0.18930596E+04</totfact>
</mgrwt>
</event>
<event>
 6    4  0.6195789E-003  0.1266567E+03  0.7818608E-02  0.1232503E+00
          4   -1    0    0  502    0 -0.00000000000E+00  0.00000000000E+00  0.42600131312E+02  0.42619057800E+02  0.12700000000E+01 0. -1.
         21   -1    0    0  501  502  0.00000000000E+00 -0.00000000000E+00 -0.16127351757E+03  0.16127351757E+03  0.00000000000E+00 0. -1.
         25    2    1    2    0    0 -0.13740744162E+02 -0.15106030793E+02 -0.56958783655E+02  0.13887484478E+03  0.12499967704E+03 0.  0.
    9000005    1    3    3    0    0 -0.21696010437E+02 -0.61055643810E+02  0.57826264645E+00  0.64806194902E+02  0.10000000000E+01 0.  0.
    9000005    1    3    3    0    0  0.79552662751E+01  0.45949613017E+02 -0.57537046301E+02  0.74068649880E+02  0.10000000000E+01 0.  0.
          4    1    1    2  501    0  0.13740744162E+02  0.15106030793E+02 -0.61714602607E+02  0.65017730592E+02  0.12700000000E+01 0.  1.
<mgrwt>
<rscale>  1 0.12665670E+03</rscale>
<asrwt>0</asrwt>
<pdfrwt beam="2">  1       21 0.24811310E-01 0.12665670E+03</pdfrwt>
<pdfrwt beam="1">  1        4 0.65557069E-02 0.12665670E+03</pdfrwt>
<totfact> 0.94528112E+04</totfact>
</mgrwt>
</event>
<event>
 6    4  0.6195789E-003  0.1310995E+03  0.7818608E-02  0.1225833E+00
         21   -1    0    0  501  502  0.00000000000E+00  0.00000000000E+00  0.15678764491E+03  0.15678764491E+03  0.00000000000E+00 0. -1.
         -4   -1    0    0    0  501 -0.00000000000E+00 -0.00000000000E+00 -0.60786401698E+02  0.60799667198E+02  0.12700000000E+01 0.  1.
         25    2    1    2    0    0 -0.37905298413E+02  0.11202496369E+02  0.20961592305E+02  0.13276473445E+03  0.12499911515E+03 0.  0.
    9000005    1    3    3    0    0 -0.26169283425E+01  0.54265671757E+02 -0.25705363733E+02  0.60111373049E+02  0.10000000000E+01 0.  0.
    9000005    1    3    3    0    0 -0.35288370071E+02 -0.43063175388E+02  0.46666956039E+02  0.72653361399E+02  0.10000000000E+01 0.  0.
         -4    1    1    2    0  502  0.37905298413E+02 -0.11202496369E+02  0.75039650901E+02  0.84822577655E+02  0.12700000000E+01 0. -1.
<mgrwt>
<rscale>  1 0.13109953E+03</rscale>
<asrwt>0</asrwt>
<pdfrwt beam="1">  1       21 0.24121176E-01 0.13109953E+03</pdfrwt>
<pdfrwt beam="2">  1       -4 0.93531702E-02 0.13109953E+03</pdfrwt>
<totfact> 0.55654049E+04</totfact>
</mgrwt>
</event>
<event>
 6    4  0.6195789E-003  0.1373588E+03  0.7818608E-02  0.1216928E+00
         21   -1    0    0  501  502  0.00000000000E+00  0.00000000000E+00  0.11627786024E+02  0.11627786024E+02  0.00000000000E+00 0. -1.
         -4   -1    0    0    0  501 -0.00000000000E+00 -0.00000000000E+00 -0.11429451772E+04  0.11429458828E+04  0.12700000000E+01 0. -1.
         25    2    1    2    0    0  0.61206848768E+01  0.56601871795E+02 -0.10231770238E+04  0.10323558852E+04  0.12500486798E+03 0.  0.
    9000005    1    3    3    0    0  0.14688165515E+02  0.66732483561E+01 -0.12561727780E+02  0.20471234810E+02  0.10000000000E+01 0.  0.
    9000005    1    3    3    0    0 -0.85674806382E+01  0.49928623439E+02 -0.10106152960E+04  0.10118846504E+04  0.10000000000E+01 0.  0.
         -4    1    1    2    0  502 -0.61206848768E+01 -0.56601871795E+02 -0.10814036742E+03  0.12221778365E+03  0.12700000000E+01 0.  1.
<mgrwt>
<rscale>  1 0.13735884E+03</rscale>
<asrwt>0</asrwt>
<pdfrwt beam="1">  1       21 0.17888904E-02 0.13735884E+03</pdfrwt>
<pdfrwt beam="2">  1       -4 0.17584309E+00 0.13735884E+03</pdfrwt>
<totfact> 0.12606884E+04</totfact>
</mgrwt>
</event>
<event>
 6    4  0.6195789E-003  0.1270333E+03  0.7818608E-02  0.1231925E+00
         21   -1    0    0  501  502  0.00000000000E+00  0.00000000000E+00  0.60969699760E+03  0.60969699760E+03  0.00000000000E+00 0. -1.
          4   -1    0    0  502    0 -0.00000000000E+00 -0.00000000000E+00 -0.18255074156E+02  0.18299197590E+02  0.12700000000E+01 0.  1.
         25    2    1    2    0    0 -0.14026384051E+02 -0.17787399537E+02  0.20690349646E+03  0.24278904864E+03  0.12499733700E+03 0.  0.
    9000005    1    3    3    0    0 -0.68651085919E+01 -0.69500129146E+02  0.83942167773E+02  0.10920020695E+03  0.10000000000E+01 0.  0.
    9000005    1    3    3    0    0 -0.71612754590E+01  0.51712729609E+02  0.12296132869E+03  0.13358884169E+03  0.10000000000E+01 0.  0.
          4    1    1    2  501    0  0.14026384051E+02  0.17787399537E+02  0.38453842698E+03  0.38520714655E+03  0.12700000000E+01 0. -1.
<mgrwt>
<rscale>  1 0.12703332E+03</rscale>
<asrwt>0</asrwt>
<pdfrwt beam="1">  1       21 0.93799522E-01 0.12703332E+03</pdfrwt>
<pdfrwt beam="2">  1        4 0.28119693E-02 0.12703332E+03</pdfrwt>
<totfact> 0.23339899E+04</totfact>
</mgrwt>
</event>
<event>
 6    4  0.6195789E-003  0.1318911E+03  0.7818608E-02  0.1224676E+00
         21   -1    0    0  501  502  0.00000000000E+00  0.00000000000E+00  0.50905304817E+03  0.50905304817E+03  0.00000000000E+00 0.  1.
         -4   -1    0    0    0  501 -0.00000000000E+00 -0.00000000000E+00 -0.15281448828E+02  0.15334131156E+02  0.12700000000E+01 0. -1.
         25    2    1    2    0    0  0.39644507552E+02 -0.14063915443E+02  0.33218936095E+03  0.35741438705E+03  0.12500316734E+03 0.  0.
    9000005    1    3    3    0    0  0.53101720095E+02  0.46028172170E+02  0.18027964103E+03  0.19349453295E+03  0.10000000000E+01 0.  0.
    9000005    1    3    3    0    0 -0.13457212543E+02 -0.60092087613E+02  0.15190971992E+03  0.16391985410E+03  0.10000000000E+01 0.  0.
         -4    1    1    2    0  502 -0.39644507552E+02  0.14063915443E+02  0.16158223840E+03  0.16697279228E+03  0.12700000000E+01 0.  1.
<mgrwt>
<rscale>  1 0.13189114E+03</rscale>
<asrwt>0</asrwt>
<pdfrwt beam="1">  1       21 0.78315840E-01 0.13189114E+03</pdfrwt>
<pdfrwt beam="2">  1       -4 0.23551669E-02 0.13189114E+03</pdfrwt>
<totfact> 0.46423321E+04</totfact>
</mgrwt>
</event>
<event>
 6    4  0.6195789E-003  0.1280523E+03  0.7818608E-02  0.1230375E+00
         21   -1    0    0  501  502  0.00000000000E+00  0.00000000000E+00  0.10412994374E+03  0.10412994374E+03  0.00000000000E+00 0.  1.
          4   -1    0    0  502    0 -0.00000000000E+00 -0.00000000000E+00 -0.22486848701E+03  0.22487207330E+03  0.12700000000E+01 0. -1.
         25    2    1    2    0    0  0.20206640872E+02  0.19081341391E+02 -0.20419809246E+03  0.24102750268E+03  0.12499996063E+03 0.  0.
    9000005    1    3    3    0    0 -0.94197789851E+01  0.51008573957E+02 -0.26870193613E+02  0.58426142762E+02  0.10000000000E+01 0.  0.
    9000005    1    3    3    0    0  0.29626419858E+02 -0.31927232566E+02 -0.17732789885E+03  0.18260135992E+03  0.10000000000E+01 0.  0.
          4    1    1    2  501    0 -0.20206640872E+02 -0.19081341391E+02  0.83459549193E+02  0.87974514355E+02  0.12700000000E+01 0.  1.
<mgrwt>
<rscale>  1 0.12805232E+03</rscale>
<asrwt>0</asrwt>
<pdfrwt beam="1">  1       21 0.16019992E-01 0.12805232E+03</pdfrwt>
<pdfrwt beam="2">  1        4 0.34596023E-01 0.12805232E+03</pdfrwt>
<totfact> 0.11454964E+04</totfact>
</mgrwt>
</event>
<event>
 6    4  0.6195789E-003  0.1540595E+03  0.7818608E-02  0.1195572E+00
         21   -1    0    0  501  502  0.00000000000E+00  0.00000000000E+00  0.45646593729E+03  0.45646593729E+03  0.00000000000E+00 0.  1.
         -4   -1    0    0    0  501 -0.00000000000E+00 -0.00000000000E+00 -0.33700091500E+02  0.33724013211E+02  0.12700000000E+01 0. -1.
         25    2    1    2    0    0  0.89959321205E+02  0.41482606776E+01  0.30727689618E+03  0.34373450362E+03  0.12499772204E+03 0.  0.
    9000005    1    3    3    0    0  0.10347751244E+03  0.38171962629E+02  0.26911602975E+03  0.29084210799E+03  0.10000000000E+01 0.  0.
    9000005    1    3    3    0    0 -0.13518191239E+02 -0.34023701952E+02  0.38160866430E+02  0.52892395631E+02  0.10000000000E+01 0.  0.
         -4    1    1    2    0  502 -0.89959321205E+02 -0.41482606776E+01  0.11548894961E+03  0.14645544688E+03  0.12700000000E+01 0.  1.
<mgrwt>
<rscale>  1 0.15405946E+03</rscale>
<asrwt>0</asrwt>
<pdfrwt beam="1">  1       21 0.70225524E-01 0.15405946E+03</pdfrwt>
<pdfrwt beam="2">  1       -4 0.51866058E-02 0.15405946E+03</pdfrwt>
<totfact> 0.17192663E+04</totfact>
</mgrwt>
</event>
<event>
 6    4  0.6195789E-003  0.1486236E+03  0.7818608E-02  0.1202175E+00
          4   -1    0    0  502    0 -0.00000000000E+00  0.00000000000E+00  0.87135074006E+02  0.87144328685E+02  0.12700000000E+01 0.  1.
         21   -1    0    0  501  502  0.00000000000E+00 -0.00000000000E+00 -0.17084257290E+03  0.17084257290E+03  0.00000000000E+00 0. -1.
         25    2    1    2    0    0 -0.35931368516E+02  0.71922737445E+02 -0.10086040860E+02  0.14896545696E+03  0.12500014297E+03 0.  0.
    9000005    1    3    3    0    0 -0.42056629592E+02  0.54086123984E+02  0.50748373966E+02  0.85267029739E+02  0.10000000000E+01 0.  0.
    9000005    1    3    3    0    0  0.61252610759E+01  0.17836613461E+02 -0.60834414826E+02  0.63698427220E+02  0.10000000000E+01 0.  0.
          4    1    1    2  501    0  0.35931368516E+02 -0.71922737445E+02 -0.73621458030E+02  0.10902144462E+03  0.12700000000E+01 0. -1.
<mgrwt>
<rscale>  1 0.14862362E+03</rscale>
<asrwt>0</asrwt>
<pdfrwt beam="2">  1       21 0.26283472E-01 0.14862362E+03</pdfrwt>
<pdfrwt beam="1">  1        4 0.13406471E-01 0.14862362E+03</pdfrwt>
<totfact> 0.25972810E+04</totfact>
</mgrwt>
</event>
<event>
 6    4  0.6195789E-003  0.1374820E+03  0.7818608E-02  0.1216758E+00
         -4   -1    0    0    0  501 -0.00000000000E+00  0.00000000000E+00  0.29647248214E+03  0.29647520228E+03  0.12700000000E+01 0.  1.
         21   -1    0    0  501  502  0.00000000000E+00 -0.00000000000E+00 -0.45137995669E+02  0.45137995669E+02  0.00000000000E+00 0. -1.
         25    2    1    2    0    0 -0.22656462100E+02 -0.52564479501E+02  0.24885471532E+03  0.28430611335E+03  0.12499982790E+03 0.  0.
    9000005    1    3    3    0    0 -0.52231282618E+02  0.18278986509E+02  0.66963535922E+02  0.86875447480E+02  0.10000000000E+01 0.  0.
    9000005    1    3    3    0    0  0.29574820518E+02 -0.70843466010E+02  0.18189117939E+03  0.19743066587E+03  0.10000000000E+01 0.  0.
         -4    1    1    2    0  502  0.22656462100E+02  0.52564479501E+02  0.24797711568E+01  0.57307084598E+02  0.12700000000E+01 0. -1.
<mgrwt>
<rscale>  1 0.13748199E+03</rscale>
<asrwt>0</asrwt>
<pdfrwt beam="2">  1       21 0.69443072E-02 0.13748199E+03</pdfrwt>
<pdfrwt beam="1">  1       -4 0.45612734E-01 0.13748199E+03</pdfrwt>
<totfact> 0.29149869E+04</totfact>
</mgrwt>
</event>
<event>
 6    4  0.6195789E-003  0.1308710E+03  0.7818608E-02  0.1226169E+00
         21   -1    0    0  501  502  0.00000000000E+00  0.00000000000E+00  0.68263345994E+02  0.68263345994E+02  0.00000000000E+00 0.  1.
          4   -1    0    0  502    0 -0.00000000000E+00 -0.00000000000E+00 -0.14689076254E+03  0.14689625257E+03  0.12700000000E+01 0. -1.
         25    2    1    2    0    0  0.33599742263E+02  0.19318441951E+02 -0.10540025366E+03  0.16803696508E+03  0.12500025313E+03 0.  0.
    9000005    1    3    3    0    0  0.17648332764E+02  0.57933597266E+02 -0.11042269271E+03  0.12594417973E+03  0.10000000000E+01 0.  0.
    9000005    1    3    3    0    0  0.15951409499E+02 -0.38615155315E+02  0.50224390456E+01  0.42092785356E+02  0.10000000000E+01 0.  0.
          4    1    1    2  501    0 -0.33599742263E+02 -0.19318441951E+02  0.26772837115E+02  0.47122633487E+02  0.12700000000E+01 0.  1.
<mgrwt>
<rscale>  1 0.13087096E+03</rscale>
<asrwt>0</asrwt>
<pdfrwt beam="1">  1       21 0.10502053E-01 0.13087096E+03</pdfrwt>
<pdfrwt beam="2">  1        4 0.22599910E-01 0.13087096E+03</pdfrwt>
<totfact> 0.54086613E+04</totfact>
</mgrwt>
</event>
<event>
 6    4  0.6195789E-003  0.1280859E+03  0.7818608E-02  0.1230324E+00
         21   -1    0    0  501  502  0.00000000000E+00  0.00000000000E+00  0.27526902892E+02  0.27526902892E+02  0.00000000000E+00 0.  1.
          4   -1    0    0  502    0 -0.00000000000E+00 -0.00000000000E+00 -0.24643934763E+03  0.24644262001E+03  0.12700000000E+01 0.  1.
         25    2    1    2    0    0 -0.27834516720E+02  0.26161578966E+01 -0.13766075072E+03  0.18803317853E+03  0.12499755733E+03 0.  0.
    9000005    1    3    3    0    0 -0.13088664678E+02  0.59827066905E+02 -0.37726192607E+02  0.71936476743E+02  0.10000000000E+01 0.  0.
    9000005    1    3    3    0    0 -0.14745852041E+02 -0.57210909009E+02 -0.99934558109E+02  0.11609670179E+03  0.10000000000E+01 0.  0.
          4    1    1    2  501    0  0.27834516720E+02 -0.26161578966E+01 -0.81251694021E+02  0.85936344374E+02  0.12700000000E+01 0. -1.
<mgrwt>
<rscale>  1 0.12808589E+03</rscale>
<asrwt>0</asrwt>
<pdfrwt beam="1">  1       21 0.42349081E-02 0.12808589E+03</pdfrwt>
<pdfrwt beam="2">  1        4 0.37916252E-01 0.12808589E+03</pdfrwt>
<totfact> 0.95957859E+04</totfact>
</mgrwt>
</event>
<event>
 6    4  0.6195789E-003  0.1287173E+03  0.7818608E-02  0.1229372E+00
          4   -1    0    0  502    0 -0.00000000000E+00  0.00000000000E+00  0.63001851301E+02  0.63014650418E+02  0.12700000000E+01 0.  1.
         21   -1    0    0  501  502  0.00000000000E+00 -0.00000000000E+00 -0.10638383898E+03  0.10638383898E+03  0.00000000000E+00 0.  1.
         25    2    1    2    0    0  0.30565466779E+02 -0.15015919666E+01 -0.18712391515E+02  0.13007032630E+03  0.12502653178E+03 0.  0.
    9000005    1    3    3    0    0  0.65897868564E+02  0.37645528788E+02 -0.88634150283E+01  0.76415149315E+02  0.10000000000E+01 0.  0.
    9000005    1    3    3    0    0 -0.35332401784E+02 -0.39147120754E+02 -0.98489764866E+01  0.53655176983E+02  0.10000000000E+01 0.  0.
          4    1    1    2  501    0 -0.30565466779E+02  0.15015919666E+01 -0.24669596164E+02  0.39328163099E+02  0.12700000000E+01 0. -1.
<mgrwt>
<rscale>  1 0.12871727E+03</rscale>
<asrwt>0</asrwt>
<pdfrwt beam="2">  1       21 0.16366744E-01 0.12871727E+03</pdfrwt>
<pdfrwt beam="1">  1        4 0.96941602E-02 0.12871727E+03</pdfrwt>
<totfact> 0.10708267E+05</totfact>
</mgrwt>
</event>
<event>
 6    4  0.6195789E-003  0.1268743E+03  0.7818608E-02  0.1232169E+00
          4   -1    0    0  502    0 -0.00000000000E+00  0.00000000000E+00  0.40203305705E+02  0.40223359999E+02  0.12700000000E+01 0.  1.
         21   -1    0    0  501  502  0.00000000000E+00 -0.00000000000E+00 -0.13986475686E+03  0.13986475686E+03  0.00000000000E+00 0.  1.
         25    2    1    2    0    0 -0.55885801729E+01  0.20965909553E+02 -0.75718081335E+02  0.14775084038E+03  0.12500512550E+03 0.  0.
    9000005    1    3    3    0    0  0.58693296934E+02  0.98836396425E+01 -0.22785239155E+02  0.63739756517E+02  0.10000000000E+01 0.  0.
    9000005    1    3    3    0    0 -0.64281877107E+02  0.11082269910E+02 -0.52932842180E+02  0.84011083864E+02  0.10000000000E+01 0.  0.
          4    1    1    2  501    0  0.55885801729E+01 -0.20965909553E+02 -0.23943369818E+02  0.32337276477E+02  0.12700000000E+01 0. -1.
<mgrwt>
<rscale>  1 0.12687428E+03</rscale>
<asrwt>0</asrwt>
<pdfrwt beam="2">  1       21 0.21517655E-01 0.12687428E+03</pdfrwt>
<pdfrwt beam="1">  1        4 0.61871100E-02 0.12687428E+03</pdfrwt>
<totfact> 0.13568167E+05</totfact>
</mgrwt>
</event>
<event>
 6    4  0.6195789E-003  0.1425452E+03  0.7818608E-02  0.1209945E+00
         -4   -1    0    0    0  501 -0.00000000000E+00  0.00000000000E+00  0.40709407596E+02  0.40729212696E+02  0.12700000000E+01 0.  1.
         21   -1    0    0  501  502  0.00000000000E+00 -0.00000000000E+00 -0.45693699335E+03  0.45693699335E+03  0.00000000000E+00 0. -1.
         25    2    1    2    0    0 -0.53697826910E+02  0.42543198636E+02 -0.10005842836E+03  0.17415742818E+03  0.12500296133E+03 0.  0.
    9000005    1    3    3    0    0 -0.67094932483E+02  0.18520755029E+02  0.79473846195E+00  0.69615946025E+02  0.10000000000E+01 0.  0.
    9000005    1    3    3    0    0  0.13397105573E+02  0.24022443607E+02 -0.10085316682E+03  0.10454148216E+03  0.10000000000E+01 0.  0.
         -4    1    1    2    0  502  0.53697826910E+02 -0.42543198636E+02 -0.31616915739E+03  0.32350877786E+03  0.12700000000E+01 0. -1.
<mgrwt>
<rscale>  1 0.14254515E+03</rscale>
<asrwt>0</asrwt>
<pdfrwt beam="2">  1       21 0.70297994E-01 0.14254515E+03</pdfrwt>
<pdfrwt beam="1">  1       -4 0.62646454E-02 0.14254515E+03</pdfrwt>
<totfact> 0.12555004E+04</totfact>
</mgrwt>
</event>
<event>
 6    4  0.6195789E-003  0.1283466E+03  0.7818608E-02  0.1229930E+00
          4   -1    0    0  502    0 -0.00000000000E+00  0.00000000000E+00  0.15074019042E+03  0.15074554026E+03  0.12700000000E+01 0. -1.
         21   -1    0    0  501  502  0.00000000000E+00 -0.00000000000E+00 -0.10454963172E+03  0.10454963172E+03  0.00000000000E+00 0.  1.
         25    2    1    2    0    0 -0.12307255661E+01  0.29088604818E+02  0.12014510312E+03  0.17580586984E+03  0.12500078579E+03 0.  0.
    9000005    1    3    3    0    0 -0.75200256808E+01  0.19794226224E+02 -0.23541000659E+02  0.31678713517E+02  0.10000000000E+01 0.  0.
    9000005    1    3    3    0    0  0.62893001147E+01  0.92943785947E+01  0.14368610378E+03  0.14412715632E+03  0.10000000000E+01 0.  0.
          4    1    1    2  501    0  0.12307255661E+01 -0.29088604818E+02 -0.73954544414E+02  0.79489302143E+02  0.12700000000E+01 0.  1.
<mgrwt>
<rscale>  1 0.12834663E+03</rscale>
<asrwt>0</asrwt>
<pdfrwt beam="2">  1       21 0.16084559E-01 0.12834663E+03</pdfrwt>
<pdfrwt beam="1">  1        4 0.23191803E-01 0.12834663E+03</pdfrwt>
<totfact> 0.24069372E+04</totfact>
</mgrwt>
</event>
<event>
 6    4  0.6195789E-003  0.1661860E+03  0.7818608E-02  0.1181885E+00
         21   -1    0    0  501  502  0.00000000000E+00  0.00000000000E+00  0.10589676700E+04  0.10589676700E+04  0.00000000000E+00 0.  1.
         -4   -1    0    0    0  501 -0.00000000000E+00 -0.00000000000E+00 -0.19390667123E+02  0.19432212213E+02  0.12700000000E+01 0. -1.
         25    2    1    2    0    0  0.33284037558E+02  0.10433299149E+03  0.47327005958E+03  0.50159977195E+03  0.12499832663E+03 0.  0.
    9000005    1    3    3    0    0  0.21800421264E+01 -0.12816279339E+02  0.22442374659E+03  0.22480219668E+03  0.10000000000E+01 0.  0.
    9000005    1    3    3    0    0  0.31103995432E+02  0.11714927083E+03  0.24884631299E+03  0.27679757527E+03  0.10000000000E+01 0.  0.
         -4    1    1    2    0  502 -0.33284037558E+02 -0.10433299149E+03  0.56630694328E+03  0.57680011025E+03  0.12700000000E+01 0.  1.
<mgrwt>
<rscale>  1 0.16618599E+03</rscale>
<asrwt>0</asrwt>
<pdfrwt beam="1">  1       21 0.16291806E+00 0.16618599E+03</pdfrwt>
<pdfrwt beam="2">  1       -4 0.29864347E-02 0.16618599E+03</pdfrwt>
<totfact> 0.54824390E+03</totfact>
</mgrwt>
</event>
<event>
 6    4  0.6195789E-003  0.1274346E+03  0.7818608E-02  0.1231313E+00
          4   -1    0    0  502    0 -0.00000000000E+00  0.00000000000E+00  0.46287126349E+03  0.46287300576E+03  0.12700000000E+01 0. -1.
         21   -1    0    0  501  502  0.00000000000E+00 -0.00000000000E+00 -0.26391779124E+02  0.26391779124E+02  0.00000000000E+00 0. -1.
         25    2    1    2    0    0  0.24674072635E+02 -0.63330437868E+00  0.44518226939E+03  0.46306245098E+03  0.12502147655E+03 0.  0.
    9000005    1    3    3    0    0 -0.32803615488E+02  0.43831343651E+02  0.18991835140E+03  0.19765435506E+03  0.10000000000E+01 0.  0.
    9000005    1    3    3    0    0  0.57477688123E+02 -0.44464648029E+02  0.25526391799E+03  0.26540809592E+03  0.10000000000E+01 0.  0.
          4    1    1    2  501    0 -0.24674072635E+02  0.63330437868E+00 -0.87027850214E+01  0.26202333903E+02  0.12700000000E+01 0.  1.
<mgrwt>
<rscale>  1 0.12743461E+03</rscale>
<asrwt>0</asrwt>
<pdfrwt beam="2">  1       21 0.40602740E-02 0.12743461E+03</pdfrwt>
<pdfrwt beam="1">  1        4 0.71213442E-01 0.12743461E+03</pdfrwt>
<totfact> 0.28251791E+04</totfact>
</mgrwt>
</event>
<event>
 6    4  0.6195789E-003  0.1292860E+03  0.7818608E-02  0.1228519E+00
         21   -1    0    0  501  502  0.00000000000E+00  0.00000000000E+00  0.46381466998E+02  0.46381466998E+02  0.00000000000E+00 0.  1.
          4   -1    0    0  502    0 -0.00000000000E+00 -0.00000000000E+00 -0.58814135636E+03  0.58814272754E+03  0.12700000000E+01 0. -1.
         25    2    1    2    0    0 -0.56396744947E+01 -0.32526880504E+02 -0.57399001774E+03  0.58837012691E+03  0.12500024758E+03 0.  0.
    9000005    1    3    3    0    0 -0.31261579968E+02 -0.47422888911E+02 -0.54114603365E+03  0.54411969869E+03  0.10000000000E+01 0.  0.
    9000005    1    3    3    0    0  0.25621905473E+02  0.14896008407E+02 -0.32843984093E+02  0.44250428220E+02  0.10000000000E+01 0.  0.
          4    1    1    2  501    0  0.56396744947E+01  0.32526880504E+02  0.32230128375E+02  0.46154067630E+02  0.12700000000E+01 0.  1.
<mgrwt>
<rscale>  1 0.12928598E+03</rscale>
<asrwt>0</asrwt>
<pdfrwt beam="1">  1       21 0.71356106E-02 0.12928598E+03</pdfrwt>
<pdfrwt beam="2">  1        4 0.90484724E-01 0.12928598E+03</pdfrwt>
<totfact> 0.64409811E+03</totfact>
</mgrwt>
</event>
<event>
 6    4  0.6195789E-003  0.1324870E+03  0.7818608E-02  0.1223811E+00
         21   -1    0    0  501  502  0.00000000000E+00  0.00000000000E+00  0.32975545225E+02  0.32975545225E+02  0.00000000000E+00 0. -1.
          4   -1    0    0  502    0 -0.00000000000E+00 -0.00000000000E+00 -0.39031832406E+03  0.39032039018E+03  0.12700000000E+01 0.  1.
         25    2    1    2    0    0  0.37200488055E+02 -0.23262653315E+02 -0.35547614989E+03  0.37936275257E+03  0.12501110968E+03 0.  0.
    9000005    1    3    3    0    0  0.52421048924E+01 -0.18472463946E+02  0.29748469602E+01  0.19456651880E+02  0.10000000000E+01 0.  0.
    9000005    1    3    3    0    0  0.31958383162E+02 -0.47901893689E+01 -0.35845099685E+03  0.35990610069E+03  0.10000000000E+01 0.  0.
          4    1    1    2  501    0 -0.37200488055E+02  0.23262653315E+02 -0.18666289366E+01  0.43933182839E+02  0.12700000000E+01 0. -1.
<mgrwt>
<rscale>  1 0.13248700E+03</rscale>
<asrwt>0</asrwt>
<pdfrwt beam="1">  1       21 0.50731608E-02 0.13248700E+03</pdfrwt>
<pdfrwt beam="2">  1        4 0.60051014E-01 0.13248700E+03</pdfrwt>
<totfact> 0.28123922E+04</totfact>
</mgrwt>
</event>
<event>
 6    4  0.6195789E-003  0.1303430E+03  0.7818608E-02  0.1226948E+00
         -4   -1    0    0    0  501 -0.00000000000E+00  0.00000000000E+00  0.85656312596E+02  0.85665727030E+02  0.12700000000E+01 0. -1.
         21   -1    0    0  501  502  0.00000000000E+00 -0.00000000000E+00 -0.84453045452E+02  0.84453045452E+02  0.00000000000E+00 0. -1.
         25    2    1    2    0    0 -0.35490356650E+02 -0.10232102601E+02 -0.11951304464E+02  0.13088973996E+03  0.12500011603E+03 0.  0.
    9000005    1    3    3    0    0 -0.70355632204E+02 -0.21834440566E+02 -0.40751484641E+02  0.84192287521E+02  0.10000000000E+01 0.  0.
    9000005    1    3    3    0    0  0.34865275554E+02  0.11602337965E+02  0.28800180177E+02  0.46697452435E+02  0.10000000000E+01 0.  0.
         -4    1    1    2    0  502  0.35490356650E+02  0.10232102601E+02  0.13154571608E+02  0.39229032526E+02  0.12700000000E+01 0.  1.
<mgrwt>
<rscale>  1 0.13034297E+03</rscale>
<asrwt>0</asrwt>
<pdfrwt beam="2">  1       21 0.12992776E-01 0.13034297E+03</pdfrwt>
<pdfrwt beam="1">  1       -4 0.13179353E-01 0.13034297E+03</pdfrwt>
<totfact> 0.96393370E+04</totfact>
</mgrwt>
</event>
<event>
 6    4  0.6195789E-003  0.1268494E+03  0.7818608E-02  0.1232207E+00
         21   -1    0    0  501  502  0.00000000000E+00  0.00000000000E+00  0.69660185658E+02  0.69660185658E+02  0.00000000000E+00 0.  1.
          4   -1    0    0  502    0 -0.00000000000E+00 -0.00000000000E+00 -0.11088166748E+03  0.11088894031E+03  0.12700000000E+01 0. -1.
         25    2    1    2    0    0  0.21605871532E+02 -0.19674275187E+01 -0.69690921712E+02  0.14473283968E+03  0.12498034189E+03 0.  0.
    9000005    1    3    3    0    0 -0.21294647931E+02  0.46130466936E+02 -0.14164417112E+01  0.50837863029E+02  0.10000000000E+01 0.  0.
    9000005    1    3    3    0    0  0.42900519464E+02 -0.48097894455E+02 -0.68274480001E+02  0.93894976653E+02  0.10000000000E+01 0.  0.
          4    1    1    2  501    0 -0.21605871532E+02  0.19674275187E+01  0.28469439890E+02  0.35816286286E+02  0.12700000000E+01 0.  1.
<mgrwt>
<rscale>  1 0.12684940E+03</rscale>
<asrwt>0</asrwt>
<pdfrwt beam="1">  1       21 0.10716952E-01 0.12684940E+03</pdfrwt>
<pdfrwt beam="2">  1        4 0.17060168E-01 0.12684940E+03</pdfrwt>
<totfact> 0.86071384E+04</totfact>
</mgrwt>
</event>
<event>
 6    4  0.6195789E-003  0.1480669E+03  0.7818608E-02  0.1202869E+00
         21   -1    0    0  501  502  0.00000000000E+00  0.00000000000E+00  0.40189614140E+03  0.40189614140E+03  0.00000000000E+00 0. -1.
         -4   -1    0    0    0  501 -0.00000000000E+00 -0.00000000000E+00 -0.14027665089E+03  0.14028239977E+03  0.12700000000E+01 0.  1.
         25    2    1    2    0    0 -0.71755615309E+02  0.33907959173E+02 -0.95599602801E+02  0.17624724769E+03  0.12500076095E+03 0.  0.
    9000005    1    3    3    0    0 -0.10011748828E+03  0.39365012056E+02 -0.42267204930E+02  0.11558820115E+03  0.10000000000E+01 0.  0.
    9000005    1    3    3    0    0  0.28361872966E+02 -0.54570528833E+01 -0.53332397871E+02  0.60659046539E+02  0.10000000000E+01 0.  0.
         -4    1    1    2    0  502  0.71755615309E+02 -0.33907959173E+02  0.35721909331E+03  0.36593129348E+03  0.12700000000E+01 0. -1.
<mgrwt>
<rscale>  1 0.14806690E+03</rscale>
<asrwt>0</asrwt>
<pdfrwt beam="1">  1       21 0.61830175E-01 0.14806690E+03</pdfrwt>
<pdfrwt beam="2">  1       -4 0.21581620E-01 0.14806690E+03</pdfrwt>
<totfact> 0.19941156E+03</totfact>
</mgrwt>
</event>
<event>
 6    4  0.6195789E-003  0.1431201E+03  0.7818608E-02  0.1209191E+00
          4   -1    0    0  502    0 -0.00000000000E+00  0.00000000000E+00  0.24973460459E+02  0.25005731889E+02  0.12700000000E+01 0. -1.
         21   -1    0    0  501  502  0.00000000000E+00 -0.00000000000E+00 -0.71348613385E+03  0.71348613385E+03  0.00000000000E+00 0.  1.
         25    2    1    2    0    0 -0.66637453535E+02 -0.20432518125E+02 -0.20521820982E+03  0.25019565500E+03  0.12500125650E+03 0.  0.
    9000005    1    3    3    0    0  0.31782928727E+02 -0.27780776290E+02 -0.42682499026E+02  0.60039335546E+02  0.10000000000E+01 0.  0.
    9000005    1    3    3    0    0 -0.98420382262E+02  0.73482581641E+01 -0.16253571080E+03  0.19015631945E+03  0.10000000000E+01 0.  0.
          4    1    1    2  501    0  0.66637453535E+02  0.20432518125E+02 -0.48329446357E+03  0.48829621075E+03  0.12700000000E+01 0.  1.
<mgrwt>
<rscale>  1 0.14312006E+03</rscale>
<asrwt>0</asrwt>
<pdfrwt beam="2">  1       21 0.10976709E+00 0.14312006E+03</pdfrwt>
<pdfrwt beam="1">  1        4 0.38446406E-02 0.14312006E+03</pdfrwt>
<totfact> 0.99386282E+03</totfact>
</mgrwt>
</event>
<event>
 6    4  0.6195789E-003  0.1303813E+03  0.7818608E-02  0.1226891E+00
         21   -1    0    0  501  502  0.00000000000E+00  0.00000000000E+00  0.12193479056E+02  0.12193479056E+02  0.00000000000E+00 0.  1.
         -4   -1    0    0    0  501 -0.00000000000E+00 -0.00000000000E+00 -0.60656095774E+03  0.60656228728E+03  0.12700000000E+01 0. -1.
         25    2    1    2    0    0  0.13452528171E+02  0.34545597647E+02 -0.51337752100E+03  0.52967515691E+03  0.12499969579E+03 0.  0.
    9000005    1    3    3    0    0 -0.23082591063E+02  0.36749138783E+02 -0.56095739996E+02  0.70929805140E+02  0.10000000000E+01 0.  0.
    9000005    1    3    3    0    0  0.36535119234E+02 -0.22035411357E+01 -0.45728178101E+03  0.45874535177E+03  0.10000000000E+01 0.  0.
         -4    1    1    2    0  502 -0.13452528171E+02 -0.34545597647E+02 -0.80989957681E+02  0.89080609429E+02  0.12700000000E+01 0.  1.
<mgrwt>
<rscale>  1 0.13038134E+03</rscale>
<asrwt>0</asrwt>
<pdfrwt beam="1">  1       21 0.18759196E-02 0.13038134E+03</pdfrwt>
<pdfrwt beam="2">  1       -4 0.93322274E-01 0.13038134E+03</pdfrwt>
<totfact> 0.54992964E+04</totfact>
</mgrwt>
</event>
<event>
 6    4  0.6195789E-003  0.1302445E+03  0.7818608E-02  0.1227093E+00
         21   -1    0    0  501  502  0.00000000000E+00  0.00000000000E+00  0.54509048077E+03  0.54509048077E+03  0.00000000000E+00 0.  1.
          4   -1    0    0  502    0 -0.00000000000E+00 -0.00000000000E+00 -0.16407283238E+02  0.16456361787E+02  0.12700000000E+01 0. -1.
         25    2    1    2    0    0  0.36408726316E+02  0.36395221730E+01  0.26439091256E+03  0.29473067688E+03  0.12499910309E+03 0.  0.
    9000005    1    3    3    0    0 -0.27822493640E+02 -0.40241135510E+02  0.70528003502E+02  0.85840779455E+02  0.10000000000E+01 0.  0.
    9000005    1    3    3    0    0  0.64231219956E+02  0.43880657683E+02  0.19386290906E+03  0.20888989742E+03  0.10000000000E+01 0.  0.
          4    1    1    2  501    0 -0.36408726316E+02 -0.36395221730E+01  0.26429228498E+03  0.26681616569E+03  0.12700000000E+01 0.  1.
<mgrwt>
<rscale>  1 0.13024445E+03</rscale>
<asrwt>0</asrwt>
<pdfrwt beam="1">  1       21 0.83860060E-01 0.13024445E+03</pdfrwt>
<pdfrwt beam="2">  1        4 0.25280869E-02 0.13024445E+03</pdfrwt>
<totfact> 0.35637046E+04</totfact>
</mgrwt>
</event>
<event>
 6    4  0.6195789E-003  0.1308444E+03  0.7818608E-02  0.1226208E+00
         21   -1    0    0  501  502  0.00000000000E+00  0.00000000000E+00  0.28256061333E+03  0.28256061333E+03  0.00000000000E+00 0.  1.
         -4   -1    0    0    0  501 -0.00000000000E+00 -0.00000000000E+00 -0.25413661216E+02  0.25445374361E+02  0.12700000000E+01 0.  1.
         25    2    1    2    0    0 -0.35566045688E+02 -0.15179293000E+02  0.19770244297E+03  0.23707914433E+03  0.12499964071E+03 0.  0.
    9000005    1    3    3    0    0 -0.14830137350E+02 -0.49316573241E+02  0.20515094773E+02  0.55443002116E+02  0.10000000000E+01 0.  0.
    9000005    1    3    3    0    0 -0.20735908338E+02  0.34137280241E+02  0.17718734820E+03  0.18163614221E+03  0.10000000000E+01 0.  0.
         -4    1    1    2    0  502  0.35566045688E+02  0.15179293000E+02  0.59444509141E+02  0.70926843360E+02  0.12700000000E+01 0. -1.
<mgrwt>
<rscale>  1 0.13084443E+03</rscale>
<asrwt>0</asrwt>
<pdfrwt beam="1">  1       21 0.43470861E-01 0.13084443E+03</pdfrwt>
<pdfrwt beam="2">  1       -4 0.39124532E-02 0.13084443E+03</pdfrwt>
<totfact> 0.72867448E+04</totfact>
</mgrwt>
</event>
<event>
 6    4  0.6195789E-003  0.1291149E+03  0.7818608E-02  0.1228775E+00
          4   -1    0    0  502    0 -0.00000000000E+00  0.00000000000E+00  0.23775493331E+03  0.23775832523E+03  0.12700000000E+01 0.  1.
         21   -1    0    0  501  502  0.00000000000E+00 -0.00000000000E+00 -0.47709922616E+02  0.47709922616E+02  0.00000000000E+00 0. -1.
         25    2    1    2    0    0 -0.31803650378E+02  0.58252479667E+01  0.21067591877E+03  0.24709308714E+03  0.12500098108E+03 0.  0.
    9000005    1    3    3    0    0 -0.73732537696E+02  0.11070124896E+02  0.18010013604E+03  0.19492586740E+03  0.10000000000E+01 0.  0.
    9000005    1    3    3    0    0  0.41928887318E+02 -0.52448769290E+01  0.30575782730E+02  0.52167219739E+02  0.10000000000E+01 0.  0.
          4    1    1    2  501    0  0.31803650378E+02 -0.58252479667E+01 -0.20630908072E+02  0.38375160705E+02  0.12700000000E+01 0. -1.
<mgrwt>
<rscale>  1 0.12911488E+03</rscale>
<asrwt>0</asrwt>
<pdfrwt beam="2">  1       21 0.73399882E-02 0.12911488E+03</pdfrwt>
<pdfrwt beam="1">  1        4 0.36579243E-01 0.12911488E+03</pdfrwt>
<totfact> 0.40676768E+04</totfact>
</mgrwt>
</event>
<event>
 6    4  0.6195789E-003  0.1267922E+03  0.7818608E-02  0.1232295E+00
         21   -1    0    0  501  502  0.00000000000E+00  0.00000000000E+00  0.18418908359E+02  0.18418908359E+02  0.00000000000E+00 0.  1.
          4   -1    0    0  502    0 -0.00000000000E+00 -0.00000000000E+00 -0.29771958383E+03  0.29772229258E+03  0.12700000000E+01 0.  1.
         25    2    1    2    0    0  0.10285377178E+02  0.18588239733E+02 -0.24152799464E+03  0.27278569428E+03  0.12499980468E+03 0.  0.
    9000005    1    3    3    0    0  0.51934212541E+02 -0.28229043421E+02 -0.79592083056E+02  0.99146058974E+02  0.10000000000E+01 0.  0.
    9000005    1    3    3    0    0 -0.41648835363E+02  0.46817283154E+02 -0.16193591158E+03  0.17363963530E+03  0.10000000000E+01 0.  0.
          4    1    1    2  501    0 -0.10285377178E+02 -0.18588239733E+02 -0.37772680837E+02  0.43355506659E+02  0.12700000000E+01 0. -1.
<mgrwt>
<rscale>  1 0.12679220E+03</rscale>
<asrwt>0</asrwt>
<pdfrwt beam="1">  1       21 0.28336783E-02 0.12679220E+03</pdfrwt>
<pdfrwt beam="2">  1        4 0.45806588E-01 0.12679220E+03</pdfrwt>
<totfact> 0.12792857E+05</totfact>
</mgrwt>
</event>
<event>
 6    4  0.6195789E-003  0.1289421E+03  0.7818608E-02  0.1229034E+00
          4   -1    0    0  502    0 -0.00000000000E+00  0.00000000000E+00  0.29485409688E+03  0.29485683195E+03  0.12700000000E+01 0.  1.
         21   -1    0    0  501  502  0.00000000000E+00 -0.00000000000E+00 -0.22288551774E+02  0.22288551774E+02  0.00000000000E+00 0.  1.
         25    2    1    2    0    0  0.27388263283E+02  0.15849521907E+02  0.23465003895E+03  0.26774373580E+03  0.12499897188E+03 0.  0.
    9000005    1    3    3    0    0 -0.21118988353E+02 -0.42827641339E+01 -0.52157315281E+01  0.22193638571E+02  0.10000000000E+01 0.  0.
    9000005    1    3    3    0    0  0.48507251635E+02  0.20132286041E+02  0.23986577048E+03  0.24555009723E+03  0.10000000000E+01 0.  0.
          4    1    1    2  501    0 -0.27388263283E+02 -0.15849521907E+02  0.37915506160E+02  0.49401647925E+02  0.12700000000E+01 0. -1.
<mgrwt>
<rscale>  1 0.12894211E+03</rscale>
<asrwt>0</asrwt>
<pdfrwt beam="2">  1       21 0.34290082E-02 0.12894211E+03</pdfrwt>
<pdfrwt beam="1">  1        4 0.45365159E-01 0.12894211E+03</pdfrwt>
<totfact> 0.95606135E+04</totfact>
</mgrwt>
</event>
<event>
 6    4  0.6195789E-003  0.1281069E+03  0.7818608E-02  0.1230292E+00
         -4   -1    0    0    0  501 -0.00000000000E+00  0.00000000000E+00  0.65114696263E+01  0.66341643554E+01  0.12700000000E+01 0. -1.
         21   -1    0    0  501  502  0.00000000000E+00 -0.00000000000E+00 -0.12525864870E+04  0.12525864870E+04  0.00000000000E+00 0. -1.
         25    2    1    2    0    0 -0.22822568604E+02  0.16295210718E+02 -0.65106452321E+03  0.66354833826E+03  0.12499992115E+03 0.  0.
    9000005    1    3    3    0    0 -0.72712039256E+02 -0.35691966425E+01 -0.42502627915E+03  0.43121701936E+03  0.10000000000E+01 0.  0.
    9000005    1    3    3    0    0  0.49889470652E+02  0.19864407360E+02 -0.22603824406E+03  0.23233131889E+03  0.10000000000E+01 0.  0.
         -4    1    1    2    0  502  0.22822568604E+02 -0.16295210718E+02 -0.59501049417E+03  0.59567231311E+03  0.12700000000E+01 0.  1.
<mgrwt>
<rscale>  1 0.12810692E+03</rscale>
<asrwt>0</asrwt>
<pdfrwt beam="2">  1       21 0.19270549E+00 0.12810692E+03</pdfrwt>
<pdfrwt beam="1">  1       -4 0.10112528E-02 0.12810692E+03</pdfrwt>
<totfact> 0.18042425E+04</totfact>
</mgrwt>
</event>
<event>
 6    4  0.6195789E-003  0.1313255E+03  0.7818608E-02  0.1225502E+00
         21   -1    0    0  501  502  0.00000000000E+00  0.00000000000E+00  0.19402860193E+02  0.19402860193E+02  0.00000000000E+00 0. -1.
         -4   -1    0    0    0  501 -0.00000000000E+00 -0.00000000000E+00 -0.38480439879E+03  0.38480649452E+03  0.12700000000E+01 0.  1.
         25    2    1    2    0    0  0.10842291938E+02 -0.38778040006E+02 -0.29856248585E+03  0.32616857337E+03  0.12500035446E+03 0.  0.
    9000005    1    3    3    0    0 -0.35141905590E+02 -0.66648277470E+02 -0.14411563758E+03  0.16262614616E+03  0.10000000000E+01 0.  0.
    9000005    1    3    3    0    0  0.45984197528E+02  0.27870237464E+02 -0.15444684826E+03  0.16354242721E+03  0.10000000000E+01 0.  0.
         -4    1    1    2    0  502 -0.10842291938E+02  0.38778040006E+02 -0.66839052747E+02  0.78040781348E+02  0.12700000000E+01 0. -1.
<mgrwt>
<rscale>  1 0.13132547E+03</rscale>
<asrwt>0</asrwt>
<pdfrwt beam="1">  1       21 0.29850552E-02 0.13132547E+03</pdfrwt>
<pdfrwt beam="2">  1       -4 0.59204038E-01 0.13132547E+03</pdfrwt>
<totfact> 0.69813690E+04</totfact>
</mgrwt>
</event>
<event>
 6    4  0.6195789E-003  0.1284924E+03  0.7818608E-02  0.1229710E+00
         21   -1    0    0  501  502  0.00000000000E+00  0.00000000000E+00  0.23161340674E+02  0.23161340674E+02  0.00000000000E+00 0. -1.
         -4   -1    0    0    0  501 -0.00000000000E+00 -0.00000000000E+00 -0.37466822037E+03  0.37467037281E+03  0.12700000000E+01 0.  1.
         25    2    1    2    0    0 -0.21889492365E+02  0.20166121781E+02 -0.34384975968E+03  0.36707351570E+03  0.12499794539E+03 0.  0.
    9000005    1    3    3    0    0  0.16106770009E+02 -0.47757502616E+02 -0.12419334041E+03  0.13403429747E+03  0.10000000000E+01 0.  0.
    9000005    1    3    3    0    0 -0.37996262374E+02  0.67923624396E+02 -0.21965641928E+03  0.23303921823E+03  0.10000000000E+01 0.  0.
         -4    1    1    2    0  502  0.21889492365E+02 -0.20166121781E+02 -0.76571200176E+01  0.30758197779E+02  0.12700000000E+01 0. -1.
<mgrwt>
<rscale>  1 0.12849245E+03</rscale>
<asrwt>0</asrwt>
<pdfrwt beam="1">  1       21 0.35632832E-02 0.12849245E+03</pdfrwt>
<pdfrwt beam="2">  1       -4 0.57644108E-01 0.12849245E+03</pdfrwt>
<totfact> 0.54984126E+04</totfact>
</mgrwt>
</event>
<event>
 6    4  0.6195789E-003  0.1278798E+03  0.7818608E-02  0.1230636E+00
         21   -1    0    0  501  502  0.00000000000E+00  0.00000000000E+00  0.34942070663E+02  0.34942070663E+02  0.00000000000E+00 0. -1.
         -4   -1    0    0    0  501 -0.00000000000E+00 -0.00000000000E+00 -0.21500175966E+03  0.21500551053E+03  0.12700000000E+01 0.  1.
         25    2    1    2    0    0 -0.39262917175E+01  0.26569730854E+02 -0.18261483366E+03  0.22293817490E+03  0.12502754092E+03 0.  0.
    9000005    1    3    3    0    0  0.47641508681E+02 -0.79284166750E+01 -0.13882983992E+03  0.14699420938E+03  0.10000000000E+01 0.  0.
    9000005    1    3    3    0    0 -0.51567800399E+02  0.34498147529E+02 -0.43784993743E+02  0.75943965514E+02  0.10000000000E+01 0.  0.
         -4    1    1    2    0  502  0.39262917175E+01 -0.26569730854E+02  0.25551446601E+01  0.27009406297E+02  0.12700000000E+01 0. -1.
<mgrwt>
<rscale>  1 0.12787984E+03</rscale>
<asrwt>0</asrwt>
<pdfrwt beam="1">  1       21 0.53757031E-02 0.12787984E+03</pdfrwt>
<pdfrwt beam="2">  1       -4 0.33079258E-01 0.12787984E+03</pdfrwt>
<totfact> 0.83727155E+04</totfact>
</mgrwt>
</event>
<event>
 6    4  0.6195789E-003  0.1398832E+03  0.7818608E-02  0.1213486E+00
         -4   -1    0    0    0  501 -0.00000000000E+00  0.00000000000E+00  0.13568069393E+03  0.13568663754E+03  0.12700000000E+01 0. -1.
         21   -1    0    0  501  502  0.00000000000E+00 -0.00000000000E+00 -0.92257488046E+02  0.92257488046E+02  0.00000000000E+00 0.  1.
         25    2    1    2    0    0  0.55991959487E+02 -0.28418168498E+02  0.73824927167E+02  0.15816899115E+03  0.12499847224E+03 0.  0.
    9000005    1    3    3    0    0 -0.21177291480E+02  0.27550096258E+01 -0.22383457723E+02  0.30952979374E+02  0.10000000000E+01 0.  0.
    9000005    1    3    3    0    0  0.77169250967E+02 -0.31173178123E+02  0.96208384890E+02  0.12721601178E+03  0.10000000000E+01 0.  0.
         -4    1    1    2    0  502 -0.55991959487E+02  0.28418168498E+02 -0.30401721282E+02  0.69775134431E+02  0.12700000000E+01 0.  1.
<mgrwt>
<rscale>  1 0.13988320E+03</rscale>
<asrwt>0</asrwt>
<pdfrwt beam="2">  1       21 0.14193460E-01 0.13988320E+03</pdfrwt>
<pdfrwt beam="1">  1       -4 0.20875082E-01 0.13988320E+03</pdfrwt>
<totfact> 0.36871444E+04</totfact>
</mgrwt>
</event>
<event>
 6    4  0.6195789E-003  0.1270665E+03  0.7818608E-02  0.1231875E+00
         21   -1    0    0  501  502  0.00000000000E+00  0.00000000000E+00  0.22262661762E+03  0.22262661762E+03  0.00000000000E+00 0. -1.
          4   -1    0    0  502    0 -0.00000000000E+00 -0.00000000000E+00 -0.26200460693E+02  0.26231222627E+02  0.12700000000E+01 0. -1.
         25    2    1    2    0    0 -0.68967908155E+01 -0.21746969159E+02  0.18152400320E+03  0.22157811377E+03  0.12500160148E+03 0.  0.
    9000005    1    3    3    0    0 -0.65798227080E+02 -0.11120265366E+02  0.10513258274E+03  0.12452681214E+03  0.10000000000E+01 0.  0.
    9000005    1    3    3    0    0  0.58901436264E+02 -0.10626703793E+02  0.76391420462E+02  0.97051301628E+02  0.10000000000E+01 0.  0.
          4    1    1    2  501    0  0.68967908155E+01  0.21746969159E+02  0.14902153733E+02  0.27279726484E+02  0.12700000000E+01 0.  1.
<mgrwt>
<rscale>  1 0.12706651E+03</rscale>
<asrwt>0</asrwt>
<pdfrwt beam="1">  1       21 0.34250248E-01 0.12706651E+03</pdfrwt>
<pdfrwt beam="2">  1        4 0.40334852E-02 0.12706651E+03</pdfrwt>
<totfact> 0.11115620E+05</totfact>
</mgrwt>
</event>
<event>
 6    4  0.6195789E-003  0.1273726E+03  0.7818608E-02  0.1231407E+00
          4   -1    0    0  502    0 -0.00000000000E+00  0.00000000000E+00  0.34266072942E+04  0.34266075296E+04  0.12700000000E+01 0. -1.
         21   -1    0    0  501  502  0.00000000000E+00 -0.00000000000E+00 -0.18463835653E+01  0.18463835653E+01  0.00000000000E+00 0. -1.
         25    2    1    2    0    0  0.33773407926E+01 -0.24222802480E+02  0.31590516597E+04  0.31616184403E+04  0.12500249256E+03 0.  0.
    9000005    1    3    3    0    0  0.31651470024E+02 -0.48029889171E+02  0.28145941892E+04  0.28151820786E+04  0.10000000000E+01 0.  0.
    9000005    1    3    3    0    0 -0.28274129231E+02  0.23807086691E+02  0.34445747046E+03  0.34643636171E+03  0.10000000000E+01 0.  0.
          4    1    1    2  501    0 -0.33773407926E+01  0.24222802480E+02  0.26570925099E+03  0.26683547281E+03  0.12700000000E+01 0.  1.
<mgrwt>
<rscale>  1 0.12737258E+03</rscale>
<asrwt>0</asrwt>
<pdfrwt beam="2">  1       21 0.28406175E-03 0.12737258E+03</pdfrwt>
<pdfrwt beam="1">  1        4 0.52719888E+00 0.12737258E+03</pdfrwt>
<totfact> 0.11708317E+03</totfact>
</mgrwt>
</event>
<event>
 6    4  0.6195789E-003  0.1433220E+03  0.7818608E-02  0.1208928E+00
         21   -1    0    0  501  502  0.00000000000E+00  0.00000000000E+00  0.77439108263E+01  0.77439108263E+01  0.00000000000E+00 0. -1.
         -4   -1    0    0    0  501 -0.00000000000E+00 -0.00000000000E+00 -0.15074392216E+04  0.15074397565E+04  0.12700000000E+01 0.  1.
         25    2    1    2    0    0 -0.60165833397E+02 -0.35950799203E+02 -0.11124842047E+04  0.11216783421E+04  0.12501523897E+03 0.  0.
    9000005    1    3    3    0    0 -0.97110931068E+02 -0.89076472081E+01 -0.75995066887E+03  0.76618267941E+03  0.10000000000E+01 0.  0.
    9000005    1    3    3    0    0  0.36945097672E+02 -0.27043151995E+02 -0.35253353582E+03  0.35549566268E+03  0.10000000000E+01 0.  0.
         -4    1    1    2    0  502  0.60165833397E+02  0.35950799203E+02 -0.38721110605E+03  0.39350532527E+03  0.12700000000E+01 0. -1.
<mgrwt>
<rscale>  1 0.14332201E+03</rscale>
<asrwt>0</asrwt>
<pdfrwt beam="1">  1       21 0.11913716E-02 0.14332201E+03</pdfrwt>
<pdfrwt beam="2">  1       -4 0.23192165E+00 0.14332201E+03</pdfrwt>
<totfact> 0.10881719E+04</totfact>
</mgrwt>
</event>
<event>
 6    4  0.6195789E-003  0.1318422E+03  0.7818608E-02  0.1224748E+00
          4   -1    0    0  502    0 -0.00000000000E+00  0.00000000000E+00  0.26478599372E+03  0.26478903937E+03  0.12700000000E+01 0.  1.
         21   -1    0    0  501  502  0.00000000000E+00 -0.00000000000E+00 -0.38405110091E+02  0.38405110091E+02  0.00000000000E+00 0.  1.
         25    2    1    2    0    0  0.99027671207E+01 -0.40763043526E+02  0.22550392433E+03  0.26121710249E+03  0.12499065659E+03 0.  0.
    9000005    1    3    3    0    0  0.56507672676E+02 -0.17869113802E+02  0.18809264284E+03  0.19721121821E+03  0.10000000000E+01 0.  0.
    9000005    1    3    3    0    0 -0.46604905555E+02 -0.22893929724E+02  0.37411281491E+02  0.64005884283E+02  0.10000000000E+01 0.  0.
          4    1    1    2  501    0 -0.99027671207E+01  0.40763043526E+02  0.87695929854E+00  0.41977046963E+02  0.12700000000E+01 0. -1.
<mgrwt>
<rscale>  1 0.13184216E+03</rscale>
<asrwt>0</asrwt>
<pdfrwt beam="2">  1       21 0.59084787E-02 0.13184216E+03</pdfrwt>
<pdfrwt beam="1">  1        4 0.40738155E-01 0.13184216E+03</pdfrwt>
<totfact> 0.47831333E+04</totfact>
</mgrwt>
</event>
<event>
 6    4  0.6195789E-003  0.1300552E+03  0.7818608E-02  0.1227374E+00
         21   -1    0    0  501  502  0.00000000000E+00  0.00000000000E+00  0.16684463228E+03  0.16684463228E+03  0.00000000000E+00 0.  1.
          4   -1    0    0  502    0 -0.00000000000E+00 -0.00000000000E+00 -0.16015720936E+03  0.16016224464E+03  0.12700000000E+01 0. -1.
         25    2    1    2    0    0 -0.22821631650E+02  0.27726200836E+02 -0.13106723451E+03  0.18464280972E+03  0.12499911253E+03 0.  0.
    9000005    1    3    3    0    0 -0.54745084704E+02 -0.15612591183E+02 -0.18504553970E+02  0.59868153641E+02  0.10000000000E+01 0.  0.
    9000005    1    3    3    0    0  0.31923453054E+02  0.43338792020E+02 -0.11256268054E+03  0.12477465608E+03  0.10000000000E+01 0.  0.
          4    1    1    2  501    0  0.22821631650E+02 -0.27726200836E+02  0.13775465744E+03  0.14236406721E+03  0.12700000000E+01 0.  1.
<mgrwt>
<rscale>  1 0.13005517E+03</rscale>
<asrwt>0</asrwt>
<pdfrwt beam="1">  1       21 0.25668405E-01 0.13005517E+03</pdfrwt>
<pdfrwt beam="2">  1        4 0.24640330E-01 0.13005517E+03</pdfrwt>
<totfact> 0.90728652E+03</totfact>
</mgrwt>
</event>
<event>
 6    4  0.6195789E-003  0.1297089E+03  0.7818608E-02  0.1227888E+00
          4   -1    0    0  502    0 -0.00000000000E+00  0.00000000000E+00  0.18696939028E+02  0.18740022119E+02  0.12700000000E+01 0.  1.
         21   -1    0    0  501  502  0.00000000000E+00 -0.00000000000E+00 -0.84899848837E+03  0.84899848837E+03  0.00000000000E+00 0. -1.
         25    2    1    2    0    0 -0.21281784433E+02 -0.27414472078E+02 -0.21248263620E+03  0.24894428785E+03  0.12497967891E+03 0.  0.
    9000005    1    3    3    0    0 -0.24575082177E+01  0.21915801246E+02 -0.19044655432E+03  0.19172175605E+03  0.10000000000E+01 0.  0.
    9000005    1    3    3    0    0 -0.18824276215E+02 -0.49330273325E+02 -0.22036081876E+02  0.57222531801E+02  0.10000000000E+01 0.  0.
          4    1    1    2  501    0  0.21281784433E+02  0.27414472078E+02 -0.61781891315E+03  0.61879422264E+03  0.12700000000E+01 0. -1.
<mgrwt>
<rscale>  1 0.12970886E+03</rscale>
<asrwt>0</asrwt>
<pdfrwt beam="2">  1       21 0.13061516E+00 0.12970886E+03</pdfrwt>
<pdfrwt beam="1">  1        4 0.28798392E-02 0.12970886E+03</pdfrwt>
<totfact> 0.10188865E+04</totfact>
</mgrwt>
</event>
<event>
 6    4  0.6195789E-003  0.1298042E+03  0.7818608E-02  0.1227747E+00
         21   -1    0    0  501  502  0.00000000000E+00  0.00000000000E+00  0.63470964406E+02  0.63470964406E+02  0.00000000000E+00 0.  1.
          4   -1    0    0  502    0 -0.00000000000E+00 -0.00000000000E+00 -0.10838478292E+03  0.10839222328E+03  0.12700000000E+01 0.  1.
         25    2    1    2    0    0 -0.11662713221E+02 -0.32971476638E+02 -0.43277087674E+02  0.13682850574E+03  0.12500398600E+03 0.  0.
    9000005    1    3    3    0    0 -0.29395140227E+02  0.39252719611E+02 -0.38399893041E+02  0.62292873199E+02  0.10000000000E+01 0.  0.
    9000005    1    3    3    0    0  0.17732427006E+02 -0.72224196248E+02 -0.48771946325E+01  0.74535632544E+02  0.10000000000E+01 0.  0.
          4    1    1    2  501    0  0.11662713221E+02  0.32971476638E+02 -0.16367308391E+01  0.35034681948E+02  0.12700000000E+01 0. -1.
<mgrwt>
<rscale>  1 0.12980421E+03</rscale>
<asrwt>0</asrwt>
<pdfrwt beam="1">  1       21 0.97647638E-02 0.12980421E+03</pdfrwt>
<pdfrwt beam="2">  1        4 0.16676132E-01 0.12980421E+03</pdfrwt>
<totfact> 0.10580677E+05</totfact>
</mgrwt>
</event>
<event>
 6    4  0.6195789E-003  0.1268816E+03  0.7818608E-02  0.1232158E+00
         21   -1    0    0  501  502  0.00000000000E+00  0.00000000000E+00  0.88602950175E+02  0.88602950175E+02  0.00000000000E+00 0. -1.
         -4   -1    0    0    0  501 -0.00000000000E+00 -0.00000000000E+00 -0.78589117954E+02  0.78599378883E+02  0.12700000000E+01 0. -1.
         25    2    1    2    0    0  0.11382870524E+01  0.21730978045E+02 -0.21695860385E+02  0.12872313196E+03  0.12500161295E+03 0.  0.
    9000005    1    3    3    0    0 -0.90306016617E+01 -0.44800570788E+02  0.19617628724E+02  0.49744288778E+02  0.10000000000E+01 0.  0.
    9000005    1    3    3    0    0  0.10168888714E+02  0.66531548833E+02 -0.41313489109E+02  0.78978843181E+02  0.10000000000E+01 0.  0.
         -4    1    1    2    0  502 -0.11382870524E+01 -0.21730978045E+02  0.31709692605E+02  0.38479197099E+02  0.12700000000E+01 0.  1.
<mgrwt>
<rscale>  1 0.12688158E+03</rscale>
<asrwt>0</asrwt>
<pdfrwt beam="1">  1       21 0.13631223E-01 0.12688158E+03</pdfrwt>
<pdfrwt beam="2">  1       -4 0.12092123E-01 0.12688158E+03</pdfrwt>
<totfact> 0.10218062E+05</totfact>
</mgrwt>
</event>
<event>
 6    4  0.6195789E-003  0.1282231E+03  0.7818608E-02  0.1230116E+00
         -4   -1    0    0    0  501 -0.00000000000E+00  0.00000000000E+00  0.34540783504E+03  0.34541016981E+03  0.12700000000E+01 0. -1.
         21   -1    0    0  501  502  0.00000000000E+00 -0.00000000000E+00 -0.58788296799E+02  0.58788296799E+02  0.00000000000E+00 0.  1.
         25    2    1    2    0    0  0.27096797381E+02  0.89629951131E+01  0.32899109022E+03  0.35309530597E+03  0.12500634362E+03 0.  0.
    9000005    1    3    3    0    0  0.76074405739E+02  0.88575673864E+01  0.16437585134E+03  0.18134550508E+03  0.10000000000E+01 0.  0.
    9000005    1    3    3    0    0 -0.48977608358E+02  0.10542772676E+00  0.16461523888E+03  0.17174980089E+03  0.10000000000E+01 0.  0.
         -4    1    1    2    0  502 -0.27096797381E+02 -0.89629951131E+01 -0.42371551979E+02  0.51103160634E+02  0.12700000000E+01 0.  1.
<mgrwt>
<rscale>  1 0.12822308E+03</rscale>
<asrwt>0</asrwt>
<pdfrwt beam="2">  1       21 0.90443536E-02 0.12822308E+03</pdfrwt>
<pdfrwt beam="1">  1       -4 0.53140901E-01 0.12822308E+03</pdfrwt>
<totfact> 0.13452560E+04</totfact>
</mgrwt>
</event>
<event>
 6    4  0.6195789E-003  0.1281738E+03  0.7818608E-02  0.1230191E+00
         21   -1    0    0  501  502  0.00000000000E+00  0.00000000000E+00  0.56528751879E+02  0.56528751879E+02  0.00000000000E+00 0. -1.
          4   -1    0    0  502    0 -0.00000000000E+00 -0.00000000000E+00 -0.13006498556E+03  0.13007118578E+03  0.12700000000E+01 0. -1.
         25    2    1    2    0    0 -0.51483154273E+01  0.27860756689E+02 -0.87295638874E+02  0.15507754806E+03  0.12500316168E+03 0.  0.
    9000005    1    3    3    0    0  0.36247871776E+02  0.59116293199E+02 -0.24338333865E+02  0.73498291308E+02  0.10000000000E+01 0.  0.
    9000005    1    3    3    0    0 -0.41396187203E+02 -0.31255536509E+02 -0.62957305009E+02  0.81579256747E+02  0.10000000000E+01 0.  0.
          4    1    1    2  501    0  0.51483154273E+01 -0.27860756689E+02  0.13759405189E+02  0.31522389602E+02  0.12700000000E+01 0.  1.
<mgrwt>
<rscale>  1 0.12817378E+03</rscale>
<asrwt>0</asrwt>
<pdfrwt beam="1">  1       21 0.86967311E-02 0.12817378E+03</pdfrwt>
<pdfrwt beam="2">  1        4 0.20011572E-01 0.12817378E+03</pdfrwt>
<totfact> 0.93400475E+04</totfact>
</mgrwt>
</event>
<event>
 6    4  0.6195789E-003  0.1283398E+03  0.7818608E-02  0.1229940E+00
         21   -1    0    0  501  502  0.00000000000E+00  0.00000000000E+00  0.18427501037E+02  0.18427501037E+02  0.00000000000E+00 0. -1.
          4   -1    0    0  502    0 -0.00000000000E+00 -0.00000000000E+00 -0.45232276747E+03  0.45232455037E+03  0.12700000000E+01 0. -1.
         25    2    1    2    0    0  0.23055335727E+01 -0.28982650616E+02 -0.41868797027E+03  0.43791633491E+03  0.12500316159E+03 0.  0.
    9000005    1    3    3    0    0  0.89155347206E+01 -0.57353577791E+02 -0.39790632146E+03  0.40211858985E+03  0.10000000000E+01 0.  0.
    9000005    1    3    3    0    0 -0.66100011479E+01  0.28370927175E+02 -0.20781648815E+02  0.35797745060E+02  0.10000000000E+01 0.  0.
          4    1    1    2  501    0 -0.23055335727E+01  0.28982650616E+02 -0.15207296158E+02  0.32835716502E+02  0.12700000000E+01 0.  1.
<mgrwt>
<rscale>  1 0.12833978E+03</rscale>
<asrwt>0</asrwt>
<pdfrwt beam="1">  1       21 0.28350003E-02 0.12833978E+03</pdfrwt>
<pdfrwt beam="2">  1        4 0.69591618E-01 0.12833978E+03</pdfrwt>
<totfact> 0.53728874E+04</totfact>
</mgrwt>
</event>
<event>
 6    4  0.6195789E-003  0.1271364E+03  0.7818608E-02  0.1231768E+00
         21   -1    0    0  501  502  0.00000000000E+00  0.00000000000E+00  0.91912394362E+01  0.91912394362E+01  0.00000000000E+00 0. -1.
          4   -1    0    0  502    0 -0.00000000000E+00 -0.00000000000E+00 -0.10193609289E+04  0.10193617201E+04  0.12700000000E+01 0. -1.
         25    2    1    2    0    0  0.51868194249E+01 -0.22612034757E+02 -0.98894539256E+03  0.99708407182E+03  0.12500179837E+03 0.  0.
    9000005    1    3    3    0    0  0.19701506946E+02 -0.72456103271E+02 -0.56331538902E+03  0.56829856923E+03  0.10000000000E+01 0.  0.
    9000005    1    3    3    0    0 -0.14514687521E+02  0.49844068514E+02 -0.42563000354E+03  0.42878550259E+03  0.10000000000E+01 0.  0.
          4    1    1    2  501    0 -0.51868194249E+01  0.22612034757E+02 -0.21224296937E+02  0.31468887684E+02  0.12700000000E+01 0.  1.
<mgrwt>
<rscale>  1 0.12713637E+03</rscale>
<asrwt>0</asrwt>
<pdfrwt beam="1">  1       21 0.14140369E-02 0.12713637E+03</pdfrwt>
<pdfrwt beam="2">  1        4 0.15683156E+00 0.12713637E+03</pdfrwt>
<totfact> 0.24649982E+04</totfact>
</mgrwt>
</event>
<event>
 6    4  0.6195789E-003  0.1274468E+03  0.7818608E-02  0.1231294E+00
         21   -1    0    0  501  502  0.00000000000E+00  0.00000000000E+00  0.59697632906E+03  0.59697632906E+03  0.00000000000E+00 0.  1.
          4   -1    0    0  502    0 -0.00000000000E+00 -0.00000000000E+00 -0.10836290553E+02  0.10910457963E+02  0.12700000000E+01 0. -1.
         25    2    1    2    0    0  0.22525248533E+02  0.10514871305E+02  0.39297740718E+03  0.41312702634E+03  0.12499899199E+03 0.  0.
    9000005    1    3    3    0    0  0.25072666071E+02 -0.32226862810E+02  0.38687441191E+02  0.56257687265E+02  0.10000000000E+01 0.  0.
    9000005    1    3    3    0    0 -0.25474175385E+01  0.42741734116E+02  0.35428996599E+03  0.35686933907E+03  0.10000000000E+01 0.  0.
          4    1    1    2  501    0 -0.22525248533E+02 -0.10514871305E+02  0.19316263133E+03  0.19475976068E+03  0.12700000000E+01 0.  1.
<mgrwt>
<rscale>  1 0.12744684E+03</rscale>
<asrwt>0</asrwt>
<pdfrwt beam="1">  1       21 0.91842486E-01 0.12744684E+03</pdfrwt>
<pdfrwt beam="2">  1        4 0.16729312E-02 0.12744684E+03</pdfrwt>
<totfact> 0.54625829E+04</totfact>
</mgrwt>
</event>
<event>
 6    4  0.6195789E-003  0.1269294E+03  0.7818608E-02  0.1232084E+00
          4   -1    0    0  502    0 -0.00000000000E+00  0.00000000000E+00  0.52249820086E+02  0.52265252310E+02  0.12700000000E+01 0.  1.
         21   -1    0    0  501  502  0.00000000000E+00 -0.00000000000E+00 -0.11061707596E+03  0.11061707596E+03  0.00000000000E+00 0.  1.
         25    2    1    2    0    0 -0.21696199887E+02  0.38289845652E+01 -0.37114105858E+02  0.13224419031E+03  0.12500273119E+03 0.  0.
    9000005    1    3    3    0    0 -0.11595332478E+02 -0.60453788545E+02 -0.13607399661E+02  0.63049770898E+02  0.10000000000E+01 0.  0.
    9000005    1    3    3    0    0 -0.10100867408E+02  0.64282773110E+02 -0.23506706198E+02  0.69194419409E+02  0.10000000000E+01 0.  0.
          4    1    1    2  501    0  0.21696199887E+02 -0.38289845652E+01 -0.21253150020E+02  0.30638137967E+02  0.12700000000E+01 0. -1.
<mgrwt>
<rscale>  1 0.12692939E+03</rscale>
<asrwt>0</asrwt>
<pdfrwt beam="2">  1       21 0.17018012E-01 0.12692939E+03</pdfrwt>
<pdfrwt beam="1">  1        4 0.80401818E-02 0.12692939E+03</pdfrwt>
<totfact> 0.13597157E+05</totfact>
</mgrwt>
</event>
<event>
 6    4  0.6195789E-003  0.1298040E+03  0.7818608E-02  0.1227747E+00
         21   -1    0    0  501  502  0.00000000000E+00  0.00000000000E+00  0.35498944472E+03  0.35498944472E+03  0.00000000000E+00 0. -1.
         -4   -1    0    0    0  501 -0.00000000000E+00 -0.00000000000E+00 -0.79405897990E+02  0.79416053387E+02  0.12700000000E+01 0.  1.
         25    2    1    2    0    0 -0.22805859939E+02  0.26578092026E+02 -0.24658269944E+02  0.13212539025E+03  0.12499034463E+03 0.  0.
    9000005    1    3    3    0    0 -0.39021111820E+02  0.46921040715E+02 -0.61740683961E+02  0.86816722383E+02  0.10000000000E+01 0.  0.
    9000005    1    3    3    0    0  0.16215251881E+02 -0.20342948689E+02  0.37082414017E+02  0.45308667871E+02  0.10000000000E+01 0.  0.
         -4    1    1    2    0  502  0.22805859939E+02 -0.26578092026E+02  0.30024181667E+03  0.30228010785E+03  0.12700000000E+01 0. -1.
<mgrwt>
<rscale>  1 0.12980404E+03</rscale>
<asrwt>0</asrwt>
<pdfrwt beam="1">  1       21 0.54613760E-01 0.12980404E+03</pdfrwt>
<pdfrwt beam="2">  1       -4 0.12217248E-01 0.12980404E+03</pdfrwt>
<totfact> 0.70216014E+03</totfact>
</mgrwt>
</event>
<event>
 6    4  0.6195789E-003  0.1265888E+03  0.7818608E-02  0.1232607E+00
         21   -1    0    0  501  502  0.00000000000E+00  0.00000000000E+00  0.47930834386E+03  0.47930834386E+03  0.00000000000E+00 0.  1.
         -4   -1    0    0    0  501 -0.00000000000E+00 -0.00000000000E+00 -0.45817433487E+02  0.45835031486E+02  0.12700000000E+01 0. -1.
         25    2    1    2    0    0  0.15232727203E+02  0.12960725847E+02  0.42343585650E+02  0.13348298811E+03  0.12499884990E+03 0.  0.
    9000005    1    3    3    0    0  0.41805187746E+02 -0.35028742222E+02  0.54692596196E+02  0.77246142835E+02  0.10000000000E+01 0.  0.
    9000005    1    3    3    0    0 -0.26572460543E+02  0.47989468069E+02 -0.12349010546E+02  0.56236845274E+02  0.10000000000E+01 0.  0.
         -4    1    1    2    0  502 -0.15232727203E+02 -0.12960725847E+02  0.39114732472E+03  0.39166038723E+03  0.12700000000E+01 0.  1.
<mgrwt>
<rscale>  1 0.12658882E+03</rscale>
<asrwt>0</asrwt>
<pdfrwt beam="1">  1       21 0.73739742E-01 0.12658882E+03</pdfrwt>
<pdfrwt beam="2">  1       -4 0.70503194E-02 0.12658882E+03</pdfrwt>
<totfact> 0.92422630E+03</totfact>
</mgrwt>
</event>
<event>
 6    4  0.6195789E-003  0.1320139E+03  0.7818608E-02  0.1224498E+00
          4   -1    0    0  502    0 -0.00000000000E+00  0.00000000000E+00  0.24573687305E+03  0.24574015479E+03  0.12700000000E+01 0.  1.
         21   -1    0    0  501  502  0.00000000000E+00 -0.00000000000E+00 -0.33574798591E+02  0.33574798591E+02  0.00000000000E+00 0. -1.
         25    2    1    2    0    0 -0.34319473148E+02 -0.24997034251E+02  0.12247340299E+03  0.18007610691E+03  0.12499996753E+03 0.  0.
    9000005    1    3    3    0    0  0.41997638152E+02 -0.35423116174E+02  0.49087060831E+02  0.73682686643E+02  0.10000000000E+01 0.  0.
    9000005    1    3    3    0    0 -0.76317111300E+02  0.10426081922E+02  0.73386342155E+02  0.10639342027E+03  0.10000000000E+01 0.  0.
          4    1    1    2  501    0  0.34319473148E+02  0.24997034251E+02  0.89688671476E+02  0.99238846474E+02  0.12700000000E+01 0. -1.
<mgrwt>
<rscale>  1 0.13201390E+03</rscale>
<asrwt>0</asrwt>
<pdfrwt beam="2">  1       21 0.51653538E-02 0.13201390E+03</pdfrwt>
<pdfrwt beam="1">  1        4 0.37807772E-01 0.13201390E+03</pdfrwt>
<totfact> 0.69496735E+04</totfact>
</mgrwt>
</event>
<event>
 6    4  0.6195789E-003  0.1449797E+03  0.7818608E-02  0.1206781E+00
         21   -1    0    0  501  502  0.00000000000E+00  0.00000000000E+00  0.43691000823E+02  0.43691000823E+02  0.00000000000E+00 0.  1.
          4   -1    0    0  502    0 -0.00000000000E+00 -0.00000000000E+00 -0.30843008166E+03  0.30843269634E+03  0.12700000000E+01 0.  1.
         25    2    1    2    0    0 -0.36269070344E+02 -0.63876607196E+02 -0.22747288036E+03  0.26974621840E+03  0.12499377836E+03 0.  0.
    9000005    1    3    3    0    0 -0.70679244061E+01  0.33902563672E+02 -0.10365990890E+03  0.10929645965E+03  0.10000000000E+01 0.  0.
    9000005    1    3    3    0    0 -0.29201145938E+02 -0.97779170867E+02 -0.12381297146E+03  0.16044975874E+03  0.10000000000E+01 0.  0.
          4    1    1    2  501    0  0.36269070344E+02  0.63876607196E+02 -0.37266200478E+02  0.82377478770E+02  0.12700000000E+01 0. -1.
<mgrwt>
<rscale>  1 0.14497969E+03</rscale>
<asrwt>0</asrwt>
<pdfrwt beam="1">  1       21 0.67216924E-02 0.14497969E+03</pdfrwt>
<pdfrwt beam="2">  1        4 0.47452403E-01 0.14497969E+03</pdfrwt>
<totfact> 0.28627310E+04</totfact>
</mgrwt>
</event>
<event>
 6    4  0.6195789E-003  0.1266540E+03  0.7818608E-02  0.1232507E+00
          4   -1    0    0  502    0 -0.00000000000E+00  0.00000000000E+00  0.37979163641E+02  0.38000391720E+02  0.12700000000E+01 0. -1.
         21   -1    0    0  501  502  0.00000000000E+00 -0.00000000000E+00 -0.14242503538E+03  0.14242503538E+03  0.00000000000E+00 0. -1.
         25    2    1    2    0    0 -0.19637202568E+02  0.55260376013E+01 -0.91114010355E+02  0.15602238950E+03  0.12500026530E+03 0.  0.
    9000005    1    3    3    0    0 -0.13254226784E+02 -0.56221360969E+02 -0.69288842430E+02  0.90213411653E+02  0.10000000000E+01 0.  0.
    9000005    1    3    3    0    0 -0.63829757834E+01  0.61747398570E+02 -0.21825167925E+02  0.65808977845E+02  0.10000000000E+01 0.  0.
          4    1    1    2  501    0  0.19637202568E+02 -0.55260376013E+01 -0.13331861385E+02  0.24403037603E+02  0.12700000000E+01 0.  1.
<mgrwt>
<rscale>  1 0.12665395E+03</rscale>
<asrwt>0</asrwt>
<pdfrwt beam="2">  1       21 0.21911544E-01 0.12665395E+03</pdfrwt>
<pdfrwt beam="1">  1        4 0.58450167E-02 0.12665395E+03</pdfrwt>
<totfact> 0.14382386E+05</totfact>
</mgrwt>
</event>
<event>
 6    4  0.6195789E-003  0.1268219E+03  0.7818608E-02  0.1232249E+00
         21   -1    0    0  501  502  0.00000000000E+00  0.00000000000E+00  0.16750242979E+03  0.16750242979E+03  0.00000000000E+00 0. -1.
         -4   -1    0    0    0  501 -0.00000000000E+00 -0.00000000000E+00 -0.41376835278E+02  0.41396321064E+02  0.12700000000E+01 0.  1.
         25    2    1    2    0    0 -0.89190199416E+01 -0.19616702035E+02  0.61859585082E+02  0.14110423202E+03  0.12497772647E+03 0.  0.
    9000005    1    3    3    0    0  0.44434386559E+02 -0.69166032261E+00 -0.13855618888E+02  0.46560404612E+02  0.10000000000E+01 0.  0.
    9000005    1    3    3    0    0 -0.53353406501E+02 -0.18925041713E+02  0.75715203970E+02  0.94543827410E+02  0.10000000000E+01 0.  0.
         -4    1    1    2    0  502  0.89190199416E+01  0.19616702035E+02  0.64266009429E+02  0.67794518830E+02  0.12700000000E+01 0. -1.
<mgrwt>
<rscale>  1 0.12682191E+03</rscale>
<asrwt>0</asrwt>
<pdfrwt beam="1">  1       21 0.25769604E-01 0.12682191E+03</pdfrwt>
<pdfrwt beam="2">  1       -4 0.63675363E-02 0.12682191E+03</pdfrwt>
<totfact> 0.92286589E+04</totfact>
</mgrwt>
</event>
<event>
 6    4  0.6195789E-003  0.1271167E+03  0.7818608E-02  0.1231798E+00
          4   -1    0    0  502    0 -0.00000000000E+00  0.00000000000E+00  0.28362750977E+03  0.28363035310E+03  0.12700000000E+01 0.  1.
         21   -1    0    0  501  502  0.00000000000E+00 -0.00000000000E+00 -0.51978666130E+02  0.51978666130E+02  0.00000000000E+00 0. -1.
         25    2    1    2    0    0  0.41227702420E+01 -0.22737246908E+02  0.26563954338E+03  0.29448773278E+03  0.12499871247E+03 0.  0.
    9000005    1    3    3    0    0 -0.34370949812E+02 -0.59603818176E+02  0.10781097621E+03  0.12789911620E+03  0.10000000000E+01 0.  0.
    9000005    1    3    3    0    0  0.38493720054E+02  0.36866571268E+02  0.15782856717E+03  0.16658861658E+03  0.10000000000E+01 0.  0.
          4    1    1    2  501    0 -0.41227702420E+01  0.22737246908E+02 -0.33990699733E+02  0.41121286455E+02  0.12700000000E+01 0. -1.
<mgrwt>
<rscale>  1 0.12711671E+03</rscale>
<asrwt>0</asrwt>
<pdfrwt beam="2">  1       21 0.79967180E-02 0.12711671E+03</pdfrwt>
<pdfrwt beam="1">  1        4 0.43636413E-01 0.12711671E+03</pdfrwt>
<totfact> 0.24773101E+04</totfact>
</mgrwt>
</event>
<event>
 6    4  0.6195789E-003  0.1275555E+03  0.7818608E-02  0.1231129E+00
          4   -1    0    0  502    0 -0.00000000000E+00  0.00000000000E+00  0.93104383953E+02  0.93113045334E+02  0.12700000000E+01 0.  1.
         21   -1    0    0  501  502  0.00000000000E+00 -0.00000000000E+00 -0.12008698411E+03  0.12008698411E+03  0.00000000000E+00 0. -1.
         25    2    1    2    0    0  0.25361423645E+02 -0.57514091828E+00  0.46254808196E+02  0.13568317013E+03  0.12500753088E+03 0.  0.
    9000005    1    3    3    0    0  0.33794208214E+02 -0.32328457024E+02  0.77376845144E+02  0.90417663135E+02  0.10000000000E+01 0.  0.
    9000005    1    3    3    0    0 -0.84327845698E+01  0.31753316106E+02 -0.31122036948E+02  0.45265506990E+02  0.10000000000E+01 0.  0.
          4    1    1    2  501    0 -0.25361423645E+02  0.57514091828E+00 -0.73237408351E+02  0.77516859317E+02  0.12700000000E+01 0. -1.
<mgrwt>
<rscale>  1 0.12755554E+03</rscale>
<asrwt>0</asrwt>
<pdfrwt beam="2">  1       21 0.18474921E-01 0.12755554E+03</pdfrwt>
<pdfrwt beam="1">  1        4 0.14324934E-01 0.12755554E+03</pdfrwt>
<totfact> 0.44037719E+04</totfact>
</mgrwt>
</event>
<event>
 6    4  0.6195789E-003  0.1280056E+03  0.7818608E-02  0.1230445E+00
          4   -1    0    0  502    0 -0.00000000000E+00  0.00000000000E+00  0.87765132550E+02  0.87774320798E+02  0.12700000000E+01 0. -1.
         21   -1    0    0  501  502  0.00000000000E+00 -0.00000000000E+00 -0.69758919559E+02  0.69758919559E+02  0.00000000000E+00 0. -1.
         25    2    1    2    0    0 -0.27181807024E+02  0.49096460973E+01  0.21014966474E+02  0.12971920154E+03  0.12498994829E+03 0.  0.
    9000005    1    3    3    0    0  0.50156798259E+02 -0.27589053019E+01  0.98111819579E+01  0.51191554592E+02  0.10000000000E+01 0.  0.
    9000005    1    3    3    0    0 -0.77338605283E+02  0.76685513992E+01  0.11203784516E+02  0.78527646948E+02  0.10000000000E+01 0.  0.
          4    1    1    2  501    0  0.27181807024E+02 -0.49096460973E+01 -0.30087534834E+01  0.27814038818E+02  0.12700000000E+01 0.  1.
<mgrwt>
<rscale>  1 0.12800563E+03</rscale>
<asrwt>0</asrwt>
<pdfrwt beam="2">  1       21 0.10732142E-01 0.12800563E+03</pdfrwt>
<pdfrwt beam="1">  1        4 0.13503924E-01 0.12800563E+03</pdfrwt>
<totfact> 0.12929875E+05</totfact>
</mgrwt>
</event>
<event>
 6    4  0.6195789E-003  0.1272491E+03  0.7818608E-02  0.1231596E+00
         -4   -1    0    0    0  501 -0.00000000000E+00  0.00000000000E+00  0.59554757018E+01  0.60893834528E+01  0.12700000000E+01 0. -1.
         21   -1    0    0  501  502  0.00000000000E+00 -0.00000000000E+00 -0.11760155154E+04  0.11760155154E+04  0.00000000000E+00 0. -1.
         25    2    1    2    0    0  0.23633141171E+02  0.30483475829E+01 -0.11130772952E+04  0.11203273637E+04  0.12499807552E+03 0.  0.
    9000005    1    3    3    0    0 -0.43780622931E+02 -0.28930625149E+02 -0.43370929517E+03  0.43687352487E+03  0.10000000000E+01 0.  0.
    9000005    1    3    3    0    0  0.67413764102E+02  0.31978972732E+02 -0.67936800004E+03  0.68345383879E+03  0.10000000000E+01 0.  0.
         -4    1    1    2    0  502 -0.23633141171E+02 -0.30483475829E+01 -0.56982744526E+02  0.61777535223E+02  0.12700000000E+01 0.  1.
<mgrwt>
<rscale>  1 0.12724911E+03</rscale>
<asrwt>0</asrwt>
<pdfrwt beam="2">  1       21 0.18092532E+00 0.12724911E+03</pdfrwt>
<pdfrwt beam="1">  1       -4 0.92658110E-03 0.12724911E+03</pdfrwt>
<totfact> 0.24550898E+04</totfact>
</mgrwt>
</event>
<event>
 6    4  0.6195789E-003  0.1397517E+03  0.7818608E-02  0.1213663E+00
          4   -1    0    0  502    0 -0.00000000000E+00  0.00000000000E+00  0.58754130472E+02  0.58767854713E+02  0.12700000000E+01 0.  1.
         21   -1    0    0  501  502  0.00000000000E+00 -0.00000000000E+00 -0.17728057512E+03  0.17728057512E+03  0.00000000000E+00 0. -1.
         25    2    1    2    0    0 -0.61513909859E+02  0.11041867543E+02 -0.66722801280E+02  0.15486275184E+03  0.12499862300E+03 0.  0.
    9000005    1    3    3    0    0 -0.19397809890E+02 -0.55802028865E+02 -0.40417249109E+02  0.71586978421E+02  0.10000000000E+01 0.  0.
    9000005    1    3    3    0    0 -0.42116099969E+02  0.66843896408E+02 -0.26305552171E+02  0.83275773419E+02  0.10000000000E+01 0.  0.
          4    1    1    2  501    0  0.61513909859E+02 -0.11041867543E+02 -0.51803643367E+02  0.81185677992E+02  0.12700000000E+01 0. -1.
<mgrwt>
<rscale>  1 0.13975171E+03</rscale>
<asrwt>0</asrwt>
<pdfrwt beam="2">  1       21 0.27273934E-01 0.13975171E+03</pdfrwt>
<pdfrwt beam="1">  1        4 0.90405027E-02 0.13975171E+03</pdfrwt>
<totfact> 0.47004997E+04</totfact>
</mgrwt>
</event>
<event>
 6    4  0.6195789E-003  0.1362532E+03  0.7818608E-02  0.1218461E+00
          4   -1    0    0  502    0 -0.00000000000E+00  0.00000000000E+00  0.73096161041E+03  0.73096271368E+03  0.12700000000E+01 0. -1.
         21   -1    0    0  501  502  0.00000000000E+00 -0.00000000000E+00 -0.15048408905E+02  0.15048408905E+02  0.00000000000E+00 0.  1.
         25    2    1    2    0    0  0.91775618421E+01  0.53433195872E+02  0.62883220390E+03  0.64342434417E+03  0.12500244775E+03 0.  0.
    9000005    1    3    3    0    0  0.57862966770E+02  0.19745188499E+02  0.16758724931E+03  0.17839417458E+03  0.10000000000E+01 0.  0.
    9000005    1    3    3    0    0 -0.48685404928E+02  0.33688007373E+02  0.46124495459E+03  0.46503016959E+03  0.10000000000E+01 0.  0.
          4    1    1    2  501    0 -0.91775618421E+01 -0.53433195872E+02  0.87080997602E+02  0.10258677842E+03  0.12700000000E+01 0.  1.
<mgrwt>
<rscale>  1 0.13625324E+03</rscale>
<asrwt>0</asrwt>
<pdfrwt beam="2">  1       21 0.23151404E-02 0.13625324E+03</pdfrwt>
<pdfrwt beam="1">  1        4 0.11245981E+00 0.13625324E+03</pdfrwt>
<totfact> 0.25509262E+04</totfact>
</mgrwt>
</event>
<event>
 6    4  0.6195789E-003  0.1274548E+03  0.7818608E-02  0.1231282E+00
         21   -1    0    0  501  502  0.00000000000E+00  0.00000000000E+00  0.76989779992E+02  0.76989779992E+02  0.00000000000E+00 0.  1.
          4   -1    0    0  502    0 -0.00000000000E+00 -0.00000000000E+00 -0.10417942173E+03  0.10418716241E+03  0.12700000000E+01 0.  1.
         25    2    1    2    0    0 -0.24520450480E+02 -0.42409836750E+01 -0.59265674778E+02  0.14056015733E+03  0.12500199673E+03 0.  0.
    9000005    1    3    3    0    0 -0.21380158293E+02 -0.51700889163E+02 -0.72118143324E+02  0.91280445361E+02  0.10000000000E+01 0.  0.
    9000005    1    3    3    0    0 -0.31402921876E+01  0.47459905488E+02  0.12852468546E+02  0.49279711968E+02  0.10000000000E+01 0.  0.
          4    1    1    2  501    0  0.24520450480E+02  0.42409836750E+01  0.32076033041E+02  0.40616785077E+02  0.12700000000E+01 0. -1.
<mgrwt>
<rscale>  1 0.12745485E+03</rscale>
<asrwt>0</asrwt>
<pdfrwt beam="1">  1       21 0.11844582E-01 0.12745485E+03</pdfrwt>
<pdfrwt beam="2">  1        4 0.16029005E-01 0.12745485E+03</pdfrwt>
<totfact> 0.80577264E+04</totfact>
</mgrwt>
</event>
<event>
 6    4  0.6195789E-003  0.1297760E+03  0.7818608E-02  0.1227788E+00
         -4   -1    0    0    0  501 -0.00000000000E+00  0.00000000000E+00  0.20908538854E+03  0.20908924554E+03  0.12700000000E+01 0.  1.
         21   -1    0    0  501  502  0.00000000000E+00 -0.00000000000E+00 -0.37074807131E+02  0.37074807131E+02  0.00000000000E+00 0. -1.
         25    2    1    2    0    0 -0.98733523388E+01 -0.33461376220E+02  0.16605137275E+03  0.21074835202E+03  0.12499865080E+03 0.  0.
    9000005    1    3    3    0    0 -0.27521011472E+02  0.15519386666E+02 -0.49482127594E+01  0.31995972315E+02  0.10000000000E+01 0.  0.
    9000005    1    3    3    0    0  0.17647659133E+02 -0.48980762885E+02  0.17099958551E+03  0.17875237971E+03  0.10000000000E+01 0.  0.
         -4    1    1    2    0  502  0.98733523388E+01  0.33461376220E+02  0.59592086609E+01  0.35415700653E+02  0.12700000000E+01 0. -1.
<mgrwt>
<rscale>  1 0.12977600E+03</rscale>
<asrwt>0</asrwt>
<pdfrwt beam="2">  1       21 0.57038166E-02 0.12977600E+03</pdfrwt>
<pdfrwt beam="1">  1       -4 0.32168952E-01 0.12977600E+03</pdfrwt>
<totfact> 0.80071584E+04</totfact>
</mgrwt>
</event>
<event>
 6    4  0.6195789E-003  0.1267943E+03  0.7818608E-02  0.1232291E+00
         21   -1    0    0  501  502  0.00000000000E+00  0.00000000000E+00  0.35823979006E+03  0.35823979006E+03  0.00000000000E+00 0.  1.
          4   -1    0    0  502    0 -0.00000000000E+00 -0.00000000000E+00 -0.25260223265E+02  0.25292128803E+02  0.12700000000E+01 0.  1.
         25    2    1    2    0    0 -0.20931710448E+02  0.36608035156E+01  0.13804535632E+03  0.18743883562E+03  0.12500103484E+03 0.  0.
    9000005    1    3    3    0    0 -0.17412756245E+02 -0.38915795324E+02  0.13827803558E+03  0.14470472808E+03  0.10000000000E+01 0.  0.
    9000005    1    3    3    0    0 -0.35189542036E+01  0.42576598840E+02 -0.23267925235E+00  0.42734107538E+02  0.10000000000E+01 0.  0.
          4    1    1    2  501    0  0.20931710448E+02 -0.36608035156E+01  0.19493421047E+03  0.19609308325E+03  0.12700000000E+01 0. -1.
<mgrwt>
<rscale>  1 0.12679431E+03</rscale>
<asrwt>0</asrwt>
<pdfrwt beam="1">  1       21 0.55113810E-01 0.12679431E+03</pdfrwt>
<pdfrwt beam="2">  1        4 0.38888159E-02 0.12679431E+03</pdfrwt>
<totfact> 0.44993623E+04</totfact>
</mgrwt>
</event>
<event>
 6    4  0.6195789E-003  0.1284379E+03  0.7818608E-02  0.1229792E+00
          4   -1    0    0  502    0 -0.00000000000E+00  0.00000000000E+00  0.96248167895E+02  0.96256546391E+02  0.12700000000E+01 0.  1.
         21   -1    0    0  501  502  0.00000000000E+00 -0.00000000000E+00 -0.66527203829E+02  0.66527203829E+02  0.00000000000E+00 0.  1.
         25    2    1    2    0    0 -0.64333062584E+01 -0.28812385882E+02  0.34160030378E+02  0.13290300024E+03  0.12499903515E+03 0.  0.
    9000005    1    3    3    0    0  0.29041917109E+02 -0.30748500722E+02 -0.35154845406E+02  0.55006966846E+02  0.10000000000E+01 0.  0.
    9000005    1    3    3    0    0 -0.35475223368E+02  0.19361148404E+01  0.69314875785E+02  0.77896033395E+02  0.10000000000E+01 0.  0.
          4    1    1    2  501    0  0.64333062584E+01  0.28812385882E+02 -0.44390663120E+01  0.29880749979E+02  0.12700000000E+01 0. -1.
<mgrwt>
<rscale>  1 0.12843792E+03</rscale>
<asrwt>0</asrwt>
<pdfrwt beam="2">  1       21 0.10234955E-01 0.12843792E+03</pdfrwt>
<pdfrwt beam="1">  1        4 0.14808987E-01 0.12843792E+03</pdfrwt>
<totfact> 0.11980417E+05</totfact>
</mgrwt>
</event>
<event>
 6    4  0.6195789E-003  0.1321978E+03  0.7818608E-02  0.1224231E+00
         21   -1    0    0  501  502  0.00000000000E+00  0.00000000000E+00  0.11296581706E+04  0.11296581706E+04  0.00000000000E+00 0. -1.
          4   -1    0    0  502    0 -0.00000000000E+00 -0.00000000000E+00 -0.13194079286E+02  0.13255060476E+02  0.12700000000E+01 0.  1.
         25    2    1    2    0    0 -0.33101415128E+02  0.27452279701E+02  0.33317666338E+03  0.35844516990E+03  0.12500767760E+03 0.  0.
    9000005    1    3    3    0    0 -0.78575845522E+02  0.16065146672E+02  0.25466820906E+03  0.26700027930E+03  0.10000000000E+01 0.  0.
    9000005    1    3    3    0    0  0.45474430394E+02  0.11387133029E+02  0.78508454315E+02  0.91444890602E+02  0.10000000000E+01 0.  0.
          4    1    1    2  501    0  0.33101415128E+02 -0.27452279701E+02  0.78328742790E+03  0.78446806114E+03  0.12700000000E+01 0. -1.
<mgrwt>
<rscale>  1 0.13219777E+03</rscale>
<asrwt>0</asrwt>
<pdfrwt beam="1">  1       21 0.17379349E+00 0.13219777E+03</pdfrwt>
<pdfrwt beam="2">  1        4 0.20346050E-02 0.13219777E+03</pdfrwt>
<totfact> 0.83138131E+03</totfact>
</mgrwt>
</event>
<event>
 6    4  0.6195789E-003  0.1273145E+03  0.7818608E-02  0.1231496E+00
         21   -1    0    0  501  502  0.00000000000E+00  0.00000000000E+00  0.14086029519E+03  0.14086029519E+03  0.00000000000E+00 0.  1.
         -4   -1    0    0    0  501 -0.00000000000E+00 -0.00000000000E+00 -0.41696305848E+02  0.41715642406E+02  0.12700000000E+01 0.  1.
         25    2    1    2    0    0 -0.35696767893E+01 -0.23890567924E+02  0.72239673288E+02  0.14638155235E+03  0.12500194656E+03 0.  0.
    9000005    1    3    3    0    0  0.52510449207E+02  0.25799521221E+01  0.19198927162E+01  0.52618337269E+02  0.10000000000E+01 0.  0.
    9000005    1    3    3    0    0 -0.56080125997E+02 -0.26470520046E+02  0.70319780572E+02  0.93763215084E+02  0.10000000000E+01 0.  0.
         -4    1    1    2    0  502  0.35696767893E+01  0.23890567924E+02  0.26924316053E+02  0.36194385242E+02  0.12700000000E+01 0. -1.
<mgrwt>
<rscale>  1 0.12731453E+03</rscale>
<asrwt>0</asrwt>
<pdfrwt beam="1">  1       21 0.21670814E-01 0.12731453E+03</pdfrwt>
<pdfrwt beam="2">  1       -4 0.64167442E-02 0.12731453E+03</pdfrwt>
<totfact> 0.12625010E+05</totfact>
</mgrwt>
</event>
<event>
 6    4  0.6195789E-003  0.1273783E+03  0.7818608E-02  0.1231398E+00
         21   -1    0    0  501  502  0.00000000000E+00  0.00000000000E+00  0.31412538633E+01  0.31412538633E+01  0.00000000000E+00 0.  1.
         -4   -1    0    0    0  501 -0.00000000000E+00 -0.00000000000E+00 -0.18359590180E+04  0.18359594572E+04  0.12700000000E+01 0.  1.
         25    2    1    2    0    0  0.23407841255E+02  0.71581460772E+01 -0.15352438272E+04  0.15405190189E+04  0.12500429002E+03 0.  0.
    9000005    1    3    3    0    0 -0.43287699194E+02 -0.28320491772E+02 -0.65238738500E+03  0.65443576863E+03  0.10000000000E+01 0.  0.
    9000005    1    3    3    0    0  0.66695540449E+02  0.35478637849E+02 -0.88285644219E+03  0.88608325025E+03  0.10000000000E+01 0.  0.
         -4    1    1    2    0  502 -0.23407841255E+02 -0.71581460772E+01 -0.29757393691E+03  0.29858169219E+03  0.12700000000E+01 0. -1.
<mgrwt>
<rscale>  1 0.12737833E+03</rscale>
<asrwt>0</asrwt>
<pdfrwt beam="1">  1       21 0.48326948E-03 0.12737833E+03</pdfrwt>
<pdfrwt beam="2">  1       -4 0.28247522E+00 0.12737833E+03</pdfrwt>
<totfact> 0.22621212E+04</totfact>
</mgrwt>
</event>
<event>
 6    4  0.6195789E-003  0.1287292E+03  0.7818608E-02  0.1229354E+00
          4   -1    0    0  502    0 -0.00000000000E+00  0.00000000000E+00  0.43901418086E+02  0.43919783810E+02  0.12700000000E+01 0. -1.
         21   -1    0    0  501  502  0.00000000000E+00 -0.00000000000E+00 -0.14564394477E+03  0.14564394477E+03  0.00000000000E+00 0. -1.
         25    2    1    2    0    0  0.17278576233E+02 -0.25441370914E+02 -0.87473759167E+02  0.15563699610E+03  0.12500161383E+03 0.  0.
    9000005    1    3    3    0    0 -0.12120140492E+02 -0.72332811122E+02 -0.51426300674E+02  0.89580119286E+02  0.10000000000E+01 0.  0.
    9000005    1    3    3    0    0  0.29398716725E+02  0.46891440209E+02 -0.36047458494E+02  0.66056876809E+02  0.10000000000E+01 0.  0.
          4    1    1    2  501    0 -0.17278576233E+02  0.25441370914E+02 -0.14268767517E+02  0.33926732484E+02  0.12700000000E+01 0.  1.
<mgrwt>
<rscale>  1 0.12872924E+03</rscale>
<asrwt>0</asrwt>
<pdfrwt beam="2">  1       21 0.22406761E-01 0.12872924E+03</pdfrwt>
<pdfrwt beam="1">  1        4 0.67559029E-02 0.12872924E+03</pdfrwt>
<totfact> 0.10922282E+05</totfact>
</mgrwt>
</event>
<event>
 6    4  0.6195789E-003  0.1284120E+03  0.7818608E-02  0.1229831E+00
         -4   -1    0    0    0  501 -0.00000000000E+00  0.00000000000E+00  0.91156731505E+01  0.92037164768E+01  0.12700000000E+01 0. -1.
         21   -1    0    0  501  502  0.00000000000E+00 -0.00000000000E+00 -0.68516510280E+03  0.68516510280E+03  0.00000000000E+00 0. -1.
         25    2    1    2    0    0  0.16935119298E+02 -0.24067781523E+02 -0.52522344513E+03  0.54069335969E+03  0.12499434197E+03 0.  0.
    9000005    1    3    3    0    0  0.31368399942E+02  0.41907240522E+02 -0.13749817052E+03  0.14712899177E+03  0.10000000000E+01 0.  0.
    9000005    1    3    3    0    0 -0.14433280645E+02 -0.65975022045E+02 -0.38772527461E+03  0.39356436792E+03  0.10000000000E+01 0.  0.
         -4    1    1    2    0  502 -0.16935119298E+02  0.24067781523E+02 -0.15082598452E+03  0.15367545958E+03  0.12700000000E+01 0.  1.
<mgrwt>
<rscale>  1 0.12841200E+03</rscale>
<asrwt>0</asrwt>
<pdfrwt beam="2">  1       21 0.10541005E+00 0.12841200E+03</pdfrwt>
<pdfrwt beam="1">  1       -4 0.14092739E-02 0.12841200E+03</pdfrwt>
<totfact> 0.51482666E+04</totfact>
</mgrwt>
</event>
<event>
 6    4  0.6195789E-003  0.1467992E+03  0.7818608E-02  0.1204462E+00
         -4   -1    0    0    0  501 -0.00000000000E+00  0.00000000000E+00  0.14805452051E+04  0.14805457498E+04  0.12700000000E+01 0.  1.
         21   -1    0    0  501  502  0.00000000000E+00 -0.00000000000E+00 -0.95528020570E+01  0.95528020570E+01  0.00000000000E+00 0. -1.
         25    2    1    2    0    0  0.54342576755E+02  0.54514048053E+02  0.11799525211E+04  0.11890491823E+04  0.12500043590E+03 0.  0.
    9000005    1    3    3    0    0 -0.12308723661E+02  0.27319925480E+02  0.62908132794E+02  0.69687274147E+02  0.10000000000E+01 0.  0.
    9000005    1    3    3    0    0  0.66651300416E+02  0.27194122573E+02  0.11170443883E+04  0.11193619082E+04  0.10000000000E+01 0.  0.
         -4    1    1    2    0  502 -0.54342576755E+02 -0.54514048053E+02  0.29103988202E+03  0.30104936956E+03  0.12700000000E+01 0. -1.
<mgrwt>
<rscale>  1 0.14679920E+03</rscale>
<asrwt>0</asrwt>
<pdfrwt beam="2">  1       21 0.14696630E-02 0.14679920E+03</pdfrwt>
<pdfrwt beam="1">  1       -4 0.22778254E+00 0.14679920E+03</pdfrwt>
<totfact> 0.82498357E+03</totfact>
</mgrwt>
</event>
<event>
 6    4  0.6195789E-003  0.1385646E+03  0.7818608E-02  0.1215274E+00
         21   -1    0    0  501  502  0.00000000000E+00  0.00000000000E+00  0.18128361580E+02  0.18128361580E+02  0.00000000000E+00 0. -1.
          4   -1    0    0  502    0 -0.00000000000E+00 -0.00000000000E+00 -0.62100984214E+03  0.62101114075E+03  0.12700000000E+01 0.  1.
         25    2    1    2    0    0 -0.58953389795E+02  0.99958853985E+01 -0.51141969910E+03  0.52985871600E+03  0.12499892159E+03 0.  0.
    9000005    1    3    3    0    0 -0.53532462306E+02 -0.45785653089E+02 -0.17243652208E+03  0.18627239381E+03  0.10000000000E+01 0.  0.
    9000005    1    3    3    0    0 -0.54209274898E+01  0.55781538487E+02 -0.33898317702E+03  0.34358632219E+03  0.10000000000E+01 0.  0.
          4    1    1    2  501    0  0.58953389795E+02 -0.99958853985E+01 -0.91461781458E+02  0.10928078633E+03  0.12700000000E+01 0. -1.
<mgrwt>
<rscale>  1 0.13856461E+03</rscale>
<asrwt>0</asrwt>
<pdfrwt beam="1">  1       21 0.27889787E-02 0.13856461E+03</pdfrwt>
<pdfrwt beam="2">  1        4 0.95543497E-01 0.13856461E+03</pdfrwt>
<totfact> 0.27580910E+04</totfact>
</mgrwt>
</event>
<event>
 6    4  0.6195789E-003  0.1267570E+03  0.7818608E-02  0.1232349E+00
          4   -1    0    0  502    0 -0.00000000000E+00  0.00000000000E+00  0.22556420056E+02  0.22592144337E+02  0.12700000000E+01 0.  1.
         21   -1    0    0  501  502  0.00000000000E+00 -0.00000000000E+00 -0.43831990572E+03  0.43831990572E+03  0.00000000000E+00 0.  1.
         25    2    1    2    0    0 -0.44114938561E+01 -0.20561660965E+02 -0.15926676261E+03  0.20355155383E+03  0.12500036086E+03 0.  0.
    9000005    1    3    3    0    0  0.54669356105E+02 -0.34270117435E+02 -0.97986573847E+02  0.11732667259E+03  0.10000000000E+01 0.  0.
    9000005    1    3    3    0    0 -0.59080849961E+02  0.13708456470E+02 -0.61280188764E+02  0.86224881246E+02  0.10000000000E+01 0.  0.
          4    1    1    2  501    0  0.44114938561E+01  0.20561660965E+02 -0.25649672306E+03  0.25736049623E+03  0.12700000000E+01 0. -1.
<mgrwt>
<rscale>  1 0.12675699E+03</rscale>
<asrwt>0</asrwt>
<pdfrwt beam="2">  1       21 0.67433828E-01 0.12675699E+03</pdfrwt>
<pdfrwt beam="1">  1        4 0.34731082E-02 0.12675699E+03</pdfrwt>
<totfact> 0.35009328E+04</totfact>
</mgrwt>
</event>
<event>
 6    4  0.6195789E-003  0.1273823E+03  0.7818608E-02  0.1231392E+00
         21   -1    0    0  501  502  0.00000000000E+00  0.00000000000E+00  0.23957614211E+03  0.23957614211E+03  0.00000000000E+00 0.  1.
          4   -1    0    0  502    0 -0.00000000000E+00 -0.00000000000E+00 -0.24925242213E+02  0.24957575991E+02  0.12700000000E+01 0.  1.
         25    2    1    2    0    0 -0.22341289902E+02  0.10111620553E+02  0.19574490714E+03  0.23354295227E+03  0.12499945512E+03 0.  0.
    9000005    1    3    3    0    0 -0.25832619561E+02  0.19505236047E+02 -0.48058327907E+01  0.32739494428E+02  0.10000000000E+01 0.  0.
    9000005    1    3    3    0    0  0.34913296590E+01 -0.93936154945E+01  0.20055073993E+03  0.20080345784E+03  0.10000000000E+01 0.  0.
          4    1    1    2  501    0  0.22341289902E+02 -0.10111620553E+02  0.18905992761E+02  0.30990765833E+02  0.12700000000E+01 0. -1.
<mgrwt>
<rscale>  1 0.12738227E+03</rscale>
<asrwt>0</asrwt>
<pdfrwt beam="1">  1       21 0.36857866E-01 0.12738227E+03</pdfrwt>
<pdfrwt beam="2">  1        4 0.38373990E-02 0.12738227E+03</pdfrwt>
<totfact> 0.10415608E+05</totfact>
</mgrwt>
</event>
<event>
 6    4  0.6195789E-003  0.1305286E+03  0.7818608E-02  0.1226673E+00
          4   -1    0    0  502    0 -0.00000000000E+00  0.00000000000E+00  0.29647715539E+03  0.29647987549E+03  0.12700000000E+01 0.  1.
         21   -1    0    0  501  502  0.00000000000E+00 -0.00000000000E+00 -0.24098742414E+02  0.24098742414E+02  0.00000000000E+00 0. -1.
         25    2    1    2    0    0 -0.36836016366E+02  0.75416234986E+01  0.19677057099E+03  0.23612788163E+03  0.12499580269E+03 0.  0.
    9000005    1    3    3    0    0 -0.36396257475E+01  0.61269503165E+02  0.61786176367E+02  0.87096099130E+02  0.10000000000E+01 0.  0.
    9000005    1    3    3    0    0 -0.33196390618E+02 -0.53727879666E+02  0.13498439463E+03  0.14903178250E+03  0.10000000000E+01 0.  0.
          4    1    1    2  501    0  0.36836016366E+02 -0.75416234986E+01  0.75607841985E+02  0.84450736269E+02  0.12700000000E+01 0. -1.
<mgrwt>
<rscale>  1 0.13052861E+03</rscale>
<asrwt>0</asrwt>
<pdfrwt beam="2">  1       21 0.37074990E-02 0.13052861E+03</pdfrwt>
<pdfrwt beam="1">  1        4 0.45614651E-01 0.13052861E+03</pdfrwt>
<totfact> 0.83261590E+04</totfact>
</mgrwt>
</event>
<event>
 6    4  0.6195789E-003  0.1266200E+03  0.7818608E-02  0.1232559E+00
         -4   -1    0    0    0  501 -0.00000000000E+00  0.00000000000E+00  0.82871425379E+03  0.82871522692E+03  0.12700000000E+01 0.  1.
         21   -1    0    0  501  502  0.00000000000E+00 -0.00000000000E+00 -0.68014476190E+01  0.68014476190E+01  0.00000000000E+00 0.  1.
         25    2    1    2    0    0  0.12658596051E+02 -0.15730061103E+02  0.75724538345E+03  0.76775855076E+03  0.12499978657E+03 0.  0.
    9000005    1    3    3    0    0  0.51559315893E+02 -0.52121277451E+02  0.44535805736E+03  0.45135328720E+03  0.10000000000E+01 0.  0.
    9000005    1    3    3    0    0 -0.38900719842E+02  0.36391216349E+02  0.31188732609E+03  0.31640526356E+03  0.10000000000E+01 0.  0.
         -4    1    1    2    0  502 -0.12658596051E+02  0.15730061103E+02  0.64667422726E+02  0.67758123781E+02  0.12700000000E+01 0. -1.
<mgrwt>
<rscale>  1 0.12661999E+03</rscale>
<asrwt>0</asrwt>
<pdfrwt beam="2">  1       21 0.10463772E-02 0.12661999E+03</pdfrwt>
<pdfrwt beam="1">  1       -4 0.12750362E+00 0.12661999E+03</pdfrwt>
<totfact> 0.66636860E+04</totfact>
</mgrwt>
</event>
<event>
 6    4  0.6195789E-003  0.1287475E+03  0.7818608E-02  0.1229326E+00
         -4   -1    0    0    0  501 -0.00000000000E+00  0.00000000000E+00  0.13376555487E+03  0.13377158356E+03  0.12700000000E+01 0.  1.
         21   -1    0    0  501  502  0.00000000000E+00 -0.00000000000E+00 -0.84542274419E+02  0.84542274419E+02  0.00000000000E+00 0. -1.
         25    2    1    2    0    0  0.29326724389E+02 -0.95166979346E+01  0.97166204482E+02  0.16129841123E+03  0.12500112747E+03 0.  0.
    9000005    1    3    3    0    0  0.48827662836E+02  0.34805920853E+02  0.89153308224E+01  0.60630651557E+02  0.10000000000E+01 0.  0.
    9000005    1    3    3    0    0 -0.19500938448E+02 -0.44322618788E+02  0.88250873659E+02  0.10066775968E+03  0.10000000000E+01 0.  0.
         -4    1    1    2    0  502 -0.29326724389E+02  0.95166979346E+01 -0.47942924035E+02  0.57015446748E+02  0.12700000000E+01 0. -1.
<mgrwt>
<rscale>  1 0.12874745E+03</rscale>
<asrwt>0</asrwt>
<pdfrwt beam="2">  1       21 0.13006504E-01 0.12874745E+03</pdfrwt>
<pdfrwt beam="1">  1       -4 0.20580514E-01 0.12874745E+03</pdfrwt>
<totfact> 0.43812481E+04</totfact>
</mgrwt>
</event>
<event>
 6    4  0.6195789E-003  0.1509540E+03  0.7818608E-02  0.1199306E+00
         -4   -1    0    0    0  501 -0.00000000000E+00  0.00000000000E+00  0.94448368918E+02  0.94456907059E+02  0.12700000000E+01 0.  1.
         21   -1    0    0  501  502  0.00000000000E+00 -0.00000000000E+00 -0.14955476427E+03  0.14955476427E+03  0.00000000000E+00 0.  1.
         25    2    1    2    0    0  0.22589550171E+02 -0.81555462766E+02 -0.50777507212E+02  0.15926538258E+03  0.12500210225E+03 0.  0.
    9000005    1    3    3    0    0  0.74340011666E+02 -0.41016866629E+02 -0.23647505680E+02  0.88142073991E+02  0.10000000000E+01 0.  0.
    9000005    1    3    3    0    0 -0.51750461495E+02 -0.40538596137E+02 -0.27130001532E+02  0.71123308591E+02  0.10000000000E+01 0.  0.
         -4    1    1    2    0  502 -0.22589550171E+02  0.81555462766E+02 -0.43288881401E+01  0.84746288747E+02  0.12700000000E+01 0. -1.
<mgrwt>
<rscale>  1 0.15095399E+03</rscale>
<asrwt>0</asrwt>
<pdfrwt beam="2">  1       21 0.23008425E-01 0.15095399E+03</pdfrwt>
<pdfrwt beam="1">  1       -4 0.14531590E-01 0.15095399E+03</pdfrwt>
<totfact> 0.29095234E+04</totfact>
</mgrwt>
</event>
<event>
 6    4  0.6195789E-003  0.1401118E+03  0.7818608E-02  0.1213179E+00
         21   -1    0    0  501  502  0.00000000000E+00  0.00000000000E+00  0.17530321327E+04  0.17530321327E+04  0.00000000000E+00 0. -1.
         -4   -1    0    0    0  501 -0.00000000000E+00 -0.00000000000E+00 -0.25683982637E+02  0.25715362415E+02  0.12700000000E+01 0.  1.
         25    2    1    2    0    0  0.53623610752E+02  0.33631581680E+02  0.17081689890E+03  0.22092923753E+03  0.12499896051E+03 0.  0.
    9000005    1    3    3    0    0 -0.23133399919E+02  0.55515747487E+02  0.78294574740E+02  0.98732936979E+02  0.10000000000E+01 0.  0.
    9000005    1    3    3    0    0  0.76757010670E+02 -0.21884165808E+02  0.92522324156E+02  0.12219630055E+03  0.10000000000E+01 0.  0.
         -4    1    1    2    0  502 -0.53623610752E+02 -0.33631581680E+02  0.15565312512E+04  0.15578182576E+04  0.12700000000E+01 0. -1.
<mgrwt>
<rscale>  1 0.14011179E+03</rscale>
<asrwt>0</asrwt>
<pdfrwt beam="1">  1       21 0.26969716E+00 0.14011179E+03</pdfrwt>
<pdfrwt beam="2">  1       -4 0.39538325E-02 0.14011179E+03</pdfrwt>
<totfact> 0.76699579E+02</totfact>
</mgrwt>
</event>
<event>
 6    4  0.6195789E-003  0.1520687E+03  0.7818608E-02  0.1197954E+00
         21   -1    0    0  501  502  0.00000000000E+00  0.00000000000E+00  0.50048447940E+02  0.50048447940E+02  0.00000000000E+00 0.  1.
          4   -1    0    0  502    0 -0.00000000000E+00 -0.00000000000E+00 -0.44568133949E+03  0.44568314896E+03  0.12700000000E+01 0. -1.
         25    2    1    2    0    0 -0.84909802508E+02 -0.17023776663E+02 -0.37786818220E+03  0.40731959923E+03  0.12500163704E+03 0.  0.
    9000005    1    3    3    0    0 -0.64592426987E+02 -0.65786975970E+02 -0.17645576407E+03  0.19909230147E+03  0.10000000000E+01 0.  0.
    9000005    1    3    3    0    0 -0.20317375521E+02  0.48763199307E+02 -0.20141241813E+03  0.20822729776E+03  0.10000000000E+01 0.  0.
          4    1    1    2  501    0  0.84909802508E+02  0.17023776663E+02 -0.17764709345E+02  0.88411997670E+02  0.12700000000E+01 0.  1.
<mgrwt>
<rscale>  1 0.15206871E+03</rscale>
<asrwt>0</asrwt>
<pdfrwt beam="1">  1       21 0.76997611E-02 0.15206871E+03</pdfrwt>
<pdfrwt beam="2">  1        4 0.68567739E-01 0.15206871E+03</pdfrwt>
<totfact> 0.10562707E+04</totfact>
</mgrwt>
</event>
<event>
 6    4  0.6195789E-003  0.1271416E+03  0.7818608E-02  0.1231760E+00
         -4   -1    0    0    0  501 -0.00000000000E+00  0.00000000000E+00  0.44022236402E+02  0.44040551743E+02  0.12700000000E+01 0. -1.
         21   -1    0    0  501  502  0.00000000000E+00 -0.00000000000E+00 -0.13623521276E+03  0.13623521276E+03  0.00000000000E+00 0. -1.
         25    2    1    2    0    0 -0.10475747429E+02  0.20717852053E+02 -0.60103170279E+02  0.14063206104E+03  0.12500405928E+03 0.  0.
    9000005    1    3    3    0    0 -0.59056562386E+02  0.11301588410E+02 -0.67705807957E+02  0.90556501106E+02  0.10000000000E+01 0.  0.
    9000005    1    3    3    0    0  0.48580814957E+02  0.94162636436E+01  0.76026376786E+01  0.50075559932E+02  0.10000000000E+01 0.  0.
         -4    1    1    2    0  502  0.10475747429E+02 -0.20717852053E+02 -0.32109806078E+02  0.39643703463E+02  0.12700000000E+01 0.  1.
<mgrwt>
<rscale>  1 0.12714160E+03</rscale>
<asrwt>0</asrwt>
<pdfrwt beam="2">  1       21 0.20959264E-01 0.12714160E+03</pdfrwt>
<pdfrwt beam="1">  1       -4 0.67745159E-02 0.12714160E+03</pdfrwt>
<totfact> 0.12292227E+05</totfact>
</mgrwt>
</event>
<event>
 6    4  0.6195789E-003  0.1309508E+03  0.7818608E-02  0.1226052E+00
         21   -1    0    0  501  502  0.00000000000E+00  0.00000000000E+00  0.35911015647E+03  0.35911015647E+03  0.00000000000E+00 0. -1.
         -4   -1    0    0    0  501 -0.00000000000E+00 -0.00000000000E+00 -0.25701256396E+02  0.25732615109E+02  0.12700000000E+01 0.  1.
         25    2    1    2    0    0  0.46156986788E+01 -0.38749007516E+02  0.15834618923E+03  0.20547901859E+03  0.12500128471E+03 0.  0.
    9000005    1    3    3    0    0 -0.45070006233E+02 -0.57857165146E+02  0.64941010712E+02  0.97964748215E+02  0.10000000000E+01 0.  0.
    9000005    1    3    3    0    0  0.49685704911E+02  0.19108157630E+02  0.93405178518E+02  0.10751427038E+03  0.10000000000E+01 0.  0.
         -4    1    1    2    0  502 -0.46156986788E+01  0.38749007516E+02  0.17506271084E+03  0.17936375298E+03  0.12700000000E+01 0. -1.
<mgrwt>
<rscale>  1 0.13095080E+03</rscale>
<asrwt>0</asrwt>
<pdfrwt beam="1">  1       21 0.55247713E-01 0.13095080E+03</pdfrwt>
<pdfrwt beam="2">  1       -4 0.39566247E-02 0.13095080E+03</pdfrwt>
<totfact> 0.43706337E+04</totfact>
</mgrwt>
</event>
<event>
 6    4  0.6195789E-003  0.1325473E+03  0.7818608E-02  0.1223724E+00
         21   -1    0    0  501  502  0.00000000000E+00  0.00000000000E+00  0.27200709902E+03  0.27200709902E+03  0.00000000000E+00 0. -1.
         -4   -1    0    0    0  501 -0.00000000000E+00 -0.00000000000E+00 -0.38571126005E+02  0.38592028468E+02  0.12700000000E+01 0.  1.
         25    2    1    2    0    0 -0.36783772516E+02  0.24303793430E+02  0.89191325981E+02  0.15976195901E+03  0.12500028249E+03 0.  0.
    9000005    1    3    3    0    0 -0.58888709065E+02  0.63954719867E+02  0.62683853342E+02  0.10718372880E+03  0.10000000000E+01 0.  0.
    9000005    1    3    3    0    0  0.22104936549E+02 -0.39650926437E+02  0.26507472638E+02  0.52578230217E+02  0.10000000000E+01 0.  0.
         -4    1    1    2    0  502  0.36783772516E+02 -0.24303793430E+02  0.14424464704E+03  0.15083716848E+03  0.12700000000E+01 0. -1.
<mgrwt>
<rscale>  1 0.13254732E+03</rscale>
<asrwt>0</asrwt>
<pdfrwt beam="1">  1       21 0.41847245E-01 0.13254732E+03</pdfrwt>
<pdfrwt beam="2">  1       -4 0.59358555E-02 0.13254732E+03</pdfrwt>
<totfact> 0.40385627E+04</totfact>
</mgrwt>
</event>
<event>
 6    4  0.6195789E-003  0.1266722E+03  0.7818608E-02  0.1232479E+00
         -4   -1    0    0    0  501 -0.00000000000E+00  0.00000000000E+00  0.20772563292E+03  0.20772951517E+03  0.12700000000E+01 0.  1.
         21   -1    0    0  501  502  0.00000000000E+00 -0.00000000000E+00 -0.82190156731E+02  0.82190156731E+02  0.00000000000E+00 0. -1.
         25    2    1    2    0    0 -0.18407630077E+02  0.90543468753E+01  0.18657487567E+03  0.22551281488E+03  0.12500009361E+03 0.  0.
    9000005    1    3    3    0    0  0.51494069817E+02  0.20895586698E+02  0.75948638069E+02  0.94114081806E+02  0.10000000000E+01 0.  0.
    9000005    1    3    3    0    0 -0.69901699894E+02 -0.11841239823E+02  0.11062623760E+03  0.13139873307E+03  0.10000000000E+01 0.  0.
         -4    1    1    2    0  502  0.18407630077E+02 -0.90543468753E+01 -0.61039399477E+02  0.64406857018E+02  0.12700000000E+01 0. -1.
<mgrwt>
<rscale>  1 0.12667220E+03</rscale>
<asrwt>0</asrwt>
<pdfrwt beam="2">  1       21 0.12644640E-01 0.12667220E+03</pdfrwt>
<pdfrwt beam="1">  1       -4 0.31958843E-01 0.12667220E+03</pdfrwt>
<totfact> 0.20363112E+04</totfact>
</mgrwt>
</event>
<event>
 6    4  0.6195789E-003  0.1522357E+03  0.7818608E-02  0.1197752E+00
         -4   -1    0    0    0  501 -0.00000000000E+00  0.00000000000E+00  0.43758195103E+03  0.43758379399E+03  0.12700000000E+01 0. -1.
         21   -1    0    0  501  502  0.00000000000E+00 -0.00000000000E+00 -0.39594361940E+02  0.39594361940E+02  0.00000000000E+00 0.  1.
         25    2    1    2    0    0  0.24159002213E+02  0.83469053831E+02  0.34049409071E+03  0.37297712143E+03  0.12499986787E+03 0.  0.
    9000005    1    3    3    0    0 -0.12967879864E+02 -0.20494378266E+02  0.15675064150E+03  0.15861887990E+03  0.10000000000E+01 0.  0.
    9000005    1    3    3    0    0  0.37126882077E+02  0.10396343210E+03  0.18374344921E+03  0.21435824154E+03  0.10000000000E+01 0.  0.
         -4    1    1    2    0  502 -0.24159002213E+02 -0.83469053831E+02  0.57493498372E+02  0.10420103450E+03  0.12700000000E+01 0.  1.
<mgrwt>
<rscale>  1 0.15223570E+03</rscale>
<asrwt>0</asrwt>
<pdfrwt beam="2">  1       21 0.60914406E-02 0.15223570E+03</pdfrwt>
<pdfrwt beam="1">  1       -4 0.67322006E-01 0.15223570E+03</pdfrwt>
<totfact> 0.16425486E+04</totfact>
</mgrwt>
</event>
<event>
 6    4  0.6195789E-003  0.1312892E+03  0.7818608E-02  0.1225555E+00
          4   -1    0    0  502    0 -0.00000000000E+00  0.00000000000E+00  0.10670677815E+04  0.10670685372E+04  0.12700000000E+01 0. -1.
         21   -1    0    0  501  502  0.00000000000E+00 -0.00000000000E+00 -0.74435726023E+01  0.74435726023E+01  0.00000000000E+00 0. -1.
         25    2    1    2    0    0  0.19880991526E+02 -0.34877564154E+02  0.91660262013E+03  0.92595745306E+03  0.12500057335E+03 0.  0.
    9000005    1    3    3    0    0 -0.26734745322E+02 -0.30577642247E+02  0.98968429714E+02  0.10698359170E+03  0.10000000000E+01 0.  0.
    9000005    1    3    3    0    0  0.46615736848E+02 -0.42999219073E+01  0.81763419042E+03  0.81897386136E+03  0.10000000000E+01 0.  0.
          4    1    1    2  501    0 -0.19880991526E+02  0.34877564154E+02  0.14302158875E+03  0.14855465679E+03  0.12700000000E+01 0.  1.
<mgrwt>
<rscale>  1 0.13128915E+03</rscale>
<asrwt>0</asrwt>
<pdfrwt beam="2">  1       21 0.11451659E-02 0.13128915E+03</pdfrwt>
<pdfrwt beam="1">  1        4 0.16417254E+00 0.13128915E+03</pdfrwt>
<totfact> 0.30699312E+04</totfact>
</mgrwt>
</event>
<event>
 6    4  0.6195789E-003  0.1269958E+03  0.7818608E-02  0.1231983E+00
         21   -1    0    0  501  502  0.00000000000E+00  0.00000000000E+00  0.38802556870E+01  0.38802556870E+01  0.00000000000E+00 0. -1.
          4   -1    0    0  502    0 -0.00000000000E+00 -0.00000000000E+00 -0.14700802816E+04  0.14700808301E+04  0.12700000000E+01 0. -1.
         25    2    1    2    0    0 -0.22364083205E+01  0.22336212068E+02 -0.11582591077E+04  0.11652004505E+04  0.12499608619E+03 0.  0.
    9000005    1    3    3    0    0  0.40382704038E+02  0.26436682284E+02 -0.10024686324E+04  0.10036304199E+04  0.10000000000E+01 0.  0.
    9000005    1    3    3    0    0 -0.42619112358E+02 -0.41004702154E+01 -0.15579047530E+03  0.16157003060E+03  0.10000000000E+01 0.  0.
          4    1    1    2  501    0  0.22364083205E+01 -0.22336212068E+02 -0.30794091822E+03  0.30876063529E+03  0.12700000000E+01 0.  1.
<mgrwt>
<rscale>  1 0.12699579E+03</rscale>
<asrwt>0</asrwt>
<pdfrwt beam="1">  1       21 0.59696230E-03 0.12699579E+03</pdfrwt>
<pdfrwt beam="2">  1        4 0.22618227E+00 0.12699579E+03</pdfrwt>
<totfact> 0.34432480E+04</totfact>
</mgrwt>
</event>
<event>
 6    4  0.6195789E-003  0.1267306E+03  0.7818608E-02  0.1232389E+00
         21   -1    0    0  501  502  0.00000000000E+00  0.00000000000E+00  0.34240622961E+02  0.34240622961E+02  0.00000000000E+00 0. -1.
         -4   -1    0    0    0  501 -0.00000000000E+00 -0.00000000000E+00 -0.18433489909E+03  0.18433927395E+03  0.12700000000E+01 0. -1.
         25    2    1    2    0    0  0.89235170577E+00  0.20841526299E+02 -0.15163921155E+03  0.19762362732E+03  0.12500192832E+03 0.  0.
    9000005    1    3    3    0    0 -0.39658743091E+01  0.29793379194E+02 -0.17212041845E+03  0.17472782277E+03  0.10000000000E+01 0.  0.
    9000005    1    3    3    0    0  0.48582260149E+01 -0.89518528952E+01  0.20481206891E+02  0.22895804550E+02  0.10000000000E+01 0.  0.
         -4    1    1    2    0  502 -0.89235170577E+00 -0.20841526299E+02  0.15449354258E+01  0.20956269599E+02  0.12700000000E+01 0.  1.
<mgrwt>
<rscale>  1 0.12673061E+03</rscale>
<asrwt>0</asrwt>
<pdfrwt beam="1">  1       21 0.52677881E-02 0.12673061E+03</pdfrwt>
<pdfrwt beam="2">  1       -4 0.28361364E-01 0.12673061E+03</pdfrwt>
<totfact> 0.11577317E+05</totfact>
</mgrwt>
</event>
<event>
 6    4  0.6195789E-003  0.1273660E+03  0.7818608E-02  0.1231417E+00
         21   -1    0    0  501  502  0.00000000000E+00  0.00000000000E+00  0.17234635195E+03  0.17234635195E+03  0.00000000000E+00 0. -1.
          4   -1    0    0  502    0 -0.00000000000E+00 -0.00000000000E+00 -0.33441904188E+02  0.33466010454E+02  0.12700000000E+01 0. -1.
         25    2    1    2    0    0  0.15275022004E+02 -0.18951890609E+02  0.11339738059E+03  0.17053171855E+03  0.12501840126E+03 0.  0.
    9000005    1    3    3    0    0  0.18986195189E+02 -0.72671918375E+01  0.13986877284E+03  0.14134200120E+03  0.10000000000E+01 0.  0.
    9000005    1    3    3    0    0 -0.37111731854E+01 -0.11684698771E+02 -0.26471392251E+02  0.29189717359E+02  0.10000000000E+01 0.  0.
          4    1    1    2  501    0 -0.15275022004E+02  0.18951890609E+02  0.25507067168E+02  0.35280643849E+02  0.12700000000E+01 0.  1.
<mgrwt>
<rscale>  1 0.12736601E+03</rscale>
<asrwt>0</asrwt>
<pdfrwt beam="1">  1       21 0.26514823E-01 0.12736601E+03</pdfrwt>
<pdfrwt beam="2">  1        4 0.51471227E-02 0.12736601E+03</pdfrwt>
<totfact> 0.12343565E+05</totfact>
</mgrwt>
</event>
<event>
 6    4  0.6195789E-003  0.1316145E+03  0.7818608E-02  0.1225080E+00
         21   -1    0    0  501  502  0.00000000000E+00  0.00000000000E+00  0.57892457109E+03  0.57892457109E+03  0.00000000000E+00 0.  1.
         -4   -1    0    0    0  501 -0.00000000000E+00 -0.00000000000E+00 -0.15016781962E+02  0.15070389527E+02  0.12700000000E+01 0.  1.
         25    2    1    2    0    0 -0.89757760747E+01  0.40211924977E+02  0.31029338736E+03  0.33705247454E+03  0.12499928355E+03 0.  0.
    9000005    1    3    3    0    0 -0.51082479154E+02 -0.20296736376E+02  0.98628786947E+02  0.11291596344E+03  0.10000000000E+01 0.  0.
    9000005    1    3    3    0    0  0.42106703079E+02  0.60508661353E+02  0.21166460041E+03  0.22413651111E+03  0.10000000000E+01 0.  0.
         -4    1    1    2    0  502  0.89757760747E+01 -0.40211924977E+02  0.25361440177E+03  0.25694248607E+03  0.12700000000E+01 0. -1.
<mgrwt>
<rscale>  1 0.13161453E+03</rscale>
<asrwt>0</asrwt>
<pdfrwt beam="1">  1       21 0.89065301E-01 0.13161453E+03</pdfrwt>
<pdfrwt beam="2">  1       -4 0.23145054E-02 0.13161453E+03</pdfrwt>
<totfact> 0.35680443E+04</totfact>
</mgrwt>
</event>
<event>
 6    4  0.6195789E-003  0.1280339E+03  0.7818608E-02  0.1230403E+00
         -4   -1    0    0    0  501 -0.00000000000E+00  0.00000000000E+00  0.11070347561E+02  0.11142957198E+02  0.12700000000E+01 0. -1.
         21   -1    0    0  501  502  0.00000000000E+00 -0.00000000000E+00 -0.14168982761E+04  0.14168982761E+04  0.00000000000E+00 0.  1.
         25    2    1    2    0    0  0.25043343932E+02 -0.11757882854E+02 -0.36427887239E+03  0.38612402635E+03  0.12500899954E+03 0.  0.
    9000005    1    3    3    0    0  0.48099010981E+02 -0.46568897310E+02 -0.11260279943E+03  0.13100598266E+03  0.10000000000E+01 0.  0.
    9000005    1    3    3    0    0 -0.23055667049E+02  0.34811014456E+02 -0.25167607296E+03  0.25511804368E+03  0.10000000000E+01 0.  0.
         -4    1    1    2    0  502 -0.25043343932E+02  0.11757882854E+02 -0.10415490562E+04  0.10419172070E+04  0.12700000000E+01 0.  1.
<mgrwt>
<rscale>  1 0.12803385E+03</rscale>
<asrwt>0</asrwt>
<pdfrwt beam="2">  1       21 0.21798440E+00 0.12803385E+03</pdfrwt>
<pdfrwt beam="1">  1       -4 0.17087592E-02 0.12803385E+03</pdfrwt>
<totfact> 0.56742766E+03</totfact>
</mgrwt>
</event>
<event>
 6    4  0.6195789E-003  0.1295436E+03  0.7818608E-02  0.1228134E+00
          4   -1    0    0  502    0 -0.00000000000E+00  0.00000000000E+00  0.81149022873E+02  0.81158960154E+02  0.12700000000E+01 0.  1.
         21   -1    0    0  501  502  0.00000000000E+00 -0.00000000000E+00 -0.86963363818E+02  0.86963363818E+02  0.00000000000E+00 0.  1.
         25    2    1    2    0    0  0.33603410232E+02 -0.52375157104E+01 -0.20319029619E+02  0.13112746428E+03  0.12499971269E+03 0.  0.
    9000005    1    3    3    0    0  0.43014353619E+02 -0.11068607039E+02 -0.68519424240E+02  0.81661864889E+02  0.10000000000E+01 0.  0.
    9000005    1    3    3    0    0 -0.94109433867E+01  0.58310913283E+01  0.48200394621E+02  0.49465599391E+02  0.10000000000E+01 0.  0.
          4    1    1    2  501    0 -0.33603410232E+02  0.52375157104E+01  0.14504688674E+02  0.36994859692E+02  0.12700000000E+01 0. -1.
<mgrwt>
<rscale>  1 0.12954362E+03</rscale>
<asrwt>0</asrwt>
<pdfrwt beam="2">  1       21 0.13378979E-01 0.12954362E+03</pdfrwt>
<pdfrwt beam="1">  1        4 0.12485943E-01 0.12954362E+03</pdfrwt>
<totfact> 0.10030323E+05</totfact>
</mgrwt>
</event>
<event>
 6    4  0.6195789E-003  0.1317835E+03  0.7818608E-02  0.1224833E+00
         21   -1    0    0  501  502  0.00000000000E+00  0.00000000000E+00  0.95176548017E+02  0.95176548017E+02  0.00000000000E+00 0.  1.
         -4   -1    0    0    0  501 -0.00000000000E+00 -0.00000000000E+00 -0.80206870750E+02  0.80216924745E+02  0.12700000000E+01 0.  1.
         25    2    1    2    0    0  0.41618089723E+02  0.30265816152E+01  0.20189450146E+02  0.13332110039E+03  0.12500270526E+03 0.  0.
    9000005    1    3    3    0    0 -0.42590723143E+02 -0.11275924391E+02 -0.47745991543E+01  0.44327338808E+02  0.10000000000E+01 0.  0.
    9000005    1    3    3    0    0  0.84208812866E+02  0.14302506006E+02  0.24964049300E+02  0.88993761578E+02  0.10000000000E+01 0.  0.
         -4    1    1    2    0  502 -0.41618089723E+02 -0.30265816152E+01 -0.52197728780E+01  0.42072372376E+02  0.12700000000E+01 0. -1.
<mgrwt>
<rscale>  1 0.13178354E+03</rscale>
<asrwt>0</asrwt>
<pdfrwt beam="1">  1       21 0.14642546E-01 0.13178354E+03</pdfrwt>
<pdfrwt beam="2">  1       -4 0.12340944E-01 0.13178354E+03</pdfrwt>
<totfact> 0.87246094E+04</totfact>
</mgrwt>
</event>
<event>
 6    4  0.6195789E-003  0.1291062E+03  0.7818608E-02  0.1228788E+00
         -4   -1    0    0    0  501 -0.00000000000E+00  0.00000000000E+00  0.19378193103E+03  0.19378609262E+03  0.12700000000E+01 0. -1.
         21   -1    0    0  501  502  0.00000000000E+00 -0.00000000000E+00 -0.10048742155E+03  0.10048742155E+03  0.00000000000E+00 0.  1.
         25    2    1    2    0    0 -0.27321981647E+02  0.17227167716E+02  0.16858200633E+03  0.21234008954E+03  0.12500061912E+03 0.  0.
    9000005    1    3    3    0    0 -0.25284215237E+02  0.55322416530E+02  0.16273225504E+03  0.17373154043E+03  0.10000000000E+01 0.  0.
    9000005    1    3    3    0    0 -0.20377664107E+01 -0.38095248814E+02  0.58497512894E+01  0.38608549109E+02  0.10000000000E+01 0.  0.
         -4    1    1    2    0  502  0.27321981647E+02 -0.17227167716E+02 -0.75287496853E+02  0.81933424627E+02  0.12700000000E+01 0.  1.
<mgrwt>
<rscale>  1 0.12910624E+03</rscale>
<asrwt>0</asrwt>
<pdfrwt beam="2">  1       21 0.15459603E-01 0.12910624E+03</pdfrwt>
<pdfrwt beam="1">  1       -4 0.29813542E-01 0.12910624E+03</pdfrwt>
<totfact> 0.16233793E+04</totfact>
</mgrwt>
</event>
<event>
 6    4  0.6195789E-003  0.1267638E+03  0.7818608E-02  0.1232338E+00
         21   -1    0    0  501  502  0.00000000000E+00  0.00000000000E+00  0.46391556658E+03  0.46391556658E+03  0.00000000000E+00 0.  1.
          4   -1    0    0  502    0 -0.00000000000E+00 -0.00000000000E+00 -0.11996620865E+02  0.12063656667E+02  0.12700000000E+01 0. -1.
         25    2    1    2    0    0 -0.20894072967E+02  0.30622139118E+01  0.36028732342E+03  0.38193717657E+03  0.12499244772E+03 0.  0.
    9000005    1    3    3    0    0 -0.60136692683E+02  0.36278174898E+02  0.25884714281E+03  0.26820770145E+03  0.10000000000E+01 0.  0.
    9000005    1    3    3    0    0  0.39242619716E+02 -0.33215960987E+02  0.10144018062E+03  0.11372947512E+03  0.10000000000E+01 0.  0.
          4    1    1    2  501    0  0.20894072967E+02 -0.30622139118E+01  0.91631622292E+02  0.94042046676E+02  0.12700000000E+01 0.  1.
<mgrwt>
<rscale>  1 0.12676376E+03</rscale>
<asrwt>0</asrwt>
<pdfrwt beam="1">  1       21 0.71371612E-01 0.12676376E+03</pdfrwt>
<pdfrwt beam="2">  1        4 0.18509247E-02 0.12676376E+03</pdfrwt>
<totfact> 0.82250671E+04</totfact>
</mgrwt>
</event>
<event>
 6    4  0.6195789E-003  0.1296235E+03  0.7818608E-02  0.1228015E+00
         -4   -1    0    0    0  501 -0.00000000000E+00  0.00000000000E+00  0.54511135505E+03  0.54511283447E+03  0.12700000000E+01 0. -1.
         21   -1    0    0  501  502  0.00000000000E+00 -0.00000000000E+00 -0.12380340260E+02  0.12380340260E+02  0.00000000000E+00 0. -1.
         25    2    1    2    0    0 -0.17585010882E+02 -0.29468718106E+02  0.40587423993E+03  0.42607060368E+03  0.12499849089E+03 0.  0.
    9000005    1    3    3    0    0  0.12128577778E+02 -0.71269766052E+02  0.29764941441E+03  0.30630484137E+03  0.10000000000E+01 0.  0.
    9000005    1    3    3    0    0 -0.29713588660E+02  0.41801047947E+02  0.10822482553E+03  0.11976576231E+03  0.10000000000E+01 0.  0.
         -4    1    1    2    0  502  0.17585010882E+02  0.29468718106E+02  0.12685677486E+03  0.13142257105E+03  0.12700000000E+01 0.  1.
<mgrwt>
<rscale>  1 0.12962353E+03</rscale>
<asrwt>0</asrwt>
<pdfrwt beam="2">  1       21 0.19046682E-02 0.12962353E+03</pdfrwt>
<pdfrwt beam="1">  1       -4 0.83868391E-01 0.12962353E+03</pdfrwt>
<totfact> 0.68185460E+04</totfact>
</mgrwt>
</event>
<event>
 6    4  0.6195789E-003  0.1293882E+03  0.7818608E-02  0.1228366E+00
         21   -1    0    0  501  502  0.00000000000E+00  0.00000000000E+00  0.19334263514E+03  0.19334263514E+03  0.00000000000E+00 0.  1.
         -4   -1    0    0    0  501 -0.00000000000E+00 -0.00000000000E+00 -0.36370729963E+02  0.36392896258E+02  0.12700000000E+01 0.  1.
         25    2    1    2    0    0 -0.14619585056E+02 -0.30054830632E+02  0.99431069042E+02  0.16318039760E+03  0.12499711820E+03 0.  0.
    9000005    1    3    3    0    0 -0.21839671791E+02 -0.29724688229E+02  0.12824977145E+03  0.13345235941E+03  0.10000000000E+01 0.  0.
    9000005    1    3    3    0    0  0.72200867353E+01 -0.33014240309E+00 -0.28818702408E+02  0.29728038195E+02  0.10000000000E+01 0.  0.
         -4    1    1    2    0  502  0.14619585056E+02  0.30054830632E+02  0.57540836138E+02  0.66555133799E+02  0.12700000000E+01 0. -1.
<mgrwt>
<rscale>  1 0.12938819E+03</rscale>
<asrwt>0</asrwt>
<pdfrwt beam="1">  1       21 0.29745020E-01 0.12938819E+03</pdfrwt>
<pdfrwt beam="2">  1       -4 0.55975230E-02 0.12938819E+03</pdfrwt>
<totfact> 0.86706118E+04</totfact>
</mgrwt>
</event>
<event>
 6    4  0.6195789E-003  0.1268632E+03  0.7818608E-02  0.1232186E+00
         21   -1    0    0  501  502  0.00000000000E+00  0.00000000000E+00  0.38182186366E+02  0.38182186366E+02  0.00000000000E+00 0.  1.
         -4   -1    0    0    0  501 -0.00000000000E+00 -0.00000000000E+00 -0.15429284727E+03  0.15429807393E+03  0.12700000000E+01 0.  1.
         25    2    1    2    0    0  0.10980490915E+02 -0.18659690773E+02 -0.78859917054E+02  0.14937589790E+03  0.12500206844E+03 0.  0.
    9000005    1    3    3    0    0 -0.15653468373E+02 -0.29953843258E+02  0.24682858746E+02  0.41862958733E+02  0.10000000000E+01 0.  0.
    9000005    1    3    3    0    0  0.26633959288E+02  0.11294152484E+02 -0.10354277580E+03  0.10751293916E+03  0.10000000000E+01 0.  0.
         -4    1    1    2    0  502 -0.10980490915E+02  0.18659690773E+02 -0.37250743850E+02  0.43104362399E+02  0.12700000000E+01 0. -1.
<mgrwt>
<rscale>  1 0.12686320E+03</rscale>
<asrwt>0</asrwt>
<pdfrwt beam="1">  1       21 0.58741825E-02 0.12686320E+03</pdfrwt>
<pdfrwt beam="2">  1       -4 0.23739388E-01 0.12686320E+03</pdfrwt>
<totfact> 0.13393697E+05</totfact>
</mgrwt>
</event>
<event>
 6    4  0.6195789E-003  0.1311255E+03  0.7818608E-02  0.1225795E+00
         -4   -1    0    0    0  501 -0.00000000000E+00  0.00000000000E+00  0.14986898545E+02  0.15040612620E+02  0.12700000000E+01 0.  1.
         21   -1    0    0  501  502  0.00000000000E+00 -0.00000000000E+00 -0.49236170944E+03  0.49236170944E+03  0.00000000000E+00 0. -1.
         25    2    1    2    0    0  0.38332644209E+02  0.10010795493E+02 -0.33949608741E+03  0.36393886704E+03  0.12499719170E+03 0.  0.
    9000005    1    3    3    0    0  0.17044839916E+02 -0.21872925080E+01 -0.33894042434E+03  0.33937725626E+03  0.10000000000E+01 0.  0.
    9000005    1    3    3    0    0  0.21287804293E+02  0.12198088001E+02 -0.55566307679E+00  0.24561610777E+02  0.10000000000E+01 0.  0.
         -4    1    1    2    0  502 -0.38332644209E+02 -0.10010795493E+02 -0.13787872348E+03  0.14346345502E+03  0.12700000000E+01 0. -1.
<mgrwt>
<rscale>  1 0.13112553E+03</rscale>
<asrwt>0</asrwt>
<pdfrwt beam="2">  1       21 0.75747942E-01 0.13112553E+03</pdfrwt>
<pdfrwt beam="1">  1       -4 0.23099349E-02 0.13112553E+03</pdfrwt>
<totfact> 0.51482425E+04</totfact>
</mgrwt>
</event>
<event>
 6    4  0.6195789E-003  0.1330573E+03  0.7818608E-02  0.1222989E+00
          4   -1    0    0  502    0 -0.00000000000E+00  0.00000000000E+00  0.21259462378E+03  0.21259841711E+03  0.12700000000E+01 0.  1.
         21   -1    0    0  501  502  0.00000000000E+00 -0.00000000000E+00 -0.38402726379E+02  0.38402726379E+02  0.00000000000E+00 0.  1.
         25    2    1    2    0    0 -0.42046836120E+02 -0.17711165288E+02  0.14512237864E+03  0.19688763664E+03  0.12499045913E+03 0.  0.
    9000005    1    3    3    0    0 -0.15817900740E+02  0.40439836385E+02  0.60177323753E+01  0.43849737212E+02  0.10000000000E+01 0.  0.
    9000005    1    3    3    0    0 -0.26228935380E+02 -0.58151001673E+02  0.13910464627E+03  0.15303789942E+03  0.10000000000E+01 0.  0.
          4    1    1    2  501    0  0.42046836120E+02  0.17711165288E+02  0.29069518756E+02  0.54113506856E+02  0.12700000000E+01 0. -1.
<mgrwt>
<rscale>  1 0.13305727E+03</rscale>
<asrwt>0</asrwt>
<pdfrwt beam="2">  1       21 0.59081119E-02 0.13305727E+03</pdfrwt>
<pdfrwt beam="1">  1        4 0.32708772E-01 0.13305727E+03</pdfrwt>
<totfact> 0.73336638E+04</totfact>
</mgrwt>
</event>
<event>
 6    4  0.6195789E-003  0.1316801E+03  0.7818608E-02  0.1224984E+00
         -4   -1    0    0    0  501 -0.00000000000E+00  0.00000000000E+00  0.34412702476E+03  0.34412936822E+03  0.12700000000E+01 0.  1.
         21   -1    0    0  501  502  0.00000000000E+00 -0.00000000000E+00 -0.27701887193E+02  0.27701887193E+02  0.00000000000E+00 0. -1.
         25    2    1    2    0    0  0.32231895099E+02  0.26008442929E+02  0.29931753086E+03  0.32700250044E+03  0.12499726736E+03 0.  0.
    9000005    1    3    3    0    0  0.75092468738E+02  0.29823445952E-01  0.12701309184E+03  0.14755407568E+03  0.10000000000E+01 0.  0.
    9000005    1    3    3    0    0 -0.42860573639E+02  0.25978619483E+02  0.17230443901E+03  0.17944842475E+03  0.10000000000E+01 0.  0.
         -4    1    1    2    0  502 -0.32231895099E+02 -0.26008442929E+02  0.17107606710E+02  0.44828754975E+02  0.12700000000E+01 0. -1.
<mgrwt>
<rscale>  1 0.13168011E+03</rscale>
<asrwt>0</asrwt>
<pdfrwt beam="2">  1       21 0.42618290E-02 0.13168011E+03</pdfrwt>
<pdfrwt beam="1">  1       -4 0.52945036E-01 0.13168011E+03</pdfrwt>
<totfact> 0.48871967E+04</totfact>
</mgrwt>
</event>
<event>
 6    4  0.6195789E-003  0.1572166E+03  0.7818608E-02  0.1191876E+00
         21   -1    0    0  501  502  0.00000000000E+00  0.00000000000E+00  0.26963764194E+03  0.26963764194E+03  0.00000000000E+00 0.  1.
          4   -1    0    0  502    0 -0.00000000000E+00 -0.00000000000E+00 -0.12474278859E+03  0.12474925333E+03  0.12700000000E+01 0. -1.
         25    2    1    2    0    0  0.87454982313E+02  0.37992267516E+02 -0.60088434836E+02  0.16830826369E+03  0.12500106120E+03 0.  0.
    9000005    1    3    3    0    0  0.93111487791E+02 -0.16196655298E+02 -0.63246618041E+02  0.11372429598E+03  0.10000000000E+01 0.  0.
    9000005    1    3    3    0    0 -0.56565054782E+01  0.54188922814E+02  0.31581832054E+01  0.54583967712E+02  0.10000000000E+01 0.  0.
          4    1    1    2  501    0 -0.87454982313E+02 -0.37992267516E+02  0.20498328818E+03  0.22607863158E+03  0.12700000000E+01 0.  1.
<mgrwt>
<rscale>  1 0.15721658E+03</rscale>
<asrwt>0</asrwt>
<pdfrwt beam="1">  1       21 0.41482714E-01 0.15721658E+03</pdfrwt>
<pdfrwt beam="2">  1        4 0.19191926E-01 0.15721658E+03</pdfrwt>
<totfact> 0.56655428E+03</totfact>
</mgrwt>
</event>
<event>
 6    4  0.6195789E-003  0.1273211E+03  0.7818608E-02  0.1231486E+00
         -4   -1    0    0    0  501 -0.00000000000E+00  0.00000000000E+00  0.59751236808E+03  0.59751371776E+03  0.12700000000E+01 0. -1.
         21   -1    0    0  501  502  0.00000000000E+00 -0.00000000000E+00 -0.16719422308E+02  0.16719422308E+02  0.00000000000E+00 0.  1.
         25    2    1    2    0    0 -0.11132367434E+02  0.21485686243E+02  0.57551877909E+03  0.58943406645E+03  0.12500035714E+03 0.  0.
    9000005    1    3    3    0    0  0.24682404555E+02 -0.26842263391E+02  0.58603377990E+02  0.69029588659E+02  0.10000000000E+01 0.  0.
    9000005    1    3    3    0    0 -0.35814771988E+02  0.48327949634E+02  0.51691540110E+03  0.52040447779E+03  0.10000000000E+01 0.  0.
         -4    1    1    2    0  502  0.11132367434E+02 -0.21485686243E+02  0.52741666804E+01  0.24799073616E+02  0.12700000000E+01 0.  1.
<mgrwt>
<rscale>  1 0.12732107E+03</rscale>
<asrwt>0</asrwt>
<pdfrwt beam="2">  1       21 0.25722193E-02 0.12732107E+03</pdfrwt>
<pdfrwt beam="1">  1       -4 0.91928778E-01 0.12732107E+03</pdfrwt>
<totfact> 0.34022582E+04</totfact>
</mgrwt>
</event>
<event>
 6    4  0.6195789E-003  0.1369807E+03  0.7818608E-02  0.1217450E+00
          4   -1    0    0  502    0 -0.00000000000E+00  0.00000000000E+00  0.12994560559E+03  0.12995181150E+03  0.12700000000E+01 0. -1.
         21   -1    0    0  501  502  0.00000000000E+00 -0.00000000000E+00 -0.36120510398E+03  0.36120510398E+03  0.00000000000E+00 0.  1.
         25    2    1    2    0    0  0.55965430409E+02  0.27476650795E+01  0.90744551827E+02  0.16431153870E+03  0.12499611593E+03 0.  0.
    9000005    1    3    3    0    0 -0.30906975579E+02 -0.30967153030E+02  0.30522947825E+02  0.53355937346E+02  0.10000000000E+01 0.  0.
    9000005    1    3    3    0    0  0.86872405988E+02  0.33714818109E+02  0.60221604002E+02  0.11095560135E+03  0.10000000000E+01 0.  0.
          4    1    1    2  501    0 -0.55965430409E+02 -0.27476650795E+01 -0.32200405022E+03  0.32684537678E+03  0.12700000000E+01 0.  1.
<mgrwt>
<rscale>  1 0.13698068E+03</rscale>
<asrwt>0</asrwt>
<pdfrwt beam="2">  1       21 0.55570016E-01 0.13698068E+03</pdfrwt>
<pdfrwt beam="1">  1        4 0.19992281E-01 0.13698068E+03</pdfrwt>
<totfact> 0.28635237E+03</totfact>
</mgrwt>
</event>
<event>
 6    4  0.6195789E-003  0.1946192E+03  0.7818608E-02  0.1154360E+00
         -4   -1    0    0    0  501 -0.00000000000E+00  0.00000000000E+00  0.33776805221E+03  0.33777043979E+03  0.12700000000E+01 0. -1.
         21   -1    0    0  501  502  0.00000000000E+00 -0.00000000000E+00 -0.70075521076E+03  0.70075521076E+03  0.00000000000E+00 0.  1.
         25    2    1    2    0    0  0.60902218348E+02 -0.13616955461E+03  0.30075211856E+03  0.35822963508E+03  0.12500162731E+03 0.  0.
    9000005    1    3    3    0    0  0.74020841190E+02 -0.99717215256E+02  0.11764752823E+03  0.17106884242E+03  0.10000000000E+01 0.  0.
    9000005    1    3    3    0    0 -0.13118622842E+02 -0.36452339351E+02  0.18310459033E+03  0.18716079266E+03  0.10000000000E+01 0.  0.
         -4    1    1    2    0  502 -0.60902218348E+02  0.13616955461E+03 -0.66373927710E+03  0.68029601547E+03  0.12700000000E+01 0.  1.
<mgrwt>
<rscale>  1 0.19461920E+03</rscale>
<asrwt>0</asrwt>
<pdfrwt beam="2">  1       21 0.10780849E+00 0.19461920E+03</pdfrwt>
<pdfrwt beam="1">  1       -4 0.51964588E-01 0.19461920E+03</pdfrwt>
<totfact> 0.10323844E+02</totfact>
</mgrwt>
</event>
<event>
 6    4  0.6195789E-003  0.1280685E+03  0.7818608E-02  0.1230350E+00
         21   -1    0    0  501  502  0.00000000000E+00  0.00000000000E+00  0.17328081147E+02  0.17328081147E+02  0.00000000000E+00 0. -1.
         -4   -1    0    0    0  501 -0.00000000000E+00 -0.00000000000E+00 -0.37695314866E+03  0.37695528804E+03  0.12700000000E+01 0. -1.
         25    2    1    2    0    0 -0.27768574970E+02 -0.23227980884E+01 -0.32799055052E+03  0.35210701667E+03  0.12500024324E+03 0.  0.
    9000005    1    3    3    0    0 -0.35174702278E+02 -0.49653597843E+01 -0.33770454726E+03  0.33956925025E+03  0.10000000000E+01 0.  0.
    9000005    1    3    3    0    0  0.74061273082E+01  0.26425616959E+01  0.97139967385E+01  0.12537766414E+02  0.10000000000E+01 0.  0.
         -4    1    1    2    0  502  0.27768574970E+02  0.23227980884E+01 -0.31634516989E+02  0.42176352520E+02  0.12700000000E+01 0.  1.
<mgrwt>
<rscale>  1 0.12806854E+03</rscale>
<asrwt>0</asrwt>
<pdfrwt beam="1">  1       21 0.26658589E-02 0.12806854E+03</pdfrwt>
<pdfrwt beam="2">  1       -4 0.57996531E-01 0.12806854E+03</pdfrwt>
<totfact> 0.87377627E+04</totfact>
</mgrwt>
</event>
<event>
 6    4  0.6195789E-003  0.1270863E+03  0.7818608E-02  0.1231844E+00
         21   -1    0    0  501  502  0.00000000000E+00  0.00000000000E+00  0.43270850430E+01  0.43270850430E+01  0.00000000000E+00 0.  1.
         -4   -1    0    0    0  501 -0.00000000000E+00 -0.00000000000E+00 -0.20113206028E+04  0.20113210038E+04  0.12700000000E+01 0.  1.
         25    2    1    2    0    0 -0.14650934423E+02  0.17642363275E+02 -0.19508944423E+04  0.19550294281E+04  0.12500014705E+03 0.  0.
    9000005    1    3    3    0    0 -0.16132683769E+02 -0.27189276472E+02 -0.13795236202E+03  0.14153223812E+03  0.10000000000E+01 0.  0.
    9000005    1    3    3    0    0  0.14817493463E+01  0.44831639747E+02 -0.18129420803E+04  0.18134971900E+04  0.10000000000E+01 0.  0.
         -4    1    1    2    0  502  0.14650934423E+02 -0.17642363275E+02 -0.56099075461E+02  0.60618660732E+02  0.12700000000E+01 0. -1.
<mgrwt>
<rscale>  1 0.12708635E+03</rscale>
<asrwt>0</asrwt>
<pdfrwt beam="1">  1       21 0.66570533E-03 0.12708635E+03</pdfrwt>
<pdfrwt beam="2">  1       -4 0.30944833E+00 0.12708635E+03</pdfrwt>
<totfact> 0.96284703E+03</totfact>
</mgrwt>
</event>
<event>
 6    4  0.6195789E-003  0.1351003E+03  0.7818608E-02  0.1220078E+00
          4   -1    0    0  502    0 -0.00000000000E+00  0.00000000000E+00  0.31318097031E+02  0.31343836741E+02  0.12700000000E+01 0. -1.
         21   -1    0    0  501  502  0.00000000000E+00 -0.00000000000E+00 -0.52403736362E+03  0.52403736362E+03  0.00000000000E+00 0.  1.
         25    2    1    2    0    0 -0.37615151713E+02 -0.34827153684E+02 -0.12485059822E+03  0.18395583728E+03  0.12499699165E+03 0.  0.
    9000005    1    3    3    0    0 -0.27389561673E+02 -0.10159593363E+02 -0.14660994301E+03  0.14949542072E+03  0.10000000000E+01 0.  0.
    9000005    1    3    3    0    0 -0.10225590040E+02 -0.24667560321E+02  0.21759344791E+02  0.34460416562E+02  0.10000000000E+01 0.  0.
          4    1    1    2  501    0  0.37615151713E+02  0.34827153684E+02 -0.36786866836E+03  0.37142536308E+03  0.12700000000E+01 0.  1.
<mgrwt>
<rscale>  1 0.13510025E+03</rscale>
<asrwt>0</asrwt>
<pdfrwt beam="2">  1       21 0.80621128E-01 0.13510025E+03</pdfrwt>
<pdfrwt beam="1">  1        4 0.48202674E-02 0.13510025E+03</pdfrwt>
<totfact> 0.14110133E+04</totfact>
</mgrwt>
</event>
<event>
 6    4  0.6195789E-003  0.1268166E+03  0.7818608E-02  0.1232257E+00
          4   -1    0    0  502    0 -0.00000000000E+00  0.00000000000E+00  0.43109761436E+02  0.43128464279E+02  0.12700000000E+01 0. -1.
         21   -1    0    0  501  502  0.00000000000E+00 -0.00000000000E+00 -0.12013479807E+04  0.12013479807E+04  0.00000000000E+00 0.  1.
         25    2    1    2    0    0 -0.14196485812E+02 -0.15990216369E+02 -0.50453242926E+02  0.13648438999E+03  0.12500092703E+03 0.  0.
    9000005    1    3    3    0    0 -0.35673404904E+02 -0.28331350000E+02 -0.83529280677E+02  0.95149345456E+02  0.10000000000E+01 0.  0.
    9000005    1    3    3    0    0  0.21476919092E+02  0.12341133632E+02  0.33076037751E+02  0.41335044530E+02  0.10000000000E+01 0.  0.
          4    1    1    2  501    0  0.14196485812E+02  0.15990216369E+02 -0.11077849764E+04  0.11079920550E+04  0.12700000000E+01 0.  1.
<mgrwt>
<rscale>  1 0.12681664E+03</rscale>
<asrwt>0</asrwt>
<pdfrwt beam="2">  1       21 0.18482280E+00 0.12681664E+03</pdfrwt>
<pdfrwt beam="1">  1        4 0.66337603E-02 0.12681664E+03</pdfrwt>
<totfact> 0.10805388E+03</totfact>
</mgrwt>
</event>
<event>
 6    4  0.6195789E-003  0.1279724E+03  0.7818608E-02  0.1230496E+00
         21   -1    0    0  501  502  0.00000000000E+00  0.00000000000E+00  0.88693005267E+01  0.88693005267E+01  0.00000000000E+00 0.  1.
          4   -1    0    0  502    0 -0.00000000000E+00 -0.00000000000E+00 -0.70356278825E+03  0.70356393449E+03  0.12700000000E+01 0.  1.
         25    2    1    2    0    0 -0.12874405514E+02  0.24056699457E+02 -0.51424318909E+03  0.52992734940E+03  0.12502984848E+03 0.  0.
    9000005    1    3    3    0    0 -0.40081183509E+02  0.64442138857E+02 -0.36934797919E+03  0.37706527321E+03  0.10000000000E+01 0.  0.
    9000005    1    3    3    0    0  0.27206777995E+02 -0.40385439401E+02 -0.14489520990E+03  0.15286207619E+03  0.10000000000E+01 0.  0.
          4    1    1    2  501    0  0.12874405514E+02 -0.24056699457E+02 -0.18045029863E+03  0.18250588561E+03  0.12700000000E+01 0. -1.
<mgrwt>
<rscale>  1 0.12797241E+03</rscale>
<asrwt>0</asrwt>
<pdfrwt beam="1">  1       21 0.13645073E-02 0.12797241E+03</pdfrwt>
<pdfrwt beam="2">  1        4 0.10824755E+00 0.12797241E+03</pdfrwt>
<totfact> 0.64782509E+04</totfact>
</mgrwt>
</event>
<event>
 6    4  0.6195789E-003  0.1354632E+03  0.7818608E-02  0.1219567E+00
         -4   -1    0    0    0  501 -0.00000000000E+00  0.00000000000E+00  0.65032626119E+01  0.66261093108E+01  0.12700000000E+01 0. -1.
         21   -1    0    0  501  502  0.00000000000E+00 -0.00000000000E+00 -0.20487120952E+04  0.20487120952E+04  0.00000000000E+00 0.  1.
         25    2    1    2    0    0  0.65499950491E+01 -0.51787853583E+02 -0.75402861818E+03  0.76610014972E+03  0.12500159264E+03 0.  0.
    9000005    1    3    3    0    0 -0.43471964081E+02 -0.60617093230E+02 -0.58091299120E+03  0.58568348705E+03  0.10000000000E+01 0.  0.
    9000005    1    3    3    0    0  0.50021959130E+02  0.88292396473E+01 -0.17311562698E+03  0.18041666268E+03  0.10000000000E+01 0.  0.
         -4    1    1    2    0  502 -0.65499950491E+01  0.51787853583E+02 -0.12881802145E+04  0.12892380548E+04  0.12700000000E+01 0.  1.
<mgrwt>
<rscale>  1 0.13546321E+03</rscale>
<asrwt>0</asrwt>
<pdfrwt beam="2">  1       21 0.31518675E+00 0.13546321E+03</pdfrwt>
<pdfrwt beam="1">  1       -4 0.10099811E-02 0.13546321E+03</pdfrwt>
<totfact> 0.34934483E+03</totfact>
</mgrwt>
</event>
<event>
 6    4  0.6195789E-003  0.1304085E+03  0.7818608E-02  0.1226851E+00
         21   -1    0    0  501  502  0.00000000000E+00  0.00000000000E+00  0.17603994681E+03  0.17603994681E+03  0.00000000000E+00 0. -1.
         -4   -1    0    0    0  501 -0.00000000000E+00 -0.00000000000E+00 -0.98188688546E+02  0.98196901470E+02  0.12700000000E+01 0.  1.
         25    2    1    2    0    0 -0.27113279261E+02  0.25423460357E+02 -0.51075136966E+02  0.14005372514E+03  0.12499957624E+03 0.  0.
    9000005    1    3    3    0    0 -0.68963286888E+01 -0.42766857417E+02  0.12024617601E+02  0.44968376346E+02  0.10000000000E+01 0.  0.
    9000005    1    3    3    0    0 -0.20216950573E+02  0.68190317774E+02 -0.63099754567E+02  0.95085348793E+02  0.10000000000E+01 0.  0.
         -4    1    1    2    0  502  0.27113279261E+02 -0.25423460357E+02  0.12892639523E+03  0.13418312314E+03  0.12700000000E+01 0. -1.
<mgrwt>
<rscale>  1 0.13040850E+03</rscale>
<asrwt>0</asrwt>
<pdfrwt beam="1">  1       21 0.27083069E-01 0.13040850E+03</pdfrwt>
<pdfrwt beam="2">  1       -4 0.15106936E-01 0.13040850E+03</pdfrwt>
<totfact> 0.19686138E+04</totfact>
</mgrwt>
</event>
<event>
 6    4  0.6195789E-003  0.1273946E+03  0.7818608E-02  0.1231374E+00
         -4   -1    0    0    0  501 -0.00000000000E+00  0.00000000000E+00  0.29703312668E+03  0.29703584168E+03  0.12700000000E+01 0.  1.
         21   -1    0    0  501  502  0.00000000000E+00 -0.00000000000E+00 -0.22878642184E+02  0.22878642184E+02  0.00000000000E+00 0. -1.
         25    2    1    2    0    0  0.42419166431E+01 -0.24204974118E+02  0.26431393527E+03  0.29341308885E+03  0.12500203879E+03 0.  0.
    9000005    1    3    3    0    0 -0.82363571720E+01 -0.48252272924E+02  0.29755638910E+02  0.57293258493E+02  0.10000000000E+01 0.  0.
    9000005    1    3    3    0    0  0.12478273815E+02  0.24047298807E+02  0.23455829636E+03  0.23611983036E+03  0.10000000000E+01 0.  0.
         -4    1    1    2    0  502 -0.42419166431E+01  0.24204974118E+02  0.98405492292E+01  0.26501395019E+02  0.12700000000E+01 0. -1.
<mgrwt>
<rscale>  1 0.12739460E+03</rscale>
<asrwt>0</asrwt>
<pdfrwt beam="2">  1       21 0.35197913E-02 0.12739460E+03</pdfrwt>
<pdfrwt beam="1">  1       -4 0.45700322E-01 0.12739460E+03</pdfrwt>
<totfact> 0.90068507E+04</totfact>
</mgrwt>
</event>
<event>
 6    4  0.6195789E-003  0.1306923E+03  0.7818608E-02  0.1226432E+00
          4   -1    0    0  502    0 -0.00000000000E+00  0.00000000000E+00  0.12568857803E+03  0.12569499413E+03  0.12700000000E+01 0. -1.
         21   -1    0    0  501  502  0.00000000000E+00 -0.00000000000E+00 -0.67385268212E+02  0.67385268212E+02  0.00000000000E+00 0. -1.
         25    2    1    2    0    0  0.16862679906E+01  0.38131848722E+02  0.75788689433E+02  0.15107749116E+03  0.12499440588E+03 0.  0.
    9000005    1    3    3    0    0 -0.60061346169E+02  0.17381002146E+02  0.21038644339E+02  0.65977944003E+02  0.10000000000E+01 0.  0.
    9000005    1    3    3    0    0  0.61747614159E+02  0.20750846576E+02  0.54750045094E+02  0.85099547154E+02  0.10000000000E+01 0.  0.
          4    1    1    2  501    0 -0.16862679906E+01 -0.38131848722E+02 -0.17485379611E+02  0.42002771181E+02  0.12700000000E+01 0.  1.
<mgrwt>
<rscale>  1 0.13069232E+03</rscale>
<asrwt>0</asrwt>
<pdfrwt beam="2">  1       21 0.10366964E-01 0.13069232E+03</pdfrwt>
<pdfrwt beam="1">  1        4 0.19338118E-01 0.13069232E+03</pdfrwt>
<totfact> 0.73311807E+04</totfact>
</mgrwt>
</event>
<event>
 6    4  0.6195789E-003  0.1281098E+03  0.7818608E-02  0.1230288E+00
         21   -1    0    0  501  502  0.00000000000E+00  0.00000000000E+00  0.52120467296E+02  0.52120467296E+02  0.00000000000E+00 0. -1.
         -4   -1    0    0    0  501 -0.00000000000E+00 -0.00000000000E+00 -0.13026852284E+03  0.13027471337E+03  0.12700000000E+01 0. -1.
         25    2    1    2    0    0 -0.46321519376E+01 -0.27671156058E+02 -0.84671831264E+02  0.15356252108E+03  0.12499991665E+03 0.  0.
    9000005    1    3    3    0    0  0.32171998153E+02 -0.61751697767E+02 -0.75228266386E+02  0.10251147109E+03  0.10000000000E+01 0.  0.
    9000005    1    3    3    0    0 -0.36804150091E+02  0.34080541709E+02 -0.94435648780E+01  0.51051049986E+02  0.10000000000E+01 0.  0.
         -4    1    1    2    0  502  0.46321519376E+01  0.27671156058E+02  0.65237757192E+01  0.28832659585E+02  0.12700000000E+01 0.  1.
<mgrwt>
<rscale>  1 0.12810983E+03</rscale>
<asrwt>0</asrwt>
<pdfrwt beam="1">  1       21 0.80185335E-02 0.12810983E+03</pdfrwt>
<pdfrwt beam="2">  1       -4 0.20042977E-01 0.12810983E+03</pdfrwt>
<totfact> 0.10716039E+05</totfact>
</mgrwt>
</event>
<event>
 6    4  0.6195789E-003  0.1334972E+03  0.7818608E-02  0.1222357E+00
         21   -1    0    0  501  502  0.00000000000E+00  0.00000000000E+00  0.38470769940E+03  0.38470769940E+03  0.00000000000E+00 0.  1.
         -4   -1    0    0    0  501 -0.00000000000E+00 -0.00000000000E+00 -0.32027109023E+02  0.32052279363E+02  0.12700000000E+01 0. -1.
         25    2    1    2    0    0 -0.43651530180E+02  0.17035905261E+02  0.12031748494E+03  0.17971588197E+03  0.12500329154E+03 0.  0.
    9000005    1    3    3    0    0  0.53958711268E+01  0.46956678884E+02  0.10047678649E+01  0.47286939799E+02  0.10000000000E+01 0.  0.
    9000005    1    3    3    0    0 -0.49047401307E+02 -0.29920773623E+02  0.11931271707E+03  0.13242894217E+03  0.10000000000E+01 0.  0.
         -4    1    1    2    0  502  0.43651530180E+02 -0.17035905261E+02  0.23236310544E+03  0.23704409679E+03  0.12700000000E+01 0.  1.
<mgrwt>
<rscale>  1 0.13349719E+03</rscale>
<asrwt>0</asrwt>
<pdfrwt beam="1">  1       21 0.59185797E-01 0.13349719E+03</pdfrwt>
<pdfrwt beam="2">  1       -4 0.49293452E-02 0.13349719E+03</pdfrwt>
<totfact> 0.26667245E+04</totfact>
</mgrwt>
</event>
<event>
 6    4  0.6195789E-003  0.1399078E+03  0.7818608E-02  0.1213453E+00
         21   -1    0    0  501  502  0.00000000000E+00  0.00000000000E+00  0.13776166872E+03  0.13776166872E+03  0.00000000000E+00 0. -1.
         -4   -1    0    0    0  501 -0.00000000000E+00 -0.00000000000E+00 -0.83128709700E+02  0.83138410356E+02  0.12700000000E+01 0. -1.
         25    2    1    2    0    0  0.58100731305E+01 -0.62573302242E+02  0.69634926474E+02  0.15627928497E+03  0.12500006729E+03 0.  0.
    9000005    1    3    3    0    0 -0.36820658409E+02 -0.65911161638E+02  0.82282523218E+02  0.11167567211E+03  0.10000000000E+01 0.  0.
    9000005    1    3    3    0    0  0.42630731539E+02  0.33378593964E+01 -0.12647596744E+02  0.44603612862E+02  0.10000000000E+01 0.  0.
         -4    1    1    2    0  502 -0.58100731305E+01  0.62573302242E+02 -0.15001967453E+02  0.64620794105E+02  0.12700000000E+01 0.  1.
<mgrwt>
<rscale>  1 0.13990780E+03</rscale>
<asrwt>0</asrwt>
<pdfrwt beam="1">  1       21 0.21194103E-01 0.13990780E+03</pdfrwt>
<pdfrwt beam="2">  1       -4 0.12790229E-01 0.13990780E+03</pdfrwt>
<totfact> 0.41998509E+04</totfact>
</mgrwt>
</event>
<event>
 6    4  0.6195789E-003  0.1274894E+03  0.7818608E-02  0.1231229E+00
          4   -1    0    0  502    0 -0.00000000000E+00  0.00000000000E+00  0.48898215665E+03  0.48898380589E+03  0.12700000000E+01 0. -1.
         21   -1    0    0  501  502  0.00000000000E+00 -0.00000000000E+00 -0.12612426142E+02  0.12612426142E+02  0.00000000000E+00 0. -1.
         25    2    1    2    0    0 -0.22349502054E+02 -0.11329654712E+02  0.43417546502E+03  0.45250621005E+03  0.12500269754E+03 0.  0.
    9000005    1    3    3    0    0  0.33232953747E+02 -0.81789899553E+01  0.33231232712E+02  0.47714147997E+02  0.10000000000E+01 0.  0.
    9000005    1    3    3    0    0 -0.55582455801E+02 -0.31506647571E+01  0.40094423231E+03  0.40479206206E+03  0.10000000000E+01 0.  0.
          4    1    1    2  501    0  0.22349502054E+02  0.11329654712E+02  0.42194265485E+02  0.49090021978E+02  0.12700000000E+01 0.  1.
<mgrwt>
<rscale>  1 0.12748936E+03</rscale>
<asrwt>0</asrwt>
<pdfrwt beam="2">  1       21 0.19403736E-02 0.12748936E+03</pdfrwt>
<pdfrwt beam="1">  1        4 0.75233055E-01 0.12748936E+03</pdfrwt>
<totfact> 0.83891634E+04</totfact>
</mgrwt>
</event>
<event>
 6    4  0.6195789E-003  0.1296988E+03  0.7818608E-02  0.1227903E+00
         -4   -1    0    0    0  501 -0.00000000000E+00  0.00000000000E+00  0.72776108041E+02  0.72787188444E+02  0.12700000000E+01 0.  1.
         21   -1    0    0  501  502  0.00000000000E+00 -0.00000000000E+00 -0.25202003606E+03  0.25202003606E+03  0.00000000000E+00 0. -1.
         25    2    1    2    0    0 -0.29927247520E+02 -0.17351968046E+02  0.12188320801E+02  0.13027021073E+03  0.12500016680E+03 0.  0.
    9000005    1    3    3    0    0  0.19973833385E+02  0.39662098173E+02  0.28479272728E+02  0.52764619081E+02  0.10000000000E+01 0.  0.
    9000005    1    3    3    0    0 -0.49901080906E+02 -0.57014066219E+02 -0.16290951928E+02  0.77505591651E+02  0.10000000000E+01 0.  0.
         -4    1    1    2    0  502  0.29927247520E+02  0.17351968046E+02 -0.19143224882E+03  0.19453701377E+03  0.12700000000E+01 0. -1.
<mgrwt>
<rscale>  1 0.12969878E+03</rscale>
<asrwt>0</asrwt>
<pdfrwt beam="2">  1       21 0.38772313E-01 0.12969878E+03</pdfrwt>
<pdfrwt beam="1">  1       -4 0.11197423E-01 0.12969878E+03</pdfrwt>
<totfact> 0.16383028E+04</totfact>
</mgrwt>
</event>
<event>
 6    4  0.6195789E-003  0.1289943E+03  0.7818608E-02  0.1228956E+00
         -4   -1    0    0    0  501 -0.00000000000E+00  0.00000000000E+00  0.76601829321E+02  0.76612356414E+02  0.12700000000E+01 0.  1.
         21   -1    0    0  501  502  0.00000000000E+00 -0.00000000000E+00 -0.16482505135E+03  0.16482505135E+03  0.00000000000E+00 0.  1.
         25    2    1    2    0    0  0.31275823769E+01  0.31713311428E+02  0.18260416931E+02  0.13028033800E+03  0.12499603093E+03 0.  0.
    9000005    1    3    3    0    0 -0.18235261466E+02  0.76205111965E+02  0.20035153339E+02  0.80883565820E+02  0.10000000000E+01 0.  0.
    9000005    1    3    3    0    0  0.21362843842E+02 -0.44491800538E+02 -0.17747364088E+01  0.49396772176E+02  0.10000000000E+01 0.  0.
         -4    1    1    2    0  502 -0.31275823769E+01 -0.31713311428E+02 -0.10648363896E+03  0.11115706977E+03  0.12700000000E+01 0. -1.
<mgrwt>
<rscale>  1 0.12899428E+03</rscale>
<asrwt>0</asrwt>
<pdfrwt beam="2">  1       21 0.25357700E-01 0.12899428E+03</pdfrwt>
<pdfrwt beam="1">  1       -4 0.11786083E-01 0.12899428E+03</pdfrwt>
<totfact> 0.34196023E+04</totfact>
</mgrwt>
</event>
<event>
 6    4  0.6195789E-003  0.1274806E+03  0.7818608E-02  0.1231243E+00
         21   -1    0    0  501  502  0.00000000000E+00  0.00000000000E+00  0.16008596452E+02  0.16008596452E+02  0.00000000000E+00 0.  1.
         -4   -1    0    0    0  501 -0.00000000000E+00 -0.00000000000E+00 -0.39214368723E+03  0.39214574374E+03  0.12700000000E+01 0.  1.
         25    2    1    2    0    0 -0.13556986721E+01  0.24961898908E+02 -0.34737002919E+03  0.37002330317E+03  0.12500549347E+03 0.  0.
    9000005    1    3    3    0    0 -0.40157087209E+02  0.48099934600E+02 -0.29153277990E+03  0.29819214798E+03  0.10000000000E+01 0.  0.
    9000005    1    3    3    0    0  0.38801388537E+02 -0.23138035692E+02 -0.55837249286E+02  0.71831155190E+02  0.10000000000E+01 0.  0.
         -4    1    1    2    0  502  0.13556986721E+01 -0.24961898908E+02 -0.28765061591E+02  0.38131037022E+02  0.12700000000E+01 0. -1.
<mgrwt>
<rscale>  1 0.12748062E+03</rscale>
<asrwt>0</asrwt>
<pdfrwt beam="1">  1       21 0.24628610E-02 0.12748062E+03</pdfrwt>
<pdfrwt beam="2">  1       -4 0.60333832E-01 0.12748062E+03</pdfrwt>
<totfact> 0.91460238E+04</totfact>
</mgrwt>
</event>
<event>
 6    4  0.6195789E-003  0.1334545E+03  0.7818608E-02  0.1222418E+00
         -4   -1    0    0    0  501 -0.00000000000E+00  0.00000000000E+00  0.17994969819E+03  0.17995417966E+03  0.12700000000E+01 0. -1.
         21   -1    0    0  501  502  0.00000000000E+00 -0.00000000000E+00 -0.69928342300E+02  0.69928342300E+02  0.00000000000E+00 0.  1.
         25    2    1    2    0    0 -0.46537611385E+02 -0.44967937175E+01  0.14071802452E+03  0.19393729167E+03  0.12499656095E+03 0.  0.
    9000005    1    3    3    0    0 -0.44901142596E+02 -0.48209375851E+02  0.25429745278E+02  0.70625267937E+02  0.10000000000E+01 0.  0.
    9000005    1    3    3    0    0 -0.16364687894E+01  0.43712582133E+02  0.11528827924E+03  0.12331202373E+03  0.10000000000E+01 0.  0.
         -4    1    1    2    0  502  0.46537611385E+02  0.44967937175E+01 -0.30696668632E+02  0.55945230290E+02  0.12700000000E+01 0.  1.
<mgrwt>
<rscale>  1 0.13345453E+03</rscale>
<asrwt>0</asrwt>
<pdfrwt beam="2">  1       21 0.10758207E-01 0.13345453E+03</pdfrwt>
<pdfrwt beam="1">  1       -4 0.27685801E-01 0.13345453E+03</pdfrwt>
<totfact> 0.35731349E+04</totfact>
</mgrwt>
</event>
<event>
 6    4  0.6195789E-003  0.1279442E+03  0.7818608E-02  0.1230538E+00
         -4   -1    0    0    0  501 -0.00000000000E+00  0.00000000000E+00  0.11496457843E+03  0.11497159299E+03  0.12700000000E+01 0. -1.
         21   -1    0    0  501  502  0.00000000000E+00 -0.00000000000E+00 -0.83546599514E+02  0.83546599514E+02  0.00000000000E+00 0. -1.
         25    2    1    2    0    0  0.59531800585E+01  0.26639251038E+02  0.74088965001E+02  0.14784753036E+03  0.12499850979E+03 0.  0.
    9000005    1    3    3    0    0  0.62507644182E+01  0.58256547644E+02 -0.86802975659E+01  0.59238880519E+02  0.10000000000E+01 0.  0.
    9000005    1    3    3    0    0 -0.29758435961E+00 -0.31617296607E+02  0.82769262567E+02  0.88608649844E+02  0.10000000000E+01 0.  0.
         -4    1    1    2    0  502 -0.59531800585E+01 -0.26639251038E+02 -0.42670986082E+02  0.50670662141E+02  0.12700000000E+01 0.  1.
<mgrwt>
<rscale>  1 0.12794420E+03</rscale>
<asrwt>0</asrwt>
<pdfrwt beam="2">  1       21 0.12853323E-01 0.12794420E+03</pdfrwt>
<pdfrwt beam="1">  1       -4 0.17688140E-01 0.12794420E+03</pdfrwt>
<totfact> 0.58613393E+04</totfact>
</mgrwt>
</event>
<event>
 6    4  0.6195789E-003  0.1285059E+03  0.7818608E-02  0.1229690E+00
          4   -1    0    0  502    0 -0.00000000000E+00  0.00000000000E+00  0.69442640987E+02  0.69454253197E+02  0.12700000000E+01 0.  1.
         21   -1    0    0  501  502  0.00000000000E+00 -0.00000000000E+00 -0.10758465620E+03  0.10758465620E+03  0.00000000000E+00 0. -1.
         25    2    1    2    0    0 -0.20778515774E+02 -0.21398932531E+02  0.12255681080E+00  0.12850591646E+03  0.12499637800E+03 0.  0.
    9000005    1    3    3    0    0 -0.19514316397E+02  0.32392721101E+02 -0.44635494225E+02  0.58510035630E+02  0.10000000000E+01 0.  0.
    9000005    1    3    3    0    0 -0.12641993770E+01 -0.53791653632E+02  0.44758051035E+02  0.69995880829E+02  0.10000000000E+01 0.  0.
          4    1    1    2  501    0  0.20778515774E+02  0.21398932531E+02 -0.38264572020E+02  0.48532992934E+02  0.12700000000E+01 0. -1.
<mgrwt>
<rscale>  1 0.12850586E+03</rscale>
<asrwt>0</asrwt>
<pdfrwt beam="2">  1       21 0.16551485E-01 0.12850586E+03</pdfrwt>
<pdfrwt beam="1">  1        4 0.10684953E-01 0.12850586E+03</pdfrwt>
<totfact> 0.89030217E+04</totfact>
</mgrwt>
</event>
<event>
 6    4  0.6195789E-003  0.1287177E+03  0.7818608E-02  0.1229371E+00
         -4   -1    0    0    0  501 -0.00000000000E+00  0.00000000000E+00  0.18834243268E+03  0.18834671446E+03  0.12700000000E+01 0.  1.
         21   -1    0    0  501  502  0.00000000000E+00 -0.00000000000E+00 -0.22354061137E+03  0.22354061137E+03  0.00000000000E+00 0. -1.
         25    2    1    2    0    0 -0.25812315417E+02  0.16618619676E+02  0.16504315419E+03  0.20930238454E+03  0.12500316509E+03 0.  0.
    9000005    1    3    3    0    0 -0.41696900606E+02  0.42500284056E+02  0.16850945835E+03  0.17872141231E+03  0.10000000000E+01 0.  0.
    9000005    1    3    3    0    0  0.15884585189E+02 -0.25881664381E+02 -0.34663041651E+01  0.30580972226E+02  0.10000000000E+01 0.  0.
         -4    1    1    2    0  502  0.25812315417E+02 -0.16618619676E+02 -0.20024133287E+03  0.20258494129E+03  0.12700000000E+01 0. -1.
<mgrwt>
<rscale>  1 0.12871770E+03</rscale>
<asrwt>0</asrwt>
<pdfrwt beam="2">  1       21 0.34390863E-01 0.12871770E+03</pdfrwt>
<pdfrwt beam="1">  1       -4 0.28976366E-01 0.12871770E+03</pdfrwt>
<totfact> 0.38164465E+03</totfact>
</mgrwt>
</event>
<event>
 6    4  0.6195789E-003  0.1269732E+03  0.7818608E-02  0.1232017E+00
         21   -1    0    0  501  502  0.00000000000E+00  0.00000000000E+00  0.46693742908E+01  0.46693742908E+01  0.00000000000E+00 0. -1.
         -4   -1    0    0    0  501 -0.00000000000E+00 -0.00000000000E+00 -0.12127978041E+04  0.12127984691E+04  0.12700000000E+01 0. -1.
         25    2    1    2    0    0  0.14508474381E+02 -0.16600645343E+02 -0.10815057596E+04  0.10889338371E+04  0.12504445703E+03 0.  0.
    9000005    1    3    3    0    0 -0.38051674204E+01 -0.47732024945E+02 -0.16746204663E+03  0.17417623996E+03  0.10000000000E+01 0.  0.
    9000005    1    3    3    0    0  0.18313641801E+02  0.31131379602E+02 -0.91404371296E+03  0.91475759711E+03  0.10000000000E+01 0.  0.
         -4    1    1    2    0  502 -0.14508474381E+02  0.16600645343E+02 -0.12662267026E+03  0.12853400631E+03  0.12700000000E+01 0.  1.
<mgrwt>
<rscale>  1 0.12697320E+03</rscale>
<asrwt>0</asrwt>
<pdfrwt beam="1">  1       21 0.71836463E-03 0.12697320E+03</pdfrwt>
<pdfrwt beam="2">  1       -4 0.18659778E+00 0.12697320E+03</pdfrwt>
<totfact> 0.45096507E+04</totfact>
</mgrwt>
</event>
<event>
 6    4  0.6195789E-003  0.1303265E+03  0.7818608E-02  0.1226972E+00
          4   -1    0    0  502    0 -0.00000000000E+00  0.00000000000E+00  0.44823340928E+03  0.44823520845E+03  0.12700000000E+01 0. -1.
         21   -1    0    0  501  502  0.00000000000E+00 -0.00000000000E+00 -0.23077544664E+02  0.23077544664E+02  0.00000000000E+00 0. -1.
         25    2    1    2    0    0  0.32774241140E+01  0.36734178319E+02  0.41202316235E+03  0.43214360538E+03  0.12499947195E+03 0.  0.
    9000005    1    3    3    0    0 -0.25396045590E+02 -0.21195785884E+02  0.29931603851E+02  0.44621983147E+02  0.10000000000E+01 0.  0.
    9000005    1    3    3    0    0  0.28673469704E+02  0.57929964203E+02  0.38209155850E+03  0.38752162223E+03  0.10000000000E+01 0.  0.
          4    1    1    2  501    0 -0.32774241140E+01 -0.36734178319E+02  0.13132702259E+02  0.39169147734E+02  0.12700000000E+01 0.  1.
<mgrwt>
<rscale>  1 0.13032655E+03</rscale>
<asrwt>0</asrwt>
<pdfrwt beam="2">  1       21 0.35503918E-02 0.13032655E+03</pdfrwt>
<pdfrwt beam="1">  1        4 0.68961806E-01 0.13032655E+03</pdfrwt>
<totfact> 0.37923908E+04</totfact>
</mgrwt>
</event>
<event>
 6    4  0.6195789E-003  0.1297022E+03  0.7818608E-02  0.1227898E+00
         -4   -1    0    0    0  501 -0.00000000000E+00  0.00000000000E+00  0.30783195519E+03  0.30783457495E+03  0.12700000000E+01 0. -1.
         21   -1    0    0  501  502  0.00000000000E+00 -0.00000000000E+00 -0.22517033505E+02  0.22517033505E+02  0.00000000000E+00 0. -1.
         25    2    1    2    0    0 -0.32864207555E+02  0.10959663275E+02  0.24473679393E+03  0.27698150719E+03  0.12498994625E+03 0.  0.
    9000005    1    3    3    0    0 -0.70553670346E+02  0.36116571460E+02  0.11597920620E+03  0.14047919207E+03  0.10000000000E+01 0.  0.
    9000005    1    3    3    0    0  0.37689462791E+02 -0.25156908185E+02  0.12875758773E+03  0.13650231512E+03  0.10000000000E+01 0.  0.
         -4    1    1    2    0  502  0.32864207555E+02 -0.10959663275E+02  0.40578127750E+02  0.53370101265E+02  0.12700000000E+01 0.  1.
<mgrwt>
<rscale>  1 0.12970219E+03</rscale>
<asrwt>0</asrwt>
<pdfrwt beam="2">  1       21 0.34641592E-02 0.12970219E+03</pdfrwt>
<pdfrwt beam="1">  1       -4 0.47361716E-01 0.12970219E+03</pdfrwt>
<totfact> 0.86287107E+04</totfact>
</mgrwt>
</event>
<event>
 6    4  0.6195789E-003  0.1274621E+03  0.7818608E-02  0.1231271E+00
         21   -1    0    0  501  502  0.00000000000E+00  0.00000000000E+00  0.27690909458E+02  0.27690909458E+02  0.00000000000E+00 0. -1.
         -4   -1    0    0    0  501 -0.00000000000E+00 -0.00000000000E+00 -0.22124374530E+03  0.22124739035E+03  0.12700000000E+01 0. -1.
         25    2    1    2    0    0 -0.17061436755E+02 -0.18172174088E+02 -0.17993397195E+03  0.22050580275E+03  0.12500101699E+03 0.  0.
    9000005    1    3    3    0    0  0.10042814829E+02  0.14245591385E+02  0.13775398696E+02  0.22238628843E+02  0.10000000000E+01 0.  0.
    9000005    1    3    3    0    0 -0.27104251584E+02 -0.32417765473E+02 -0.19370937065E+03  0.19826717391E+03  0.10000000000E+01 0.  0.
         -4    1    1    2    0  502  0.17061436755E+02  0.18172174088E+02 -0.13618863896E+02  0.28432497060E+02  0.12700000000E+01 0.  1.
<mgrwt>
<rscale>  1 0.12746205E+03</rscale>
<asrwt>0</asrwt>
<pdfrwt beam="1">  1       21 0.42601399E-02 0.12746205E+03</pdfrwt>
<pdfrwt beam="2">  1       -4 0.34040020E-01 0.12746205E+03</pdfrwt>
<totfact> 0.11697127E+05</totfact>
</mgrwt>
</event>
<event>
 6    4  0.6195789E-003  0.1277075E+03  0.7818608E-02  0.1230898E+00
         -4   -1    0    0    0  501 -0.00000000000E+00  0.00000000000E+00  0.69744306190E+03  0.69744421819E+03  0.12700000000E+01 0. -1.
         21   -1    0    0  501  502  0.00000000000E+00 -0.00000000000E+00 -0.30290360324E+02  0.30290360324E+02  0.00000000000E+00 0.  1.
         25    2    1    2    0    0  0.25658384214E+02  0.51098242505E+01  0.68450431489E+03  0.69631556565E+03  0.12499898750E+03 0.  0.
    9000005    1    3    3    0    0 -0.44969443689E+02  0.21714588196E+02  0.38089639651E+03  0.38415731033E+03  0.10000000000E+01 0.  0.
    9000005    1    3    3    0    0  0.70627827903E+02 -0.16604763946E+02  0.30360791838E+03  0.31215825532E+03  0.10000000000E+01 0.  0.
         -4    1    1    2    0  502 -0.25658384214E+02 -0.51098242505E+01 -0.17351613322E+02  0.31419012862E+02  0.12700000000E+01 0.  1.
<mgrwt>
<rscale>  1 0.12770752E+03</rscale>
<asrwt>0</asrwt>
<pdfrwt beam="2">  1       21 0.46600560E-02 0.12770752E+03</pdfrwt>
<pdfrwt beam="1">  1       -4 0.10730106E+00 0.12770752E+03</pdfrwt>
<totfact> 0.89369138E+03</totfact>
</mgrwt>
</event>
<event>
 6    4  0.6195789E-003  0.1291412E+03  0.7818608E-02  0.1228736E+00
          4   -1    0    0  502    0 -0.00000000000E+00  0.00000000000E+00  0.52381084174E+03  0.52381238132E+03  0.12700000000E+01 0. -1.
         21   -1    0    0  501  502  0.00000000000E+00 -0.00000000000E+00 -0.15871988252E+02  0.15871988252E+02  0.00000000000E+00 0. -1.
         25    2    1    2    0    0  0.26816366977E+02  0.18263183022E+02  0.47928824236E+03  0.49638157740E+03  0.12499915889E+03 0.  0.
    9000005    1    3    3    0    0 -0.46978274259E+02 -0.66869208581E+01  0.24268826626E+03  0.24728580174E+03  0.10000000000E+01 0.  0.
    9000005    1    3    3    0    0  0.73794641236E+02  0.24950103881E+02  0.23659997610E+03  0.24909577566E+03  0.10000000000E+01 0.  0.
          4    1    1    2  501    0 -0.26816366977E+02 -0.18263183022E+02  0.28650611121E+02  0.43302792168E+02  0.12700000000E+01 0.  1.
<mgrwt>
<rscale>  1 0.12914121E+03</rscale>
<asrwt>0</asrwt>
<pdfrwt beam="2">  1       21 0.24418448E-02 0.12914121E+03</pdfrwt>
<pdfrwt beam="1">  1        4 0.80590297E-01 0.12914121E+03</pdfrwt>
<totfact> 0.49805094E+04</totfact>
</mgrwt>
</event>
<event>
 6    4  0.6195789E-003  0.1331727E+03  0.7818608E-02  0.1222822E+00
         21   -1    0    0  501  502  0.00000000000E+00  0.00000000000E+00  0.18669101085E+02  0.18669101085E+02  0.00000000000E+00 0.  1.
          4   -1    0    0  502    0 -0.00000000000E+00 -0.00000000000E+00 -0.43674126368E+03  0.43674311019E+03  0.12700000000E+01 0.  1.
         25    2    1    2    0    0  0.34546503423E+02 -0.30287366489E+02 -0.28381282557E+03  0.31350390305E+03  0.12499676715E+03 0.  0.
    9000005    1    3    3    0    0  0.52642629277E+02 -0.69706054797E+02 -0.15976633309E+03  0.18208915861E+03  0.10000000000E+01 0.  0.
    9000005    1    3    3    0    0 -0.18096125854E+02  0.39418688308E+02 -0.12404649248E+03  0.13141474444E+03  0.10000000000E+01 0.  0.
          4    1    1    2  501    0 -0.34546503423E+02  0.30287366489E+02 -0.13425933702E+03  0.14190830823E+03  0.12700000000E+01 0. -1.
<mgrwt>
<rscale>  1 0.13317273E+03</rscale>
<asrwt>0</asrwt>
<pdfrwt beam="1">  1       21 0.28721693E-02 0.13317273E+03</pdfrwt>
<pdfrwt beam="2">  1        4 0.67194430E-01 0.13317273E+03</pdfrwt>
<totfact> 0.56992376E+04</totfact>
</mgrwt>
</event>
<event>
 6    4  0.6195789E-003  0.1286023E+03  0.7818608E-02  0.1229545E+00
         21   -1    0    0  501  502  0.00000000000E+00  0.00000000000E+00  0.22292545282E+03  0.22292545282E+03  0.00000000000E+00 0.  1.
          4   -1    0    0  502    0 -0.00000000000E+00 -0.00000000000E+00 -0.28311489808E+02  0.28339960394E+02  0.12700000000E+01 0.  1.
         25    2    1    2    0    0 -0.28952104392E+02  0.86885609917E+01  0.16055116103E+03  0.20570662899E+03  0.12499930585E+03 0.  0.
    9000005    1    3    3    0    0  0.29697102404E+01 -0.21069752837E+02 -0.14190228823E+02  0.25595238963E+02  0.10000000000E+01 0.  0.
    9000005    1    3    3    0    0 -0.31921814633E+02  0.29758313829E+02  0.17474138985E+03  0.18011139003E+03  0.10000000000E+01 0.  0.
          4    1    1    2  501    0  0.28952104392E+02 -0.86885609917E+01  0.34062801986E+02  0.45558784224E+02  0.12700000000E+01 0. -1.
<mgrwt>
<rscale>  1 0.12860226E+03</rscale>
<asrwt>0</asrwt>
<pdfrwt beam="1">  1       21 0.34296222E-01 0.12860226E+03</pdfrwt>
<pdfrwt beam="2">  1        4 0.43580823E-02 0.12860226E+03</pdfrwt>
<totfact> 0.98180832E+04</totfact>
</mgrwt>
</event>
<event>
 6    4  0.6195789E-003  0.1565725E+03  0.7818608E-02  0.1192622E+00
         21   -1    0    0  501  502  0.00000000000E+00  0.00000000000E+00  0.75113009002E+03  0.75113009002E+03  0.00000000000E+00 0.  1.
          4   -1    0    0  502    0 -0.00000000000E+00 -0.00000000000E+00 -0.34486754934E+02  0.34510131351E+02  0.12700000000E+01 0. -1.
         25    2    1    2    0    0 -0.42822416812E+02 -0.84004981285E+02  0.17077748466E+03  0.23168919843E+03  0.12499735652E+03 0.  0.
    9000005    1    3    3    0    0 -0.95216960988E+01 -0.10024585964E+03  0.65629968960E+02  0.12020061521E+03  0.10000000000E+01 0.  0.
    9000005    1    3    3    0    0 -0.33300720714E+02  0.16240878351E+02  0.10514751570E+03  0.11148858322E+03  0.10000000000E+01 0.  0.
          4    1    1    2  501    0  0.42822416812E+02  0.84004981285E+02  0.54586585043E+03  0.55395102295E+03  0.12700000000E+01 0.  1.
<mgrwt>
<rscale>  1 0.15657246E+03</rscale>
<asrwt>0</asrwt>
<pdfrwt beam="1">  1       21 0.11555846E+00 0.15657246E+03</pdfrwt>
<pdfrwt beam="2">  1        4 0.53075359E-02 0.15657246E+03</pdfrwt>
<totfact> 0.52597886E+03</totfact>
</mgrwt>
</event>
<event>
 6    4  0.6195789E-003  0.1300282E+03  0.7818608E-02  0.1227414E+00
         21   -1    0    0  501  502  0.00000000000E+00  0.00000000000E+00  0.12840644292E+03  0.12840644292E+03  0.00000000000E+00 0.  1.
          4   -1    0    0  502    0 -0.00000000000E+00 -0.00000000000E+00 -0.53545265113E+02  0.53560324084E+02  0.12700000000E+01 0.  1.
         25    2    1    2    0    0  0.35702840406E+02 -0.23262410077E+01  0.57387552728E+02  0.14212903761E+03  0.12500891133E+03 0.  0.
    9000005    1    3    3    0    0  0.11587252887E+02  0.55734899108E+01 -0.39716981817E+02  0.41758434644E+02  0.10000000000E+01 0.  0.
    9000005    1    3    3    0    0  0.24115587519E+02 -0.78997309185E+01  0.97104534545E+02  0.10037060296E+03  0.10000000000E+01 0.  0.
          4    1    1    2  501    0 -0.35702840406E+02  0.23262410077E+01  0.17473625083E+02  0.39837729401E+02  0.12700000000E+01 0. -1.
<mgrwt>
<rscale>  1 0.13002820E+03</rscale>
<asrwt>0</asrwt>
<pdfrwt beam="1">  1       21 0.19754837E-01 0.13002820E+03</pdfrwt>
<pdfrwt beam="2">  1        4 0.82393746E-02 0.13002820E+03</pdfrwt>
<totfact> 0.99669489E+04</totfact>
</mgrwt>
</event>
<event>
 6    4  0.6195789E-003  0.1269724E+03  0.7818608E-02  0.1232019E+00
          4   -1    0    0  502    0 -0.00000000000E+00  0.00000000000E+00  0.72273617123E+03  0.72273728705E+03  0.12700000000E+01 0. -1.
         21   -1    0    0  501  502  0.00000000000E+00 -0.00000000000E+00 -0.93850086038E+01  0.93850086038E+01  0.00000000000E+00 0. -1.
         25    2    1    2    0    0 -0.64692101627E+01 -0.21266569903E+02  0.68170230382E+03  0.69342629019E+03  0.12501148435E+03 0.  0.
    9000005    1    3    3    0    0  0.57784082831E+02 -0.21505952395E+02  0.37834828863E+03  0.38334049320E+03  0.10000000000E+01 0.  0.
    9000005    1    3    3    0    0 -0.64253292994E+02  0.23938249163E+00  0.30335401519E+03  0.31008579699E+03  0.10000000000E+01 0.  0.
          4    1    1    2  501    0  0.64692101627E+01  0.21266569903E+02  0.31648858804E+02  0.38696005468E+02  0.12700000000E+01 0.  1.
<mgrwt>
<rscale>  1 0.12697239E+03</rscale>
<asrwt>0</asrwt>
<pdfrwt beam="2">  1       21 0.14438481E-02 0.12697239E+03</pdfrwt>
<pdfrwt beam="1">  1        4 0.11119683E+00 0.12697239E+03</pdfrwt>
<totfact> 0.55517765E+04</totfact>
</mgrwt>
</event>
<event>
 6    4  0.6195789E-003  0.1305714E+03  0.7818608E-02  0.1226610E+00
          4   -1    0    0  502    0 -0.00000000000E+00  0.00000000000E+00  0.14038857679E+03  0.14039432109E+03  0.12700000000E+01 0.  1.
         21   -1    0    0  501  502  0.00000000000E+00 -0.00000000000E+00 -0.12302358628E+03  0.12302358628E+03  0.00000000000E+00 0. -1.
         25    2    1    2    0    0  0.36545351552E+02 -0.93910747027E+01  0.10528705106E+03  0.16773271189E+03  0.12500057804E+03 0.  0.
    9000005    1    3    3    0    0  0.55175012116E+02  0.33959411960E+02  0.16003277224E+02  0.66743003413E+02  0.10000000000E+01 0.  0.
    9000005    1    3    3    0    0 -0.18629660565E+02 -0.43350486662E+02  0.89283773837E+02  0.10098970847E+03  0.10000000000E+01 0.  0.
          4    1    1    2  501    0 -0.36545351552E+02  0.93910747027E+01 -0.87922060551E+02  0.95685195489E+02  0.12700000000E+01 0. -1.
<mgrwt>
<rscale>  1 0.13057143E+03</rscale>
<asrwt>0</asrwt>
<pdfrwt beam="2">  1       21 0.18926706E-01 0.13057143E+03</pdfrwt>
<pdfrwt beam="1">  1        4 0.21599189E-01 0.13057143E+03</pdfrwt>
<totfact> 0.20392765E+04</totfact>
</mgrwt>
</event>
<event>
 6    4  0.6195789E-003  0.1339116E+03  0.7818608E-02  0.1221764E+00
         -4   -1    0    0    0  501 -0.00000000000E+00  0.00000000000E+00  0.12798874651E+03  0.12799504730E+03  0.12700000000E+01 0. -1.
         21   -1    0    0  501  502  0.00000000000E+00 -0.00000000000E+00 -0.75123951412E+02  0.75123951412E+02  0.00000000000E+00 0. -1.
         25    2    1    2    0    0  0.37369500476E+02  0.30177572587E+02  0.71232077437E+02  0.15167839788E+03  0.12500064830E+03 0.  0.
    9000005    1    3    3    0    0  0.74179315551E+02  0.51455018107E+02  0.57271778784E+02  0.10691700701E+03  0.10000000000E+01 0.  0.
    9000005    1    3    3    0    0 -0.36809815074E+02 -0.21277445520E+02  0.13960298653E+02  0.44761390865E+02  0.10000000000E+01 0.  0.
         -4    1    1    2    0  502 -0.37369500476E+02 -0.30177572587E+02 -0.18367282341E+02  0.51440600829E+02  0.12700000000E+01 0.  1.
<mgrwt>
<rscale>  1 0.13391164E+03</rscale>
<asrwt>0</asrwt>
<pdfrwt beam="2">  1       21 0.11557531E-01 0.13391164E+03</pdfrwt>
<pdfrwt beam="1">  1       -4 0.19691887E-01 0.13391164E+03</pdfrwt>
<totfact> 0.58785367E+04</totfact>
</mgrwt>
</event>
<event>
 6    4  0.6195789E-003  0.1304023E+03  0.7818608E-02  0.1226860E+00
         21   -1    0    0  501  502  0.00000000000E+00  0.00000000000E+00  0.11478651054E+03  0.11478651054E+03  0.00000000000E+00 0. -1.
          4   -1    0    0  502    0 -0.00000000000E+00 -0.00000000000E+00 -0.22564702344E+03  0.22565059735E+03  0.12700000000E+01 0.  1.
         25    2    1    2    0    0  0.23219471436E+02 -0.28995629031E+02 -0.20289141164E+03  0.24118394885E+03  0.12499952765E+03 0.  0.
    9000005    1    3    3    0    0 -0.40363059049E+02 -0.38585407846E+02 -0.48625755194E+02  0.74050484824E+02  0.10000000000E+01 0.  0.
    9000005    1    3    3    0    0  0.63582530485E+02  0.95897788144E+01 -0.15426565644E+03  0.16713346403E+03  0.10000000000E+01 0.  0.
          4    1    1    2  501    0 -0.23219471436E+02  0.28995629031E+02  0.92030898737E+02  0.99253159038E+02  0.12700000000E+01 0. -1.
<mgrwt>
<rscale>  1 0.13040235E+03</rscale>
<asrwt>0</asrwt>
<pdfrwt beam="1">  1       21 0.17659463E-01 0.13040235E+03</pdfrwt>
<pdfrwt beam="2">  1        4 0.34715742E-01 0.13040235E+03</pdfrwt>
<totfact> 0.95457829E+03</totfact>
</mgrwt>
</event>
<event>
 6    4  0.6195789E-003  0.1276464E+03  0.7818608E-02  0.1230990E+00
         21   -1    0    0  501  502  0.00000000000E+00  0.00000000000E+00  0.30658966547E+02  0.30658966547E+02  0.00000000000E+00 0.  1.
          4   -1    0    0  502    0 -0.00000000000E+00 -0.00000000000E+00 -0.26109031207E+03  0.26109340083E+03  0.12700000000E+01 0. -1.
         25    2    1    2    0    0 -0.43647119767E+01 -0.25478238061E+02 -0.23307239467E+03  0.26573738389E+03  0.12500169885E+03 0.  0.
    9000005    1    3    3    0    0  0.12584798846E+02  0.46356446746E+02 -0.13281763383E+03  0.14124029585E+03  0.10000000000E+01 0.  0.
    9000005    1    3    3    0    0 -0.16949510823E+02 -0.71834684807E+02 -0.10025476084E+03  0.12449708804E+03  0.10000000000E+01 0.  0.
          4    1    1    2  501    0  0.43647119767E+01  0.25478238061E+02  0.26410491445E+01  0.26014983488E+02  0.12700000000E+01 0.  1.
<mgrwt>
<rscale>  1 0.12764645E+03</rscale>
<asrwt>0</asrwt>
<pdfrwt beam="1">  1       21 0.47167642E-02 0.12764645E+03</pdfrwt>
<pdfrwt beam="2">  1        4 0.40170001E-01 0.12764645E+03</pdfrwt>
<totfact> 0.71549707E+04</totfact>
</mgrwt>
</event>
<event>
 6    4  0.6195789E-003  0.1277293E+03  0.7818608E-02  0.1230865E+00
          4   -1    0    0  502    0 -0.00000000000E+00  0.00000000000E+00  0.49355701713E+03  0.49355865108E+03  0.12700000000E+01 0.  1.
         21   -1    0    0  501  502  0.00000000000E+00 -0.00000000000E+00 -0.48326466937E+02  0.48326466937E+02  0.00000000000E+00 0. -1.
         25    2    1    2    0    0  0.25514066374E+02 -0.62222794306E+01  0.48089933845E+03  0.49757304629E+03  0.12500031330E+03 0.  0.
    9000005    1    3    3    0    0 -0.43499543766E+00 -0.31445008754E+02  0.24861990011E+02  0.40101076593E+02  0.10000000000E+01 0.  0.
    9000005    1    3    3    0    0  0.25949061811E+02  0.25222729324E+02  0.45603734844E+03  0.45747196970E+03  0.10000000000E+01 0.  0.
          4    1    1    2  501    0 -0.25514066374E+02  0.62222794306E+01 -0.35668788266E+02  0.44312071726E+02  0.12700000000E+01 0. -1.
<mgrwt>
<rscale>  1 0.12772926E+03</rscale>
<asrwt>0</asrwt>
<pdfrwt beam="2">  1       21 0.74348414E-02 0.12772926E+03</pdfrwt>
<pdfrwt beam="1">  1        4 0.75933255E-01 0.12772926E+03</pdfrwt>
<totfact> 0.88537029E+03</totfact>
</mgrwt>
</event>
<event>
 6    4  0.6195789E-003  0.1301429E+03  0.7818608E-02  0.1227244E+00
          4   -1    0    0  502    0 -0.00000000000E+00  0.00000000000E+00  0.13801610977E+03  0.13802195280E+03  0.12700000000E+01 0. -1.
         21   -1    0    0  501  502  0.00000000000E+00 -0.00000000000E+00 -0.91305584327E+02  0.91305584327E+02  0.00000000000E+00 0. -1.
         25    2    1    2    0    0  0.21799980845E+02  0.28907188695E+02  0.10053116883E+03  0.16444965741E+03  0.12500523666E+03 0.  0.
    9000005    1    3    3    0    0  0.65258986655E+02 -0.26642480111E+01  0.21271598245E+02  0.68697266675E+02  0.10000000000E+01 0.  0.
    9000005    1    3    3    0    0 -0.43459005810E+02  0.31571436706E+02  0.79259570583E+02  0.95752390731E+02  0.10000000000E+01 0.  0.
          4    1    1    2  501    0 -0.21799980845E+02 -0.28907188695E+02 -0.53820643386E+02  0.64877879725E+02  0.12700000000E+01 0.  1.
<mgrwt>
<rscale>  1 0.13014290E+03</rscale>
<asrwt>0</asrwt>
<pdfrwt beam="2">  1       21 0.14047013E-01 0.13014290E+03</pdfrwt>
<pdfrwt beam="1">  1        4 0.21234377E-01 0.13014290E+03</pdfrwt>
<totfact> 0.36129314E+04</totfact>
</mgrwt>
</event>
<event>
 6    4  0.6195789E-003  0.1275436E+03  0.7818608E-02  0.1231147E+00
         21   -1    0    0  501  502  0.00000000000E+00  0.00000000000E+00  0.36846023188E+02  0.36846023188E+02  0.00000000000E+00 0.  1.
          4   -1    0    0  502    0 -0.00000000000E+00 -0.00000000000E+00 -0.30708103390E+03  0.30708366007E+03  0.12700000000E+01 0. -1.
         25    2    1    2    0    0  0.10766054620E+02  0.22937919757E+02 -0.28662757301E+03  0.31372397033E+03  0.12500123139E+03 0.  0.
    9000005    1    3    3    0    0  0.19018195198E+02  0.52292749939E+02 -0.27578693118E+03  0.28134614775E+03  0.10000000000E+01 0.  0.
    9000005    1    3    3    0    0 -0.82521405775E+01 -0.29354830182E+02 -0.10840641830E+02  0.32377822570E+02  0.10000000000E+01 0.  0.
          4    1    1    2  501    0 -0.10766054620E+02 -0.22937919757E+02  0.16392562301E+02  0.30205712931E+02  0.12700000000E+01 0.  1.
<mgrwt>
<rscale>  1 0.12754358E+03</rscale>
<asrwt>0</asrwt>
<pdfrwt beam="1">  1       21 0.56686191E-02 0.12754358E+03</pdfrwt>
<pdfrwt beam="2">  1        4 0.47245120E-01 0.12754358E+03</pdfrwt>
<totfact> 0.38020185E+04</totfact>
</mgrwt>
</event>
<event>
 6    4  0.6195789E-003  0.1276306E+03  0.7818608E-02  0.1231014E+00
         21   -1    0    0  501  502  0.00000000000E+00  0.00000000000E+00  0.29220688640E+02  0.29220688640E+02  0.00000000000E+00 0.  1.
          4   -1    0    0  502    0 -0.00000000000E+00 -0.00000000000E+00 -0.12814657311E+04  0.12814663604E+04  0.12700000000E+01 0. -1.
         25    2    1    2    0    0 -0.23634149936E+02 -0.10283515174E+02 -0.12718756253E+04  0.12782633477E+04  0.12500102435E+03 0.  0.
    9000005    1    3    3    0    0 -0.31294688673E+01 -0.11516573668E+02 -0.84185194713E+01  0.14638869988E+02  0.10000000000E+01 0.  0.
    9000005    1    3    3    0    0 -0.20504681069E+02  0.12330584937E+01 -0.12634571059E+04  0.12636244777E+04  0.10000000000E+01 0.  0.
          4    1    1    2  501    0  0.23634149936E+02  0.10283515174E+02  0.19630582841E+02  0.32423701366E+02  0.12700000000E+01 0.  1.
<mgrwt>
<rscale>  1 0.12763064E+03</rscale>
<asrwt>0</asrwt>
<pdfrwt beam="1">  1       21 0.44954923E-02 0.12763064E+03</pdfrwt>
<pdfrwt beam="2">  1        4 0.19715067E+00 0.12763064E+03</pdfrwt>
<totfact> 0.20220545E+03</totfact>
</mgrwt>
</event>
<event>
 6    4  0.6195789E-003  0.1270266E+03  0.7818608E-02  0.1231936E+00
         21   -1    0    0  501  502  0.00000000000E+00  0.00000000000E+00  0.20250632835E+03  0.20250632835E+03  0.00000000000E+00 0. -1.
         -4   -1    0    0    0  501 -0.00000000000E+00 -0.00000000000E+00 -0.27922470001E+02  0.27951336837E+02  0.12700000000E+01 0. -1.
         25    2    1    2    0    0  0.67694611672E+01 -0.21563606596E+02  0.13915139980E+03  0.18841141978E+03  0.12499974521E+03 0.  0.
    9000005    1    3    3    0    0 -0.30181055556E+01 -0.29017008473E+02  0.16083413262E+03  0.16346165898E+03  0.10000000000E+01 0.  0.
    9000005    1    3    3    0    0  0.97875667228E+01  0.74534018769E+01 -0.21682732813E+02  0.24949760803E+02  0.10000000000E+01 0.  0.
         -4    1    1    2    0  502 -0.67694611672E+01  0.21563606596E+02  0.35432458543E+02  0.42046245401E+02  0.12700000000E+01 0.  1.
<mgrwt>
<rscale>  1 0.12702658E+03</rscale>
<asrwt>0</asrwt>
<pdfrwt beam="1">  1       21 0.31154819E-01 0.12702658E+03</pdfrwt>
<pdfrwt beam="2">  1       -4 0.42982916E-02 0.12702658E+03</pdfrwt>
<totfact> 0.12081881E+05</totfact>
</mgrwt>
</event>
<event>
 6    4  0.6195789E-003  0.1572728E+03  0.7818608E-02  0.1191811E+00
         21   -1    0    0  501  502  0.00000000000E+00  0.00000000000E+00  0.22426243983E+03  0.22426243983E+03  0.00000000000E+00 0.  1.
          4   -1    0    0  502    0 -0.00000000000E+00 -0.00000000000E+00 -0.14540230931E+03  0.14540785554E+03  0.12700000000E+01 0. -1.
         25    2    1    2    0    0 -0.89918630361E+02  0.32000691528E+02 -0.85941120314E+02  0.17922221971E+03  0.12500129413E+03 0.  0.
    9000005    1    3    3    0    0  0.15838847926E+02 -0.25825951893E+02 -0.40084660740E+02  0.50255635718E+02  0.10000000000E+01 0.  0.
    9000005    1    3    3    0    0 -0.10575747829E+03  0.57826643421E+02 -0.45856459575E+02  0.12896658400E+03  0.10000000000E+01 0.  0.
          4    1    1    2  501    0  0.89918630361E+02 -0.32000691528E+02  0.16480125084E+03  0.19044807566E+03  0.12700000000E+01 0.  1.
<mgrwt>
<rscale>  1 0.15727278E+03</rscale>
<asrwt>0</asrwt>
<pdfrwt beam="1">  1       21 0.34501914E-01 0.15727278E+03</pdfrwt>
<pdfrwt beam="2">  1        4 0.22370289E-01 0.15727278E+03</pdfrwt>
<totfact> 0.61986592E+03</totfact>
</mgrwt>
</event>
<event>
 6    4  0.6195789E-003  0.1356970E+03  0.7818608E-02  0.1219239E+00
          4   -1    0    0  502    0 -0.00000000000E+00  0.00000000000E+00  0.59153658075E+03  0.59153794406E+03  0.12700000000E+01 0.  1.
         21   -1    0    0  501  502  0.00000000000E+00 -0.00000000000E+00 -0.30404296077E+02  0.30404296077E+02  0.00000000000E+00 0. -1.
         25    2    1    2    0    0 -0.48395891243E+02 -0.21146594607E+02  0.55186849415E+03  0.56830669719E+03  0.12499730590E+03 0.  0.
    9000005    1    3    3    0    0 -0.36009759400E+02  0.38176499619E+02  0.41889956742E+03  0.42217531368E+03  0.10000000000E+01 0.  0.
    9000005    1    3    3    0    0 -0.12386131843E+02 -0.59323094227E+02  0.13296892673E+03  0.14613138351E+03  0.10000000000E+01 0.  0.
          4    1    1    2  501    0  0.48395891243E+02  0.21146594607E+02  0.92637905210E+01  0.53635542950E+02  0.12700000000E+01 0. -1.
<mgrwt>
<rscale>  1 0.13569697E+03</rscale>
<asrwt>0</asrwt>
<pdfrwt beam="2">  1       21 0.46775845E-02 0.13569697E+03</pdfrwt>
<pdfrwt beam="1">  1        4 0.91007764E-01 0.13569697E+03</pdfrwt>
<totfact> 0.13056377E+04</totfact>
</mgrwt>
</event>
<event>
 6    4  0.6195789E-003  0.1281161E+03  0.7818608E-02  0.1230278E+00
         -4   -1    0    0    0  501 -0.00000000000E+00  0.00000000000E+00  0.29468085050E+03  0.29468358718E+03  0.12700000000E+01 0.  1.
         21   -1    0    0  501  502  0.00000000000E+00 -0.00000000000E+00 -0.72484492578E+02  0.72484492578E+02  0.00000000000E+00 0. -1.
         25    2    1    2    0    0 -0.71846682760E+01  0.27148440273E+02  0.27721251291E+03  0.30538582117E+03  0.12500026076E+03 0.  0.
    9000005    1    3    3    0    0  0.11320321937E+02 -0.48708721311E+02  0.10627717908E+03  0.11745862256E+03  0.10000000000E+01 0.  0.
    9000005    1    3    3    0    0 -0.18504990213E+02  0.75857161584E+02  0.17093533383E+03  0.18792719861E+03  0.10000000000E+01 0.  0.
         -4    1    1    2    0  502  0.71846682760E+01 -0.27148440273E+02 -0.55016154982E+02  0.61782258590E+02  0.12700000000E+01 0. -1.
<mgrwt>
<rscale>  1 0.12811605E+03</rscale>
<asrwt>0</asrwt>
<pdfrwt beam="2">  1       21 0.11151461E-01 0.12811605E+03</pdfrwt>
<pdfrwt beam="1">  1       -4 0.45336581E-01 0.12811605E+03</pdfrwt>
<totfact> 0.12869638E+04</totfact>
</mgrwt>
</event>
<event>
 6    4  0.6195789E-003  0.1462903E+03  0.7818608E-02  0.1205107E+00
         -4   -1    0    0    0  501 -0.00000000000E+00  0.00000000000E+00  0.14815702486E+03  0.14816246797E+03  0.12700000000E+01 0. -1.
         21   -1    0    0  501  502  0.00000000000E+00 -0.00000000000E+00 -0.23756034333E+03  0.23756034333E+03  0.00000000000E+00 0.  1.
         25    2    1    2    0    0  0.62246917246E+01  0.75744688864E+02  0.10295770831E+03  0.17888862117E+03  0.12499937762E+03 0.  0.
    9000005    1    3    3    0    0  0.15422584003E+02  0.53816149883E+02 -0.15473042346E+02  0.58090008823E+02  0.10000000000E+01 0.  0.
    9000005    1    3    3    0    0 -0.91978922787E+01  0.21928538981E+02  0.11843075066E+03  0.12079861235E+03  0.10000000000E+01 0.  0.
         -4    1    1    2    0  502 -0.62246917246E+01 -0.75744688864E+02 -0.19236102679E+03  0.20683419013E+03  0.12700000000E+01 0.  1.
<mgrwt>
<rscale>  1 0.14629029E+03</rscale>
<asrwt>0</asrwt>
<pdfrwt beam="2">  1       21 0.36547745E-01 0.14629029E+03</pdfrwt>
<pdfrwt beam="1">  1       -4 0.22794068E-01 0.14629029E+03</pdfrwt>
<totfact> 0.53213743E+03</totfact>
</mgrwt>
</event>
<event>
 6    4  0.6195789E-003  0.1490150E+03  0.7818608E-02  0.1201689E+00
         -4   -1    0    0    0  501 -0.00000000000E+00  0.00000000000E+00  0.22993509842E+03  0.22993860568E+03  0.12700000000E+01 0.  1.
         21   -1    0    0  501  502  0.00000000000E+00 -0.00000000000E+00 -0.74901476711E+02  0.74901476711E+02  0.00000000000E+00 0. -1.
         25    2    1    2    0    0  0.56761597124E+02 -0.57960162242E+02  0.16587990023E+03  0.22298341515E+03  0.12499681122E+03 0.  0.
    9000005    1    3    3    0    0 -0.11951119622E+02 -0.50001899716E+02  0.13996172782E+03  0.14910836492E+03  0.10000000000E+01 0.  0.
    9000005    1    3    3    0    0  0.68712716746E+02 -0.79582625254E+01  0.25918172411E+02  0.73875050228E+02  0.10000000000E+01 0.  0.
         -4    1    1    2    0  502 -0.56761597124E+02  0.57960162242E+02 -0.10846278522E+02  0.81856667248E+02  0.12700000000E+01 0. -1.
<mgrwt>
<rscale>  1 0.14901497E+03</rscale>
<asrwt>0</asrwt>
<pdfrwt beam="2">  1       21 0.11523304E-01 0.14901497E+03</pdfrwt>
<pdfrwt beam="1">  1       -4 0.35375728E-01 0.14901497E+03</pdfrwt>
<totfact> 0.20084501E+04</totfact>
</mgrwt>
</event>
<event>
 6    4  0.6195789E-003  0.1280706E+03  0.7818608E-02  0.1230347E+00
          4   -1    0    0  502    0 -0.00000000000E+00  0.00000000000E+00  0.14470188569E+03  0.14470745877E+03  0.12700000000E+01 0. -1.
         21   -1    0    0  501  502  0.00000000000E+00 -0.00000000000E+00 -0.48437496926E+02  0.48437496926E+02  0.00000000000E+00 0. -1.
         25    2    1    2    0    0 -0.27836599112E+02 -0.14353662091E+01  0.10310486382E+03  0.16441619788E+03  0.12500054662E+03 0.  0.
    9000005    1    3    3    0    0 -0.42844648713E+02  0.54826867873E+02  0.61157797058E+02  0.92644079709E+02  0.10000000000E+01 0.  0.
    9000005    1    3    3    0    0  0.15008049601E+02 -0.56262234082E+02  0.41947066766E+02  0.71772118172E+02  0.10000000000E+01 0.  0.
          4    1    1    2  501    0  0.27836599112E+02  0.14353662091E+01 -0.68404750595E+01  0.28728757810E+02  0.12700000000E+01 0.  1.
<mgrwt>
<rscale>  1 0.12807058E+03</rscale>
<asrwt>0</asrwt>
<pdfrwt beam="2">  1       21 0.74519227E-02 0.12807058E+03</pdfrwt>
<pdfrwt beam="1">  1        4 0.22263538E-01 0.12807058E+03</pdfrwt>
<totfact> 0.10052333E+05</totfact>
</mgrwt>
</event>
<event>
 6    4  0.6195789E-003  0.1333098E+03  0.7818608E-02  0.1222626E+00
         21   -1    0    0  501  502  0.00000000000E+00  0.00000000000E+00  0.19693954512E+03  0.19693954512E+03  0.00000000000E+00 0. -1.
         -4   -1    0    0    0  501 -0.00000000000E+00 -0.00000000000E+00 -0.42141661256E+02  0.42160793558E+02  0.12700000000E+01 0. -1.
         25    2    1    2    0    0  0.17748555718E+01 -0.46291147460E+02  0.96218982099E+02  0.16440682439E+03  0.12500196376E+03 0.  0.
    9000005    1    3    3    0    0 -0.14201359963E+02  0.29516819134E+02  0.78301390627E+02  0.84882442300E+02  0.10000000000E+01 0.  0.
    9000005    1    3    3    0    0  0.15976215535E+02 -0.75807966594E+02  0.17917591471E+02  0.79524382085E+02  0.10000000000E+01 0.  0.
         -4    1    1    2    0  502 -0.17748555718E+01  0.46291147460E+02  0.58578901765E+02  0.74693514293E+02  0.12700000000E+01 0.  1.
<mgrwt>
<rscale>  1 0.13330983E+03</rscale>
<asrwt>0</asrwt>
<pdfrwt beam="1">  1       21 0.30298391E-01 0.13330983E+03</pdfrwt>
<pdfrwt beam="2">  1       -4 0.64851193E-02 0.13330983E+03</pdfrwt>
<totfact> 0.66126398E+04</totfact>
</mgrwt>
</event>
<event>
 6    4  0.6195789E-003  0.1289516E+03  0.7818608E-02  0.1229020E+00
         21   -1    0    0  501  502  0.00000000000E+00  0.00000000000E+00  0.79444835859E+03  0.79444835859E+03  0.00000000000E+00 0.  1.
         -4   -1    0    0    0  501 -0.00000000000E+00 -0.00000000000E+00 -0.21023919277E+02  0.21062243037E+02  0.12700000000E+01 0. -1.
         25    2    1    2    0    0  0.18554529120E+02  0.25666694189E+02  0.18099295823E+03  0.22223181183E+03  0.12500191007E+03 0.  0.
    9000005    1    3    3    0    0  0.66782321479E+02 -0.79663489803E+01  0.72985689724E+02  0.99253473907E+02  0.10000000000E+01 0.  0.
    9000005    1    3    3    0    0 -0.48227792359E+02  0.33633043170E+02  0.10800726851E+03  0.12297833792E+03  0.10000000000E+01 0.  0.
         -4    1    1    2    0  502 -0.18554529120E+02 -0.25666694189E+02  0.59243148109E+03  0.59327878980E+03  0.12700000000E+01 0.  1.
<mgrwt>
<rscale>  1 0.12895165E+03</rscale>
<asrwt>0</asrwt>
<pdfrwt beam="1">  1       21 0.12222280E+00 0.12895165E+03</pdfrwt>
<pdfrwt beam="2">  1       -4 0.32374758E-02 0.12895165E+03</pdfrwt>
<totfact> 0.99924418E+03</totfact>
</mgrwt>
</event>
<event>
 6    4  0.6195789E-003  0.1284598E+03  0.7818608E-02  0.1229759E+00
         21   -1    0    0  501  502  0.00000000000E+00  0.00000000000E+00  0.23430516919E+02  0.23430516919E+02  0.00000000000E+00 0.  1.
          4   -1    0    0  502    0 -0.00000000000E+00 -0.00000000000E+00 -0.34245665485E+03  0.34245900974E+03  0.12700000000E+01 0.  1.
         25    2    1    2    0    0  0.19289370488E+02 -0.22461670780E+02 -0.30894382305E+03  0.33458661239E+03  0.12500123569E+03 0.  0.
    9000005    1    3    3    0    0  0.22353089467E+02  0.43260155436E+02 -0.60990738924E+02  0.78051085140E+02  0.10000000000E+01 0.  0.
    9000005    1    3    3    0    0 -0.30637189790E+01 -0.65721826217E+02 -0.24795308413E+03  0.25653552725E+03  0.10000000000E+01 0.  0.
          4    1    1    2  501    0 -0.19289370488E+02  0.22461670780E+02 -0.10082314881E+02  0.31302914264E+02  0.12700000000E+01 0. -1.
<mgrwt>
<rscale>  1 0.12845978E+03</rscale>
<asrwt>0</asrwt>
<pdfrwt beam="1">  1       21 0.36046949E-02 0.12845978E+03</pdfrwt>
<pdfrwt beam="2">  1        4 0.52688468E-01 0.12845978E+03</pdfrwt>
<totfact> 0.64959150E+04</totfact>
</mgrwt>
</event>
<event>
 6    4  0.6195789E-003  0.1451298E+03  0.7818608E-02  0.1206588E+00
         21   -1    0    0  501  502  0.00000000000E+00  0.00000000000E+00  0.37502413059E+03  0.37502413059E+03  0.00000000000E+00 0.  1.
         -4   -1    0    0    0  501 -0.00000000000E+00 -0.00000000000E+00 -0.41464541237E+02  0.41483985826E+02  0.12700000000E+01 0.  1.
         25    2    1    2    0    0  0.62158634113E+02  0.39674783944E+02  0.11296866376E+03  0.18391457904E+03  0.12499947646E+03 0.  0.
    9000005    1    3    3    0    0  0.13272111333E+02 -0.44188588837E+02  0.50822808844E+02  0.68649386170E+02  0.10000000000E+01 0.  0.
    9000005    1    3    3    0    0  0.48886522780E+02  0.83863372781E+02  0.62145854914E+02  0.11526519287E+03  0.10000000000E+01 0.  0.
         -4    1    1    2    0  502 -0.62158634113E+02 -0.39674783944E+02  0.22059092560E+03  0.23259353738E+03  0.12700000000E+01 0. -1.
<mgrwt>
<rscale>  1 0.14512978E+03</rscale>
<asrwt>0</asrwt>
<pdfrwt beam="1">  1       21 0.57696018E-01 0.14512978E+03</pdfrwt>
<pdfrwt beam="2">  1       -4 0.63808216E-02 0.14512978E+03</pdfrwt>
<totfact> 0.18664253E+04</totfact>
</mgrwt>
</event>
<event>
 6    4  0.6195789E-003  0.1581777E+03  0.7818608E-02  0.1190770E+00
         21   -1    0    0  501  502  0.00000000000E+00  0.00000000000E+00  0.52680764907E+03  0.52680764907E+03  0.00000000000E+00 0. -1.
          4   -1    0    0  502    0 -0.00000000000E+00 -0.00000000000E+00 -0.52610726764E+02  0.52626053155E+02  0.12700000000E+01 0. -1.
         25    2    1    2    0    0 -0.96093553580E+02  0.12674126786E+02  0.87487083091E+02  0.18076000460E+03  0.12500234009E+03 0.  0.
    9000005    1    3    3    0    0 -0.69356615661E+02 -0.30298245832E+02  0.10299442154E+03  0.12781695781E+03  0.10000000000E+01 0.  0.
    9000005    1    3    3    0    0 -0.26736937919E+02  0.42972372617E+02 -0.15507338449E+02  0.52943046790E+02  0.10000000000E+01 0.  0.
          4    1    1    2  501    0  0.96093553580E+02 -0.12674126786E+02  0.38670983922E+03  0.39867369762E+03  0.12700000000E+01 0.  1.
<mgrwt>
<rscale>  1 0.15817772E+03</rscale>
<asrwt>0</asrwt>
<pdfrwt beam="1">  1       21 0.81047327E-01 0.15817772E+03</pdfrwt>
<pdfrwt beam="2">  1        4 0.80952550E-02 0.15817772E+03</pdfrwt>
<totfact> 0.60386905E+03</totfact>
</mgrwt>
</event>
<event>
 6    4  0.6195789E-003  0.1324646E+03  0.7818608E-02  0.1223844E+00
          4   -1    0    0  502    0 -0.00000000000E+00  0.00000000000E+00  0.68569963680E+02  0.68581723652E+02  0.12700000000E+01 0. -1.
         21   -1    0    0  501  502  0.00000000000E+00 -0.00000000000E+00 -0.11847607445E+03  0.11847607445E+03  0.00000000000E+00 0. -1.
         25    2    1    2    0    0  0.42121429875E+02  0.12153108002E+02 -0.53916183773E+02  0.14301683451E+03  0.12499978876E+03 0.  0.
    9000005    1    3    3    0    0  0.21237848543E+02  0.66357789189E+02 -0.10451214335E+02  0.70460132542E+02  0.10000000000E+01 0.  0.
    9000005    1    3    3    0    0  0.20883581332E+02 -0.54204681187E+02 -0.43464969438E+02  0.72556701966E+02  0.10000000000E+01 0.  0.
          4    1    1    2  501    0 -0.42121429875E+02 -0.12153108002E+02  0.40100730035E+01  0.44040963594E+02  0.12700000000E+01 0.  1.
<mgrwt>
<rscale>  1 0.13246456E+03</rscale>
<asrwt>0</asrwt>
<pdfrwt beam="2">  1       21 0.18227088E-01 0.13246456E+03</pdfrwt>
<pdfrwt beam="1">  1        4 0.10550653E-01 0.13246456E+03</pdfrwt>
<totfact> 0.76586246E+04</totfact>
</mgrwt>
</event>
<event>
 6    4  0.6195789E-003  0.1277713E+03  0.7818608E-02  0.1230801E+00
         21   -1    0    0  501  502  0.00000000000E+00  0.00000000000E+00  0.72788701776E+02  0.72788701776E+02  0.00000000000E+00 0.  1.
          4   -1    0    0  502    0 -0.00000000000E+00 -0.00000000000E+00 -0.11128358582E+03  0.11129083238E+03  0.12700000000E+01 0. -1.
         25    2    1    2    0    0  0.98512325068E+00 -0.26462563645E+02 -0.67730877203E+02  0.14461316951E+03  0.12499703727E+03 0.  0.
    9000005    1    3    3    0    0 -0.34959308330E+02  0.12518467328E+02  0.19932426978E+02  0.42156457493E+02  0.10000000000E+01 0.  0.
    9000005    1    3    3    0    0  0.35944431580E+02 -0.38981030974E+02 -0.87663304181E+02  0.10245671202E+03  0.10000000000E+01 0.  0.
          4    1    1    2  501    0 -0.98512325068E+00  0.26462563645E+02  0.29235993161E+02  0.39466364649E+02  0.12700000000E+01 0.  1.
<mgrwt>
<rscale>  1 0.12777127E+03</rscale>
<asrwt>0</asrwt>
<pdfrwt beam="1">  1       21 0.11198262E-01 0.12777127E+03</pdfrwt>
<pdfrwt beam="2">  1        4 0.17121961E-01 0.12777127E+03</pdfrwt>
<totfact> 0.79240856E+04</totfact>
</mgrwt>
</event>
<event>
 6    4  0.6195789E-003  0.1311524E+03  0.7818608E-02  0.1225756E+00
         21   -1    0    0  501  502  0.00000000000E+00  0.00000000000E+00  0.70135591505E+02  0.70135591505E+02  0.00000000000E+00 0.  1.
         -4   -1    0    0    0  501 -0.00000000000E+00 -0.00000000000E+00 -0.28082948636E+03  0.28083235802E+03  0.12700000000E+01 0. -1.
         25    2    1    2    0    0 -0.22968521928E+02  0.32329565758E+02 -0.25788106332E+03  0.28931573473E+03  0.12501279024E+03 0.  0.
    9000005    1    3    3    0    0 -0.81797368006E+01  0.49121180716E+02 -0.26187066846E+03  0.26656527435E+03  0.10000000000E+01 0.  0.
    9000005    1    3    3    0    0 -0.14788785127E+02 -0.16791614957E+02  0.39896051439E+01  0.22750460383E+02  0.10000000000E+01 0.  0.
         -4    1    1    2    0  502  0.22968521928E+02 -0.32329565758E+02  0.47187168459E+02  0.61652214793E+02  0.12700000000E+01 0.  1.
<mgrwt>
<rscale>  1 0.13115240E+03</rscale>
<asrwt>0</asrwt>
<pdfrwt beam="1">  1       21 0.10790091E-01 0.13115240E+03</pdfrwt>
<pdfrwt beam="2">  1       -4 0.43205641E-01 0.13115240E+03</pdfrwt>
<totfact> 0.15049182E+04</totfact>
</mgrwt>
</event>
<event>
 6    4  0.6195789E-003  0.1268899E+03  0.7818608E-02  0.1232145E+00
         21   -1    0    0  501  502  0.00000000000E+00  0.00000000000E+00  0.35723429246E+03  0.35723429246E+03  0.00000000000E+00 0. -1.
         -4   -1    0    0    0  501 -0.00000000000E+00 -0.00000000000E+00 -0.15475920741E+02  0.15527943289E+02  0.12700000000E+01 0. -1.
         25    2    1    2    0    0  0.20751653240E+02  0.67926670248E+01  0.28714901201E+03  0.31393565582E+03  0.12499707782E+03 0.  0.
    9000005    1    3    3    0    0  0.30376470819E+02 -0.47159107128E+02  0.68615653530E+02  0.88633059712E+02  0.10000000000E+01 0.  0.
    9000005    1    3    3    0    0 -0.96248175796E+01  0.53951774153E+02  0.21853335847E+03  0.22530259611E+03  0.10000000000E+01 0.  0.
         -4    1    1    2    0  502 -0.20751653240E+02 -0.67926670248E+01  0.54609359716E+02  0.58826579928E+02  0.12700000000E+01 0.  1.
<mgrwt>
<rscale>  1 0.12688988E+03</rscale>
<asrwt>0</asrwt>
<pdfrwt beam="1">  1       21 0.54959116E-01 0.12688988E+03</pdfrwt>
<pdfrwt beam="2">  1       -4 0.23850865E-02 0.12688988E+03</pdfrwt>
<totfact> 0.97308803E+04</totfact>
</mgrwt>
</event>
<event>
 6    4  0.6195789E-003  0.1286856E+03  0.7818608E-02  0.1229419E+00
         -4   -1    0    0    0  501 -0.00000000000E+00  0.00000000000E+00  0.32481858952E+03  0.32482107229E+03  0.12700000000E+01 0.  1.
         21   -1    0    0  501  502  0.00000000000E+00 -0.00000000000E+00 -0.24556013321E+02  0.24556013321E+02  0.00000000000E+00 0.  1.
         25    2    1    2    0    0  0.95909922577E+01 -0.29041328018E+02  0.28970020255E+03  0.31699557077E+03  0.12499839467E+03 0.  0.
    9000005    1    3    3    0    0 -0.55659946791E+02 -0.30177287428E+02  0.14874733923E+03  0.16166468161E+03  0.10000000000E+01 0.  0.
    9000005    1    3    3    0    0  0.65250939049E+02  0.11359594103E+01  0.14095286332E+03  0.15533088916E+03  0.10000000000E+01 0.  0.
         -4    1    1    2    0  502 -0.95909922577E+01  0.29041328018E+02  0.10562373658E+02  0.32381514832E+02  0.12700000000E+01 0. -1.
<mgrwt>
<rscale>  1 0.12868560E+03</rscale>
<asrwt>0</asrwt>
<pdfrwt beam="2">  1       21 0.37778485E-02 0.12868560E+03</pdfrwt>
<pdfrwt beam="1">  1       -4 0.49974804E-01 0.12868560E+03</pdfrwt>
<totfact> 0.66980887E+04</totfact>
</mgrwt>
</event>
<event>
 6    4  0.6195789E-003  0.1301279E+03  0.7818608E-02  0.1227266E+00
         -4   -1    0    0    0  501 -0.00000000000E+00  0.00000000000E+00  0.21551639754E+02  0.21589026752E+02  0.12700000000E+01 0. -1.
         21   -1    0    0  501  502  0.00000000000E+00 -0.00000000000E+00 -0.38459822566E+03  0.38459822566E+03  0.00000000000E+00 0. -1.
         25    2    1    2    0    0 -0.36033099155E+02  0.39843157029E+01 -0.33778377319E+03  0.36198225708E+03  0.12497606971E+03 0.  0.
    9000005    1    3    3    0    0  0.23636456894E+02  0.14785658210E+02 -0.26832944178E+03  0.26977580898E+03  0.10000000000E+01 0.  0.
    9000005    1    3    3    0    0 -0.59669556049E+02 -0.10801342507E+02 -0.69454331407E+02  0.92206448095E+02  0.10000000000E+01 0.  0.
         -4    1    1    2    0  502  0.36033099155E+02 -0.39843157029E+01 -0.25262812712E+02  0.44204995333E+02  0.12700000000E+01 0.  1.
<mgrwt>
<rscale>  1 0.13012793E+03</rscale>
<asrwt>0</asrwt>
<pdfrwt beam="2">  1       21 0.59168957E-01 0.13012793E+03</pdfrwt>
<pdfrwt beam="1">  1       -4 0.33186741E-02 0.13012793E+03</pdfrwt>
<totfact> 0.49897902E+04</totfact>
</mgrwt>
</event>
<event>
 6    4  0.6195789E-003  0.1430052E+03  0.7818608E-02  0.1209342E+00
          4   -1    0    0  502    0 -0.00000000000E+00  0.00000000000E+00  0.55579321394E+03  0.55579466492E+03  0.12700000000E+01 0.  1.
         21   -1    0    0  501  502  0.00000000000E+00 -0.00000000000E+00 -0.20324302245E+02  0.20324302245E+02  0.00000000000E+00 0.  1.
         25    2    1    2    0    0 -0.36338874905E+02  0.59196285071E+02  0.35230247737E+03  0.38022034656E+03  0.12500304948E+03 0.  0.
    9000005    1    3    3    0    0 -0.38712432084E+02 -0.25392928202E+02  0.59289979387E+02  0.75231342247E+02  0.10000000000E+01 0.  0.
    9000005    1    3    3    0    0  0.23735571795E+01  0.84589213273E+02  0.29301249798E+03  0.30498900431E+03  0.10000000000E+01 0.  0.
          4    1    1    2  501    0  0.36338874905E+02 -0.59196285071E+02  0.18316643432E+03  0.19589862061E+03  0.12700000000E+01 0. -1.
<mgrwt>
<rscale>  1 0.14300516E+03</rscale>
<asrwt>0</asrwt>
<pdfrwt beam="2">  1       21 0.31268162E-02 0.14300516E+03</pdfrwt>
<pdfrwt beam="1">  1        4 0.85509800E-01 0.14300516E+03</pdfrwt>
<totfact> 0.29490271E+04</totfact>
</mgrwt>
</event>
<event>
 6    4  0.6195789E-003  0.1269594E+03  0.7818608E-02  0.1232039E+00
         -4   -1    0    0    0  501 -0.00000000000E+00  0.00000000000E+00  0.39059055265E+03  0.39059261734E+03  0.12700000000E+01 0.  1.
         21   -1    0    0  501  502  0.00000000000E+00 -0.00000000000E+00 -0.22668774075E+02  0.22668774075E+02  0.00000000000E+00 0.  1.
         25    2    1    2    0    0  0.14171036575E+02  0.17047483917E+02  0.36979083572E+03  0.39097818563E+03  0.12500897754E+03 0.  0.
    9000005    1    3    3    0    0 -0.34216039728E+02 -0.33818095435E+02  0.85146955103E+02  0.97802888080E+02  0.10000000000E+01 0.  0.
    9000005    1    3    3    0    0  0.48387076303E+02  0.50865579352E+02  0.28464388062E+03  0.29317529755E+03  0.10000000000E+01 0.  0.
         -4    1    1    2    0  502 -0.14171036575E+02 -0.17047483917E+02 -0.18690571508E+01  0.22283205786E+02  0.12700000000E+01 0. -1.
<mgrwt>
<rscale>  1 0.12695936E+03</rscale>
<asrwt>0</asrwt>
<pdfrwt beam="2">  1       21 0.34875040E-02 0.12695936E+03</pdfrwt>
<pdfrwt beam="1">  1       -4 0.60093745E-01 0.12695936E+03</pdfrwt>
<totfact> 0.52139027E+04</totfact>
</mgrwt>
</event>
<event>
 6    4  0.6195789E-003  0.1280349E+03  0.7818608E-02  0.1230401E+00
          4   -1    0    0  502    0 -0.00000000000E+00  0.00000000000E+00  0.36537519868E+01  0.38681783285E+01  0.12700000000E+01 0. -1.
         21   -1    0    0  501  502  0.00000000000E+00 -0.00000000000E+00 -0.17834859254E+04  0.17834859254E+04  0.00000000000E+00 0. -1.
         25    2    1    2    0    0 -0.13975919505E+02 -0.23923917796E+02 -0.11895283770E+04  0.11963990588E+04  0.12500107214E+03 0.  0.
    9000005    1    3    3    0    0 -0.43575032838E+02 -0.60120389986E+02 -0.90612097726E+03  0.90915866064E+03  0.10000000000E+01 0.  0.
    9000005    1    3    3    0    0  0.29599113334E+02  0.36196472190E+02 -0.28340739977E+03  0.28724039819E+03  0.10000000000E+01 0.  0.
          4    1    1    2  501    0  0.13975919505E+02  0.23923917796E+02 -0.59030379641E+03  0.59095504493E+03  0.12700000000E+01 0.  1.
<mgrwt>
<rscale>  1 0.12803495E+03</rscale>
<asrwt>0</asrwt>
<pdfrwt beam="2">  1       21 0.27438236E+00 0.12803495E+03</pdfrwt>
<pdfrwt beam="1">  1        4 0.57864499E-03 0.12803495E+03</pdfrwt>
<totfact> 0.13653059E+04</totfact>
</mgrwt>
</event>
<event>
 6    4  0.6195789E-003  0.1549406E+03  0.7818608E-02  0.1194530E+00
         21   -1    0    0  501  502  0.00000000000E+00  0.00000000000E+00  0.15987553860E+04  0.15987553860E+04  0.00000000000E+00 0. -1.
         -4   -1    0    0    0  501 -0.00000000000E+00 -0.00000000000E+00 -0.10381276192E+02  0.10458670823E+02  0.12700000000E+01 0. -1.
         25    2    1    2    0    0 -0.75202541650E+02 -0.52208515085E+02  0.74877375301E+03  0.76463633787E+03  0.12500177868E+03 0.  0.
    9000005    1    3    3    0    0 -0.44290419812E+02 -0.82221902535E+02  0.65257802609E+03  0.65922770169E+03  0.10000000000E+01 0.  0.
    9000005    1    3    3    0    0 -0.30912121839E+02  0.30013387450E+02  0.96195726920E+02  0.10540863618E+03  0.10000000000E+01 0.  0.
         -4    1    1    2    0  502  0.75202541650E+02  0.52208515085E+02  0.83960035676E+03  0.84457771892E+03  0.12700000000E+01 0.  1.
<mgrwt>
<rscale>  1 0.15494062E+03</rscale>
<asrwt>0</asrwt>
<pdfrwt beam="1">  1       21 0.24596217E+00 0.15494062E+03</pdfrwt>
<pdfrwt beam="2">  1       -4 0.16031129E-02 0.15494062E+03</pdfrwt>
<totfact> 0.42676830E+03</totfact>
</mgrwt>
</event>
<event>
 6    4  0.6195789E-003  0.1278943E+03  0.7818608E-02  0.1230614E+00
         21   -1    0    0  501  502  0.00000000000E+00  0.00000000000E+00  0.65796060934E+03  0.65796060934E+03  0.00000000000E+00 0.  1.
          4   -1    0    0  502    0 -0.00000000000E+00 -0.00000000000E+00 -0.98144432222E+01  0.98962718113E+01  0.12700000000E+01 0. -1.
         25    2    1    2    0    0  0.15193210696E+02 -0.22362808648E+02  0.44830686709E+03  0.46619308371E+03  0.12500406137E+03 0.  0.
    9000005    1    3    3    0    0 -0.37140511683E+02 -0.54873655991E+02  0.23485021910E+03  0.24402082112E+03  0.10000000000E+01 0.  0.
    9000005    1    3    3    0    0  0.52333722379E+02  0.32510847343E+02  0.21345664799E+03  0.22217226259E+03  0.10000000000E+01 0.  0.
          4    1    1    2  501    0 -0.15193210696E+02  0.22362808648E+02  0.19983929903E+03  0.20166379744E+03  0.12700000000E+01 0.  1.
<mgrwt>
<rscale>  1 0.12789427E+03</rscale>
<asrwt>0</asrwt>
<pdfrwt beam="1">  1       21 0.10122467E+00 0.12789427E+03</pdfrwt>
<pdfrwt beam="2">  1        4 0.15163037E-02 0.12789427E+03</pdfrwt>
<totfact> 0.50662108E+04</totfact>
</mgrwt>
</event>
<event>
 6    4  0.6195789E-003  0.1270776E+03  0.7818608E-02  0.1231858E+00
         21   -1    0    0  501  502  0.00000000000E+00  0.00000000000E+00  0.38036303127E+01  0.38036303127E+01  0.00000000000E+00 0. -1.
          4   -1    0    0  502    0 -0.00000000000E+00 -0.00000000000E+00 -0.15005525892E+04  0.15005531267E+04  0.12700000000E+01 0. -1.
         25    2    1    2    0    0  0.46729963987E+01  0.22411318245E+02 -0.11949477352E+04  0.12016858208E+04  0.12499847170E+03 0.  0.
    9000005    1    3    3    0    0  0.38209065619E+02 -0.28959779144E+02 -0.23856482964E+03  0.24333676139E+03  0.10000000000E+01 0.  0.
    9000005    1    3    3    0    0 -0.33536069220E+02  0.51371097389E+02 -0.95638290554E+03  0.95834905937E+03  0.10000000000E+01 0.  0.
          4    1    1    2  501    0 -0.46729963987E+01 -0.22411318245E+02 -0.30180122375E+03  0.30267093623E+03  0.12700000000E+01 0.  1.
<mgrwt>
<rscale>  1 0.12707762E+03</rscale>
<asrwt>0</asrwt>
<pdfrwt beam="1">  1       21 0.58517305E-03 0.12707762E+03</pdfrwt>
<pdfrwt beam="2">  1        4 0.23087093E+00 0.12707762E+03</pdfrwt>
<totfact> 0.33335043E+04</totfact>
</mgrwt>
</event>
<event>
 6    4  0.6195789E-003  0.1280766E+03  0.7818608E-02  0.1230338E+00
         -4   -1    0    0    0  501 -0.00000000000E+00  0.00000000000E+00  0.76994110784E+03  0.76994215526E+03  0.12700000000E+01 0. -1.
         21   -1    0    0  501  502  0.00000000000E+00 -0.00000000000E+00 -0.79815517764E+01  0.79815517764E+01  0.00000000000E+00 0. -1.
         25    2    1    2    0    0  0.97849469072E+01  0.26131113010E+02  0.65294079930E+03  0.66538356984E+03  0.12500010948E+03 0.  0.
    9000005    1    3    3    0    0  0.38098035313E+02  0.32359937018E+02  0.10115646752E+03  0.11283730208E+03  0.10000000000E+01 0.  0.
    9000005    1    3    3    0    0 -0.28313088406E+02 -0.62288240080E+01  0.55178433178E+03  0.55254626776E+03  0.10000000000E+01 0.  0.
         -4    1    1    2    0  502 -0.97849469072E+01 -0.26131113010E+02  0.10901875677E+03  0.11254013719E+03  0.12700000000E+01 0.  1.
<mgrwt>
<rscale>  1 0.12807657E+03</rscale>
<asrwt>0</asrwt>
<pdfrwt beam="2">  1       21 0.12279317E-02 0.12807657E+03</pdfrwt>
<pdfrwt beam="1">  1       -4 0.11846027E+00 0.12807657E+03</pdfrwt>
<totfact> 0.61904261E+04</totfact>
</mgrwt>
</event>
<event>
 6    4  0.6195789E-003  0.1403227E+03  0.7818608E-02  0.1212895E+00
         21   -1    0    0  501  502  0.00000000000E+00  0.00000000000E+00  0.15362835456E+02  0.15362835456E+02  0.00000000000E+00 0.  1.
          4   -1    0    0  502    0 -0.00000000000E+00 -0.00000000000E+00 -0.73033386562E+03  0.73033496984E+03  0.12700000000E+01 0.  1.
         25    2    1    2    0    0  0.40889938426E+02 -0.48934084388E+02 -0.38875368442E+03  0.41330360973E+03  0.12499565988E+03 0.  0.
    9000005    1    3    3    0    0  0.42698721906E+02 -0.85186689958E+02 -0.20594537675E+03  0.22692388857E+03  0.10000000000E+01 0.  0.
    9000005    1    3    3    0    0 -0.18087834795E+01  0.36252605570E+02 -0.18280830766E+03  0.18637972116E+03  0.10000000000E+01 0.  0.
          4    1    1    2  501    0 -0.40889938426E+02  0.48934084388E+02 -0.32621734575E+03  0.33239419557E+03  0.12700000000E+01 0. -1.
<mgrwt>
<rscale>  1 0.14032265E+03</rscale>
<asrwt>0</asrwt>
<pdfrwt beam="1">  1       21 0.23635134E-02 0.14032265E+03</pdfrwt>
<pdfrwt beam="2">  1        4 0.11236317E+00 0.14032265E+03</pdfrwt>
<totfact> 0.24795235E+04</totfact>
</mgrwt>
</event>
<event>
 6    4  0.6195789E-003  0.1278699E+03  0.7818608E-02  0.1230651E+00
         -4   -1    0    0    0  501 -0.00000000000E+00  0.00000000000E+00  0.23867471994E+03  0.23867809878E+03  0.12700000000E+01 0. -1.
         21   -1    0    0  501  502  0.00000000000E+00 -0.00000000000E+00 -0.49041004160E+02  0.49041004160E+02  0.00000000000E+00 0. -1.
         25    2    1    2    0    0  0.19693904811E+02 -0.18372562793E+02  0.21535412825E+03  0.25045580373E+03  0.12500123246E+03 0.  0.
    9000005    1    3    3    0    0  0.53454934261E+02 -0.44421688040E+02  0.68725742532E+02  0.97749394125E+02  0.10000000000E+01 0.  0.
    9000005    1    3    3    0    0 -0.33761029450E+02  0.26049125247E+02  0.14662838572E+03  0.15270640960E+03  0.10000000000E+01 0.  0.
         -4    1    1    2    0  502 -0.19693904811E+02  0.18372562793E+02 -0.25720412473E+02  0.37263299211E+02  0.12700000000E+01 0.  1.
<mgrwt>
<rscale>  1 0.12786989E+03</rscale>
<asrwt>0</asrwt>
<pdfrwt beam="2">  1       21 0.75447700E-02 0.12786989E+03</pdfrwt>
<pdfrwt beam="1">  1       -4 0.36720712E-01 0.12786989E+03</pdfrwt>
<totfact> 0.38463743E+04</totfact>
</mgrwt>
</event>
<event>
 6    4  0.6195789E-003  0.1289995E+03  0.7818608E-02  0.1228948E+00
         21   -1    0    0  501  502  0.00000000000E+00  0.00000000000E+00  0.55996358588E+03  0.55996358588E+03  0.00000000000E+00 0. -1.
         -4   -1    0    0    0  501 -0.00000000000E+00 -0.00000000000E+00 -0.14723771423E+02  0.14778441897E+02  0.12700000000E+01 0. -1.
         25    2    1    2    0    0  0.31882834842E+02 -0.12393016147E+01  0.28853856791E+03  0.31606231480E+03  0.12499132226E+03 0.  0.
    9000005    1    3    3    0    0 -0.35921116650E+02 -0.36627561844E+02  0.95300056886E+02  0.10823588014E+03  0.10000000000E+01 0.  0.
    9000005    1    3    3    0    0  0.67803951492E+02  0.35388260230E+02  0.19323851102E+03  0.20782643466E+03  0.10000000000E+01 0.  0.
         -4    1    1    2    0  502 -0.31882834842E+02  0.12393016147E+01  0.25670124655E+03  0.25867971298E+03  0.12700000000E+01 0.  1.
<mgrwt>
<rscale>  1 0.12899954E+03</rscale>
<asrwt>0</asrwt>
<pdfrwt beam="1">  1       21 0.86148228E-01 0.12899954E+03</pdfrwt>
<pdfrwt beam="2">  1       -4 0.22695122E-02 0.12899954E+03</pdfrwt>
<totfact> 0.39600638E+04</totfact>
</mgrwt>
</event>
<event>
 6    4  0.6195789E-003  0.1506677E+03  0.7818608E-02  0.1199655E+00
         21   -1    0    0  501  502  0.00000000000E+00  0.00000000000E+00  0.84521057499E+02  0.84521057499E+02  0.00000000000E+00 0. -1.
          4   -1    0    0  502    0 -0.00000000000E+00 -0.00000000000E+00 -0.42568519970E+03  0.42568709417E+03  0.12700000000E+01 0.  1.
         25    2    1    2    0    0  0.48084204255E+02  0.69020103747E+02 -0.38636729319E+03  0.41470525549E+03  0.12499959305E+03 0.  0.
    9000005    1    3    3    0    0  0.79505498023E+02  0.54277715249E+02 -0.35530500824E+03  0.36811661667E+03  0.10000000000E+01 0.  0.
    9000005    1    3    3    0    0 -0.31421293769E+02  0.14742388498E+02 -0.31062284954E+02  0.46588638822E+02  0.10000000000E+01 0.  0.
          4    1    1    2  501    0 -0.48084204255E+02 -0.69020103747E+02  0.45203150987E+02  0.95502896182E+02  0.12700000000E+01 0. -1.
<mgrwt>
<rscale>  1 0.15066773E+03</rscale>
<asrwt>0</asrwt>
<pdfrwt beam="1">  1       21 0.13003240E-01 0.15066773E+03</pdfrwt>
<pdfrwt beam="2">  1        4 0.65490910E-01 0.15066773E+03</pdfrwt>
<totfact> 0.46390757E+03</totfact>
</mgrwt>
</event>
<event>
 6    4  0.6195789E-003  0.1282393E+03  0.7818608E-02  0.1230092E+00
         21   -1    0    0  501  502  0.00000000000E+00  0.00000000000E+00  0.43879573303E+02  0.43879573303E+02  0.00000000000E+00 0. -1.
         -4   -1    0    0    0  501 -0.00000000000E+00 -0.00000000000E+00 -0.14336922735E+03  0.14337485222E+03  0.12700000000E+01 0. -1.
         25    2    1    2    0    0 -0.46372424322E+01 -0.28265233045E+02 -0.69899552111E+02  0.14605230848E+03  0.12499960804E+03 0.  0.
    9000005    1    3    3    0    0 -0.19065057379E+02  0.33391604077E+02  0.14001235950E+02  0.40932997005E+02  0.10000000000E+01 0.  0.
    9000005    1    3    3    0    0  0.14427814947E+02 -0.61656837122E+02 -0.83900788061E+02  0.10511931148E+03  0.10000000000E+01 0.  0.
         -4    1    1    2    0  502  0.46372424322E+01  0.28265233045E+02 -0.29590101932E+02  0.41202117043E+02  0.12700000000E+01 0.  1.
<mgrwt>
<rscale>  1 0.12823934E+03</rscale>
<asrwt>0</asrwt>
<pdfrwt beam="1">  1       21 0.67507035E-02 0.12823934E+03</pdfrwt>
<pdfrwt beam="2">  1       -4 0.22058651E-01 0.12823934E+03</pdfrwt>
<totfact> 0.12109176E+05</totfact>
</mgrwt>
</event>
<event>
 6    4  0.6195789E-003  0.1301012E+03  0.7818608E-02  0.1227306E+00
         21   -1    0    0  501  502  0.00000000000E+00  0.00000000000E+00  0.29761221059E+02  0.29761221059E+02  0.00000000000E+00 0.  1.
          4   -1    0    0  502    0 -0.00000000000E+00 -0.00000000000E+00 -0.27495858567E+03  0.27496151864E+03  0.12700000000E+01 0.  1.
         25    2    1    2    0    0  0.35541091242E+02  0.61149974325E+01 -0.23257901953E+03  0.26649450546E+03  0.12500303499E+03 0.  0.
    9000005    1    3    3    0    0 -0.20071197896E+02 -0.44978194599E+02 -0.13068097888E+03  0.13965818707E+03  0.10000000000E+01 0.  0.
    9000005    1    3    3    0    0  0.55612289139E+02  0.51093192032E+02 -0.10189804065E+03  0.12683631839E+03  0.10000000000E+01 0.  0.
          4    1    1    2  501    0 -0.35541091242E+02 -0.61149974325E+01 -0.12618345079E+02  0.38228234236E+02  0.12700000000E+01 0. -1.
<mgrwt>
<rscale>  1 0.13010120E+03</rscale>
<asrwt>0</asrwt>
<pdfrwt beam="1">  1       21 0.45786495E-02 0.13010120E+03</pdfrwt>
<pdfrwt beam="2">  1        4 0.42303630E-01 0.13010120E+03</pdfrwt>
<totfact> 0.68075310E+04</totfact>
</mgrwt>
</event>
<event>
 6    4  0.6195789E-003  0.1279889E+03  0.7818608E-02  0.1230471E+00
         21   -1    0    0  501  502  0.00000000000E+00  0.00000000000E+00  0.59822469460E+01  0.59822469460E+01  0.00000000000E+00 0.  1.
         -4   -1    0    0    0  501 -0.00000000000E+00 -0.00000000000E+00 -0.12324934502E+04  0.12324941045E+04  0.12700000000E+01 0. -1.
         25    2    1    2    0    0 -0.26135341595E+02  0.83621205543E+01 -0.11515426136E+04  0.11586334841E+04  0.12501271262E+03 0.  0.
    9000005    1    3    3    0    0 -0.24479581807E+02 -0.36948189129E+02 -0.98585211094E+03  0.98684841960E+03  0.10000000000E+01 0.  0.
    9000005    1    3    3    0    0 -0.16557597880E+01  0.45310309684E+02 -0.16569050268E+03  0.17178506449E+03  0.10000000000E+01 0.  0.
         -4    1    1    2    0  502  0.26135341595E+02 -0.83621205543E+01 -0.74968589602E+02  0.79842867355E+02  0.12700000000E+01 0.  1.
<mgrwt>
<rscale>  1 0.12798890E+03</rscale>
<asrwt>0</asrwt>
<pdfrwt beam="1">  1       21 0.92034565E-03 0.12798890E+03</pdfrwt>
<pdfrwt beam="2">  1       -4 0.18962480E+00 0.12798890E+03</pdfrwt>
<totfact> 0.29291924E+04</totfact>
</mgrwt>
</event>
<event>
 6    4  0.6195789E-003  0.1271721E+03  0.7818608E-02  0.1231713E+00
          4   -1    0    0  502    0 -0.00000000000E+00  0.00000000000E+00  0.24283705568E+03  0.24284037660E+03  0.12700000000E+01 0.  1.
         21   -1    0    0  501  502  0.00000000000E+00 -0.00000000000E+00 -0.37818710618E+02  0.37818710618E+02  0.00000000000E+00 0. -1.
         25    2    1    2    0    0  0.85432048286E+01  0.21784160636E+02  0.21909044152E+03  0.25332462542E+03  0.12500083310E+03 0.  0.
    9000005    1    3    3    0    0 -0.35391804556E+02 -0.33749317629E+02  0.13382945782E+03  0.14248831549E+03  0.10000000000E+01 0.  0.
    9000005    1    3    3    0    0  0.43935009384E+02  0.55533478265E+02  0.85260983694E+02  0.11083630993E+03  0.10000000000E+01 0.  0.
          4    1    1    2  501    0 -0.85432048286E+01 -0.21784160636E+02 -0.14072096460E+02  0.27334461804E+02  0.12700000000E+01 0. -1.
<mgrwt>
<rscale>  1 0.12717210E+03</rscale>
<asrwt>0</asrwt>
<pdfrwt beam="2">  1       21 0.58182633E-02 0.12717210E+03</pdfrwt>
<pdfrwt beam="1">  1        4 0.37361442E-01 0.12717210E+03</pdfrwt>
<totfact> 0.57881714E+04</totfact>
</mgrwt>
</event>
<event>
 6    4  0.6195789E-003  0.1271253E+03  0.7818608E-02  0.1231785E+00
         21   -1    0    0  501  502  0.00000000000E+00  0.00000000000E+00  0.66574099369E+03  0.66574099369E+03  0.00000000000E+00 0. -1.
         -4   -1    0    0    0  501 -0.00000000000E+00 -0.00000000000E+00 -0.10361362907E+02  0.10438905176E+02  0.12700000000E+01 0. -1.
         25    2    1    2    0    0  0.14233727074E+02 -0.18199293428E+02  0.39909473538E+03  0.41885253192E+03  0.12500808942E+03 0.  0.
    9000005    1    3    3    0    0  0.30028823566E+01 -0.72041192332E+02  0.22459416785E+03  0.23588660608E+03  0.10000000000E+01 0.  0.
    9000005    1    3    3    0    0  0.11230844717E+02  0.53841898904E+02  0.17450056753E+03  0.18296592585E+03  0.10000000000E+01 0.  0.
         -4    1    1    2    0  502 -0.14233727074E+02  0.18199293428E+02  0.25628489540E+03  0.25732736695E+03  0.12700000000E+01 0.  1.
<mgrwt>
<rscale>  1 0.12712528E+03</rscale>
<asrwt>0</asrwt>
<pdfrwt beam="1">  1       21 0.10242166E+00 0.12712528E+03</pdfrwt>
<pdfrwt beam="2">  1       -4 0.16001143E-02 0.12712528E+03</pdfrwt>
<totfact> 0.45371049E+04</totfact>
</mgrwt>
</event>
<event>
 6    4  0.6195789E-003  0.1314170E+03  0.7818608E-02  0.1225368E+00
         21   -1    0    0  501  502  0.00000000000E+00  0.00000000000E+00  0.14447248319E+03  0.14447248319E+03  0.00000000000E+00 0. -1.
         -4   -1    0    0    0  501 -0.00000000000E+00 -0.00000000000E+00 -0.90435934694E+02  0.90444851617E+02  0.12700000000E+01 0.  1.
         25    2    1    2    0    0 -0.30471270447E+02 -0.26772396910E+02 -0.35914157758E+02  0.13623601938E+03  0.12500066676E+03 0.  0.
    9000005    1    3    3    0    0 -0.66862149608E+02 -0.17734859966E+02 -0.60069889564E+02  0.91621307241E+02  0.10000000000E+01 0.  0.
    9000005    1    3    3    0    0  0.36390879161E+02 -0.90375369437E+01  0.24155731806E+02  0.44614712139E+02  0.10000000000E+01 0.  0.
         -4    1    1    2    0  502  0.30471270447E+02  0.26772396910E+02  0.89950706255E+02  0.98681315429E+02  0.12700000000E+01 0. -1.
<mgrwt>
<rscale>  1 0.13141699E+03</rscale>
<asrwt>0</asrwt>
<pdfrwt beam="1">  1       21 0.22226536E-01 0.13141699E+03</pdfrwt>
<pdfrwt beam="2">  1       -4 0.13914336E-01 0.13141699E+03</pdfrwt>
<totfact> 0.33004963E+04</totfact>
</mgrwt>
</event>
<event>
 6    4  0.6195789E-003  0.1303622E+03  0.7818608E-02  0.1226919E+00
          4   -1    0    0  502    0 -0.00000000000E+00  0.00000000000E+00  0.89981483086E+03  0.89981572710E+03  0.12700000000E+01 0.  1.
         21   -1    0    0  501  502  0.00000000000E+00 -0.00000000000E+00 -0.52826136973E+02  0.52826136973E+02  0.00000000000E+00 0. -1.
         25    2    1    2    0    0  0.36563139034E+02  0.57233547470E+01  0.88792410032E+03  0.89744276692E+03  0.12499876822E+03 0.  0.
    9000005    1    3    3    0    0  0.40985892023E+02  0.24375398427E+02  0.86959448702E+03  0.87090158758E+03  0.10000000000E+01 0.  0.
    9000005    1    3    3    0    0 -0.44227529891E+01 -0.18652043680E+02  0.18329613296E+02  0.26541179345E+02  0.10000000000E+01 0.  0.
          4    1    1    2  501    0 -0.36563139034E+02 -0.57233547470E+01 -0.40935406433E+02  0.55199097143E+02  0.12700000000E+01 0. -1.
<mgrwt>
<rscale>  1 0.13036223E+03</rscale>
<asrwt>0</asrwt>
<pdfrwt beam="2">  1       21 0.81270987E-02 0.13036223E+03</pdfrwt>
<pdfrwt beam="1">  1        4 0.13843428E+00 0.13036223E+03</pdfrwt>
<totfact> 0.18837953E+03</totfact>
</mgrwt>
</event>
<event>
 6    4  0.6195789E-003  0.1595566E+03  0.7818608E-02  0.1189198E+00
         21   -1    0    0  501  502  0.00000000000E+00  0.00000000000E+00  0.33053992778E+03  0.33053992778E+03  0.00000000000E+00 0. -1.
         -4   -1    0    0    0  501 -0.00000000000E+00 -0.00000000000E+00 -0.18916386835E+03  0.18916813154E+03  0.12700000000E+01 0.  1.
         25    2    1    2    0    0  0.16186824754E+02 -0.97826739832E+02 -0.14564808443E+03  0.21603626876E+03  0.12500488231E+03 0.  0.
    9000005    1    3    3    0    0 -0.30718941998E+01 -0.87436703709E+02 -0.21672786703E+02  0.90140575619E+02  0.10000000000E+01 0.  0.
    9000005    1    3    3    0    0  0.19258718954E+02 -0.10390036124E+02 -0.12397529772E+03  0.12589569314E+03  0.10000000000E+01 0.  0.
         -4    1    1    2    0  502 -0.16186824754E+02  0.97826739832E+02  0.28702414385E+03  0.30367179055E+03  0.12700000000E+01 0. -1.
<mgrwt>
<rscale>  1 0.15955659E+03</rscale>
<asrwt>0</asrwt>
<pdfrwt beam="1">  1       21 0.50852296E-01 0.15955659E+03</pdfrwt>
<pdfrwt beam="2">  1       -4 0.29102649E-01 0.15955659E+03</pdfrwt>
<totfact> 0.17356706E+03</totfact>
</mgrwt>
</event>
<event>
 6    4  0.6195789E-003  0.1355720E+03  0.7818608E-02  0.1219414E+00
         21   -1    0    0  501  502  0.00000000000E+00  0.00000000000E+00  0.15829626507E+04  0.15829626507E+04  0.00000000000E+00 0.  1.
         -4   -1    0    0    0  501 -0.00000000000E+00 -0.00000000000E+00 -0.10962005024E+02  0.11035327550E+02  0.12700000000E+01 0. -1.
         25    2    1    2    0    0 -0.50352364862E+02  0.14828560945E+02  0.43165651374E+03  0.45244570217E+03  0.12499808277E+03 0.  0.
    9000005    1    3    3    0    0 -0.65363090551E+02 -0.27195458976E+02  0.13490247757E+03  0.15235355280E+03  0.10000000000E+01 0.  0.
    9000005    1    3    3    0    0  0.15010725689E+02  0.42024019920E+02  0.29675403617E+03  0.30009214938E+03  0.10000000000E+01 0.  0.
         -4    1    1    2    0  502  0.50352364862E+02 -0.14828560945E+02  0.11403441319E+04  0.11415522760E+04  0.12700000000E+01 0.  1.
<mgrwt>
<rscale>  1 0.13557200E+03</rscale>
<asrwt>0</asrwt>
<pdfrwt beam="1">  1       21 0.24353254E+00 0.13557200E+03</pdfrwt>
<pdfrwt beam="2">  1       -4 0.16921429E-02 0.13557200E+03</pdfrwt>
<totfact> 0.40692254E+03</totfact>
</mgrwt>
</event>
<event>
 6    4  0.6195789E-003  0.1323681E+03  0.7818608E-02  0.1223984E+00
          4   -1    0    0  502    0 -0.00000000000E+00  0.00000000000E+00  0.16742053521E+03  0.16742535205E+03  0.12700000000E+01 0. -1.
         21   -1    0    0  501  502  0.00000000000E+00 -0.00000000000E+00 -0.52266930146E+02  0.52266930146E+02  0.00000000000E+00 0. -1.
         25    2    1    2    0    0  0.19849150781E+02 -0.38754340269E+02  0.11617628286E+03  0.17611996935E+03  0.12500170890E+03 0.  0.
    9000005    1    3    3    0    0  0.34113811021E+02 -0.16966350459E+02  0.13735089399E+03  0.14254079146E+03  0.10000000000E+01 0.  0.
    9000005    1    3    3    0    0 -0.14264660240E+02 -0.21787989810E+02 -0.21174611126E+02  0.33579177895E+02  0.10000000000E+01 0.  0.
          4    1    1    2  501    0 -0.19849150781E+02  0.38754340269E+02 -0.10226778020E+01  0.43572312841E+02  0.12700000000E+01 0.  1.
<mgrwt>
<rscale>  1 0.13236810E+03</rscale>
<asrwt>0</asrwt>
<pdfrwt beam="2">  1       21 0.80410662E-02 0.13236810E+03</pdfrwt>
<pdfrwt beam="1">  1        4 0.25758563E-01 0.13236810E+03</pdfrwt>
<totfact> 0.67795288E+04</totfact>
</mgrwt>
</event>
<event>
 6    4  0.6195789E-003  0.1300446E+03  0.7818608E-02  0.1227390E+00
          4   -1    0    0  502    0 -0.00000000000E+00  0.00000000000E+00  0.13338847762E+04  0.13338853808E+04  0.12700000000E+01 0.  1.
         21   -1    0    0  501  502  0.00000000000E+00 -0.00000000000E+00 -0.62636631813E+01  0.62636631813E+01  0.00000000000E+00 0.  1.
         25    2    1    2    0    0 -0.34890417478E+02  0.83422065220E+01  0.12151414205E+04  0.12220803023E+04  0.12499863878E+03 0.  0.
    9000005    1    3    3    0    0 -0.33641840135E+02 -0.80081012179E+01  0.84345494427E+02  0.91165045511E+02  0.10000000000E+01 0.  0.
    9000005    1    3    3    0    0 -0.12485773427E+01  0.16350307740E+02  0.11307959261E+04  0.11309152567E+04  0.10000000000E+01 0.  0.
          4    1    1    2  501    0  0.34890417478E+02 -0.83422065220E+01  0.11247969253E+03  0.11806874173E+03  0.12700000000E+01 0. -1.
<mgrwt>
<rscale>  1 0.13004458E+03</rscale>
<asrwt>0</asrwt>
<pdfrwt beam="2">  1       21 0.96364155E-03 0.13004458E+03</pdfrwt>
<pdfrwt beam="1">  1        4 0.20522277E+00 0.13004458E+03</pdfrwt>
<totfact> 0.21814144E+04</totfact>
</mgrwt>
</event>
<event>
 6    4  0.6195789E-003  0.1323802E+03  0.7818608E-02  0.1223966E+00
         21   -1    0    0  501  502  0.00000000000E+00  0.00000000000E+00  0.47138752360E+02  0.47138752360E+02  0.00000000000E+00 0.  1.
         -4   -1    0    0    0  501 -0.00000000000E+00 -0.00000000000E+00 -0.30086098113E+03  0.30086366160E+03  0.12700000000E+01 0. -1.
         25    2    1    2    0    0  0.31029588294E+02 -0.30653834114E+02 -0.27057654783E+03  0.30122449324E+03  0.12498813623E+03 0.  0.
    9000005    1    3    3    0    0  0.48375235432E+01 -0.23585857516E+02 -0.27291478668E+03  0.27397659589E+03  0.10000000000E+01 0.  0.
    9000005    1    3    3    0    0  0.26192064751E+02 -0.70679765972E+01  0.23382388479E+01  0.27247897350E+02  0.10000000000E+01 0.  0.
         -4    1    1    2    0  502 -0.31029588294E+02  0.30653834114E+02  0.16854319056E+02  0.46777920715E+02  0.12700000000E+01 0.  1.
<mgrwt>
<rscale>  1 0.13238024E+03</rscale>
<asrwt>0</asrwt>
<pdfrwt beam="1">  1       21 0.72521158E-02 0.13238024E+03</pdfrwt>
<pdfrwt beam="2">  1       -4 0.46287827E-01 0.13238024E+03</pdfrwt>
<totfact> 0.26166078E+04</totfact>
</mgrwt>
</event>
<event>
 6    4  0.6195789E-003  0.1291375E+03  0.7818608E-02  0.1228741E+00
         21   -1    0    0  501  502  0.00000000000E+00  0.00000000000E+00  0.50440713381E+02  0.50440713381E+02  0.00000000000E+00 0. -1.
         -4   -1    0    0    0  501 -0.00000000000E+00 -0.00000000000E+00 -0.14672820166E+03  0.14673369777E+03  0.12700000000E+01 0.  1.
         25    2    1    2    0    0 -0.14065165231E+02 -0.29222644835E+02 -0.10156458331E+03  0.16429200740E+03  0.12499882907E+03 0.  0.
    9000005    1    3    3    0    0 -0.38906867186E+02  0.22209794940E+02  0.32416821214E+01  0.44928029208E+02  0.10000000000E+01 0.  0.
    9000005    1    3    3    0    0  0.24841701955E+02 -0.51432439776E+02 -0.10480626543E+03  0.11936397820E+03  0.10000000000E+01 0.  0.
         -4    1    1    2    0  502  0.14065165231E+02  0.29222644835E+02  0.52770950344E+01  0.32882403746E+02  0.12700000000E+01 0. -1.
<mgrwt>
<rscale>  1 0.12913752E+03</rscale>
<asrwt>0</asrwt>
<pdfrwt beam="1">  1       21 0.77601099E-02 0.12913752E+03</pdfrwt>
<pdfrwt beam="2">  1       -4 0.22575222E-01 0.12913752E+03</pdfrwt>
<totfact> 0.91526460E+04</totfact>
</mgrwt>
</event>
<event>
 6    4  0.6195789E-003  0.1276279E+03  0.7818608E-02  0.1231019E+00
         -4   -1    0    0    0  501 -0.00000000000E+00  0.00000000000E+00  0.26241920804E+03  0.26242228116E+03  0.12700000000E+01 0.  1.
         21   -1    0    0  501  502  0.00000000000E+00 -0.00000000000E+00 -0.38916122568E+02  0.38916122568E+02  0.00000000000E+00 0.  1.
         25    2    1    2    0    0 -0.24972873341E+02 -0.64753025244E+01  0.23919566143E+03  0.27111517118E+03  0.12499319041E+03 0.  0.
    9000005    1    3    3    0    0 -0.54752036764E+02  0.93979962712E+01  0.22929833992E+03  0.23593396651E+03  0.10000000000E+01 0.  0.
    9000005    1    3    3    0    0  0.29779163423E+02 -0.15873298796E+02  0.98973215177E+01  0.35181204670E+02  0.10000000000E+01 0.  0.
         -4    1    1    2    0  502  0.24972873341E+02  0.64753025244E+01 -0.15692575958E+02  0.30223232552E+02  0.12700000000E+01 0. -1.
<mgrwt>
<rscale>  1 0.12762786E+03</rscale>
<asrwt>0</asrwt>
<pdfrwt beam="2">  1       21 0.59870960E-02 0.12762786E+03</pdfrwt>
<pdfrwt beam="1">  1       -4 0.40374015E-01 0.12762786E+03</pdfrwt>
<totfact> 0.47404389E+04</totfact>
</mgrwt>
</event>
<event>
 6    4  0.6195789E-003  0.1474004E+03  0.7818608E-02  0.1203704E+00
         21   -1    0    0  501  502  0.00000000000E+00  0.00000000000E+00  0.81099063010E+02  0.81099063010E+02  0.00000000000E+00 0.  1.
         -4   -1    0    0    0  501 -0.00000000000E+00 -0.00000000000E+00 -0.37813281965E+03  0.37813495236E+03  0.12700000000E+01 0. -1.
         25    2    1    2    0    0 -0.74428452660E+02 -0.23725663315E+02 -0.33963771974E+03  0.37024405956E+03  0.12499752517E+03 0.  0.
    9000005    1    3    3    0    0  0.14641023780E+02  0.36610060311E+02 -0.10317143670E+03  0.11045361671E+03  0.10000000000E+01 0.  0.
    9000005    1    3    3    0    0 -0.89069476439E+02 -0.60335723626E+02 -0.23646628304E+03  0.25979044285E+03  0.10000000000E+01 0.  0.
         -4    1    1    2    0  502  0.74428452660E+02  0.23725663315E+02  0.42603963098E+02  0.88989955819E+02  0.12700000000E+01 0.  1.
<mgrwt>
<rscale>  1 0.14740042E+03</rscale>
<asrwt>0</asrwt>
<pdfrwt beam="1">  1       21 0.12476779E-01 0.14740042E+03</pdfrwt>
<pdfrwt beam="2">  1       -4 0.58175209E-01 0.14740042E+03</pdfrwt>
<totfact> 0.64061221E+03</totfact>
</mgrwt>
</event>
<event>
 6    4  0.6195789E-003  0.1340047E+03  0.7818608E-02  0.1221632E+00
          4   -1    0    0  502    0 -0.00000000000E+00  0.00000000000E+00  0.45447148629E+02  0.45464889954E+02  0.12700000000E+01 0.  1.
         21   -1    0    0  501  502  0.00000000000E+00 -0.00000000000E+00 -0.20681555321E+03  0.20681555321E+03  0.00000000000E+00 0. -1.
         25    2    1    2    0    0  0.15424872448E+02 -0.45768195416E+02 -0.75649860289E+02  0.15388361325E+03  0.12499844264E+03 0.  0.
    9000005    1    3    3    0    0 -0.24639297309E+02  0.19019319764E+02 -0.71036485834E+02  0.77562953888E+02  0.10000000000E+01 0.  0.
    9000005    1    3    3    0    0  0.40064169758E+02 -0.64787515179E+02 -0.46133744554E+01  0.76320659361E+02  0.10000000000E+01 0.  0.
          4    1    1    2  501    0 -0.15424872448E+02  0.45768195416E+02 -0.85718544290E+02  0.98396829912E+02  0.12700000000E+01 0. -1.
<mgrwt>
<rscale>  1 0.13400472E+03</rscale>
<asrwt>0</asrwt>
<pdfrwt beam="2">  1       21 0.31817778E-01 0.13400472E+03</pdfrwt>
<pdfrwt beam="1">  1        4 0.69935335E-02 0.13400472E+03</pdfrwt>
<totfact> 0.53184431E+04</totfact>
</mgrwt>
</event>
<event>
 6    4  0.6195789E-003  0.1306547E+03  0.7818608E-02  0.1226487E+00
         21   -1    0    0  501  502  0.00000000000E+00  0.00000000000E+00  0.62581977537E+03  0.62581977537E+03  0.00000000000E+00 0. -1.
         -4   -1    0    0    0  501 -0.00000000000E+00 -0.00000000000E+00 -0.14572460585E+02  0.14627696589E+02  0.12700000000E+01 0.  1.
         25    2    1    2    0    0  0.48308994579E+01 -0.37822377074E+02  0.30464044302E+03  0.33147618444E+03  0.12496716181E+03 0.  0.
    9000005    1    3    3    0    0 -0.50210730108E+02 -0.10976531119E+01  0.21045406106E+03  0.21636597255E+03  0.10000000000E+01 0.  0.
    9000005    1    3    3    0    0  0.55041629565E+02 -0.36724723962E+02  0.94186381961E+02  0.11511021189E+03  0.10000000000E+01 0.  0.
         -4    1    1    2    0  502 -0.48308994579E+01  0.37822377074E+02  0.30660687176E+03  0.30897128751E+03  0.12700000000E+01 0. -1.
<mgrwt>
<rscale>  1 0.13065474E+03</rscale>
<asrwt>0</asrwt>
<pdfrwt beam="1">  1       21 0.96279945E-01 0.13065474E+03</pdfrwt>
<pdfrwt beam="2">  1       -4 0.22462655E-02 0.13065474E+03</pdfrwt>
<totfact> 0.31218176E+04</totfact>
</mgrwt>
</event>
<event>
 6    4  0.6195789E-003  0.1275897E+03  0.7818608E-02  0.1231077E+00
          4   -1    0    0  502    0 -0.00000000000E+00  0.00000000000E+00  0.66174100559E+02  0.66186286229E+02  0.12700000000E+01 0.  1.
         21   -1    0    0  501  502  0.00000000000E+00 -0.00000000000E+00 -0.18167015536E+03  0.18167015536E+03  0.00000000000E+00 0. -1.
         25    2    1    2    0    0 -0.23508234199E+02 -0.10010540599E+02  0.20022219278E+01  0.12760542940E+03  0.12500515478E+03 0.  0.
    9000005    1    3    3    0    0  0.35602571051E+02  0.32962536000E+02 -0.18115104527E+02  0.51799892442E+02  0.10000000000E+01 0.  0.
    9000005    1    3    3    0    0 -0.59110805250E+02 -0.42973076599E+02  0.20117326455E+02  0.75805536957E+02  0.10000000000E+01 0.  0.
          4    1    1    2  501    0  0.23508234199E+02  0.10010540599E+02 -0.11749827673E+03  0.12025101219E+03  0.12700000000E+01 0. -1.
<mgrwt>
<rscale>  1 0.12758972E+03</rscale>
<asrwt>0</asrwt>
<pdfrwt beam="2">  1       21 0.27949254E-01 0.12758972E+03</pdfrwt>
<pdfrwt beam="1">  1        4 0.10181910E-01 0.12758972E+03</pdfrwt>
<totfact> 0.36372677E+04</totfact>
</mgrwt>
</event>
<event>
 6    4  0.6195789E-003  0.1269117E+03  0.7818608E-02  0.1232111E+00
          4   -1    0    0  502    0 -0.00000000000E+00  0.00000000000E+00  0.61673416916E+02  0.61686491666E+02  0.12700000000E+01 0. -1.
         21   -1    0    0  501  502  0.00000000000E+00 -0.00000000000E+00 -0.91036346653E+02  0.91036346653E+02  0.00000000000E+00 0. -1.
         25    2    1    2    0    0  0.46939663110E+01 -0.21427616074E+02 -0.18639302774E+02  0.12827319363E+03  0.12500165017E+03 0.  0.
    9000005    1    3    3    0    0 -0.19544375553E+02  0.13365739597E+02  0.45544061624E+02  0.51340891694E+02  0.10000000000E+01 0.  0.
    9000005    1    3    3    0    0  0.24238341864E+02 -0.34793355671E+02 -0.64183364399E+02  0.76932301933E+02  0.10000000000E+01 0.  0.
          4    1    1    2  501    0 -0.46939663110E+01  0.21427616074E+02 -0.10723626963E+02  0.24449644692E+02  0.12700000000E+01 0.  1.
<mgrwt>
<rscale>  1 0.12691174E+03</rscale>
<asrwt>0</asrwt>
<pdfrwt beam="2">  1       21 0.14005592E-01 0.12691174E+03</pdfrwt>
<pdfrwt beam="1">  1        4 0.94899051E-02 0.12691174E+03</pdfrwt>
<totfact> 0.14668518E+05</totfact>
</mgrwt>
</event>
<event>
 6    4  0.6195789E-003  0.1267267E+03  0.7818608E-02  0.1232395E+00
         21   -1    0    0  501  502  0.00000000000E+00  0.00000000000E+00  0.85730448164E+02  0.85730448164E+02  0.00000000000E+00 0.  1.
         -4   -1    0    0    0  501 -0.00000000000E+00 -0.00000000000E+00 -0.82578567046E+02  0.82588332320E+02  0.12700000000E+01 0. -1.
         25    2    1    2    0    0 -0.19552933171E+02  0.72491374308E+01 -0.28974364485E+02  0.12999677968E+03  0.12499912696E+03 0.  0.
    9000005    1    3    3    0    0 -0.33001772466E+02  0.22198608518E+02  0.41031580279E+02  0.57153178269E+02  0.10000000000E+01 0.  0.
    9000005    1    3    3    0    0  0.13448839294E+02 -0.14949471088E+02 -0.70005944764E+02  0.72843601410E+02  0.10000000000E+01 0.  0.
         -4    1    1    2    0  502  0.19552933171E+02 -0.72491374308E+01  0.32126245603E+02  0.38322000805E+02  0.12700000000E+01 0.  1.
<mgrwt>
<rscale>  1 0.12672667E+03</rscale>
<asrwt>0</asrwt>
<pdfrwt beam="1">  1       21 0.13189300E-01 0.12672667E+03</pdfrwt>
<pdfrwt beam="2">  1       -4 0.12705870E-01 0.12672667E+03</pdfrwt>
<totfact> 0.99548014E+04</totfact>
</mgrwt>
</event>
<event>
 6    4  0.6195789E-003  0.1290238E+03  0.7818608E-02  0.1228911E+00
         21   -1    0    0  501  502  0.00000000000E+00  0.00000000000E+00  0.88535866186E+01  0.88535866186E+01  0.00000000000E+00 0.  1.
          4   -1    0    0  502    0 -0.00000000000E+00 -0.00000000000E+00 -0.73342416092E+03  0.73342526048E+03  0.12700000000E+01 0.  1.
         25    2    1    2    0    0  0.28115841130E+02 -0.15250043945E+02 -0.59227511363E+03  0.60616578316E+03  0.12499632829E+03 0.  0.
    9000005    1    3    3    0    0 -0.18310689184E+02 -0.53423284520E+02 -0.15887700028E+03  0.16861859294E+03  0.10000000000E+01 0.  0.
    9000005    1    3    3    0    0  0.46426530313E+02  0.38173240575E+02 -0.43339811335E+03  0.43754719022E+03  0.10000000000E+01 0.  0.
          4    1    1    2  501    0 -0.28115841130E+02  0.15250043945E+02 -0.13229546067E+03  0.13611306394E+03  0.12700000000E+01 0. -1.
<mgrwt>
<rscale>  1 0.12902382E+03</rscale>
<asrwt>0</asrwt>
<pdfrwt beam="1">  1       21 0.13620904E-02 0.12902382E+03</pdfrwt>
<pdfrwt beam="2">  1        4 0.11284156E+00 0.12902382E+03</pdfrwt>
<totfact> 0.58975762E+04</totfact>
</mgrwt>
</event>
<event>
 6    4  0.6195789E-003  0.1491855E+03  0.7818608E-02  0.1201477E+00
         -4   -1    0    0    0  501 -0.00000000000E+00  0.00000000000E+00  0.94274094357E+03  0.94274179900E+03  0.12700000000E+01 0. -1.
         21   -1    0    0  501  502  0.00000000000E+00 -0.00000000000E+00 -0.17291914161E+02  0.17291914161E+02  0.00000000000E+00 0.  1.
         25    2    1    2    0    0 -0.34193382030E+02  0.73903024141E+02  0.77230281295E+03  0.78657991277E+03  0.12500191976E+03 0.  0.
    9000005    1    3    3    0    0 -0.19969761865E+02  0.21667502204E+02  0.29162342111E+02  0.41469437399E+02  0.10000000000E+01 0.  0.
    9000005    1    3    3    0    0 -0.14223620164E+02  0.52235521936E+02  0.74314047083E+03  0.74511047538E+03  0.10000000000E+01 0.  0.
         -4    1    1    2    0  502  0.34193382030E+02 -0.73903024141E+02  0.15314621646E+03  0.17345380038E+03  0.12700000000E+01 0.  1.
<mgrwt>
<rscale>  1 0.14918554E+03</rscale>
<asrwt>0</asrwt>
<pdfrwt beam="2">  1       21 0.26602952E-02 0.14918554E+03</pdfrwt>
<pdfrwt beam="1">  1       -4 0.14504068E+00 0.14918554E+03</pdfrwt>
<totfact> 0.11017954E+04</totfact>
</mgrwt>
</event>
<event>
 6    4  0.6195789E-003  0.1268303E+03  0.7818608E-02  0.1232236E+00
         21   -1    0    0  501  502  0.00000000000E+00  0.00000000000E+00  0.17179493786E+03  0.17179493786E+03  0.00000000000E+00 0.  1.
          4   -1    0    0  502    0 -0.00000000000E+00 -0.00000000000E+00 -0.71686282356E+02  0.71697531185E+02  0.12700000000E+01 0. -1.
         25    2    1    2    0    0 -0.21479729897E+02  0.68999789456E-01 -0.13791251059E+02  0.12757790925E+03  0.12499816305E+03 0.  0.
    9000005    1    3    3    0    0 -0.12978342443E+02  0.55345210441E+02 -0.36111360872E+02  0.67353990790E+02  0.10000000000E+01 0.  0.
    9000005    1    3    3    0    0 -0.85013874536E+01 -0.55276210652E+02  0.22320109814E+02  0.60223918461E+02  0.10000000000E+01 0.  0.
          4    1    1    2  501    0  0.21479729897E+02 -0.68999789456E-01  0.11389990656E+03  0.11591455980E+03  0.12700000000E+01 0.  1.
<mgrwt>
<rscale>  1 0.12683030E+03</rscale>
<asrwt>0</asrwt>
<pdfrwt beam="1">  1       21 0.26429990E-01 0.12683030E+03</pdfrwt>
<pdfrwt beam="2">  1        4 0.11029885E-01 0.12683030E+03</pdfrwt>
<totfact> 0.35320755E+04</totfact>
</mgrwt>
</event>
<event>
 6    4  0.6195789E-003  0.1300598E+03  0.7818608E-02  0.1227367E+00
          4   -1    0    0  502    0 -0.00000000000E+00  0.00000000000E+00  0.37373383701E+02  0.37394955666E+02  0.12700000000E+01 0. -1.
         21   -1    0    0  501  502  0.00000000000E+00 -0.00000000000E+00 -0.22355335710E+03  0.22355335710E+03  0.00000000000E+00 0. -1.
         25    2    1    2    0    0  0.50125064497E+01  0.35556751542E+02 -0.89693556464E+02  0.15798885786E+03  0.12500454926E+03 0.  0.
    9000005    1    3    3    0    0 -0.59987274293E+02  0.16858364919E+02 -0.39957889300E+02  0.74029119015E+02  0.10000000000E+01 0.  0.
    9000005    1    3    3    0    0  0.64999780743E+02  0.18698386623E+02 -0.49735667164E+02  0.83959738847E+02  0.10000000000E+01 0.  0.
          4    1    1    2  501    0 -0.50125064497E+01 -0.35556751542E+02 -0.96486416936E+02  0.10295945490E+03  0.12700000000E+01 0.  1.
<mgrwt>
<rscale>  1 0.13005978E+03</rscale>
<asrwt>0</asrwt>
<pdfrwt beam="2">  1       21 0.34392824E-01 0.13005978E+03</pdfrwt>
<pdfrwt beam="1">  1        4 0.57516882E-02 0.13005978E+03</pdfrwt>
<totfact> 0.62615752E+04</totfact>
</mgrwt>
</event>
<event>
 6    4  0.6195789E-003  0.1271512E+03  0.7818608E-02  0.1231745E+00
         21   -1    0    0  501  502  0.00000000000E+00  0.00000000000E+00  0.78797421326E+01  0.78797421326E+01  0.00000000000E+00 0. -1.
         -4   -1    0    0    0  501 -0.00000000000E+00 -0.00000000000E+00 -0.76945262747E+03  0.76945367555E+03  0.12700000000E+01 0.  1.
         25    2    1    2    0    0  0.22316647532E+02 -0.67552774471E+01 -0.70054372105E+03  0.71198941777E+03  0.12499503747E+03 0.  0.
    9000005    1    3    3    0    0  0.59346676925E+02 -0.24930669465E+02 -0.59799947384E+03  0.60145485039E+03  0.10000000000E+01 0.  0.
    9000005    1    3    3    0    0 -0.37030029392E+02  0.18175392018E+02 -0.10254424720E+03  0.11053456738E+03  0.10000000000E+01 0.  0.
         -4    1    1    2    0  502 -0.22316647532E+02  0.67552774471E+01 -0.61029164294E+02  0.65343999915E+02  0.12700000000E+01 0. -1.
<mgrwt>
<rscale>  1 0.12715119E+03</rscale>
<asrwt>0</asrwt>
<pdfrwt beam="1">  1       21 0.12122679E-02 0.12715119E+03</pdfrwt>
<pdfrwt beam="2">  1       -4 0.11838529E+00 0.12715119E+03</pdfrwt>
<totfact> 0.63209373E+04</totfact>
</mgrwt>
</event>
<event>
 6    4  0.6195789E-003  0.1358599E+03  0.7818608E-02  0.1219011E+00
         21   -1    0    0  501  502  0.00000000000E+00  0.00000000000E+00  0.14678629119E+03  0.14678629119E+03  0.00000000000E+00 0. -1.
          4   -1    0    0  502    0 -0.00000000000E+00 -0.00000000000E+00 -0.61677479721E+02  0.61690553611E+02  0.12700000000E+01 0. -1.
         25    2    1    2    0    0 -0.84296984062E+01  0.52553273451E+02  0.50325334644E+02  0.14488117258E+03  0.12500003398E+03 0.  0.
    9000005    1    3    3    0    0 -0.38786374850E+02  0.43929819022E+02  0.81581841253E+02  0.10045301735E+03  0.10000000000E+01 0.  0.
    9000005    1    3    3    0    0  0.30356676444E+02  0.86234544295E+01 -0.31256506608E+02  0.44428155221E+02  0.10000000000E+01 0.  0.
          4    1    1    2  501    0  0.84296984062E+01 -0.52553273451E+02  0.34783476822E+02  0.63595672223E+02  0.12700000000E+01 0.  1.
<mgrwt>
<rscale>  1 0.13585991E+03</rscale>
<asrwt>0</asrwt>
<pdfrwt beam="1">  1       21 0.22582506E-01 0.13585991E+03</pdfrwt>
<pdfrwt beam="2">  1        4 0.94902714E-02 0.13585991E+03</pdfrwt>
<totfact> 0.61731215E+04</totfact>
</mgrwt>
</event>
<event>
 6    4  0.6195789E-003  0.1271244E+03  0.7818608E-02  0.1231786E+00
         -4   -1    0    0    0  501 -0.00000000000E+00  0.00000000000E+00  0.16181461623E+02  0.16231223006E+02  0.12700000000E+01 0. -1.
         21   -1    0    0  501  502  0.00000000000E+00 -0.00000000000E+00 -0.36175080887E+03  0.36175080887E+03  0.00000000000E+00 0. -1.
         25    2    1    2    0    0 -0.14658236779E+02  0.17896584747E+02 -0.26125071281E+03  0.29053835478E+03  0.12500179600E+03 0.  0.
    9000005    1    3    3    0    0 -0.66367316387E+02  0.24423559717E+02 -0.18602374637E+03  0.19901498730E+03  0.10000000000E+01 0.  0.
    9000005    1    3    3    0    0  0.51709079607E+02 -0.65269749700E+01 -0.75226966442E+02  0.91523367487E+02  0.10000000000E+01 0.  0.
         -4    1    1    2    0  502  0.14658236779E+02 -0.17896584747E+02 -0.84318634431E+02  0.87443677092E+02  0.12700000000E+01 0.  1.
<mgrwt>
<rscale>  1 0.12712435E+03</rscale>
<asrwt>0</asrwt>
<pdfrwt beam="2">  1       21 0.55653975E-01 0.12712435E+03</pdfrwt>
<pdfrwt beam="1">  1       -4 0.24934547E-02 0.12712435E+03</pdfrwt>
<totfact> 0.88492608E+04</totfact>
</mgrwt>
</event>
<event>
 6    4  0.6195789E-003  0.1276484E+03  0.7818608E-02  0.1230987E+00
         21   -1    0    0  501  502  0.00000000000E+00  0.00000000000E+00  0.49301227378E+03  0.49301227378E+03  0.00000000000E+00 0.  1.
         -4   -1    0    0    0  501 -0.00000000000E+00 -0.00000000000E+00 -0.14841033030E+02  0.14895273123E+02  0.12700000000E+01 0. -1.
         25    2    1    2    0    0  0.14398126594E+02  0.21499130898E+02  0.27606822679E+03  0.30415092780E+03  0.12499840942E+03 0.  0.
    9000005    1    3    3    0    0 -0.17723688167E+02 -0.24698479957E+02  0.97336462349E+01  0.31935683858E+02  0.10000000000E+01 0.  0.
    9000005    1    3    3    0    0  0.32121814762E+02  0.46197610855E+02  0.26633458056E+03  0.27221524394E+03  0.10000000000E+01 0.  0.
         -4    1    1    2    0  502 -0.14398126594E+02 -0.21499130898E+02  0.20210301396E+03  0.20375661911E+03  0.12700000000E+01 0.  1.
<mgrwt>
<rscale>  1 0.12764843E+03</rscale>
<asrwt>0</asrwt>
<pdfrwt beam="1">  1       21 0.75848030E-01 0.12764843E+03</pdfrwt>
<pdfrwt beam="2">  1       -4 0.22875344E-02 0.12764843E+03</pdfrwt>
<totfact> 0.51966344E+04</totfact>
</mgrwt>
</event>
<event>
 6    4  0.6195789E-003  0.1313157E+03  0.7818608E-02  0.1225516E+00
         21   -1    0    0  501  502  0.00000000000E+00  0.00000000000E+00  0.65359967859E+01  0.65359967859E+01  0.00000000000E+00 0.  1.
          4   -1    0    0  502    0 -0.00000000000E+00 -0.00000000000E+00 -0.13864226514E+04  0.13864232331E+04  0.12700000000E+01 0. -1.
         25    2    1    2    0    0 -0.19915220645E+02 -0.34964898100E+02 -0.12524360233E+04  0.12593013216E+04  0.12499866430E+03 0.  0.
    9000005    1    3    3    0    0  0.52338053134E+02 -0.25554267327E+02 -0.59055430775E+03  0.59342032556E+03  0.10000000000E+01 0.  0.
    9000005    1    3    3    0    0 -0.72253273779E+02 -0.94106307734E+01 -0.66188171551E+03  0.66588099602E+03  0.10000000000E+01 0.  0.
          4    1    1    2  501    0  0.19915220645E+02  0.34964898100E+02 -0.12745063136E+03  0.13365790829E+03  0.12700000000E+01 0.  1.
<mgrwt>
<rscale>  1 0.13131575E+03</rscale>
<asrwt>0</asrwt>
<pdfrwt beam="1">  1       21 0.10055356E-02 0.13131575E+03</pdfrwt>
<pdfrwt beam="2">  1        4 0.21330584E+00 0.13131575E+03</pdfrwt>
<totfact> 0.18236657E+04</totfact>
</mgrwt>
</event>
<event>
 6    4  0.6195789E-003  0.1271726E+03  0.7818608E-02  0.1231712E+00
         21   -1    0    0  501  502  0.00000000000E+00  0.00000000000E+00  0.71975340046E+02  0.71975340046E+02  0.00000000000E+00 0. -1.
         -4   -1    0    0    0  501 -0.00000000000E+00 -0.00000000000E+00 -0.79175774966E+02  0.79185959875E+02  0.12700000000E+01 0. -1.
         25    2    1    2    0    0  0.15069734227E+02  0.17892034994E+02 -0.10011189415E+02  0.12756606636E+03  0.12500262224E+03 0.  0.
    9000005    1    3    3    0    0  0.65715663714E+02 -0.92488431943E+01 -0.19818622115E+02  0.69266639447E+02  0.10000000000E+01 0.  0.
    9000005    1    3    3    0    0 -0.50645929486E+02  0.27140878189E+02  0.98074326999E+01  0.58299426914E+02  0.10000000000E+01 0.  0.
         -4    1    1    2    0  502 -0.15069734227E+02 -0.17892034994E+02  0.28107544957E+01  0.23595233560E+02  0.12700000000E+01 0.  1.
<mgrwt>
<rscale>  1 0.12717263E+03</rscale>
<asrwt>0</asrwt>
<pdfrwt beam="1">  1       21 0.11073129E-01 0.12717263E+03</pdfrwt>
<pdfrwt beam="2">  1       -4 0.12182534E-01 0.12717263E+03</pdfrwt>
<totfact> 0.14592400E+05</totfact>
</mgrwt>
</event>
<event>
 6    4  0.6195789E-003  0.1282088E+03  0.7818608E-02  0.1230138E+00
         -4   -1    0    0    0  501 -0.00000000000E+00  0.00000000000E+00  0.17135856982E+03  0.17136327597E+03  0.12700000000E+01 0.  1.
         21   -1    0    0  501  502  0.00000000000E+00 -0.00000000000E+00 -0.14883031748E+03  0.14883031748E+03  0.00000000000E+00 0. -1.
         25    2    1    2    0    0  0.25876521955E+02  0.11689719456E+02  0.14553053785E+03  0.19395010226E+03  0.12502504065E+03 0.  0.
    9000005    1    3    3    0    0  0.56033632326E+02  0.13661872383E+01  0.12879842443E+02  0.57519777125E+02  0.10000000000E+01 0.  0.
    9000005    1    3    3    0    0 -0.30157110370E+02  0.10323532218E+02  0.13265069541E+03  0.13643032513E+03  0.10000000000E+01 0.  0.
         -4    1    1    2    0  502 -0.25876521955E+02 -0.11689719456E+02 -0.12300228551E+03  0.12624349120E+03  0.12700000000E+01 0. -1.
<mgrwt>
<rscale>  1 0.12820883E+03</rscale>
<asrwt>0</asrwt>
<pdfrwt beam="2">  1       21 0.22896972E-01 0.12820883E+03</pdfrwt>
<pdfrwt beam="1">  1       -4 0.26363636E-01 0.12820883E+03</pdfrwt>
<totfact> 0.99180869E+03</totfact>
</mgrwt>
</event>
<event>
 6    4  0.6195789E-003  0.1268339E+03  0.7818608E-02  0.1232231E+00
         21   -1    0    0  501  502  0.00000000000E+00  0.00000000000E+00  0.28089712756E+02  0.28089712756E+02  0.00000000000E+00 0.  1.
         -4   -1    0    0    0  501 -0.00000000000E+00 -0.00000000000E+00 -0.43513911894E+03  0.43514097225E+03  0.12700000000E+01 0. -1.
         25    2    1    2    0    0 -0.10708054418E+02 -0.18671962677E+02 -0.41955323046E+03  0.43830553424E+03  0.12499409401E+03 0.  0.
    9000005    1    3    3    0    0  0.40253817244E+02  0.33918310557E+02 -0.20235823143E+03  0.20909489573E+03  0.10000000000E+01 0.  0.
    9000005    1    3    3    0    0 -0.50961871662E+02 -0.52590273234E+02 -0.21719499902E+03  0.22921063850E+03  0.10000000000E+01 0.  0.
         -4    1    1    2    0  502  0.10708054418E+02  0.18671962677E+02  0.12503824270E+02  0.24925150772E+02  0.12700000000E+01 0.  1.
<mgrwt>
<rscale>  1 0.12683386E+03</rscale>
<asrwt>0</asrwt>
<pdfrwt beam="1">  1       21 0.43214946E-02 0.12683386E+03</pdfrwt>
<pdfrwt beam="2">  1       -4 0.66946826E-01 0.12683386E+03</pdfrwt>
<totfact> 0.29066968E+04</totfact>
</mgrwt>
</event>
<event>
 6    4  0.6195789E-003  0.1275475E+03  0.7818608E-02  0.1231141E+00
         21   -1    0    0  501  502  0.00000000000E+00  0.00000000000E+00  0.84085263314E+03  0.84085263314E+03  0.00000000000E+00 0. -1.
         -4   -1    0    0    0  501 -0.00000000000E+00 -0.00000000000E+00 -0.10782854162E+02  0.10857386604E+02  0.12700000000E+01 0. -1.
         25    2    1    2    0    0 -0.23159337692E+02  0.10366538437E+02  0.37823770792E+03  0.39916427247E+03  0.12499813071E+03 0.  0.
    9000005    1    3    3    0    0 -0.15075480456E+02 -0.48892878471E+02  0.27607864615E+03  0.28078141416E+03  0.10000000000E+01 0.  0.
    9000005    1    3    3    0    0 -0.80838572361E+01  0.59259416908E+02  0.10215906178E+03  0.11838285832E+03  0.10000000000E+01 0.  0.
         -4    1    1    2    0  502  0.23159337692E+02 -0.10366538437E+02  0.45183207106E+03  0.45254574727E+03  0.12700000000E+01 0.  1.
<mgrwt>
<rscale>  1 0.12754745E+03</rscale>
<asrwt>0</asrwt>
<pdfrwt beam="1">  1       21 0.12936189E+00 0.12754745E+03</pdfrwt>
<pdfrwt beam="2">  1       -4 0.16647083E-02 0.12754745E+03</pdfrwt>
<totfact> 0.24305059E+04</totfact>
</mgrwt>
</event>
<event>
 6    4  0.6195789E-003  0.1268829E+03  0.7818608E-02  0.1232156E+00
         21   -1    0    0  501  502  0.00000000000E+00  0.00000000000E+00  0.47230818955E+03  0.47230818955E+03  0.00000000000E+00 0. -1.
          4   -1    0    0  502    0 -0.00000000000E+00 -0.00000000000E+00 -0.12060857004E+02  0.12127537741E+02  0.12700000000E+01 0. -1.
         25    2    1    2    0    0  0.21544729789E+02  0.31225293767E+01  0.41884108432E+03  0.43763812197E+03  0.12500138527E+03 0.  0.
    9000005    1    3    3    0    0  0.49935148985E+02 -0.46067689496E+02  0.18770987591E+03  0.19962902754E+03  0.10000000000E+01 0.  0.
    9000005    1    3    3    0    0 -0.28390419197E+02  0.49190218873E+02  0.23113120841E+03  0.23800909444E+03  0.10000000000E+01 0.  0.
          4    1    1    2  501    0 -0.21544729789E+02 -0.31225293767E+01  0.41406248224E+02  0.46797605317E+02  0.12700000000E+01 0.  1.
<mgrwt>
<rscale>  1 0.12688291E+03</rscale>
<asrwt>0</asrwt>
<pdfrwt beam="1">  1       21 0.72662784E-01 0.12688291E+03</pdfrwt>
<pdfrwt beam="2">  1        4 0.18607775E-02 0.12688291E+03</pdfrwt>
<totfact> 0.78450463E+04</totfact>
</mgrwt>
</event>
<event>
 6    4  0.6195789E-003  0.1275486E+03  0.7818608E-02  0.1231139E+00
         -4   -1    0    0    0  501 -0.00000000000E+00  0.00000000000E+00  0.14866130007E+03  0.14866672472E+03  0.12700000000E+01 0. -1.
         21   -1    0    0  501  502  0.00000000000E+00 -0.00000000000E+00 -0.62563035993E+02  0.62563035993E+02  0.00000000000E+00 0.  1.
         25    2    1    2    0    0  0.11781431939E+01  0.25349033267E+02  0.11570866480E+03  0.17221245379E+03  0.12499869048E+03 0.  0.
    9000005    1    3    3    0    0  0.16159750798E+02 -0.48561874983E+02  0.57178882407E+02  0.76745148648E+02  0.10000000000E+01 0.  0.
    9000005    1    3    3    0    0 -0.14981607604E+02  0.73910908250E+02  0.58529782391E+02  0.95467305144E+02  0.10000000000E+01 0.  0.
         -4    1    1    2    0  502 -0.11781431939E+01 -0.25349033267E+02 -0.29610400717E+02  0.39017306924E+02  0.12700000000E+01 0.  1.
<mgrwt>
<rscale>  1 0.12754856E+03</rscale>
<asrwt>0</asrwt>
<pdfrwt beam="2">  1       21 0.96250825E-02 0.12754856E+03</pdfrwt>
<pdfrwt beam="1">  1       -4 0.22872378E-01 0.12754856E+03</pdfrwt>
<totfact> 0.61433981E+04</totfact>
</mgrwt>
</event>
<event>
 6    4  0.6195789E-003  0.1279158E+03  0.7818608E-02  0.1230581E+00
          4   -1    0    0  502    0 -0.00000000000E+00  0.00000000000E+00  0.13913039983E+04  0.13913045779E+04  0.12700000000E+01 0.  1.
         21   -1    0    0  501  502  0.00000000000E+00 -0.00000000000E+00 -0.61985599797E+01  0.61985599797E+01  0.00000000000E+00 0.  1.
         25    2    1    2    0    0 -0.22008535298E+02 -0.15962414283E+02  0.13290282487E+04  0.13351698532E+04  0.12499310611E+03 0.  0.
    9000005    1    3    3    0    0  0.36477122495E+01 -0.39964150335E+02  0.14050371502E+03  0.14612574397E+03  0.10000000000E+01 0.  0.
    9000005    1    3    3    0    0 -0.25656247548E+02  0.24001736053E+02  0.11885245337E+04  0.11890441092E+04  0.10000000000E+01 0.  0.
          4    1    1    2  501    0  0.22008535298E+02  0.15962414283E+02  0.56077189583E+02  0.62333284746E+02  0.12700000000E+01 0. -1.
<mgrwt>
<rscale>  1 0.12791580E+03</rscale>
<asrwt>0</asrwt>
<pdfrwt beam="2">  1       21 0.95362572E-03 0.12791580E+03</pdfrwt>
<pdfrwt beam="1">  1        4 0.21405657E+00 0.12791580E+03</pdfrwt>
<totfact> 0.19570887E+04</totfact>
</mgrwt>
</event>
<event>
 6    4  0.6195789E-003  0.1309945E+03  0.7818608E-02  0.1225987E+00
          4   -1    0    0  502    0 -0.00000000000E+00  0.00000000000E+00  0.14787820251E+04  0.14787825704E+04  0.12700000000E+01 0.  1.
         21   -1    0    0  501  502  0.00000000000E+00 -0.00000000000E+00 -0.26945519979E+02  0.26945519979E+02  0.00000000000E+00 0. -1.
         25    2    1    2    0    0 -0.36551692948E+02  0.14037647515E+02  0.14598719986E+04  0.14657372932E+04  0.12500591396E+03 0.  0.
    9000005    1    3    3    0    0 -0.23203679035E+02 -0.54674077391E+02  0.78499698478E+03  0.78724134265E+03  0.10000000000E+01 0.  0.
    9000005    1    3    3    0    0 -0.13348013913E+02  0.68711724905E+02  0.67487501383E+03  0.67849595055E+03  0.10000000000E+01 0.  0.
          4    1    1    2  501    0  0.36551692948E+02 -0.14037647515E+02 -0.80354935173E+01  0.39990797206E+02  0.12700000000E+01 0. -1.
<mgrwt>
<rscale>  1 0.13099450E+03</rscale>
<asrwt>0</asrwt>
<pdfrwt beam="2">  1       21 0.41454658E-02 0.13099450E+03</pdfrwt>
<pdfrwt beam="1">  1        4 0.22750721E+00 0.13099450E+03</pdfrwt>
<totfact> 0.15188519E+03</totfact>
</mgrwt>
</event>
<event>
 6    4  0.6195789E-003  0.1398283E+03  0.7818608E-02  0.1213560E+00
         21   -1    0    0  501  502  0.00000000000E+00  0.00000000000E+00  0.49367094923E+02  0.49367094923E+02  0.00000000000E+00 0. -1.
          4   -1    0    0  502    0 -0.00000000000E+00 -0.00000000000E+00 -0.22264592773E+03  0.22264954982E+03  0.12700000000E+01 0.  1.
         25    2    1    2    0    0  0.62043323809E+02 -0.87739759877E+01 -0.15024347782E+03  0.20524391706E+03  0.12500242468E+03 0.  0.
    9000005    1    3    3    0    0  0.96848171389E+02 -0.24215853138E+02 -0.12298437141E+03  0.15840496033E+03  0.10000000000E+01 0.  0.
    9000005    1    3    3    0    0 -0.34804847580E+02  0.15441877150E+02 -0.27259106415E+02  0.46838956730E+02  0.10000000000E+01 0.  0.
          4    1    1    2  501    0 -0.62043323809E+02  0.87739759877E+01 -0.23035354987E+02  0.66772727691E+02  0.12700000000E+01 0. -1.
<mgrwt>
<rscale>  1 0.13982833E+03</rscale>
<asrwt>0</asrwt>
<pdfrwt beam="1">  1       21 0.75949375E-02 0.13982833E+03</pdfrwt>
<pdfrwt beam="2">  1        4 0.34254756E-01 0.13982833E+03</pdfrwt>
<totfact> 0.43968131E+04</totfact>
</mgrwt>
</event>
<event>
 6    4  0.6195789E-003  0.1266578E+03  0.7818608E-02  0.1232501E+00
         -4   -1    0    0    0  501 -0.00000000000E+00  0.00000000000E+00  0.10293561309E+03  0.10294344730E+03  0.12700000000E+01 0.  1.
         21   -1    0    0  501  502  0.00000000000E+00 -0.00000000000E+00 -0.58649893288E+02  0.58649893288E+02  0.00000000000E+00 0.  1.
         25    2    1    2    0    0  0.12048144125E+02 -0.16480762720E+02  0.55480121515E+02  0.13827594694E+03  0.12500168120E+03 0.  0.
    9000005    1    3    3    0    0 -0.53820207785E+02 -0.16612256128E+02  0.43831877451E+02  0.71377974898E+02  0.10000000000E+01 0.  0.
    9000005    1    3    3    0    0  0.65868351909E+02  0.13149340818E+00  0.11648244064E+02  0.66897972044E+02  0.10000000000E+01 0.  0.
         -4    1    1    2    0  502 -0.12048144125E+02  0.16480762720E+02 -0.11194401716E+02  0.23317393646E+02  0.12700000000E+01 0. -1.
<mgrwt>
<rscale>  1 0.12665778E+03</rscale>
<asrwt>0</asrwt>
<pdfrwt beam="2">  1       21 0.90230606E-02 0.12665778E+03</pdfrwt>
<pdfrwt beam="1">  1       -4 0.15837908E-01 0.12665778E+03</pdfrwt>
<totfact> 0.13245564E+05</totfact>
</mgrwt>
</event>
<event>
 6    4  0.6195789E-003  0.1281229E+03  0.7818608E-02  0.1230268E+00
          4   -1    0    0  502    0 -0.00000000000E+00  0.00000000000E+00  0.66418188315E+02  0.66430329210E+02  0.12700000000E+01 0.  1.
         21   -1    0    0  501  502  0.00000000000E+00 -0.00000000000E+00 -0.11159159615E+03  0.11159159615E+03  0.00000000000E+00 0.  1.
         25    2    1    2    0    0  0.24438770341E+02 -0.13899832272E+02 -0.40459369104E+01  0.12818679119E+03  0.12500009999E+03 0.  0.
    9000005    1    3    3    0    0  0.32699364651E+02  0.48586964920E+02  0.18202681784E+02  0.61337421145E+02  0.10000000000E+01 0.  0.
    9000005    1    3    3    0    0 -0.82605943094E+01 -0.62486797191E+02 -0.22248618694E+02  0.66849370045E+02  0.10000000000E+01 0.  0.
          4    1    1    2  501    0 -0.24438770341E+02  0.13899832272E+02 -0.41127470920E+02  0.49835134165E+02  0.12700000000E+01 0. -1.
<mgrwt>
<rscale>  1 0.12812292E+03</rscale>
<asrwt>0</asrwt>
<pdfrwt beam="2">  1       21 0.17167938E-01 0.12812292E+03</pdfrwt>
<pdfrwt beam="1">  1        4 0.10219673E-01 0.12812292E+03</pdfrwt>
<totfact> 0.89766583E+04</totfact>
</mgrwt>
</event>
<event>
 6    4  0.6195789E-003  0.1314294E+03  0.7818608E-02  0.1225350E+00
         -4   -1    0    0    0  501 -0.00000000000E+00  0.00000000000E+00  0.56199545767E+02  0.56213893696E+02  0.12700000000E+01 0.  1.
         21   -1    0    0  501  502  0.00000000000E+00 -0.00000000000E+00 -0.47247637632E+03  0.47247637632E+03  0.00000000000E+00 0. -1.
         25    2    1    2    0    0 -0.36703256803E+02 -0.17350975747E+02 -0.23128047124E+02  0.13344887007E+03  0.12500203574E+03 0.  0.
    9000005    1    3    3    0    0  0.26253586793E+02 -0.22669587003E-01  0.36529584076E+02  0.44996242578E+02  0.10000000000E+01 0.  0.
    9000005    1    3    3    0    0 -0.62956843595E+02 -0.17328306160E+02 -0.59657631200E+02  0.88452627492E+02  0.10000000000E+01 0.  0.
         -4    1    1    2    0  502  0.36703256803E+02  0.17350975747E+02 -0.39314878343E+03  0.39524139995E+03  0.12700000000E+01 0. -1.
<mgrwt>
<rscale>  1 0.13142943E+03</rscale>
<asrwt>0</asrwt>
<pdfrwt beam="2">  1       21 0.72688676E-01 0.13142943E+03</pdfrwt>
<pdfrwt beam="1">  1       -4 0.86473187E-02 0.13142943E+03</pdfrwt>
<totfact> 0.68242355E+03</totfact>
</mgrwt>
</event>
<event>
 6    4  0.6195789E-003  0.1277132E+03  0.7818608E-02  0.1230889E+00
          4   -1    0    0  502    0 -0.00000000000E+00  0.00000000000E+00  0.20038593664E+04  0.20038597688E+04  0.12700000000E+01 0. -1.
         21   -1    0    0  501  502  0.00000000000E+00 -0.00000000000E+00 -0.33549691345E+01  0.33549691345E+01  0.00000000000E+00 0. -1.
         25    2    1    2    0    0  0.72398530193E+01 -0.25129777720E+02  0.18536607579E+04  0.18580551305E+04  0.12500696451E+03 0.  0.
    9000005    1    3    3    0    0  0.33695567450E+02  0.96381238826E+01  0.15851612549E+03  0.16234730284E+03  0.10000000000E+01 0.  0.
    9000005    1    3    3    0    0 -0.26455714431E+02 -0.34767901602E+02  0.16951446324E+04  0.16957078276E+04  0.10000000000E+01 0.  0.
          4    1    1    2  501    0 -0.72398530193E+01  0.25129777720E+02  0.14684363930E+03  0.14915960747E+03  0.12700000000E+01 0.  1.
<mgrwt>
<rscale>  1 0.12771320E+03</rscale>
<asrwt>0</asrwt>
<pdfrwt beam="2">  1       21 0.51615070E-03 0.12771320E+03</pdfrwt>
<pdfrwt beam="1">  1        4 0.30830362E+00 0.12771320E+03</pdfrwt>
<totfact> 0.14511055E+04</totfact>
</mgrwt>
</event>
<event>
 6    4  0.6195789E-003  0.1338434E+03  0.7818608E-02  0.1221862E+00
          4   -1    0    0  502    0 -0.00000000000E+00  0.00000000000E+00  0.50269749260E+02  0.50285789152E+02  0.12700000000E+01 0. -1.
         21   -1    0    0  501  502  0.00000000000E+00 -0.00000000000E+00 -0.14138055204E+04  0.14138055204E+04  0.00000000000E+00 0.  1.
         25    2    1    2    0    0  0.23570649533E+02  0.41590100184E+02 -0.40001166487E+02  0.13969304069E+03  0.12501496048E+03 0.  0.
    9000005    1    3    3    0    0 -0.16792600222E+02  0.54800548412E+02  0.24596338232E+02  0.62378452874E+02  0.10000000000E+01 0.  0.
    9000005    1    3    3    0    0  0.40363249755E+02 -0.13210448228E+02 -0.64597504718E+02  0.77314587815E+02  0.10000000000E+01 0.  0.
          4    1    1    2  501    0 -0.23570649533E+02 -0.41590100184E+02 -0.13235346046E+04  0.13243982688E+04  0.12700000000E+01 0.  1.
<mgrwt>
<rscale>  1 0.13384339E+03</rscale>
<asrwt>0</asrwt>
<pdfrwt beam="2">  1       21 0.21750851E+00 0.13384339E+03</pdfrwt>
<pdfrwt beam="1">  1        4 0.77350866E-02 0.13384339E+03</pdfrwt>
<totfact> 0.52244006E+02</totfact>
</mgrwt>
</event>
<event>
 6    4  0.6195789E-003  0.2448598E+03  0.7818608E-02  0.1116597E+00
         -4   -1    0    0    0  501 -0.00000000000E+00  0.00000000000E+00  0.11135458430E+03  0.11136182624E+03  0.12700000000E+01 0. -1.
         21   -1    0    0  501  502  0.00000000000E+00 -0.00000000000E+00 -0.67542657400E+03  0.67542657400E+03  0.00000000000E+00 0.  1.
         25    2    1    2    0    0  0.15600627428E+03  0.14139710957E+03 -0.77854083098E+02  0.25693883120E+03  0.12500081805E+03 0.  0.
    9000005    1    3    3    0    0  0.14655109840E+03  0.14062566721E+03 -0.10465753344E+03  0.22848851618E+03  0.10000000000E+01 0.  0.
    9000005    1    3    3    0    0  0.94551758790E+01  0.77144236226E+00  0.26803450345E+02  0.28450315018E+02  0.10000000000E+01 0.  0.
         -4    1    1    2    0  502 -0.15600627428E+03 -0.14139710957E+03 -0.48621790661E+03  0.52984956904E+03  0.12700000000E+01 0.  1.
<mgrwt>
<rscale>  1 0.24485977E+03</rscale>
<asrwt>0</asrwt>
<pdfrwt beam="2">  1       21 0.10391178E+00 0.24485977E+03</pdfrwt>
<pdfrwt beam="1">  1       -4 0.17132124E-01 0.24485977E+03</pdfrwt>
<totfact> 0.93484849E+02</totfact>
</mgrwt>
</event>
<event>
 6    4  0.6195789E-003  0.1268349E+03  0.7818608E-02  0.1232229E+00
         21   -1    0    0  501  502  0.00000000000E+00  0.00000000000E+00  0.16336504333E+03  0.16336504333E+03  0.00000000000E+00 0. -1.
          4   -1    0    0  502    0 -0.00000000000E+00 -0.00000000000E+00 -0.51852655711E+02  0.51868206102E+02  0.12700000000E+01 0. -1.
         25    2    1    2    0    0 -0.21053626458E+02  0.47232470225E+01  0.29230168332E+02  0.13015951224E+03  0.12498612577E+03 0.  0.
    9000005    1    3    3    0    0 -0.43597432030E+02  0.55879835735E+02  0.17963726060E+02  0.73123098781E+02  0.10000000000E+01 0.  0.
    9000005    1    3    3    0    0  0.22543805572E+02 -0.51156588713E+02  0.11266442272E+02  0.57036413456E+02  0.10000000000E+01 0.  0.
          4    1    1    2  501    0  0.21053626458E+02 -0.47232470225E+01  0.82282219284E+02  0.85073737192E+02  0.12700000000E+01 0.  1.
<mgrwt>
<rscale>  1 0.12683492E+03</rscale>
<asrwt>0</asrwt>
<pdfrwt beam="1">  1       21 0.25133083E-01 0.12683492E+03</pdfrwt>
<pdfrwt beam="2">  1        4 0.79789076E-02 0.12683492E+03</pdfrwt>
<totfact> 0.66818419E+04</totfact>
</mgrwt>
</event>
<event>
 6    4  0.6195789E-003  0.1446871E+03  0.7818608E-02  0.1207158E+00
         21   -1    0    0  501  502  0.00000000000E+00  0.00000000000E+00  0.27859411303E+03  0.27859411303E+03  0.00000000000E+00 0.  1.
         -4   -1    0    0    0  501 -0.00000000000E+00 -0.00000000000E+00 -0.45236343182E+02  0.45254167150E+02  0.12700000000E+01 0. -1.
         25    2    1    2    0    0 -0.18757665130E+01 -0.72813636508E+02  0.11480209151E+03  0.18469941771E+03  0.12501604107E+03 0.  0.
    9000005    1    3    3    0    0 -0.31593563435E+02 -0.44333091110E+02  0.12989620174E+03  0.14084601323E+03  0.10000000000E+01 0.  0.
    9000005    1    3    3    0    0  0.29717796922E+02 -0.28480545399E+02 -0.15094110230E+02  0.43853404471E+02  0.10000000000E+01 0.  0.
         -4    1    1    2    0  502  0.18757665130E+01  0.72813636508E+02  0.11855567834E+03  0.13914886248E+03  0.12700000000E+01 0.  1.
<mgrwt>
<rscale>  1 0.14468709E+03</rscale>
<asrwt>0</asrwt>
<pdfrwt beam="1">  1       21 0.42860632E-01 0.14468709E+03</pdfrwt>
<pdfrwt beam="2">  1       -4 0.69610314E-02 0.14468709E+03</pdfrwt>
<totfact> 0.29922711E+04</totfact>
</mgrwt>
</event>
<event>
 6    4  0.6195789E-003  0.1352209E+03  0.7818608E-02  0.1219908E+00
         21   -1    0    0  501  502  0.00000000000E+00  0.00000000000E+00  0.10113040333E+03  0.10113040333E+03  0.00000000000E+00 0. -1.
          4   -1    0    0  502    0 -0.00000000000E+00 -0.00000000000E+00 -0.13025571234E+03  0.13026190348E+03  0.12700000000E+01 0.  1.
         25    2    1    2    0    0  0.22883942355E+02 -0.46236335177E+02 -0.81485960923E+02  0.15787547692E+03  0.12499292331E+03 0.  0.
    9000005    1    3    3    0    0  0.80114346320E+01 -0.53732031379E+02 -0.11121846586E+03  0.12378150682E+03  0.10000000000E+01 0.  0.
    9000005    1    3    3    0    0  0.14872507723E+02  0.74956962015E+01  0.29732504942E+02  0.34093970106E+02  0.10000000000E+01 0.  0.
          4    1    1    2  501    0 -0.22883942355E+02  0.46236335177E+02  0.52360651908E+02  0.73516829886E+02  0.12700000000E+01 0. -1.
<mgrwt>
<rscale>  1 0.13522095E+03</rscale>
<asrwt>0</asrwt>
<pdfrwt beam="1">  1       21 0.15558524E-01 0.13522095E+03</pdfrwt>
<pdfrwt beam="2">  1        4 0.20040430E-01 0.13522095E+03</pdfrwt>
<totfact> 0.33504369E+04</totfact>
</mgrwt>
</event>
<event>
 6    4  0.6195789E-003  0.1326749E+03  0.7818608E-02  0.1223540E+00
          4   -1    0    0  502    0 -0.00000000000E+00  0.00000000000E+00  0.14642302302E+04  0.14642307810E+04  0.12700000000E+01 0. -1.
         21   -1    0    0  501  502  0.00000000000E+00 -0.00000000000E+00 -0.54758178999E+01  0.54758178999E+01  0.00000000000E+00 0. -1.
         25    2    1    2    0    0 -0.43551539609E+02 -0.93434342520E+01  0.99270962475E+03  0.10015363379E+04  0.12497440004E+03 0.  0.
    9000005    1    3    3    0    0  0.20038814916E+02 -0.49394312500E+02  0.54055387236E+03  0.54317662057E+03  0.10000000000E+01 0.  0.
    9000005    1    3    3    0    0 -0.63590354525E+02  0.40050878248E+02  0.45215575239E+03  0.45835971731E+03  0.10000000000E+01 0.  0.
          4    1    1    2  501    0  0.43551539609E+02  0.93434342520E+01  0.46604478755E+03  0.46817026098E+03  0.12700000000E+01 0.  1.
<mgrwt>
<rscale>  1 0.13267493E+03</rscale>
<asrwt>0</asrwt>
<pdfrwt beam="2">  1       21 0.84243469E-03 0.13267493E+03</pdfrwt>
<pdfrwt beam="1">  1        4 0.22527725E+00 0.13267493E+03</pdfrwt>
<totfact> 0.20455908E+04</totfact>
</mgrwt>
</event>
<event>
 6    4  0.6195789E-003  0.1275510E+03  0.7818608E-02  0.1231136E+00
         21   -1    0    0  501  502  0.00000000000E+00  0.00000000000E+00  0.10521196552E+03  0.10521196552E+03  0.00000000000E+00 0.  1.
         -4   -1    0    0    0  501 -0.00000000000E+00 -0.00000000000E+00 -0.68687082218E+02  0.68698822142E+02  0.12700000000E+01 0.  1.
         25    2    1    2    0    0 -0.22742267784E+02  0.11201575708E+02  0.58509777029E+02  0.14033051824E+03  0.12500629704E+03 0.  0.
    9000005    1    3    3    0    0 -0.10825282610E+02  0.66185129741E+02  0.49464626602E+02  0.83339111030E+02  0.10000000000E+01 0.  0.
    9000005    1    3    3    0    0 -0.11916985174E+02 -0.54983554033E+02  0.90451504280E+01  0.56991407212E+02  0.10000000000E+01 0.  0.
         -4    1    1    2    0  502  0.22742267784E+02 -0.11201575708E+02 -0.21984893726E+02  0.33580269422E+02  0.12700000000E+01 0. -1.
<mgrwt>
<rscale>  1 0.12755101E+03</rscale>
<asrwt>0</asrwt>
<pdfrwt beam="1">  1       21 0.16186456E-01 0.12755101E+03</pdfrwt>
<pdfrwt beam="2">  1       -4 0.10568736E-01 0.12755101E+03</pdfrwt>
<totfact> 0.94342193E+04</totfact>
</mgrwt>
</event>
<event>
 6    4  0.6195789E-003  0.1281630E+03  0.7818608E-02  0.1230207E+00
         -4   -1    0    0    0  501 -0.00000000000E+00  0.00000000000E+00  0.10140647507E+04  0.10140655459E+04  0.12700000000E+01 0.  1.
         21   -1    0    0  501  502  0.00000000000E+00 -0.00000000000E+00 -0.76017630078E+01  0.76017630078E+01  0.00000000000E+00 0.  1.
         25    2    1    2    0    0 -0.27711991297E+02  0.58371497463E+01  0.94875428248E+03  0.95737162998E+03  0.12499489029E+03 0.  0.
    9000005    1    3    3    0    0  0.11670678264E+01 -0.56660306305E+02  0.52623685867E+03  0.52928062857E+03  0.10000000000E+01 0.  0.
    9000005    1    3    3    0    0 -0.28879059123E+02  0.62497456051E+02  0.42251742381E+03  0.42809100141E+03  0.10000000000E+01 0.  0.
         -4    1    1    2    0  502  0.27711991297E+02 -0.58371497463E+01  0.57708705188E+02  0.64295678962E+02  0.12700000000E+01 0. -1.
<mgrwt>
<rscale>  1 0.12816298E+03</rscale>
<asrwt>0</asrwt>
<pdfrwt beam="2">  1       21 0.11695028E-02 0.12816298E+03</pdfrwt>
<pdfrwt beam="1">  1       -4 0.15601808E+00 0.12816298E+03</pdfrwt>
<totfact> 0.33807573E+04</totfact>
</mgrwt>
</event>
<event>
 6    4  0.6195789E-003  0.1276924E+03  0.7818608E-02  0.1230921E+00
         21   -1    0    0  501  502  0.00000000000E+00  0.00000000000E+00  0.13672384596E+02  0.13672384596E+02  0.00000000000E+00 0. -1.
         -4   -1    0    0    0  501 -0.00000000000E+00 -0.00000000000E+00 -0.64142641059E+03  0.64142766786E+03  0.12700000000E+01 0. -1.
         25    2    1    2    0    0 -0.23305846317E+02  0.11682817331E+02 -0.61073371636E+03  0.62393990911E+03  0.12500274874E+03 0.  0.
    9000005    1    3    3    0    0 -0.36184823622E+01 -0.52612783878E+02 -0.37875271226E+03  0.38240791765E+03  0.10000000000E+01 0.  0.
    9000005    1    3    3    0    0 -0.19687363954E+02  0.64295601209E+02 -0.23198100410E+03  0.24153199146E+03  0.10000000000E+01 0.  0.
         -4    1    1    2    0  502  0.23305846317E+02 -0.11682817331E+02 -0.17020309634E+02  0.31160143347E+02  0.12700000000E+01 0.  1.
<mgrwt>
<rscale>  1 0.12769236E+03</rscale>
<asrwt>0</asrwt>
<pdfrwt beam="1">  1       21 0.21034443E-02 0.12769236E+03</pdfrwt>
<pdfrwt beam="2">  1       -4 0.98685595E-01 0.12769236E+03</pdfrwt>
<totfact> 0.40124351E+04</totfact>
</mgrwt>
</event>
<event>
 6    4  0.6195789E-003  0.1317639E+03  0.7818608E-02  0.1224862E+00
         21   -1    0    0  501  502  0.00000000000E+00  0.00000000000E+00  0.35644477723E+02  0.35644477723E+02  0.00000000000E+00 0. -1.
          4   -1    0    0  502    0 -0.00000000000E+00 -0.00000000000E+00 -0.38269755503E+03  0.38269966230E+03  0.12700000000E+01 0.  1.
         25    2    1    2    0    0  0.41388882108E+02 -0.49214002522E+01 -0.35247041951E+03  0.37629392910E+03  0.12499785879E+03 0.  0.
    9000005    1    3    3    0    0  0.16377061551E+02  0.59730572545E+02 -0.18261353904E+03  0.19283322868E+03  0.10000000000E+01 0.  0.
    9000005    1    3    3    0    0  0.25011820557E+02 -0.64651972797E+02 -0.16985688047E+03  0.18346070042E+03  0.10000000000E+01 0.  0.
          4    1    1    2  501    0 -0.41388882108E+02  0.49214002522E+01  0.54173422051E+01  0.42050210929E+02  0.12700000000E+01 0. -1.
<mgrwt>
<rscale>  1 0.13176390E+03</rscale>
<asrwt>0</asrwt>
<pdfrwt beam="1">  1       21 0.54837660E-02 0.13176390E+03</pdfrwt>
<pdfrwt beam="2">  1        4 0.58878447E-01 0.13176390E+03</pdfrwt>
<totfact> 0.25691064E+04</totfact>
</mgrwt>
</event>
<event>
 6    4  0.6195789E-003  0.1270521E+03  0.7818608E-02  0.1231897E+00
          4   -1    0    0  502    0 -0.00000000000E+00  0.00000000000E+00  0.25759873849E+03  0.25760186912E+03  0.12700000000E+01 0.  1.
         21   -1    0    0  501  502  0.00000000000E+00 -0.00000000000E+00 -0.28214307424E+02  0.28214307424E+02  0.00000000000E+00 0. -1.
         25    2    1    2    0    0 -0.20363460695E+02 -0.10157753175E+02  0.23028307390E+03  0.26300672806E+03  0.12499757759E+03 0.  0.
    9000005    1    3    3    0    0 -0.36390031582E+02 -0.59148117203E+02  0.90912413547E+02  0.11440629836E+03  0.10000000000E+01 0.  0.
    9000005    1    3    3    0    0  0.16026570887E+02  0.48990364029E+02  0.13937066035E+03  0.14860042970E+03  0.10000000000E+01 0.  0.
          4    1    1    2  501    0  0.20363460695E+02  0.10157753175E+02 -0.89864282646E+00  0.22809448480E+02  0.12700000000E+01 0. -1.
<mgrwt>
<rscale>  1 0.12705213E+03</rscale>
<asrwt>0</asrwt>
<pdfrwt beam="2">  1       21 0.43406629E-02 0.12705213E+03</pdfrwt>
<pdfrwt beam="1">  1        4 0.39633013E-01 0.12705213E+03</pdfrwt>
<totfact> 0.84352159E+04</totfact>
</mgrwt>
</event>
<event>
 6    4  0.6195789E-003  0.1272924E+03  0.7818608E-02  0.1231530E+00
          4   -1    0    0  502    0 -0.00000000000E+00  0.00000000000E+00  0.59020495722E+03  0.59020632361E+03  0.12700000000E+01 0.  1.
         21   -1    0    0  501  502  0.00000000000E+00 -0.00000000000E+00 -0.12279902647E+02  0.12279902647E+02  0.00000000000E+00 0. -1.
         25    2    1    2    0    0  0.22396284009E+02 -0.87558675708E+01  0.55438539048E+03  0.56881149626E+03  0.12500039340E+03 0.  0.
    9000005    1    3    3    0    0  0.35979798717E+02 -0.60396481998E+02  0.24660543928E+03  0.25643229835E+03  0.10000000000E+01 0.  0.
    9000005    1    3    3    0    0 -0.13583514708E+02  0.51640614427E+02  0.30777995120E+03  0.31237919792E+03  0.10000000000E+01 0.  0.
          4    1    1    2  501    0 -0.22396284009E+02  0.87558675708E+01  0.23539664095E+02  0.33674729992E+02  0.12700000000E+01 0. -1.
<mgrwt>
<rscale>  1 0.12729241E+03</rscale>
<asrwt>0</asrwt>
<pdfrwt beam="2">  1       21 0.18892163E-02 0.12729241E+03</pdfrwt>
<pdfrwt beam="1">  1        4 0.90805897E-01 0.12729241E+03</pdfrwt>
<totfact> 0.57656111E+04</totfact>
</mgrwt>
</event>
<event>
 6    4  0.6195789E-003  0.1274484E+03  0.7818608E-02  0.1231292E+00
         -4   -1    0    0    0  501 -0.00000000000E+00  0.00000000000E+00  0.94603509743E+02  0.94612033885E+02  0.12700000000E+01 0.  1.
         21   -1    0    0  501  502  0.00000000000E+00 -0.00000000000E+00 -0.68471360650E+02  0.68471360650E+02  0.00000000000E+00 0. -1.
         25    2    1    2    0    0 -0.23832166684E+02 -0.70484355336E+01  0.41260207635E+02  0.13396083167E+03  0.12500178829E+03 0.  0.
    9000005    1    3    3    0    0 -0.38553362715E+02 -0.33933351538E+02 -0.27791302748E+02  0.58405398994E+02  0.10000000000E+01 0.  0.
    9000005    1    3    3    0    0  0.14721196030E+02  0.26884916005E+02  0.69051510384E+02  0.75555432680E+02  0.10000000000E+01 0.  0.
         -4    1    1    2    0  502  0.23832166684E+02  0.70484355336E+01 -0.15128058542E+02  0.29122562861E+02  0.12700000000E+01 0. -1.
<mgrwt>
<rscale>  1 0.12744842E+03</rscale>
<asrwt>0</asrwt>
<pdfrwt beam="2">  1       21 0.10534056E-01 0.12744842E+03</pdfrwt>
<pdfrwt beam="1">  1       -4 0.14555948E-01 0.12744842E+03</pdfrwt>
<totfact> 0.11723867E+05</totfact>
</mgrwt>
</event>
<event>
 6    4  0.6195789E-003  0.1271427E+03  0.7818608E-02  0.1231758E+00
         -4   -1    0    0    0  501 -0.00000000000E+00  0.00000000000E+00  0.13544838756E+02  0.13604247753E+02  0.12700000000E+01 0. -1.
         21   -1    0    0  501  502  0.00000000000E+00 -0.00000000000E+00 -0.54655273739E+03  0.54655273739E+03  0.00000000000E+00 0. -1.
         25    2    1    2    0    0 -0.46108373987E+01  0.22802690709E+02 -0.29790223291E+03  0.32389969006E+03  0.12499618523E+03 0.  0.
    9000005    1    3    3    0    0 -0.43708725188E+02  0.54998668212E+02 -0.22024873780E+03  0.23118350431E+03  0.10000000000E+01 0.  0.
    9000005    1    3    3    0    0  0.39097887789E+02 -0.32195977504E+02 -0.77653495108E+02  0.92716185747E+02  0.10000000000E+01 0.  0.
         -4    1    1    2    0  502  0.46108373987E+01 -0.22802690709E+02 -0.23510566572E+03  0.23625729508E+03  0.12700000000E+01 0.  1.
<mgrwt>
<rscale>  1 0.12714271E+03</rscale>
<asrwt>0</asrwt>
<pdfrwt beam="2">  1       21 0.84085046E-01 0.12714271E+03</pdfrwt>
<pdfrwt beam="1">  1       -4 0.20885045E-02 0.12714271E+03</pdfrwt>
<totfact> 0.47490364E+04</totfact>
</mgrwt>
</event>
<event>
 6    4  0.6195789E-003  0.1289454E+03  0.7818608E-02  0.1229029E+00
         -4   -1    0    0    0  501 -0.00000000000E+00  0.00000000000E+00  0.44905854631E+03  0.44906034217E+03  0.12700000000E+01 0.  1.
         21   -1    0    0  501  502  0.00000000000E+00 -0.00000000000E+00 -0.14604165737E+02  0.14604165737E+02  0.00000000000E+00 0.  1.
         25    2    1    2    0    0 -0.29043105943E+02  0.12616269116E+02  0.32284522138E+03  0.34764343411E+03  0.12499699223E+03 0.  0.
    9000005    1    3    3    0    0  0.15155687886E+02  0.15348255738E+02  0.29398409381E+03  0.29477603574E+03  0.10000000000E+01 0.  0.
    9000005    1    3    3    0    0 -0.44198793829E+02 -0.27319866214E+01  0.28861127566E+02  0.52867398378E+02  0.10000000000E+01 0.  0.
         -4    1    1    2    0  502  0.29043105943E+02 -0.12616269116E+02  0.11160915919E+03  0.11602107379E+03  0.12700000000E+01 0. -1.
<mgrwt>
<rscale>  1 0.12894542E+03</rscale>
<asrwt>0</asrwt>
<pdfrwt beam="2">  1       21 0.22467951E-02 0.12894542E+03</pdfrwt>
<pdfrwt beam="1">  1       -4 0.69090305E-01 0.12894542E+03</pdfrwt>
<totfact> 0.79739917E+04</totfact>
</mgrwt>
</event>
<event>
 6    4  0.6195789E-003  0.1267006E+03  0.7818608E-02  0.1232435E+00
         21   -1    0    0  501  502  0.00000000000E+00  0.00000000000E+00  0.35953529810E+02  0.35953529810E+02  0.00000000000E+00 0. -1.
          4   -1    0    0  502    0 -0.00000000000E+00 -0.00000000000E+00 -0.24832302914E+03  0.24832627670E+03  0.12700000000E+01 0.  1.
         25    2    1    2    0    0  0.20287597662E+02 -0.40227926195E+01 -0.22626960180E+03  0.25932794831E+03  0.12500113038E+03 0.  0.
    9000005    1    3    3    0    0  0.67722033882E+02  0.20414967124E+01 -0.76935357203E+02  0.10252068460E+03  0.10000000000E+01 0.  0.
    9000005    1    3    3    0    0 -0.47434436221E+02 -0.60642893319E+01 -0.14933424459E+03  0.15680726371E+03  0.10000000000E+01 0.  0.
          4    1    1    2  501    0 -0.20287597662E+02  0.40227926195E+01  0.13900102466E+02  0.24951858205E+02  0.12700000000E+01 0. -1.
<mgrwt>
<rscale>  1 0.12670064E+03</rscale>
<asrwt>0</asrwt>
<pdfrwt beam="1">  1       21 0.55313123E-02 0.12670064E+03</pdfrwt>
<pdfrwt beam="2">  1        4 0.38205518E-01 0.12670064E+03</pdfrwt>
<totfact> 0.60329928E+04</totfact>
</mgrwt>
</event>
<event>
 6    4  0.6195789E-003  0.1329093E+03  0.7818608E-02  0.1223202E+00
         -4   -1    0    0    0  501 -0.00000000000E+00  0.00000000000E+00  0.11534182457E+03  0.11534881618E+03  0.12700000000E+01 0.  1.
         21   -1    0    0  501  502  0.00000000000E+00 -0.00000000000E+00 -0.69064392476E+02  0.69064392476E+02  0.00000000000E+00 0.  1.
         25    2    1    2    0    0 -0.44622865007E+02  0.69237542485E+01  0.40043124362E+02  0.13881038038E+03  0.12500292572E+03 0.  0.
    9000005    1    3    3    0    0 -0.77184242358E+02  0.11507194135E+02 -0.10249413765E+02  0.78713869602E+02  0.10000000000E+01 0.  0.
    9000005    1    3    3    0    0  0.32561377351E+02 -0.45834398862E+01  0.50292538127E+02  0.60096510776E+02  0.10000000000E+01 0.  0.
         -4    1    1    2    0  502  0.44622865007E+02 -0.69237542485E+01  0.62343077306E+01  0.45602828281E+02  0.12700000000E+01 0. -1.
<mgrwt>
<rscale>  1 0.13290925E+03</rscale>
<asrwt>0</asrwt>
<pdfrwt beam="2">  1       21 0.10625291E-01 0.13290925E+03</pdfrwt>
<pdfrwt beam="1">  1       -4 0.17746332E-01 0.13290925E+03</pdfrwt>
<totfact> 0.82016366E+04</totfact>
</mgrwt>
</event>
<event>
 6    4  0.6195789E-003  0.1302864E+03  0.7818608E-02  0.1227031E+00
          4   -1    0    0  502    0 -0.00000000000E+00  0.00000000000E+00  0.22849119630E+03  0.22849472573E+03  0.12700000000E+01 0. -1.
         21   -1    0    0  501  502  0.00000000000E+00 -0.00000000000E+00 -0.46747923988E+02  0.46747923988E+02  0.00000000000E+00 0. -1.
         25    2    1    2    0    0 -0.24026446951E+02  0.27791048732E+02  0.19638685512E+03  0.23567422847E+03  0.12499973023E+03 0.  0.
    9000005    1    3    3    0    0 -0.13711526880E+01  0.18189111421E+02 -0.14519264762E+02  0.23335228373E+02  0.10000000000E+01 0.  0.
    9000005    1    3    3    0    0 -0.22655294263E+02  0.96019373115E+01  0.21090611988E+03  0.21233900010E+03  0.10000000000E+01 0.  0.
          4    1    1    2  501    0  0.24026446951E+02 -0.27791048732E+02 -0.14643582807E+02  0.39568421249E+02  0.12700000000E+01 0.  1.
<mgrwt>
<rscale>  1 0.13028640E+03</rscale>
<asrwt>0</asrwt>
<pdfrwt beam="2">  1       21 0.71919885E-02 0.13028640E+03</pdfrwt>
<pdfrwt beam="1">  1        4 0.35154089E-01 0.13028640E+03</pdfrwt>
<totfact> 0.45541359E+04</totfact>
</mgrwt>
</event>
<event>
 6    4  0.6195789E-003  0.1311410E+03  0.7818608E-02  0.1225772E+00
         -4   -1    0    0    0  501 -0.00000000000E+00  0.00000000000E+00  0.31508179507E+03  0.31508435455E+03  0.12700000000E+01 0. -1.
         21   -1    0    0  501  502  0.00000000000E+00 -0.00000000000E+00 -0.24485188511E+02  0.24485188511E+02  0.00000000000E+00 0. -1.
         25    2    1    2    0    0  0.35738975960E+02  0.17205416589E+02  0.25267108030E+03  0.28467638133E+03  0.12499866602E+03 0.  0.
    9000005    1    3    3    0    0 -0.44173939587E+02  0.16787839477E+02  0.12942231545E+03  0.13778354121E+03  0.10000000000E+01 0.  0.
    9000005    1    3    3    0    0  0.79912915547E+02  0.41757711179E+00  0.12324876485E+03  0.14689284012E+03  0.10000000000E+01 0.  0.
         -4    1    1    2    0  502 -0.35738975960E+02 -0.17205416589E+02  0.37925526262E+02  0.54893161732E+02  0.12700000000E+01 0.  1.
<mgrwt>
<rscale>  1 0.13114102E+03</rscale>
<asrwt>0</asrwt>
<pdfrwt beam="2">  1       21 0.37669523E-02 0.13114102E+03</pdfrwt>
<pdfrwt beam="1">  1       -4 0.48476850E-01 0.13114102E+03</pdfrwt>
<totfact> 0.71782509E+04</totfact>
</mgrwt>
</event>
<event>
 6    4  0.6195789E-003  0.1271039E+03  0.7818608E-02  0.1231817E+00
          4   -1    0    0  502    0 -0.00000000000E+00  0.00000000000E+00  0.82022131404E+02  0.82031962918E+02  0.12700000000E+01 0. -1.
         21   -1    0    0  501  502  0.00000000000E+00 -0.00000000000E+00 -0.24637720898E+03  0.24637720898E+03  0.00000000000E+00 0.  1.
         25    2    1    2    0    0  0.17857222343E+02 -0.14536232359E+02  0.31704257057E+02  0.13099828558E+03  0.12500083387E+03 0.  0.
    9000005    1    3    3    0    0 -0.32403537557E+02 -0.51940922907E+02  0.30318324184E+02  0.68323125660E+02  0.10000000000E+01 0.  0.
    9000005    1    3    3    0    0  0.50260759900E+02  0.37404690548E+02  0.13859328733E+01  0.62675159917E+02  0.10000000000E+01 0.  0.
          4    1    1    2  501    0 -0.17857222343E+02  0.14536232359E+02 -0.19605933463E+03  0.19741088632E+03  0.12700000000E+01 0.  1.
<mgrwt>
<rscale>  1 0.12710386E+03</rscale>
<asrwt>0</asrwt>
<pdfrwt beam="2">  1       21 0.37904186E-01 0.12710386E+03</pdfrwt>
<pdfrwt beam="1">  1        4 0.12619798E-01 0.12710386E+03</pdfrwt>
<totfact> 0.13947398E+04</totfact>
</mgrwt>
</event>
<event>
 6    4  0.6195789E-003  0.1290603E+03  0.7818608E-02  0.1228857E+00
         21   -1    0    0  501  502  0.00000000000E+00  0.00000000000E+00  0.14993748453E+03  0.14993748453E+03  0.00000000000E+00 0.  1.
         -4   -1    0    0    0  501 -0.00000000000E+00 -0.00000000000E+00 -0.95210679901E+02  0.95219149687E+02  0.12700000000E+01 0. -1.
         25    2    1    2    0    0  0.12279462918E+02 -0.29674057844E+02 -0.47863451718E+02  0.13764985064E+03  0.12500094580E+03 0.  0.
    9000005    1    3    3    0    0 -0.50060001006E+02 -0.39300037270E+02 -0.11035911352E+02  0.64600990469E+02  0.10000000000E+01 0.  0.
    9000005    1    3    3    0    0  0.62339463924E+02  0.96259794266E+01 -0.36827540367E+02  0.73048860167E+02  0.10000000000E+01 0.  0.
         -4    1    1    2    0  502 -0.12279462918E+02  0.29674057844E+02  0.10259025635E+03  0.10750678358E+03  0.12700000000E+01 0.  1.
<mgrwt>
<rscale>  1 0.12906034E+03</rscale>
<asrwt>0</asrwt>
<pdfrwt beam="1">  1       21 0.23067305E-01 0.12906034E+03</pdfrwt>
<pdfrwt beam="2">  1       -4 0.14648862E-01 0.12906034E+03</pdfrwt>
<totfact> 0.28102362E+04</totfact>
</mgrwt>
</event>
<event>
 6    4  0.6195789E-003  0.1274142E+03  0.7818608E-02  0.1231344E+00
         -4   -1    0    0    0  501 -0.00000000000E+00  0.00000000000E+00  0.41913175631E+02  0.41932412183E+02  0.12700000000E+01 0.  1.
         21   -1    0    0  501  502  0.00000000000E+00 -0.00000000000E+00 -0.29783423554E+03  0.29783423554E+03  0.00000000000E+00 0.  1.
         25    2    1    2    0    0  0.10809511919E+02  0.22181991401E+02 -0.57456434258E+02  0.13976988069E+03  0.12500196566E+03 0.  0.
    9000005    1    3    3    0    0 -0.43085726281E+02  0.40676415621E+00 -0.68172664997E+02  0.80653936785E+02  0.10000000000E+01 0.  0.
    9000005    1    3    3    0    0  0.53895238199E+02  0.21775227245E+02  0.10716230738E+02  0.59115943902E+02  0.10000000000E+01 0.  0.
         -4    1    1    2    0  502 -0.10809511919E+02 -0.22181991401E+02 -0.19846462565E+03  0.19999676704E+03  0.12700000000E+01 0. -1.
<mgrwt>
<rscale>  1 0.12741420E+03</rscale>
<asrwt>0</asrwt>
<pdfrwt beam="2">  1       21 0.45820652E-01 0.12741420E+03</pdfrwt>
<pdfrwt beam="1">  1       -4 0.64498689E-02 0.12741420E+03</pdfrwt>
<totfact> 0.29240645E+04</totfact>
</mgrwt>
</event>
<event>
 6    4  0.6195789E-003  0.1276390E+03  0.7818608E-02  0.1231002E+00
         -4   -1    0    0    0  501 -0.00000000000E+00  0.00000000000E+00  0.51449349140E+03  0.51449505886E+03  0.12700000000E+01 0.  1.
         21   -1    0    0  501  502  0.00000000000E+00 -0.00000000000E+00 -0.11882728519E+02  0.11882728519E+02  0.00000000000E+00 0.  1.
         25    2    1    2    0    0  0.10954318879E+02 -0.23369836908E+02  0.45017888564E+03  0.46792386509E+03  0.12500227227E+03 0.  0.
    9000005    1    3    3    0    0  0.15157903218E+02  0.64637755762E+01 -0.22691507945E+00  0.16510418381E+02  0.10000000000E+01 0.  0.
    9000005    1    3    3    0    0 -0.42035843396E+01 -0.29833612484E+02  0.45040580072E+03  0.45141344671E+03  0.10000000000E+01 0.  0.
         -4    1    1    2    0  502 -0.10954318879E+02  0.23369836908E+02  0.52431877243E+02  0.58453922284E+02  0.12700000000E+01 0. -1.
<mgrwt>
<rscale>  1 0.12763900E+03</rscale>
<asrwt>0</asrwt>
<pdfrwt beam="2">  1       21 0.18281125E-02 0.12763900E+03</pdfrwt>
<pdfrwt beam="1">  1       -4 0.79158168E-01 0.12763900E+03</pdfrwt>
<totfact> 0.82604982E+04</totfact>
</mgrwt>
</event>
<event>
 6    4  0.6195789E-003  0.1307420E+03  0.7818608E-02  0.1226359E+00
          4   -1    0    0  502    0 -0.00000000000E+00  0.00000000000E+00  0.56263907513E+02  0.56278239033E+02  0.12700000000E+01 0.  1.
         21   -1    0    0  501  502  0.00000000000E+00 -0.00000000000E+00 -0.32281512930E+03  0.32281512930E+03  0.00000000000E+00 0. -1.
         25    2    1    2    0    0  0.30476006802E+02  0.23217842723E+02 -0.23252942501E+02  0.13279371179E+03  0.12500246135E+03 0.  0.
    9000005    1    3    3    0    0  0.71803395551E+02  0.42305607232E+02 -0.42497348790E+01  0.83453893033E+02  0.10000000000E+01 0.  0.
    9000005    1    3    3    0    0 -0.41327388748E+02 -0.19087764509E+02 -0.19003207622E+02  0.49339818754E+02  0.10000000000E+01 0.  0.
          4    1    1    2  501    0 -0.30476006802E+02 -0.23217842723E+02 -0.24329827928E+03  0.24629965654E+03  0.12700000000E+01 0. -1.
<mgrwt>
<rscale>  1 0.13074200E+03</rscale>
<asrwt>0</asrwt>
<pdfrwt beam="2">  1       21 0.49663867E-01 0.13074200E+03</pdfrwt>
<pdfrwt beam="1">  1        4 0.86572802E-02 0.13074200E+03</pdfrwt>
<totfact> 0.15303497E+04</totfact>
</mgrwt>
</event>
<event>
 6    4  0.6195789E-003  0.1404417E+03  0.7818608E-02  0.1212736E+00
         21   -1    0    0  501  502  0.00000000000E+00  0.00000000000E+00  0.44178579985E+03  0.44178579985E+03  0.00000000000E+00 0.  1.
         -4   -1    0    0    0  501 -0.00000000000E+00 -0.00000000000E+00 -0.34033438873E+02  0.34057126442E+02  0.12700000000E+01 0. -1.
         25    2    1    2    0    0 -0.20487725051E+02  0.60652400480E+02  0.13194464769E+03  0.19269990912E+03  0.12500161743E+03 0.  0.
    9000005    1    3    3    0    0  0.17074605503E+00  0.89867327953E+02  0.12840222901E+03  0.15673001691E+03  0.10000000000E+01 0.  0.
    9000005    1    3    3    0    0 -0.20658471107E+02 -0.29214927472E+02  0.35424186835E+01  0.35969892213E+02  0.10000000000E+01 0.  0.
         -4    1    1    2    0  502  0.20487725051E+02 -0.60652400480E+02  0.27580771329E+03  0.28314301717E+03  0.12700000000E+01 0.  1.
<mgrwt>
<rscale>  1 0.14044168E+03</rscale>
<asrwt>0</asrwt>
<pdfrwt beam="1">  1       21 0.67967042E-01 0.14044168E+03</pdfrwt>
<pdfrwt beam="2">  1       -4 0.52378765E-02 0.14044168E+03</pdfrwt>
<totfact> 0.18045920E+04</totfact>
</mgrwt>
</event>
<event>
 6    4  0.6195789E-003  0.1267037E+03  0.7818608E-02  0.1232431E+00
         21   -1    0    0  501  502  0.00000000000E+00  0.00000000000E+00  0.12666390835E+03  0.12666390835E+03  0.00000000000E+00 0.  1.
          4   -1    0    0  502    0 -0.00000000000E+00 -0.00000000000E+00 -0.47708029318E+02  0.47724930188E+02  0.12700000000E+01 0.  1.
         25    2    1    2    0    0 -0.13994914113E+02  0.15235931749E+02  0.44713186319E+02  0.13436177093E+03  0.12500330083E+03 0.  0.
    9000005    1    3    3    0    0  0.56594341541E+00  0.42086524284E+02  0.78331132382E+02  0.88928972324E+02  0.10000000000E+01 0.  0.
    9000005    1    3    3    0    0 -0.14560857528E+02 -0.26850592535E+02 -0.33617946063E+02  0.45432798603E+02  0.10000000000E+01 0.  0.
          4    1    1    2  501    0  0.13994914113E+02 -0.15235931749E+02  0.34242692710E+02  0.40027067608E+02  0.12700000000E+01 0. -1.
<mgrwt>
<rscale>  1 0.12670366E+03</rscale>
<asrwt>0</asrwt>
<pdfrwt beam="1">  1       21 0.19486755E-01 0.12670366E+03</pdfrwt>
<pdfrwt beam="2">  1        4 0.73414867E-02 0.12670366E+03</pdfrwt>
<totfact> 0.12322494E+05</totfact>
</mgrwt>
</event>
<event>
 6    4  0.6195789E-003  0.1268853E+03  0.7818608E-02  0.1232152E+00
          4   -1    0    0  502    0 -0.00000000000E+00  0.00000000000E+00  0.14736192580E+04  0.14736198053E+04  0.12700000000E+01 0. -1.
         21   -1    0    0  501  502  0.00000000000E+00 -0.00000000000E+00 -0.42548626731E+01  0.42548626731E+01  0.00000000000E+00 0. -1.
         25    2    1    2    0    0 -0.15995396712E+02  0.14804682828E+02  0.10021906383E+04  0.10101910532E+04  0.12499942834E+03 0.  0.
    9000005    1    3    3    0    0 -0.22691098421E+02 -0.50885509281E+02  0.32040875317E+03  0.32521837295E+03  0.10000000000E+01 0.  0.
    9000005    1    3    3    0    0  0.66957017086E+01  0.65690192109E+02  0.68178188517E+03  0.68497268027E+03  0.10000000000E+01 0.  0.
          4    1    1    2  501    0  0.15995396712E+02 -0.14804682828E+02  0.46717375701E+03  0.46768361473E+03  0.12700000000E+01 0.  1.
<mgrwt>
<rscale>  1 0.12688534E+03</rscale>
<asrwt>0</asrwt>
<pdfrwt beam="2">  1       21 0.65459544E-03 0.12688534E+03</pdfrwt>
<pdfrwt beam="1">  1        4 0.22672487E+00 0.12688534E+03</pdfrwt>
<totfact> 0.29618366E+04</totfact>
</mgrwt>
</event>
<event>
 6    4  0.6195789E-003  0.1268137E+03  0.7818608E-02  0.1232262E+00
         -4   -1    0    0    0  501 -0.00000000000E+00  0.00000000000E+00  0.51804099948E+03  0.51804255621E+03  0.12700000000E+01 0.  1.
         21   -1    0    0  501  502  0.00000000000E+00 -0.00000000000E+00 -0.27227526868E+02  0.27227526868E+02  0.00000000000E+00 0. -1.
         25    2    1    2    0    0 -0.15307275691E+01  0.21315040556E+02  0.50427885866E+03  0.51997969751E+03  0.12500017780E+03 0.  0.
    9000005    1    3    3    0    0  0.64166731441E+01  0.65146323392E+02  0.41571743211E+03  0.42084106323E+03  0.10000000000E+01 0.  0.
    9000005    1    3    3    0    0 -0.79474007132E+01 -0.43831282837E+02  0.88561426552E+02  0.99138634277E+02  0.10000000000E+01 0.  0.
         -4    1    1    2    0  502  0.15307275691E+01 -0.21315040556E+02 -0.13465386046E+02  0.25290385567E+02  0.12700000000E+01 0. -1.
<mgrwt>
<rscale>  1 0.12681372E+03</rscale>
<asrwt>0</asrwt>
<pdfrwt beam="2">  1       21 0.41888507E-02 0.12681372E+03</pdfrwt>
<pdfrwt beam="1">  1       -4 0.79701006E-01 0.12681372E+03</pdfrwt>
<totfact> 0.20965536E+04</totfact>
</mgrwt>
</event>
<event>
 6    4  0.6195789E-003  0.1289036E+03  0.7818608E-02  0.1229092E+00
         -4   -1    0    0    0  501 -0.00000000000E+00  0.00000000000E+00  0.16156559111E+03  0.16157058251E+03  0.12700000000E+01 0.  1.
         21   -1    0    0  501  502  0.00000000000E+00 -0.00000000000E+00 -0.40612636999E+02  0.40612636999E+02  0.00000000000E+00 0.  1.
         25    2    1    2    0    0  0.92508633368E+01  0.30072761723E+02  0.85077426718E+02  0.15444837022E+03  0.12500472414E+03 0.  0.
    9000005    1    3    3    0    0 -0.19393800296E+02  0.10361241182E+02  0.10966375417E+03  0.11185085510E+03  0.10000000000E+01 0.  0.
    9000005    1    3    3    0    0  0.28644663633E+02  0.19711520541E+02 -0.24586327453E+02  0.42597515119E+02  0.10000000000E+01 0.  0.
         -4    1    1    2    0  502 -0.92508633368E+01 -0.30072761723E+02  0.35875527395E+02  0.47734849282E+02  0.12700000000E+01 0. -1.
<mgrwt>
<rscale>  1 0.12890357E+03</rscale>
<asrwt>0</asrwt>
<pdfrwt beam="2">  1       21 0.62480981E-02 0.12890357E+03</pdfrwt>
<pdfrwt beam="1">  1       -4 0.24858156E-01 0.12890357E+03</pdfrwt>
<totfact> 0.11110714E+05</totfact>
</mgrwt>
</event>
<event>
 6    4  0.6195789E-003  0.1296452E+03  0.7818608E-02  0.1227983E+00
          4   -1    0    0  502    0 -0.00000000000E+00  0.00000000000E+00  0.27024702077E+02  0.27054526837E+02  0.12700000000E+01 0. -1.
         21   -1    0    0  501  502  0.00000000000E+00 -0.00000000000E+00 -0.33427551820E+03  0.33427551820E+03  0.00000000000E+00 0.  1.
         25    2    1    2    0    0 -0.59306702669E+01 -0.33869503759E+02 -0.14094858896E+03  0.19150554800E+03  0.12500221618E+03 0.  0.
    9000005    1    3    3    0    0  0.16808946213E+01 -0.10707421000E+02  0.23161345634E+02  0.25591447845E+02  0.10000000000E+01 0.  0.
    9000005    1    3    3    0    0 -0.76115648882E+01 -0.23162082758E+02 -0.16410993459E+03  0.16591410015E+03  0.10000000000E+01 0.  0.
          4    1    1    2  501    0  0.59306702669E+01  0.33869503759E+02 -0.16630222717E+03  0.16982449704E+03  0.12700000000E+01 0.  1.
<mgrwt>
<rscale>  1 0.12964517E+03</rscale>
<asrwt>0</asrwt>
<pdfrwt beam="2">  1       21 0.51427003E-01 0.12964517E+03</pdfrwt>
<pdfrwt beam="1">  1        4 0.41601263E-02 0.12964517E+03</pdfrwt>
<totfact> 0.46809535E+04</totfact>
</mgrwt>
</event>
<event>
 6    4  0.6195789E-003  0.1271320E+03  0.7818608E-02  0.1231774E+00
         -4   -1    0    0    0  501 -0.00000000000E+00  0.00000000000E+00  0.35108521463E+03  0.35108751164E+03  0.12700000000E+01 0. -1.
         21   -1    0    0  501  502  0.00000000000E+00 -0.00000000000E+00 -0.16186460278E+02  0.16186460278E+02  0.00000000000E+00 0.  1.
         25    2    1    2    0    0  0.20400877622E+01  0.23084993308E+02  0.27245874724E+03  0.30065981230E+03  0.12500189963E+03 0.  0.
    9000005    1    3    3    0    0 -0.29902512650E+02  0.54205213341E+02  0.23306268800E+03  0.24114639113E+03  0.10000000000E+01 0.  0.
    9000005    1    3    3    0    0  0.31942600412E+02 -0.31120220033E+02  0.39396059244E+02  0.59513421175E+02  0.10000000000E+01 0.  0.
         -4    1    1    2    0  502 -0.20400877622E+01 -0.23084993308E+02  0.62440007109E+02  0.66614159620E+02  0.12700000000E+01 0.  1.
<mgrwt>
<rscale>  1 0.12713203E+03</rscale>
<asrwt>0</asrwt>
<pdfrwt beam="2">  1       21 0.24902249E-02 0.12713203E+03</pdfrwt>
<pdfrwt beam="1">  1       -4 0.54017113E-01 0.12713203E+03</pdfrwt>
<totfact> 0.11301020E+05</totfact>
</mgrwt>
</event>
<event>
 6    4  0.6195789E-003  0.1304318E+03  0.7818608E-02  0.1226816E+00
         21   -1    0    0  501  502  0.00000000000E+00  0.00000000000E+00  0.52686050950E+02  0.52686050950E+02  0.00000000000E+00 0.  1.
         -4   -1    0    0    0  501 -0.00000000000E+00 -0.00000000000E+00 -0.13344474472E+03  0.13345078791E+03  0.12700000000E+01 0.  1.
         25    2    1    2    0    0 -0.24042633580E+02  0.28447940625E+02 -0.63381630242E+02  0.14501617748E+03  0.12500050850E+03 0.  0.
    9000005    1    3    3    0    0 -0.70097269175E+02  0.11317409540E+00 -0.13397677776E+02  0.71373228342E+02  0.10000000000E+01 0.  0.
    9000005    1    3    3    0    0  0.46054635594E+02  0.28334766529E+02 -0.49983952466E+02  0.73642949140E+02  0.10000000000E+01 0.  0.
         -4    1    1    2    0  502  0.24042633580E+02 -0.28447940625E+02 -0.17377063531E+02  0.41120661379E+02  0.12700000000E+01 0. -1.
<mgrwt>
<rscale>  1 0.13043182E+03</rscale>
<asrwt>0</asrwt>
<pdfrwt beam="1">  1       21 0.81055464E-02 0.13043182E+03</pdfrwt>
<pdfrwt beam="2">  1       -4 0.20531603E-01 0.13043182E+03</pdfrwt>
<totfact> 0.10098450E+05</totfact>
</mgrwt>
</event>
<event>
 6    4  0.6195789E-003  0.1426258E+03  0.7818608E-02  0.1209839E+00
         21   -1    0    0  501  502  0.00000000000E+00  0.00000000000E+00  0.21484217569E+03  0.21484217569E+03  0.00000000000E+00 0.  1.
         -4   -1    0    0    0  501 -0.00000000000E+00 -0.00000000000E+00 -0.56514230264E+02  0.56528498320E+02  0.12700000000E+01 0. -1.
         25    2    1    2    0    0 -0.66874281015E+02 -0.15538218875E+02  0.68277800583E+02  0.15812648125E+03  0.12501408046E+03 0.  0.
    9000005    1    3    3    0    0 -0.50848546258E+02 -0.31820800009E+02  0.10143495432E+03  0.11784815623E+03  0.10000000000E+01 0.  0.
    9000005    1    3    3    0    0 -0.16025734757E+02  0.16282581134E+02 -0.33157153734E+02  0.40278325022E+02  0.10000000000E+01 0.  0.
         -4    1    1    2    0  502  0.66874281015E+02  0.15538218875E+02  0.90050144848E+02  0.11324419276E+03  0.12700000000E+01 0.  1.
<mgrwt>
<rscale>  1 0.14262583E+03</rscale>
<asrwt>0</asrwt>
<pdfrwt beam="1">  1       21 0.33052642E-01 0.14262583E+03</pdfrwt>
<pdfrwt beam="2">  1       -4 0.86958834E-02 0.14262583E+03</pdfrwt>
<totfact> 0.34663123E+04</totfact>
</mgrwt>
</event>
<event>
 6    4  0.6195789E-003  0.1522789E+03  0.7818608E-02  0.1197700E+00
         21   -1    0    0  501  502  0.00000000000E+00  0.00000000000E+00  0.23314070012E+04  0.23314070012E+04  0.00000000000E+00 0.  1.
          4   -1    0    0  502    0 -0.00000000000E+00 -0.00000000000E+00 -0.22241924489E+02  0.22278153087E+02  0.12700000000E+01 0. -1.
         25    2    1    2    0    0  0.63944779106E+02  0.58951307458E+02  0.25029547855E+03  0.29297900674E+03  0.12499872151E+03 0.  0.
    9000005    1    3    3    0    0  0.83059698460E+02  0.41174211308E+01  0.90278166512E+02  0.12274776582E+03  0.10000000000E+01 0.  0.
    9000005    1    3    3    0    0 -0.19114919355E+02  0.54833886328E+02  0.16001731204E+03  0.17023124092E+03  0.10000000000E+01 0.  0.
          4    1    1    2  501    0 -0.63944779106E+02 -0.58951307458E+02  0.20588695982E+04  0.20607061476E+04  0.12700000000E+01 0.  1.
<mgrwt>
<rscale>  1 0.15227893E+03</rscale>
<asrwt>0</asrwt>
<pdfrwt beam="1">  1       21 0.35867781E+00 0.15227893E+03</pdfrwt>
<pdfrwt beam="2">  1        4 0.34246498E-02 0.15227893E+03</pdfrwt>
<totfact> 0.29625331E+02</totfact>
</mgrwt>
</event>
<event>
 6    4  0.6195789E-003  0.1270436E+03  0.7818608E-02  0.1231910E+00
         -4   -1    0    0    0  501 -0.00000000000E+00  0.00000000000E+00  0.14292572053E+02  0.14348885528E+02  0.12700000000E+01 0.  1.
         21   -1    0    0  501  502  0.00000000000E+00 -0.00000000000E+00 -0.40613544830E+03  0.40613544830E+03  0.00000000000E+00 0.  1.
         25    2    1    2    0    0  0.50050574008E+01 -0.22085223941E+02 -0.29821598443E+03  0.32414942070E+03  0.12500906309E+03 0.  0.
    9000005    1    3    3    0    0 -0.39890539216E+02 -0.43537856738E+02 -0.24185168458E+03  0.24895790291E+03  0.10000000000E+01 0.  0.
    9000005    1    3    3    0    0  0.44895596617E+02  0.21452632797E+02 -0.56364299848E+02  0.75191517785E+02  0.10000000000E+01 0.  0.
         -4    1    1    2    0  502 -0.50050574008E+01  0.22085223941E+02 -0.93626891824E+02  0.96334913135E+02  0.12700000000E+01 0. -1.
<mgrwt>
<rscale>  1 0.12704359E+03</rscale>
<asrwt>0</asrwt>
<pdfrwt beam="2">  1       21 0.62482369E-01 0.12704359E+03</pdfrwt>
<pdfrwt beam="1">  1       -4 0.22033420E-02 0.12704359E+03</pdfrwt>
<totfact> 0.83876229E+04</totfact>
</mgrwt>
</event>
<event>
 6    4  0.6195789E-003  0.1301253E+03  0.7818608E-02  0.1227270E+00
         21   -1    0    0  501  502  0.00000000000E+00  0.00000000000E+00  0.36579671597E+03  0.36579671597E+03  0.00000000000E+00 0.  1.
         -4   -1    0    0    0  501 -0.00000000000E+00 -0.00000000000E+00 -0.22276045682E+02  0.22312218878E+02  0.12700000000E+01 0.  1.
         25    2    1    2    0    0  0.17884503453E+02 -0.31427607544E+02  0.18936833440E+03  0.22976719828E+03  0.12500019741E+03 0.  0.
    9000005    1    3    3    0    0 -0.43266794836E+02 -0.17487419966E+02  0.23143491183E+02  0.52100351021E+02  0.10000000000E+01 0.  0.
    9000005    1    3    3    0    0  0.61151298289E+02 -0.13940187578E+02  0.16622484321E+03  0.17766684725E+03  0.10000000000E+01 0.  0.
         -4    1    1    2    0  502 -0.17884503453E+02  0.31427607544E+02  0.15415233589E+03  0.15834173657E+03  0.12700000000E+01 0. -1.
<mgrwt>
<rscale>  1 0.13012532E+03</rscale>
<asrwt>0</asrwt>
<pdfrwt beam="1">  1       21 0.56276413E-01 0.13012532E+03</pdfrwt>
<pdfrwt beam="2">  1       -4 0.34300364E-02 0.13012532E+03</pdfrwt>
<totfact> 0.52658087E+04</totfact>
</mgrwt>
</event>
<event>
 6    4  0.6195789E-003  0.1274787E+03  0.7818608E-02  0.1231246E+00
         -4   -1    0    0    0  501 -0.00000000000E+00  0.00000000000E+00  0.17221698386E+02  0.17268462447E+02  0.12700000000E+01 0. -1.
         21   -1    0    0  501  502  0.00000000000E+00 -0.00000000000E+00 -0.37769088155E+03  0.37769088155E+03  0.00000000000E+00 0. -1.
         25    2    1    2    0    0  0.18961711290E+02  0.16319469706E+02 -0.23836535950E+03  0.27031253000E+03  0.12499979071E+03 0.  0.
    9000005    1    3    3    0    0 -0.41564990676E+02 -0.23791096483E+02 -0.54130131716E+02  0.72282334504E+02  0.10000000000E+01 0.  0.
    9000005    1    3    3    0    0  0.60526701966E+02  0.40110566189E+02 -0.18423522778E+03  0.19803019549E+03  0.10000000000E+01 0.  0.
         -4    1    1    2    0  502 -0.18961711290E+02 -0.16319469706E+02 -0.12210382366E+03  0.12464681400E+03  0.12700000000E+01 0.  1.
<mgrwt>
<rscale>  1 0.12747870E+03</rscale>
<asrwt>0</asrwt>
<pdfrwt beam="2">  1       21 0.58106280E-01 0.12747870E+03</pdfrwt>
<pdfrwt beam="1">  1       -4 0.26532540E-02 0.12747870E+03</pdfrwt>
<totfact> 0.73406607E+04</totfact>
</mgrwt>
</event>
<event>
 6    4  0.6195789E-003  0.1469003E+03  0.7818608E-02  0.1204334E+00
         21   -1    0    0  501  502  0.00000000000E+00  0.00000000000E+00  0.99973614572E+02  0.99973614572E+02  0.00000000000E+00 0.  1.
          4   -1    0    0  502    0 -0.00000000000E+00 -0.00000000000E+00 -0.22658562283E+03  0.22658918194E+03  0.12700000000E+01 0. -1.
         25    2    1    2    0    0  0.73590553852E+02  0.23214757612E+02 -0.18028634820E+03  0.23255725277E+03  0.12500085553E+03 0.  0.
    9000005    1    3    3    0    0  0.10631433960E+03  0.20866842692E+02 -0.10709695279E+03  0.15234474466E+03  0.10000000000E+01 0.  0.
    9000005    1    3    3    0    0 -0.32723785747E+02  0.23479149199E+01 -0.73189395403E+02  0.80212508112E+02  0.10000000000E+01 0.  0.
          4    1    1    2  501    0 -0.73590553852E+02 -0.23214757612E+02  0.53674339935E+02  0.94005543744E+02  0.12700000000E+01 0.  1.
<mgrwt>
<rscale>  1 0.14690034E+03</rscale>
<asrwt>0</asrwt>
<pdfrwt beam="1">  1       21 0.15380556E-01 0.14690034E+03</pdfrwt>
<pdfrwt beam="2">  1        4 0.34860221E-01 0.14690034E+03</pdfrwt>
<totfact> 0.12299607E+04</totfact>
</mgrwt>
</event>
<event>
 6    4  0.6195789E-003  0.1453773E+03  0.7818608E-02  0.1206271E+00
         21   -1    0    0  501  502  0.00000000000E+00  0.00000000000E+00  0.58958458238E+02  0.58958458238E+02  0.00000000000E+00 0.  1.
         -4   -1    0    0    0  501 -0.00000000000E+00 -0.00000000000E+00 -0.28739556508E+03  0.28739837112E+03  0.12700000000E+01 0. -1.
         25    2    1    2    0    0 -0.74209130783E+02  0.16961501865E+01 -0.23000933136E+03  0.27210080734E+03  0.12499873929E+03 0.  0.
    9000005    1    3    3    0    0  0.15330945995E+02  0.37454940372E+02 -0.11557481990E+03  0.12245999125E+03  0.10000000000E+01 0.  0.
    9000005    1    3    3    0    0 -0.89540076778E+02 -0.35758790186E+02 -0.11443451146E+03  0.14964081609E+03  0.10000000000E+01 0.  0.
         -4    1    1    2    0  502  0.74209130783E+02 -0.16961501865E+01  0.15722245216E+01  0.74256022025E+02  0.12700000000E+01 0.  1.
<mgrwt>
<rscale>  1 0.14537729E+03</rscale>
<asrwt>0</asrwt>
<pdfrwt beam="1">  1       21 0.90705322E-02 0.14537729E+03</pdfrwt>
<pdfrwt beam="2">  1       -4 0.44215970E-01 0.14537729E+03</pdfrwt>
<totfact> 0.19672920E+04</totfact>
</mgrwt>
</event>
<event>
 6    4  0.6195789E-003  0.1287400E+03  0.7818608E-02  0.1229337E+00
         -4   -1    0    0    0  501 -0.00000000000E+00  0.00000000000E+00  0.11233511744E+02  0.11305073468E+02  0.12700000000E+01 0.  1.
         21   -1    0    0  501  502  0.00000000000E+00 -0.00000000000E+00 -0.10361519895E+04  0.10361519895E+04  0.00000000000E+00 0. -1.
         25    2    1    2    0    0 -0.86673401309E+01  0.29568023192E+02 -0.36898516918E+03  0.39079923047E+03  0.12499837071E+03 0.  0.
    9000005    1    3    3    0    0 -0.21231950326E+02  0.63973549341E+02 -0.10840870908E+03  0.12765915139E+03  0.10000000000E+01 0.  0.
    9000005    1    3    3    0    0  0.12564610195E+02 -0.34405526149E+02 -0.26057646010E+03  0.26314007908E+03  0.10000000000E+01 0.  0.
         -4    1    1    2    0  502  0.86673401309E+01 -0.29568023192E+02 -0.65593330853E+03  0.65665783245E+03  0.12700000000E+01 0. -1.
<mgrwt>
<rscale>  1 0.12873998E+03</rscale>
<asrwt>0</asrwt>
<pdfrwt beam="2">  1       21 0.15940807E+00 0.12873998E+03</pdfrwt>
<pdfrwt beam="1">  1       -4 0.17337964E-02 0.12873998E+03</pdfrwt>
<totfact> 0.13391053E+04</totfact>
</mgrwt>
</event>
<event>
 6    4  0.6195789E-003  0.1373846E+03  0.7818608E-02  0.1216892E+00
         21   -1    0    0  501  502  0.00000000000E+00  0.00000000000E+00  0.10221405328E+03  0.10221405328E+03  0.00000000000E+00 0.  1.
          4   -1    0    0  502    0 -0.00000000000E+00 -0.00000000000E+00 -0.17186425765E+03  0.17186894996E+03  0.12700000000E+01 0. -1.
         25    2    1    2    0    0 -0.56920289439E+02 -0.30763161751E+01 -0.13134995740E+03  0.19007195935E+03  0.12500062140E+03 0.  0.
    9000005    1    3    3    0    0 -0.81420844824E+02 -0.62173980114E+01 -0.32028616422E+02  0.87720250113E+02  0.10000000000E+01 0.  0.
    9000005    1    3    3    0    0  0.24500555385E+02  0.31410818362E+01 -0.99321340981E+02  0.10235170924E+03  0.10000000000E+01 0.  0.
          4    1    1    2  501    0  0.56920289439E+02  0.30763161751E+01  0.61699753025E+02  0.84011043883E+02  0.12700000000E+01 0.  1.
<mgrwt>
<rscale>  1 0.13738464E+03</rscale>
<asrwt>0</asrwt>
<pdfrwt beam="1">  1       21 0.15725239E-01 0.13738464E+03</pdfrwt>
<pdfrwt beam="2">  1        4 0.26441623E-01 0.13738464E+03</pdfrwt>
<totfact> 0.19828595E+04</totfact>
</mgrwt>
</event>
<event>
 6    4  0.6195789E-003  0.1272784E+03  0.7818608E-02  0.1231551E+00
         21   -1    0    0  501  502  0.00000000000E+00  0.00000000000E+00  0.13578662901E+02  0.13578662901E+02  0.00000000000E+00 0. -1.
         -4   -1    0    0    0  501 -0.00000000000E+00 -0.00000000000E+00 -0.91558389750E+03  0.91558477830E+03  0.12700000000E+01 0.  1.
         25    2    1    2    0    0 -0.13669934872E+02  0.19688498625E+02 -0.89521681279E+03  0.90421951072E+03  0.12500111024E+03 0.  0.
    9000005    1    3    3    0    0 -0.67451948349E+02  0.50756327490E+01 -0.37781212227E+03  0.38382095711E+03  0.10000000000E+01 0.  0.
    9000005    1    3    3    0    0  0.53782013477E+02  0.14612865875E+02 -0.51740469052E+03  0.52039855360E+03  0.10000000000E+01 0.  0.
         -4    1    1    2    0  502  0.13669934872E+02 -0.19688498625E+02 -0.67884218086E+01  0.24943930487E+02  0.12700000000E+01 0. -1.
<mgrwt>
<rscale>  1 0.12727836E+03</rscale>
<asrwt>0</asrwt>
<pdfrwt beam="1">  1       21 0.20890241E-02 0.12727836E+03</pdfrwt>
<pdfrwt beam="2">  1       -4 0.14086376E+00 0.12727836E+03</pdfrwt>
<totfact> 0.17308523E+04</totfact>
</mgrwt>
</event>
<event>
 6    4  0.6195789E-003  0.1289580E+03  0.7818608E-02  0.1229010E+00
         21   -1    0    0  501  502  0.00000000000E+00  0.00000000000E+00  0.53747885415E+03  0.53747885415E+03  0.00000000000E+00 0.  1.
          4   -1    0    0  502    0 -0.00000000000E+00 -0.00000000000E+00 -0.11976424709E+02  0.12043572925E+02  0.12700000000E+01 0.  1.
         25    2    1    2    0    0 -0.31641530224E+02  0.20523875833E+01  0.42252930799E+03  0.44177051122E+03  0.12499907896E+03 0.  0.
    9000005    1    3    3    0    0  0.13670094889E+02 -0.23047330174E+02  0.35806424840E+03  0.35906692538E+03  0.10000000000E+01 0.  0.
    9000005    1    3    3    0    0 -0.45311625113E+02  0.25099717758E+02  0.64465059596E+02  0.82703585839E+02  0.10000000000E+01 0.  0.
          4    1    1    2  501    0  0.31641530224E+02 -0.20523875833E+01  0.10297312144E+03  0.10775191585E+03  0.12700000000E+01 0. -1.
<mgrwt>
<rscale>  1 0.12895801E+03</rscale>
<asrwt>0</asrwt>
<pdfrwt beam="1">  1       21 0.82689036E-01 0.12895801E+03</pdfrwt>
<pdfrwt beam="2">  1        4 0.18478080E-02 0.12895801E+03</pdfrwt>
<totfact> 0.59617699E+04</totfact>
</mgrwt>
</event>
<event>
 6    4  0.6195789E-003  0.1288507E+03  0.7818608E-02  0.1229171E+00
          4   -1    0    0  502    0 -0.00000000000E+00  0.00000000000E+00  0.40669961384E+03  0.40670159675E+03  0.12700000000E+01 0.  1.
         21   -1    0    0  501  502  0.00000000000E+00 -0.00000000000E+00 -0.20595694382E+02  0.20595694382E+02  0.00000000000E+00 0.  1.
         25    2    1    2    0    0 -0.27726034788E+02 -0.14389526827E+02  0.37067983820E+03  0.39243604230E+03  0.12500685325E+03 0.  0.
    9000005    1    3    3    0    0 -0.35226275689E+02  0.24458363899E+02  0.37688760639E+02  0.57101179865E+02  0.10000000000E+01 0.  0.
    9000005    1    3    3    0    0  0.75002409012E+01 -0.38847890726E+02  0.33299107756E+03  0.33533486243E+03  0.10000000000E+01 0.  0.
          4    1    1    2  501    0  0.27726034788E+02  0.14389526827E+02  0.15424081256E+02  0.34861248829E+02  0.12700000000E+01 0. -1.
<mgrwt>
<rscale>  1 0.12885071E+03</rscale>
<asrwt>0</asrwt>
<pdfrwt beam="2">  1       21 0.31685687E-02 0.12885071E+03</pdfrwt>
<pdfrwt beam="1">  1        4 0.62572330E-01 0.12885071E+03</pdfrwt>
<totfact> 0.56194326E+04</totfact>
</mgrwt>
</event>
<event>
 6    4  0.6195789E-003  0.1282846E+03  0.7818608E-02  0.1230023E+00
          4   -1    0    0  502    0 -0.00000000000E+00  0.00000000000E+00  0.51678699539E+01  0.53216331949E+01  0.12700000000E+01 0. -1.
         21   -1    0    0  501  502  0.00000000000E+00 -0.00000000000E+00 -0.11785626173E+04  0.11785626173E+04  0.00000000000E+00 0. -1.
         25    2    1    2    0    0 -0.24121383267E+02  0.15862160673E+02 -0.94416079536E+03  0.95283605873E+03  0.12499399210E+03 0.  0.
    9000005    1    3    3    0    0 -0.69136836334E+02  0.33793509488E+02 -0.47708866289E+03  0.48325613879E+03  0.10000000000E+01 0.  0.
    9000005    1    3    3    0    0  0.45015453067E+02 -0.17931348815E+02 -0.46707213247E+03  0.46957991994E+03  0.10000000000E+01 0.  0.
          4    1    1    2  501    0  0.24121383267E+02 -0.15862160673E+02 -0.22923395203E+03  0.23104819181E+03  0.12700000000E+01 0.  1.
<mgrwt>
<rscale>  1 0.12828463E+03</rscale>
<asrwt>0</asrwt>
<pdfrwt beam="2">  1       21 0.18131742E+00 0.12828463E+03</pdfrwt>
<pdfrwt beam="1">  1        4 0.80693708E-03 0.12828463E+03</pdfrwt>
<totfact> 0.30031081E+04</totfact>
</mgrwt>
</event>
<event>
 6    4  0.6195789E-003  0.1276601E+03  0.7818608E-02  0.1230970E+00
         21   -1    0    0  501  502  0.00000000000E+00  0.00000000000E+00  0.39329557464E+03  0.39329557464E+03  0.00000000000E+00 0.  1.
          4   -1    0    0  502    0 -0.00000000000E+00 -0.00000000000E+00 -0.15010443014E+02  0.15064073137E+02  0.12700000000E+01 0.  1.
         25    2    1    2    0    0  0.18443752252E+02  0.18210276817E+02  0.32188852817E+03  0.34627924861E+03  0.12500122909E+03 0.  0.
    9000005    1    3    3    0    0  0.69838629737E+02  0.22857090490E+02  0.22193015407E+03  0.23378168037E+03  0.10000000000E+01 0.  0.
    9000005    1    3    3    0    0 -0.51394877486E+02 -0.46468136734E+01  0.99958374098E+02  0.11249756825E+03  0.10000000000E+01 0.  0.
          4    1    1    2  501    0 -0.18443752252E+02 -0.18210276817E+02  0.56396603454E+02  0.62080399161E+02  0.12700000000E+01 0. -1.
<mgrwt>
<rscale>  1 0.12766007E+03</rscale>
<asrwt>0</asrwt>
<pdfrwt beam="1">  1       21 0.60507004E-01 0.12766007E+03</pdfrwt>
<pdfrwt beam="2">  1        4 0.23135823E-02 0.12766007E+03</pdfrwt>
<totfact> 0.83340478E+04</totfact>
</mgrwt>
</event>
<event>
 6    4  0.6195789E-003  0.1289413E+03  0.7818608E-02  0.1229035E+00
         -4   -1    0    0    0  501 -0.00000000000E+00  0.00000000000E+00  0.24399930566E+03  0.24400261077E+03  0.12700000000E+01 0.  1.
         21   -1    0    0  501  502  0.00000000000E+00 -0.00000000000E+00 -0.35886924779E+02  0.35886924779E+02  0.00000000000E+00 0. -1.
         25    2    1    2    0    0 -0.27273987077E+02  0.16030048449E+02  0.21185375138E+03  0.24800782328E+03  0.12500014242E+03 0.  0.
    9000005    1    3    3    0    0 -0.39019622724E+02  0.20347373857E+02  0.22533064626E+03  0.22958973567E+03  0.10000000000E+01 0.  0.
    9000005    1    3    3    0    0  0.11745635646E+02 -0.43173254083E+01 -0.13476894879E+02  0.18418087604E+02  0.10000000000E+01 0.  0.
         -4    1    1    2    0  502  0.27273987077E+02 -0.16030048449E+02 -0.37413705006E+01  0.31881712275E+02  0.12700000000E+01 0. -1.
<mgrwt>
<rscale>  1 0.12894134E+03</rscale>
<asrwt>0</asrwt>
<pdfrwt beam="2">  1       21 0.55210655E-02 0.12894134E+03</pdfrwt>
<pdfrwt beam="1">  1       -4 0.37540337E-01 0.12894134E+03</pdfrwt>
<totfact> 0.62777524E+04</totfact>
</mgrwt>
</event>
<event>
 6    4  0.6195789E-003  0.1298589E+03  0.7818608E-02  0.1227665E+00
          4   -1    0    0  502    0 -0.00000000000E+00  0.00000000000E+00  0.55798912519E+03  0.55799057047E+03  0.12700000000E+01 0.  1.
         21   -1    0    0  501  502  0.00000000000E+00 -0.00000000000E+00 -0.12841454803E+02  0.12841454803E+02  0.00000000000E+00 0.  1.
         25    2    1    2    0    0 -0.29530550342E+02 -0.19134836488E+02  0.36856324931E+03  0.39077129652E+03  0.12500056828E+03 0.  0.
    9000005    1    3    3    0    0 -0.52652792320E+02 -0.20760741279E+02  0.64471158465E+02  0.85795426401E+02  0.10000000000E+01 0.  0.
    9000005    1    3    3    0    0  0.23122241978E+02  0.16259047910E+01  0.30409209085E+03  0.30497587012E+03  0.10000000000E+01 0.  0.
          4    1    1    2  501    0  0.29530550342E+02  0.19134836488E+02  0.17658442108E+03  0.18006072875E+03  0.12700000000E+01 0. -1.
<mgrwt>
<rscale>  1 0.12985891E+03</rscale>
<asrwt>0</asrwt>
<pdfrwt beam="2">  1       21 0.19756089E-02 0.12985891E+03</pdfrwt>
<pdfrwt beam="1">  1        4 0.85849404E-01 0.12985891E+03</pdfrwt>
<totfact> 0.61034917E+04</totfact>
</mgrwt>
</event>
<event>
 6    4  0.6195789E-003  0.1361645E+03  0.7818608E-02  0.1218585E+00
          4   -1    0    0  502    0 -0.00000000000E+00  0.00000000000E+00  0.11079079313E+03  0.11079807193E+03  0.12700000000E+01 0.  1.
         21   -1    0    0  501  502  0.00000000000E+00 -0.00000000000E+00 -0.14174455060E+03  0.14174455060E+03  0.00000000000E+00 0. -1.
         25    2    1    2    0    0  0.34157331644E+02  0.41824399772E+02  0.58377251184E+02  0.14815083297E+03  0.12499904852E+03 0.  0.
    9000005    1    3    3    0    0  0.65675850820E+02  0.36503505856E+02  0.79835894729E+02  0.10963846683E+03  0.10000000000E+01 0.  0.
    9000005    1    3    3    0    0 -0.31518519176E+02  0.53208939154E+01 -0.21458643544E+02  0.38512366142E+02  0.10000000000E+01 0.  0.
          4    1    1    2  501    0 -0.34157331644E+02 -0.41824399772E+02 -0.89331008655E+02  0.10439178957E+03  0.12700000000E+01 0. -1.
<mgrwt>
<rscale>  1 0.13616448E+03</rscale>
<asrwt>0</asrwt>
<pdfrwt beam="2">  1       21 0.21806854E-01 0.13616448E+03</pdfrwt>
<pdfrwt beam="1">  1        4 0.17045735E-01 0.13616448E+03</pdfrwt>
<totfact> 0.24062926E+04</totfact>
</mgrwt>
</event>
<event>
 6    4  0.6195789E-003  0.1292365E+03  0.7818608E-02  0.1228593E+00
         21   -1    0    0  501  502  0.00000000000E+00  0.00000000000E+00  0.98427466959E+03  0.98427466959E+03  0.00000000000E+00 0.  1.
          4   -1    0    0  502    0 -0.00000000000E+00 -0.00000000000E+00 -0.22303183608E+02  0.22339312860E+02  0.12700000000E+01 0. -1.
         25    2    1    2    0    0  0.19440181956E+02  0.26443592796E+02  0.16797224364E+03  0.21193568653E+03  0.12499950526E+03 0.  0.
    9000005    1    3    3    0    0  0.14097464243E+02 -0.50066923321E+02  0.77239779088E+02  0.93125822319E+02  0.10000000000E+01 0.  0.
    9000005    1    3    3    0    0  0.53427177133E+01  0.76510516117E+02  0.90732464554E+02  0.11880986421E+03  0.10000000000E+01 0.  0.
          4    1    1    2  501    0 -0.19440181956E+02 -0.26443592796E+02  0.79399924234E+03  0.79467829592E+03  0.12700000000E+01 0.  1.
<mgrwt>
<rscale>  1 0.12923645E+03</rscale>
<asrwt>0</asrwt>
<pdfrwt beam="1">  1       21 0.15142684E+00 0.12923645E+03</pdfrwt>
<pdfrwt beam="2">  1        4 0.34341020E-02 0.12923645E+03</pdfrwt>
<totfact> 0.53069229E+03</totfact>
</mgrwt>
</event>
<event>
 6    4  0.6195789E-003  0.1329218E+03  0.7818608E-02  0.1223184E+00
          4   -1    0    0  502    0 -0.00000000000E+00  0.00000000000E+00  0.18363392476E+02  0.18407256265E+02  0.12700000000E+01 0. -1.
         21   -1    0    0  501  502  0.00000000000E+00 -0.00000000000E+00 -0.98531499488E+03  0.98531499488E+03  0.00000000000E+00 0.  1.
         25    2    1    2    0    0  0.44110851141E+02 -0.97723712035E+01 -0.23198546669E+03  0.26736764908E+03  0.12500774614E+03 0.  0.
    9000005    1    3    3    0    0  0.64636653993E+02  0.80088180225E+01 -0.46821702914E+02  0.80220384375E+02  0.10000000000E+01 0.  0.
    9000005    1    3    3    0    0 -0.20525802852E+02 -0.17781189226E+02 -0.18516376377E+03  0.18714726471E+03  0.10000000000E+01 0.  0.
          4    1    1    2  501    0 -0.44110851141E+02  0.97723712035E+01 -0.73496613571E+03  0.73635460206E+03  0.12700000000E+01 0.  1.
<mgrwt>
<rscale>  1 0.13292179E+03</rscale>
<asrwt>0</asrwt>
<pdfrwt beam="2">  1       21 0.15158695E+00 0.13292179E+03</pdfrwt>
<pdfrwt beam="1">  1        4 0.28285738E-02 0.13292179E+03</pdfrwt>
<totfact> 0.71810471E+03</totfact>
</mgrwt>
</event>
<event>
 6    4  0.6195789E-003  0.1270790E+03  0.7818608E-02  0.1231855E+00
         21   -1    0    0  501  502  0.00000000000E+00  0.00000000000E+00  0.57145259061E+03  0.57145259061E+03  0.00000000000E+00 0.  1.
          4   -1    0    0  502    0 -0.00000000000E+00 -0.00000000000E+00 -0.99229625717E+01  0.10003903548E+02  0.12700000000E+01 0.  1.
         25    2    1    2    0    0 -0.22880249886E+02  0.69668415334E+00  0.49646003181E+03  0.51246623067E+03  0.12500033273E+03 0.  0.
    9000005    1    3    3    0    0 -0.34251001418E+02 -0.38496974256E+02  0.43881220648E+03  0.44182836111E+03  0.10000000000E+01 0.  0.
    9000005    1    3    3    0    0  0.11370751532E+02  0.39193658410E+02  0.57647825333E+02  0.70637869557E+02  0.10000000000E+01 0.  0.
          4    1    1    2  501    0  0.22880249886E+02 -0.69668415334E+00  0.65069596222E+02  0.68990263489E+02  0.12700000000E+01 0. -1.
<mgrwt>
<rscale>  1 0.12707901E+03</rscale>
<asrwt>0</asrwt>
<pdfrwt beam="1">  1       21 0.87915757E-01 0.12707901E+03</pdfrwt>
<pdfrwt beam="2">  1        4 0.15329449E-02 0.12707901E+03</pdfrwt>
<totfact> 0.68952031E+04</totfact>
</mgrwt>
</event>
<event>
 6    4  0.6195789E-003  0.1303165E+03  0.7818608E-02  0.1226987E+00
         -4   -1    0    0    0  501 -0.00000000000E+00  0.00000000000E+00  0.31213405572E+01  0.33698170386E+01  0.12700000000E+01 0.  1.
         21   -1    0    0  501  502  0.00000000000E+00 -0.00000000000E+00 -0.27799968095E+04  0.27799968095E+04  0.00000000000E+00 0.  1.
         25    2    1    2    0    0  0.32705955646E+02 -0.16874771394E+02 -0.14136466362E+04  0.14196405174E+04  0.12501179600E+03 0.  0.
    9000005    1    3    3    0    0 -0.47273327499E+02 -0.11266199264E+02 -0.64269015876E+03  0.64452566660E+03  0.10000000000E+01 0.  0.
    9000005    1    3    3    0    0  0.79979283145E+02 -0.56085721302E+01 -0.77095647746E+03  0.77511485081E+03  0.10000000000E+01 0.  0.
         -4    1    1    2    0  502 -0.32705955646E+02  0.16874771394E+02 -0.13632288327E+04  0.13637261091E+04  0.12700000000E+01 0. -1.
<mgrwt>
<rscale>  1 0.13031649E+03</rscale>
<asrwt>0</asrwt>
<pdfrwt beam="2">  1       21 0.42769264E+00 0.13031649E+03</pdfrwt>
<pdfrwt beam="1">  1       -4 0.49934117E-03 0.13031649E+03</pdfrwt>
<totfact> 0.21516049E+03</totfact>
</mgrwt>
</event>
<event>
 6    4  0.6195789E-003  0.1268114E+03  0.7818608E-02  0.1232265E+00
         -4   -1    0    0    0  501 -0.00000000000E+00  0.00000000000E+00  0.20924607113E+04  0.20924610967E+04  0.12700000000E+01 0.  1.
         21   -1    0    0  501  502  0.00000000000E+00 -0.00000000000E+00 -0.27733408476E+01  0.27733408476E+01  0.00000000000E+00 0.  1.
         25    2    1    2    0    0  0.18325322746E+02  0.10844869118E+02  0.19248176731E+04  0.19289904643E+04  0.12501083164E+03 0.  0.
    9000005    1    3    3    0    0  0.41136887743E+02 -0.11369279568E+02  0.17881336316E+04  0.17886431697E+04  0.10000000000E+01 0.  0.
    9000005    1    3    3    0    0 -0.22811564997E+02  0.22214148686E+02  0.13668404143E+03  0.14034729453E+03  0.10000000000E+01 0.  0.
         -4    1    1    2    0  502 -0.18325322746E+02 -0.10844869118E+02  0.16486969736E+03  0.16624397327E+03  0.12700000000E+01 0. -1.
<mgrwt>
<rscale>  1 0.12681142E+03</rscale>
<asrwt>0</asrwt>
<pdfrwt beam="2">  1       21 0.42666950E-03 0.12681142E+03</pdfrwt>
<pdfrwt beam="1">  1       -4 0.32193817E+00 0.12681142E+03</pdfrwt>
<totfact> 0.16196248E+04</totfact>
</mgrwt>
</event>
<event>
 6    4  0.6195789E-003  0.1277963E+03  0.7818608E-02  0.1230763E+00
         21   -1    0    0  501  502  0.00000000000E+00  0.00000000000E+00  0.57138296161E+02  0.57138296161E+02  0.00000000000E+00 0.  1.
         -4   -1    0    0    0  501 -0.00000000000E+00 -0.00000000000E+00 -0.25357211848E+03  0.25357529881E+03  0.12700000000E+01 0.  1.
         25    2    1    2    0    0  0.25656661401E+02 -0.68717926583E+01 -0.23285461317E+03  0.26561844318E+03  0.12500560257E+03 0.  0.
    9000005    1    3    3    0    0  0.73578350809E+02  0.14873347338E+02 -0.14173538807E+03  0.16038987001E+03  0.10000000000E+01 0.  0.
    9000005    1    3    3    0    0 -0.47921689409E+02 -0.21745139996E+02 -0.91119225100E+02  0.10522857317E+03  0.10000000000E+01 0.  0.
         -4    1    1    2    0  502 -0.25656661401E+02  0.68717926583E+01  0.36420790858E+02  0.45095151794E+02  0.12700000000E+01 0. -1.
<mgrwt>
<rscale>  1 0.12779627E+03</rscale>
<asrwt>0</asrwt>
<pdfrwt beam="1">  1       21 0.87905069E-02 0.12779627E+03</pdfrwt>
<pdfrwt beam="2">  1       -4 0.39012427E-01 0.12779627E+03</pdfrwt>
<totfact> 0.26257331E+04</totfact>
</mgrwt>
</event>
<event>
 6    4  0.6195789E-003  0.1506712E+03  0.7818608E-02  0.1199651E+00
         21   -1    0    0  501  502  0.00000000000E+00  0.00000000000E+00  0.12241335607E+04  0.12241335607E+04  0.00000000000E+00 0.  1.
          4   -1    0    0  502    0 -0.00000000000E+00 -0.00000000000E+00 -0.27389398177E+02  0.27418826242E+02  0.12700000000E+01 0. -1.
         25    2    1    2    0    0  0.68334829403E+02 -0.49049616966E+02  0.19571369789E+03  0.24699322101E+03  0.12500514329E+03 0.  0.
    9000005    1    3    3    0    0  0.34274833938E+02 -0.65268774742E+02  0.34461695568E+02  0.81384185560E+02  0.10000000000E+01 0.  0.
    9000005    1    3    3    0    0  0.34059995465E+02  0.16219157776E+02  0.16125200232E+03  0.16560903545E+03  0.10000000000E+01 0.  0.
          4    1    1    2  501    0 -0.68334829403E+02  0.49049616966E+02  0.10010304647E+04  0.10045591660E+04  0.12700000000E+01 0.  1.
<mgrwt>
<rscale>  1 0.15067116E+03</rscale>
<asrwt>0</asrwt>
<pdfrwt beam="1">  1       21 0.18832820E+00 0.15067116E+03</pdfrwt>
<pdfrwt beam="2">  1        4 0.42160689E-02 0.15067116E+03</pdfrwt>
<totfact> 0.21262406E+03</totfact>
</mgrwt>
</event>
<event>
 6    4  0.6195789E-003  0.1272639E+03  0.7818608E-02  0.1231573E+00
         21   -1    0    0  501  502  0.00000000000E+00  0.00000000000E+00  0.11540775813E+02  0.11540775813E+02  0.00000000000E+00 0. -1.
         -4   -1    0    0    0  501 -0.00000000000E+00 -0.00000000000E+00 -0.49536253362E+03  0.49536416162E+03  0.12700000000E+01 0. -1.
         25    2    1    2    0    0 -0.21669396090E+02 -0.10067566647E+02 -0.41109180264E+03  0.43034007667E+03  0.12500077105E+03 0.  0.
    9000005    1    3    3    0    0 -0.23287090299E+02  0.46226390296E+02 -0.31278350231E+03  0.31703893618E+03  0.10000000000E+01 0.  0.
    9000005    1    3    3    0    0  0.16176942088E+01 -0.56293956943E+02 -0.98308300333E+02  0.11330114049E+03  0.10000000000E+01 0.  0.
         -4    1    1    2    0  502  0.21669396090E+02  0.10067566647E+02 -0.72729955162E+02  0.76564860759E+02  0.12700000000E+01 0.  1.
<mgrwt>
<rscale>  1 0.12726394E+03</rscale>
<asrwt>0</asrwt>
<pdfrwt beam="1">  1       21 0.17755039E-02 0.12726394E+03</pdfrwt>
<pdfrwt beam="2">  1       -4 0.76215122E-01 0.12726394E+03</pdfrwt>
<totfact> 0.94042279E+04</totfact>
</mgrwt>
</event>
<event>
 6    4  0.6195789E-003  0.1267457E+03  0.7818608E-02  0.1232366E+00
         21   -1    0    0  501  502  0.00000000000E+00  0.00000000000E+00  0.43677574821E+02  0.43677574821E+02  0.00000000000E+00 0. -1.
         -4   -1    0    0    0  501 -0.00000000000E+00 -0.00000000000E+00 -0.34424279757E+03  0.34424514024E+03  0.12700000000E+01 0.  1.
         25    2    1    2    0    0  0.11385776868E+02 -0.17633557244E+02 -0.32899267681E+03  0.35256297382E+03  0.12499556337E+03 0.  0.
    9000005    1    3    3    0    0  0.38547710687E+02 -0.40825627623E+02 -0.63885685209E+02  0.85059030353E+02  0.10000000000E+01 0.  0.
    9000005    1    3    3    0    0 -0.27161933819E+02  0.23192070378E+02 -0.26510699160E+03  0.26750394347E+03  0.10000000000E+01 0.  0.
         -4    1    1    2    0  502 -0.11385776868E+02  0.17633557244E+02  0.28427454060E+02  0.35359741237E+02  0.12700000000E+01 0. -1.
<mgrwt>
<rscale>  1 0.12674569E+03</rscale>
<asrwt>0</asrwt>
<pdfrwt beam="1">  1       21 0.67196270E-02 0.12674569E+03</pdfrwt>
<pdfrwt beam="2">  1       -4 0.52962030E-01 0.12674569E+03</pdfrwt>
<totfact> 0.22560507E+04</totfact>
</mgrwt>
</event>
<event>
 6    4  0.6195789E-003  0.1316580E+03  0.7818608E-02  0.1225016E+00
         -4   -1    0    0    0  501 -0.00000000000E+00  0.00000000000E+00  0.12657484301E+04  0.12657490672E+04  0.12700000000E+01 0. -1.
         21   -1    0    0  501  502  0.00000000000E+00 -0.00000000000E+00 -0.84405884529E+01  0.84405884529E+01  0.00000000000E+00 0.  1.
         25    2    1    2    0    0 -0.40275393141E+01 -0.41198927147E+02  0.11718773344E+04  0.11792499004E+04  0.12498107042E+03 0.  0.
    9000005    1    3    3    0    0 -0.63350742098E+02 -0.21059000935E+02  0.49579963089E+03  0.50027499641E+03  0.10000000000E+01 0.  0.
    9000005    1    3    3    0    0  0.59323202784E+02 -0.20139926212E+02  0.67607770356E+03  0.67897490400E+03  0.10000000000E+01 0.  0.
         -4    1    1    2    0  502  0.40275393141E+01  0.41198927147E+02  0.85430507217E+02  0.94939755289E+02  0.12700000000E+01 0.  1.
<mgrwt>
<rscale>  1 0.13165804E+03</rscale>
<asrwt>0</asrwt>
<pdfrwt beam="2">  1       21 0.12985531E-02 0.13165804E+03</pdfrwt>
<pdfrwt beam="1">  1       -4 0.19473778E+00 0.13165804E+03</pdfrwt>
<totfact> 0.15825697E+04</totfact>
</mgrwt>
</event>
<event>
 6    4  0.6195789E-003  0.1299029E+03  0.7818608E-02  0.1227600E+00
         21   -1    0    0  501  502  0.00000000000E+00  0.00000000000E+00  0.44714600791E+02  0.44714600791E+02  0.00000000000E+00 0.  1.
          4   -1    0    0  502    0 -0.00000000000E+00 -0.00000000000E+00 -0.15336494878E+03  0.15337020707E+03  0.12700000000E+01 0.  1.
         25    2    1    2    0    0  0.29340349623E+02 -0.19723403935E+02 -0.79987422749E+02  0.15255410434E+03  0.12499959270E+03 0.  0.
    9000005    1    3    3    0    0 -0.37538207293E+02 -0.35680750030E+01 -0.74526016507E+02  0.83528290432E+02  0.10000000000E+01 0.  0.
    9000005    1    3    3    0    0  0.66878556916E+02 -0.16155328932E+02 -0.54614062419E+01  0.69025813912E+02  0.10000000000E+01 0.  0.
          4    1    1    2  501    0 -0.29340349623E+02  0.19723403935E+02 -0.28662925244E+02  0.45530703512E+02  0.12700000000E+01 0. -1.
<mgrwt>
<rscale>  1 0.12990291E+03</rscale>
<asrwt>0</asrwt>
<pdfrwt beam="1">  1       21 0.68791693E-02 0.12990291E+03</pdfrwt>
<pdfrwt beam="2">  1        4 0.23596399E-01 0.12990291E+03</pdfrwt>
<totfact> 0.10388962E+05</totfact>
</mgrwt>
</event>
<event>
 6    4  0.6195789E-003  0.1295516E+03  0.7818608E-02  0.1228123E+00
          4   -1    0    0  502    0 -0.00000000000E+00  0.00000000000E+00  0.20524962380E+03  0.20525355288E+03  0.12700000000E+01 0.  1.
         21   -1    0    0  501  502  0.00000000000E+00 -0.00000000000E+00 -0.20605390860E+03  0.20605390860E+03  0.00000000000E+00 0. -1.
         25    2    1    2    0    0 -0.19603880982E+02  0.27823255912E+02  0.18308810996E+03  0.22428748535E+03  0.12500069742E+03 0.  0.
    9000005    1    3    3    0    0  0.36827523794E+02 -0.92626619176E+01  0.11193839077E+02  0.39602593954E+02  0.10000000000E+01 0.  0.
    9000005    1    3    3    0    0 -0.56431404776E+02  0.37085917830E+02  0.17189427089E+03  0.18468489139E+03  0.10000000000E+01 0.  0.
          4    1    1    2  501    0  0.19603880982E+02 -0.27823255912E+02 -0.18389239477E+03  0.18701997613E+03  0.12700000000E+01 0. -1.
<mgrwt>
<rscale>  1 0.12955161E+03</rscale>
<asrwt>0</asrwt>
<pdfrwt beam="2">  1       21 0.31700601E-01 0.12955161E+03</pdfrwt>
<pdfrwt beam="1">  1        4 0.31577468E-01 0.12955161E+03</pdfrwt>
<totfact> 0.38043221E+03</totfact>
</mgrwt>
</event>
<event>
 6    4  0.6195789E-003  0.1266682E+03  0.7818608E-02  0.1232485E+00
         -4   -1    0    0    0  501 -0.00000000000E+00  0.00000000000E+00  0.37612231280E+03  0.37612445691E+03  0.12700000000E+01 0.  1.
         21   -1    0    0  501  502  0.00000000000E+00 -0.00000000000E+00 -0.14543276532E+02  0.14543276532E+02  0.00000000000E+00 0.  1.
         25    2    1    2    0    0 -0.37853267519E+01 -0.20143309878E+02  0.29644278939E+03  0.32237113624E+03  0.12499896188E+03 0.  0.
    9000005    1    3    3    0    0 -0.18946777302E+02  0.80809930677E+01  0.28864657640E+03  0.28938232304E+03  0.10000000000E+01 0.  0.
    9000005    1    3    3    0    0  0.15161450550E+02 -0.28224302946E+02  0.77962129841E+01  0.32988813201E+02  0.10000000000E+01 0.  0.
         -4    1    1    2    0  502  0.37853267519E+01  0.20143309878E+02  0.65136246887E+02  0.68296597207E+02  0.12700000000E+01 0. -1.
<mgrwt>
<rscale>  1 0.12666816E+03</rscale>
<asrwt>0</asrwt>
<pdfrwt beam="2">  1       21 0.22374275E-02 0.12666816E+03</pdfrwt>
<pdfrwt beam="1">  1       -4 0.57869394E-01 0.12666816E+03</pdfrwt>
<totfact> 0.11650803E+05</totfact>
</mgrwt>
</event>
<event>
 6    4  0.6195789E-003  0.1268504E+03  0.7818608E-02  0.1232205E+00
         -4   -1    0    0    0  501 -0.00000000000E+00  0.00000000000E+00  0.46287204022E+03  0.46287378249E+03  0.12700000000E+01 0. -1.
         21   -1    0    0  501  502  0.00000000000E+00 -0.00000000000E+00 -0.28920651617E+02  0.28920651617E+02  0.00000000000E+00 0. -1.
         25    2    1    2    0    0 -0.11883345283E+02  0.18029001175E+02  0.44825805712E+03  0.46586081804E+03  0.12499902891E+03 0.  0.
    9000005    1    3    3    0    0  0.33825303841E+02 -0.32830050995E+02  0.95145162453E+02  0.10618646508E+03  0.10000000000E+01 0.  0.
    9000005    1    3    3    0    0 -0.45708649124E+02  0.50859052169E+02  0.35311289467E+03  0.35967435296E+03  0.10000000000E+01 0.  0.
         -4    1    1    2    0  502  0.11883345283E+02 -0.18029001175E+02 -0.14306668518E+02  0.25933616072E+02  0.12700000000E+01 0.  1.
<mgrwt>
<rscale>  1 0.12685037E+03</rscale>
<asrwt>0</asrwt>
<pdfrwt beam="2">  1       21 0.44493314E-02 0.12685037E+03</pdfrwt>
<pdfrwt beam="1">  1       -4 0.71213357E-01 0.12685037E+03</pdfrwt>
<totfact> 0.24245037E+04</totfact>
</mgrwt>
</event>
<event>
 6    4  0.6195789E-003  0.1282396E+03  0.7818608E-02  0.1230091E+00
         21   -1    0    0  501  502  0.00000000000E+00  0.00000000000E+00  0.26007780850E+02  0.26007780850E+02  0.00000000000E+00 0. -1.
          4   -1    0    0  502    0 -0.00000000000E+00 -0.00000000000E+00 -0.29703857501E+03  0.29704128996E+03  0.12700000000E+01 0. -1.
         25    2    1    2    0    0 -0.32418854039E+01  0.28444034309E+02 -0.26406686639E+03  0.29355869783E+03  0.12500330489E+03 0.  0.
    9000005    1    3    3    0    0  0.33173765473E+02 -0.16065327557E+02 -0.18324363198E+02  0.41174940823E+02  0.10000000000E+01 0.  0.
    9000005    1    3    3    0    0 -0.36415650877E+02  0.44509361866E+02 -0.24574250320E+03  0.25238375701E+03  0.10000000000E+01 0.  0.
          4    1    1    2  501    0  0.32418854039E+01 -0.28444034309E+02 -0.69639277608E+01  0.29490372982E+02  0.12700000000E+01 0.  1.
<mgrwt>
<rscale>  1 0.12823962E+03</rscale>
<asrwt>0</asrwt>
<pdfrwt beam="1">  1       21 0.40011970E-02 0.12823962E+03</pdfrwt>
<pdfrwt beam="2">  1        4 0.45700837E-01 0.12823962E+03</pdfrwt>
<totfact> 0.72910926E+04</totfact>
</mgrwt>
</event>
<event>
 6    4  0.6195789E-003  0.1282532E+03  0.7818608E-02  0.1230071E+00
          4   -1    0    0  502    0 -0.00000000000E+00  0.00000000000E+00  0.91510281637E+02  0.91519093884E+02  0.12700000000E+01 0. -1.
         21   -1    0    0  501  502  0.00000000000E+00 -0.00000000000E+00 -0.20558850556E+03  0.20558850556E+03  0.00000000000E+00 0.  1.
         25    2    1    2    0    0  0.27743956806E+02 -0.71725564458E+01  0.44653952555E+02  0.13580450135E+03  0.12501085714E+03 0.  0.
    9000005    1    3    3    0    0  0.62458977095E+01 -0.64660632994E+02  0.34580464749E+02  0.73599030154E+02  0.10000000000E+01 0.  0.
    9000005    1    3    3    0    0  0.21498059097E+02  0.57488076548E+02  0.10073487806E+02  0.62205471195E+02  0.10000000000E+01 0.  0.
          4    1    1    2  501    0 -0.27743956806E+02  0.71725564458E+01 -0.15873217648E+03  0.16130309810E+03  0.12700000000E+01 0.  1.
<mgrwt>
<rscale>  1 0.12825321E+03</rscale>
<asrwt>0</asrwt>
<pdfrwt beam="2">  1       21 0.31629001E-01 0.12825321E+03</pdfrwt>
<pdfrwt beam="1">  1        4 0.14079484E-01 0.12825321E+03</pdfrwt>
<totfact> 0.16483206E+04</totfact>
</mgrwt>
</event>
<event>
 6    4  0.6195789E-003  0.1348007E+03  0.7818608E-02  0.1220501E+00
          4   -1    0    0  502    0 -0.00000000000E+00  0.00000000000E+00  0.24937359919E+02  0.24969678006E+02  0.12700000000E+01 0.  1.
         21   -1    0    0  501  502  0.00000000000E+00 -0.00000000000E+00 -0.35410914607E+03  0.35410914607E+03  0.00000000000E+00 0. -1.
         25    2    1    2    0    0 -0.33060417716E+02  0.38121810272E+02 -0.20856954850E+03  0.24833947933E+03  0.12499990718E+03 0.  0.
    9000005    1    3    3    0    0 -0.43105167259E+02  0.80455227569E+02 -0.14107422558E+03  0.16802986702E+03  0.10000000000E+01 0.  0.
    9000005    1    3    3    0    0  0.10044749543E+02 -0.42333417297E+02 -0.67495322928E+02  0.80309612317E+02  0.10000000000E+01 0.  0.
          4    1    1    2  501    0  0.33060417716E+02 -0.38121810272E+02 -0.12060223764E+03  0.13073934474E+03  0.12700000000E+01 0. -1.
<mgrwt>
<rscale>  1 0.13480074E+03</rscale>
<asrwt>0</asrwt>
<pdfrwt beam="2">  1       21 0.54478329E-01 0.13480074E+03</pdfrwt>
<pdfrwt beam="1">  1        4 0.38391782E-02 0.13480074E+03</pdfrwt>
<totfact> 0.47353978E+04</totfact>
</mgrwt>
</event>
<event>
 6    4  0.6195789E-003  0.3225201E+03  0.7818608E-02  0.1074495E+00
         21   -1    0    0  501  502  0.00000000000E+00  0.00000000000E+00  0.83176295814E+03  0.83176295814E+03  0.00000000000E+00 0.  1.
          4   -1    0    0  502    0 -0.00000000000E+00 -0.00000000000E+00 -0.15290302536E+03  0.15290829953E+03  0.12700000000E+01 0. -1.
         25    2    1    2    0    0 -0.29083305908E+03 -0.61705645596E+02  0.10641260952E+03  0.33962164272E+03  0.12501104665E+03 0.  0.
    9000005    1    3    3    0    0 -0.68828918256E+02 -0.62972098843E+02 -0.30321171613E+00  0.93295215088E+02  0.10000000000E+01 0.  0.
    9000005    1    3    3    0    0 -0.22200414082E+03  0.12664532473E+01  0.10671582124E+03  0.24632642763E+03  0.10000000000E+01 0.  0.
          4    1    1    2  501    0  0.29083305908E+03  0.61705645596E+02  0.57244732325E+03  0.64504961495E+03  0.12700000000E+01 0.  1.
<mgrwt>
<rscale>  1 0.32252010E+03</rscale>
<asrwt>0</asrwt>
<pdfrwt beam="1">  1       21 0.12796353E+00 0.32252010E+03</pdfrwt>
<pdfrwt beam="2">  1        4 0.23524023E-01 0.32252010E+03</pdfrwt>
<totfact> 0.30964102E+02</totfact>
</mgrwt>
</event>
<event>
 6    4  0.6195789E-003  0.1272172E+03  0.7818608E-02  0.1231644E+00
         -4   -1    0    0    0  501 -0.00000000000E+00  0.00000000000E+00  0.73326909536E+02  0.73337906720E+02  0.12700000000E+01 0. -1.
         21   -1    0    0  501  502  0.00000000000E+00 -0.00000000000E+00 -0.13390119298E+03  0.13390119298E+03  0.00000000000E+00 0. -1.
         25    2    1    2    0    0 -0.20377605834E+02  0.12013117696E+02  0.14944516771E+02  0.12809199677E+03  0.12499863695E+03 0.  0.
    9000005    1    3    3    0    0 -0.41751248512E+02  0.29985821124E+02 -0.40866440877E+02  0.65676344377E+02  0.10000000000E+01 0.  0.
    9000005    1    3    3    0    0  0.21373642678E+02 -0.17972703428E+02  0.55810957648E+02  0.62415652392E+02  0.10000000000E+01 0.  0.
         -4    1    1    2    0  502  0.20377605834E+02 -0.12013117696E+02 -0.75518800218E+02  0.79147102932E+02  0.12700000000E+01 0.  1.
<mgrwt>
<rscale>  1 0.12721722E+03</rscale>
<asrwt>0</asrwt>
<pdfrwt beam="2">  1       21 0.20600183E-01 0.12721722E+03</pdfrwt>
<pdfrwt beam="1">  1       -4 0.11282372E-01 0.12721722E+03</pdfrwt>
<totfact> 0.54267565E+04</totfact>
</mgrwt>
</event>
<event>
 6    4  0.6195789E-003  0.1274953E+03  0.7818608E-02  0.1231220E+00
         -4   -1    0    0    0  501 -0.00000000000E+00  0.00000000000E+00  0.27377194652E+02  0.27406635820E+02  0.12700000000E+01 0. -1.
         21   -1    0    0  501  502  0.00000000000E+00 -0.00000000000E+00 -0.41407685069E+03  0.41407685069E+03  0.00000000000E+00 0.  1.
         25    2    1    2    0    0  0.23953437782E+02  0.75159489384E+01 -0.12490020728E+03  0.17848002467E+03  0.12499920303E+03 0.  0.
    9000005    1    3    3    0    0  0.61970079594E+02  0.17856236824E+02 -0.21766571964E+02  0.68072899258E+02  0.10000000000E+01 0.  0.
    9000005    1    3    3    0    0 -0.38016641811E+02 -0.10340287886E+02 -0.10313363532E+03  0.11040712541E+03  0.10000000000E+01 0.  0.
         -4    1    1    2    0  502 -0.23953437782E+02 -0.75159489384E+01 -0.26179944876E+03  0.26300346184E+03  0.12700000000E+01 0.  1.
<mgrwt>
<rscale>  1 0.12749532E+03</rscale>
<asrwt>0</asrwt>
<pdfrwt beam="2">  1       21 0.63704127E-01 0.12749532E+03</pdfrwt>
<pdfrwt beam="1">  1       -4 0.42142909E-02 0.12749532E+03</pdfrwt>
<totfact> 0.29156120E+04</totfact>
</mgrwt>
</event>
<event>
 6    4  0.6195789E-003  0.1269050E+03  0.7818608E-02  0.1232122E+00
          4   -1    0    0  502    0 -0.00000000000E+00  0.00000000000E+00  0.92540865326E+01  0.93408253143E+01  0.12700000000E+01 0. -1.
         21   -1    0    0  501  502  0.00000000000E+00 -0.00000000000E+00 -0.69957347266E+03  0.69957347266E+03  0.00000000000E+00 0. -1.
         25    2    1    2    0    0  0.21047586989E+02  0.59830962131E+01 -0.44864444379E+03  0.46624747080E+03  0.12500427482E+03 0.  0.
    9000005    1    3    3    0    0  0.42754696241E+02  0.52524009805E+02 -0.17163840004E+03  0.18451958168E+03  0.10000000000E+01 0.  0.
    9000005    1    3    3    0    0 -0.21707109252E+02 -0.46540913592E+02 -0.27700604375E+03  0.28172788912E+03  0.10000000000E+01 0.  0.
          4    1    1    2  501    0 -0.21047586989E+02 -0.59830962131E+01 -0.24167494234E+03  0.24266682718E+03  0.12700000000E+01 0.  1.
<mgrwt>
<rscale>  1 0.12690495E+03</rscale>
<asrwt>0</asrwt>
<pdfrwt beam="2">  1       21 0.10762666E+00 0.12690495E+03</pdfrwt>
<pdfrwt beam="1">  1        4 0.14304669E-02 0.12690495E+03</pdfrwt>
<totfact> 0.47847040E+04</totfact>
</mgrwt>
</event>
<event>
 6    4  0.6195789E-003  0.1281142E+03  0.7818608E-02  0.1230281E+00
          4   -1    0    0  502    0 -0.00000000000E+00  0.00000000000E+00  0.38123663834E+02  0.38144811496E+02  0.12700000000E+01 0. -1.
         21   -1    0    0  501  502  0.00000000000E+00 -0.00000000000E+00 -0.80745687060E+03  0.80745687060E+03  0.00000000000E+00 0.  1.
         25    2    1    2    0    0  0.90564847122E+00 -0.28038314884E+02 -0.70551256136E+02  0.14625570568E+03  0.12500513750E+03 0.  0.
    9000005    1    3    3    0    0  0.28741912325E+02 -0.71166070962E+02 -0.41136162206E+02  0.87085538532E+02  0.10000000000E+01 0.  0.
    9000005    1    3    3    0    0 -0.27836263854E+02  0.43127756078E+02 -0.29415093930E+02  0.59170167150E+02  0.10000000000E+01 0.  0.
          4    1    1    2  501    0 -0.90564847122E+00  0.28038314884E+02 -0.69878195063E+03  0.69934597642E+03  0.12700000000E+01 0.  1.
<mgrwt>
<rscale>  1 0.12811421E+03</rscale>
<asrwt>0</asrwt>
<pdfrwt beam="2">  1       21 0.12422414E+00 0.12811421E+03</pdfrwt>
<pdfrwt beam="1">  1        4 0.58668824E-02 0.12811421E+03</pdfrwt>
<totfact> 0.37199654E+03</totfact>
</mgrwt>
</event>
<event>
 6    4  0.6195789E-003  0.1498089E+03  0.7818608E-02  0.1200708E+00
         -4   -1    0    0    0  501 -0.00000000000E+00  0.00000000000E+00  0.60569545169E+03  0.60569678313E+03  0.12700000000E+01 0. -1.
         21   -1    0    0  501  502  0.00000000000E+00 -0.00000000000E+00 -0.31996404577E+02  0.31996404577E+02  0.00000000000E+00 0.  1.
         25    2    1    2    0    0  0.53562709816E+02  0.62838027363E+02  0.51508222600E+03  0.53642559080E+03  0.12500053345E+03 0.  0.
    9000005    1    3    3    0    0  0.93752378926E+02  0.37999144397E+02  0.38333285205E+03  0.39645746176E+03  0.10000000000E+01 0.  0.
    9000005    1    3    3    0    0 -0.40189669110E+02  0.24838882966E+02  0.13174937395E+03  0.13996812904E+03  0.10000000000E+01 0.  0.
         -4    1    1    2    0  502 -0.53562709816E+02 -0.62838027363E+02  0.58616821112E+02  0.10126759691E+03  0.12700000000E+01 0.  1.
<mgrwt>
<rscale>  1 0.14980893E+03</rscale>
<asrwt>0</asrwt>
<pdfrwt beam="2">  1       21 0.49225242E-02 0.14980893E+03</pdfrwt>
<pdfrwt beam="1">  1       -4 0.93185948E-01 0.14980893E+03</pdfrwt>
<totfact> 0.11460219E+04</totfact>
</mgrwt>
</event>
<event>
 6    4  0.6195789E-003  0.1295855E+03  0.7818608E-02  0.1228072E+00
         21   -1    0    0  501  502  0.00000000000E+00  0.00000000000E+00  0.86093903385E+02  0.86093903385E+02  0.00000000000E+00 0. -1.
         -4   -1    0    0    0  501 -0.00000000000E+00 -0.00000000000E+00 -0.96706967614E+02  0.96715306364E+02  0.12700000000E+01 0. -1.
         25    2    1    2    0    0  0.33754116387E+02 -0.52876378153E+01  0.26586587872E+02  0.13228469587E+03  0.12500037847E+03 0.  0.
    9000005    1    3    3    0    0 -0.17068532507E+02 -0.52215376745E+02 -0.69879684376E+01  0.55386027781E+02  0.10000000000E+01 0.  0.
    9000005    1    3    3    0    0  0.50822648894E+02  0.46927738929E+02  0.33574556310E+02  0.76898668084E+02  0.10000000000E+01 0.  0.
         -4    1    1    2    0  502 -0.33754116387E+02  0.52876378153E+01 -0.37199652101E+02  0.50524513884E+02  0.12700000000E+01 0.  1.
<mgrwt>
<rscale>  1 0.12958547E+03</rscale>
<asrwt>0</asrwt>
<pdfrwt beam="1">  1       21 0.13245216E-01 0.12958547E+03</pdfrwt>
<pdfrwt beam="2">  1       -4 0.14879357E-01 0.12958547E+03</pdfrwt>
<totfact> 0.75416109E+04</totfact>
</mgrwt>
</event>
<event>
 6    4  0.6195789E-003  0.1365206E+03  0.7818608E-02  0.1218089E+00
         21   -1    0    0  501  502  0.00000000000E+00  0.00000000000E+00  0.93567689645E+02  0.93567689645E+02  0.00000000000E+00 0. -1.
          4   -1    0    0  502    0 -0.00000000000E+00 -0.00000000000E+00 -0.13605847803E+03  0.13606440513E+03  0.12700000000E+01 0. -1.
         25    2    1    2    0    0 -0.24183238934E+02  0.49264219233E+02 -0.84457707062E+02  0.16053341531E+03  0.12500432315E+03 0.  0.
    9000005    1    3    3    0    0  0.12383755614E+02  0.77563635070E+02 -0.82975583131E+02  0.11426032682E+03  0.10000000000E+01 0.  0.
    9000005    1    3    3    0    0 -0.36566994548E+02 -0.28299415838E+02 -0.14821239313E+01  0.46273088489E+02  0.10000000000E+01 0.  0.
          4    1    1    2  501    0  0.24183238934E+02 -0.49264219233E+02  0.41966918674E+02  0.69098679473E+02  0.12700000000E+01 0.  1.
<mgrwt>
<rscale>  1 0.13652060E+03</rscale>
<asrwt>0</asrwt>
<pdfrwt beam="1">  1       21 0.14395029E-01 0.13652060E+03</pdfrwt>
<pdfrwt beam="2">  1        4 0.20933193E-01 0.13652060E+03</pdfrwt>
<totfact> 0.35672363E+04</totfact>
</mgrwt>
</event>
<event>
 6    4  0.6195789E-003  0.1266404E+03  0.7818608E-02  0.1232528E+00
         21   -1    0    0  501  502  0.00000000000E+00  0.00000000000E+00  0.10927964533E+03  0.10927964533E+03  0.00000000000E+00 0.  1.
         -4   -1    0    0    0  501 -0.00000000000E+00 -0.00000000000E+00 -0.49434510402E+02  0.49450821213E+02  0.12700000000E+01 0.  1.
         25    2    1    2    0    0  0.16237427502E+02  0.12208040613E+02  0.52498057340E+02  0.13709062466E+03  0.12500041215E+03 0.  0.
    9000005    1    3    3    0    0 -0.93533357325E+00 -0.47909833892E+01 -0.40599012697E+02  0.40903645347E+02  0.10000000000E+01 0.  0.
    9000005    1    3    3    0    0  0.17172761075E+02  0.16999024002E+02  0.93097070037E+02  0.96186979313E+02  0.10000000000E+01 0.  0.
         -4    1    1    2    0  502 -0.16237427502E+02 -0.12208040613E+02  0.73470775844E+01  0.21639841878E+02  0.12700000000E+01 0. -1.
<mgrwt>
<rscale>  1 0.12664041E+03</rscale>
<asrwt>0</asrwt>
<pdfrwt beam="1">  1       21 0.16812253E-01 0.12664041E+03</pdfrwt>
<pdfrwt beam="2">  1       -4 0.76071316E-02 0.12664041E+03</pdfrwt>
<totfact> 0.15227525E+05</totfact>
</mgrwt>
</event>
<event>
 6    4  0.6195789E-003  0.1268051E+03  0.7818608E-02  0.1232275E+00
         -4   -1    0    0    0  501 -0.00000000000E+00  0.00000000000E+00  0.12328568427E+03  0.12329222541E+03  0.12700000000E+01 0. -1.
         21   -1    0    0  501  502  0.00000000000E+00 -0.00000000000E+00 -0.54582845011E+02  0.54582845011E+02  0.00000000000E+00 0. -1.
         25    2    1    2    0    0  0.19013294321E+02 -0.96208418680E+01  0.83565285854E+02  0.15186408855E+03  0.12500191371E+03 0.  0.
    9000005    1    3    3    0    0  0.55810876995E+02 -0.43801719595E+02  0.70358099155E+02  0.99923504478E+02  0.10000000000E+01 0.  0.
    9000005    1    3    3    0    0 -0.36797582674E+02  0.34180877727E+02  0.13207186699E+02  0.51940584068E+02  0.10000000000E+01 0.  0.
         -4    1    1    2    0  502 -0.19013294321E+02  0.96208418680E+01 -0.14862446595E+02  0.26010981873E+02  0.12700000000E+01 0.  1.
<mgrwt>
<rscale>  1 0.12680514E+03</rscale>
<asrwt>0</asrwt>
<pdfrwt beam="2">  1       21 0.83973609E-02 0.12680514E+03</pdfrwt>
<pdfrwt beam="1">  1       -4 0.18968668E-01 0.12680514E+03</pdfrwt>
<totfact> 0.10905448E+05</totfact>
</mgrwt>
</event>
<event>
 6    4  0.6195789E-003  0.1583722E+03  0.7818608E-02  0.1190547E+00
          4   -1    0    0  502    0 -0.00000000000E+00  0.00000000000E+00  0.55576421437E+02  0.55590930193E+02  0.12700000000E+01 0. -1.
         21   -1    0    0  501  502  0.00000000000E+00 -0.00000000000E+00 -0.29779089656E+03  0.29779089656E+03  0.00000000000E+00 0.  1.
         25    2    1    2    0    0  0.41279605960E+01  0.97157538535E+02 -0.16931754770E+03  0.23184087777E+03  0.12500053317E+03 0.  0.
    9000005    1    3    3    0    0 -0.38965591841E+02  0.88844045229E+02 -0.15976260948E+03  0.18691354447E+03  0.10000000000E+01 0.  0.
    9000005    1    3    3    0    0  0.43093552437E+02  0.83134933063E+01 -0.95549382203E+01  0.44927333295E+02  0.10000000000E+01 0.  0.
          4    1    1    2  501    0 -0.41279605960E+01 -0.97157538535E+02 -0.72896927428E+02  0.12154094899E+03  0.12700000000E+01 0.  1.
<mgrwt>
<rscale>  1 0.15837222E+03</rscale>
<asrwt>0</asrwt>
<pdfrwt beam="2">  1       21 0.45813984E-01 0.15837222E+03</pdfrwt>
<pdfrwt beam="1">  1        4 0.85515430E-02 0.15837222E+03</pdfrwt>
<totfact> 0.18728233E+04</totfact>
</mgrwt>
</event>
<event>
 6    4  0.6195789E-003  0.1334663E+03  0.7818608E-02  0.1222401E+00
          4   -1    0    0  502    0 -0.00000000000E+00  0.00000000000E+00  0.14373222135E+04  0.14373227746E+04  0.12700000000E+01 0.  1.
         21   -1    0    0  501  502  0.00000000000E+00 -0.00000000000E+00 -0.11983656373E+02  0.11983656373E+02  0.00000000000E+00 0. -1.
         25    2    1    2    0    0 -0.82251951622E+01  0.46059249317E+02  0.13714511030E+04  0.13779301121E+04  0.12499663024E+03 0.  0.
    9000005    1    3    3    0    0  0.34791293836E+02  0.25010789176E+02  0.16333329509E+03  0.16886307763E+03  0.10000000000E+01 0.  0.
    9000005    1    3    3    0    0 -0.43016488998E+02  0.21048460141E+02  0.12081178080E+04  0.12090670345E+04  0.10000000000E+01 0.  0.
          4    1    1    2  501    0  0.82251951622E+01 -0.46059249317E+02  0.53887454117E+02  0.71376318862E+02  0.12700000000E+01 0. -1.
<mgrwt>
<rscale>  1 0.13346635E+03</rscale>
<asrwt>0</asrwt>
<pdfrwt beam="2">  1       21 0.18436406E-02 0.13346635E+03</pdfrwt>
<pdfrwt beam="1">  1        4 0.22113158E+00 0.13346635E+03</pdfrwt>
<totfact> 0.62414105E+03</totfact>
</mgrwt>
</event>
<event>
 6    4  0.6195789E-003  0.1349072E+03  0.7818608E-02  0.1220351E+00
          4   -1    0    0  502    0 -0.00000000000E+00  0.00000000000E+00  0.82456071839E+03  0.82456169642E+03  0.12700000000E+01 0.  1.
         21   -1    0    0  501  502  0.00000000000E+00 -0.00000000000E+00 -0.18074175360E+02  0.18074175360E+02  0.00000000000E+00 0. -1.
         25    2    1    2    0    0 -0.90237827676E+01  0.49931052639E+02  0.76578152655E+03  0.77757397864E+03  0.12500162870E+03 0.  0.
    9000005    1    3    3    0    0  0.23356095113E+02  0.71972453701E+02  0.27472774270E+03  0.28495942497E+03  0.10000000000E+01 0.  0.
    9000005    1    3    3    0    0 -0.32379877881E+02 -0.22041401062E+02  0.49105378384E+03  0.49261455366E+03  0.10000000000E+01 0.  0.
          4    1    1    2  501    0  0.90237827676E+01 -0.49931052639E+02  0.40705016479E+02  0.65061893145E+02  0.12700000000E+01 0. -1.
<mgrwt>
<rscale>  1 0.13490717E+03</rscale>
<asrwt>0</asrwt>
<pdfrwt beam="2">  1       21 0.27806430E-02 0.13490717E+03</pdfrwt>
<pdfrwt beam="1">  1        4 0.12685897E+00 0.13490717E+03</pdfrwt>
<totfact> 0.14156130E+04</totfact>
</mgrwt>
</event>
<event>
 6    4  0.6195789E-003  0.1374271E+03  0.7818608E-02  0.1216833E+00
         -4   -1    0    0    0  501 -0.00000000000E+00  0.00000000000E+00  0.42397610194E+03  0.42397800405E+03  0.12700000000E+01 0.  1.
         21   -1    0    0  501  502  0.00000000000E+00 -0.00000000000E+00 -0.22656248846E+02  0.22656248846E+02  0.00000000000E+00 0. -1.
         25    2    1    2    0    0 -0.56993083589E+02  0.36162513281E+01  0.30717335179E+03  0.33651402106E+03  0.12499971789E+03 0.  0.
    9000005    1    3    3    0    0 -0.22135841668E+02 -0.45492202316E+01  0.29890166580E+03  0.29975639561E+03  0.10000000000E+01 0.  0.
    9000005    1    3    3    0    0 -0.34857241921E+02  0.81654715597E+01  0.82716859946E+01  0.36757625459E+02  0.10000000000E+01 0.  0.
         -4    1    1    2    0  502  0.56993083589E+02 -0.36162513281E+01  0.94146501304E+02  0.11012023183E+03  0.12700000000E+01 0. -1.
<mgrwt>
<rscale>  1 0.13742714E+03</rscale>
<asrwt>0</asrwt>
<pdfrwt beam="2">  1       21 0.34855771E-02 0.13742714E+03</pdfrwt>
<pdfrwt beam="1">  1       -4 0.65229971E-01 0.13742714E+03</pdfrwt>
<totfact> 0.44330501E+04</totfact>
</mgrwt>
</event>
<event>
 6    4  0.6195789E-003  0.1614763E+03  0.7818608E-02  0.1187040E+00
          4   -1    0    0  502    0 -0.00000000000E+00  0.00000000000E+00  0.43849649308E+02  0.43868036706E+02  0.12700000000E+01 0.  1.
         21   -1    0    0  501  502  0.00000000000E+00 -0.00000000000E+00 -0.54048883906E+03  0.54048883906E+03  0.00000000000E+00 0. -1.
         25    2    1    2    0    0 -0.93027571180E+01 -0.10179960901E+03 -0.14118785162E+03  0.21449613391E+03  0.12499952133E+03 0.  0.
    9000005    1    3    3    0    0  0.31807652834E+02 -0.11109383117E+03 -0.12241736646E+03  0.16834659995E+03  0.10000000000E+01 0.  0.
    9000005    1    3    3    0    0 -0.41110409952E+02  0.92942221588E+01 -0.18770485159E+02  0.46149533964E+02  0.10000000000E+01 0.  0.
          4    1    1    2  501    0  0.93027571180E+01  0.10179960901E+03 -0.35545133813E+03  0.36986074185E+03  0.12700000000E+01 0. -1.
<mgrwt>
<rscale>  1 0.16147626E+03</rscale>
<asrwt>0</asrwt>
<pdfrwt beam="2">  1       21 0.83152132E-01 0.16147626E+03</pdfrwt>
<pdfrwt beam="1">  1        4 0.67476288E-02 0.16147626E+03</pdfrwt>
<totfact> 0.77080578E+03</totfact>
</mgrwt>
</event>
<event>
 6    4  0.6195789E-003  0.1280513E+03  0.7818608E-02  0.1230376E+00
          4   -1    0    0  502    0 -0.00000000000E+00  0.00000000000E+00  0.14389670830E+03  0.14390231256E+03  0.12700000000E+01 0.  1.
         21   -1    0    0  501  502  0.00000000000E+00 -0.00000000000E+00 -0.53315271930E+02  0.53315271930E+02  0.00000000000E+00 0.  1.
         25    2    1    2    0    0  0.25742594356E+02 -0.10454944349E+02  0.10526635220E+03  0.16576529239E+03  0.12500056091E+03 0.  0.
    9000005    1    3    3    0    0  0.25274863024E+02 -0.10382946687E+02  0.13412589607E+03  0.13688455091E+03  0.10000000000E+01 0.  0.
    9000005    1    3    3    0    0  0.46773133254E+00 -0.71997662011E-01 -0.28859543863E+02  0.28880741476E+02  0.10000000000E+01 0.  0.
          4    1    1    2  501    0 -0.25742594356E+02  0.10454944349E+02 -0.14684915831E+02  0.31452292102E+02  0.12700000000E+01 0. -1.
<mgrwt>
<rscale>  1 0.12805127E+03</rscale>
<asrwt>0</asrwt>
<pdfrwt beam="2">  1       21 0.82023496E-02 0.12805127E+03</pdfrwt>
<pdfrwt beam="1">  1        4 0.22139550E-01 0.12805127E+03</pdfrwt>
<totfact> 0.86086860E+04</totfact>
</mgrwt>
</event>
<event>
 6    4  0.6195789E-003  0.1289451E+03  0.7818608E-02  0.1229029E+00
         21   -1    0    0  501  502  0.00000000000E+00  0.00000000000E+00  0.63092484671E+03  0.63092484671E+03  0.00000000000E+00 0.  1.
         -4   -1    0    0    0  501 -0.00000000000E+00 -0.00000000000E+00 -0.14403949093E+02  0.14459828819E+02  0.12700000000E+01 0. -1.
         25    2    1    2    0    0 -0.31217382648E+02  0.50674958031E+01  0.29051118448E+03  0.31784208218E+03  0.12500654546E+03 0.  0.
    9000005    1    3    3    0    0 -0.44096215492E+02  0.34428928824E+02  0.49503069702E+02  0.74708642543E+02  0.10000000000E+01 0.  0.
    9000005    1    3    3    0    0  0.12878832843E+02 -0.29361433021E+02  0.24100811478E+03  0.24313343964E+03  0.10000000000E+01 0.  0.
         -4    1    1    2    0  502  0.31217382648E+02 -0.50674958031E+01  0.32600971314E+03  0.32754259335E+03  0.12700000000E+01 0.  1.
<mgrwt>
<rscale>  1 0.12894511E+03</rscale>
<asrwt>0</asrwt>
<pdfrwt beam="1">  1       21 0.97065340E-01 0.12894511E+03</pdfrwt>
<pdfrwt beam="2">  1       -4 0.22203894E-02 0.12894511E+03</pdfrwt>
<totfact> 0.31152523E+04</totfact>
</mgrwt>
</event>
<event>
 6    4  0.6195789E-003  0.1269129E+03  0.7818608E-02  0.1232110E+00
         21   -1    0    0  501  502  0.00000000000E+00  0.00000000000E+00  0.19167601860E+02  0.19167601860E+02  0.00000000000E+00 0. -1.
          4   -1    0    0  502    0 -0.00000000000E+00 -0.00000000000E+00 -0.34376260285E+03  0.34376494879E+03  0.12700000000E+01 0. -1.
         25    2    1    2    0    0 -0.15689186977E+02  0.15346076706E+02 -0.31369487283E+03  0.33839526571E+03  0.12500091983E+03 0.  0.
    9000005    1    3    3    0    0  0.44021787295E+02  0.44552341486E+01 -0.23434829486E+03  0.23849085973E+03  0.10000000000E+01 0.  0.
    9000005    1    3    3    0    0 -0.59710974272E+02  0.10890842557E+02 -0.79346577970E+02  0.99904405987E+02  0.10000000000E+01 0.  0.
          4    1    1    2  501    0  0.15689186977E+02 -0.15346076706E+02 -0.10900128153E+02  0.24537284936E+02  0.12700000000E+01 0.  1.
<mgrwt>
<rscale>  1 0.12691289E+03</rscale>
<asrwt>0</asrwt>
<pdfrwt beam="1">  1       21 0.29488623E-02 0.12691289E+03</pdfrwt>
<pdfrwt beam="2">  1        4 0.52889962E-01 0.12691289E+03</pdfrwt>
<totfact> 0.89537071E+04</totfact>
</mgrwt>
</event>
<event>
 6    4  0.6195789E-003  0.1389374E+03  0.7818608E-02  0.1214766E+00
          4   -1    0    0  502    0 -0.00000000000E+00  0.00000000000E+00  0.15380431773E+02  0.15432776209E+02  0.12700000000E+01 0.  1.
         21   -1    0    0  501  502  0.00000000000E+00 -0.00000000000E+00 -0.66162695581E+03  0.66162695581E+03  0.00000000000E+00 0.  1.
         25    2    1    2    0    0  0.66857109703E+01  0.60258721163E+02 -0.39948678858E+03  0.42295779942E+03  0.12501117403E+03 0.  0.
    9000005    1    3    3    0    0 -0.20077043949E+01  0.18616147204E+02  0.23292709950E+01  0.18894901879E+02  0.10000000000E+01 0.  0.
    9000005    1    3    3    0    0  0.86934153651E+01  0.41642573959E+02 -0.40181605957E+03  0.40406289754E+03  0.10000000000E+01 0.  0.
          4    1    1    2  501    0 -0.66857109703E+01 -0.60258721163E+02 -0.24675973546E+03  0.25410193260E+03  0.12700000000E+01 0. -1.
<mgrwt>
<rscale>  1 0.13893742E+03</rscale>
<asrwt>0</asrwt>
<pdfrwt beam="2">  1       21 0.10178876E+00 0.13893742E+03</pdfrwt>
<pdfrwt beam="1">  1        4 0.23703406E-02 0.13893742E+03</pdfrwt>
<totfact> 0.25345931E+04</totfact>
</mgrwt>
</event>
<event>
 6    4  0.6195789E-003  0.1317110E+03  0.7818608E-02  0.1224939E+00
          4   -1    0    0  502    0 -0.00000000000E+00  0.00000000000E+00  0.74658975571E+02  0.74669776572E+02  0.12700000000E+01 0.  1.
         21   -1    0    0  501  502  0.00000000000E+00 -0.00000000000E+00 -0.12538193725E+03  0.12538193725E+03  0.00000000000E+00 0. -1.
         25    2    1    2    0    0 -0.24139229883E+02  0.33749242591E+02  0.35057952930E+01  0.13175760882E+03  0.12500425228E+03 0.  0.
    9000005    1    3    3    0    0 -0.63701968556E+02  0.17568907837E+02 -0.34501067805E+02  0.74551532514E+02  0.10000000000E+01 0.  0.
    9000005    1    3    3    0    0  0.39562738673E+02  0.16180334754E+02  0.38006863098E+02  0.57206076309E+02  0.10000000000E+01 0.  0.
          4    1    1    2  501    0  0.24139229883E+02 -0.33749242591E+02 -0.54228756967E+02  0.68294104995E+02  0.12700000000E+01 0. -1.
<mgrwt>
<rscale>  1 0.13171096E+03</rscale>
<asrwt>0</asrwt>
<pdfrwt beam="2">  1       21 0.19289529E-01 0.13171096E+03</pdfrwt>
<pdfrwt beam="1">  1        4 0.11487322E-01 0.13171096E+03</pdfrwt>
<totfact> 0.59689868E+04</totfact>
</mgrwt>
</event>
<event>
 6    4  0.6195789E-003  0.1284932E+03  0.7818608E-02  0.1229709E+00
         21   -1    0    0  501  502  0.00000000000E+00  0.00000000000E+00  0.14589728688E+02  0.14589728688E+02  0.00000000000E+00 0. -1.
          4   -1    0    0  502    0 -0.00000000000E+00 -0.00000000000E+00 -0.52124945725E+03  0.52125100439E+03  0.12700000000E+01 0. -1.
         25    2    1    2    0    0  0.22314624508E+02 -0.19682698352E+02 -0.29062869159E+03  0.31776649592E+03  0.12500063388E+03 0.  0.
    9000005    1    3    3    0    0 -0.29432704010E+02 -0.18506345272E+02 -0.15972718942E+02  0.38273968060E+02  0.10000000000E+01 0.  0.
    9000005    1    3    3    0    0  0.51747328518E+02 -0.11763530791E+01 -0.27465597265E+03  0.27949252785E+03  0.10000000000E+01 0.  0.
          4    1    1    2  501    0 -0.22314624508E+02  0.19682698352E+02 -0.21603103697E+03  0.21807423717E+03  0.12700000000E+01 0.  1.
<mgrwt>
<rscale>  1 0.12849323E+03</rscale>
<asrwt>0</asrwt>
<pdfrwt beam="1">  1       21 0.22445739E-02 0.12849323E+03</pdfrwt>
<pdfrwt beam="2">  1        4 0.80196586E-01 0.12849323E+03</pdfrwt>
<totfact> 0.57685332E+04</totfact>
</mgrwt>
</event>
<event>
 6    4  0.6195789E-003  0.1270566E+03  0.7818608E-02  0.1231890E+00
         21   -1    0    0  501  502  0.00000000000E+00  0.00000000000E+00  0.34824685327E+02  0.34824685327E+02  0.00000000000E+00 0. -1.
          4   -1    0    0  502    0 -0.00000000000E+00 -0.00000000000E+00 -0.23713257061E+03  0.23713597142E+03  0.12700000000E+01 0.  1.
         25    2    1    2    0    0 -0.18501910014E+02 -0.13264939036E+02 -0.21202119667E+03  0.24717677892E+03  0.12500037168E+03 0.  0.
    9000005    1    3    3    0    0 -0.10336755887E+02  0.39192570055E+02 -0.18141155388E+03  0.18588721836E+03  0.10000000000E+01 0.  0.
    9000005    1    3    3    0    0 -0.81651541272E+01 -0.52457509091E+02 -0.30609642791E+02  0.61289560561E+02  0.10000000000E+01 0.  0.
          4    1    1    2  501    0  0.18501910014E+02  0.13264939036E+02  0.97133113929E+01  0.24783877824E+02  0.12700000000E+01 0. -1.
<mgrwt>
<rscale>  1 0.12705657E+03</rscale>
<asrwt>0</asrwt>
<pdfrwt beam="1">  1       21 0.53576440E-02 0.12705657E+03</pdfrwt>
<pdfrwt beam="2">  1        4 0.36483976E-01 0.12705657E+03</pdfrwt>
<totfact> 0.69664063E+04</totfact>
</mgrwt>
</event>
<event>
 6    4  0.6195789E-003  0.1648868E+03  0.7818608E-02  0.1183287E+00
         -4   -1    0    0    0  501 -0.00000000000E+00  0.00000000000E+00  0.13607930452E+03  0.13608523071E+03  0.12700000000E+01 0. -1.
         21   -1    0    0  501  502  0.00000000000E+00 -0.00000000000E+00 -0.20597539691E+03  0.20597539691E+03  0.00000000000E+00 0.  1.
         25    2    1    2    0    0 -0.94364008923E+02 -0.51602656839E+02  0.58144191223E+02  0.17483823827E+03  0.12498104742E+03 0.  0.
    9000005    1    3    3    0    0  0.11519156020E+02 -0.41005720154E+01 -0.27825625004E+02  0.30410048555E+02  0.10000000000E+01 0.  0.
    9000005    1    3    3    0    0 -0.10588316494E+03 -0.47502084823E+02  0.85969816228E+02  0.14442818971E+03  0.10000000000E+01 0.  0.
         -4    1    1    2    0  502  0.94364008923E+02  0.51602656839E+02 -0.12804028361E+03  0.16722238935E+03  0.12700000000E+01 0.  1.
<mgrwt>
<rscale>  1 0.16488682E+03</rscale>
<asrwt>0</asrwt>
<pdfrwt beam="2">  1       21 0.31688523E-01 0.16488682E+03</pdfrwt>
<pdfrwt beam="1">  1       -4 0.20936035E-01 0.16488682E+03</pdfrwt>
<totfact> 0.82871429E+03</totfact>
</mgrwt>
</event>
<event>
 6    4  0.6195789E-003  0.1294801E+03  0.7818608E-02  0.1228229E+00
         21   -1    0    0  501  502  0.00000000000E+00  0.00000000000E+00  0.24368835975E+03  0.24368835975E+03  0.00000000000E+00 0. -1.
         -4   -1    0    0    0  501 -0.00000000000E+00 -0.00000000000E+00 -0.38006389312E+02  0.38027602193E+02  0.12700000000E+01 0. -1.
         25    2    1    2    0    0 -0.22111976910E+02 -0.25439989239E+02  0.81407693695E+02  0.15294546324E+03  0.12501587723E+03 0.  0.
    9000005    1    3    3    0    0  0.41990124516E+02 -0.14757376879E+02 -0.50262356162E+01  0.44801939396E+02  0.10000000000E+01 0.  0.
    9000005    1    3    3    0    0 -0.64102101426E+02 -0.10682612360E+02  0.86433929311E+02  0.10814352385E+03  0.10000000000E+01 0.  0.
         -4    1    1    2    0  502  0.22111976910E+02  0.25439989239E+02  0.12427427675E+03  0.12877049870E+03  0.12700000000E+01 0.  1.
<mgrwt>
<rscale>  1 0.12948012E+03</rscale>
<asrwt>0</asrwt>
<pdfrwt beam="1">  1       21 0.37490516E-01 0.12948012E+03</pdfrwt>
<pdfrwt beam="2">  1       -4 0.58490233E-02 0.12948012E+03</pdfrwt>
<totfact> 0.51383972E+04</totfact>
</mgrwt>
</event>
<event>
 6    4  0.6195789E-003  0.1394079E+03  0.7818608E-02  0.1214128E+00
         -4   -1    0    0    0  501 -0.00000000000E+00  0.00000000000E+00  0.95711048440E+02  0.95719473952E+02  0.12700000000E+01 0. -1.
         21   -1    0    0  501  502  0.00000000000E+00 -0.00000000000E+00 -0.12152307144E+03  0.12152307144E+03  0.00000000000E+00 0.  1.
         25    2    1    2    0    0  0.57350794353E+02  0.22804245340E+02  0.19364325743E+02  0.14074638467E+03  0.12500168186E+03 0.  0.
    9000005    1    3    3    0    0 -0.10344992673E+02  0.11194647410E+02 -0.44441250298E+02  0.46993230706E+02  0.10000000000E+01 0.  0.
    9000005    1    3    3    0    0  0.67695787027E+02  0.11609597930E+02  0.63805576041E+02  0.93753153969E+02  0.10000000000E+01 0.  0.
         -4    1    1    2    0  502 -0.57350794353E+02 -0.22804245340E+02 -0.45176348738E+02  0.76496160713E+02  0.12700000000E+01 0.  1.
<mgrwt>
<rscale>  1 0.13940792E+03</rscale>
<asrwt>0</asrwt>
<pdfrwt beam="2">  1       21 0.18695857E-01 0.13940792E+03</pdfrwt>
<pdfrwt beam="1">  1       -4 0.14725935E-01 0.13940792E+03</pdfrwt>
<totfact> 0.41486048E+04</totfact>
</mgrwt>
</event>
<event>
 6    4  0.6195789E-003  0.1395803E+03  0.7818608E-02  0.1213895E+00
         21   -1    0    0  501  502  0.00000000000E+00  0.00000000000E+00  0.11774092120E+04  0.11774092120E+04  0.00000000000E+00 0. -1.
         -4   -1    0    0    0  501 -0.00000000000E+00 -0.00000000000E+00 -0.86066460260E+01  0.86998422869E+01  0.12700000000E+01 0. -1.
         25    2    1    2    0    0  0.61097858579E+01 -0.61808312087E+02  0.78553784146E+03  0.79784231752E+03  0.12500026530E+03 0.  0.
    9000005    1    3    3    0    0  0.18426082916E+02  0.25634120017E+02  0.44228051597E+03  0.44340690505E+03  0.10000000000E+01 0.  0.
    9000005    1    3    3    0    0 -0.12316297059E+02 -0.87442432104E+02  0.34325732549E+03  0.35443541246E+03  0.10000000000E+01 0.  0.
         -4    1    1    2    0  502 -0.61097858579E+01  0.61808312087E+02  0.38326472446E+03  0.38826673672E+03  0.12700000000E+01 0.  1.
<mgrwt>
<rscale>  1 0.13958031E+03</rscale>
<asrwt>0</asrwt>
<pdfrwt beam="1">  1       21 0.18113975E+00 0.13958031E+03</pdfrwt>
<pdfrwt beam="2">  1       -4 0.13313220E-02 0.13958031E+03</pdfrwt>
<totfact> 0.14217155E+04</totfact>
</mgrwt>
</event>
<event>
 6    4  0.6195789E-003  0.1292170E+03  0.7818608E-02  0.1228622E+00
         21   -1    0    0  501  502  0.00000000000E+00  0.00000000000E+00  0.46691358756E+02  0.46691358756E+02  0.00000000000E+00 0.  1.
          4   -1    0    0  502    0 -0.00000000000E+00 -0.00000000000E+00 -0.19091198646E+03  0.19091621061E+03  0.12700000000E+01 0. -1.
         25    2    1    2    0    0 -0.27262275193E+02 -0.18132435690E+02 -0.15619991958E+03  0.20272013314E+03  0.12500008252E+03 0.  0.
    9000005    1    3    3    0    0 -0.53066931858E+01  0.30751086015E+02  0.60889668763E+01  0.31809838121E+02  0.10000000000E+01 0.  0.
    9000005    1    3    3    0    0 -0.21955582007E+02 -0.48883521705E+02 -0.16228888646E+03  0.17091029502E+03  0.10000000000E+01 0.  0.
          4    1    1    2  501    0  0.27262275193E+02  0.18132435690E+02  0.11979291877E+02  0.34887436229E+02  0.12700000000E+01 0.  1.
<mgrwt>
<rscale>  1 0.12921702E+03</rscale>
<asrwt>0</asrwt>
<pdfrwt beam="1">  1       21 0.71832860E-02 0.12921702E+03</pdfrwt>
<pdfrwt beam="2">  1        4 0.29372728E-01 0.12921702E+03</pdfrwt>
<totfact> 0.64200964E+04</totfact>
</mgrwt>
</event>
<event>
 6    4  0.6195789E-003  0.1293017E+03  0.7818608E-02  0.1228496E+00
         21   -1    0    0  501  502  0.00000000000E+00  0.00000000000E+00  0.17780982379E+03  0.17780982379E+03  0.00000000000E+00 0. -1.
         -4   -1    0    0    0  501 -0.00000000000E+00 -0.00000000000E+00 -0.37197465086E+02  0.37219139012E+02  0.12700000000E+01 0. -1.
         25    2    1    2    0    0  0.25312660557E+01 -0.32977021550E+02  0.11691710915E+03  0.17432307859E+03  0.12500013624E+03 0.  0.
    9000005    1    3    3    0    0 -0.19081781324E+02 -0.23918632191E+02  0.13886532682E+03  0.14219983944E+03  0.10000000000E+01 0.  0.
    9000005    1    3    3    0    0  0.21613047379E+02 -0.90583893590E+01 -0.21948217667E+02  0.32123239151E+02  0.10000000000E+01 0.  0.
         -4    1    1    2    0  502 -0.25312660557E+01  0.32977021550E+02  0.23695249556E+02  0.40705884214E+02  0.12700000000E+01 0.  1.
<mgrwt>
<rscale>  1 0.12930168E+03</rscale>
<asrwt>0</asrwt>
<pdfrwt beam="1">  1       21 0.27355357E-01 0.12930168E+03</pdfrwt>
<pdfrwt beam="2">  1       -4 0.57247031E-02 0.12930168E+03</pdfrwt>
<totfact> 0.98173676E+04</totfact>
</mgrwt>
</event>
<event>
 6    4  0.6195789E-003  0.1317835E+03  0.7818608E-02  0.1224833E+00
          4   -1    0    0  502    0 -0.00000000000E+00  0.00000000000E+00  0.10296884630E+04  0.10296892462E+04  0.12700000000E+01 0. -1.
         21   -1    0    0  501  502  0.00000000000E+00 -0.00000000000E+00 -0.73169002959E+01  0.73169002959E+01  0.00000000000E+00 0. -1.
         25    2    1    2    0    0 -0.12414410082E+02 -0.39856484599E+02  0.76496788813E+03  0.77623628335E+03  0.12499696304E+03 0.  0.
    9000005    1    3    3    0    0 -0.66461383354E+02 -0.33811247724E+02  0.51867040263E+03  0.52400410544E+03  0.10000000000E+01 0.  0.
    9000005    1    3    3    0    0  0.54046973272E+02 -0.60452368741E+01  0.24629748550E+03  0.25223217791E+03  0.10000000000E+01 0.  0.
          4    1    1    2  501    0  0.12414410082E+02  0.39856484599E+02  0.25740367455E+03  0.26076986313E+03  0.12700000000E+01 0.  1.
<mgrwt>
<rscale>  1 0.13178353E+03</rscale>
<asrwt>0</asrwt>
<pdfrwt beam="2">  1       21 0.11256778E-02 0.13178353E+03</pdfrwt>
<pdfrwt beam="1">  1        4 0.15842203E+00 0.13178353E+03</pdfrwt>
<totfact> 0.34636561E+04</totfact>
</mgrwt>
</event>
<event>
 6    4  0.6195789E-003  0.1272978E+03  0.7818608E-02  0.1231521E+00
         21   -1    0    0  501  502  0.00000000000E+00  0.00000000000E+00  0.35592242139E+02  0.35592242139E+02  0.00000000000E+00 0.  1.
          4   -1    0    0  502    0 -0.00000000000E+00 -0.00000000000E+00 -0.36492534409E+03  0.36492755399E+03  0.12700000000E+01 0. -1.
         25    2    1    2    0    0  0.22255539911E+02  0.92156713115E+01 -0.34765558436E+03  0.37022847862E+03  0.12499793353E+03 0.  0.
    9000005    1    3    3    0    0 -0.29561759023E+02 -0.12133442036E+02 -0.28240280123E+03  0.28420672081E+03  0.10000000000E+01 0.  0.
    9000005    1    3    3    0    0  0.51817298934E+02  0.21349113348E+02 -0.65252783136E+02  0.86021757809E+02  0.10000000000E+01 0.  0.
          4    1    1    2  501    0 -0.22255539911E+02 -0.92156713115E+01  0.18322482414E+02  0.30291317506E+02  0.12700000000E+01 0.  1.
<mgrwt>
<rscale>  1 0.12729777E+03</rscale>
<asrwt>0</asrwt>
<pdfrwt beam="1">  1       21 0.54757294E-02 0.12729777E+03</pdfrwt>
<pdfrwt beam="2">  1        4 0.56144276E-01 0.12729777E+03</pdfrwt>
<totfact> 0.28319097E+04</totfact>
</mgrwt>
</event>
<event>
 6    4  0.6195789E-003  0.1279947E+03  0.7818608E-02  0.1230462E+00
          4   -1    0    0  502    0 -0.00000000000E+00  0.00000000000E+00  0.17940712415E+03  0.17941161918E+03  0.12700000000E+01 0. -1.
         21   -1    0    0  501  502  0.00000000000E+00 -0.00000000000E+00 -0.38200265744E+02  0.38200265744E+02  0.00000000000E+00 0.  1.
         25    2    1    2    0    0 -0.16954102095E+02  0.21992736212E+02  0.14013867613E+03  0.18979325920E+03  0.12494603101E+03 0.  0.
    9000005    1    3    3    0    0  0.15186774453E+02  0.53868498507E+02  0.13254798488E+03  0.14388336091E+03  0.10000000000E+01 0.  0.
    9000005    1    3    3    0    0 -0.32140876548E+02 -0.31875762295E+02  0.75906912503E+01  0.45909898288E+02  0.10000000000E+01 0.  0.
          4    1    1    2  501    0  0.16954102095E+02 -0.21992736212E+02  0.10681822757E+01  0.27818625727E+02  0.12700000000E+01 0.  1.
<mgrwt>
<rscale>  1 0.12799466E+03</rscale>
<asrwt>0</asrwt>
<pdfrwt beam="2">  1       21 0.58769641E-02 0.12799466E+03</pdfrwt>
<pdfrwt beam="1">  1        4 0.27603065E-01 0.12799466E+03</pdfrwt>
<totfact> 0.10139884E+05</totfact>
</mgrwt>
</event>
<event>
 6    4  0.6195789E-003  0.1268753E+03  0.7818608E-02  0.1232167E+00
         21   -1    0    0  501  502  0.00000000000E+00  0.00000000000E+00  0.13991962228E+03  0.13991962228E+03  0.00000000000E+00 0. -1.
         -4   -1    0    0    0  501 -0.00000000000E+00 -0.00000000000E+00 -0.61580180953E+02  0.61593275495E+02  0.12700000000E+01 0.  1.
         25    2    1    2    0    0  0.20471239341E+02  0.72937345493E+01  0.71579339812E+01  0.12707708588E+03  0.12500031814E+03 0.  0.
    9000005    1    3    3    0    0  0.64144433389E+02  0.35006473947E+02  0.15412180106E+02  0.74689335575E+02  0.10000000000E+01 0.  0.
    9000005    1    3    3    0    0 -0.43673194048E+02 -0.27712739398E+02 -0.82542461249E+01  0.52387750308E+02  0.10000000000E+01 0.  0.
         -4    1    1    2    0  502 -0.20471239341E+02 -0.72937345493E+01  0.71181507344E+02  0.74435811889E+02  0.12700000000E+01 0. -1.
<mgrwt>
<rscale>  1 0.12687533E+03</rscale>
<asrwt>0</asrwt>
<pdfrwt beam="1">  1       21 0.21526096E-01 0.12687533E+03</pdfrwt>
<pdfrwt beam="2">  1       -4 0.94753247E-02 0.12687533E+03</pdfrwt>
<totfact> 0.67116187E+04</totfact>
</mgrwt>
</event>
<event>
 6    4  0.6195789E-003  0.1271321E+03  0.7818608E-02  0.1231774E+00
         21   -1    0    0  501  502  0.00000000000E+00  0.00000000000E+00  0.10856842273E+04  0.10856842273E+04  0.00000000000E+00 0.  1.
         -4   -1    0    0    0  501 -0.00000000000E+00 -0.00000000000E+00 -0.51503605446E+01  0.53046313481E+01  0.12700000000E+01 0.  1.
         25    2    1    2    0    0  0.17358870378E+02 -0.15359417842E+02  0.93821471686E+03  0.94678901321E+03  0.12500135402E+03 0.  0.
    9000005    1    3    3    0    0  0.36688418953E+02 -0.53975892399E+02  0.78178070469E+03  0.78450080132E+03  0.10000000000E+01 0.  0.
    9000005    1    3    3    0    0 -0.19329548575E+02  0.38616474557E+02  0.15643401217E+03  0.16228821189E+03  0.10000000000E+01 0.  0.
         -4    1    1    2    0  502 -0.17358870378E+02  0.15359417842E+02  0.14231914994E+03  0.14419984548E+03  0.12700000000E+01 0. -1.
<mgrwt>
<rscale>  1 0.12713214E+03</rscale>
<asrwt>0</asrwt>
<pdfrwt beam="1">  1       21 0.16702816E+00 0.12713214E+03</pdfrwt>
<pdfrwt beam="2">  1       -4 0.80428815E-03 0.12713214E+03</pdfrwt>
<totfact> 0.37733950E+04</totfact>
</mgrwt>
</event>
<event>
 6    4  0.6195789E-003  0.1282196E+03  0.7818608E-02  0.1230122E+00
         21   -1    0    0  501  502  0.00000000000E+00  0.00000000000E+00  0.97660868365E+01  0.97660868365E+01  0.00000000000E+00 0.  1.
          4   -1    0    0  502    0 -0.00000000000E+00 -0.00000000000E+00 -0.63460414874E+03  0.63460541954E+03  0.12700000000E+01 0.  1.
         25    2    1    2    0    0 -0.17478059068E+02 -0.22563649722E+02 -0.53222345162E+03  0.54745050877E+03  0.12500262501E+03 0.  0.
    9000005    1    3    3    0    0 -0.26486959034E+02 -0.41284006420E+02 -0.74185301045E+02  0.88940356847E+02  0.10000000000E+01 0.  0.
    9000005    1    3    3    0    0  0.90088999661E+01  0.18720356697E+02 -0.45803815058E+03  0.45851015192E+03  0.10000000000E+01 0.  0.
          4    1    1    2  501    0  0.17478059068E+02  0.22563649722E+02 -0.92614610287E+02  0.96920997602E+02  0.12700000000E+01 0. -1.
<mgrwt>
<rscale>  1 0.12821957E+03</rscale>
<asrwt>0</asrwt>
<pdfrwt beam="1">  1       21 0.15024748E-02 0.12821957E+03</pdfrwt>
<pdfrwt beam="2">  1        4 0.97637863E-01 0.12821957E+03</pdfrwt>
<totfact> 0.70635126E+04</totfact>
</mgrwt>
</event>
<event>
 6    4  0.6195789E-003  0.1364241E+03  0.7818608E-02  0.1218223E+00
         -4   -1    0    0    0  501 -0.00000000000E+00  0.00000000000E+00  0.70641456534E+03  0.70641570695E+03  0.12700000000E+01 0.  1.
         21   -1    0    0  501  502  0.00000000000E+00 -0.00000000000E+00 -0.15669749342E+02  0.15669749342E+02  0.00000000000E+00 0. -1.
         25    2    1    2    0    0  0.47863928409E+02  0.26379162938E+02  0.60653080800E+03  0.62168412202E+03  0.12499884256E+03 0.  0.
    9000005    1    3    3    0    0  0.30085625981E+02 -0.47647762457E+02  0.33381362199E+03  0.33853801616E+03  0.10000000000E+01 0.  0.
    9000005    1    3    3    0    0  0.17778302428E+02  0.74026925395E+02  0.27271718601E+03  0.28314610587E+03  0.10000000000E+01 0.  0.
         -4    1    1    2    0  502 -0.47863928409E+02 -0.26379162938E+02  0.84214007993E+02  0.10040133427E+03  0.12700000000E+01 0. -1.
<mgrwt>
<rscale>  1 0.13642407E+03</rscale>
<asrwt>0</asrwt>
<pdfrwt beam="2">  1       21 0.24107312E-02 0.13642407E+03</pdfrwt>
<pdfrwt beam="1">  1       -4 0.10868319E+00 0.13642407E+03</pdfrwt>
<totfact> 0.25892345E+04</totfact>
</mgrwt>
</event>
<event>
 6    4  0.6195789E-003  0.1267002E+03  0.7818608E-02  0.1232436E+00
         21   -1    0    0  501  502  0.00000000000E+00  0.00000000000E+00  0.13052155891E+03  0.13052155891E+03  0.00000000000E+00 0. -1.
         -4   -1    0    0    0  501 -0.00000000000E+00 -0.00000000000E+00 -0.42112483962E+02  0.42131629513E+02  0.12700000000E+01 0. -1.
         25    2    1    2    0    0 -0.20090470615E+02  0.49161922379E+01  0.69046222698E+02  0.14429249550E+03  0.12500058973E+03 0.  0.
    9000005    1    3    3    0    0  0.13944435020E+02 -0.95394603455E+01  0.96660438800E+02  0.98130978802E+02  0.10000000000E+01 0.  0.
    9000005    1    3    3    0    0 -0.34034905634E+02  0.14455652583E+02 -0.27614216102E+02  0.46161516700E+02  0.10000000000E+01 0.  0.
         -4    1    1    2    0  502  0.20090470615E+02 -0.49161922379E+01  0.19362852247E+02  0.28360692918E+02  0.12700000000E+01 0.  1.
<mgrwt>
<rscale>  1 0.12670021E+03</rscale>
<asrwt>0</asrwt>
<pdfrwt beam="1">  1       21 0.20080240E-01 0.12670021E+03</pdfrwt>
<pdfrwt beam="2">  1       -4 0.64807918E-02 0.12670021E+03</pdfrwt>
<totfact> 0.14299764E+05</totfact>
</mgrwt>
</event>
<event>
 6    4  0.6195789E-003  0.1298330E+03  0.7818608E-02  0.1227704E+00
         -4   -1    0    0    0  501 -0.00000000000E+00  0.00000000000E+00  0.50410763601E+03  0.50410923576E+03  0.12700000000E+01 0. -1.
         21   -1    0    0  501  502  0.00000000000E+00 -0.00000000000E+00 -0.14747936132E+02  0.14747936132E+02  0.00000000000E+00 0.  1.
         25    2    1    2    0    0  0.10903016407E+02  0.33373560534E+02  0.43640105618E+03  0.45530482220E+03  0.12499571583E+03 0.  0.
    9000005    1    3    3    0    0 -0.23207028718E+02  0.72345877443E+02  0.29777686651E+03  0.30731832747E+03  0.10000000000E+01 0.  0.
    9000005    1    3    3    0    0  0.34110045125E+02 -0.38972316909E+02  0.13862418966E+03  0.14798649473E+03  0.10000000000E+01 0.  0.
         -4    1    1    2    0  502 -0.10903016407E+02 -0.33373560534E+02  0.52958643697E+02  0.63552349695E+02  0.12700000000E+01 0.  1.
<mgrwt>
<rscale>  1 0.12983297E+03</rscale>
<asrwt>0</asrwt>
<pdfrwt beam="2">  1       21 0.22689136E-02 0.12983297E+03</pdfrwt>
<pdfrwt beam="1">  1       -4 0.77559337E-01 0.12983297E+03</pdfrwt>
<totfact> 0.61106339E+04</totfact>
</mgrwt>
</event>
<event>
 6    4  0.6195789E-003  0.1277852E+03  0.7818608E-02  0.1230780E+00
         21   -1    0    0  501  502  0.00000000000E+00  0.00000000000E+00  0.60611963072E+03  0.60611963072E+03  0.00000000000E+00 0.  1.
         -4   -1    0    0    0  501 -0.00000000000E+00 -0.00000000000E+00 -0.12988016475E+02  0.13049960612E+02  0.12700000000E+01 0. -1.
         25    2    1    2    0    0  0.96277519139E+01 -0.24731644893E+02  0.31735300643E+03  0.34211399891E+03  0.12499883876E+03 0.  0.
    9000005    1    3    3    0    0 -0.14228755790E+02  0.32622243745E+02  0.24129650932E+03  0.24390915048E+03  0.10000000000E+01 0.  0.
    9000005    1    3    3    0    0  0.23856507704E+02 -0.57353888638E+02  0.76056497114E+02  0.98204848429E+02  0.10000000000E+01 0.  0.
         -4    1    1    2    0  502 -0.96277519139E+01  0.24731644893E+02  0.27577860781E+03  0.27705559242E+03  0.12700000000E+01 0.  1.
<mgrwt>
<rscale>  1 0.12778520E+03</rscale>
<asrwt>0</asrwt>
<pdfrwt beam="1">  1       21 0.93249152E-01 0.12778520E+03</pdfrwt>
<pdfrwt beam="2">  1       -4 0.20030241E-02 0.12778520E+03</pdfrwt>
<totfact> 0.40032267E+04</totfact>
</mgrwt>
</event>
<event>
 6    4  0.6195789E-003  0.1288494E+03  0.7818608E-02  0.1229173E+00
          4   -1    0    0  502    0 -0.00000000000E+00  0.00000000000E+00  0.17874434672E+03  0.17874885841E+03  0.12700000000E+01 0. -1.
         21   -1    0    0  501  502  0.00000000000E+00 -0.00000000000E+00 -0.68368376821E+02  0.68368376821E+02  0.00000000000E+00 0.  1.
         25    2    1    2    0    0 -0.26736899702E+02  0.16269463775E+02  0.14926260323E+03  0.19718387556E+03  0.12499039483E+03 0.  0.
    9000005    1    3    3    0    0 -0.39593908302E+02  0.64080948347E+02  0.11298905018E+03  0.13579974587E+03  0.10000000000E+01 0.  0.
    9000005    1    3    3    0    0  0.12857008600E+02 -0.47811484572E+02  0.36273553046E+02  0.61384129689E+02  0.10000000000E+01 0.  0.
          4    1    1    2  501    0  0.26736899702E+02 -0.16269463775E+02 -0.38886633331E+02  0.49933359681E+02  0.12700000000E+01 0.  1.
<mgrwt>
<rscale>  1 0.12884935E+03</rscale>
<asrwt>0</asrwt>
<pdfrwt beam="2">  1       21 0.10518212E-01 0.12884935E+03</pdfrwt>
<pdfrwt beam="1">  1        4 0.27500384E-01 0.12884935E+03</pdfrwt>
<totfact> 0.37488620E+04</totfact>
</mgrwt>
</event>
<event>
 6    4  0.6195789E-003  0.1284276E+03  0.7818608E-02  0.1229808E+00
         21   -1    0    0  501  502  0.00000000000E+00  0.00000000000E+00  0.14510430369E+04  0.14510430369E+04  0.00000000000E+00 0.  1.
         -4   -1    0    0    0  501 -0.00000000000E+00 -0.00000000000E+00 -0.50822693094E+01  0.52385457269E+01  0.12700000000E+01 0.  1.
         25    2    1    2    0    0 -0.60092610430E+01  0.28851005249E+02  0.85566213420E+03  0.86524640499E+03  0.12500064688E+03 0.  0.
    9000005    1    3    3    0    0  0.18431520925E+02 -0.15747340846E+01  0.15435698080E+02  0.24113513354E+02  0.10000000000E+01 0.  0.
    9000005    1    3    3    0    0 -0.24440781968E+02  0.30425739333E+02  0.84022643612E+03  0.84113289164E+03  0.10000000000E+01 0.  0.
         -4    1    1    2    0  502  0.60092610430E+01 -0.28851005249E+02  0.59029863334E+03  0.59103517758E+03  0.12700000000E+01 0. -1.
<mgrwt>
<rscale>  1 0.12842762E+03</rscale>
<asrwt>0</asrwt>
<pdfrwt beam="1">  1       21 0.22323707E+00 0.12842762E+03</pdfrwt>
<pdfrwt beam="2">  1       -4 0.79395275E-03 0.12842762E+03</pdfrwt>
<totfact> 0.16807592E+04</totfact>
</mgrwt>
</event>
<event>
 6    4  0.6195789E-003  0.1409140E+03  0.7818608E-02  0.1212104E+00
         -4   -1    0    0    0  501 -0.00000000000E+00  0.00000000000E+00  0.42689500356E+03  0.42689689266E+03  0.12700000000E+01 0.  1.
         21   -1    0    0  501  502  0.00000000000E+00 -0.00000000000E+00 -0.14151921088E+03  0.14151921088E+03  0.00000000000E+00 0. -1.
         25    2    1    2    0    0  0.55897321837E+02 -0.33235426008E+02  0.40688383752E+03  0.43059403713E+03  0.12501065335E+03 0.  0.
    9000005    1    3    3    0    0 -0.22022477898E+02 -0.54691329569E+02  0.19890675942E+03  0.20746332207E+03  0.10000000000E+01 0.  0.
    9000005    1    3    3    0    0  0.77919799736E+02  0.21455903561E+02  0.20797707810E+03  0.22313071506E+03  0.10000000000E+01 0.  0.
         -4    1    1    2    0  502 -0.55897321837E+02  0.33235426008E+02 -0.12150804484E+03  0.13782206641E+03  0.12700000000E+01 0. -1.
<mgrwt>
<rscale>  1 0.14091404E+03</rscale>
<asrwt>0</asrwt>
<pdfrwt beam="2">  1       21 0.21772186E-01 0.14091404E+03</pdfrwt>
<pdfrwt beam="1">  1       -4 0.65676738E-01 0.14091404E+03</pdfrwt>
<totfact> 0.17917205E+03</totfact>
</mgrwt>
</event>
<event>
 6    4  0.6195789E-003  0.1277500E+03  0.7818608E-02  0.1230833E+00
         -4   -1    0    0    0  501 -0.00000000000E+00  0.00000000000E+00  0.45459933208E+02  0.45477669546E+02  0.12700000000E+01 0.  1.
         21   -1    0    0  501  502  0.00000000000E+00 -0.00000000000E+00 -0.14946379824E+03  0.14946379824E+03  0.00000000000E+00 0.  1.
         25    2    1    2    0    0  0.24970327538E+02 -0.85522506298E+01 -0.54629124981E+02  0.13894025259E+03  0.12499357682E+03 0.  0.
    9000005    1    3    3    0    0 -0.40642624735E+02 -0.35309229961E+02 -0.38684115422E+02  0.66302529755E+02  0.10000000000E+01 0.  0.
    9000005    1    3    3    0    0  0.65612952274E+02  0.26756979332E+02 -0.15945009559E+02  0.72637722836E+02  0.10000000000E+01 0.  0.
         -4    1    1    2    0  502 -0.24970327538E+02  0.85522506298E+01 -0.49374740049E+02  0.56001215193E+02  0.12700000000E+01 0. -1.
<mgrwt>
<rscale>  1 0.12774996E+03</rscale>
<asrwt>0</asrwt>
<pdfrwt beam="2">  1       21 0.22994430E-01 0.12774996E+03</pdfrwt>
<pdfrwt beam="1">  1       -4 0.69956154E-02 0.12774996E+03</pdfrwt>
<totfact> 0.98180222E+04</totfact>
</mgrwt>
</event>
<event>
 6    4  0.6195789E-003  0.1278114E+03  0.7818608E-02  0.1230740E+00
         21   -1    0    0  501  502  0.00000000000E+00  0.00000000000E+00  0.18235076738E+03  0.18235076738E+03  0.00000000000E+00 0.  1.
         -4   -1    0    0    0  501 -0.00000000000E+00 -0.00000000000E+00 -0.53321524347E+02  0.53336646489E+02  0.12700000000E+01 0. -1.
         25    2    1    2    0    0  0.13992067849E+02 -0.22728089339E+02  0.27546725985E+02  0.13074620092E+03  0.12499361158E+03 0.  0.
    9000005    1    3    3    0    0 -0.23778036659E+02  0.27879478645E+02  0.51488845755E+02  0.63204126401E+02  0.10000000000E+01 0.  0.
    9000005    1    3    3    0    0  0.37770104508E+02 -0.50607567984E+02 -0.23942119770E+02  0.67542074523E+02  0.10000000000E+01 0.  0.
         -4    1    1    2    0  502 -0.13992067849E+02  0.22728089339E+02  0.10148251705E+03  0.10494121295E+03  0.12700000000E+01 0.  1.
<mgrwt>
<rscale>  1 0.12781137E+03</rscale>
<asrwt>0</asrwt>
<pdfrwt beam="1">  1       21 0.28053964E-01 0.12781137E+03</pdfrwt>
<pdfrwt beam="2">  1       -4 0.82048150E-02 0.12781137E+03</pdfrwt>
<totfact> 0.51812788E+04</totfact>
</mgrwt>
</event>
<event>
 6    4  0.6195789E-003  0.1280386E+03  0.7818608E-02  0.1230396E+00
         21   -1    0    0  501  502  0.00000000000E+00  0.00000000000E+00  0.79270447233E+02  0.79270447233E+02  0.00000000000E+00 0. -1.
         -4   -1    0    0    0  501 -0.00000000000E+00 -0.00000000000E+00 -0.74393871470E+03  0.74393979873E+03  0.12700000000E+01 0.  1.
         25    2    1    2    0    0 -0.24392324299E+02 -0.13195684310E+02 -0.73579780102E+03  0.74685492518E+03  0.12499905483E+03 0.  0.
    9000005    1    3    3    0    0  0.44851835974E+01  0.49912998414E+02 -0.44847402860E+03  0.45126641645E+03  0.10000000000E+01 0.  0.
    9000005    1    3    3    0    0 -0.28877507896E+02 -0.63108682724E+02 -0.28732377241E+03  0.29558850873E+03  0.10000000000E+01 0.  0.
         -4    1    1    2    0  502  0.24392324299E+02  0.13195684310E+02  0.71129533549E+02  0.76355320784E+02  0.12700000000E+01 0. -1.
<mgrwt>
<rscale>  1 0.12803857E+03</rscale>
<asrwt>0</asrwt>
<pdfrwt beam="1">  1       21 0.12195453E-01 0.12803857E+03</pdfrwt>
<pdfrwt beam="2">  1       -4 0.11445298E+00 0.12803857E+03</pdfrwt>
<totfact> 0.14683534E+03</totfact>
</mgrwt>
</event>
<event>
 6    4  0.6195789E-003  0.1281132E+03  0.7818608E-02  0.1230283E+00
         21   -1    0    0  501  502  0.00000000000E+00  0.00000000000E+00  0.13124000145E+03  0.13124000145E+03  0.00000000000E+00 0. -1.
          4   -1    0    0  502    0 -0.00000000000E+00 -0.00000000000E+00 -0.83194976799E+02  0.83204669728E+02  0.12700000000E+01 0. -1.
         25    2    1    2    0    0  0.26367992833E+01 -0.27948122052E+02 -0.29928052113E+02  0.13156244246E+03  0.12499975091E+03 0.  0.
    9000005    1    3    3    0    0 -0.34740636144E+02 -0.30351693433E+02  0.34101213053E+02  0.57376213065E+02  0.10000000000E+01 0.  0.
    9000005    1    3    3    0    0  0.37377435428E+02  0.24035713808E+01 -0.64029265167E+02  0.74186229398E+02  0.10000000000E+01 0.  0.
          4    1    1    2  501    0 -0.26367992833E+01  0.27948122052E+02  0.77973076761E+02  0.82882228712E+02  0.12700000000E+01 0.  1.
<mgrwt>
<rscale>  1 0.12811318E+03</rscale>
<asrwt>0</asrwt>
<pdfrwt beam="1">  1       21 0.20190769E-01 0.12811318E+03</pdfrwt>
<pdfrwt beam="2">  1        4 0.12800446E-01 0.12811318E+03</pdfrwt>
<totfact> 0.45435101E+04</totfact>
</mgrwt>
</event>
<event>
 6    4  0.6195789E-003  0.1301986E+03  0.7818608E-02  0.1227161E+00
         21   -1    0    0  501  502  0.00000000000E+00  0.00000000000E+00  0.12058168061E+02  0.12058168061E+02  0.00000000000E+00 0. -1.
          4   -1    0    0  502    0 -0.00000000000E+00 -0.00000000000E+00 -0.94345918394E+03  0.94346003872E+03  0.12700000000E+01 0. -1.
         25    2    1    2    0    0 -0.34683093584E+02  0.11104394113E+02 -0.89351890509E+03  0.90295498991E+03  0.12500182206E+03 0.  0.
    9000005    1    3    3    0    0 -0.43665413675E+02  0.33680748880E+02 -0.85878492020E+03  0.86055424022E+03  0.10000000000E+01 0.  0.
    9000005    1    3    3    0    0  0.89823200908E+01 -0.22576354766E+02 -0.34733984886E+02  0.42400749696E+02  0.10000000000E+01 0.  0.
          4    1    1    2  501    0  0.34683093584E+02 -0.11104394113E+02 -0.37882110795E+02  0.52563216867E+02  0.12700000000E+01 0.  1.
<mgrwt>
<rscale>  1 0.13019862E+03</rscale>
<asrwt>0</asrwt>
<pdfrwt beam="1">  1       21 0.18551013E-02 0.13019862E+03</pdfrwt>
<pdfrwt beam="2">  1        4 0.14515289E+00 0.13019862E+03</pdfrwt>
<totfact> 0.19488571E+04</totfact>
</mgrwt>
</event>
<event>
 6    4  0.6195789E-003  0.1338098E+03  0.7818608E-02  0.1221910E+00
          4   -1    0    0  502    0 -0.00000000000E+00  0.00000000000E+00  0.74377701069E+02  0.74388542910E+02  0.12700000000E+01 0.  1.
         21   -1    0    0  501  502  0.00000000000E+00 -0.00000000000E+00 -0.14405666099E+03  0.14405666099E+03  0.00000000000E+00 0. -1.
         25    2    1    2    0    0  0.46248061763E+02  0.11862061156E+02  0.19182598862E+00  0.13380991968E+03  0.12500186437E+03 0.  0.
    9000005    1    3    3    0    0  0.22733309631E+02 -0.56790726589E+02 -0.18177319077E+01  0.61206977891E+02  0.10000000000E+01 0.  0.
    9000005    1    3    3    0    0  0.23514752132E+02  0.68652787745E+02  0.20095578963E+01  0.72602941786E+02  0.10000000000E+01 0.  0.
          4    1    1    2  501    0 -0.46248061763E+02 -0.11862061156E+02 -0.69870785905E+02  0.84635284219E+02  0.12700000000E+01 0. -1.
<mgrwt>
<rscale>  1 0.13380978E+03</rscale>
<asrwt>0</asrwt>
<pdfrwt beam="2">  1       21 0.22162563E-01 0.13380978E+03</pdfrwt>
<pdfrwt beam="1">  1        4 0.11443988E-01 0.13380978E+03</pdfrwt>
<totfact> 0.46513282E+04</totfact>
</mgrwt>
</event>
<event>
 6    4  0.6195789E-003  0.1376015E+03  0.7818608E-02  0.1216593E+00
         -4   -1    0    0    0  501 -0.00000000000E+00  0.00000000000E+00  0.47028742458E+02  0.47045887357E+02  0.12700000000E+01 0. -1.
         21   -1    0    0  501  502  0.00000000000E+00 -0.00000000000E+00 -0.24430483949E+03  0.24430483949E+03  0.00000000000E+00 0.  1.
         25    2    1    2    0    0  0.56416467117E+02 -0.11226402537E+02 -0.76182183986E+02  0.15728283900E+03  0.12500126563E+03 0.  0.
    9000005    1    3    3    0    0  0.21296538696E+02 -0.55776899460E+02  0.30966082301E+01  0.59792926474E+02  0.10000000000E+01 0.  0.
    9000005    1    3    3    0    0  0.35119928421E+02  0.44550496923E+02 -0.79278792216E+02  0.97489912523E+02  0.10000000000E+01 0.  0.
         -4    1    1    2    0  502 -0.56416467117E+02  0.11226402537E+02 -0.12109391304E+03  0.13406788785E+03  0.12700000000E+01 0.  1.
<mgrwt>
<rscale>  1 0.13760148E+03</rscale>
<asrwt>0</asrwt>
<pdfrwt beam="2">  1       21 0.37585359E-01 0.13760148E+03</pdfrwt>
<pdfrwt beam="1">  1       -4 0.72367640E-02 0.13760148E+03</pdfrwt>
<totfact> 0.36348437E+04</totfact>
</mgrwt>
</event>
<event>
 6    4  0.6195789E-003  0.1274865E+03  0.7818608E-02  0.1231234E+00
         21   -1    0    0  501  502  0.00000000000E+00  0.00000000000E+00  0.12060315864E+03  0.12060315864E+03  0.00000000000E+00 0.  1.
         -4   -1    0    0    0  501 -0.00000000000E+00 -0.00000000000E+00 -0.49673622708E+02  0.49689855030E+02  0.12700000000E+01 0.  1.
         25    2    1    2    0    0  0.25249833895E+02  0.10806438724E+00  0.48194104569E+02  0.13629185885E+03  0.12496092703E+03 0.  0.
    9000005    1    3    3    0    0  0.47677349658E+02  0.42472745811E+02  0.59222973786E+02  0.87094342131E+02  0.10000000000E+01 0.  0.
    9000005    1    3    3    0    0 -0.22427515763E+02 -0.42364681424E+02 -0.11028869217E+02  0.49197516722E+02  0.10000000000E+01 0.  0.
         -4    1    1    2    0  502 -0.25249833895E+02 -0.10806438724E+00  0.22735431364E+02  0.34001154818E+02  0.12700000000E+01 0. -1.
<mgrwt>
<rscale>  1 0.12748647E+03</rscale>
<asrwt>0</asrwt>
<pdfrwt beam="1">  1       21 0.18554332E-01 0.12748647E+03</pdfrwt>
<pdfrwt beam="2">  1       -4 0.76438589E-02 0.12748647E+03</pdfrwt>
<totfact> 0.12629451E+05</totfact>
</mgrwt>
</event>
<event>
 6    4  0.6195789E-003  0.1396757E+03  0.7818608E-02  0.1213766E+00
         21   -1    0    0  501  502  0.00000000000E+00  0.00000000000E+00  0.32592604728E+02  0.32592604728E+02  0.00000000000E+00 0.  1.
         -4   -1    0    0    0  501 -0.00000000000E+00 -0.00000000000E+00 -0.38109766417E+03  0.38109978029E+03  0.12700000000E+01 0. -1.
         25    2    1    2    0    0  0.50375112786E+02  0.36692333252E+02 -0.31104803523E+03  0.34096948030E+03  0.12500130787E+03 0.  0.
    9000005    1    3    3    0    0 -0.69670087339E+01 -0.32629604293E+02 -0.17300154411E+03  0.17619240776E+03  0.10000000000E+01 0.  0.
    9000005    1    3    3    0    0  0.57342121520E+02  0.69321937545E+02 -0.13804649112E+03  0.16477707254E+03  0.10000000000E+01 0.  0.
         -4    1    1    2    0  502 -0.50375112786E+02 -0.36692333252E+02 -0.37457024215E+02  0.72722904719E+02  0.12700000000E+01 0.  1.
<mgrwt>
<rscale>  1 0.13967572E+03</rscale>
<asrwt>0</asrwt>
<pdfrwt beam="1">  1       21 0.50142470E-02 0.13967572E+03</pdfrwt>
<pdfrwt beam="2">  1       -4 0.58632474E-01 0.13967572E+03</pdfrwt>
<totfact> 0.30334507E+04</totfact>
</mgrwt>
</event>
<event>
 6    4  0.6195789E-003  0.1281839E+03  0.7818608E-02  0.1230176E+00
         21   -1    0    0  501  502  0.00000000000E+00  0.00000000000E+00  0.12225434339E+03  0.12225434339E+03  0.00000000000E+00 0. -1.
          4   -1    0    0  502    0 -0.00000000000E+00 -0.00000000000E+00 -0.56710955053E+02  0.56725173627E+02  0.12700000000E+01 0.  1.
         25    2    1    2    0    0 -0.28277855995E+02  0.22852207870E+01  0.26821160284E+02  0.13095990416E+03  0.12500504984E+03 0.  0.
    9000005    1    3    3    0    0 -0.14082507144E+02  0.57000958663E+02 -0.15033315063E+02  0.60617050883E+02  0.10000000000E+01 0.  0.
    9000005    1    3    3    0    0 -0.14195348850E+02 -0.54715737876E+02  0.41854475347E+02  0.70342853275E+02  0.10000000000E+01 0.  0.
          4    1    1    2  501    0  0.28277855995E+02 -0.22852207870E+01  0.38722228052E+02  0.48019612858E+02  0.12700000000E+01 0. -1.
<mgrwt>
<rscale>  1 0.12818394E+03</rscale>
<asrwt>0</asrwt>
<pdfrwt beam="1">  1       21 0.18808360E-01 0.12818394E+03</pdfrwt>
<pdfrwt beam="2">  1        4 0.87263635E-02 0.12818394E+03</pdfrwt>
<totfact> 0.98983103E+04</totfact>
</mgrwt>
</event>
<event>
 6    4  0.6195789E-003  0.1269005E+03  0.7818608E-02  0.1232129E+00
         21   -1    0    0  501  502  0.00000000000E+00  0.00000000000E+00  0.20436594256E+02  0.20436594256E+02  0.00000000000E+00 0.  1.
          4   -1    0    0  502    0 -0.00000000000E+00 -0.00000000000E+00 -0.28495798726E+03  0.28496081731E+03  0.12700000000E+01 0.  1.
         25    2    1    2    0    0 -0.20987376035E+02  0.61641523394E+01 -0.24560094393E+03  0.27644809344E+03  0.12500103192E+03 0.  0.
    9000005    1    3    3    0    0  0.38812037970E+02  0.37414096758E+02 -0.70216314319E+02  0.88529767447E+02  0.10000000000E+01 0.  0.
    9000005    1    3    3    0    0 -0.59799414005E+02 -0.31249944419E+02 -0.17538462961E+03  0.18791832599E+03  0.10000000000E+01 0.  0.
          4    1    1    2  501    0  0.20987376035E+02 -0.61641523394E+01 -0.18920449079E+02  0.28949318131E+02  0.12700000000E+01 0. -1.
<mgrwt>
<rscale>  1 0.12690045E+03</rscale>
<asrwt>0</asrwt>
<pdfrwt beam="1">  1       21 0.31440913E-02 0.12690045E+03</pdfrwt>
<pdfrwt beam="2">  1        4 0.43842946E-01 0.12690045E+03</pdfrwt>
<totfact> 0.11778002E+05</totfact>
</mgrwt>
</event>
<event>
 6    4  0.6195789E-003  0.1429637E+03  0.7818608E-02  0.1209396E+00
          4   -1    0    0  502    0 -0.00000000000E+00  0.00000000000E+00  0.63730547069E+02  0.63743199870E+02  0.12700000000E+01 0.  1.
         21   -1    0    0  501  502  0.00000000000E+00 -0.00000000000E+00 -0.29082861012E+03  0.29082861012E+03  0.00000000000E+00 0.  1.
         25    2    1    2    0    0  0.69166242157E+02  0.53399000373E+01 -0.30624667385E+02  0.14620700564E+03  0.12500453856E+03 0.  0.
    9000005    1    3    3    0    0  0.94164916529E+02 -0.30374031833E+02 -0.26329596071E+02  0.10239072685E+03  0.10000000000E+01 0.  0.
    9000005    1    3    3    0    0 -0.24998674372E+02  0.35713931870E+02 -0.42950713139E+01  0.43816278797E+02  0.10000000000E+01 0.  0.
          4    1    1    2  501    0 -0.69166242157E+02 -0.53399000373E+01 -0.19647339566E+03  0.20836480435E+03  0.12700000000E+01 0. -1.
<mgrwt>
<rscale>  1 0.14296370E+03</rscale>
<asrwt>0</asrwt>
<pdfrwt beam="2">  1       21 0.44742864E-01 0.14296370E+03</pdfrwt>
<pdfrwt beam="1">  1        4 0.98058860E-02 0.14296370E+03</pdfrwt>
<totfact> 0.15494816E+04</totfact>
</mgrwt>
</event>
<event>
 6    4  0.6195789E-003  0.1294356E+03  0.7818608E-02  0.1228296E+00
         -4   -1    0    0    0  501 -0.00000000000E+00  0.00000000000E+00  0.50127777294E+03  0.50127938173E+03  0.12700000000E+01 0. -1.
         21   -1    0    0  501  502  0.00000000000E+00 -0.00000000000E+00 -0.22768359450E+02  0.22768359450E+02  0.00000000000E+00 0.  1.
         25    2    1    2    0    0 -0.33340184867E+02 -0.40994865149E+01  0.47248931267E+03  0.48989765728E+03  0.12500076118E+03 0.  0.
    9000005    1    3    3    0    0 -0.82782797055E+01 -0.40646987939E+02  0.49493628666E+02  0.64585809757E+02  0.10000000000E+01 0.  0.
    9000005    1    3    3    0    0 -0.25061905161E+02  0.36547501424E+02  0.42299568401E+03  0.42531184752E+03  0.10000000000E+01 0.  0.
         -4    1    1    2    0  502  0.33340184867E+02  0.40994865149E+01  0.60201008160E+01  0.34150083901E+02  0.12700000000E+01 0.  1.
<mgrwt>
<rscale>  1 0.12943556E+03</rscale>
<asrwt>0</asrwt>
<pdfrwt beam="2">  1       21 0.35028249E-02 0.12943556E+03</pdfrwt>
<pdfrwt beam="1">  1       -4 0.77122497E-01 0.12943556E+03</pdfrwt>
<totfact> 0.30390193E+04</totfact>
</mgrwt>
</event>
<event>
 6    4  0.6195789E-003  0.1269702E+03  0.7818608E-02  0.1232022E+00
         21   -1    0    0  501  502  0.00000000000E+00  0.00000000000E+00  0.60485411290E+01  0.60485411290E+01  0.00000000000E+00 0. -1.
          4   -1    0    0  502    0 -0.00000000000E+00 -0.00000000000E+00 -0.11372776871E+04  0.11372783962E+04  0.12700000000E+01 0. -1.
         25    2    1    2    0    0 -0.13073725066E+02  0.18044903151E+02 -0.69338664173E+03  0.70491592899E+03  0.12499956479E+03 0.  0.
    9000005    1    3    3    0    0  0.53233200788E+02  0.16125333711E+02 -0.41615459231E+03  0.41985645732E+03  0.10000000000E+01 0.  0.
    9000005    1    3    3    0    0 -0.66306925854E+02  0.19195694400E+01 -0.27723204942E+03  0.28505947167E+03  0.10000000000E+01 0.  0.
          4    1    1    2  501    0  0.13073725066E+02 -0.18044903151E+02 -0.43784250419E+03  0.43841100830E+03  0.12700000000E+01 0.  1.
<mgrwt>
<rscale>  1 0.12697020E+03</rscale>
<asrwt>0</asrwt>
<pdfrwt beam="1">  1       21 0.93054505E-03 0.12697020E+03</pdfrwt>
<pdfrwt beam="2">  1        4 0.17497606E+00 0.12697020E+03</pdfrwt>
<totfact> 0.35826218E+04</totfact>
</mgrwt>
</event>
<event>
 6    4  0.6195789E-003  0.1304503E+03  0.7818608E-02  0.1226789E+00
         21   -1    0    0  501  502  0.00000000000E+00  0.00000000000E+00  0.12216169982E+02  0.12216169982E+02  0.00000000000E+00 0.  1.
          4   -1    0    0  502    0 -0.00000000000E+00 -0.00000000000E+00 -0.57846525848E+03  0.57846665260E+03  0.12700000000E+01 0. -1.
         25    2    1    2    0    0 -0.15986557248E+02  0.33756345604E+02 -0.45447932692E+03  0.47283057022E+03  0.12498891416E+03 0.  0.
    9000005    1    3    3    0    0 -0.10279998550E+01 -0.38946386718E+02 -0.60834244151E+02  0.72247374232E+02  0.10000000000E+01 0.  0.
    9000005    1    3    3    0    0 -0.14958557393E+02  0.72702732322E+02 -0.39364508277E+03  0.40058319599E+03  0.10000000000E+01 0.  0.
          4    1    1    2  501    0  0.15986557248E+02 -0.33756345604E+02 -0.11176976158E+03  0.11785225236E+03  0.12700000000E+01 0.  1.
<mgrwt>
<rscale>  1 0.13045033E+03</rscale>
<asrwt>0</asrwt>
<pdfrwt beam="1">  1       21 0.18794109E-02 0.13045033E+03</pdfrwt>
<pdfrwt beam="2">  1        4 0.88999836E-01 0.13045033E+03</pdfrwt>
<totfact> 0.61045672E+04</totfact>
</mgrwt>
</event>
<event>
 6    4  0.6195789E-003  0.1311357E+03  0.7818608E-02  0.1225780E+00
          4   -1    0    0  502    0 -0.00000000000E+00  0.00000000000E+00  0.15392844971E+03  0.15393368874E+03  0.12700000000E+01 0. -1.
         21   -1    0    0  501  502  0.00000000000E+00 -0.00000000000E+00 -0.52267118895E+02  0.52267118895E+02  0.00000000000E+00 0. -1.
         25    2    1    2    0    0 -0.32646919022E+02 -0.22523052788E+02  0.48401474794E+02  0.13978293059E+03  0.12499382262E+03 0.  0.
    9000005    1    3    3    0    0 -0.42483671294E+02 -0.67586281385E+02  0.48944179469E+02  0.93644543151E+02  0.10000000000E+01 0.  0.
    9000005    1    3    3    0    0  0.98367522721E+01  0.45063228598E+02 -0.54270467510E+00  0.46138387437E+02  0.10000000000E+01 0.  0.
          4    1    1    2  501    0  0.32646919022E+02  0.22523052788E+02  0.53259856016E+02  0.66417877047E+02  0.12700000000E+01 0.  1.
<mgrwt>
<rscale>  1 0.13113567E+03</rscale>
<asrwt>0</asrwt>
<pdfrwt beam="2">  1       21 0.80410953E-02 0.13113567E+03</pdfrwt>
<pdfrwt beam="1">  1        4 0.23682890E-01 0.13113567E+03</pdfrwt>
<totfact> 0.79041784E+04</totfact>
</mgrwt>
</event>
<event>
 6    4  0.6195789E-003  0.1291881E+03  0.7818608E-02  0.1228665E+00
         21   -1    0    0  501  502  0.00000000000E+00  0.00000000000E+00  0.15205222486E+03  0.15205222486E+03  0.00000000000E+00 0.  1.
          4   -1    0    0  502    0 -0.00000000000E+00 -0.00000000000E+00 -0.71553221262E+02  0.71564491006E+02  0.12700000000E+01 0.  1.
         25    2    1    2    0    0  0.32442484362E+02  0.34637776558E+01 -0.78507900200E+01  0.12942642189E+03  0.12500020493E+03 0.  0.
    9000005    1    3    3    0    0 -0.24061672925E+02 -0.42719388038E+02 -0.24121385130E+02  0.54651179666E+02  0.10000000000E+01 0.  0.
    9000005    1    3    3    0    0  0.56504157287E+02  0.46183165694E+02  0.16270595110E+02  0.74775242223E+02  0.10000000000E+01 0.  0.
          4    1    1    2  501    0 -0.32442484362E+02 -0.34637776558E+01  0.88349793613E+02  0.94190293973E+02  0.12700000000E+01 0. -1.
<mgrwt>
<rscale>  1 0.12918809E+03</rscale>
<asrwt>0</asrwt>
<pdfrwt beam="1">  1       21 0.23392650E-01 0.12918809E+03</pdfrwt>
<pdfrwt beam="2">  1        4 0.11009463E-01 0.12918809E+03</pdfrwt>
<totfact> 0.44712713E+04</totfact>
</mgrwt>
</event>
<event>
 6    4  0.6195789E-003  0.1411172E+03  0.7818608E-02  0.1211833E+00
         21   -1    0    0  501  502  0.00000000000E+00  0.00000000000E+00  0.65392424071E+02  0.65392424071E+02  0.00000000000E+00 0. -1.
          4   -1    0    0  502    0 -0.00000000000E+00 -0.00000000000E+00 -0.18536675159E+03  0.18537110210E+03  0.12700000000E+01 0. -1.
         25    2    1    2    0    0  0.57181302926E+02  0.31935434047E+02 -0.38605450724E+02  0.14630262266E+03  0.12499801286E+03 0.  0.
    9000005    1    3    3    0    0  0.42996184486E+02  0.75027220227E+02 -0.49487954156E+02  0.99638412582E+02  0.10000000000E+01 0.  0.
    9000005    1    3    3    0    0  0.14185118440E+02 -0.43091786180E+02  0.10882503432E+02  0.46664210079E+02  0.10000000000E+01 0.  0.
          4    1    1    2  501    0 -0.57181302926E+02 -0.31935434047E+02 -0.81368876790E+02  0.10446090351E+03  0.12700000000E+01 0.  1.
<mgrwt>
<rscale>  1 0.14111724E+03</rscale>
<asrwt>0</asrwt>
<pdfrwt beam="1">  1       21 0.10060373E-01 0.14111724E+03</pdfrwt>
<pdfrwt beam="2">  1        4 0.28519245E-01 0.14111724E+03</pdfrwt>
<totfact> 0.38264567E+04</totfact>
</mgrwt>
</event>
<event>
 6    4  0.6195789E-003  0.1312624E+03  0.7818608E-02  0.1225595E+00
         -4   -1    0    0    0  501 -0.00000000000E+00  0.00000000000E+00  0.25822020860E+02  0.25853233092E+02  0.12700000000E+01 0.  1.
         21   -1    0    0  501  502  0.00000000000E+00 -0.00000000000E+00 -0.57187291367E+03  0.57187291367E+03  0.00000000000E+00 0. -1.
         25    2    1    2    0    0 -0.24352811666E+02 -0.31818130732E+02 -0.14865419232E+03  0.19831257246E+03  0.12499741846E+03 0.  0.
    9000005    1    3    3    0    0 -0.34564503663E+02  0.40727012097E+02 -0.37848656133E+02  0.65474538554E+02  0.10000000000E+01 0.  0.
    9000005    1    3    3    0    0  0.10211691996E+02 -0.72545142829E+02 -0.11080553619E+03  0.13283803390E+03  0.10000000000E+01 0.  0.
         -4    1    1    2    0  502  0.24352811666E+02  0.31818130732E+02 -0.39739670049E+03  0.39941357430E+03  0.12700000000E+01 0. -1.
<mgrwt>
<rscale>  1 0.13126236E+03</rscale>
<asrwt>0</asrwt>
<pdfrwt beam="2">  1       21 0.87980447E-01 0.13126236E+03</pdfrwt>
<pdfrwt beam="1">  1       -4 0.39751281E-02 0.13126236E+03</pdfrwt>
<totfact> 0.15721176E+04</totfact>
</mgrwt>
</event>
<event>
 6    4  0.6195789E-003  0.1280493E+03  0.7818608E-02  0.1230379E+00
         -4   -1    0    0    0  501 -0.00000000000E+00  0.00000000000E+00  0.21663866244E+03  0.21664238497E+03  0.12700000000E+01 0. -1.
         21   -1    0    0  501  502  0.00000000000E+00 -0.00000000000E+00 -0.41443141433E+02  0.41443141433E+02  0.00000000000E+00 0.  1.
         25    2    1    2    0    0  0.21414548810E+02 -0.17698408874E+02  0.18800253061E+03  0.22746773791E+03  0.12499921478E+03 0.  0.
    9000005    1    3    3    0    0 -0.29699076117E+01 -0.20542820439E+02 -0.13299397872E+02  0.24671882915E+02  0.10000000000E+01 0.  0.
    9000005    1    3    3    0    0  0.24384456421E+02  0.28444115656E+01  0.20130192848E+03  0.20279585499E+03  0.10000000000E+01 0.  0.
         -4    1    1    2    0  502 -0.21414548810E+02  0.17698408874E+02 -0.12807009599E+02  0.30617788494E+02  0.12700000000E+01 0.  1.
<mgrwt>
<rscale>  1 0.12804929E+03</rscale>
<asrwt>0</asrwt>
<pdfrwt beam="2">  1       21 0.63758681E-02 0.12804929E+03</pdfrwt>
<pdfrwt beam="1">  1       -4 0.33330807E-01 0.12804929E+03</pdfrwt>
<totfact> 0.61828297E+04</totfact>
</mgrwt>
</event>
<event>
 6    4  0.6195789E-003  0.1266523E+03  0.7818608E-02  0.1232509E+00
          4   -1    0    0  502    0 -0.00000000000E+00  0.00000000000E+00  0.52167440438E+03  0.52167595027E+03  0.12700000000E+01 0. -1.
         21   -1    0    0  501  502  0.00000000000E+00 -0.00000000000E+00 -0.17875350535E+02  0.17875350535E+02  0.00000000000E+00 0. -1.
         25    2    1    2    0    0  0.16807080373E+02 -0.11525213057E+02  0.50344282128E+03  0.51912954064E+03  0.12500198870E+03 0.  0.
    9000005    1    3    3    0    0  0.51189691871E+02 -0.40641074214E+02  0.16146830382E+03  0.17419843456E+03  0.10000000000E+01 0.  0.
    9000005    1    3    3    0    0 -0.34382611497E+02  0.29115861157E+02  0.34197451746E+03  0.34493110607E+03  0.10000000000E+01 0.  0.
          4    1    1    2  501    0 -0.16807080373E+02  0.11525213057E+02  0.35623257204E+00  0.20421760167E+02  0.12700000000E+01 0.  1.
<mgrwt>
<rscale>  1 0.12665230E+03</rscale>
<asrwt>0</asrwt>
<pdfrwt beam="2">  1       21 0.27500543E-02 0.12665230E+03</pdfrwt>
<pdfrwt beam="1">  1        4 0.80261178E-01 0.12665230E+03</pdfrwt>
<totfact> 0.41300213E+04</totfact>
</mgrwt>
</event>
<event>
 6    4  0.6195789E-003  0.1308553E+03  0.7818608E-02  0.1226192E+00
          4   -1    0    0  502    0 -0.00000000000E+00  0.00000000000E+00  0.37230872401E+02  0.37252526891E+02  0.12700000000E+01 0. -1.
         21   -1    0    0  501  502  0.00000000000E+00 -0.00000000000E+00 -0.57866749788E+03  0.57866749788E+03  0.00000000000E+00 0.  1.
         25    2    1    2    0    0 -0.56459245733E+01 -0.38292734929E+02 -0.81082618924E+02  0.15393990154E+03  0.12499956872E+03 0.  0.
    9000005    1    3    3    0    0  0.71372552111E-01  0.45122835232E+02 -0.15670899788E+02  0.47777112236E+02  0.10000000000E+01 0.  0.
    9000005    1    3    3    0    0 -0.57172971254E+01 -0.83415570161E+02 -0.65411719135E+02  0.10616278930E+03  0.10000000000E+01 0.  0.
          4    1    1    2  501    0  0.56459245733E+01  0.38292734929E+02 -0.46035400656E+03  0.46198012324E+03  0.12700000000E+01 0.  1.
<mgrwt>
<rscale>  1 0.13085527E+03</rscale>
<asrwt>0</asrwt>
<pdfrwt beam="2">  1       21 0.89025760E-01 0.13085527E+03</pdfrwt>
<pdfrwt beam="1">  1        4 0.57296000E-02 0.13085527E+03</pdfrwt>
<totfact> 0.85164401E+03</totfact>
</mgrwt>
</event>
<event>
 6    4  0.6195789E-003  0.1400203E+03  0.7818608E-02  0.1213302E+00
          4   -1    0    0  502    0 -0.00000000000E+00  0.00000000000E+00  0.82397915423E+02  0.82407702104E+02  0.12700000000E+01 0.  1.
         21   -1    0    0  501  502  0.00000000000E+00 -0.00000000000E+00 -0.43420528868E+03  0.43420528868E+03  0.00000000000E+00 0. -1.
         25    2    1    2    0    0 -0.61596591640E+02  0.13727111761E+02  0.18255692125E+02  0.14120540035E+03  0.12499248415E+03 0.  0.
    9000005    1    3    3    0    0 -0.86126847931E+01 -0.43875228516E+02 -0.25552611427E+02  0.51508736806E+02  0.10000000000E+01 0.  0.
    9000005    1    3    3    0    0 -0.52983906847E+02  0.57602340277E+02  0.43808303551E+02  0.89696663540E+02  0.10000000000E+01 0.  0.
          4    1    1    2  501    0  0.61596591640E+02 -0.13727111761E+02 -0.37006306538E+03  0.37540759044E+03  0.12700000000E+01 0. -1.
<mgrwt>
<rscale>  1 0.14002034E+03</rscale>
<asrwt>0</asrwt>
<pdfrwt beam="2">  1       21 0.66800814E-01 0.14002034E+03</pdfrwt>
<pdfrwt beam="1">  1        4 0.12677498E-01 0.14002034E+03</pdfrwt>
<totfact> 0.43104905E+03</totfact>
</mgrwt>
</event>
<event>
 6    4  0.6195789E-003  0.1290485E+03  0.7818608E-02  0.1228874E+00
         21   -1    0    0  501  502  0.00000000000E+00  0.00000000000E+00  0.23692912199E+02  0.23692912199E+02  0.00000000000E+00 0.  1.
         -4   -1    0    0    0  501 -0.00000000000E+00 -0.00000000000E+00 -0.57616454085E+03  0.57616594053E+03  0.12700000000E+01 0. -1.
         25    2    1    2    0    0  0.31047349623E+02  0.80591504972E+01 -0.55289406021E+03  0.56775466027E+03  0.12499849844E+03 0.  0.
    9000005    1    3    3    0    0  0.49481153899E+02 -0.23688296452E+02 -0.50202343268E+03  0.50501291760E+03  0.10000000000E+01 0.  0.
    9000005    1    3    3    0    0 -0.18433804276E+02  0.31747446949E+02 -0.50870627528E+02  0.62741742667E+02  0.10000000000E+01 0.  0.
         -4    1    1    2    0  502 -0.31047349623E+02 -0.80591504972E+01  0.42243156320E+00  0.32104192464E+02  0.12700000000E+01 0.  1.
<mgrwt>
<rscale>  1 0.12904849E+03</rscale>
<asrwt>0</asrwt>
<pdfrwt beam="1">  1       21 0.36450637E-02 0.12904849E+03</pdfrwt>
<pdfrwt beam="2">  1       -4 0.88643418E-01 0.12904849E+03</pdfrwt>
<totfact> 0.20877375E+04</totfact>
</mgrwt>
</event>
<event>
 6    4  0.6195789E-003  0.1271664E+03  0.7818608E-02  0.1231722E+00
          4   -1    0    0  502    0 -0.00000000000E+00  0.00000000000E+00  0.36334673956E+02  0.36356862234E+02  0.12700000000E+01 0.  1.
         21   -1    0    0  501  502  0.00000000000E+00 -0.00000000000E+00 -0.17973762640E+03  0.17973762640E+03  0.00000000000E+00 0.  1.
         25    2    1    2    0    0 -0.21799570587E+02 -0.84596492400E+01 -0.84430985105E+02  0.15264298924E+03  0.12499801589E+03 0.  0.
    9000005    1    3    3    0    0  0.23713268812E+02  0.46349160473E+02 -0.17629869453E+02  0.54976141109E+02  0.10000000000E+01 0.  0.
    9000005    1    3    3    0    0 -0.45512839399E+02 -0.54808809713E+02 -0.66801115652E+02  0.97666848135E+02  0.10000000000E+01 0.  0.
          4    1    1    2  501    0  0.21799570587E+02  0.84596492400E+01 -0.58971967333E+02  0.63451499385E+02  0.12700000000E+01 0. -1.
<mgrwt>
<rscale>  1 0.12716639E+03</rscale>
<asrwt>0</asrwt>
<pdfrwt beam="2">  1       21 0.27651943E-01 0.12716639E+03</pdfrwt>
<pdfrwt beam="1">  1        4 0.55920017E-02 0.12716639E+03</pdfrwt>
<totfact> 0.99668836E+04</totfact>
</mgrwt>
</event>
<event>
 6    4  0.6195789E-003  0.1276980E+03  0.7818608E-02  0.1230912E+00
         -4   -1    0    0    0  501 -0.00000000000E+00  0.00000000000E+00  0.49057147584E+02  0.49073583821E+02  0.12700000000E+01 0.  1.
         21   -1    0    0  501  502  0.00000000000E+00 -0.00000000000E+00 -0.19694108891E+03  0.19694108891E+03  0.00000000000E+00 0. -1.
         25    2    1    2    0    0  0.87245843837E+01 -0.24645990799E+02 -0.38256243240E+02  0.13330536379E+03  0.12499294633E+03 0.  0.
    9000005    1    3    3    0    0 -0.45917423952E+01  0.22678856514E+02 -0.70697960685E+02  0.74395001687E+02  0.10000000000E+01 0.  0.
    9000005    1    3    3    0    0  0.13316326779E+02 -0.47324847312E+02  0.32441717445E+02  0.58910362100E+02  0.10000000000E+01 0.  0.
         -4    1    1    2    0  502 -0.87245843837E+01  0.24645990799E+02 -0.10962769809E+03  0.11270930894E+03  0.12700000000E+01 0. -1.
<mgrwt>
<rscale>  1 0.12769800E+03</rscale>
<asrwt>0</asrwt>
<pdfrwt beam="2">  1       21 0.30298629E-01 0.12769800E+03</pdfrwt>
<pdfrwt beam="1">  1       -4 0.75488327E-02 0.12769800E+03</pdfrwt>
<totfact> 0.51279095E+04</totfact>
</mgrwt>
</event>
<event>
 6    4  0.6195789E-003  0.1269900E+03  0.7818608E-02  0.1231992E+00
         -4   -1    0    0    0  501 -0.00000000000E+00  0.00000000000E+00  0.99947727788E+02  0.99955796180E+02  0.12700000000E+01 0. -1.
         21   -1    0    0  501  502  0.00000000000E+00 -0.00000000000E+00 -0.62566145913E+02  0.62566145913E+02  0.00000000000E+00 0.  1.
         25    2    1    2    0    0 -0.13005185770E+02  0.18247595980E+02  0.50342439964E+02  0.13660464365E+03  0.12499743113E+03 0.  0.
    9000005    1    3    3    0    0 -0.61173972710E+02  0.29760148349E+02  0.54104397449E+02  0.86926447013E+02  0.10000000000E+01 0.  0.
    9000005    1    3    3    0    0  0.48168786941E+02 -0.11512552368E+02 -0.37619574848E+01  0.49678196641E+02  0.10000000000E+01 0.  0.
         -4    1    1    2    0  502  0.13005185770E+02 -0.18247595980E+02 -0.12960858089E+02  0.25917298439E+02  0.12700000000E+01 0.  1.
<mgrwt>
<rscale>  1 0.12699003E+03</rscale>
<asrwt>0</asrwt>
<pdfrwt beam="2">  1       21 0.96255610E-02 0.12699003E+03</pdfrwt>
<pdfrwt beam="1">  1       -4 0.15378186E-01 0.12699003E+03</pdfrwt>
<totfact> 0.12467203E+05</totfact>
</mgrwt>
</event>
<event>
 6    4  0.6195789E-003  0.1283747E+03  0.7818608E-02  0.1229887E+00
          4   -1    0    0  502    0 -0.00000000000E+00  0.00000000000E+00  0.46197032603E+03  0.46197207171E+03  0.12700000000E+01 0.  1.
         21   -1    0    0  501  502  0.00000000000E+00 -0.00000000000E+00 -0.31315743279E+02  0.31315743279E+02  0.00000000000E+00 0. -1.
         25    2    1    2    0    0 -0.82317021863E+00 -0.29249015547E+02  0.44320602635E+03  0.46142350649E+03  0.12499555202E+03 0.  0.
    9000005    1    3    3    0    0  0.55157975133E+01 -0.50316723192E+02  0.64118904599E+02  0.81697188336E+02  0.10000000000E+01 0.  0.
    9000005    1    3    3    0    0 -0.63389677319E+01  0.21067707645E+02  0.37908712175E+03  0.37972631815E+03  0.10000000000E+01 0.  0.
          4    1    1    2  501    0  0.82317021863E+00  0.29249015547E+02 -0.12551443597E+02  0.31864308498E+02  0.12700000000E+01 0. -1.
<mgrwt>
<rscale>  1 0.12837473E+03</rscale>
<asrwt>0</asrwt>
<pdfrwt beam="2">  1       21 0.48178070E-02 0.12837473E+03</pdfrwt>
<pdfrwt beam="1">  1        4 0.71074468E-01 0.12837473E+03</pdfrwt>
<totfact> 0.21343045E+04</totfact>
</mgrwt>
</event>
<event>
 6    4  0.6195789E-003  0.1268202E+03  0.7818608E-02  0.1232252E+00
         21   -1    0    0  501  502  0.00000000000E+00  0.00000000000E+00  0.34685549368E+02  0.34685549368E+02  0.00000000000E+00 0. -1.
         -4   -1    0    0    0  501 -0.00000000000E+00 -0.00000000000E+00 -0.16732225875E+03  0.16732707843E+03  0.12700000000E+01 0.  1.
         25    2    1    2    0    0  0.72436536963E+01 -0.20151723065E+02 -0.12775376727E+03  0.18001220768E+03  0.12499922961E+03 0.  0.
    9000005    1    3    3    0    0  0.37397076937E+02 -0.13334946824E+02  0.82260419356E+01  0.40558968628E+02  0.10000000000E+01 0.  0.
    9000005    1    3    3    0    0 -0.30153423241E+02 -0.68167762408E+01 -0.13597980921E+03  0.13945323906E+03  0.10000000000E+01 0.  0.
         -4    1    1    2    0  502 -0.72436536963E+01  0.20151723065E+02 -0.48829421150E+01  0.22000420111E+02  0.12700000000E+01 0. -1.
<mgrwt>
<rscale>  1 0.12682023E+03</rscale>
<asrwt>0</asrwt>
<pdfrwt beam="1">  1       21 0.53362384E-02 0.12682023E+03</pdfrwt>
<pdfrwt beam="2">  1       -4 0.25744045E-01 0.12682023E+03</pdfrwt>
<totfact> 0.13567325E+05</totfact>
</mgrwt>
</event>
<event>
 6    4  0.6195789E-003  0.1311363E+03  0.7818608E-02  0.1225779E+00
         -4   -1    0    0    0  501 -0.00000000000E+00  0.00000000000E+00  0.26126037097E+03  0.26126345772E+03  0.12700000000E+01 0. -1.
         21   -1    0    0  501  502  0.00000000000E+00 -0.00000000000E+00 -0.37900513763E+02  0.37900513763E+02  0.00000000000E+00 0.  1.
         25    2    1    2    0    0  0.52926511663E+01  0.39282469825E+02  0.22392992285E+03  0.25950211995E+03  0.12500246126E+03 0.  0.
    9000005    1    3    3    0    0  0.22726313527E+02  0.17507169632E+02  0.22928999314E+03  0.23107982878E+03  0.10000000000E+01 0.  0.
    9000005    1    3    3    0    0 -0.17433662361E+02  0.21775300193E+02 -0.53600702939E+01  0.28422291170E+02  0.10000000000E+01 0.  0.
         -4    1    1    2    0  502 -0.52926511663E+01 -0.39282469825E+02 -0.57006564159E+00  0.39661851529E+02  0.12700000000E+01 0.  1.
<mgrwt>
<rscale>  1 0.13113634E+03</rscale>
<asrwt>0</asrwt>
<pdfrwt beam="2">  1       21 0.58308484E-02 0.13113634E+03</pdfrwt>
<pdfrwt beam="1">  1       -4 0.40195776E-01 0.13113634E+03</pdfrwt>
<totfact> 0.50188531E+04</totfact>
</mgrwt>
</event>
<event>
 6    4  0.6195789E-003  0.1371542E+03  0.7818608E-02  0.1217210E+00
         21   -1    0    0  501  502  0.00000000000E+00  0.00000000000E+00  0.10802661469E+03  0.10802661469E+03  0.00000000000E+00 0. -1.
          4   -1    0    0  502    0 -0.00000000000E+00 -0.00000000000E+00 -0.11104029756E+03  0.11104756000E+03  0.12700000000E+01 0.  1.
         25    2    1    2    0    0 -0.44271666777E+02  0.35059460390E+02 -0.49607924053E+02  0.14584998161E+03  0.12498849852E+03 0.  0.
    9000005    1    3    3    0    0 -0.31484588252E+02  0.42586038636E+02 -0.89096773644E+02  0.10365367846E+03  0.10000000000E+01 0.  0.
    9000005    1    3    3    0    0 -0.12787078525E+02 -0.75265782459E+01  0.39488849591E+02  0.42196303147E+02  0.10000000000E+01 0.  0.
          4    1    1    2  501    0  0.44271666777E+02 -0.35059460390E+02  0.46594241177E+02  0.73224193085E+02  0.12700000000E+01 0. -1.
<mgrwt>
<rscale>  1 0.13715419E+03</rscale>
<asrwt>0</asrwt>
<pdfrwt beam="1">  1       21 0.16619479E-01 0.13715419E+03</pdfrwt>
<pdfrwt beam="2">  1        4 0.17084256E-01 0.13715419E+03</pdfrwt>
<totfact> 0.39573240E+04</totfact>
</mgrwt>
</event>
<event>
 6    4  0.6195789E-003  0.1321867E+03  0.7818608E-02  0.1224247E+00
         21   -1    0    0  501  502  0.00000000000E+00  0.00000000000E+00  0.22598924308E+02  0.22598924308E+02  0.00000000000E+00 0. -1.
          4   -1    0    0  502    0 -0.00000000000E+00 -0.00000000000E+00 -0.35362706512E+03  0.35362934562E+03  0.12700000000E+01 0. -1.
         25    2    1    2    0    0  0.33438256235E+02 -0.27046641201E+02 -0.21391583012E+03  0.25146231305E+03  0.12499469880E+03 0.  0.
    9000005    1    3    3    0    0 -0.39363119071E+02 -0.24279463190E+02 -0.34171711503E+02  0.57512201687E+02  0.10000000000E+01 0.  0.
    9000005    1    3    3    0    0  0.72801375306E+02 -0.27671780114E+01 -0.17974411861E+03  0.19395011136E+03  0.10000000000E+01 0.  0.
          4    1    1    2  501    0 -0.33438256235E+02  0.27046641201E+02 -0.11711231069E+03  0.12476595688E+03  0.12700000000E+01 0.  1.
<mgrwt>
<rscale>  1 0.13218666E+03</rscale>
<asrwt>0</asrwt>
<pdfrwt beam="1">  1       21 0.34767577E-02 0.13218666E+03</pdfrwt>
<pdfrwt beam="2">  1        4 0.54407082E-01 0.13218666E+03</pdfrwt>
<totfact> 0.64806975E+04</totfact>
</mgrwt>
</event>
<event>
 6    4  0.6195789E-003  0.1403378E+03  0.7818608E-02  0.1212875E+00
         21   -1    0    0  501  502  0.00000000000E+00  0.00000000000E+00  0.25811068005E+03  0.25811068005E+03  0.00000000000E+00 0.  1.
          4   -1    0    0  502    0 -0.00000000000E+00 -0.00000000000E+00 -0.41479967539E+02  0.41499404900E+02  0.12700000000E+01 0.  1.
         25    2    1    2    0    0 -0.62273072584E+02  0.13869364792E+02  0.12490924420E+03  0.18787497186E+03  0.12499756364E+03 0.  0.
    9000005    1    3    3    0    0 -0.86896146258E+02  0.43002374448E+02  0.11069688150E+03  0.14715618918E+03  0.10000000000E+01 0.  0.
    9000005    1    3    3    0    0  0.24623073674E+02 -0.29133009656E+02  0.14212362710E+02  0.40718782675E+02  0.10000000000E+01 0.  0.
          4    1    1    2  501    0  0.62273072584E+02 -0.13869364792E+02  0.91721468302E+02  0.11173511309E+03  0.12700000000E+01 0. -1.
<mgrwt>
<rscale>  1 0.14033776E+03</rscale>
<asrwt>0</asrwt>
<pdfrwt beam="1">  1       21 0.39709335E-01 0.14033776E+03</pdfrwt>
<pdfrwt beam="2">  1        4 0.63832691E-02 0.14033776E+03</pdfrwt>
<totfact> 0.40096942E+04</totfact>
</mgrwt>
</event>
<event>
 6    4  0.6195789E-003  0.1313702E+03  0.7818608E-02  0.1225437E+00
         -4   -1    0    0    0  501 -0.00000000000E+00  0.00000000000E+00  0.40836049958E+01  0.42765324460E+01  0.12700000000E+01 0.  1.
         21   -1    0    0  501  502  0.00000000000E+00 -0.00000000000E+00 -0.29424486823E+04  0.29424486823E+04  0.00000000000E+00 0. -1.
         25    2    1    2    0    0 -0.25728092255E+02  0.31149831366E+02 -0.10856715588E+04  0.10935908071E+04  0.12500349142E+03 0.  0.
    9000005    1    3    3    0    0 -0.42403130801E+02  0.70106703233E+02 -0.52905645349E+03  0.53536408762E+03  0.10000000000E+01 0.  0.
    9000005    1    3    3    0    0  0.16675038546E+02 -0.38956871867E+02 -0.55661510535E+03  0.55822671943E+03  0.10000000000E+01 0.  0.
         -4    1    1    2    0  502  0.25728092255E+02 -0.31149831366E+02 -0.18526935184E+04  0.18531344077E+04  0.12700000000E+01 0. -1.
<mgrwt>
<rscale>  1 0.13137016E+03</rscale>
<asrwt>0</asrwt>
<pdfrwt beam="2">  1       21 0.45268460E+00 0.13137016E+03</pdfrwt>
<pdfrwt beam="1">  1       -4 0.64310832E-03 0.13137016E+03</pdfrwt>
<totfact> 0.10186093E+03</totfact>
</mgrwt>
</event>
<event>
 6    4  0.6195789E-003  0.1270196E+03  0.7818608E-02  0.1231946E+00
         21   -1    0    0  501  502  0.00000000000E+00  0.00000000000E+00  0.47948263552E+03  0.47948263552E+03  0.00000000000E+00 0.  1.
          4   -1    0    0  502    0 -0.00000000000E+00 -0.00000000000E+00 -0.84092604082E+02  0.84102193559E+02  0.12700000000E+01 0.  1.
         25    2    1    2    0    0 -0.55841941633E+01  0.21813219810E+02 -0.35671709704E+02  0.13193353769E+03  0.12500795059E+03 0.  0.
    9000005    1    3    3    0    0  0.35416250218E+01 -0.78957552836E+00  0.46277387255E+02  0.46430196085E+02  0.10000000000E+01 0.  0.
    9000005    1    3    3    0    0 -0.91258191851E+01  0.22602795339E+02 -0.81949096959E+02  0.85503341603E+02  0.10000000000E+01 0.  0.
          4    1    1    2  501    0  0.55841941633E+01 -0.21813219810E+02  0.43106174114E+03  0.43165129139E+03  0.12700000000E+01 0. -1.
<mgrwt>
<rscale>  1 0.12701963E+03</rscale>
<asrwt>0</asrwt>
<pdfrwt beam="1">  1       21 0.73766558E-01 0.12701963E+03</pdfrwt>
<pdfrwt beam="2">  1        4 0.12938191E-01 0.12701963E+03</pdfrwt>
<totfact> 0.33360987E+03</totfact>
</mgrwt>
</event>
<event>
 6    4  0.6195789E-003  0.1317239E+03  0.7818608E-02  0.1224920E+00
         21   -1    0    0  501  502  0.00000000000E+00  0.00000000000E+00  0.72526236096E+03  0.72526236096E+03  0.00000000000E+00 0. -1.
         -4   -1    0    0    0  501 -0.00000000000E+00 -0.00000000000E+00 -0.10930932529E+02  0.11004462093E+02  0.12700000000E+01 0.  1.
         25    2    1    2    0    0  0.41514287195E+02 -0.18396210828E+01  0.45724418711E+03  0.47583970695E+03  0.12499743927E+03 0.  0.
    9000005    1    3    3    0    0  0.33019510610E+02  0.49339702761E+02  0.11246104692E+03  0.12717382366E+03  0.10000000000E+01 0.  0.
    9000005    1    3    3    0    0  0.84947765850E+01 -0.51179323844E+02  0.34478314018E+03  0.34866588329E+03  0.10000000000E+01 0.  0.
         -4    1    1    2    0  502 -0.41514287195E+02  0.18396210828E+01  0.25708724133E+03  0.26042711610E+03  0.12700000000E+01 0. -1.
<mgrwt>
<rscale>  1 0.13172388E+03</rscale>
<asrwt>0</asrwt>
<pdfrwt beam="1">  1       21 0.11157879E+00 0.13172388E+03</pdfrwt>
<pdfrwt beam="2">  1       -4 0.16874241E-02 0.13172388E+03</pdfrwt>
<totfact> 0.34236412E+04</totfact>
</mgrwt>
</event>
<event>
 6    4  0.6195789E-003  0.1308067E+03  0.7818608E-02  0.1226264E+00
          4   -1    0    0  502    0 -0.00000000000E+00  0.00000000000E+00  0.24319256808E+03  0.24319588415E+03  0.12700000000E+01 0.  1.
         21   -1    0    0  501  502  0.00000000000E+00 -0.00000000000E+00 -0.29482866651E+02  0.29482866651E+02  0.00000000000E+00 0.  1.
         25    2    1    2    0    0 -0.13058996360E+02 -0.36241100517E+02  0.16614023968E+03  0.21145439826E+03  0.12500571408E+03 0.  0.
    9000005    1    3    3    0    0  0.26587606458E+02  0.25974068970E+01  0.15178195947E+03  0.15411817077E+03  0.10000000000E+01 0.  0.
    9000005    1    3    3    0    0 -0.39646602818E+02 -0.38838507414E+02  0.14358280208E+02  0.57336227498E+02  0.10000000000E+01 0.  0.
          4    1    1    2  501    0  0.13058996360E+02  0.36241100517E+02  0.47569461748E+02  0.61224352538E+02  0.12700000000E+01 0. -1.
<mgrwt>
<rscale>  1 0.13080666E+03</rscale>
<asrwt>0</asrwt>
<pdfrwt beam="2">  1       21 0.45358258E-02 0.13080666E+03</pdfrwt>
<pdfrwt beam="1">  1        4 0.37416599E-01 0.13080666E+03</pdfrwt>
<totfact> 0.88082460E+04</totfact>
</mgrwt>
</event>
<event>
 6    4  0.6195789E-003  0.1402844E+03  0.7818608E-02  0.1212947E+00
          4   -1    0    0  502    0 -0.00000000000E+00  0.00000000000E+00  0.21088188324E+04  0.21088192148E+04  0.12700000000E+01 0. -1.
         21   -1    0    0  501  502  0.00000000000E+00 -0.00000000000E+00 -0.26033083600E+02  0.26033083600E+02  0.00000000000E+00 0.  1.
         25    2    1    2    0    0 -0.55468161069E+02 -0.31272620599E+02  0.20635623914E+04  0.20683252809E+04  0.12500012231E+03 0.  0.
    9000005    1    3    3    0    0  0.87171733222E+00  0.19981339292E+02  0.58802544786E+02  0.62118862548E+02  0.10000000000E+01 0.  0.
    9000005    1    3    3    0    0 -0.56339878401E+02 -0.51253959892E+02  0.20047598467E+04  0.20062064184E+04  0.10000000000E+01 0.  0.
          4    1    1    2  501    0  0.55468161069E+02  0.31272620599E+02  0.19223357368E+02  0.66527017519E+02  0.12700000000E+01 0.  1.
<mgrwt>
<rscale>  1 0.14028444E+03</rscale>
<asrwt>0</asrwt>
<pdfrwt beam="2">  1       21 0.40050914E-02 0.14028444E+03</pdfrwt>
<pdfrwt beam="1">  1        4 0.32443594E+00 0.14028444E+03</pdfrwt>
<totfact> 0.44174764E+02</totfact>
</mgrwt>
</event>
<event>
 6    4  0.6195789E-003  0.1431602E+03  0.7818608E-02  0.1209139E+00
         -4   -1    0    0    0  501 -0.00000000000E+00  0.00000000000E+00  0.20544673878E+03  0.20545066409E+03  0.12700000000E+01 0.  1.
         21   -1    0    0  501  502  0.00000000000E+00 -0.00000000000E+00 -0.56193570630E+02  0.56193570630E+02  0.00000000000E+00 0. -1.
         25    2    1    2    0    0  0.66029854339E+02 -0.22582358170E+02  0.11636514471E+03  0.18448764362E+03  0.12499975672E+03 0.  0.
    9000005    1    3    3    0    0 -0.15910373299E+02 -0.11833036534E+02  0.97780332669E+02  0.99775518986E+02  0.10000000000E+01 0.  0.
    9000005    1    3    3    0    0  0.81940227638E+02 -0.10749321636E+02  0.18584812038E+02  0.84712124631E+02  0.10000000000E+01 0.  0.
         -4    1    1    2    0  502 -0.66029854339E+02  0.22582358170E+02  0.32888023441E+02  0.77156591101E+02  0.12700000000E+01 0. -1.
<mgrwt>
<rscale>  1 0.14316020E+03</rscale>
<asrwt>0</asrwt>
<pdfrwt beam="2">  1       21 0.86451648E-02 0.14316020E+03</pdfrwt>
<pdfrwt beam="1">  1       -4 0.31608596E-01 0.14316020E+03</pdfrwt>
<totfact> 0.41108001E+04</totfact>
</mgrwt>
</event>
<event>
 6    4  0.6195789E-003  0.1296407E+03  0.7818608E-02  0.1227990E+00
         -4   -1    0    0    0  501 -0.00000000000E+00  0.00000000000E+00  0.11642734099E+03  0.11643426743E+03  0.12700000000E+01 0. -1.
         21   -1    0    0  501  502  0.00000000000E+00 -0.00000000000E+00 -0.18766571474E+03  0.18766571474E+03  0.00000000000E+00 0.  1.
         25    2    1    2    0    0 -0.17275033551E+01  0.34342021163E+02  0.77764659466E+02  0.15117557113E+03  0.12499740941E+03 0.  0.
    9000005    1    3    3    0    0 -0.13162561282E+02  0.78569202657E+02  0.67320893116E+02  0.10430472317E+03  0.10000000000E+01 0.  0.
    9000005    1    3    3    0    0  0.11435057927E+02 -0.44227181494E+02  0.10443766349E+02  0.46870847958E+02  0.10000000000E+01 0.  0.
         -4    1    1    2    0  502  0.17275033551E+01 -0.34342021163E+02 -0.14900303321E+03  0.15292441104E+03  0.12700000000E+01 0.  1.
<mgrwt>
<rscale>  1 0.12964070E+03</rscale>
<asrwt>0</asrwt>
<pdfrwt beam="2">  1       21 0.28871648E-01 0.12964070E+03</pdfrwt>
<pdfrwt beam="1">  1       -4 0.17912762E-01 0.12964070E+03</pdfrwt>
<totfact> 0.12897672E+04</totfact>
</mgrwt>
</event>
<event>
 6    4  0.6195789E-003  0.1432357E+03  0.7818608E-02  0.1209040E+00
         21   -1    0    0  501  502  0.00000000000E+00  0.00000000000E+00  0.53747003940E+02  0.53747003940E+02  0.00000000000E+00 0. -1.
          4   -1    0    0  502    0 -0.00000000000E+00 -0.00000000000E+00 -0.81268690005E+03  0.81268789238E+03  0.12700000000E+01 0.  1.
         25    2    1    2    0    0 -0.68957508523E+02 -0.11672409638E+02 -0.78026763329E+03  0.79330577488E+03  0.12500035909E+03 0.  0.
    9000005    1    3    3    0    0 -0.97408788044E+02 -0.59588770371E+01 -0.71797791159E+03  0.72458074894E+03  0.10000000000E+01 0.  0.
    9000005    1    3    3    0    0  0.28451279522E+02 -0.57135326006E+01 -0.62289721699E+02  0.68725025940E+02  0.10000000000E+01 0.  0.
          4    1    1    2  501    0  0.68957508523E+02  0.11672409638E+02  0.21327737180E+02  0.73129121434E+02  0.12700000000E+01 0. -1.
<mgrwt>
<rscale>  1 0.14323572E+03</rscale>
<asrwt>0</asrwt>
<pdfrwt beam="1">  1       21 0.82687705E-02 0.14323572E+03</pdfrwt>
<pdfrwt beam="2">  1        4 0.12502997E+00 0.14323572E+03</pdfrwt>
<totfact> 0.23589145E+03</totfact>
</mgrwt>
</event>
<event>
 6    4  0.6195789E-003  0.1362460E+03  0.7818608E-02  0.1218471E+00
         -4   -1    0    0    0  501 -0.00000000000E+00  0.00000000000E+00  0.75414428170E+01  0.76476309902E+01  0.12700000000E+01 0.  1.
         21   -1    0    0  501  502  0.00000000000E+00 -0.00000000000E+00 -0.15689623221E+04  0.15689623221E+04  0.00000000000E+00 0.  1.
         25    2    1    2    0    0 -0.40118745586E+02 -0.36451841586E+02 -0.67954449746E+03  0.69306832067E+03  0.12499889034E+03 0.  0.
    9000005    1    3    3    0    0  0.37117479976E+02  0.17994808050E+02 -0.23424867005E+03  0.23785491346E+03  0.10000000000E+01 0.  0.
    9000005    1    3    3    0    0 -0.77236225562E+02 -0.54446649636E+02 -0.44529582741E+03  0.45521340721E+03  0.10000000000E+01 0.  0.
         -4    1    1    2    0  502  0.40118745586E+02  0.36451841586E+02 -0.88187638178E+03  0.88354163238E+03  0.12700000000E+01 0. -1.
<mgrwt>
<rscale>  1 0.13624600E+03</rscale>
<asrwt>0</asrwt>
<pdfrwt beam="2">  1       21 0.24137894E+00 0.13624600E+03</pdfrwt>
<pdfrwt beam="1">  1       -4 0.11684293E-02 0.13624600E+03</pdfrwt>
<totfact> 0.73574710E+03</totfact>
</mgrwt>
</event>
<event>
 6    4  0.6195789E-003  0.1316693E+03  0.7818608E-02  0.1225000E+00
         21   -1    0    0  501  502  0.00000000000E+00  0.00000000000E+00  0.15347837927E+03  0.15347837927E+03  0.00000000000E+00 0. -1.
          4   -1    0    0  502    0 -0.00000000000E+00 -0.00000000000E+00 -0.11027530152E+03  0.11028261434E+03  0.12700000000E+01 0. -1.
         25    2    1    2    0    0 -0.34680543691E+02 -0.22561753226E+02 -0.65776762331E+02  0.14718487571E+03  0.12500012943E+03 0.  0.
    9000005    1    3    3    0    0 -0.72937123871E+02 -0.90572601407E+01 -0.75586844123E+02  0.10543352884E+03  0.10000000000E+01 0.  0.
    9000005    1    3    3    0    0  0.38256580180E+02 -0.13504493085E+02  0.98100817925E+01  0.41751346869E+02  0.10000000000E+01 0.  0.
          4    1    1    2  501    0  0.34680543691E+02  0.22561753226E+02  0.10897984008E+03  0.11657611790E+03  0.12700000000E+01 0.  1.
<mgrwt>
<rscale>  1 0.13166930E+03</rscale>
<asrwt>0</asrwt>
<pdfrwt beam="1">  1       21 0.23612058E-01 0.13166930E+03</pdfrwt>
<pdfrwt beam="2">  1        4 0.16966398E-01 0.13166930E+03</pdfrwt>
<totfact> 0.20835547E+04</totfact>
</mgrwt>
</event>
<event>
 6    4  0.6195789E-003  0.1405570E+03  0.7818608E-02  0.1212581E+00
         21   -1    0    0  501  502  0.00000000000E+00  0.00000000000E+00  0.19038414363E+02  0.19038414363E+02  0.00000000000E+00 0.  1.
         -4   -1    0    0    0  501 -0.00000000000E+00 -0.00000000000E+00 -0.81642756312E+03  0.81642855090E+03  0.12700000000E+01 0. -1.
         25    2    1    2    0    0 -0.57831698635E+02  0.28044524172E+02 -0.72565558062E+03  0.73914293710E+03  0.12500103632E+03 0.  0.
    9000005    1    3    3    0    0 -0.66617598334E+02 -0.34643009023E+02 -0.32853926204E+03  0.33701200154E+03  0.10000000000E+01 0.  0.
    9000005    1    3    3    0    0  0.87858996986E+01  0.62687533195E+02 -0.39711631858E+03  0.40213093556E+03  0.10000000000E+01 0.  0.
         -4    1    1    2    0  502  0.57831698635E+02 -0.28044524172E+02 -0.71733568139E+02  0.96324028160E+02  0.12700000000E+01 0.  1.
<mgrwt>
<rscale>  1 0.14055696E+03</rscale>
<asrwt>0</asrwt>
<pdfrwt beam="1">  1       21 0.29289869E-02 0.14055696E+03</pdfrwt>
<pdfrwt beam="2">  1       -4 0.12560757E+00 0.14055696E+03</pdfrwt>
<totfact> 0.13369288E+04</totfact>
</mgrwt>
</event>
<event>
 6    4  0.6195789E-003  0.1268931E+03  0.7818608E-02  0.1232140E+00
         -4   -1    0    0    0  501 -0.00000000000E+00  0.00000000000E+00  0.21827516039E+02  0.21864431309E+02  0.12700000000E+01 0. -1.
         21   -1    0    0  501  502  0.00000000000E+00 -0.00000000000E+00 -0.33232044887E+03  0.33232044887E+03  0.00000000000E+00 0.  1.
         25    2    1    2    0    0  0.21432804754E+02  0.42375295863E+01 -0.17074564974E+03  0.21273440189E+03  0.12499810825E+03 0.  0.
    9000005    1    3    3    0    0 -0.25037597263E+02  0.40930020992E+02 -0.22312566630E+02  0.52924460552E+02  0.10000000000E+01 0.  0.
    9000005    1    3    3    0    0  0.46470402018E+02 -0.36692491406E+02 -0.14843308311E+03  0.15980994134E+03  0.10000000000E+01 0.  0.
         -4    1    1    2    0  502 -0.21432804754E+02 -0.42375295863E+01 -0.13974728309E+03  0.14145047829E+03  0.12700000000E+01 0.  1.
<mgrwt>
<rscale>  1 0.12689306E+03</rscale>
<asrwt>0</asrwt>
<pdfrwt beam="2">  1       21 0.51126222E-01 0.12689306E+03</pdfrwt>
<pdfrwt beam="1">  1       -4 0.33611058E-02 0.12689306E+03</pdfrwt>
<totfact> 0.66221570E+04</totfact>
</mgrwt>
</event>
<event>
 6    4  0.6195789E-003  0.1278963E+03  0.7818608E-02  0.1230611E+00
          4   -1    0    0  502    0 -0.00000000000E+00  0.00000000000E+00  0.61569015152E+02  0.61582112069E+02  0.12700000000E+01 0.  1.
         21   -1    0    0  501  502  0.00000000000E+00 -0.00000000000E+00 -0.13726347144E+03  0.13726347144E+03  0.00000000000E+00 0.  1.
         25    2    1    2    0    0  0.26850018323E+02 -0.33831627905E+01 -0.10595817521E+02  0.12833448549E+03  0.12500039817E+03 0.  0.
    9000005    1    3    3    0    0 -0.18424239180E+02  0.48075428929E+02  0.17307545175E+02  0.54325413722E+02  0.10000000000E+01 0.  0.
    9000005    1    3    3    0    0  0.45274257503E+02 -0.51458591720E+02 -0.27903362696E+02  0.74009071768E+02  0.10000000000E+01 0.  0.
          4    1    1    2  501    0 -0.26850018323E+02  0.33831627905E+01 -0.65098638766E+02  0.70511098017E+02  0.12700000000E+01 0. -1.
<mgrwt>
<rscale>  1 0.12789632E+03</rscale>
<asrwt>0</asrwt>
<pdfrwt beam="2">  1       21 0.21117457E-01 0.12789632E+03</pdfrwt>
<pdfrwt beam="1">  1        4 0.94736157E-02 0.12789632E+03</pdfrwt>
<totfact> 0.69643991E+04</totfact>
</mgrwt>
</event>
<event>
 6    4  0.6195789E-003  0.1270165E+03  0.7818608E-02  0.1231951E+00
         21   -1    0    0  501  502  0.00000000000E+00  0.00000000000E+00  0.90083782667E+02  0.90083782667E+02  0.00000000000E+00 0.  1.
          4   -1    0    0  502    0 -0.00000000000E+00 -0.00000000000E+00 -0.63763346060E+02  0.63775992355E+02  0.12700000000E+01 0.  1.
         25    2    1    2    0    0  0.22537232530E+02  0.69330823248E+00  0.31116586768E+02  0.13077247369E+03  0.12499916150E+03 0.  0.
    9000005    1    3    3    0    0  0.33620166630E+02  0.99152037585E+01 -0.42871618103E+02  0.55385941434E+02  0.10000000000E+01 0.  0.
    9000005    1    3    3    0    0 -0.11082934099E+02 -0.92218955261E+01  0.73988204872E+02  0.75386532255E+02  0.10000000000E+01 0.  0.
          4    1    1    2  501    0 -0.22537232530E+02 -0.69330823248E+00 -0.47961501616E+01  0.23087301332E+02  0.12700000000E+01 0. -1.
<mgrwt>
<rscale>  1 0.12701653E+03</rscale>
<asrwt>0</asrwt>
<pdfrwt beam="1">  1       21 0.13859044E-01 0.12701653E+03</pdfrwt>
<pdfrwt beam="2">  1        4 0.98114069E-02 0.12701653E+03</pdfrwt>
<totfact> 0.14136624E+05</totfact>
</mgrwt>
</event>
<event>
 6    4  0.6195789E-003  0.1270069E+03  0.7818608E-02  0.1231966E+00
         21   -1    0    0  501  502  0.00000000000E+00  0.00000000000E+00  0.72011643317E+02  0.72011643317E+02  0.00000000000E+00 0. -1.
         -4   -1    0    0    0  501 -0.00000000000E+00 -0.00000000000E+00 -0.87882390272E+02  0.87891566262E+02  0.12700000000E+01 0. -1.
         25    2    1    2    0    0  0.51545043346E+01  0.22194955044E+02 -0.33169532889E+02  0.13126676708E+03  0.12494623357E+03 0.  0.
    9000005    1    3    3    0    0  0.25146445682E+01  0.74523005521E+02 -0.20897611108E+02  0.77444896147E+02  0.10000000000E+01 0.  0.
    9000005    1    3    3    0    0  0.26398597664E+01 -0.52328050477E+02 -0.12271921780E+02  0.53821870931E+02  0.10000000000E+01 0.  0.
         -4    1    1    2    0  502 -0.51545043346E+01 -0.22194955044E+02  0.17298785934E+02  0.28636442501E+02  0.12700000000E+01 0.  1.
<mgrwt>
<rscale>  1 0.12700687E+03</rscale>
<asrwt>0</asrwt>
<pdfrwt beam="1">  1       21 0.11078714E-01 0.12700687E+03</pdfrwt>
<pdfrwt beam="2">  1       -4 0.13521935E-01 0.12700687E+03</pdfrwt>
<totfact> 0.12184630E+05</totfact>
</mgrwt>
</event>
<event>
 6    4  0.6195789E-003  0.1269717E+03  0.7818608E-02  0.1232020E+00
         21   -1    0    0  501  502  0.00000000000E+00  0.00000000000E+00  0.89937584524E+02  0.89937584524E+02  0.00000000000E+00 0.  1.
          4   -1    0    0  502    0 -0.00000000000E+00 -0.00000000000E+00 -0.67972213632E+02  0.67984077004E+02  0.12700000000E+01 0.  1.
         25    2    1    2    0    0 -0.14624403468E+02  0.16782390616E+02  0.50128354658E+00  0.12697264285E+03  0.12500511564E+03 0.  0.
    9000005    1    3    3    0    0  0.24072663935E+02 -0.29617780566E+02  0.39593287197E+02  0.55003040512E+02  0.10000000000E+01 0.  0.
    9000005    1    3    3    0    0 -0.38697067402E+02  0.46400171182E+02 -0.39092003650E+02  0.71969602337E+02  0.10000000000E+01 0.  0.
          4    1    1    2  501    0  0.14624403468E+02 -0.16782390616E+02  0.21464087346E+02  0.30949018678E+02  0.12700000000E+01 0. -1.
<mgrwt>
<rscale>  1 0.12697165E+03</rscale>
<asrwt>0</asrwt>
<pdfrwt beam="1">  1       21 0.13836551E-01 0.12697165E+03</pdfrwt>
<pdfrwt beam="2">  1        4 0.10458866E-01 0.12697165E+03</pdfrwt>
<totfact> 0.12730379E+05</totfact>
</mgrwt>
</event>
<event>
 6    4  0.6195789E-003  0.1267848E+03  0.7818608E-02  0.1232306E+00
         21   -1    0    0  501  502  0.00000000000E+00  0.00000000000E+00  0.16455539667E+02  0.16455539667E+02  0.00000000000E+00 0.  1.
          4   -1    0    0  502    0 -0.00000000000E+00 -0.00000000000E+00 -0.88350848893E+03  0.88350940171E+03  0.12700000000E+01 0. -1.
         25    2    1    2    0    0 -0.19503801889E+02 -0.83001757145E+01 -0.86940475160E+03  0.87860060008E+03  0.12500040457E+03 0.  0.
    9000005    1    3    3    0    0  0.45623023439E+02 -0.33734545976E+02 -0.40786749277E+03  0.41179651712E+03  0.10000000000E+01 0.  0.
    9000005    1    3    3    0    0 -0.65126825328E+02  0.25434370262E+02 -0.46153725884E+03  0.46680408295E+03  0.10000000000E+01 0.  0.
          4    1    1    2  501    0  0.19503801889E+02  0.83001757145E+01  0.23518023383E+01  0.21364341302E+02  0.12700000000E+01 0.  1.
<mgrwt>
<rscale>  1 0.12678483E+03</rscale>
<asrwt>0</asrwt>
<pdfrwt beam="1">  1       21 0.25316217E-02 0.12678483E+03</pdfrwt>
<pdfrwt beam="2">  1        4 0.13592821E+00 0.12678483E+03</pdfrwt>
<totfact> 0.13844259E+04</totfact>
</mgrwt>
</event>
<event>
 6    4  0.6195789E-003  0.1287558E+03  0.7818608E-02  0.1229314E+00
         21   -1    0    0  501  502  0.00000000000E+00  0.00000000000E+00  0.21921317008E+03  0.21921317008E+03  0.00000000000E+00 0. -1.
          4   -1    0    0  502    0 -0.00000000000E+00 -0.00000000000E+00 -0.31398816650E+02  0.31424490243E+02  0.12700000000E+01 0. -1.
         25    2    1    2    0    0  0.64183784508E+01 -0.30192897292E+02  0.11951212795E+03  0.17567357869E+03  0.12500100358E+03 0.  0.
    9000005    1    3    3    0    0  0.31745646940E+02  0.37717067810E+02  0.21556572255E+02  0.53814952488E+02  0.10000000000E+01 0.  0.
    9000005    1    3    3    0    0 -0.25327268489E+02 -0.67909965103E+02  0.97955555690E+02  0.12185862620E+03  0.10000000000E+01 0.  0.
          4    1    1    2  501    0 -0.64183784508E+01  0.30192897292E+02  0.68302225481E+02  0.74964081629E+02  0.12700000000E+01 0.  1.
<mgrwt>
<rscale>  1 0.12875581E+03</rscale>
<asrwt>0</asrwt>
<pdfrwt beam="1">  1       21 0.33725102E-01 0.12875581E+03</pdfrwt>
<pdfrwt beam="2">  1        4 0.48328452E-02 0.12875581E+03</pdfrwt>
<totfact> 0.86018532E+04</totfact>
</mgrwt>
</event>
<event>
 6    4  0.6195789E-003  0.1327059E+03  0.7818608E-02  0.1223495E+00
          4   -1    0    0  502    0 -0.00000000000E+00  0.00000000000E+00  0.54415152516E+02  0.54429970819E+02  0.12700000000E+01 0. -1.
         21   -1    0    0  501  502  0.00000000000E+00 -0.00000000000E+00 -0.16638734657E+03  0.16638734657E+03  0.00000000000E+00 0.  1.
         25    2    1    2    0    0  0.69195133831E+01  0.44017209331E+02 -0.44535152771E+02  0.13997944372E+03  0.12500188178E+03 0.  0.
    9000005    1    3    3    0    0  0.23068712313E+02  0.73094106724E+02 -0.65349967644E+02  0.10072999651E+03  0.10000000000E+01 0.  0.
    9000005    1    3    3    0    0 -0.16149198930E+02 -0.29076897393E+02  0.20814814873E+02  0.39249447210E+02  0.10000000000E+01 0.  0.
          4    1    1    2  501    0 -0.69195133831E+01 -0.44017209331E+02 -0.67437041285E+02  0.80837873673E+02  0.12700000000E+01 0.  1.
<mgrwt>
<rscale>  1 0.13270593E+03</rscale>
<asrwt>0</asrwt>
<pdfrwt beam="2">  1       21 0.25598053E-01 0.13270593E+03</pdfrwt>
<pdfrwt beam="1">  1        4 0.83730747E-02 0.13270593E+03</pdfrwt>
<totfact> 0.59918236E+04</totfact>
</mgrwt>
</event>
<event>
 6    4  0.6195789E-003  0.1856969E+03  0.7818608E-02  0.1162401E+00
         -4   -1    0    0    0  501 -0.00000000000E+00  0.00000000000E+00  0.53435805165E+03  0.53435956084E+03  0.12700000000E+01 0.  1.
         21   -1    0    0  501  502  0.00000000000E+00 -0.00000000000E+00 -0.74591942236E+02  0.74591942236E+02  0.00000000000E+00 0. -1.
         25    2    1    2    0    0 -0.84504164694E+02  0.10824400053E+03  0.43007022028E+03  0.46844820692E+03  0.12500244274E+03 0.  0.
    9000005    1    3    3    0    0 -0.34696442411E+02  0.92132672602E+02  0.39076870204E+03  0.40298070794E+03  0.10000000000E+01 0.  0.
    9000005    1    3    3    0    0 -0.49807722283E+02  0.16111327925E+02  0.39301518240E+02  0.65467498978E+02  0.10000000000E+01 0.  0.
         -4    1    1    2    0  502  0.84504164694E+02 -0.10824400053E+03  0.29695889136E+02  0.14050329616E+03  0.12700000000E+01 0. -1.
<mgrwt>
<rscale>  1 0.18569687E+03</rscale>
<asrwt>0</asrwt>
<pdfrwt beam="2">  1       21 0.11475684E-01 0.18569687E+03</pdfrwt>
<pdfrwt beam="1">  1       -4 0.82209876E-01 0.18569687E+03</pdfrwt>
<totfact> 0.35672154E+03</totfact>
</mgrwt>
</event>
<event>
 6    4  0.6195789E-003  0.1274481E+03  0.7818608E-02  0.1231292E+00
         21   -1    0    0  501  502  0.00000000000E+00  0.00000000000E+00  0.29731740747E+03  0.29731740747E+03  0.00000000000E+00 0.  1.
         -4   -1    0    0    0  501 -0.00000000000E+00 -0.00000000000E+00 -0.20481187996E+02  0.20520525376E+02  0.12700000000E+01 0.  1.
         25    2    1    2    0    0 -0.32189848424E+01  0.24641177139E+02  0.20077551852E+03  0.23781048378E+03  0.12500187153E+03 0.  0.
    9000005    1    3    3    0    0  0.59750122997E+02  0.23930516130E+02  0.96890222050E+02  0.11632481218E+03  0.10000000000E+01 0.  0.
    9000005    1    3    3    0    0 -0.62969107840E+02  0.71066100868E+00  0.10388529647E+03  0.12148567160E+03  0.10000000000E+01 0.  0.
         -4    1    1    2    0  502  0.32189848424E+01 -0.24641177139E+02  0.76060700951E+02  0.80027449062E+02  0.12700000000E+01 0. -1.
<mgrwt>
<rscale>  1 0.12744810E+03</rscale>
<asrwt>0</asrwt>
<pdfrwt beam="1">  1       21 0.45741137E-01 0.12744810E+03</pdfrwt>
<pdfrwt beam="2">  1       -4 0.31541868E-02 0.12744810E+03</pdfrwt>
<totfact> 0.91994146E+04</totfact>
</mgrwt>
</event>
<event>
 6    4  0.6195789E-003  0.1367116E+03  0.7818608E-02  0.1217823E+00
         -4   -1    0    0    0  501 -0.00000000000E+00  0.00000000000E+00  0.53597861695E+03  0.53598012158E+03  0.12700000000E+01 0.  1.
         21   -1    0    0  501  502  0.00000000000E+00 -0.00000000000E+00 -0.24774304774E+02  0.24774304774E+02  0.00000000000E+00 0. -1.
         25    2    1    2    0    0 -0.43004804881E+01  0.55209413941E+02  0.47571455745E+03  0.49496910040E+03  0.12499398651E+03 0.  0.
    9000005    1    3    3    0    0  0.55070209574E+02  0.26242322405E+02  0.13849080993E+03  0.15133437119E+03  0.10000000000E+01 0.  0.
    9000005    1    3    3    0    0 -0.59370690062E+02  0.28967091536E+02  0.33722374752E+03  0.34363472921E+03  0.10000000000E+01 0.  0.
         -4    1    1    2    0  502  0.43004804881E+01 -0.55209413941E+02  0.35489754730E+02  0.65785325954E+02  0.12700000000E+01 0. -1.
<mgrwt>
<rscale>  1 0.13671163E+03</rscale>
<asrwt>0</asrwt>
<pdfrwt beam="2">  1       21 0.38114319E-02 0.13671163E+03</pdfrwt>
<pdfrwt beam="1">  1       -4 0.82460859E-01 0.13671163E+03</pdfrwt>
<totfact> 0.22937963E+04</totfact>
</mgrwt>
</event>
<event>
 6    4  0.6195789E-003  0.1346902E+03  0.7818608E-02  0.1220658E+00
         21   -1    0    0  501  502  0.00000000000E+00  0.00000000000E+00  0.94519130804E+01  0.94519130804E+01  0.00000000000E+00 0.  1.
         -4   -1    0    0    0  501 -0.00000000000E+00 -0.00000000000E+00 -0.10602618168E+04  0.10602625775E+04  0.12700000000E+01 0. -1.
         25    2    1    2    0    0  0.49908499198E+02  0.51796659229E+01 -0.91627228153E+03  0.92611897554E+03  0.12499510280E+03 0.  0.
    9000005    1    3    3    0    0  0.38054736846E+02 -0.54586613406E+02 -0.62546180551E+03  0.62899231435E+03  0.10000000000E+01 0.  0.
    9000005    1    3    3    0    0  0.11853762352E+02  0.59766279329E+02 -0.29081047602E+03  0.29712666119E+03  0.10000000000E+01 0.  0.
         -4    1    1    2    0  502 -0.49908499198E+02 -0.51796659229E+01 -0.13453762223E+03  0.14359551499E+03  0.12700000000E+01 0.  1.
<mgrwt>
<rscale>  1 0.13469025E+03</rscale>
<asrwt>0</asrwt>
<pdfrwt beam="1">  1       21 0.14541410E-02 0.13469025E+03</pdfrwt>
<pdfrwt beam="2">  1       -4 0.16312376E+00 0.13469025E+03</pdfrwt>
<totfact> 0.21413525E+04</totfact>
</mgrwt>
</event>
<event>
 6    4  0.6195789E-003  0.1299178E+03  0.7818608E-02  0.1227578E+00
         21   -1    0    0  501  502  0.00000000000E+00  0.00000000000E+00  0.25697400992E+02  0.25697400992E+02  0.00000000000E+00 0. -1.
         -4   -1    0    0    0  501 -0.00000000000E+00 -0.00000000000E+00 -0.37993972400E+03  0.37994184656E+03  0.12700000000E+01 0.  1.
         25    2    1    2    0    0  0.34963586328E+02 -0.49737252684E+01 -0.34566680632E+03  0.36927521727E+03  0.12502581650E+03 0.  0.
    9000005    1    3    3    0    0 -0.11797052134E+02  0.14141797233E+02 -0.30179964727E+03  0.30236267620E+03  0.10000000000E+01 0.  0.
    9000005    1    3    3    0    0  0.46760638462E+02 -0.19115522501E+02 -0.43867159051E+02  0.66912541074E+02  0.10000000000E+01 0.  0.
         -4    1    1    2    0  502 -0.34963586328E+02  0.49737252684E+01 -0.85755166859E+01  0.36364030282E+02  0.12700000000E+01 0. -1.
<mgrwt>
<rscale>  1 0.12991784E+03</rscale>
<asrwt>0</asrwt>
<pdfrwt beam="1">  1       21 0.39534465E-02 0.12991784E+03</pdfrwt>
<pdfrwt beam="2">  1       -4 0.58454840E-01 0.12991784E+03</pdfrwt>
<totfact> 0.45028517E+04</totfact>
</mgrwt>
</event>
<event>
 6    4  0.6195789E-003  0.1453671E+03  0.7818608E-02  0.1206284E+00
         21   -1    0    0  501  502  0.00000000000E+00  0.00000000000E+00  0.15413632354E+04  0.15413632354E+04  0.00000000000E+00 0. -1.
         -4   -1    0    0    0  501 -0.00000000000E+00 -0.00000000000E+00 -0.89006999819E+01  0.89908486901E+01  0.12700000000E+01 0.  1.
         25    2    1    2    0    0 -0.32854323353E+02 -0.66538033504E+02  0.72124711997E+03  0.73575063478E+03  0.12499948820E+03 0.  0.
    9000005    1    3    3    0    0 -0.19474362802E+02 -0.87626366034E+00  0.11113727978E+02  0.22461825262E+02  0.10000000000E+01 0.  0.
    9000005    1    3    3    0    0 -0.13379960551E+02 -0.65661769843E+02  0.71013339199E+03  0.71328880952E+03  0.10000000000E+01 0.  0.
         -4    1    1    2    0  502  0.32854323353E+02  0.66538033504E+02  0.81121541548E+03  0.81460344935E+03  0.12700000000E+01 0. -1.
<mgrwt>
<rscale>  1 0.14536708E+03</rscale>
<asrwt>0</asrwt>
<pdfrwt beam="1">  1       21 0.23713259E+00 0.14536708E+03</pdfrwt>
<pdfrwt beam="2">  1       -4 0.13763144E-02 0.14536708E+03</pdfrwt>
<totfact> 0.60740217E+03</totfact>
</mgrwt>
</event>
<event>
 6    4  0.6195789E-003  0.1535174E+03  0.7818608E-02  0.1196216E+00
         21   -1    0    0  501  502  0.00000000000E+00  0.00000000000E+00  0.35865198263E+02  0.35865198263E+02  0.00000000000E+00 0. -1.
         -4   -1    0    0    0  501 -0.00000000000E+00 -0.00000000000E+00 -0.10333819703E+04  0.10333827507E+04  0.12700000000E+01 0.  1.
         25    2    1    2    0    0 -0.67488886370E+02 -0.58207177357E+02 -0.96057336900E+03  0.97276347761E+03  0.12499904340E+03 0.  0.
    9000005    1    3    3    0    0  0.33377520020E+02 -0.37648779815E+02 -0.34191258049E+03  0.34559615472E+03  0.10000000000E+01 0.  0.
    9000005    1    3    3    0    0 -0.10086640639E+03 -0.20558397542E+02 -0.61866078851E+03  0.62716732288E+03  0.10000000000E+01 0.  0.
         -4    1    1    2    0  502  0.67488886370E+02  0.58207177357E+02 -0.36943402991E+02  0.96484471310E+02  0.12700000000E+01 0. -1.
<mgrwt>
<rscale>  1 0.15351738E+03</rscale>
<asrwt>0</asrwt>
<pdfrwt beam="1">  1       21 0.55177238E-02 0.15351738E+03</pdfrwt>
<pdfrwt beam="2">  1       -4 0.15898360E+00 0.15351738E+03</pdfrwt>
<totfact> 0.25891837E+03</totfact>
</mgrwt>
</event>
<event>
 6    4  0.6195789E-003  0.1294593E+03  0.7818608E-02  0.1228260E+00
         21   -1    0    0  501  502  0.00000000000E+00  0.00000000000E+00  0.43792975715E+03  0.43792975715E+03  0.00000000000E+00 0. -1.
         -4   -1    0    0    0  501 -0.00000000000E+00 -0.00000000000E+00 -0.24616640541E+02  0.24649379131E+02  0.12700000000E+01 0.  1.
         25    2    1    2    0    0 -0.32603694532E+02 -0.84261843812E+01  0.15444400919E+03  0.20152582916E+03  0.12500282543E+03 0.  0.
    9000005    1    3    3    0    0  0.21650904147E+02 -0.11153577101E+02  0.14418817426E+03  0.14623403683E+03  0.10000000000E+01 0.  0.
    9000005    1    3    3    0    0 -0.54254598678E+02  0.27273927202E+01  0.10255834929E+02  0.55291792328E+02  0.10000000000E+01 0.  0.
         -4    1    1    2    0  502  0.32603694532E+02  0.84261843812E+01  0.25886910742E+03  0.26105330712E+03  0.12700000000E+01 0. -1.
<mgrwt>
<rscale>  1 0.12945929E+03</rscale>
<asrwt>0</asrwt>
<pdfrwt beam="1">  1       21 0.67373803E-01 0.12945929E+03</pdfrwt>
<pdfrwt beam="2">  1       -4 0.37898358E-02 0.12945929E+03</pdfrwt>
<totfact> 0.30625337E+04</totfact>
</mgrwt>
</event>
<event>
 6    4  0.6195789E-003  0.1300663E+03  0.7818608E-02  0.1227357E+00
         21   -1    0    0  501  502  0.00000000000E+00  0.00000000000E+00  0.13754547712E+03  0.13754547712E+03  0.00000000000E+00 0. -1.
         -4   -1    0    0    0  501 -0.00000000000E+00 -0.00000000000E+00 -0.74675117970E+02  0.74685916636E+02  0.12700000000E+01 0.  1.
         25    2    1    2    0    0 -0.52017340245E+01 -0.35555255154E+02 -0.10535614057E+02  0.13049227210E+03  0.12500399877E+03 0.  0.
    9000005    1    3    3    0    0 -0.63282428176E+02 -0.33836695503E+02 -0.92696912797E+01  0.72363767556E+02  0.10000000000E+01 0.  0.
    9000005    1    3    3    0    0  0.58080694152E+02 -0.17185596509E+01 -0.12659227775E+01  0.58128504547E+02  0.10000000000E+01 0.  0.
         -4    1    1    2    0  502  0.52017340245E+01  0.35555255154E+02  0.73405973204E+02  0.81739121649E+02  0.12700000000E+01 0. -1.
<mgrwt>
<rscale>  1 0.13006627E+03</rscale>
<asrwt>0</asrwt>
<pdfrwt beam="1">  1       21 0.21160843E-01 0.13006627E+03</pdfrwt>
<pdfrwt beam="2">  1       -4 0.11489761E-01 0.13006627E+03</pdfrwt>
<totfact> 0.50189986E+04</totfact>
</mgrwt>
</event>
<event>
 6    4  0.6195789E-003  0.1349812E+03  0.7818608E-02  0.1220246E+00
         -4   -1    0    0    0  501 -0.00000000000E+00  0.00000000000E+00  0.41384493532E+03  0.41384688399E+03  0.12700000000E+01 0. -1.
         21   -1    0    0  501  502  0.00000000000E+00 -0.00000000000E+00 -0.36507395559E+02  0.36507395559E+02  0.00000000000E+00 0. -1.
         25    2    1    2    0    0  0.45234542667E+02 -0.23424205028E+02  0.37587584783E+03  0.39937774893E+03  0.12500030450E+03 0.  0.
    9000005    1    3    3    0    0 -0.25840148843E+02 -0.98644739094E+00  0.13065476721E+02  0.28989533501E+02  0.10000000000E+01 0.  0.
    9000005    1    3    3    0    0  0.71074691510E+02 -0.22437757637E+02  0.36281037111E+03  0.37038821542E+03  0.10000000000E+01 0.  0.
         -4    1    1    2    0  502 -0.45234542667E+02  0.23424205028E+02  0.14616919343E+01  0.50976530628E+02  0.12700000000E+01 0.  1.
<mgrwt>
<rscale>  1 0.13498123E+03</rscale>
<asrwt>0</asrwt>
<pdfrwt beam="2">  1       21 0.56165227E-02 0.13498123E+03</pdfrwt>
<pdfrwt beam="1">  1       -4 0.63670297E-01 0.13498123E+03</pdfrwt>
<totfact> 0.20979127E+04</totfact>
</mgrwt>
</event>
<event>
 6    4  0.6195789E-003  0.1391493E+03  0.7818608E-02  0.1214478E+00
         21   -1    0    0  501  502  0.00000000000E+00  0.00000000000E+00  0.18285981624E+02  0.18285981624E+02  0.00000000000E+00 0.  1.
         -4   -1    0    0    0  501 -0.00000000000E+00 -0.00000000000E+00 -0.74455820007E+03  0.74455928320E+03  0.12700000000E+01 0. -1.
         25    2    1    2    0    0 -0.54211577688E+02 -0.28277468930E+02 -0.65176353756E+03  0.66645197236E+03  0.12499604858E+03 0.  0.
    9000005    1    3    3    0    0  0.19623781783E+02  0.34160895283E+02 -0.13151862122E+03  0.13729605714E+03  0.10000000000E+01 0.  0.
    9000005    1    3    3    0    0 -0.73835359471E+02 -0.62438364213E+02 -0.52024491634E+03  0.52915591522E+03  0.10000000000E+01 0.  0.
         -4    1    1    2    0  502  0.54211577688E+02  0.28277468930E+02 -0.74508680888E+02  0.96393292465E+02  0.12700000000E+01 0.  1.
<mgrwt>
<rscale>  1 0.13914928E+03</rscale>
<asrwt>0</asrwt>
<pdfrwt beam="1">  1       21 0.28132276E-02 0.13914928E+03</pdfrwt>
<pdfrwt beam="2">  1       -4 0.11455091E+00 0.13914928E+03</pdfrwt>
<totfact> 0.17809198E+04</totfact>
</mgrwt>
</event>
<event>
 6    4  0.6195789E-003  0.1305356E+03  0.7818608E-02  0.1226663E+00
         21   -1    0    0  501  502  0.00000000000E+00  0.00000000000E+00  0.12521145060E+02  0.12521145060E+02  0.00000000000E+00 0.  1.
          4   -1    0    0  502    0 -0.00000000000E+00 -0.00000000000E+00 -0.56493077666E+03  0.56493220418E+03  0.12700000000E+01 0.  1.
         25    2    1    2    0    0 -0.29644204418E+01  0.37485825820E+02 -0.42260724628E+03  0.44230806793E+03  0.12500226965E+03 0.  0.
    9000005    1    3    3    0    0  0.59049300751E+02  0.66683220567E+01 -0.15866757144E+03  0.16943342252E+03  0.10000000000E+01 0.  0.
    9000005    1    3    3    0    0 -0.62013721193E+02  0.30817503764E+02 -0.26393967484E+03  0.27287464541E+03  0.10000000000E+01 0.  0.
          4    1    1    2  501    0  0.29644204418E+01 -0.37485825820E+02 -0.12980238532E+03  0.13514528131E+03  0.12700000000E+01 0. -1.
<mgrwt>
<rscale>  1 0.13053560E+03</rscale>
<asrwt>0</asrwt>
<pdfrwt beam="1">  1       21 0.19263300E-02 0.13053560E+03</pdfrwt>
<pdfrwt beam="2">  1        4 0.86917490E-01 0.13053560E+03</pdfrwt>
<totfact> 0.61880560E+04</totfact>
</mgrwt>
</event>
<event>
 6    4  0.6195789E-003  0.1289542E+03  0.7818608E-02  0.1229016E+00
          4   -1    0    0  502    0 -0.00000000000E+00  0.00000000000E+00  0.19985735489E+03  0.19986138997E+03  0.12700000000E+01 0. -1.
         21   -1    0    0  501  502  0.00000000000E+00 -0.00000000000E+00 -0.33825048199E+02  0.33825048199E+02  0.00000000000E+00 0. -1.
         25    2    1    2    0    0  0.31550055117E+02  0.29584052837E+01  0.15105987968E+03  0.19861587202E+03  0.12500007692E+03 0.  0.
    9000005    1    3    3    0    0  0.69326177727E+02 -0.22241355105E+02  0.51503005008E+02  0.89187198185E+02  0.10000000000E+01 0.  0.
    9000005    1    3    3    0    0 -0.37776122610E+02  0.25199760389E+02  0.99556874671E+02  0.10942867384E+03  0.10000000000E+01 0.  0.
          4    1    1    2  501    0 -0.31550055117E+02 -0.29584052837E+01  0.14972427009E+02  0.35070566153E+02  0.12700000000E+01 0.  1.
<mgrwt>
<rscale>  1 0.12895417E+03</rscale>
<asrwt>0</asrwt>
<pdfrwt beam="2">  1       21 0.52038537E-02 0.12895417E+03</pdfrwt>
<pdfrwt beam="1">  1        4 0.30749429E-01 0.12895417E+03</pdfrwt>
<totfact> 0.10174832E+05</totfact>
</mgrwt>
</event>
<event>
 6    4  0.6195789E-003  0.1268602E+03  0.7818608E-02  0.1232190E+00
          4   -1    0    0  502    0 -0.00000000000E+00  0.00000000000E+00  0.76767364812E+02  0.76777869208E+02  0.12700000000E+01 0.  1.
         21   -1    0    0  501  502  0.00000000000E+00 -0.00000000000E+00 -0.10373711989E+03  0.10373711989E+03  0.00000000000E+00 0. -1.
         25    2    1    2    0    0  0.20587759815E+02 -0.66516237188E+01  0.20337017059E+02  0.12847996683E+03  0.12500163064E+03 0.  0.
    9000005    1    3    3    0    0  0.46996104390E+02  0.33579137221E+02 -0.24452324500E+02  0.62730442831E+02  0.10000000000E+01 0.  0.
    9000005    1    3    3    0    0 -0.26408344575E+02 -0.40230760940E+02  0.44789341558E+02  0.65749524000E+02  0.10000000000E+01 0.  0.
          4    1    1    2  501    0 -0.20587759815E+02  0.66516237188E+01 -0.47306772139E+02  0.52035022269E+02  0.12700000000E+01 0. -1.
<mgrwt>
<rscale>  1 0.12686019E+03</rscale>
<asrwt>0</asrwt>
<pdfrwt beam="2">  1       21 0.15959557E-01 0.12686019E+03</pdfrwt>
<pdfrwt beam="1">  1        4 0.11811770E-01 0.12686019E+03</pdfrwt>
<totfact> 0.80076249E+04</totfact>
</mgrwt>
</event>
<event>
 6    4  0.6195789E-003  0.1281310E+03  0.7818608E-02  0.1230256E+00
         -4   -1    0    0    0  501 -0.00000000000E+00  0.00000000000E+00  0.95243951925E+02  0.95252418753E+02  0.12700000000E+01 0. -1.
         21   -1    0    0  501  502  0.00000000000E+00 -0.00000000000E+00 -0.12251411597E+03  0.12251411597E+03  0.00000000000E+00 0.  1.
         25    2    1    2    0    0  0.24448555403E+02  0.13954201794E+02  0.48440446216E+02  0.13698187643E+03  0.12500042413E+03 0.  0.
    9000005    1    3    3    0    0 -0.13038661548E+02  0.31055405209E+02 -0.32080595113E+02  0.46525363732E+02  0.10000000000E+01 0.  0.
    9000005    1    3    3    0    0  0.37487216951E+02 -0.17101203415E+02  0.80521041329E+02  0.90456512699E+02  0.10000000000E+01 0.  0.
         -4    1    1    2    0  502 -0.24448555403E+02 -0.13954201794E+02 -0.75710610260E+02  0.80784658290E+02  0.12700000000E+01 0.  1.
<mgrwt>
<rscale>  1 0.12813102E+03</rscale>
<asrwt>0</asrwt>
<pdfrwt beam="2">  1       21 0.18848325E-01 0.12813102E+03</pdfrwt>
<pdfrwt beam="1">  1       -4 0.14654073E-01 0.12813102E+03</pdfrwt>
<totfact> 0.40827691E+04</totfact>
</mgrwt>
</event>
<event>
 6    4  0.6195789E-003  0.1267202E+03  0.7818608E-02  0.1232405E+00
         21   -1    0    0  501  502  0.00000000000E+00  0.00000000000E+00  0.43687554833E+03  0.43687554833E+03  0.00000000000E+00 0.  1.
         -4   -1    0    0    0  501 -0.00000000000E+00 -0.00000000000E+00 -0.24416514707E+02  0.24449521272E+02  0.12700000000E+01 0. -1.
         25    2    1    2    0    0 -0.19522685770E+02 -0.72430497012E+01  0.14303376492E+03  0.19109334433E+03  0.12499764522E+03 0.  0.
    9000005    1    3    3    0    0 -0.18712380354E+01 -0.26277921529E+01  0.16357005578E+03  0.16360492037E+03  0.10000000000E+01 0.  0.
    9000005    1    3    3    0    0 -0.17651447734E+02 -0.46152575483E+01 -0.20536290857E+02  0.27488423955E+02  0.10000000000E+01 0.  0.
         -4    1    1    2    0  502  0.19522685770E+02  0.72430497012E+01  0.26942526871E+03  0.27023172528E+03  0.12700000000E+01 0.  1.
<mgrwt>
<rscale>  1 0.12672020E+03</rscale>
<asrwt>0</asrwt>
<pdfrwt beam="1">  1       21 0.67211617E-01 0.12672020E+03</pdfrwt>
<pdfrwt beam="2">  1       -4 0.37590682E-02 0.12672020E+03</pdfrwt>
<totfact> 0.31120932E+04</totfact>
</mgrwt>
</event>
<event>
 6    4  0.6195789E-003  0.1290612E+03  0.7818608E-02  0.1228855E+00
         21   -1    0    0  501  502  0.00000000000E+00  0.00000000000E+00  0.15811985269E+03  0.15811985269E+03  0.00000000000E+00 0. -1.
         -4   -1    0    0    0  501 -0.00000000000E+00 -0.00000000000E+00 -0.52551791370E+02  0.52567134943E+02  0.12700000000E+01 0. -1.
         25    2    1    2    0    0  0.29887004009E+02 -0.11795856067E+02  0.35907985377E+02  0.13396336474E+03  0.12499769778E+03 0.  0.
    9000005    1    3    3    0    0 -0.29687151283E+02  0.26823390015E+02  0.47398637016E+02  0.62035892789E+02  0.10000000000E+01 0.  0.
    9000005    1    3    3    0    0  0.59574155292E+02 -0.38619246081E+02 -0.11490651638E+02  0.71927471954E+02  0.10000000000E+01 0.  0.
         -4    1    1    2    0  502 -0.29887004009E+02  0.11795856067E+02  0.69660075939E+02  0.76723622886E+02  0.12700000000E+01 0.  1.
<mgrwt>
<rscale>  1 0.12906122E+03</rscale>
<asrwt>0</asrwt>
<pdfrwt beam="1">  1       21 0.24326131E-01 0.12906122E+03</pdfrwt>
<pdfrwt beam="2">  1       -4 0.80864637E-02 0.12906122E+03</pdfrwt>
<totfact> 0.69658743E+04</totfact>
</mgrwt>
</event>
<event>
 6    4  0.6195789E-003  0.1276158E+03  0.7818608E-02  0.1231037E+00
         21   -1    0    0  501  502  0.00000000000E+00  0.00000000000E+00  0.59211265450E+02  0.59211265450E+02  0.00000000000E+00 0.  1.
          4   -1    0    0  502    0 -0.00000000000E+00 -0.00000000000E+00 -0.10573286164E+03  0.10574048860E+03  0.12700000000E+01 0.  1.
         25    2    1    2    0    0 -0.25653866974E+02  0.15391374415E+01 -0.22175687504E+02  0.12952823073E+03  0.12500124642E+03 0.  0.
    9000005    1    3    3    0    0 -0.29093930970E+02 -0.40731362605E+02  0.32975417889E+02  0.59948969164E+02  0.10000000000E+01 0.  0.
    9000005    1    3    3    0    0  0.34400639953E+01  0.42270500047E+02 -0.55151105393E+02  0.69579261569E+02  0.10000000000E+01 0.  0.
          4    1    1    2  501    0  0.25653866974E+02 -0.15391374415E+01 -0.24345908683E+02  0.35423523320E+02  0.12700000000E+01 0. -1.
<mgrwt>
<rscale>  1 0.12761584E+03</rscale>
<asrwt>0</asrwt>
<pdfrwt beam="1">  1       21 0.91094255E-02 0.12761584E+03</pdfrwt>
<pdfrwt beam="2">  1        4 0.16268228E-01 0.12761584E+03</pdfrwt>
<totfact> 0.12443330E+05</totfact>
</mgrwt>
</event>
<event>
 6    4  0.6195789E-003  0.1273314E+03  0.7818608E-02  0.1231470E+00
         -4   -1    0    0    0  501 -0.00000000000E+00  0.00000000000E+00  0.11158322990E+03  0.11159045701E+03  0.12700000000E+01 0.  1.
         21   -1    0    0  501  502  0.00000000000E+00 -0.00000000000E+00 -0.55778335659E+02  0.55778335659E+02  0.00000000000E+00 0.  1.
         25    2    1    2    0    0  0.19762271640E+02 -0.14048976749E+02  0.62973061974E+02  0.14205246085E+03  0.12500149588E+03 0.  0.
    9000005    1    3    3    0    0  0.21272351623E+02 -0.67718850740E+02  0.49934633444E+02  0.86791838938E+02  0.10000000000E+01 0.  0.
    9000005    1    3    3    0    0 -0.15100799833E+01  0.53669873991E+02  0.13038428530E+02  0.55260621914E+02  0.10000000000E+01 0.  0.
         -4    1    1    2    0  502 -0.19762271640E+02  0.14048976749E+02 -0.71681677301E+01  0.25316331817E+02  0.12700000000E+01 0. -1.
<mgrwt>
<rscale>  1 0.12733144E+03</rscale>
<asrwt>0</asrwt>
<pdfrwt beam="2">  1       21 0.85812825E-02 0.12733144E+03</pdfrwt>
<pdfrwt beam="1">  1       -4 0.17168319E-01 0.12733144E+03</pdfrwt>
<totfact> 0.12547725E+05</totfact>
</mgrwt>
</event>
<event>
 6    4  0.6195789E-003  0.1286745E+03  0.7818608E-02  0.1229436E+00
          4   -1    0    0  502    0 -0.00000000000E+00  0.00000000000E+00  0.88846595852E+03  0.88846686621E+03  0.12700000000E+01 0. -1.
         21   -1    0    0  501  502  0.00000000000E+00 -0.00000000000E+00 -0.71481894821E+01  0.71481894821E+01  0.00000000000E+00 0. -1.
         25    2    1    2    0    0 -0.22679231866E+02  0.20456581040E+02  0.69645605323E+03  0.70824300298E+03  0.12499719165E+03 0.  0.
    9000005    1    3    3    0    0 -0.46434798449E+02  0.57309975696E+02  0.28258434322E+03  0.29205399304E+03  0.10000000000E+01 0.  0.
    9000005    1    3    3    0    0  0.23755566583E+02 -0.36853394656E+02  0.41387171002E+03  0.41618900994E+03  0.10000000000E+01 0.  0.
          4    1    1    2  501    0  0.22679231866E+02 -0.20456581040E+02  0.18486171580E+03  0.18737205271E+03  0.12700000000E+01 0.  1.
<mgrwt>
<rscale>  1 0.12867446E+03</rscale>
<asrwt>0</asrwt>
<pdfrwt beam="2">  1       21 0.10997222E-02 0.12867446E+03</pdfrwt>
<pdfrwt beam="1">  1        4 0.13669573E+00 0.12867446E+03</pdfrwt>
<totfact> 0.52057919E+04</totfact>
</mgrwt>
</event>
<event>
 6    4  0.6195789E-003  0.1310305E+03  0.7818608E-02  0.1225935E+00
         21   -1    0    0  501  502  0.00000000000E+00  0.00000000000E+00  0.36207600719E+03  0.36207600719E+03  0.00000000000E+00 0.  1.
         -4   -1    0    0    0  501 -0.00000000000E+00 -0.00000000000E+00 -0.21156973329E+02  0.21195056509E+02  0.12700000000E+01 0.  1.
         25    2    1    2    0    0 -0.34392625461E+02 -0.19024982435E+02  0.21941690198E+03  0.25556364968E+03  0.12499679805E+03 0.  0.
    9000005    1    3    3    0    0 -0.36960906360E+01  0.19633472211E+02  0.20233083515E+03  0.20331724267E+03  0.10000000000E+01 0.  0.
    9000005    1    3    3    0    0 -0.30696534825E+02 -0.38658454645E+02  0.17086066835E+02  0.52246407012E+02  0.10000000000E+01 0.  0.
         -4    1    1    2    0  502  0.34392625461E+02  0.19024982435E+02  0.12150213188E+03  0.12770741401E+03  0.12700000000E+01 0. -1.
<mgrwt>
<rscale>  1 0.13103054E+03</rscale>
<asrwt>0</asrwt>
<pdfrwt beam="1">  1       21 0.55703997E-01 0.13103054E+03</pdfrwt>
<pdfrwt beam="2">  1       -4 0.32580200E-02 0.13103054E+03</pdfrwt>
<totfact> 0.58381133E+04</totfact>
</mgrwt>
</event>
<event>
 6    4  0.6195789E-003  0.1279559E+03  0.7818608E-02  0.1230521E+00
         21   -1    0    0  501  502  0.00000000000E+00  0.00000000000E+00  0.92792607092E+02  0.92792607092E+02  0.00000000000E+00 0.  1.
          4   -1    0    0  502    0 -0.00000000000E+00 -0.00000000000E+00 -0.66186197126E+02  0.66198380570E+02  0.12700000000E+01 0. -1.
         25    2    1    2    0    0 -0.51081647633E+01  0.26858824946E+02  0.13564861083E+02  0.12867292832E+03  0.12500090881E+03 0.  0.
    9000005    1    3    3    0    0 -0.32525072610E+02  0.24035123386E+02  0.61357292298E+02  0.73493433874E+02  0.10000000000E+01 0.  0.
    9000005    1    3    3    0    0  0.27416907847E+02  0.28237015593E+01 -0.47792431215E+02  0.55179494451E+02  0.10000000000E+01 0.  0.
          4    1    1    2  501    0  0.51081647633E+01 -0.26858824946E+02  0.13041548883E+02  0.30318059337E+02  0.12700000000E+01 0.  1.
<mgrwt>
<rscale>  1 0.12795592E+03</rscale>
<asrwt>0</asrwt>
<pdfrwt beam="1">  1       21 0.14275786E-01 0.12795592E+03</pdfrwt>
<pdfrwt beam="2">  1        4 0.10184098E-01 0.12795592E+03</pdfrwt>
<totfact> 0.12603741E+05</totfact>
</mgrwt>
</event>
<event>
 6    4  0.6195789E-003  0.1283976E+03  0.7818608E-02  0.1229853E+00
          4   -1    0    0  502    0 -0.00000000000E+00  0.00000000000E+00  0.69076635111E+03  0.69076751858E+03  0.12700000000E+01 0.  1.
         21   -1    0    0  501  502  0.00000000000E+00 -0.00000000000E+00 -0.99865190668E+01  0.99865190668E+01  0.00000000000E+00 0.  1.
         25    2    1    2    0    0  0.25569900484E+02 -0.14314477411E+02  0.62138009631E+03  0.63450703334E+03  0.12500890846E+03 0.  0.
    9000005    1    3    3    0    0 -0.24202847662E+01 -0.16890145891E+02  0.59711711628E+03  0.59736168722E+03  0.10000000000E+01 0.  0.
    9000005    1    3    3    0    0  0.27990185250E+02  0.25756684803E+01  0.24262980032E+02  0.37145346121E+02  0.10000000000E+01 0.  0.
          4    1    1    2  501    0 -0.25569900484E+02  0.14314477411E+02  0.59399735734E+02  0.66247004306E+02  0.12700000000E+01 0. -1.
<mgrwt>
<rscale>  1 0.12839763E+03</rscale>
<asrwt>0</asrwt>
<pdfrwt beam="2">  1       21 0.15363881E-02 0.12839763E+03</pdfrwt>
<pdfrwt beam="1">  1        4 0.10627801E+00 0.12839763E+03</pdfrwt>
<totfact> 0.55998202E+04</totfact>
</mgrwt>
</event>
<event>
 6    4  0.6195789E-003  0.1308104E+03  0.7818608E-02  0.1226258E+00
         21   -1    0    0  501  502  0.00000000000E+00  0.00000000000E+00  0.27771133128E+03  0.27771133128E+03  0.00000000000E+00 0. -1.
          4   -1    0    0  502    0 -0.00000000000E+00 -0.00000000000E+00 -0.42572867039E+02  0.42591805643E+02  0.12700000000E+01 0.  1.
         25    2    1    2    0    0  0.25366271049E+02  0.29038742024E+02  0.65423525230E+02  0.14625868953E+03  0.12499868145E+03 0.  0.
    9000005    1    3    3    0    0 -0.46581441012E+02  0.17264122997E+02  0.52364558133E+02  0.72186754589E+02  0.10000000000E+01 0.  0.
    9000005    1    3    3    0    0  0.71947712061E+02  0.11774619027E+02  0.13058967097E+02  0.74071934940E+02  0.10000000000E+01 0.  0.
          4    1    1    2  501    0 -0.25366271049E+02 -0.29038742024E+02  0.16971493901E+03  0.17404444739E+03  0.12700000000E+01 0. -1.
<mgrwt>
<rscale>  1 0.13081042E+03</rscale>
<asrwt>0</asrwt>
<pdfrwt beam="1">  1       21 0.42724819E-01 0.13081042E+03</pdfrwt>
<pdfrwt beam="2">  1        4 0.65513522E-02 0.13081042E+03</pdfrwt>
<totfact> 0.32937100E+04</totfact>
</mgrwt>
</event>
<event>
 6    4  0.6195789E-003  0.1268844E+03  0.7818608E-02  0.1232153E+00
         -4   -1    0    0    0  501 -0.00000000000E+00  0.00000000000E+00  0.57674097423E+02  0.57688078608E+02  0.12700000000E+01 0.  1.
         21   -1    0    0  501  502  0.00000000000E+00 -0.00000000000E+00 -0.11885873691E+03  0.11885873691E+03  0.00000000000E+00 0. -1.
         25    2    1    2    0    0  0.84844975574E+01  0.19839537016E+02 -0.17867464379E+02  0.12813623313E+03  0.12503621087E+03 0.  0.
    9000005    1    3    3    0    0  0.17910504928E+02 -0.49861566616E+02  0.71645419474E+01  0.53472354292E+02  0.10000000000E+01 0.  0.
    9000005    1    3    3    0    0 -0.94260073702E+01  0.69701103632E+02 -0.25032006326E+02  0.74663878839E+02  0.10000000000E+01 0.  0.
         -4    1    1    2    0  502 -0.84844975574E+01 -0.19839537016E+02 -0.43317175112E+02  0.48410582391E+02  0.12700000000E+01 0. -1.
<mgrwt>
<rscale>  1 0.12688439E+03</rscale>
<asrwt>0</asrwt>
<pdfrwt beam="2">  1       21 0.18285960E-01 0.12688439E+03</pdfrwt>
<pdfrwt beam="1">  1       -4 0.88745355E-02 0.12688439E+03</pdfrwt>
<totfact> 0.10120794E+05</totfact>
</mgrwt>
</event>
<event>
 6    4  0.6195789E-003  0.1328658E+03  0.7818608E-02  0.1223264E+00
         -4   -1    0    0    0  501 -0.00000000000E+00  0.00000000000E+00  0.16375323097E+03  0.16375815568E+03  0.12700000000E+01 0. -1.
         21   -1    0    0  501  502  0.00000000000E+00 -0.00000000000E+00 -0.63286340596E+02  0.63286340596E+02  0.00000000000E+00 0.  1.
         25    2    1    2    0    0 -0.43772273228E+02  0.10653582106E+02  0.11895121203E+03  0.17833316533E+03  0.12499526510E+03 0.  0.
    9000005    1    3    3    0    0  0.41852502243E+02 -0.24867071774E+00  0.62378240928E+02  0.75124820947E+02  0.10000000000E+01 0.  0.
    9000005    1    3    3    0    0 -0.85624775471E+02  0.10902252824E+02  0.56572971105E+02  0.10320834439E+03  0.10000000000E+01 0.  0.
         -4    1    1    2    0  502  0.43772273228E+02 -0.10653582106E+02 -0.18484321661E+02  0.48711330946E+02  0.12700000000E+01 0.  1.
<mgrwt>
<rscale>  1 0.13286582E+03</rscale>
<asrwt>0</asrwt>
<pdfrwt beam="2">  1       21 0.97363601E-02 0.13286582E+03</pdfrwt>
<pdfrwt beam="1">  1       -4 0.25194164E-01 0.13286582E+03</pdfrwt>
<totfact> 0.50691126E+04</totfact>
</mgrwt>
</event>
<event>
 6    4  0.6195789E-003  0.1268444E+03  0.7818608E-02  0.1232215E+00
         21   -1    0    0  501  502  0.00000000000E+00  0.00000000000E+00  0.23295750995E+03  0.23295750995E+03  0.00000000000E+00 0.  1.
          4   -1    0    0  502    0 -0.00000000000E+00 -0.00000000000E+00 -0.27866443875E+02  0.27895368688E+02  0.12700000000E+01 0.  1.
         25    2    1    2    0    0 -0.19827670802E+02  0.85336241337E+01  0.12573053204E+03  0.17859920679E+03  0.12499420270E+03 0.  0.
    9000005    1    3    3    0    0 -0.64829585333E+02 -0.66654966923E+01  0.30050259345E+02  0.71772711160E+02  0.10000000000E+01 0.  0.
    9000005    1    3    3    0    0  0.45001914531E+02  0.15199120826E+02  0.95680272698E+02  0.10682649563E+03  0.10000000000E+01 0.  0.
          4    1    1    2  501    0  0.19827670802E+02 -0.85336241337E+01  0.79360534030E+02  0.82253671844E+02  0.12700000000E+01 0. -1.
<mgrwt>
<rscale>  1 0.12684443E+03</rscale>
<asrwt>0</asrwt>
<pdfrwt beam="1">  1       21 0.35839616E-01 0.12684443E+03</pdfrwt>
<pdfrwt beam="2">  1        4 0.42896366E-02 0.12684443E+03</pdfrwt>
<totfact> 0.92183312E+04</totfact>
</mgrwt>
</event>
<event>
 6    4  0.6195789E-003  0.1687914E+03  0.7818608E-02  0.1179114E+00
         -4   -1    0    0    0  501 -0.00000000000E+00  0.00000000000E+00  0.15766347798E+03  0.15766859290E+03  0.12700000000E+01 0. -1.
         21   -1    0    0  501  502  0.00000000000E+00 -0.00000000000E+00 -0.44311206680E+03  0.44311206680E+03  0.00000000000E+00 0.  1.
         25    2    1    2    0    0  0.13360940609E+02  0.11263480462E+03  0.10189975980E+03  0.19716516195E+03  0.12500170437E+03 0.  0.
    9000005    1    3    3    0    0 -0.17813951201E+02  0.10179050455E+03  0.12091449909E+03  0.15905961073E+03  0.10000000000E+01 0.  0.
    9000005    1    3    3    0    0  0.31174891810E+02  0.10844300069E+02 -0.19014739298E+02  0.38105551222E+02  0.10000000000E+01 0.  0.
         -4    1    1    2    0  502 -0.13360940609E+02 -0.11263480462E+03 -0.38734834862E+03  0.40361549775E+03  0.12700000000E+01 0.  1.
<mgrwt>
<rscale>  1 0.16879141E+03</rscale>
<asrwt>0</asrwt>
<pdfrwt beam="2">  1       21 0.68171088E-01 0.16879141E+03</pdfrwt>
<pdfrwt beam="1">  1       -4 0.24256453E-01 0.16879141E+03</pdfrwt>
<totfact> 0.13069704E+03</totfact>
</mgrwt>
</event>
<event>
 6    4  0.6195789E-003  0.1307902E+03  0.7818608E-02  0.1226288E+00
          4   -1    0    0  502    0 -0.00000000000E+00  0.00000000000E+00  0.20950197954E+03  0.20950582887E+03  0.12700000000E+01 0.  1.
         21   -1    0    0  501  502  0.00000000000E+00 -0.00000000000E+00 -0.64916472119E+02  0.64916472119E+02  0.00000000000E+00 0.  1.
         25    2    1    2    0    0 -0.26108563948E+02 -0.28263722152E+02  0.17973936643E+03  0.22228880116E+03  0.12500230469E+03 0.  0.
    9000005    1    3    3    0    0  0.25834809072E+02  0.36924817630E+02  0.84116249311E+02  0.95432818856E+02  0.10000000000E+01 0.  0.
    9000005    1    3    3    0    0 -0.51943373020E+02 -0.65188539782E+02  0.95623117121E+02  0.12685598231E+03  0.10000000000E+01 0.  0.
          4    1    1    2  501    0  0.26108563948E+02  0.28263722152E+02 -0.35153859007E+02  0.52133499829E+02  0.12700000000E+01 0. -1.
<mgrwt>
<rscale>  1 0.13079018E+03</rscale>
<asrwt>0</asrwt>
<pdfrwt beam="2">  1       21 0.99871497E-02 0.13079018E+03</pdfrwt>
<pdfrwt beam="1">  1        4 0.32232325E-01 0.13079018E+03</pdfrwt>
<totfact> 0.30481665E+04</totfact>
</mgrwt>
</event>
<event>
 6    4  0.6195789E-003  0.1277148E+03  0.7818608E-02  0.1230886E+00
         -4   -1    0    0    0  501 -0.00000000000E+00  0.00000000000E+00  0.32568282037E+02  0.32593034453E+02  0.12700000000E+01 0.  1.
         21   -1    0    0  501  502  0.00000000000E+00 -0.00000000000E+00 -0.30564098811E+03  0.30564098811E+03  0.00000000000E+00 0. -1.
         25    2    1    2    0    0  0.66102100751E+01 -0.25357951533E+02 -0.97410596362E+02  0.16062346468E+03  0.12499741013E+03 0.  0.
    9000005    1    3    3    0    0 -0.40176844628E+02  0.23449511881E+02 -0.77044277724E+02  0.90004884211E+02  0.10000000000E+01 0.  0.
    9000005    1    3    3    0    0  0.46787054703E+02 -0.48807463415E+02 -0.20366318638E+02  0.70618580470E+02  0.10000000000E+01 0.  0.
         -4    1    1    2    0  502 -0.66102100751E+01  0.25357951533E+02 -0.17566210971E+03  0.17761055789E+03  0.12700000000E+01 0. -1.
<mgrwt>
<rscale>  1 0.12771481E+03</rscale>
<asrwt>0</asrwt>
<pdfrwt beam="2">  1       21 0.47021689E-01 0.12771481E+03</pdfrwt>
<pdfrwt beam="1">  1       -4 0.50126121E-02 0.12771481E+03</pdfrwt>
<totfact> 0.41715904E+04</totfact>
</mgrwt>
</event>
<event>
 6    4  0.6195789E-003  0.1274225E+03  0.7818608E-02  0.1231331E+00
         21   -1    0    0  501  502  0.00000000000E+00  0.00000000000E+00  0.45526100055E+02  0.45526100055E+02  0.00000000000E+00 0. -1.
          4   -1    0    0  502    0 -0.00000000000E+00 -0.00000000000E+00 -0.12741781091E+03  0.12742413994E+03  0.12700000000E+01 0. -1.
         25    2    1    2    0    0 -0.18810263126E+02 -0.16222845142E+02 -0.69952228578E+02  0.14536091523E+03  0.12497789681E+03 0.  0.
    9000005    1    3    3    0    0  0.28543741049E+02  0.33993055858E+02 -0.61447934180E+02  0.75809772554E+02  0.10000000000E+01 0.  0.
    9000005    1    3    3    0    0 -0.47354004175E+02 -0.50215901001E+02 -0.85042943972E+01  0.69551142679E+02  0.10000000000E+01 0.  0.
          4    1    1    2  501    0  0.18810263126E+02  0.16222845142E+02 -0.11939482282E+02  0.27589324757E+02  0.12700000000E+01 0.  1.
<mgrwt>
<rscale>  1 0.12742245E+03</rscale>
<asrwt>0</asrwt>
<pdfrwt beam="1">  1       21 0.70040154E-02 0.12742245E+03</pdfrwt>
<pdfrwt beam="2">  1        4 0.19604590E-01 0.12742245E+03</pdfrwt>
<totfact> 0.14053867E+05</totfact>
</mgrwt>
</event>
<event>
 6    4  0.6195789E-003  0.1273231E+03  0.7818608E-02  0.1231483E+00
         -4   -1    0    0    0  501 -0.00000000000E+00  0.00000000000E+00  0.66949477192E+01  0.68143396572E+01  0.12700000000E+01 0. -1.
         21   -1    0    0  501  502  0.00000000000E+00 -0.00000000000E+00 -0.12611135048E+04  0.12611135048E+04  0.00000000000E+00 0. -1.
         25    2    1    2    0    0  0.13251956427E+02  0.20251891951E+02 -0.61457018275E+03  0.62762064591E+03  0.12500164867E+03 0.  0.
    9000005    1    3    3    0    0  0.18411423285E+02 -0.23906987467E+02 -0.34486912191E+02  0.45835266658E+02  0.10000000000E+01 0.  0.
    9000005    1    3    3    0    0 -0.51594668580E+01  0.44158879418E+02 -0.58008327055E+03  0.58178537925E+03  0.10000000000E+01 0.  0.
         -4    1    1    2    0  502 -0.13251956427E+02 -0.20251891951E+02 -0.63984837435E+03  0.64030719857E+03  0.12700000000E+01 0.  1.
<mgrwt>
<rscale>  1 0.12732308E+03</rscale>
<asrwt>0</asrwt>
<pdfrwt beam="2">  1       21 0.19401752E+00 0.12732308E+03</pdfrwt>
<pdfrwt beam="1">  1       -4 0.10392249E-02 0.12732308E+03</pdfrwt>
<totfact> 0.16980707E+04</totfact>
</mgrwt>
</event>
<event>
 6    4  0.6195789E-003  0.1754904E+03  0.7818608E-02  0.1172240E+00
         -4   -1    0    0    0  501 -0.00000000000E+00  0.00000000000E+00  0.98259470058E+02  0.98267677066E+02  0.12700000000E+01 0.  1.
         21   -1    0    0  501  502  0.00000000000E+00 -0.00000000000E+00 -0.26071583370E+03  0.26071583370E+03  0.00000000000E+00 0. -1.
         25    2    1    2    0    0  0.54708908611E+02 -0.11035037021E+03 -0.29875703286E+02  0.17801524480E+03  0.12500640322E+03 0.  0.
    9000005    1    3    3    0    0 -0.15792247253E+02  0.20848321662E+02 -0.36906391976E+00  0.26176015693E+02  0.10000000000E+01 0.  0.
    9000005    1    3    3    0    0  0.70501155864E+02 -0.13119869188E+03 -0.29506639366E+02  0.15183922910E+03  0.10000000000E+01 0.  0.
         -4    1    1    2    0  502 -0.54708908611E+02  0.11035037021E+03 -0.13258066036E+03  0.18096826597E+03  0.12700000000E+01 0. -1.
<mgrwt>
<rscale>  1 0.17549037E+03</rscale>
<asrwt>0</asrwt>
<pdfrwt beam="2">  1       21 0.40110127E-01 0.17549037E+03</pdfrwt>
<pdfrwt beam="1">  1       -4 0.15117711E-01 0.17549037E+03</pdfrwt>
<totfact> 0.93180431E+03</totfact>
</mgrwt>
</event>
<event>
 6    4  0.6195789E-003  0.1266960E+03  0.7818608E-02  0.1232442E+00
          4   -1    0    0  502    0 -0.00000000000E+00  0.00000000000E+00  0.13710417098E+02  0.13769111700E+02  0.12700000000E+01 0. -1.
         21   -1    0    0  501  502  0.00000000000E+00 -0.00000000000E+00 -0.16095648803E+04  0.16095648803E+04  0.00000000000E+00 0.  1.
         25    2    1    2    0    0  0.20619751520E+02 -0.15620838113E+01 -0.28015536428E+03  0.30747178566E+03  0.12499702631E+03 0.  0.
    9000005    1    3    3    0    0  0.59631086821E+02 -0.25243789152E+02 -0.23303534620E+03  0.24186688071E+03  0.10000000000E+01 0.  0.
    9000005    1    3    3    0    0 -0.39011335301E+02  0.23681705340E+02 -0.47120018075E+02  0.65604904948E+02  0.10000000000E+01 0.  0.
          4    1    1    2  501    0 -0.20619751520E+02  0.15620838113E+01 -0.13156990989E+04  0.13158622063E+04  0.12700000000E+01 0.  1.
<mgrwt>
<rscale>  1 0.12669598E+03</rscale>
<asrwt>0</asrwt>
<pdfrwt beam="2">  1       21 0.24762539E+00 0.12669598E+03</pdfrwt>
<pdfrwt beam="1">  1        4 0.21138483E-02 0.12669598E+03</pdfrwt>
<totfact> 0.27423967E+03</totfact>
</mgrwt>
</event>
<event>
 6    4  0.6195789E-003  0.1352358E+03  0.7818608E-02  0.1219887E+00
         -4   -1    0    0    0  501 -0.00000000000E+00  0.00000000000E+00  0.12636489638E+03  0.12637127813E+03  0.12700000000E+01 0.  1.
         21   -1    0    0  501  502  0.00000000000E+00 -0.00000000000E+00 -0.95552999004E+02  0.95552999004E+02  0.00000000000E+00 0.  1.
         25    2    1    2    0    0  0.43365137250E+02 -0.27959587084E+02  0.74415787584E+02  0.15435811859E+03  0.12500578265E+03 0.  0.
    9000005    1    3    3    0    0  0.26520360652E+02  0.46252264268E+02  0.91606685339E+01  0.54106555305E+02  0.10000000000E+01 0.  0.
    9000005    1    3    3    0    0  0.16844776598E+02 -0.74211851352E+02  0.65255119050E+02  0.10025156329E+03  0.10000000000E+01 0.  0.
         -4    1    1    2    0  502 -0.43365137250E+02  0.27959587084E+02 -0.43603890209E+02  0.67566158541E+02  0.12700000000E+01 0. -1.
<mgrwt>
<rscale>  1 0.13523579E+03</rscale>
<asrwt>0</asrwt>
<pdfrwt beam="2">  1       21 0.14700461E-01 0.13523579E+03</pdfrwt>
<pdfrwt beam="1">  1       -4 0.19441893E-01 0.13523579E+03</pdfrwt>
<totfact> 0.39197689E+04</totfact>
</mgrwt>
</event>
<event>
 6    4  0.6195789E-003  0.1290273E+03  0.7818608E-02  0.1228906E+00
         21   -1    0    0  501  502  0.00000000000E+00  0.00000000000E+00  0.40196772651E+03  0.40196772651E+03  0.00000000000E+00 0.  1.
         -4   -1    0    0    0  501 -0.00000000000E+00 -0.00000000000E+00 -0.65380930703E+02  0.65393264176E+02  0.12700000000E+01 0. -1.
         25    2    1    2    0    0 -0.31722047699E+02 -0.33847991240E+01 -0.23681900653E+00  0.12902756702E+03  0.12502124536E+03 0.  0.
    9000005    1    3    3    0    0  0.44233967628E+02  0.11708613573E+02  0.18467005471E+02  0.49353478246E+02  0.10000000000E+01 0.  0.
    9000005    1    3    3    0    0 -0.75956015328E+02 -0.15093412697E+02 -0.18703824477E+02  0.79674088770E+02  0.10000000000E+01 0.  0.
         -4    1    1    2    0  502  0.31722047699E+02  0.33847991240E+01  0.33682361481E+03  0.33833342367E+03  0.12700000000E+01 0.  1.
<mgrwt>
<rscale>  1 0.12902735E+03</rscale>
<asrwt>0</asrwt>
<pdfrwt beam="1">  1       21 0.61841187E-01 0.12902735E+03</pdfrwt>
<pdfrwt beam="2">  1       -4 0.10059708E-01 0.12902735E+03</pdfrwt>
<totfact> 0.75070479E+03</totfact>
</mgrwt>
</event>
<event>
 6    4  0.6195789E-003  0.1289578E+03  0.7818608E-02  0.1229010E+00
         -4   -1    0    0    0  501 -0.00000000000E+00  0.00000000000E+00  0.97719910770E+02  0.97728163090E+02  0.12700000000E+01 0. -1.
         21   -1    0    0  501  502  0.00000000000E+00 -0.00000000000E+00 -0.82272350937E+02  0.82272350937E+02  0.00000000000E+00 0.  1.
         25    2    1    2    0    0 -0.26700621672E+01 -0.31586061766E+02  0.45059818408E+02  0.13660342556E+03  0.12500120043E+03 0.  0.
    9000005    1    3    3    0    0 -0.52142946993E+02 -0.51744064536E+02  0.37985700303E+02  0.82705795222E+02  0.10000000000E+01 0.  0.
    9000005    1    3    3    0    0  0.49472884826E+02  0.20158002770E+02  0.70741181048E+01  0.53897630334E+02  0.10000000000E+01 0.  0.
         -4    1    1    2    0  502  0.26700621672E+01  0.31586061766E+02 -0.29612258574E+02  0.43397088471E+02  0.12700000000E+01 0.  1.
<mgrwt>
<rscale>  1 0.12895778E+03</rscale>
<asrwt>0</asrwt>
<pdfrwt beam="2">  1       21 0.12657285E-01 0.12895778E+03</pdfrwt>
<pdfrwt beam="1">  1       -4 0.15035221E-01 0.12895778E+03</pdfrwt>
<totfact> 0.80246240E+04</totfact>
</mgrwt>
</event>
<event>
 6    4  0.6195789E-003  0.1499962E+03  0.7818608E-02  0.1200478E+00
          4   -1    0    0  502    0 -0.00000000000E+00  0.00000000000E+00  0.15082565762E+03  0.15083100442E+03  0.12700000000E+01 0. -1.
         21   -1    0    0  501  502  0.00000000000E+00 -0.00000000000E+00 -0.11108851384E+03  0.11108851384E+03  0.00000000000E+00 0.  1.
         25    2    1    2    0    0  0.62812678272E+02 -0.54114733685E+02  0.79719709330E+02  0.16986488556E+03  0.12500004135E+03 0.  0.
    9000005    1    3    3    0    0  0.71100259222E+02  0.18308422991E+02  0.58660856403E+02  0.93981600794E+02  0.10000000000E+01 0.  0.
    9000005    1    3    3    0    0 -0.82875809494E+01 -0.72423156676E+02  0.21058852927E+02  0.75883284770E+02  0.10000000000E+01 0.  0.
          4    1    1    2  501    0 -0.62812678272E+02  0.54114733685E+02 -0.39982565553E+02  0.92054632701E+02  0.12700000000E+01 0.  1.
<mgrwt>
<rscale>  1 0.14999616E+03</rscale>
<asrwt>0</asrwt>
<pdfrwt beam="2">  1       21 0.17090541E-01 0.14999616E+03</pdfrwt>
<pdfrwt beam="1">  1        4 0.23204917E-01 0.14999616E+03</pdfrwt>
<totfact> 0.21868843E+04</totfact>
</mgrwt>
</event>
<event>
 6    4  0.6195789E-003  0.1288900E+03  0.7818608E-02  0.1229112E+00
         21   -1    0    0  501  502  0.00000000000E+00  0.00000000000E+00  0.29340146098E+03  0.29340146098E+03  0.00000000000E+00 0.  1.
         -4   -1    0    0    0  501 -0.00000000000E+00 -0.00000000000E+00 -0.50717543132E+02  0.50733441450E+02  0.12700000000E+01 0. -1.
         25    2    1    2    0    0  0.29079565405E+02 -0.12006875596E+02  0.34286676112E+02  0.13337245452E+03  0.12499139683E+03 0.  0.
    9000005    1    3    3    0    0 -0.43237523718E+02 -0.10825252308E+02  0.41205266280E+02  0.60708677420E+02  0.10000000000E+01 0.  0.
    9000005    1    3    3    0    0  0.72317089123E+02 -0.11816232874E+01 -0.69185901681E+01  0.72663777102E+02  0.10000000000E+01 0.  0.
         -4    1    1    2    0  502 -0.29079565405E+02  0.12006875596E+02  0.20839724173E+03  0.21076244791E+03  0.12700000000E+01 0.  1.
<mgrwt>
<rscale>  1 0.12889001E+03</rscale>
<asrwt>0</asrwt>
<pdfrwt beam="1">  1       21 0.45138685E-01 0.12889001E+03</pdfrwt>
<pdfrwt beam="2">  1       -4 0.78041335E-02 0.12889001E+03</pdfrwt>
<totfact> 0.22074238E+04</totfact>
</mgrwt>
</event>
<event>
 6    4  0.6195789E-003  0.1364027E+03  0.7818608E-02  0.1218253E+00
          4   -1    0    0  502    0 -0.00000000000E+00  0.00000000000E+00  0.12527788235E+04  0.12527794672E+04  0.12700000000E+01 0. -1.
         21   -1    0    0  501  502  0.00000000000E+00 -0.00000000000E+00 -0.28957738215E+02  0.28957738215E+02  0.00000000000E+00 0.  1.
         25    2    1    2    0    0 -0.23593582697E+02 -0.49246525321E+02  0.12193253804E+04  0.12269311687E+04  0.12499532841E+03 0.  0.
    9000005    1    3    3    0    0  0.33199593581E+02 -0.35206254444E+02  0.95416445358E+03  0.95539127996E+03  0.10000000000E+01 0.  0.
    9000005    1    3    3    0    0 -0.56793176279E+02 -0.14040270877E+02  0.26516092678E+03  0.27153988872E+03  0.10000000000E+01 0.  0.
          4    1    1    2  501    0  0.23593582697E+02  0.49246525321E+02  0.44957049172E+01  0.54806036742E+02  0.12700000000E+01 0.  1.
<mgrwt>
<rscale>  1 0.13640275E+03</rscale>
<asrwt>0</asrwt>
<pdfrwt beam="2">  1       21 0.44550376E-02 0.13640275E+03</pdfrwt>
<pdfrwt beam="1">  1        4 0.19273735E+00 0.13640275E+03</pdfrwt>
<totfact> 0.21947272E+03</totfact>
</mgrwt>
</event>
<event>
 6    4  0.6195789E-003  0.1283572E+03  0.7818608E-02  0.1229914E+00
          4   -1    0    0  502    0 -0.00000000000E+00  0.00000000000E+00  0.18507370765E+02  0.18550894120E+02  0.12700000000E+01 0.  1.
         21   -1    0    0  501  502  0.00000000000E+00 -0.00000000000E+00 -0.20049613867E+04  0.20049613867E+04  0.00000000000E+00 0. -1.
         25    2    1    2    0    0  0.22686674796E+02 -0.18342187828E+02 -0.20532846813E+03  0.24214736845E+03  0.12499778861E+03 0.  0.
    9000005    1    3    3    0    0 -0.74081691997E+01 -0.68210488725E+02 -0.12915681898E+03  0.14625332691E+03  0.10000000000E+01 0.  0.
    9000005    1    3    3    0    0  0.30094843995E+02  0.49868300897E+02 -0.76171649152E+02  0.95894041546E+02  0.10000000000E+01 0.  0.
          4    1    1    2  501    0 -0.22686674796E+02  0.18342187828E+02 -0.17811255478E+04  0.17813649124E+04  0.12700000000E+01 0. -1.
<mgrwt>
<rscale>  1 0.12835719E+03</rscale>
<asrwt>0</asrwt>
<pdfrwt beam="2">  1       21 0.30845556E+00 0.12835719E+03</pdfrwt>
<pdfrwt beam="1">  1        4 0.28506671E-02 0.12835719E+03</pdfrwt>
<totfact> 0.78143748E+02</totfact>
</mgrwt>
</event>
<event>
 6    4  0.6195789E-003  0.1279008E+03  0.7818608E-02  0.1230604E+00
         -4   -1    0    0    0  501 -0.00000000000E+00  0.00000000000E+00  0.95689767009E+01  0.96528863612E+01  0.12700000000E+01 0.  1.
         21   -1    0    0  501  502  0.00000000000E+00 -0.00000000000E+00 -0.92926270393E+03  0.92926270393E+03  0.00000000000E+00 0.  1.
         25    2    1    2    0    0 -0.25221317002E+02 -0.98951196880E+01 -0.43371614678E+03  0.45218173095E+03  0.12499837442E+03 0.  0.
    9000005    1    3    3    0    0  0.41182311458E+02  0.26147108802E+02 -0.12101896158E+03  0.13048464713E+03  0.10000000000E+01 0.  0.
    9000005    1    3    3    0    0 -0.66403628459E+02 -0.36042228490E+02 -0.31269718520E+03  0.32169708382E+03  0.10000000000E+01 0.  0.
         -4    1    1    2    0  502  0.25221317002E+02  0.98951196880E+01 -0.48597758046E+03  0.48673385934E+03  0.12700000000E+01 0. -1.
<mgrwt>
<rscale>  1 0.12790083E+03</rscale>
<asrwt>0</asrwt>
<pdfrwt beam="2">  1       21 0.14296351E+00 0.12790083E+03</pdfrwt>
<pdfrwt beam="1">  1       -4 0.14786715E-02 0.12790083E+03</pdfrwt>
<totfact> 0.22645038E+04</totfact>
</mgrwt>
</event>
<event>
 6    4  0.6195789E-003  0.1292613E+03  0.7818608E-02  0.1228556E+00
         21   -1    0    0  501  502  0.00000000000E+00  0.00000000000E+00  0.46837777246E+02  0.46837777246E+02  0.00000000000E+00 0.  1.
          4   -1    0    0  502    0 -0.00000000000E+00 -0.00000000000E+00 -0.14069045813E+03  0.14069619010E+03  0.12700000000E+01 0. -1.
         25    2    1    2    0    0  0.72966835765E+00  0.32891964936E+02 -0.78231882989E+02  0.15109173909E+03  0.12500428926E+03 0.  0.
    9000005    1    3    3    0    0 -0.42885458145E+02  0.15944088192E+02  0.13836327125E+02  0.47810254307E+02  0.10000000000E+01 0.  0.
    9000005    1    3    3    0    0  0.43615126503E+02  0.16947876744E+02 -0.92068210114E+02  0.10328148479E+03  0.10000000000E+01 0.  0.
          4    1    1    2  501    0 -0.72966835765E+00 -0.32891964936E+02 -0.15620797896E+02  0.36442228254E+02  0.12700000000E+01 0.  1.
<mgrwt>
<rscale>  1 0.12926131E+03</rscale>
<asrwt>0</asrwt>
<pdfrwt beam="1">  1       21 0.72058119E-02 0.12926131E+03</pdfrwt>
<pdfrwt beam="2">  1        4 0.21646451E-01 0.12926131E+03</pdfrwt>
<totfact> 0.11221202E+05</totfact>
</mgrwt>
</event>
<event>
 6    4  0.6195789E-003  0.1274194E+03  0.7818608E-02  0.1231336E+00
          4   -1    0    0  502    0 -0.00000000000E+00  0.00000000000E+00  0.19140024627E+03  0.19140445964E+03  0.12700000000E+01 0.  1.
         21   -1    0    0  501  502  0.00000000000E+00 -0.00000000000E+00 -0.39836223822E+02  0.39836223822E+02  0.00000000000E+00 0. -1.
         25    2    1    2    0    0 -0.12035018713E+02  0.21648912429E+02  0.16045454022E+03  0.20489355286E+03  0.12498876527E+03 0.  0.
    9000005    1    3    3    0    0 -0.21204911982E+02  0.60842075972E+02  0.35412062835E+02  0.73528366601E+02  0.10000000000E+01 0.  0.
    9000005    1    3    3    0    0  0.91698932692E+01 -0.39193163543E+02  0.12504247738E+03  0.13136518626E+03  0.10000000000E+01 0.  0.
          4    1    1    2  501    0  0.12035018713E+02 -0.21648912429E+02 -0.88905177730E+01  0.26347130604E+02  0.12700000000E+01 0. -1.
<mgrwt>
<rscale>  1 0.12741942E+03</rscale>
<asrwt>0</asrwt>
<pdfrwt beam="2">  1       21 0.61286499E-02 0.12741942E+03</pdfrwt>
<pdfrwt beam="1">  1        4 0.29448072E-01 0.12741942E+03</pdfrwt>
<totfact> 0.83597602E+04</totfact>
</mgrwt>
</event>
<event>
 6    4  0.6195789E-003  0.1285690E+03  0.7818608E-02  0.1229595E+00
         21   -1    0    0  501  502  0.00000000000E+00  0.00000000000E+00  0.42908553144E+02  0.42908553144E+02  0.00000000000E+00 0.  1.
          4   -1    0    0  502    0 -0.00000000000E+00 -0.00000000000E+00 -0.23605332322E+03  0.23605673959E+03  0.12700000000E+01 0. -1.
         25    2    1    2    0    0  0.16940733741E+02  0.24821153035E+02 -0.20868410059E+03  0.24511028143E+03  0.12500767227E+03 0.  0.
    9000005    1    3    3    0    0  0.63456924342E+02 -0.17146599018E+02 -0.10053148842E+03  0.12011813880E+03  0.10000000000E+01 0.  0.
    9000005    1    3    3    0    0 -0.46516190602E+02  0.41967752053E+02 -0.10815261216E+03  0.12499214263E+03  0.10000000000E+01 0.  0.
          4    1    1    2  501    0 -0.16940733741E+02 -0.24821153035E+02  0.15539330509E+02  0.33855011303E+02  0.12700000000E+01 0.  1.
<mgrwt>
<rscale>  1 0.12856903E+03</rscale>
<asrwt>0</asrwt>
<pdfrwt beam="1">  1       21 0.66013160E-02 0.12856903E+03</pdfrwt>
<pdfrwt beam="2">  1        4 0.36317604E-01 0.12856903E+03</pdfrwt>
<totfact> 0.49423068E+04</totfact>
</mgrwt>
</event>
<event>
 6    4  0.6195789E-003  0.1272158E+03  0.7818608E-02  0.1231646E+00
          4   -1    0    0  502    0 -0.00000000000E+00  0.00000000000E+00  0.21841451763E+02  0.21878343519E+02  0.12700000000E+01 0.  1.
         21   -1    0    0  501  502  0.00000000000E+00 -0.00000000000E+00 -0.29017727771E+03  0.29017727771E+03  0.00000000000E+00 0.  1.
         25    2    1    2    0    0 -0.16507153433E+02  0.16812286562E+02 -0.17864066589E+03  0.21930879524E+03  0.12501488337E+03 0.  0.
    9000005    1    3    3    0    0 -0.33651670123E+01 -0.51463627776E+02 -0.11052115315E+03  0.12196620280E+03  0.10000000000E+01 0.  0.
    9000005    1    3    3    0    0 -0.13141986421E+02  0.68275914338E+02 -0.68119512744E+02  0.97342592436E+02  0.10000000000E+01 0.  0.
          4    1    1    2  501    0  0.16507153433E+02 -0.16812286562E+02 -0.89695160058E+02  0.92746825992E+02  0.12700000000E+01 0. -1.
<mgrwt>
<rscale>  1 0.12721580E+03</rscale>
<asrwt>0</asrwt>
<pdfrwt beam="2">  1       21 0.44642655E-01 0.12721580E+03</pdfrwt>
<pdfrwt beam="1">  1        4 0.33632752E-02 0.12721580E+03</pdfrwt>
<totfact> 0.87366094E+04</totfact>
</mgrwt>
</event>
<event>
 6    4  0.6195789E-003  0.1321222E+03  0.7818608E-02  0.1224340E+00
          4   -1    0    0  502    0 -0.00000000000E+00  0.00000000000E+00  0.92966172574E+02  0.92974846830E+02  0.12700000000E+01 0. -1.
         21   -1    0    0  501  502  0.00000000000E+00 -0.00000000000E+00 -0.21809981191E+03  0.21809981191E+03  0.00000000000E+00 0.  1.
         25    2    1    2    0    0  0.10178919978E+02 -0.41566154868E+02  0.41927187851E+02  0.13861513154E+03  0.12499963987E+03 0.  0.
    9000005    1    3    3    0    0 -0.95568416639E+01 -0.45544599193E+02 -0.35542774307E+02  0.58565625957E+02  0.10000000000E+01 0.  0.
    9000005    1    3    3    0    0  0.19735761642E+02  0.39784443251E+01  0.77469962158E+02  0.80049505580E+02  0.10000000000E+01 0.  0.
          4    1    1    2  501    0 -0.10178919978E+02  0.41566154868E+02 -0.16706082719E+03  0.17245952721E+03  0.12700000000E+01 0.  1.
<mgrwt>
<rscale>  1 0.13212216E+03</rscale>
<asrwt>0</asrwt>
<pdfrwt beam="2">  1       21 0.33553817E-01 0.13212216E+03</pdfrwt>
<pdfrwt beam="1">  1        4 0.14303440E-01 0.13212216E+03</pdfrwt>
<totfact> 0.14333434E+04</totfact>
</mgrwt>
</event>
<event>
 6    4  0.6195789E-003  0.1315785E+03  0.7818608E-02  0.1225132E+00
         21   -1    0    0  501  502  0.00000000000E+00  0.00000000000E+00  0.10236171862E+03  0.10236171862E+03  0.00000000000E+00 0. -1.
         -4   -1    0    0    0  501 -0.00000000000E+00 -0.00000000000E+00 -0.12645475555E+03  0.12646113277E+03  0.12700000000E+01 0.  1.
         25    2    1    2    0    0 -0.23400722188E+02  0.33764491281E+02 -0.84049116542E+02  0.15613186809E+03  0.12500108628E+03 0.  0.
    9000005    1    3    3    0    0  0.46016288974E+02  0.84602225122E+01 -0.36587515756E+01  0.46941034064E+02  0.10000000000E+01 0.  0.
    9000005    1    3    3    0    0 -0.69417011162E+02  0.25304268769E+02 -0.80390364966E+02  0.10919083403E+03  0.10000000000E+01 0.  0.
         -4    1    1    2    0  502  0.23400722188E+02 -0.33764491281E+02  0.59956079611E+02  0.72690983297E+02  0.12700000000E+01 0. -1.
<mgrwt>
<rscale>  1 0.13157852E+03</rscale>
<asrwt>0</asrwt>
<pdfrwt beam="1">  1       21 0.15747957E-01 0.13157852E+03</pdfrwt>
<pdfrwt beam="2">  1       -4 0.19455674E-01 0.13157852E+03</pdfrwt>
<totfact> 0.34464901E+04</totfact>
</mgrwt>
</event>
<event>
 6    4  0.6195789E-003  0.1281288E+03  0.7818608E-02  0.1230259E+00
          4   -1    0    0  502    0 -0.00000000000E+00  0.00000000000E+00  0.27737455529E+03  0.27737746272E+03  0.12700000000E+01 0.  1.
         21   -1    0    0  501  502  0.00000000000E+00 -0.00000000000E+00 -0.95195877251E+02  0.95195877251E+02  0.00000000000E+00 0. -1.
         25    2    1    2    0    0  0.26224257383E+02  0.10201789270E+02  0.25997519033E+03  0.28983460416E+03  0.12500084002E+03 0.  0.
    9000005    1    3    3    0    0  0.19541542525E+02 -0.36379576969E+02  0.21135387561E+02  0.46400971025E+02  0.10000000000E+01 0.  0.
    9000005    1    3    3    0    0  0.66827148577E+01  0.46581366238E+02  0.23883980276E+03  0.24343363314E+03  0.10000000000E+01 0.  0.
          4    1    1    2  501    0 -0.26224257383E+02 -0.10201789270E+02 -0.77796512282E+02  0.82738735806E+02  0.12700000000E+01 0. -1.
<mgrwt>
<rscale>  1 0.12812883E+03</rscale>
<asrwt>0</asrwt>
<pdfrwt beam="2">  1       21 0.14645520E-01 0.12812883E+03</pdfrwt>
<pdfrwt beam="1">  1        4 0.42673883E-01 0.12812883E+03</pdfrwt>
<totfact> 0.89387779E+03</totfact>
</mgrwt>
</event>
<event>
 6    4  0.6195789E-003  0.1330686E+03  0.7818608E-02  0.1222972E+00
         21   -1    0    0  501  502  0.00000000000E+00  0.00000000000E+00  0.44524997259E+02  0.44524997259E+02  0.00000000000E+00 0.  1.
          4   -1    0    0  502    0 -0.00000000000E+00 -0.00000000000E+00 -0.34966893687E+03  0.34967124319E+03  0.12700000000E+01 0. -1.
         25    2    1    2    0    0 -0.32390459394E+02  0.32158016990E+02 -0.31968667793E+03  0.34627563888E+03  0.12499586443E+03 0.  0.
    9000005    1    3    3    0    0  0.26868619389E+02 -0.26904258702E+02 -0.17545917736E+03  0.17953463389E+03  0.10000000000E+01 0.  0.
    9000005    1    3    3    0    0 -0.59259078783E+02  0.59062275692E+02 -0.14422750056E+03  0.16674100499E+03  0.10000000000E+01 0.  0.
          4    1    1    2  501    0  0.32390459394E+02 -0.32158016990E+02  0.14542738315E+02  0.47920601563E+02  0.12700000000E+01 0.  1.
<mgrwt>
<rscale>  1 0.13306858E+03</rscale>
<asrwt>0</asrwt>
<pdfrwt beam="1">  1       21 0.68499996E-02 0.13306858E+03</pdfrwt>
<pdfrwt beam="2">  1        4 0.53796791E-01 0.13306858E+03</pdfrwt>
<totfact> 0.21257311E+04</totfact>
</mgrwt>
</event>
<event>
 6    4  0.6195789E-003  0.1320107E+03  0.7818608E-02  0.1224502E+00
          4   -1    0    0  502    0 -0.00000000000E+00  0.00000000000E+00  0.92447644270E+03  0.92447731503E+03  0.12700000000E+01 0.  1.
         21   -1    0    0  501  502  0.00000000000E+00 -0.00000000000E+00 -0.12830362312E+02  0.12830362312E+02  0.00000000000E+00 0.  1.
         25    2    1    2    0    0 -0.31090343041E+02  0.28893887721E+02  0.86168970822E+03  0.87174306648E+03  0.12500141806E+03 0.  0.
    9000005    1    3    3    0    0 -0.10938146209E+02  0.76658194417E+02  0.42631229204E+03  0.43328892457E+03  0.10000000000E+01 0.  0.
    9000005    1    3    3    0    0 -0.20152196832E+02 -0.47764306696E+02  0.43537741618E+03  0.43845414191E+03  0.10000000000E+01 0.  0.
          4    1    1    2  501    0  0.31090343041E+02 -0.28893887721E+02  0.49956372169E+02  0.65564610869E+02  0.12700000000E+01 0. -1.
<mgrwt>
<rscale>  1 0.13201068E+03</rscale>
<asrwt>0</asrwt>
<pdfrwt beam="2">  1       21 0.19739026E-02 0.13201068E+03</pdfrwt>
<pdfrwt beam="1">  1        4 0.14223199E+00 0.13201068E+03</pdfrwt>
<totfact> 0.18586702E+04</totfact>
</mgrwt>
</event>
<event>
 6    4  0.6195789E-003  0.1288642E+03  0.7818608E-02  0.1229151E+00
         21   -1    0    0  501  502  0.00000000000E+00  0.00000000000E+00  0.50919730805E+03  0.50919730805E+03  0.00000000000E+00 0.  1.
         -4   -1    0    0    0  501 -0.00000000000E+00 -0.00000000000E+00 -0.16608774927E+02  0.16657259816E+02  0.12700000000E+01 0.  1.
         25    2    1    2    0    0 -0.31085901137E+02 -0.37627758169E+01  0.25007432929E+03  0.28132390784E+03  0.12500191687E+03 0.  0.
    9000005    1    3    3    0    0 -0.76708739473E+02 -0.20704899886E+02  0.16922250390E+03  0.18694967081E+03  0.10000000000E+01 0.  0.
    9000005    1    3    3    0    0  0.45622838336E+02  0.16942124069E+02  0.80851825396E+02  0.94374237034E+02  0.10000000000E+01 0.  0.
         -4    1    1    2    0  502  0.31085901137E+02  0.37627758169E+01  0.24251420383E+03  0.24453066002E+03  0.12700000000E+01 0. -1.
<mgrwt>
<rscale>  1 0.12886416E+03</rscale>
<asrwt>0</asrwt>
<pdfrwt beam="1">  1       21 0.78338035E-01 0.12886416E+03</pdfrwt>
<pdfrwt beam="2">  1       -4 0.25590480E-02 0.12886416E+03</pdfrwt>
<totfact> 0.40692076E+04</totfact>
</mgrwt>
</event>
<event>
 6    4  0.6195789E-003  0.1265958E+03  0.7818608E-02  0.1232596E+00
         21   -1    0    0  501  502  0.00000000000E+00  0.00000000000E+00  0.63045971914E+02  0.63045971914E+02  0.00000000000E+00 0.  1.
         -4   -1    0    0    0  501 -0.00000000000E+00 -0.00000000000E+00 -0.88356895890E+02  0.88366022607E+02  0.12700000000E+01 0.  1.
         25    2    1    2    0    0  0.82121482852E+01 -0.18266270838E+02 -0.11638965137E+02  0.12712966785E+03  0.12500156363E+03 0.  0.
    9000005    1    3    3    0    0  0.45600981502E+02  0.35178299179E+02 -0.20831553206E+02  0.61252884471E+02  0.10000000000E+01 0.  0.
    9000005    1    3    3    0    0 -0.37388833216E+02 -0.53444570017E+02  0.91925880689E+01  0.65876783384E+02  0.10000000000E+01 0.  0.
         -4    1    1    2    0  502 -0.82121482852E+01  0.18266270838E+02 -0.13671958840E+02  0.24282326666E+02  0.12700000000E+01 0. -1.
<mgrwt>
<rscale>  1 0.12659576E+03</rscale>
<asrwt>0</asrwt>
<pdfrwt beam="1">  1       21 0.96993803E-02 0.12659576E+03</pdfrwt>
<pdfrwt beam="2">  1       -4 0.13595055E-01 0.12659576E+03</pdfrwt>
<totfact> 0.15232642E+05</totfact>
</mgrwt>
</event>
<event>
 6    4  0.6195789E-003  0.1266491E+03  0.7818608E-02  0.1232514E+00
         21   -1    0    0  501  502  0.00000000000E+00  0.00000000000E+00  0.20949056549E+03  0.20949056549E+03  0.00000000000E+00 0. -1.
         -4   -1    0    0    0  501 -0.00000000000E+00 -0.00000000000E+00 -0.67188369091E+02  0.67200370841E+02  0.12700000000E+01 0.  1.
         25    2    1    2    0    0 -0.16103826766E+01  0.20300689286E+02 -0.61930923256E+01  0.12680039296E+03  0.12500109578E+03 0.  0.
    9000005    1    3    3    0    0  0.41205408724E+02  0.83252097542E+00 -0.48413667479E+02  0.63588222165E+02  0.10000000000E+01 0.  0.
    9000005    1    3    3    0    0 -0.42815791401E+02  0.19468168311E+02  0.42220575154E+02  0.63212170798E+02  0.10000000000E+01 0.  0.
         -4    1    1    2    0  502  0.16103826766E+01 -0.20300689286E+02  0.14849528872E+03  0.14989054337E+03  0.12700000000E+01 0. -1.
<mgrwt>
<rscale>  1 0.12664906E+03</rscale>
<asrwt>0</asrwt>
<pdfrwt beam="1">  1       21 0.32229317E-01 0.12664906E+03</pdfrwt>
<pdfrwt beam="2">  1       -4 0.10337892E-01 0.12664906E+03</pdfrwt>
<totfact> 0.26913360E+04</totfact>
</mgrwt>
</event>
<event>
 6    4  0.6195789E-003  0.1315638E+03  0.7818608E-02  0.1225154E+00
         21   -1    0    0  501  502  0.00000000000E+00  0.00000000000E+00  0.59427049773E+03  0.59427049773E+03  0.00000000000E+00 0.  1.
          4   -1    0    0  502    0 -0.00000000000E+00 -0.00000000000E+00 -0.26902590446E+02  0.26932550431E+02  0.12700000000E+01 0.  1.
         25    2    1    2    0    0  0.12274584131E+02  0.39181169559E+02  0.14094815224E+03  0.19280924586E+03  0.12499277661E+03 0.  0.
    9000005    1    3    3    0    0  0.15648562688E+02  0.77282018497E+02  0.48057581503E+02  0.92346732682E+02  0.10000000000E+01 0.  0.
    9000005    1    3    3    0    0 -0.33739785561E+01 -0.38100848938E+02  0.92890570740E+02  0.10046251318E+03  0.10000000000E+01 0.  0.
          4    1    1    2  501    0 -0.12274584131E+02 -0.39181169559E+02  0.42641975504E+03  0.42839380231E+03  0.12700000000E+01 0. -1.
<mgrwt>
<rscale>  1 0.13156376E+03</rscale>
<asrwt>0</asrwt>
<pdfrwt beam="1">  1       21 0.91426220E-01 0.13156376E+03</pdfrwt>
<pdfrwt beam="2">  1        4 0.41412695E-02 0.13156376E+03</pdfrwt>
<totfact> 0.13494873E+04</totfact>
</mgrwt>
</event>
<event>
 6    4  0.6195789E-003  0.1525453E+03  0.7818608E-02  0.1197380E+00
          4   -1    0    0  502    0 -0.00000000000E+00  0.00000000000E+00  0.20872920459E+03  0.20873306817E+03  0.12700000000E+01 0. -1.
         21   -1    0    0  501  502  0.00000000000E+00 -0.00000000000E+00 -0.21722871500E+03  0.21722871500E+03  0.00000000000E+00 0.  1.
         25    2    1    2    0    0  0.86324932748E+02  0.13857687873E+02  0.16926192304E+03  0.22785885626E+03  0.12500412097E+03 0.  0.
    9000005    1    3    3    0    0  0.62762076214E+02  0.18534689279E+02  0.18690737531E+03  0.19803529953E+03  0.10000000000E+01 0.  0.
    9000005    1    3    3    0    0  0.23562856534E+02 -0.46770014062E+01 -0.17645452267E+02  0.29823556728E+02  0.10000000000E+01 0.  0.
          4    1    1    2  501    0 -0.86324932748E+02 -0.13857687873E+02 -0.17776143345E+03  0.19810292691E+03  0.12700000000E+01 0.  1.
<mgrwt>
<rscale>  1 0.15254527E+03</rscale>
<asrwt>0</asrwt>
<pdfrwt beam="2">  1       21 0.33419802E-01 0.15254527E+03</pdfrwt>
<pdfrwt beam="1">  1        4 0.32112768E-01 0.15254527E+03</pdfrwt>
<totfact> 0.33530506E+03</totfact>
</mgrwt>
</event>
<event>
 6    4  0.6195789E-003  0.1278018E+03  0.7818608E-02  0.1230754E+00
          4   -1    0    0  502    0 -0.00000000000E+00  0.00000000000E+00  0.33429925075E+03  0.33430166310E+03  0.12700000000E+01 0.  1.
         21   -1    0    0  501  502  0.00000000000E+00 -0.00000000000E+00 -0.11659040954E+03  0.11659040954E+03  0.00000000000E+00 0. -1.
         25    2    1    2    0    0  0.77165346759E+01 -0.25519270073E+02  0.32031590962E+03  0.34487036997E+03  0.12499004790E+03 0.  0.
    9000005    1    3    3    0    0 -0.21213906021E+02 -0.43881661397E+01 -0.85792296348E+00  0.21703037634E+02  0.10000000000E+01 0.  0.
    9000005    1    3    3    0    0  0.28930440697E+02 -0.21131103933E+02  0.32117383258E+03  0.32316733233E+03  0.10000000000E+01 0.  0.
          4    1    1    2  501    0 -0.77165346759E+01  0.25519270073E+02 -0.10260706841E+03  0.10602170268E+03  0.12700000000E+01 0. -1.
<mgrwt>
<rscale>  1 0.12780176E+03</rscale>
<asrwt>0</asrwt>
<pdfrwt beam="2">  1       21 0.17936986E-01 0.12780176E+03</pdfrwt>
<pdfrwt beam="1">  1        4 0.51431371E-01 0.12780176E+03</pdfrwt>
<totfact> 0.42485787E+03</totfact>
</mgrwt>
</event>
<event>
 6    4  0.6195789E-003  0.1309647E+03  0.7818608E-02  0.1226031E+00
          4   -1    0    0  502    0 -0.00000000000E+00  0.00000000000E+00  0.70430602300E+02  0.70442051648E+02  0.12700000000E+01 0. -1.
         21   -1    0    0  501  502  0.00000000000E+00 -0.00000000000E+00 -0.10283085528E+03  0.10283085528E+03  0.00000000000E+00 0. -1.
         25    2    1    2    0    0 -0.26876880849E+02 -0.28364278725E+02 -0.21815830313E+02  0.13276930295E+03  0.12499943329E+03 0.  0.
    9000005    1    3    3    0    0 -0.60383571219E+01  0.44116385815E+02 -0.34434128559E+02  0.56297659487E+02  0.10000000000E+01 0.  0.
    9000005    1    3    3    0    0 -0.20838523728E+02 -0.72480664540E+02  0.12618298247E+02  0.76471643463E+02  0.10000000000E+01 0.  0.
          4    1    1    2  501    0  0.26876880849E+02  0.28364278725E+02 -0.10584422665E+02  0.40503603975E+02  0.12700000000E+01 0.  1.
<mgrwt>
<rscale>  1 0.13096472E+03</rscale>
<asrwt>0</asrwt>
<pdfrwt beam="2">  1       21 0.15820131E-01 0.13096472E+03</pdfrwt>
<pdfrwt beam="1">  1        4 0.10836961E-01 0.13096472E+03</pdfrwt>
<totfact> 0.94598415E+04</totfact>
</mgrwt>
</event>
<event>
 6    4  0.6195789E-003  0.1277357E+03  0.7818608E-02  0.1230855E+00
         21   -1    0    0  501  502  0.00000000000E+00  0.00000000000E+00  0.14584405135E+03  0.14584405135E+03  0.00000000000E+00 0. -1.
          4   -1    0    0  502    0 -0.00000000000E+00 -0.00000000000E+00 -0.16285291982E+03  0.16285787176E+03  0.12700000000E+01 0.  1.
         25    2    1    2    0    0 -0.23124148437E+02  0.12566751177E+02 -0.13614517859E+03  0.18668666684E+03  0.12499500968E+03 0.  0.
    9000005    1    3    3    0    0 -0.53355988075E+02  0.21165337673E+01 -0.14412664955E+03  0.15370371593E+03  0.10000000000E+01 0.  0.
    9000005    1    3    3    0    0  0.30231839638E+02  0.10450217410E+02  0.79814709637E+01  0.32982950907E+02  0.10000000000E+01 0.  0.
          4    1    1    2  501    0  0.23124148437E+02 -0.12566751177E+02  0.11913631012E+03  0.12201525628E+03  0.12700000000E+01 0. -1.
<mgrwt>
<rscale>  1 0.12773567E+03</rscale>
<asrwt>0</asrwt>
<pdfrwt beam="1">  1       21 0.22437546E-01 0.12773567E+03</pdfrwt>
<pdfrwt beam="2">  1        4 0.25055102E-01 0.12773567E+03</pdfrwt>
<totfact> 0.11315111E+04</totfact>
</mgrwt>
</event>
<event>
 6    4  0.6195789E-003  0.1288601E+03  0.7818608E-02  0.1229157E+00
         21   -1    0    0  501  502  0.00000000000E+00  0.00000000000E+00  0.22776072111E+02  0.22776072111E+02  0.00000000000E+00 0.  1.
          4   -1    0    0  502    0 -0.00000000000E+00 -0.00000000000E+00 -0.37214171981E+03  0.37214388685E+03  0.12700000000E+01 0. -1.
         25    2    1    2    0    0  0.16306118950E+02 -0.26738005948E+02 -0.33774375987E+03  0.36149105449E+03  0.12499649864E+03 0.  0.
    9000005    1    3    3    0    0  0.45438971034E+02  0.36865151050E+02 -0.14021237902E+03  0.15193502125E+03  0.10000000000E+01 0.  0.
    9000005    1    3    3    0    0 -0.29132852083E+02 -0.63603156997E+02 -0.19753138085E+03  0.20955603325E+03  0.10000000000E+01 0.  0.
          4    1    1    2  501    0 -0.16306118950E+02  0.26738005948E+02 -0.11621887827E+02  0.33428904468E+02  0.12700000000E+01 0.  1.
<mgrwt>
<rscale>  1 0.12886014E+03</rscale>
<asrwt>0</asrwt>
<pdfrwt beam="1">  1       21 0.35040113E-02 0.12886014E+03</pdfrwt>
<pdfrwt beam="2">  1        4 0.57255459E-01 0.12886014E+03</pdfrwt>
<totfact> 0.57353066E+04</totfact>
</mgrwt>
</event>
<event>
 6    4  0.6195789E-003  0.1279816E+03  0.7818608E-02  0.1230482E+00
          4   -1    0    0  502    0 -0.00000000000E+00  0.00000000000E+00  0.87989974287E+03  0.87990065940E+03  0.12700000000E+01 0.  1.
         21   -1    0    0  501  502  0.00000000000E+00 -0.00000000000E+00 -0.16468230118E+02  0.16468230118E+02  0.00000000000E+00 0.  1.
         25    2    1    2    0    0  0.18785477494E+02  0.20074207407E+02  0.85901256600E+03  0.86849402704E+03  0.12499367381E+03 0.  0.
    9000005    1    3    3    0    0 -0.60826364366E+01  0.61203480233E+02  0.24506453726E+03  0.25266676054E+03  0.10000000000E+01 0.  0.
    9000005    1    3    3    0    0  0.24868113931E+02 -0.41129272827E+02  0.61394802873E+03  0.61582726650E+03  0.10000000000E+01 0.  0.
          4    1    1    2  501    0 -0.18785477494E+02 -0.20074207407E+02  0.44189467580E+01  0.27874862478E+02  0.12700000000E+01 0. -1.
<mgrwt>
<rscale>  1 0.12798159E+03</rscale>
<asrwt>0</asrwt>
<pdfrwt beam="2">  1       21 0.25335746E-02 0.12798159E+03</pdfrwt>
<pdfrwt beam="1">  1        4 0.13537299E+00 0.12798159E+03</pdfrwt>
<totfact> 0.13980526E+04</totfact>
</mgrwt>
</event>
<event>
 6    4  0.6195789E-003  0.1269072E+03  0.7818608E-02  0.1232118E+00
         -4   -1    0    0    0  501 -0.00000000000E+00  0.00000000000E+00  0.36812051325E+03  0.36812270397E+03  0.12700000000E+01 0.  1.
         21   -1    0    0  501  502  0.00000000000E+00 -0.00000000000E+00 -0.41352260686E+02  0.41352260686E+02  0.00000000000E+00 0. -1.
         25    2    1    2    0    0  0.21458390576E+02  0.44663627271E+01  0.35308697333E+03  0.37520108415E+03  0.12500012757E+03 0.  0.
    9000005    1    3    3    0    0 -0.27004487093E+01 -0.58887184642E+02  0.17298937753E+03  0.18276027379E+03  0.10000000000E+01 0.  0.
    9000005    1    3    3    0    0  0.24158839285E+02  0.63353547369E+02  0.18009759580E+03  0.19244081036E+03  0.10000000000E+01 0.  0.
         -4    1    1    2    0  502 -0.21458390576E+02 -0.44663627271E+01 -0.26318720761E+02  0.34273880502E+02  0.12700000000E+01 0. -1.
<mgrwt>
<rscale>  1 0.12690722E+03</rscale>
<asrwt>0</asrwt>
<pdfrwt beam="2">  1       21 0.63618865E-02 0.12690722E+03</pdfrwt>
<pdfrwt beam="1">  1       -4 0.56635591E-01 0.12690722E+03</pdfrwt>
<totfact> 0.21565002E+04</totfact>
</mgrwt>
</event>
<event>
 6    4  0.6195789E-003  0.1921654E+03  0.7818608E-02  0.1156523E+00
         21   -1    0    0  501  502  0.00000000000E+00  0.00000000000E+00  0.29479886639E+02  0.29479886639E+02  0.00000000000E+00 0.  1.
          4   -1    0    0  502    0 -0.00000000000E+00 -0.00000000000E+00 -0.10006172177E+04  0.10006180236E+04  0.12700000000E+01 0. -1.
         25    2    1    2    0    0 -0.14568706814E+03 -0.89107177273E+01 -0.63976553935E+03  0.66800261902E+03  0.12499372372E+03 0.  0.
    9000005    1    3    3    0    0 -0.13114202817E+03 -0.52156844229E+02 -0.54256477964E+03  0.56062118053E+03  0.10000000000E+01 0.  0.
    9000005    1    3    3    0    0 -0.14545039977E+02  0.43246126502E+02 -0.97200759709E+02  0.10738143850E+03  0.10000000000E+01 0.  0.
          4    1    1    2  501    0  0.14568706814E+03  0.89107177273E+01 -0.33137179169E+03  0.36209529124E+03  0.12700000000E+01 0.  1.
<mgrwt>
<rscale>  1 0.19216543E+03</rscale>
<asrwt>0</asrwt>
<pdfrwt beam="1">  1       21 0.45353667E-02 0.19216543E+03</pdfrwt>
<pdfrwt beam="2">  1        4 0.15394329E+00 0.19216543E+03</pdfrwt>
<totfact> 0.39617566E+03</totfact>
</mgrwt>
</event>
<event>
 6    4  0.6195789E-003  0.1282068E+03  0.7818608E-02  0.1230141E+00
         21   -1    0    0  501  502  0.00000000000E+00  0.00000000000E+00  0.13168901344E+03  0.13168901344E+03  0.00000000000E+00 0. -1.
          4   -1    0    0  502    0 -0.00000000000E+00 -0.00000000000E+00 -0.79881538111E+02  0.79891633047E+02  0.12700000000E+01 0.  1.
         25    2    1    2    0    0  0.19198465319E+02  0.21022943853E+02 -0.24142417091E+02  0.13046009239E+03  0.12500573652E+03 0.  0.
    9000005    1    3    3    0    0 -0.14607469764E+01 -0.64680252019E+01  0.49091830193E+02  0.49547723696E+02  0.10000000000E+01 0.  0.
    9000005    1    3    3    0    0  0.20659212296E+02  0.27490969055E+02 -0.73234247283E+02  0.80912368693E+02  0.10000000000E+01 0.  0.
          4    1    1    2  501    0 -0.19198465319E+02 -0.21022943853E+02  0.75949892423E+02  0.81120554103E+02  0.12700000000E+01 0. -1.
<mgrwt>
<rscale>  1 0.12820678E+03</rscale>
<asrwt>0</asrwt>
<pdfrwt beam="1">  1       21 0.20259848E-01 0.12820678E+03</pdfrwt>
<pdfrwt beam="2">  1        4 0.12290715E-01 0.12820678E+03</pdfrwt>
<totfact> 0.48411616E+04</totfact>
</mgrwt>
</event>
<event>
 6    4  0.6195789E-003  0.1396299E+03  0.7818608E-02  0.1213828E+00
          4   -1    0    0  502    0 -0.00000000000E+00  0.00000000000E+00  0.39727564743E+03  0.39727767737E+03  0.12700000000E+01 0.  1.
         21   -1    0    0  501  502  0.00000000000E+00 -0.00000000000E+00 -0.33485609976E+02  0.33485609976E+02  0.00000000000E+00 0. -1.
         25    2    1    2    0    0 -0.58559668700E+02 -0.21055086899E+02  0.33348150206E+03  0.36153344046E+03  0.12499585942E+03 0.  0.
    9000005    1    3    3    0    0 -0.63052020916E+02 -0.54476033378E+02  0.30849470878E+03  0.31955153090E+03  0.10000000000E+01 0.  0.
    9000005    1    3    3    0    0  0.44923522167E+01  0.33420946479E+02  0.24986793278E+02  0.41981909560E+02  0.10000000000E+01 0.  0.
          4    1    1    2  501    0  0.58559668700E+02  0.21055086899E+02  0.30308535390E+02  0.69229846887E+02  0.12700000000E+01 0. -1.
<mgrwt>
<rscale>  1 0.13962993E+03</rscale>
<asrwt>0</asrwt>
<pdfrwt beam="2">  1       21 0.51516326E-02 0.13962993E+03</pdfrwt>
<pdfrwt beam="1">  1        4 0.61121336E-01 0.13962993E+03</pdfrwt>
<totfact> 0.26560073E+04</totfact>
</mgrwt>
</event>
<event>
 6    4  0.6195789E-003  0.1319566E+03  0.7818608E-02  0.1224581E+00
          4   -1    0    0  502    0 -0.00000000000E+00  0.00000000000E+00  0.12978482095E+02  0.13040471521E+02  0.12700000000E+01 0.  1.
         21   -1    0    0  501  502  0.00000000000E+00 -0.00000000000E+00 -0.79007140030E+03  0.79007140030E+03  0.00000000000E+00 0. -1.
         25    2    1    2    0    0  0.32115745228E+02  0.27493713660E+02 -0.35201655313E+03  0.37593643429E+03  0.12500089427E+03 0.  0.
    9000005    1    3    3    0    0  0.24884326283E+02  0.76434185883E+02 -0.24894242763E+03  0.26160035692E+03  0.10000000000E+01 0.  0.
    9000005    1    3    3    0    0  0.72314189450E+01 -0.48940472223E+02 -0.10307412550E+03  0.11433607737E+03  0.10000000000E+01 0.  0.
          4    1    1    2  501    0 -0.32115745228E+02 -0.27493713660E+02 -0.42507636508E+03  0.42717543753E+03  0.12700000000E+01 0. -1.
<mgrwt>
<rscale>  1 0.13195662E+03</rscale>
<asrwt>0</asrwt>
<pdfrwt beam="2">  1       21 0.12154948E+00 0.13195662E+03</pdfrwt>
<pdfrwt beam="1">  1        4 0.20015360E-02 0.13195662E+03</pdfrwt>
<totfact> 0.21419813E+04</totfact>
</mgrwt>
</event>
<event>
 6    4  0.6195789E-003  0.1278135E+03  0.7818608E-02  0.1230737E+00
         21   -1    0    0  501  502  0.00000000000E+00  0.00000000000E+00  0.24487432611E+02  0.24487432611E+02  0.00000000000E+00 0.  1.
          4   -1    0    0  502    0 -0.00000000000E+00 -0.00000000000E+00 -0.24939414046E+03  0.24939737408E+03  0.12700000000E+01 0. -1.
         25    2    1    2    0    0  0.18089727888E+02 -0.19578900289E+02 -0.20017501002E+03  0.23750017574E+03  0.12500290896E+03 0.  0.
    9000005    1    3    3    0    0  0.55654986392E+02 -0.42859317819E+02 -0.66612440396E+02  0.96812271173E+02  0.10000000000E+01 0.  0.
    9000005    1    3    3    0    0 -0.37565258504E+02  0.23280417530E+02 -0.13356256962E+03  0.14068790457E+03  0.10000000000E+01 0.  0.
          4    1    1    2  501    0 -0.18089727888E+02  0.19578900289E+02 -0.24731697829E+02  0.36384630946E+02  0.12700000000E+01 0.  1.
<mgrwt>
<rscale>  1 0.12781353E+03</rscale>
<asrwt>0</asrwt>
<pdfrwt beam="1">  1       21 0.37672971E-02 0.12781353E+03</pdfrwt>
<pdfrwt beam="2">  1        4 0.38371114E-01 0.12781353E+03</pdfrwt>
<totfact> 0.11381966E+05</totfact>
</mgrwt>
</event>
<event>
 6    4  0.6195789E-003  0.2180419E+03  0.7818608E-02  0.1135351E+00
         -4   -1    0    0    0  501 -0.00000000000E+00  0.00000000000E+00  0.63698628671E+03  0.63698755275E+03  0.12700000000E+01 0. -1.
         21   -1    0    0  501  502  0.00000000000E+00 -0.00000000000E+00 -0.72354152757E+02  0.72354152757E+02  0.00000000000E+00 0.  1.
         25    2    1    2    0    0  0.17164300141E+03 -0.49554379640E+02  0.44136425540E+03  0.49228517080E+03  0.12500130791E+03 0.  0.
    9000005    1    3    3    0    0  0.63496868329E+02  0.30401654985E+02  0.24015571366E+03  0.25026362044E+03  0.10000000000E+01 0.  0.
    9000005    1    3    3    0    0  0.10814613308E+03 -0.79956034625E+02  0.20120854174E+03  0.24202155036E+03  0.10000000000E+01 0.  0.
         -4    1    1    2    0  502 -0.17164300141E+03  0.49554379640E+02  0.12326787856E+03  0.21705653470E+03  0.12700000000E+01 0.  1.
<mgrwt>
<rscale>  1 0.21804193E+03</rscale>
<asrwt>0</asrwt>
<pdfrwt beam="2">  1       21 0.11131409E-01 0.21804193E+03</pdfrwt>
<pdfrwt beam="1">  1       -4 0.97998841E-01 0.21804193E+03</pdfrwt>
<totfact> 0.25372844E+03</totfact>
</mgrwt>
</event>
<event>
 6    4  0.6195789E-003  0.1281817E+03  0.7818608E-02  0.1230179E+00
          4   -1    0    0  502    0 -0.00000000000E+00  0.00000000000E+00  0.14327802873E+03  0.14328365718E+03  0.12700000000E+01 0.  1.
         21   -1    0    0  501  502  0.00000000000E+00 -0.00000000000E+00 -0.14672475246E+03  0.14672475246E+03  0.00000000000E+00 0. -1.
         25    2    1    2    0    0 -0.18469413674E+02  0.21632785786E+02  0.11254188682E+03  0.17057613871E+03  0.12498578377E+03 0.  0.
    9000005    1    3    3    0    0 -0.58284966562E+02  0.34022785786E+02  0.10965829070E+03  0.12876578738E+03  0.10000000000E+01 0.  0.
    9000005    1    3    3    0    0  0.39815552888E+02 -0.12390000000E+02  0.28835961243E+01  0.41810351330E+02  0.10000000000E+01 0.  0.
          4    1    1    2  501    0  0.18469413674E+02 -0.21632785786E+02 -0.11598861056E+03  0.11943227094E+03  0.12700000000E+01 0. -1.
<mgrwt>
<rscale>  1 0.12818168E+03</rscale>
<asrwt>0</asrwt>
<pdfrwt beam="2">  1       21 0.22573039E-01 0.12818168E+03</pdfrwt>
<pdfrwt beam="1">  1        4 0.22043629E-01 0.12818168E+03</pdfrwt>
<totfact> 0.14148072E+04</totfact>
</mgrwt>
</event>
<event>
 6    4  0.6195789E-003  0.1283148E+03  0.7818608E-02  0.1229978E+00
         -4   -1    0    0    0  501 -0.00000000000E+00  0.00000000000E+00  0.41081084770E+02  0.41100710771E+02  0.12700000000E+01 0. -1.
         21   -1    0    0  501  502  0.00000000000E+00 -0.00000000000E+00 -0.16106734047E+03  0.16106734047E+03  0.00000000000E+00 0. -1.
         25    2    1    2    0    0  0.13617873441E+02  0.25587306253E+02 -0.74966043537E+02  0.14860883988E+03  0.12499809154E+03 0.  0.
    9000005    1    3    3    0    0 -0.17764626468E+02 -0.67396270369E-02 -0.99614380584E+02  0.10119094237E+03  0.10000000000E+01 0.  0.
    9000005    1    3    3    0    0  0.31382499908E+02  0.25594045880E+02  0.24648337047E+02  0.47417897510E+02  0.10000000000E+01 0.  0.
         -4    1    1    2    0  502 -0.13617873441E+02 -0.25587306253E+02 -0.45020212164E+02  0.53559211361E+02  0.12700000000E+01 0.  1.
<mgrwt>
<rscale>  1 0.12831477E+03</rscale>
<asrwt>0</asrwt>
<pdfrwt beam="2">  1       21 0.24779590E-01 0.12831477E+03</pdfrwt>
<pdfrwt beam="1">  1       -4 0.63220619E-02 0.12831477E+03</pdfrwt>
<totfact> 0.10070863E+05</totfact>
</mgrwt>
</event>
<event>
 6    4  0.6195789E-003  0.1331767E+03  0.7818608E-02  0.1222817E+00
         21   -1    0    0  501  502  0.00000000000E+00  0.00000000000E+00  0.19497750947E+03  0.19497750947E+03  0.00000000000E+00 0.  1.
         -4   -1    0    0    0  501 -0.00000000000E+00 -0.00000000000E+00 -0.74443142586E+02  0.74453974898E+02  0.12700000000E+01 0. -1.
         25    2    1    2    0    0 -0.94936402794E+01  0.44951819883E+02 -0.75099018284E+01  0.13338831855E+03  0.12500099833E+03 0.  0.
    9000005    1    3    3    0    0  0.12083270992E+02  0.51156889694E+02  0.49437285091E+02  0.72167014336E+02  0.10000000000E+01 0.  0.
    9000005    1    3    3    0    0 -0.21576911272E+02 -0.62050698109E+01 -0.56947186919E+02  0.61221304212E+02  0.10000000000E+01 0.  0.
         -4    1    1    2    0  502  0.94936402794E+01 -0.44951819883E+02  0.12804426871E+03  0.13604316582E+03  0.12700000000E+01 0.  1.
<mgrwt>
<rscale>  1 0.13317674E+03</rscale>
<asrwt>0</asrwt>
<pdfrwt beam="1">  1       21 0.29996540E-01 0.13317674E+03</pdfrwt>
<pdfrwt beam="2">  1       -4 0.11453943E-01 0.13317674E+03</pdfrwt>
<totfact> 0.26131251E+04</totfact>
</mgrwt>
</event>
<event>
 6    4  0.6195789E-003  0.1399780E+03  0.7818608E-02  0.1213359E+00
         21   -1    0    0  501  502  0.00000000000E+00  0.00000000000E+00  0.86629482778E+02  0.86629482778E+02  0.00000000000E+00 0. -1.
          4   -1    0    0  502    0 -0.00000000000E+00 -0.00000000000E+00 -0.14428412094E+03  0.14428971015E+03  0.12700000000E+01 0.  1.
         25    2    1    2    0    0  0.11306816848E+02 -0.61983580969E+02 -0.83292112755E+02  0.16288463245E+03  0.12499607603E+03 0.  0.
    9000005    1    3    3    0    0  0.60807779404E+02 -0.54094087288E+02 -0.77548148060E+02  0.11242095705E+03  0.10000000000E+01 0.  0.
    9000005    1    3    3    0    0 -0.49500962556E+02 -0.78894936816E+01 -0.57439646960E+01  0.50463675400E+02  0.10000000000E+01 0.  0.
          4    1    1    2  501    0 -0.11306816848E+02  0.61983580969E+02  0.25637474592E+02  0.68034560486E+02  0.12700000000E+01 0. -1.
<mgrwt>
<rscale>  1 0.13997795E+03</rscale>
<asrwt>0</asrwt>
<pdfrwt beam="1">  1       21 0.13327613E-01 0.13997795E+03</pdfrwt>
<pdfrwt beam="2">  1        4 0.22198703E-01 0.13997795E+03</pdfrwt>
<totfact> 0.36923930E+04</totfact>
</mgrwt>
</event>
<event>
 6    4  0.6195789E-003  0.1271381E+03  0.7818608E-02  0.1231765E+00
         -4   -1    0    0    0  501 -0.00000000000E+00  0.00000000000E+00  0.22821984042E+03  0.22822337404E+03  0.12700000000E+01 0.  1.
         21   -1    0    0  501  502  0.00000000000E+00 -0.00000000000E+00 -0.29326266338E+02  0.29326266338E+02  0.00000000000E+00 0. -1.
         25    2    1    2    0    0 -0.37115982440E+01  0.22929871848E+02  0.19666244260E+03  0.23417987718E+03  0.12499817424E+03 0.  0.
    9000005    1    3    3    0    0  0.54675293390E+02  0.29249307661E+02  0.13737130536E+03  0.15072088522E+03  0.10000000000E+01 0.  0.
    9000005    1    3    3    0    0 -0.58386891634E+02 -0.63194358131E+01  0.59291137241E+02  0.83458991961E+02  0.10000000000E+01 0.  0.
         -4    1    1    2    0  502  0.37115982440E+01 -0.22929871848E+02  0.22311314828E+01  0.23369763203E+02  0.12700000000E+01 0. -1.
<mgrwt>
<rscale>  1 0.12713811E+03</rscale>
<asrwt>0</asrwt>
<pdfrwt beam="2">  1       21 0.45117335E-02 0.12713811E+03</pdfrwt>
<pdfrwt beam="1">  1       -4 0.35113130E-01 0.12713811E+03</pdfrwt>
<totfact> 0.10009326E+05</totfact>
</mgrwt>
</event>
<event>
 6    4  0.6195789E-003  0.1289215E+03  0.7818608E-02  0.1229065E+00
          4   -1    0    0  502    0 -0.00000000000E+00  0.00000000000E+00  0.43012533134E+02  0.43031278236E+02  0.12700000000E+01 0. -1.
         21   -1    0    0  501  502  0.00000000000E+00 -0.00000000000E+00 -0.22734026236E+03  0.22734026236E+03  0.00000000000E+00 0. -1.
         25    2    1    2    0    0 -0.29691435439E+02  0.10777557275E+02 -0.60204881072E+02  0.14228629003E+03  0.12499209393E+03 0.  0.
    9000005    1    3    3    0    0 -0.23327094948E+02 -0.34757926930E+02  0.22589468326E+02  0.47576789744E+02  0.10000000000E+01 0.  0.
    9000005    1    3    3    0    0 -0.63643404919E+01  0.45535484204E+02 -0.82794349398E+02  0.94709500283E+02  0.10000000000E+01 0.  0.
          4    1    1    2  501    0  0.29691435439E+02 -0.10777557275E+02 -0.12412284815E+03  0.12808525057E+03  0.12700000000E+01 0.  1.
<mgrwt>
<rscale>  1 0.12892153E+03</rscale>
<asrwt>0</asrwt>
<pdfrwt beam="2">  1       21 0.34975425E-01 0.12892153E+03</pdfrwt>
<pdfrwt beam="1">  1        4 0.66190277E-02 0.12892153E+03</pdfrwt>
<totfact> 0.48161694E+04</totfact>
</mgrwt>
</event>
<event>
 6    4  0.6195789E-003  0.1276528E+03  0.7818608E-02  0.1230981E+00
         21   -1    0    0  501  502  0.00000000000E+00  0.00000000000E+00  0.19971804308E+02  0.19971804308E+02  0.00000000000E+00 0. -1.
          4   -1    0    0  502    0 -0.00000000000E+00 -0.00000000000E+00 -0.46191962429E+03  0.46192137015E+03  0.12700000000E+01 0. -1.
         25    2    1    2    0    0 -0.49478372572E+01 -0.25419857983E+02 -0.43730135292E+03  0.45555208812E+03  0.12499832578E+03 0.  0.
    9000005    1    3    3    0    0 -0.31523852361E+02 -0.32949911276E+02 -0.42099834792E+03  0.42346199224E+03  0.10000000000E+01 0.  0.
    9000005    1    3    3    0    0  0.26576015104E+02  0.75300532925E+01 -0.16303005002E+02  0.32090095878E+02  0.10000000000E+01 0.  0.
          4    1    1    2  501    0  0.49478372572E+01  0.25419857983E+02 -0.46464670560E+01  0.26341086339E+02  0.12700000000E+01 0.  1.
<mgrwt>
<rscale>  1 0.12765278E+03</rscale>
<asrwt>0</asrwt>
<pdfrwt beam="1">  1       21 0.30725850E-02 0.12765278E+03</pdfrwt>
<pdfrwt beam="2">  1        4 0.71067804E-01 0.12765278E+03</pdfrwt>
<totfact> 0.44974259E+04</totfact>
</mgrwt>
</event>
<event>
 6    4  0.6195789E-003  0.1439960E+03  0.7818608E-02  0.1208051E+00
          4   -1    0    0  502    0 -0.00000000000E+00  0.00000000000E+00  0.92447897359E+03  0.92447984592E+03  0.12700000000E+01 0. -1.
         21   -1    0    0  501  502  0.00000000000E+00 -0.00000000000E+00 -0.12828560318E+02  0.12828560318E+02  0.00000000000E+00 0.  1.
         25    2    1    2    0    0  0.39082757781E+02 -0.59860685650E+02  0.67014692877E+03  0.68544274845E+03  0.12499636647E+03 0.  0.
    9000005    1    3    3    0    0  0.30078676634E+02  0.36236988612E+02  0.24335843385E+03  0.24787531837E+03  0.10000000000E+01 0.  0.
    9000005    1    3    3    0    0  0.90040811467E+01 -0.96097674262E+02  0.42678849492E+03  0.43756743008E+03  0.10000000000E+01 0.  0.
          4    1    1    2  501    0 -0.39082757781E+02  0.59860685650E+02  0.24150348451E+03  0.25186565778E+03  0.12700000000E+01 0.  1.
<mgrwt>
<rscale>  1 0.14399603E+03</rscale>
<asrwt>0</asrwt>
<pdfrwt beam="2">  1       21 0.19736254E-02 0.14399603E+03</pdfrwt>
<pdfrwt beam="1">  1        4 0.14223239E+00 0.14399603E+03</pdfrwt>
<totfact> 0.18752525E+04</totfact>
</mgrwt>
</event>
<event>
 6    4  0.6195789E-003  0.1346986E+03  0.7818608E-02  0.1220646E+00
         21   -1    0    0  501  502  0.00000000000E+00  0.00000000000E+00  0.24464312612E+03  0.24464312612E+03  0.00000000000E+00 0. -1.
         -4   -1    0    0    0  501 -0.00000000000E+00 -0.00000000000E+00 -0.35167785267E+02  0.35190709294E+02  0.12700000000E+01 0. -1.
         25    2    1    2    0    0 -0.26405066490E+01 -0.50112752303E+02  0.14186572517E+03  0.19562615612E+03  0.12500179504E+03 0.  0.
    9000005    1    3    3    0    0  0.34404666594E+02 -0.33280105217E+02 -0.16569419005E+00  0.47877697744E+02  0.10000000000E+01 0.  0.
    9000005    1    3    3    0    0 -0.37045173243E+02 -0.16832647086E+02  0.14203141936E+03  0.14774845838E+03  0.10000000000E+01 0.  0.
         -4    1    1    2    0  502  0.26405066490E+01  0.50112752303E+02  0.67609615689E+02  0.84207679296E+02  0.12700000000E+01 0.  1.
<mgrwt>
<rscale>  1 0.13469859E+03</rscale>
<asrwt>0</asrwt>
<pdfrwt beam="1">  1       21 0.37637403E-01 0.13469859E+03</pdfrwt>
<pdfrwt beam="2">  1       -4 0.54124456E-02 0.13469859E+03</pdfrwt>
<totfact> 0.58065636E+04</totfact>
</mgrwt>
</event>
<event>
 6    4  0.6195789E-003  0.1304536E+03  0.7818608E-02  0.1226784E+00
         21   -1    0    0  501  502  0.00000000000E+00  0.00000000000E+00  0.36533037850E+02  0.36533037850E+02  0.00000000000E+00 0.  1.
          4   -1    0    0  502    0 -0.00000000000E+00 -0.00000000000E+00 -0.24208106405E+03  0.24208439535E+03  0.12700000000E+01 0. -1.
         25    2    1    2    0    0  0.36336455075E+02  0.84799012742E+01 -0.20286147072E+03  0.24118646776E+03  0.12500355689E+03 0.  0.
    9000005    1    3    3    0    0 -0.73380211851E+01 -0.98685892884E+01 -0.19223008022E+03  0.19262564563E+03  0.10000000000E+01 0.  0.
    9000005    1    3    3    0    0  0.43674476260E+02  0.18348490563E+02 -0.10631390491E+02  0.48560822134E+02  0.10000000000E+01 0.  0.
          4    1    1    2  501    0 -0.36336455075E+02 -0.84799012742E+01 -0.26865554808E+01  0.37430965435E+02  0.12700000000E+01 0.  1.
<mgrwt>
<rscale>  1 0.13045358E+03</rscale>
<asrwt>0</asrwt>
<pdfrwt beam="1">  1       21 0.56204674E-02 0.13045358E+03</pdfrwt>
<pdfrwt beam="2">  1        4 0.37245195E-01 0.13045358E+03</pdfrwt>
<totfact> 0.61955636E+04</totfact>
</mgrwt>
</event>
<event>
 6    4  0.6195789E-003  0.1310459E+03  0.7818608E-02  0.1225912E+00
          4   -1    0    0  502    0 -0.00000000000E+00  0.00000000000E+00  0.91532530700E+03  0.91532618805E+03  0.12700000000E+01 0.  1.
         21   -1    0    0  501  502  0.00000000000E+00 -0.00000000000E+00 -0.53212876740E+02  0.53212876740E+02  0.00000000000E+00 0. -1.
         25    2    1    2    0    0  0.23980154336E+02  0.31199204154E+02  0.90260102156E+03  0.91206449470E+03  0.12499840091E+03 0.  0.
    9000005    1    3    3    0    0 -0.30054087939E+02  0.43660018525E+02  0.18849810018E+03  0.19581108036E+03  0.10000000000E+01 0.  0.
    9000005    1    3    3    0    0  0.54034242275E+02 -0.12460814371E+02  0.71410292138E+03  0.71625341434E+03  0.10000000000E+01 0.  0.
          4    1    1    2  501    0 -0.23980154336E+02 -0.31199204154E+02 -0.40488591299E+02  0.56474570093E+02  0.12700000000E+01 0. -1.
<mgrwt>
<rscale>  1 0.13104594E+03</rscale>
<asrwt>0</asrwt>
<pdfrwt beam="2">  1       21 0.81865971E-02 0.13104594E+03</pdfrwt>
<pdfrwt beam="1">  1        4 0.14082050E+00 0.13104594E+03</pdfrwt>
<totfact> 0.17829748E+03</totfact>
</mgrwt>
</event>
<event>
 6    4  0.6195789E-003  0.1368517E+03  0.7818608E-02  0.1217629E+00
          4   -1    0    0  502    0 -0.00000000000E+00  0.00000000000E+00  0.17161871629E+02  0.17208798268E+02  0.12700000000E+01 0. -1.
         21   -1    0    0  501  502  0.00000000000E+00 -0.00000000000E+00 -0.54461693586E+03  0.54461693586E+03  0.00000000000E+00 0. -1.
         25    2    1    2    0    0 -0.27488754619E+02 -0.48459064850E+02 -0.34902538284E+03  0.37489613054E+03  0.12499791290E+03 0.  0.
    9000005    1    3    3    0    0 -0.25902711756E+02 -0.68027550267E+02 -0.34764952454E+03  0.35518993508E+03  0.10000000000E+01 0.  0.
    9000005    1    3    3    0    0 -0.15860428624E+01  0.19568485417E+02 -0.13758583061E+01  0.19706195461E+02  0.10000000000E+01 0.  0.
          4    1    1    2  501    0  0.27488754619E+02  0.48459064850E+02 -0.17842968138E+03  0.18692960358E+03  0.12700000000E+01 0.  1.
<mgrwt>
<rscale>  1 0.13685171E+03</rscale>
<asrwt>0</asrwt>
<pdfrwt beam="2">  1       21 0.83787240E-01 0.13685171E+03</pdfrwt>
<pdfrwt beam="1">  1        4 0.26440110E-02 0.13685171E+03</pdfrwt>
<totfact> 0.33451526E+04</totfact>
</mgrwt>
</event>
<event>
 6    4  0.6195789E-003  0.1289184E+03  0.7818608E-02  0.1229069E+00
         -4   -1    0    0    0  501 -0.00000000000E+00  0.00000000000E+00  0.29535576193E+03  0.29535849235E+03  0.12700000000E+01 0. -1.
         21   -1    0    0  501  502  0.00000000000E+00 -0.00000000000E+00 -0.27207211358E+02  0.27207211358E+02  0.00000000000E+00 0. -1.
         25    2    1    2    0    0 -0.91140375432E+01  0.30202350160E+02  0.25961158400E+03  0.28985881860E+03  0.12499885015E+03 0.  0.
    9000005    1    3    3    0    0 -0.23036859919E+02  0.76845464660E+02  0.16211398812E+03  0.18088081019E+03  0.10000000000E+01 0.  0.
    9000005    1    3    3    0    0  0.13922822376E+02 -0.46643114500E+02  0.97497595883E+02  0.10897800841E+03  0.10000000000E+01 0.  0.
         -4    1    1    2    0  502  0.91140375432E+01 -0.30202350160E+02  0.85369665749E+01  0.32706885114E+02  0.12700000000E+01 0.  1.
<mgrwt>
<rscale>  1 0.12891842E+03</rscale>
<asrwt>0</asrwt>
<pdfrwt beam="2">  1       21 0.41857250E-02 0.12891842E+03</pdfrwt>
<pdfrwt beam="1">  1       -4 0.45441836E-01 0.12891842E+03</pdfrwt>
<totfact> 0.68471518E+04</totfact>
</mgrwt>
</event>
<event>
 6    4  0.6195789E-003  0.1291246E+03  0.7818608E-02  0.1228760E+00
         21   -1    0    0  501  502  0.00000000000E+00  0.00000000000E+00  0.12129411537E+04  0.12129411537E+04  0.00000000000E+00 0.  1.
          4   -1    0    0  502    0 -0.00000000000E+00 -0.00000000000E+00 -0.59528147191E+01  0.60867810114E+01  0.12700000000E+01 0. -1.
         25    2    1    2    0    0 -0.30295753015E+02 -0.11411442313E+02  0.76210867943E+03  0.77297011553E+03  0.12500042632E+03 0.  0.
    9000005    1    3    3    0    0 -0.72277527957E+02 -0.35320776563E+02  0.44811062407E+03  0.45527544378E+03  0.10000000000E+01 0.  0.
    9000005    1    3    3    0    0  0.41981774943E+02  0.23909334250E+02  0.31399805536E+03  0.31769467176E+03  0.10000000000E+01 0.  0.
          4    1    1    2  501    0  0.30295753015E+02  0.11411442313E+02  0.44487965956E+03  0.44605781918E+03  0.12700000000E+01 0.  1.
<mgrwt>
<rscale>  1 0.12912459E+03</rscale>
<asrwt>0</asrwt>
<pdfrwt beam="1">  1       21 0.18660614E+00 0.12912459E+03</pdfrwt>
<pdfrwt beam="2">  1        4 0.92617486E-03 0.12912459E+03</pdfrwt>
<totfact> 0.22554534E+04</totfact>
</mgrwt>
</event>
<event>
 6    4  0.6195789E-003  0.1517065E+03  0.7818608E-02  0.1198392E+00
         -4   -1    0    0    0  501 -0.00000000000E+00  0.00000000000E+00  0.18548377464E+02  0.18591804822E+02  0.12700000000E+01 0.  1.
         21   -1    0    0  501  502  0.00000000000E+00 -0.00000000000E+00 -0.79683036202E+03  0.79683036202E+03  0.00000000000E+00 0. -1.
         25    2    1    2    0    0 -0.48947554687E+02  0.70655962722E+02 -0.40797519601E+03  0.43526843646E+03  0.12500689198E+03 0.  0.
    9000005    1    3    3    0    0 -0.62185958956E+02  0.95907107417E+02 -0.25210441614E+03  0.27680842361E+03  0.10000000000E+01 0.  0.
    9000005    1    3    3    0    0  0.13238404269E+02 -0.25251144695E+02 -0.15587077987E+03  0.15846001285E+03  0.10000000000E+01 0.  0.
         -4    1    1    2    0  502  0.48947554687E+02 -0.70655962722E+02 -0.37030678855E+03  0.38015373038E+03  0.12700000000E+01 0. -1.
<mgrwt>
<rscale>  1 0.15170646E+03</rscale>
<asrwt>0</asrwt>
<pdfrwt beam="2">  1       21 0.12258927E+00 0.15170646E+03</pdfrwt>
<pdfrwt beam="1">  1       -4 0.28570153E-02 0.15170646E+03</pdfrwt>
<totfact> 0.12175399E+04</totfact>
</mgrwt>
</event>
<event>
 6    4  0.6195789E-003  0.1387482E+03  0.7818608E-02  0.1215023E+00
         21   -1    0    0  501  502  0.00000000000E+00  0.00000000000E+00  0.39194922360E+02  0.39194922360E+02  0.00000000000E+00 0. -1.
         -4   -1    0    0    0  501 -0.00000000000E+00 -0.00000000000E+00 -0.26094357879E+03  0.26094666929E+03  0.12700000000E+01 0.  1.
         25    2    1    2    0    0  0.23656655343E+01  0.60168972683E+02 -0.12836651760E+03  0.18902121368E+03  0.12500061893E+03 0.  0.
    9000005    1    3    3    0    0 -0.61148992195E+02  0.33958547312E+02 -0.67921541438E+02  0.97502399833E+02  0.10000000000E+01 0.  0.
    9000005    1    3    3    0    0  0.63514657729E+02  0.26210425371E+02 -0.60444976160E+02  0.91518813845E+02  0.10000000000E+01 0.  0.
         -4    1    1    2    0  502 -0.23656655343E+01 -0.60168972683E+02 -0.93382138835E+02  0.11112037797E+03  0.12700000000E+01 0. -1.
<mgrwt>
<rscale>  1 0.13874818E+03</rscale>
<asrwt>0</asrwt>
<pdfrwt beam="1">  1       21 0.60299880E-02 0.13874818E+03</pdfrwt>
<pdfrwt beam="2">  1       -4 0.40146987E-01 0.13874818E+03</pdfrwt>
<totfact> 0.47855814E+04</totfact>
</mgrwt>
</event>
<event>
 6    4  0.6195789E-003  0.1300505E+03  0.7818608E-02  0.1227381E+00
          4   -1    0    0  502    0 -0.00000000000E+00  0.00000000000E+00  0.52687799368E+02  0.52703103345E+02  0.12700000000E+01 0. -1.
         21   -1    0    0  501  502  0.00000000000E+00 -0.00000000000E+00 -0.53258299827E+03  0.53258299827E+03  0.00000000000E+00 0.  1.
         25    2    1    2    0    0  0.24063687461E+02 -0.26736547136E+02 -0.29370295431E+02  0.13332569897E+03  0.12497689285E+03 0.  0.
    9000005    1    3    3    0    0  0.37390310590E+02 -0.24554757440E+01 -0.72755096952E+02  0.81843563093E+02  0.10000000000E+01 0.  0.
    9000005    1    3    3    0    0 -0.13326623129E+02 -0.24281071392E+02  0.43384801521E+02  0.51482135882E+02  0.10000000000E+01 0.  0.
          4    1    1    2  501    0 -0.24063687461E+02  0.26736547136E+02 -0.45052490347E+03  0.45196040264E+03  0.12700000000E+01 0.  1.
<mgrwt>
<rscale>  1 0.13005048E+03</rscale>
<asrwt>0</asrwt>
<pdfrwt beam="2">  1       21 0.81935847E-01 0.13005048E+03</pdfrwt>
<pdfrwt beam="1">  1        4 0.81071089E-02 0.13005048E+03</pdfrwt>
<totfact> 0.58188898E+03</totfact>
</mgrwt>
</event>
<event>
 6    4  0.6195789E-003  0.1311736E+03  0.7818608E-02  0.1225725E+00
         21   -1    0    0  501  502  0.00000000000E+00  0.00000000000E+00  0.60564102513E+03  0.60564102513E+03  0.00000000000E+00 0.  1.
          4   -1    0    0  502    0 -0.00000000000E+00 -0.00000000000E+00 -0.16191060242E+02  0.16240792214E+02  0.12700000000E+01 0.  1.
         25    2    1    2    0    0 -0.25764022942E+02 -0.30300174140E+02  0.27233037871E+03  0.30227529321E+03  0.12499852913E+03 0.  0.
    9000005    1    3    3    0    0 -0.73971729244E+02 -0.34212063347E+02  0.19068208782E+03  0.20737150388E+03  0.10000000000E+01 0.  0.
    9000005    1    3    3    0    0  0.48207706302E+02  0.39118892066E+01  0.81648290887E+02  0.94903789328E+02  0.10000000000E+01 0.  0.
          4    1    1    2  501    0  0.25764022942E+02  0.30300174140E+02  0.31711958619E+03  0.31960652414E+03  0.12700000000E+01 0. -1.
<mgrwt>
<rscale>  1 0.13117362E+03</rscale>
<asrwt>0</asrwt>
<pdfrwt beam="1">  1       21 0.93175525E-01 0.13117362E+03</pdfrwt>
<pdfrwt beam="2">  1        4 0.24948608E-02 0.13117362E+03</pdfrwt>
<totfact> 0.28630618E+04</totfact>
</mgrwt>
</event>
<event>
 6    4  0.6195789E-003  0.1275976E+03  0.7818608E-02  0.1231065E+00
          4   -1    0    0  502    0 -0.00000000000E+00  0.00000000000E+00  0.88963638000E+02  0.88972702478E+02  0.12700000000E+01 0.  1.
         21   -1    0    0  501  502  0.00000000000E+00 -0.00000000000E+00 -0.14130864240E+03  0.14130864240E+03  0.00000000000E+00 0. -1.
         25    2    1    2    0    0 -0.19669348242E+02 -0.16417858606E+02  0.40568606550E+02  0.13389160818E+03  0.12499888624E+03 0.  0.
    9000005    1    3    3    0    0  0.16793606548E+02 -0.15190892563E+02 -0.39699934055E+02  0.45715130993E+02  0.10000000000E+01 0.  0.
    9000005    1    3    3    0    0 -0.36462954790E+02 -0.12269660424E+01  0.80268540605E+02  0.88176477183E+02  0.10000000000E+01 0.  0.
          4    1    1    2  501    0  0.19669348242E+02  0.16417858606E+02 -0.92913610946E+02  0.96389736697E+02  0.12700000000E+01 0. -1.
<mgrwt>
<rscale>  1 0.12759761E+03</rscale>
<asrwt>0</asrwt>
<pdfrwt beam="2">  1       21 0.21739791E-01 0.12759761E+03</pdfrwt>
<pdfrwt beam="1">  1        4 0.13687850E-01 0.12759761E+03</pdfrwt>
<totfact> 0.35270377E+04</totfact>
</mgrwt>
</event>
<event>
 6    4  0.6195789E-003  0.1282097E+03  0.7818608E-02  0.1230137E+00
         21   -1    0    0  501  502  0.00000000000E+00  0.00000000000E+00  0.10754553934E+04  0.10754553934E+04  0.00000000000E+00 0. -1.
          4   -1    0    0  502    0 -0.00000000000E+00 -0.00000000000E+00 -0.10569648249E+02  0.10645673492E+02  0.12700000000E+01 0. -1.
         25    2    1    2    0    0 -0.73627617751E+01 -0.27531261535E+02  0.10410829719E+04  0.10489477960E+04  0.12500217481E+03 0.  0.
    9000005    1    3    3    0    0  0.46229285753E+02  0.17660722589E+02  0.25605726480E+03  0.26079756679E+03  0.10000000000E+01 0.  0.
    9000005    1    3    3    0    0 -0.53592047528E+02 -0.45191984124E+02  0.78502570714E+03  0.78815022925E+03  0.10000000000E+01 0.  0.
          4    1    1    2  501    0  0.73627617751E+01  0.27531261535E+02  0.23802773186E+02  0.37153270839E+02  0.12700000000E+01 0.  1.
<mgrwt>
<rscale>  1 0.12820969E+03</rscale>
<asrwt>0</asrwt>
<pdfrwt beam="1">  1       21 0.16545459E+00 0.12820969E+03</pdfrwt>
<pdfrwt beam="2">  1        4 0.16320064E-02 0.12820969E+03</pdfrwt>
<totfact> 0.13300184E+04</totfact>
</mgrwt>
</event>
<event>
 6    4  0.6195789E-003  0.1270158E+03  0.7818608E-02  0.1231952E+00
         -4   -1    0    0    0  501 -0.00000000000E+00  0.00000000000E+00  0.82795813254E+03  0.82795910656E+03  0.12700000000E+01 0. -1.
         21   -1    0    0  501  502  0.00000000000E+00 -0.00000000000E+00 -0.15306404741E+02  0.15306404741E+02  0.00000000000E+00 0.  1.
         25    2    1    2    0    0 -0.91313635082E+00 -0.22519250883E+02  0.81072000514E+03  0.82060949818E+03  0.12500028516E+03 0.  0.
    9000005    1    3    3    0    0 -0.44164932192E+02 -0.18832912581E+02  0.13135475813E+03  0.13985811494E+03  0.10000000000E+01 0.  0.
    9000005    1    3    3    0    0  0.43251795841E+02 -0.36863383020E+01  0.67936524701E+03  0.68075138324E+03  0.10000000000E+01 0.  0.
         -4    1    1    2    0  502  0.91313635082E+00  0.22519250883E+02  0.19317226600E+01  0.22656013126E+02  0.12700000000E+01 0.  1.
<mgrwt>
<rscale>  1 0.12701583E+03</rscale>
<asrwt>0</asrwt>
<pdfrwt beam="2">  1       21 0.23548321E-02 0.12701583E+03</pdfrwt>
<pdfrwt beam="1">  1       -4 0.12738227E+00 0.12701583E+03</pdfrwt>
<totfact> 0.18260020E+04</totfact>
</mgrwt>
</event>
<event>
 6    4  0.6195789E-003  0.1267954E+03  0.7818608E-02  0.1232290E+00
         21   -1    0    0  501  502  0.00000000000E+00  0.00000000000E+00  0.10568355805E+03  0.10568355805E+03  0.00000000000E+00 0.  1.
         -4   -1    0    0    0  501 -0.00000000000E+00 -0.00000000000E+00 -0.53812047499E+02  0.53827031834E+02  0.12700000000E+01 0.  1.
         25    2    1    2    0    0  0.32775869679E+00  0.21259914620E+02  0.32918525232E+02  0.13099883883E+03  0.12499990031E+03 0.  0.
    9000005    1    3    3    0    0  0.40583580447E+02  0.11376937053E+02 -0.32715795901E+02  0.53364641852E+02  0.10000000000E+01 0.  0.
    9000005    1    3    3    0    0 -0.40255821750E+02  0.98829775667E+01  0.65634321133E+02  0.77634196982E+02  0.10000000000E+01 0.  0.
         -4    1    1    2    0  502 -0.32775869679E+00 -0.21259914620E+02  0.18952985315E+02  0.28511751046E+02  0.12700000000E+01 0. -1.
<mgrwt>
<rscale>  1 0.12679537E+03</rscale>
<asrwt>0</asrwt>
<pdfrwt beam="1">  1       21 0.16259009E-01 0.12679537E+03</pdfrwt>
<pdfrwt beam="2">  1       -4 0.82805162E-02 0.12679537E+03</pdfrwt>
<totfact> 0.14066939E+05</totfact>
</mgrwt>
</event>
<event>
 6    4  0.6195789E-003  0.1388741E+03  0.7818608E-02  0.1214852E+00
         -4   -1    0    0    0  501 -0.00000000000E+00  0.00000000000E+00  0.10053495207E+02  0.10133393601E+02  0.12700000000E+01 0.  1.
         21   -1    0    0  501  502  0.00000000000E+00 -0.00000000000E+00 -0.10403805976E+04  0.10403805976E+04  0.00000000000E+00 0.  1.
         25    2    1    2    0    0 -0.24417004142E+02 -0.55365301399E+02 -0.59452753958E+03  0.61053174322E+03  0.12499802986E+03 0.  0.
    9000005    1    3    3    0    0 -0.69754675730E+02 -0.54439517280E+02 -0.30888420404E+03  0.32130955064E+03  0.10000000000E+01 0.  0.
    9000005    1    3    3    0    0  0.45337671588E+02 -0.92578411858E+00 -0.28564333555E+03  0.28922219258E+03  0.10000000000E+01 0.  0.
         -4    1    1    2    0  502  0.24417004142E+02  0.55365301399E+02 -0.43579956279E+03  0.43998224796E+03  0.12700000000E+01 0. -1.
<mgrwt>
<rscale>  1 0.13887409E+03</rscale>
<asrwt>0</asrwt>
<pdfrwt beam="2">  1       21 0.16005855E+00 0.13887409E+03</pdfrwt>
<pdfrwt beam="1">  1       -4 0.15528972E-02 0.13887409E+03</pdfrwt>
<totfact> 0.15736571E+04</totfact>
</mgrwt>
</event>
<event>
 6    4  0.6195789E-003  0.1266941E+03  0.7818608E-02  0.1232445E+00
         21   -1    0    0  501  502  0.00000000000E+00  0.00000000000E+00  0.18275425353E+02  0.18275425353E+02  0.00000000000E+00 0. -1.
         -4   -1    0    0    0  501 -0.00000000000E+00 -0.00000000000E+00 -0.30477740964E+03  0.30478005565E+03  0.12700000000E+01 0. -1.
         25    2    1    2    0    0  0.17542750013E+02 -0.10905895315E+02 -0.22569962742E+03  0.25882755771E+03  0.12499878473E+03 0.  0.
    9000005    1    3    3    0    0  0.17640418242E+02 -0.46472621335E+02 -0.21641865872E+03  0.22205612969E+03  0.10000000000E+01 0.  0.
    9000005    1    3    3    0    0 -0.97668228942E-01  0.35566726019E+02 -0.92809686973E+01  0.36771428022E+02  0.10000000000E+01 0.  0.
         -4    1    1    2    0  502 -0.17542750013E+02  0.10905895315E+02 -0.60802356865E+02  0.64227923297E+02  0.12700000000E+01 0.  1.
<mgrwt>
<rscale>  1 0.12669405E+03</rscale>
<asrwt>0</asrwt>
<pdfrwt beam="1">  1       21 0.28116039E-02 0.12669405E+03</pdfrwt>
<pdfrwt beam="2">  1       -4 0.46892430E-01 0.12669405E+03</pdfrwt>
<totfact> 0.12360043E+05</totfact>
</mgrwt>
</event>
<event>
 6    4  0.6195789E-003  0.1276991E+03  0.7818608E-02  0.1230910E+00
         21   -1    0    0  501  502  0.00000000000E+00  0.00000000000E+00  0.11341604961E+02  0.11341604961E+02  0.00000000000E+00 0.  1.
         -4   -1    0    0    0  501 -0.00000000000E+00 -0.00000000000E+00 -0.52606685984E+03  0.52606839281E+03  0.12700000000E+01 0. -1.
         25    2    1    2    0    0 -0.23309043961E+02  0.11744432302E+02 -0.44453737393E+03  0.46251544022E+03  0.12500324955E+03 0.  0.
    9000005    1    3    3    0    0 -0.37861284675E+02  0.62100388047E+02 -0.21166329372E+03  0.22381305811E+03  0.10000000000E+01 0.  0.
    9000005    1    3    3    0    0  0.14552240714E+02 -0.50355955744E+02 -0.23287408021E+03  0.23870238210E+03  0.10000000000E+01 0.  0.
         -4    1    1    2    0  502  0.23309043961E+02 -0.11744432302E+02 -0.70187880942E+02  0.74894557557E+02  0.12700000000E+01 0.  1.
<mgrwt>
<rscale>  1 0.12769908E+03</rscale>
<asrwt>0</asrwt>
<pdfrwt beam="1">  1       21 0.17448624E-02 0.12769908E+03</pdfrwt>
<pdfrwt beam="2">  1       -4 0.80938948E-01 0.12769908E+03</pdfrwt>
<totfact> 0.84765136E+04</totfact>
</mgrwt>
</event>
<event>
 6    4  0.6195789E-003  0.1308014E+03  0.7818608E-02  0.1226271E+00
         21   -1    0    0  501  502  0.00000000000E+00  0.00000000000E+00  0.33646969981E+02  0.33646969981E+02  0.00000000000E+00 0. -1.
          4   -1    0    0  502    0 -0.00000000000E+00 -0.00000000000E+00 -0.23755413784E+03  0.23755753262E+03  0.12700000000E+01 0. -1.
         25    2    1    2    0    0  0.36540564606E+02  0.12231820767E+02 -0.18904476218E+03  0.22988460058E+03  0.12499670865E+03 0.  0.
    9000005    1    3    3    0    0  0.36437013956E+02  0.10406562714E+02  0.28168508689E+01  0.38011671660E+02  0.10000000000E+01 0.  0.
    9000005    1    3    3    0    0  0.10355064966E+00  0.18252580530E+01 -0.19186161305E+03  0.19187292892E+03  0.10000000000E+01 0.  0.
          4    1    1    2  501    0 -0.36540564606E+02 -0.12231820767E+02 -0.14862405683E+02  0.41319902029E+02  0.12700000000E+01 0.  1.
<mgrwt>
<rscale>  1 0.13080140E+03</rscale>
<asrwt>0</asrwt>
<pdfrwt beam="1">  1       21 0.51764568E-02 0.13080140E+03</pdfrwt>
<pdfrwt beam="2">  1        4 0.36548896E-01 0.13080140E+03</pdfrwt>
<totfact> 0.73865558E+04</totfact>
</mgrwt>
</event>
<event>
 6    4  0.6195789E-003  0.1390328E+03  0.7818608E-02  0.1214636E+00
         21   -1    0    0  501  502  0.00000000000E+00  0.00000000000E+00  0.21627794570E+02  0.21627794570E+02  0.00000000000E+00 0.  1.
         -4   -1    0    0    0  501 -0.00000000000E+00 -0.00000000000E+00 -0.15463177965E+04  0.15463183180E+04  0.12700000000E+01 0. -1.
         25    2    1    2    0    0  0.55439773588E+02 -0.25138528895E+02 -0.14927125710E+04  0.14991734209E+04  0.12499844894E+03 0.  0.
    9000005    1    3    3    0    0  0.71189324329E+02 -0.64772758941E+02 -0.10625737158E+04  0.10669242390E+04  0.10000000000E+01 0.  0.
    9000005    1    3    3    0    0 -0.15749550740E+02  0.39634230045E+02 -0.43013885514E+03  0.43224918189E+03  0.10000000000E+01 0.  0.
         -4    1    1    2    0  502 -0.55439773588E+02  0.25138528895E+02 -0.31977430909E+02  0.68772691659E+02  0.12700000000E+01 0.  1.
<mgrwt>
<rscale>  1 0.13903282E+03</rscale>
<asrwt>0</asrwt>
<pdfrwt beam="1">  1       21 0.33273519E-02 0.13903282E+03</pdfrwt>
<pdfrwt beam="2">  1       -4 0.23789803E+00 0.13903282E+03</pdfrwt>
<totfact> 0.19035741E+03</totfact>
</mgrwt>
</event>
<event>
 6    4  0.6195789E-003  0.1338859E+03  0.7818608E-02  0.1221801E+00
         21   -1    0    0  501  502  0.00000000000E+00  0.00000000000E+00  0.76734994643E+02  0.76734994643E+02  0.00000000000E+00 0.  1.
          4   -1    0    0  502    0 -0.00000000000E+00 -0.00000000000E+00 -0.12351348805E+03  0.12352001712E+03  0.12700000000E+01 0.  1.
         25    2    1    2    0    0  0.42789188738E+02  0.21660048539E+02 -0.65132474906E+02  0.14888815559E+03  0.12500148484E+03 0.  0.
    9000005    1    3    3    0    0  0.43584560213E+02  0.50668061744E+02 -0.88997366343E+02  0.11130317869E+03  0.10000000000E+01 0.  0.
    9000005    1    3    3    0    0 -0.79537147520E+00 -0.29008013204E+02  0.23864891437E+02  0.37584976907E+02  0.10000000000E+01 0.  0.
          4    1    1    2  501    0 -0.42789188738E+02 -0.21660048539E+02  0.18353981504E+02  0.51366856168E+02  0.12700000000E+01 0. -1.
<mgrwt>
<rscale>  1 0.13388593E+03</rscale>
<asrwt>0</asrwt>
<pdfrwt beam="1">  1       21 0.11805384E-01 0.13388593E+03</pdfrwt>
<pdfrwt beam="2">  1        4 0.19003386E-01 0.13388593E+03</pdfrwt>
<totfact> 0.60345957E+04</totfact>
</mgrwt>
</event>
<event>
 6    4  0.6195789E-003  0.1339020E+03  0.7818608E-02  0.1221778E+00
         21   -1    0    0  501  502  0.00000000000E+00  0.00000000000E+00  0.18661772535E+02  0.18661772535E+02  0.00000000000E+00 0.  1.
         -4   -1    0    0    0  501 -0.00000000000E+00 -0.00000000000E+00 -0.48768288066E+03  0.48768453429E+03  0.12700000000E+01 0. -1.
         25    2    1    2    0    0 -0.28149316379E+02  0.38935054345E+02 -0.40314894896E+03  0.42480443585E+03  0.12498564398E+03 0.  0.
    9000005    1    3    3    0    0  0.13083330586E+02  0.27266542443E+01  0.39898394708E+01  0.13983096996E+02  0.10000000000E+01 0.  0.
    9000005    1    3    3    0    0 -0.41232646965E+02  0.36208400101E+02 -0.40713878843E+03  0.41082133885E+03  0.10000000000E+01 0.  0.
         -4    1    1    2    0  502  0.28149316379E+02 -0.38935054345E+02 -0.65872159167E+02  0.81541870979E+02  0.12700000000E+01 0.  1.
<mgrwt>
<rscale>  1 0.13390196E+03</rscale>
<asrwt>0</asrwt>
<pdfrwt beam="1">  1       21 0.28710419E-02 0.13390196E+03</pdfrwt>
<pdfrwt beam="2">  1       -4 0.75031587E-01 0.13390196E+03</pdfrwt>
<totfact> 0.44956046E+04</totfact>
</mgrwt>
</event>
<event>
 6    4  0.6195789E-003  0.2508254E+03  0.7818608E-02  0.1112784E+00
         21   -1    0    0  501  502  0.00000000000E+00  0.00000000000E+00  0.38189270431E+03  0.38189270431E+03  0.00000000000E+00 0. -1.
          4   -1    0    0  502    0 -0.00000000000E+00 -0.00000000000E+00 -0.18774204799E+03  0.18774634346E+03  0.12700000000E+01 0.  1.
         25    2    1    2    0    0  0.16961733694E+03  0.13608178949E+03 -0.35545836802E+02  0.25333162409E+03  0.12500044331E+03 0.  0.
    9000005    1    3    3    0    0  0.96254040098E+02  0.70414375825E+02  0.43617251289E+02  0.12699011445E+03  0.10000000000E+01 0.  0.
    9000005    1    3    3    0    0  0.73363296843E+02  0.65667413665E+02 -0.79163088091E+02  0.12634150964E+03  0.10000000000E+01 0.  0.
          4    1    1    2  501    0 -0.16961733694E+03 -0.13608178949E+03  0.22969649313E+03  0.31630742368E+03  0.12700000000E+01 0. -1.
<mgrwt>
<rscale>  1 0.25082545E+03</rscale>
<asrwt>0</asrwt>
<pdfrwt beam="1">  1       21 0.58752724E-01 0.25082545E+03</pdfrwt>
<pdfrwt beam="2">  1        4 0.28883885E-01 0.25082545E+03</pdfrwt>
<totfact> 0.13022384E+03</totfact>
</mgrwt>
</event>
<event>
 6    4  0.6195789E-003  0.1271829E+03  0.7818608E-02  0.1231697E+00
         21   -1    0    0  501  502  0.00000000000E+00  0.00000000000E+00  0.71863923591E+03  0.71863923591E+03  0.00000000000E+00 0. -1.
         -4   -1    0    0    0  501 -0.00000000000E+00 -0.00000000000E+00 -0.11125629658E+02  0.11197880839E+02  0.12700000000E+01 0.  1.
         25    2    1    2    0    0 -0.12412462655E+02 -0.19924665181E+02  0.36511121843E+03  0.38662862385E+03  0.12499771776E+03 0.  0.
    9000005    1    3    3    0    0 -0.49128585444E+02 -0.10802745864E+02  0.33362660872E+03  0.33739892008E+03  0.10000000000E+01 0.  0.
    9000005    1    3    3    0    0  0.36716122788E+02 -0.91219193167E+01  0.31484609709E+02  0.49229703769E+02  0.10000000000E+01 0.  0.
         -4    1    1    2    0  502  0.12412462655E+02  0.19924665181E+02  0.34240238783E+03  0.34320849290E+03  0.12700000000E+01 0. -1.
<mgrwt>
<rscale>  1 0.12718290E+03</rscale>
<asrwt>0</asrwt>
<pdfrwt beam="1">  1       21 0.11055985E+00 0.12718290E+03</pdfrwt>
<pdfrwt beam="2">  1       -4 0.17172800E-02 0.12718290E+03</pdfrwt>
<totfact> 0.33968004E+04</totfact>
</mgrwt>
</event>
<event>
 6    4  0.6195789E-003  0.1270454E+03  0.7818608E-02  0.1231907E+00
         21   -1    0    0  501  502  0.00000000000E+00  0.00000000000E+00  0.96722729505E+03  0.96722729505E+03  0.00000000000E+00 0. -1.
          4   -1    0    0  502    0 -0.00000000000E+00 -0.00000000000E+00 -0.57321119927E+01  0.58711164097E+01  0.12700000000E+01 0. -1.
         25    2    1    2    0    0 -0.30843030569E+01  0.22488670505E+02  0.80680445853E+03  0.81674596863E+03  0.12500115892E+03 0.  0.
    9000005    1    3    3    0    0 -0.38169647159E+02  0.60457658438E+02  0.56270586620E+03  0.56723094263E+03  0.10000000000E+01 0.  0.
    9000005    1    3    3    0    0  0.35085344102E+02 -0.37968987934E+02  0.24409859234E+03  0.24951502600E+03  0.10000000000E+01 0.  0.
          4    1    1    2  501    0  0.30843030569E+01 -0.22488670505E+02  0.15469072453E+03  0.15635244284E+03  0.12700000000E+01 0.  1.
<mgrwt>
<rscale>  1 0.12704544E+03</rscale>
<asrwt>0</asrwt>
<pdfrwt beam="1">  1       21 0.14880407E+00 0.12704544E+03</pdfrwt>
<pdfrwt beam="2">  1        4 0.89262093E-03 0.12704544E+03</pdfrwt>
<totfact> 0.43762785E+04</totfact>
</mgrwt>
</event>
<event>
 6    4  0.6195789E-003  0.1281308E+03  0.7818608E-02  0.1230256E+00
         -4   -1    0    0    0  501 -0.00000000000E+00  0.00000000000E+00  0.19868384008E+03  0.19868789900E+03  0.12700000000E+01 0.  1.
         21   -1    0    0  501  502  0.00000000000E+00 -0.00000000000E+00 -0.31068107602E+02  0.31068107602E+02  0.00000000000E+00 0.  1.
         25    2    1    2    0    0  0.58870453435E+01  0.27539110508E+02  0.14586926246E+03  0.19415289201E+03  0.12499777532E+03 0.  0.
    9000005    1    3    3    0    0 -0.69365516221E+01  0.17300569106E+02 -0.20065753747E+02  0.27405472323E+02  0.10000000000E+01 0.  0.
    9000005    1    3    3    0    0  0.12823596966E+02  0.10238541401E+02  0.16593501621E+03  0.16674741969E+03  0.10000000000E+01 0.  0.
         -4    1    1    2    0  502 -0.58870453435E+01 -0.27539110508E+02  0.21746470021E+02  0.35603114594E+02  0.12700000000E+01 0. -1.
<mgrwt>
<rscale>  1 0.12813081E+03</rscale>
<asrwt>0</asrwt>
<pdfrwt beam="2">  1       21 0.47797090E-02 0.12813081E+03</pdfrwt>
<pdfrwt beam="1">  1       -4 0.30569053E-01 0.12813081E+03</pdfrwt>
<totfact> 0.11856324E+05</totfact>
</mgrwt>
</event>
<event>
 6    4  0.6195789E-003  0.1274556E+03  0.7818608E-02  0.1231281E+00
         21   -1    0    0  501  502  0.00000000000E+00  0.00000000000E+00  0.17974258246E+02  0.17974258246E+02  0.00000000000E+00 0. -1.
         -4   -1    0    0    0  501 -0.00000000000E+00 -0.00000000000E+00 -0.32439031035E+03  0.32439279639E+03  0.12700000000E+01 0. -1.
         25    2    1    2    0    0  0.92998611679E+00 -0.25039592560E+02 -0.24963638267E+03  0.28029137638E+03  0.12496834019E+03 0.  0.
    9000005    1    3    3    0    0  0.48493796297E+01  0.91708826417E+01 -0.24535649781E+03  0.24557775264E+03  0.10000000000E+01 0.  0.
    9000005    1    3    3    0    0 -0.39193935129E+01 -0.34210475202E+02 -0.42798848578E+01  0.34713623744E+02  0.10000000000E+01 0.  0.
         -4    1    1    2    0  502 -0.92998611679E+00  0.25039592560E+02 -0.56779669434E+02  0.62075678255E+02  0.12700000000E+01 0.  1.
<mgrwt>
<rscale>  1 0.12745561E+03</rscale>
<asrwt>0</asrwt>
<pdfrwt beam="1">  1       21 0.27652705E-02 0.12745561E+03</pdfrwt>
<pdfrwt beam="2">  1       -4 0.49909844E-01 0.12745561E+03</pdfrwt>
<totfact> 0.11204992E+05</totfact>
</mgrwt>
</event>
<event>
 6    4  0.6195789E-003  0.1296367E+03  0.7818608E-02  0.1227996E+00
         21   -1    0    0  501  502  0.00000000000E+00  0.00000000000E+00  0.21409638543E+02  0.21409638543E+02  0.00000000000E+00 0. -1.
          4   -1    0    0  502    0 -0.00000000000E+00 -0.00000000000E+00 -0.56924491906E+03  0.56924633576E+03  0.12700000000E+01 0.  1.
         25    2    1    2    0    0  0.30372683271E+02 -0.16048239639E+02 -0.54007484284E+03  0.55541561140E+03  0.12500247851E+03 0.  0.
    9000005    1    3    3    0    0  0.32856535600E+02  0.51778207705E+02 -0.23397540188E+03  0.24188018399E+03  0.10000000000E+01 0.  0.
    9000005    1    3    3    0    0 -0.24838523298E+01 -0.67826447343E+02 -0.30609944096E+03  0.31353542741E+03  0.10000000000E+01 0.  0.
          4    1    1    2  501    0 -0.30372683271E+02  0.16048239639E+02 -0.77604376779E+01  0.35240362903E+02  0.12700000000E+01 0. -1.
<mgrwt>
<rscale>  1 0.12963667E+03</rscale>
<asrwt>0</asrwt>
<pdfrwt beam="1">  1       21 0.32937910E-02 0.12963667E+03</pdfrwt>
<pdfrwt beam="2">  1        4 0.87579137E-01 0.12963667E+03</pdfrwt>
<totfact> 0.25370856E+04</totfact>
</mgrwt>
</event>
<event>
 6    4  0.6195789E-003  0.1271144E+03  0.7818608E-02  0.1231801E+00
         21   -1    0    0  501  502  0.00000000000E+00  0.00000000000E+00  0.72023526827E+01  0.72023526827E+01  0.00000000000E+00 0.  1.
          4   -1    0    0  502    0 -0.00000000000E+00 -0.00000000000E+00 -0.81888432529E+03  0.81888531010E+03  0.12700000000E+01 0.  1.
         25    2    1    2    0    0 -0.22501119310E+02 -0.51847559679E+01 -0.61134396265E+03  0.62441933806E+03  0.12499954804E+03 0.  0.
    9000005    1    3    3    0    0  0.74872352010E+01 -0.58805601805E+02 -0.39840580783E+03  0.40279317920E+03  0.10000000000E+01 0.  0.
    9000005    1    3    3    0    0 -0.29988354511E+02  0.53620845837E+02 -0.21293815482E+03  0.22162615886E+03  0.10000000000E+01 0.  0.
          4    1    1    2  501    0  0.22501119310E+02  0.51847559679E+01 -0.20033800995E+03  0.20166832472E+03  0.12700000000E+01 0. -1.
<mgrwt>
<rscale>  1 0.12711439E+03</rscale>
<asrwt>0</asrwt>
<pdfrwt beam="1">  1       21 0.11080540E-02 0.12711439E+03</pdfrwt>
<pdfrwt beam="2">  1        4 0.12599092E+00 0.12711439E+03</pdfrwt>
<totfact> 0.62701321E+04</totfact>
</mgrwt>
</event>
<event>
 6    4  0.6195789E-003  0.1659806E+03  0.7818608E-02  0.1182105E+00
         21   -1    0    0  501  502  0.00000000000E+00  0.00000000000E+00  0.17073726319E+02  0.17073726319E+02  0.00000000000E+00 0. -1.
          4   -1    0    0  502    0 -0.00000000000E+00 -0.00000000000E+00 -0.21375150442E+04  0.21375154215E+04  0.12700000000E+01 0.  1.
         25    2    1    2    0    0 -0.10438495031E+03 -0.32057115165E+02 -0.19127493398E+04  0.19199373907E+04  0.12500268216E+03 0.  0.
    9000005    1    3    3    0    0 -0.92151336380E+01  0.13334035888E+01 -0.74403885808E+01  0.11960603468E+02  0.10000000000E+01 0.  0.
    9000005    1    3    3    0    0 -0.95169816676E+02 -0.33390518754E+02 -0.19053089513E+04  0.19079767872E+04  0.10000000000E+01 0.  0.
          4    1    1    2  501    0  0.10438495031E+03  0.32057115165E+02 -0.20769197807E+03  0.23465175716E+03  0.12700000000E+01 0. -1.
<mgrwt>
<rscale>  1 0.16598056E+03</rscale>
<asrwt>0</asrwt>
<pdfrwt beam="1">  1       21 0.26267284E-02 0.16598056E+03</pdfrwt>
<pdfrwt beam="2">  1        4 0.32885197E+00 0.16598056E+03</pdfrwt>
<totfact> 0.83152437E+02</totfact>
</mgrwt>
</event>
<event>
 6    4  0.6195789E-003  0.1273146E+03  0.7818608E-02  0.1231496E+00
         21   -1    0    0  501  502  0.00000000000E+00  0.00000000000E+00  0.52249400081E+02  0.52249400081E+02  0.00000000000E+00 0.  1.
          4   -1    0    0  502    0 -0.00000000000E+00 -0.00000000000E+00 -0.11108479617E+03  0.11109205570E+03  0.12700000000E+01 0.  1.
         25    2    1    2    0    0  0.14510368455E+02  0.19351520533E+02 -0.55524025181E+02  0.13889538827E+03  0.12499591741E+03 0.  0.
    9000005    1    3    3    0    0  0.12632716239E+02 -0.24274175242E+02 -0.82928527638E+02  0.87332478492E+02  0.10000000000E+01 0.  0.
    9000005    1    3    3    0    0  0.18776522163E+01  0.43625695774E+02  0.27404502457E+02  0.51562909776E+02  0.10000000000E+01 0.  0.
          4    1    1    2  501    0 -0.14510368455E+02 -0.19351520533E+02 -0.33113709062E+01  0.24446067514E+02  0.12700000000E+01 0. -1.
<mgrwt>
<rscale>  1 0.12731462E+03</rscale>
<asrwt>0</asrwt>
<pdfrwt beam="1">  1       21 0.80383694E-02 0.12731462E+03</pdfrwt>
<pdfrwt beam="2">  1        4 0.17091714E-01 0.12731462E+03</pdfrwt>
<totfact> 0.14158540E+05</totfact>
</mgrwt>
</event>
<event>
 6    4  0.6195789E-003  0.1313777E+03  0.7818608E-02  0.1225426E+00
         21   -1    0    0  501  502  0.00000000000E+00  0.00000000000E+00  0.88226994772E+02  0.88226994772E+02  0.00000000000E+00 0.  1.
         -4   -1    0    0    0  501 -0.00000000000E+00 -0.00000000000E+00 -0.89071234288E+02  0.89080287817E+02  0.12700000000E+01 0.  1.
         25    2    1    2    0    0 -0.25939235819E+02  0.31038151117E+02  0.18107298800E+02  0.13261965025E+03  0.12499554625E+03 0.  0.
    9000005    1    3    3    0    0  0.48006930060E+02  0.18858798838E+02 -0.10046487124E+02  0.52557126357E+02  0.10000000000E+01 0.  0.
    9000005    1    3    3    0    0 -0.73946165879E+02  0.12179352279E+02  0.28153785924E+02  0.80062523892E+02  0.10000000000E+01 0.  0.
         -4    1    1    2    0  502  0.25939235819E+02 -0.31038151117E+02 -0.18951538316E+02  0.44687632341E+02  0.12700000000E+01 0. -1.
<mgrwt>
<rscale>  1 0.13137769E+03</rscale>
<asrwt>0</asrwt>
<pdfrwt beam="1">  1       21 0.13573384E-01 0.13137769E+03</pdfrwt>
<pdfrwt beam="2">  1       -4 0.13704666E-01 0.13137769E+03</pdfrwt>
<totfact> 0.83424327E+04</totfact>
</mgrwt>
</event>
<event>
 6    4  0.6195789E-003  0.1266002E+03  0.7818608E-02  0.1232589E+00
         21   -1    0    0  501  502  0.00000000000E+00  0.00000000000E+00  0.13025372207E+02  0.13025372207E+02  0.00000000000E+00 0.  1.
         -4   -1    0    0    0  501 -0.00000000000E+00 -0.00000000000E+00 -0.43604383406E+03  0.43604568352E+03  0.12700000000E+01 0.  1.
         25    2    1    2    0    0  0.16546551070E+02 -0.11324895651E+02 -0.32041568782E+03  0.34451971067E+03  0.12500230570E+03 0.  0.
    9000005    1    3    3    0    0  0.53934851049E+02 -0.18177937300E+02 -0.65481483191E+02  0.86765374448E+02  0.10000000000E+01 0.  0.
    9000005    1    3    3    0    0 -0.37388299978E+02  0.68530416496E+01 -0.25493420463E+03  0.25775433623E+03  0.10000000000E+01 0.  0.
         -4    1    1    2    0  502 -0.16546551070E+02  0.11324895651E+02 -0.10260277403E+03  0.10455134505E+03  0.12700000000E+01 0. -1.
<mgrwt>
<rscale>  1 0.12660023E+03</rscale>
<asrwt>0</asrwt>
<pdfrwt beam="1">  1       21 0.20039033E-02 0.12660023E+03</pdfrwt>
<pdfrwt beam="2">  1       -4 0.67088576E-01 0.12660023E+03</pdfrwt>
<totfact> 0.10190775E+05</totfact>
</mgrwt>
</event>
<event>
 6    4  0.6195789E-003  0.1391186E+03  0.7818608E-02  0.1214520E+00
         -4   -1    0    0    0  501 -0.00000000000E+00  0.00000000000E+00  0.68925039416E+02  0.68936738816E+02  0.12700000000E+01 0.  1.
         21   -1    0    0  501  502  0.00000000000E+00 -0.00000000000E+00 -0.54867132807E+03  0.54867132807E+03  0.00000000000E+00 0. -1.
         25    2    1    2    0    0 -0.10458446051E+02 -0.60160382062E+02 -0.52714874496E+01  0.13921847613E+03  0.12500137940E+03 0.  0.
    9000005    1    3    3    0    0 -0.41285931403E+02 -0.80103127644E+02  0.22833382567E+02  0.92969901310E+02  0.10000000000E+01 0.  0.
    9000005    1    3    3    0    0  0.30827485352E+02  0.19942745581E+02 -0.28104870016E+02  0.46248574822E+02  0.10000000000E+01 0.  0.
         -4    1    1    2    0  502  0.10458446051E+02  0.60160382062E+02 -0.47447480121E+03  0.47838959076E+03  0.12700000000E+01 0. -1.
<mgrwt>
<rscale>  1 0.13911864E+03</rscale>
<asrwt>0</asrwt>
<pdfrwt beam="2">  1       21 0.84410977E-01 0.13911864E+03</pdfrwt>
<pdfrwt beam="1">  1       -4 0.10604865E-01 0.13911864E+03</pdfrwt>
<totfact> 0.34814019E+03</totfact>
</mgrwt>
</event>
<event>
 6    4  0.6195789E-003  0.1361925E+03  0.7818608E-02  0.1218546E+00
         -4   -1    0    0    0  501 -0.00000000000E+00  0.00000000000E+00  0.68813215625E+03  0.68813332819E+03  0.12700000000E+01 0. -1.
         21   -1    0    0  501  502  0.00000000000E+00 -0.00000000000E+00 -0.18163241497E+02  0.18163241497E+02  0.00000000000E+00 0. -1.
         25    2    1    2    0    0  0.42402726298E+02  0.33534072938E+02  0.61220660188E+03  0.62717247137E+03  0.12500344083E+03 0.  0.
    9000005    1    3    3    0    0 -0.21003279495E+02 -0.34788873393E+02  0.13673618097E+03  0.14265057535E+03  0.10000000000E+01 0.  0.
    9000005    1    3    3    0    0  0.63406005793E+02  0.68322946331E+02  0.47547042091E+03  0.48452189603E+03  0.10000000000E+01 0.  0.
         -4    1    1    2    0  502 -0.42402726298E+02 -0.33534072938E+02  0.57762312873E+02  0.79124098312E+02  0.12700000000E+01 0.  1.
<mgrwt>
<rscale>  1 0.13619246E+03</rscale>
<asrwt>0</asrwt>
<pdfrwt beam="2">  1       21 0.27943454E-02 0.13619246E+03</pdfrwt>
<pdfrwt beam="1">  1       -4 0.10586997E+00 0.13619246E+03</pdfrwt>
<totfact> 0.21635154E+04</totfact>
</mgrwt>
</event>
<event>
 6    4  0.6195789E-003  0.1282063E+03  0.7818608E-02  0.1230142E+00
         21   -1    0    0  501  502  0.00000000000E+00  0.00000000000E+00  0.83344247575E+03  0.83344247575E+03  0.00000000000E+00 0.  1.
         -4   -1    0    0    0  501 -0.00000000000E+00 -0.00000000000E+00 -0.16910231489E+02  0.16957854493E+02  0.12700000000E+01 0. -1.
         25    2    1    2    0    0  0.28428118147E+02  0.14351633359E+01  0.23114123988E+03  0.26431632730E+03  0.12500652186E+03 0.  0.
    9000005    1    3    3    0    0  0.58805217333E+02 -0.37800696060E+02  0.17976987340E+03  0.19288637481E+03  0.10000000000E+01 0.  0.
    9000005    1    3    3    0    0 -0.30377099185E+02  0.39235859396E+02  0.51371366481E+02  0.71429952482E+02  0.10000000000E+01 0.  0.
         -4    1    1    2    0  502 -0.28428118147E+02 -0.14351633359E+01  0.58539100439E+03  0.58608400295E+03  0.12700000000E+01 0.  1.
<mgrwt>
<rscale>  1 0.12820627E+03</rscale>
<asrwt>0</asrwt>
<pdfrwt beam="1">  1       21 0.12822189E+00 0.12820627E+03</pdfrwt>
<pdfrwt beam="2">  1       -4 0.26053125E-02 0.12820627E+03</pdfrwt>
<totfact> 0.12462202E+04</totfact>
</mgrwt>
</event>
<event>
 6    4  0.6195789E-003  0.1272660E+03  0.7818608E-02  0.1231570E+00
         21   -1    0    0  501  502  0.00000000000E+00  0.00000000000E+00  0.25541837416E+02  0.25541837416E+02  0.00000000000E+00 0.  1.
          4   -1    0    0  502    0 -0.00000000000E+00 -0.00000000000E+00 -0.36644120713E+03  0.36644340789E+03  0.12700000000E+01 0. -1.
         25    2    1    2    0    0 -0.23663127982E+02  0.34198601067E+01 -0.34497198955E+03  0.36769866050E+03  0.12499996918E+03 0.  0.
    9000005    1    3    3    0    0  0.21357420120E+02  0.26094405155E+02 -0.20805744284E+02  0.39635039672E+02  0.10000000000E+01 0.  0.
    9000005    1    3    3    0    0 -0.45020548102E+02 -0.22674545048E+02 -0.32416624526E+03  0.32806362083E+03  0.10000000000E+01 0.  0.
          4    1    1    2  501    0  0.23663127982E+02 -0.34198601067E+01  0.40726198308E+01  0.24286584802E+02  0.12700000000E+01 0.  1.
<mgrwt>
<rscale>  1 0.12726599E+03</rscale>
<asrwt>0</asrwt>
<pdfrwt beam="1">  1       21 0.39295138E-02 0.12726599E+03</pdfrwt>
<pdfrwt beam="2">  1        4 0.56378164E-01 0.12726599E+03</pdfrwt>
<totfact> 0.48907736E+04</totfact>
</mgrwt>
</event>
<event>
 6    4  0.6195789E-003  0.1422473E+03  0.7818608E-02  0.1210337E+00
         -4   -1    0    0    0  501 -0.00000000000E+00  0.00000000000E+00  0.30341497985E+02  0.30368065463E+02  0.12700000000E+01 0. -1.
         21   -1    0    0  501  502  0.00000000000E+00 -0.00000000000E+00 -0.11432777759E+04  0.11432777759E+04  0.00000000000E+00 0.  1.
         25    2    1    2    0    0  0.19029197136E+02  0.65147473651E+02 -0.14426789002E+03  0.20260188650E+03  0.12501198605E+03 0.  0.
    9000005    1    3    3    0    0 -0.28927395090E+02 -0.23454309201E+02 -0.62860991691E+02  0.73071219253E+02  0.10000000000E+01 0.  0.
    9000005    1    3    3    0    0  0.47956592226E+02  0.88601782852E+02 -0.81406898332E+02  0.12953066725E+03  0.10000000000E+01 0.  0.
         -4    1    1    2    0  502 -0.19029197136E+02 -0.65147473651E+02 -0.96866838791E+03  0.97104395487E+03  0.12700000000E+01 0.  1.
<mgrwt>
<rscale>  1 0.14224732E+03</rscale>
<asrwt>0</asrwt>
<pdfrwt beam="2">  1       21 0.17588887E+00 0.14224732E+03</pdfrwt>
<pdfrwt beam="1">  1       -4 0.46700213E-02 0.14224732E+03</pdfrwt>
<totfact> 0.21858778E+03</totfact>
</mgrwt>
</event>
<event>
 6    4  0.6195789E-003  0.1275450E+03  0.7818608E-02  0.1231145E+00
         21   -1    0    0  501  502  0.00000000000E+00  0.00000000000E+00  0.10545026915E+03  0.10545026915E+03  0.00000000000E+00 0.  1.
          4   -1    0    0  502    0 -0.00000000000E+00 -0.00000000000E+00 -0.56183091796E+02  0.56197443926E+02  0.12700000000E+01 0.  1.
         25    2    1    2    0    0  0.24023719312E+02 -0.80864985580E+01  0.47859487648E+02  0.13622872335E+03  0.12500081583E+03 0.  0.
    9000005    1    3    3    0    0  0.26102713451E+02 -0.51695784863E+02  0.66985090233E+02  0.88553984301E+02  0.10000000000E+01 0.  0.
    9000005    1    3    3    0    0 -0.20789941385E+01  0.43609286305E+02 -0.19125602585E+02  0.47674739044E+02  0.10000000000E+01 0.  0.
          4    1    1    2  501    0 -0.24023719312E+02  0.80864985580E+01  0.14076897036E+01  0.25418989729E+02  0.12700000000E+01 0. -1.
<mgrwt>
<rscale>  1 0.12754503E+03</rscale>
<asrwt>0</asrwt>
<pdfrwt beam="1">  1       21 0.16223118E-01 0.12754503E+03</pdfrwt>
<pdfrwt beam="2">  1        4 0.86452449E-02 0.12754503E+03</pdfrwt>
<totfact> 0.13158921E+05</totfact>
</mgrwt>
</event>
<event>
 6    4  0.6195789E-003  0.1280562E+03  0.7818608E-02  0.1230369E+00
         21   -1    0    0  501  502  0.00000000000E+00  0.00000000000E+00  0.27476908130E+03  0.27476908130E+03  0.00000000000E+00 0. -1.
          4   -1    0    0  502    0 -0.00000000000E+00 -0.00000000000E+00 -0.43033604729E+02  0.43052340656E+02  0.12700000000E+01 0.  1.
         25    2    1    2    0    0  0.18786707023E+02  0.20509901666E+02  0.55781361206E+02  0.13967805261E+03  0.12499920678E+03 0.  0.
    9000005    1    3    3    0    0  0.26033815745E+02  0.71632148410E+02  0.36971660112E+02  0.84716160794E+02  0.10000000000E+01 0.  0.
    9000005    1    3    3    0    0 -0.72471087221E+01 -0.51122246745E+02  0.18809701094E+02  0.54961891819E+02  0.10000000000E+01 0.  0.
          4    1    1    2  501    0 -0.18786707023E+02 -0.20509901666E+02  0.17595411536E+03  0.17814336934E+03  0.12700000000E+01 0. -1.
<mgrwt>
<rscale>  1 0.12805623E+03</rscale>
<asrwt>0</asrwt>
<pdfrwt beam="1">  1       21 0.42272165E-01 0.12805623E+03</pdfrwt>
<pdfrwt beam="2">  1        4 0.66222217E-02 0.12805623E+03</pdfrwt>
<totfact> 0.32992394E+04</totfact>
</mgrwt>
</event>
<event>
 6    4  0.6195789E-003  0.1346258E+03  0.7818608E-02  0.1220749E+00
         21   -1    0    0  501  502  0.00000000000E+00  0.00000000000E+00  0.18544057248E+02  0.18544057248E+02  0.00000000000E+00 0. -1.
         -4   -1    0    0    0  501 -0.00000000000E+00 -0.00000000000E+00 -0.46114973685E+03  0.46115148563E+03  0.12700000000E+01 0.  1.
         25    2    1    2    0    0  0.49895262955E+02 -0.33881465674E+01 -0.31017974449E+03  0.33813545671E+03  0.12499238535E+03 0.  0.
    9000005    1    3    3    0    0  0.16669077924E+02  0.16499625603E+02  0.20010708182E+01  0.23560562139E+02  0.10000000000E+01 0.  0.
    9000005    1    3    3    0    0  0.33226185031E+02 -0.19887772171E+02 -0.31218081530E+03  0.31457489458E+03  0.10000000000E+01 0.  0.
         -4    1    1    2    0  502 -0.49895262955E+02  0.33881465674E+01 -0.13242593511E+03  0.14156008616E+03  0.12700000000E+01 0. -1.
<mgrwt>
<rscale>  1 0.13462583E+03</rscale>
<asrwt>0</asrwt>
<pdfrwt beam="1">  1       21 0.28529319E-02 0.13462583E+03</pdfrwt>
<pdfrwt beam="2">  1       -4 0.70949593E-01 0.13462583E+03</pdfrwt>
<totfact> 0.51331116E+04</totfact>
</mgrwt>
</event>
<event>
 6    4  0.6195789E-003  0.1332044E+03  0.7818608E-02  0.1222777E+00
         21   -1    0    0  501  502  0.00000000000E+00  0.00000000000E+00  0.12415948479E+03  0.12415948479E+03  0.00000000000E+00 0.  1.
         -4   -1    0    0    0  501 -0.00000000000E+00 -0.00000000000E+00 -0.67327674682E+02  0.67339651603E+02  0.12700000000E+01 0.  1.
         25    2    1    2    0    0  0.45759858033E+02 -0.50851981610E+01  0.58329424780E+02  0.14541573811E+03  0.12499436487E+03 0.  0.
    9000005    1    3    3    0    0  0.42422299571E+02  0.53638274027E+02  0.52657014963E+02  0.86316146614E+02  0.10000000000E+01 0.  0.
    9000005    1    3    3    0    0  0.33375584623E+01 -0.58723472188E+02  0.56724098174E+01  0.59099591500E+02  0.10000000000E+01 0.  0.
         -4    1    1    2    0  502 -0.45759858033E+02  0.50851981610E+01 -0.14976146691E+01  0.46083398282E+02  0.12700000000E+01 0. -1.
<mgrwt>
<rscale>  1 0.13320441E+03</rscale>
<asrwt>0</asrwt>
<pdfrwt beam="1">  1       21 0.19101459E-01 0.13320441E+03</pdfrwt>
<pdfrwt beam="2">  1       -4 0.10359525E-01 0.13320441E+03</pdfrwt>
<totfact> 0.72521467E+04</totfact>
</mgrwt>
</event>
<event>
 6    4  0.6195789E-003  0.1465386E+03  0.7818608E-02  0.1204792E+00
         21   -1    0    0  501  502  0.00000000000E+00  0.00000000000E+00  0.13979377194E+04  0.13979377194E+04  0.00000000000E+00 0.  1.
         -4   -1    0    0    0  501 -0.00000000000E+00 -0.00000000000E+00 -0.35321291887E+02  0.35344116350E+02  0.12700000000E+01 0. -1.
         25    2    1    2    0    0 -0.69648609323E+02 -0.31569439554E+02  0.12302703012E+03  0.19133536133E+03  0.12500404818E+03 0.  0.
    9000005    1    3    3    0    0 -0.61350410567E+02  0.35724767767E+02  0.32134794071E+02  0.77934439747E+02  0.10000000000E+01 0.  0.
    9000005    1    3    3    0    0 -0.82981987555E+01 -0.67294207321E+02  0.90892236047E+02  0.11340092158E+03  0.10000000000E+01 0.  0.
         -4    1    1    2    0  502  0.69648609323E+02  0.31569439554E+02  0.12395893974E+04  0.12419464744E+04  0.12700000000E+01 0.  1.
<mgrwt>
<rscale>  1 0.14653863E+03</rscale>
<asrwt>0</asrwt>
<pdfrwt beam="1">  1       21 0.21506730E+00 0.14653863E+03</pdfrwt>
<pdfrwt beam="2">  1       -4 0.54358461E-02 0.14653863E+03</pdfrwt>
<totfact> 0.95881586E+02</totfact>
</mgrwt>
</event>
<event>
 6    4  0.6195789E-003  0.1286167E+03  0.7818608E-02  0.1229523E+00
         21   -1    0    0  501  502  0.00000000000E+00  0.00000000000E+00  0.14975231756E+03  0.14975231756E+03  0.00000000000E+00 0. -1.
         -4   -1    0    0    0  501 -0.00000000000E+00 -0.00000000000E+00 -0.67901352117E+02  0.67913227867E+02  0.12700000000E+01 0.  1.
         25    2    1    2    0    0 -0.25769235134E+02  0.15930412802E+02 -0.18619681081E+01  0.12863016103E+03  0.12499767946E+03 0.  0.
    9000005    1    3    3    0    0 -0.66174052743E+02  0.30014927772E+02  0.26426383516E+02  0.77325641874E+02  0.10000000000E+01 0.  0.
    9000005    1    3    3    0    0  0.40404817609E+02 -0.14084514971E+02 -0.28288351624E+02  0.51304519153E+02  0.10000000000E+01 0.  0.
         -4    1    1    2    0  502  0.25769235134E+02 -0.15930412802E+02  0.83712933551E+02  0.89035384400E+02  0.12700000000E+01 0. -1.
<mgrwt>
<rscale>  1 0.12861668E+03</rscale>
<asrwt>0</asrwt>
<pdfrwt beam="1">  1       21 0.23038818E-01 0.12861668E+03</pdfrwt>
<pdfrwt beam="2">  1       -4 0.10447690E-01 0.12861668E+03</pdfrwt>
<totfact> 0.50247560E+04</totfact>
</mgrwt>
</event>
<event>
 6    4  0.6195789E-003  0.1580506E+03  0.7818608E-02  0.1190915E+00
         21   -1    0    0  501  502  0.00000000000E+00  0.00000000000E+00  0.10105946361E+04  0.10105946361E+04  0.00000000000E+00 0. -1.
          4   -1    0    0  502    0 -0.00000000000E+00 -0.00000000000E+00 -0.30133237799E+02  0.30159988731E+02  0.12700000000E+01 0.  1.
         25    2    1    2    0    0 -0.72323663319E+02  0.64218239984E+02  0.20286773503E+03  0.25716786341E+03  0.12500118971E+03 0.  0.
    9000005    1    3    3    0    0 -0.53306816622E+02  0.22834889071E+02  0.20350487933E+03  0.21160880126E+03  0.10000000000E+01 0.  0.
    9000005    1    3    3    0    0 -0.19016846697E+02  0.41383350913E+02 -0.63714430027E+00  0.45559062150E+02  0.10000000000E+01 0.  0.
          4    1    1    2  501    0  0.72323663319E+02 -0.64218239984E+02  0.77759366323E+03  0.78358676138E+03  0.12700000000E+01 0. -1.
<mgrwt>
<rscale>  1 0.15805060E+03</rscale>
<asrwt>0</asrwt>
<pdfrwt beam="1">  1       21 0.15547607E+00 0.15805060E+03</pdfrwt>
<pdfrwt beam="2">  1        4 0.46380027E-02 0.15805060E+03</pdfrwt>
<totfact> 0.30852119E+03</totfact>
</mgrwt>
</event>
<event>
 6    4  0.6195789E-003  0.1864549E+03  0.7818608E-02  0.1161698E+00
         -4   -1    0    0    0  501 -0.00000000000E+00  0.00000000000E+00  0.79376381136E+03  0.79376482735E+03  0.12700000000E+01 0. -1.
         21   -1    0    0  501  502  0.00000000000E+00 -0.00000000000E+00 -0.37915134631E+02  0.37915134631E+02  0.00000000000E+00 0.  1.
         25    2    1    2    0    0 -0.10534193141E+03 -0.89684768065E+02  0.57177467050E+03  0.60140809482E+03  0.12500057018E+03 0.  0.
    9000005    1    3    3    0    0  0.16369868326E+02  0.17351332506E+02  0.59845236249E+02  0.64432085412E+02  0.10000000000E+01 0.  0.
    9000005    1    3    3    0    0 -0.12171179974E+03 -0.10703610057E+03  0.51192943425E+03  0.53697600941E+03  0.10000000000E+01 0.  0.
         -4    1    1    2    0  502  0.10534193141E+03  0.89684768065E+02  0.18407400623E+03  0.23027186716E+03  0.12700000000E+01 0.  1.
<mgrwt>
<rscale>  1 0.18645488E+03</rscale>
<asrwt>0</asrwt>
<pdfrwt beam="2">  1       21 0.58330982E-02 0.18645488E+03</pdfrwt>
<pdfrwt beam="1">  1       -4 0.12211921E+00 0.18645488E+03</pdfrwt>
<totfact> 0.46145774E+03</totfact>
</mgrwt>
</event>
<event>
 6    4  0.6195789E-003  0.1302506E+03  0.7818608E-02  0.1227084E+00
         21   -1    0    0  501  502  0.00000000000E+00  0.00000000000E+00  0.37415561394E+02  0.37415561394E+02  0.00000000000E+00 0.  1.
         -4   -1    0    0    0  501 -0.00000000000E+00 -0.00000000000E+00 -0.19004150945E+03  0.19004575295E+03  0.12700000000E+01 0.  1.
         25    2    1    2    0    0 -0.25424314653E+01  0.36522218592E+02 -0.10455867458E+03  0.16702612519E+03  0.12499949463E+03 0.  0.
    9000005    1    3    3    0    0 -0.45125689858E+02  0.60933315489E+02 -0.85706207931E+02  0.11443666764E+03  0.10000000000E+01 0.  0.
    9000005    1    3    3    0    0  0.42583258393E+02 -0.24411096897E+02 -0.18852466649E+02  0.52589457554E+02  0.10000000000E+01 0.  0.
         -4    1    1    2    0  502  0.25424314653E+01 -0.36522218592E+02 -0.48067273473E+02  0.60435189151E+02  0.12700000000E+01 0. -1.
<mgrwt>
<rscale>  1 0.13025057E+03</rscale>
<asrwt>0</asrwt>
<pdfrwt beam="1">  1       21 0.57562403E-02 0.13025057E+03</pdfrwt>
<pdfrwt beam="2">  1       -4 0.29239139E-01 0.13025057E+03</pdfrwt>
<totfact> 0.94520142E+04</totfact>
</mgrwt>
</event>
<event>
 6    4  0.6195789E-003  0.1278658E+03  0.7818608E-02  0.1230657E+00
         -4   -1    0    0    0  501 -0.00000000000E+00  0.00000000000E+00  0.80269586914E+02  0.80279633054E+02  0.12700000000E+01 0. -1.
         21   -1    0    0  501  502  0.00000000000E+00 -0.00000000000E+00 -0.22705661405E+03  0.22705661405E+03  0.00000000000E+00 0.  1.
         25    2    1    2    0    0 -0.15895733921E+02  0.21708953630E+02  0.27658788845E+02  0.13082305032E+03  0.12500283545E+03 0.  0.
    9000005    1    3    3    0    0 -0.29344759420E+02  0.30916082575E+02 -0.41657523266E+02  0.59609297193E+02  0.10000000000E+01 0.  0.
    9000005    1    3    3    0    0  0.13449025499E+02 -0.92071289443E+01  0.69316312111E+02  0.71213753130E+02  0.10000000000E+01 0.  0.
         -4    1    1    2    0  502  0.15895733921E+02 -0.21708953630E+02 -0.17444581598E+03  0.17651319678E+03  0.12700000000E+01 0.  1.
<mgrwt>
<rscale>  1 0.12786580E+03</rscale>
<asrwt>0</asrwt>
<pdfrwt beam="2">  1       21 0.34931787E-01 0.12786580E+03</pdfrwt>
<pdfrwt beam="1">  1       -4 0.12350213E-01 0.12786580E+03</pdfrwt>
<totfact> 0.17013198E+04</totfact>
</mgrwt>
</event>
<event>
 6    4  0.6195789E-003  0.1287747E+03  0.7818608E-02  0.1229285E+00
         21   -1    0    0  501  502  0.00000000000E+00  0.00000000000E+00  0.35835961802E+02  0.35835961802E+02  0.00000000000E+00 0. -1.
          4   -1    0    0  502    0 -0.00000000000E+00 -0.00000000000E+00 -0.17803642318E+03  0.17804095281E+03  0.12700000000E+01 0. -1.
         25    2    1    2    0    0 -0.26355183623E+02 -0.16236652933E+02 -0.11429254119E+03  0.17217931863E+03  0.12499883274E+03 0.  0.
    9000005    1    3    3    0    0 -0.36041883747E+02 -0.48466821986E+02 -0.12332047386E+03  0.13732075404E+03  0.10000000000E+01 0.  0.
    9000005    1    3    3    0    0  0.96867001239E+01  0.32230169052E+02  0.90279326689E+01  0.34858564582E+02  0.10000000000E+01 0.  0.
          4    1    1    2  501    0  0.26355183623E+02  0.16236652933E+02 -0.27907920185E+02  0.41697595990E+02  0.12700000000E+01 0.  1.
<mgrwt>
<rscale>  1 0.12877474E+03</rscale>
<asrwt>0</asrwt>
<pdfrwt beam="1">  1       21 0.55132248E-02 0.12877474E+03</pdfrwt>
<pdfrwt beam="2">  1        4 0.27392299E-01 0.12877474E+03</pdfrwt>
<totfact> 0.11469527E+05</totfact>
</mgrwt>
</event>
<event>
 6    4  0.6195789E-003  0.1281103E+03  0.7818608E-02  0.1230287E+00
         21   -1    0    0  501  502  0.00000000000E+00  0.00000000000E+00  0.54154022829E+02  0.54154022829E+02  0.00000000000E+00 0.  1.
          4   -1    0    0  502    0 -0.00000000000E+00 -0.00000000000E+00 -0.44781538124E+03  0.44781718209E+03  0.12700000000E+01 0. -1.
         25    2    1    2    0    0  0.15584071313E+02 -0.23313676062E+02 -0.43417588337E+03  0.45268195251E+03  0.12500344657E+03 0.  0.
    9000005    1    3    3    0    0 -0.30921223302E+02 -0.46766649803E+02 -0.34400154897E+03  0.34854168657E+03  0.10000000000E+01 0.  0.
    9000005    1    3    3    0    0  0.46505294616E+02  0.23452973741E+02 -0.90174334400E+02  0.10414026593E+03  0.10000000000E+01 0.  0.
          4    1    1    2  501    0 -0.15584071313E+02  0.23313676062E+02  0.40514524961E+02  0.49289252409E+02  0.12700000000E+01 0.  1.
<mgrwt>
<rscale>  1 0.12811031E+03</rscale>
<asrwt>0</asrwt>
<pdfrwt beam="1">  1       21 0.83313884E-02 0.12811031E+03</pdfrwt>
<pdfrwt beam="2">  1        4 0.68895956E-01 0.12811031E+03</pdfrwt>
<totfact> 0.89878250E+03</totfact>
</mgrwt>
</event>
<event>
 6    4  0.6195789E-003  0.1268471E+03  0.7818608E-02  0.1232211E+00
          4   -1    0    0  502    0 -0.00000000000E+00  0.00000000000E+00  0.23125602315E+03  0.23125951039E+03  0.12700000000E+01 0.  1.
         21   -1    0    0  501  502  0.00000000000E+00 -0.00000000000E+00 -0.26763467453E+02  0.26763467453E+02  0.00000000000E+00 0.  1.
         25    2    1    2    0    0  0.20453714305E+02 -0.68328761515E+01  0.13497044811E+03  0.18522202339E+03  0.12500053384E+03 0.  0.
    9000005    1    3    3    0    0 -0.79932248710E+01  0.54442089911E+02  0.84694549456E+02  0.10100494792E+03  0.10000000000E+01 0.  0.
    9000005    1    3    3    0    0  0.28446939176E+02 -0.61274966062E+02  0.50275898658E+02  0.84217075468E+02  0.10000000000E+01 0.  0.
          4    1    1    2  501    0 -0.20453714305E+02  0.68328761515E+01  0.69522107588E+02  0.72800954450E+02  0.12700000000E+01 0. -1.
<mgrwt>
<rscale>  1 0.12684706E+03</rscale>
<asrwt>0</asrwt>
<pdfrwt beam="2">  1       21 0.41174567E-02 0.12684706E+03</pdfrwt>
<pdfrwt beam="1">  1        4 0.35580434E-01 0.12684706E+03</pdfrwt>
<totfact> 0.11359608E+05</totfact>
</mgrwt>
</event>
<event>
 6    4  0.6195789E-003  0.1340666E+03  0.7818608E-02  0.1221543E+00
         -4   -1    0    0    0  501 -0.00000000000E+00  0.00000000000E+00  0.64339330501E+01  0.65580785672E+01  0.12700000000E+01 0. -1.
         21   -1    0    0  501  502  0.00000000000E+00 -0.00000000000E+00 -0.18965708527E+04  0.18965708527E+04  0.00000000000E+00 0.  1.
         25    2    1    2    0    0 -0.40830389985E+02  0.26122199750E+02 -0.74506455624E+03  0.75703041001E+03  0.12499743461E+03 0.  0.
    9000005    1    3    3    0    0  0.35970403457E+02 -0.81122230016E+01 -0.40684474159E+03  0.40851355161E+03  0.10000000000E+01 0.  0.
    9000005    1    3    3    0    0 -0.76800793442E+02  0.34234422751E+02 -0.33821981464E+03  0.34851685840E+03  0.10000000000E+01 0.  0.
         -4    1    1    2    0  502  0.40830389985E+02 -0.26122199750E+02 -0.11450723634E+04  0.11460985213E+04  0.12700000000E+01 0.  1.
<mgrwt>
<rscale>  1 0.13406658E+03</rscale>
<asrwt>0</asrwt>
<pdfrwt beam="2">  1       21 0.29178034E+00 0.13406658E+03</pdfrwt>
<pdfrwt beam="1">  1       -4 0.99941752E-03 0.13406658E+03</pdfrwt>
<totfact> 0.48116369E+03</totfact>
</mgrwt>
</event>
<event>
 6    4  0.6195789E-003  0.1282155E+03  0.7818608E-02  0.1230128E+00
         21   -1    0    0  501  502  0.00000000000E+00  0.00000000000E+00  0.82527963713E+02  0.82527963713E+02  0.00000000000E+00 0. -1.
         -4   -1    0    0    0  501 -0.00000000000E+00 -0.00000000000E+00 -0.78928916795E+02  0.78939133555E+02  0.12700000000E+01 0. -1.
         25    2    1    2    0    0  0.22327280549E+02 -0.17732769913E+02 -0.12287282114E+02  0.12880294359E+03  0.12500504946E+03 0.  0.
    9000005    1    3    3    0    0  0.29945155860E+02  0.45035532381E+02 -0.31646670110E+02  0.62669157209E+02  0.10000000000E+01 0.  0.
    9000005    1    3    3    0    0 -0.76178753111E+01 -0.62768302294E+02  0.19359387997E+02  0.66133786378E+02  0.10000000000E+01 0.  0.
         -4    1    1    2    0  502 -0.22327280549E+02  0.17732769913E+02  0.15886329032E+02  0.32664153680E+02  0.12700000000E+01 0.  1.
<mgrwt>
<rscale>  1 0.12821553E+03</rscale>
<asrwt>0</asrwt>
<pdfrwt beam="1">  1       21 0.12696610E-01 0.12821553E+03</pdfrwt>
<pdfrwt beam="2">  1       -4 0.12144448E-01 0.12821553E+03</pdfrwt>
<totfact> 0.11530106E+05</totfact>
</mgrwt>
</event>
<event>
 6    4  0.6195789E-003  0.1619302E+03  0.7818608E-02  0.1186535E+00
         21   -1    0    0  501  502  0.00000000000E+00  0.00000000000E+00  0.19963949662E+04  0.19963949662E+04  0.00000000000E+00 0.  1.
          4   -1    0    0  502    0 -0.00000000000E+00 -0.00000000000E+00 -0.20813588580E+02  0.20852298903E+02  0.12700000000E+01 0. -1.
         25    2    1    2    0    0  0.10261304203E+03  0.81246699390E+01  0.32161048885E+03  0.36007595216E+03  0.12500375245E+03 0.  0.
    9000005    1    3    3    0    0  0.67478384268E+02  0.65768887348E+02  0.17889367195E+03  0.20219501663E+03  0.10000000000E+01 0.  0.
    9000005    1    3    3    0    0  0.35134657759E+02 -0.57644217409E+02  0.14271681690E+03  0.15788093552E+03  0.10000000000E+01 0.  0.
          4    1    1    2  501    0 -0.10261304203E+03 -0.81246699390E+01  0.16539708888E+04  0.16571713130E+04  0.12700000000E+01 0.  1.
<mgrwt>
<rscale>  1 0.16193018E+03</rscale>
<asrwt>0</asrwt>
<pdfrwt beam="1">  1       21 0.30713754E+00 0.16193018E+03</pdfrwt>
<pdfrwt beam="2">  1        4 0.32051009E-02 0.16193018E+03</pdfrwt>
<totfact> 0.64751749E+02</totfact>
</mgrwt>
</event>
<event>
 6    4  0.6195789E-003  0.1463486E+03  0.7818608E-02  0.1205033E+00
         21   -1    0    0  501  502  0.00000000000E+00  0.00000000000E+00  0.49655818264E+03  0.49655818264E+03  0.00000000000E+00 0.  1.
          4   -1    0    0  502    0 -0.00000000000E+00 -0.00000000000E+00 -0.38234689714E+02  0.38255776003E+02  0.12700000000E+01 0. -1.
         25    2    1    2    0    0 -0.76098957314E+02  0.10499395075E+01  0.12364257828E+03  0.19158651043E+03  0.12500300052E+03 0.  0.
    9000005    1    3    3    0    0 -0.28956907188E+02  0.33337508618E+02  0.12687902776E+03  0.13434723533E+03  0.10000000000E+01 0.  0.
    9000005    1    3    3    0    0 -0.47142050125E+02 -0.32287569110E+02 -0.32364494818E+01  0.57239275103E+02  0.10000000000E+01 0.  0.
          4    1    1    2  501    0  0.76098957314E+02 -0.10499395075E+01  0.33468091464E+03  0.34322744821E+03  0.12700000000E+01 0.  1.
<mgrwt>
<rscale>  1 0.14634857E+03</rscale>
<asrwt>0</asrwt>
<pdfrwt beam="1">  1       21 0.76393562E-01 0.14634857E+03</pdfrwt>
<pdfrwt beam="2">  1        4 0.58840073E-02 0.14634857E+03</pdfrwt>
<totfact> 0.11595239E+04</totfact>
</mgrwt>
</event>
<event>
 6    4  0.6195789E-003  0.1322794E+03  0.7818608E-02  0.1224112E+00
          4   -1    0    0  502    0 -0.00000000000E+00  0.00000000000E+00  0.26608579235E+03  0.26608882313E+03  0.12700000000E+01 0.  1.
         21   -1    0    0  501  502  0.00000000000E+00 -0.00000000000E+00 -0.40467987197E+02  0.40467987197E+02  0.00000000000E+00 0. -1.
         25    2    1    2    0    0 -0.43065058864E+02 -0.37711989507E+01  0.22761619215E+03  0.26326214914E+03  0.12501602700E+03 0.  0.
    9000005    1    3    3    0    0 -0.56930367400E+01  0.33524201211E+02  0.20149679397E+03  0.20434833182E+03  0.10000000000E+01 0.  0.
    9000005    1    3    3    0    0 -0.37372022124E+02 -0.37295400162E+02  0.26119398172E+02  0.58913817324E+02  0.10000000000E+01 0.  0.
          4    1    1    2  501    0  0.43065058864E+02  0.37711989507E+01 -0.19983869894E+01  0.43294661184E+02  0.12700000000E+01 0. -1.
<mgrwt>
<rscale>  1 0.13227936E+03</rscale>
<asrwt>0</asrwt>
<pdfrwt beam="2">  1       21 0.62258444E-02 0.13227936E+03</pdfrwt>
<pdfrwt beam="1">  1        4 0.40938041E-01 0.13227936E+03</pdfrwt>
<totfact> 0.43364218E+04</totfact>
</mgrwt>
</event>
<event>
 6    4  0.6195789E-003  0.1274748E+03  0.7818608E-02  0.1231252E+00
         21   -1    0    0  501  502  0.00000000000E+00  0.00000000000E+00  0.15576820191E+03  0.15576820191E+03  0.00000000000E+00 0. -1.
         -4   -1    0    0    0  501 -0.00000000000E+00 -0.00000000000E+00 -0.37791212867E+02  0.37812546462E+02  0.12700000000E+01 0. -1.
         25    2    1    2    0    0 -0.21784354621E+02  0.12201038774E+02  0.89902901918E+02  0.15598831933E+03  0.12500560204E+03 0.  0.
    9000005    1    3    3    0    0  0.31531267235E+02 -0.39781689042E+02  0.22460595504E+02  0.55518302810E+02  0.10000000000E+01 0.  0.
    9000005    1    3    3    0    0 -0.53315621856E+02  0.51982727816E+02  0.67442306414E+02  0.10047001652E+03  0.10000000000E+01 0.  0.
         -4    1    1    2    0  502  0.21784354621E+02 -0.12201038774E+02  0.28074087127E+02  0.37592429044E+02  0.12700000000E+01 0.  1.
<mgrwt>
<rscale>  1 0.12747480E+03</rscale>
<asrwt>0</asrwt>
<pdfrwt beam="1">  1       21 0.23964338E-01 0.12747480E+03</pdfrwt>
<pdfrwt beam="2">  1       -4 0.58160721E-02 0.12747480E+03</pdfrwt>
<totfact> 0.12271461E+05</totfact>
</mgrwt>
</event>
<event>
 6    4  0.6195789E-003  0.1287027E+03  0.7818608E-02  0.1229393E+00
         21   -1    0    0  501  502  0.00000000000E+00  0.00000000000E+00  0.11418492218E+03  0.11418492218E+03  0.00000000000E+00 0. -1.
         -4   -1    0    0    0  501 -0.00000000000E+00 -0.00000000000E+00 -0.26311023374E+03  0.26311329878E+03  0.12700000000E+01 0.  1.
         25    2    1    2    0    0  0.14967463947E+02  0.26744480328E+02 -0.24483551787E+03  0.27660227874E+03  0.12500039036E+03 0.  0.
    9000005    1    3    3    0    0  0.57629842615E+02 -0.21416413903E+02 -0.14878061475E+03  0.16098612632E+03  0.10000000000E+01 0.  0.
    9000005    1    3    3    0    0 -0.42662378668E+02  0.48160894230E+02 -0.96054903121E+02  0.11561615242E+03  0.10000000000E+01 0.  0.
         -4    1    1    2    0  502 -0.14967463947E+02 -0.26744480328E+02  0.95910206311E+02  0.10069594222E+03  0.12700000000E+01 0. -1.
<mgrwt>
<rscale>  1 0.12870272E+03</rscale>
<asrwt>0</asrwt>
<pdfrwt beam="1">  1       21 0.17566911E-01 0.12870272E+03</pdfrwt>
<pdfrwt beam="2">  1       -4 0.40479276E-01 0.12870272E+03</pdfrwt>
<totfact> 0.71384399E+03</totfact>
</mgrwt>
</event>
<event>
 6    4  0.6195789E-003  0.1355317E+03  0.7818608E-02  0.1219471E+00
          4   -1    0    0  502    0 -0.00000000000E+00  0.00000000000E+00  0.32081830977E+03  0.32082082349E+03  0.12700000000E+01 0. -1.
         21   -1    0    0  501  502  0.00000000000E+00 -0.00000000000E+00 -0.29291493155E+02  0.29291493155E+02  0.00000000000E+00 0. -1.
         25    2    1    2    0    0 -0.47577183275E+01 -0.52165939055E+02  0.24523542995E+03  0.28019503366E+03  0.12499967880E+03 0.  0.
    9000005    1    3    3    0    0 -0.35700575787E+02  0.30654141525E+02  0.81655869670E+02  0.94249077215E+02  0.10000000000E+01 0.  0.
    9000005    1    3    3    0    0  0.30942857460E+02 -0.82820080580E+02  0.16357956028E+03  0.18594595644E+03  0.10000000000E+01 0.  0.
          4    1    1    2  501    0  0.47577183275E+01  0.52165939055E+02  0.46291386665E+02  0.69917282989E+02  0.12700000000E+01 0.  1.
<mgrwt>
<rscale>  1 0.13553170E+03</rscale>
<asrwt>0</asrwt>
<pdfrwt beam="2">  1       21 0.45063838E-02 0.13553170E+03</pdfrwt>
<pdfrwt beam="1">  1        4 0.49358972E-01 0.13553170E+03</pdfrwt>
<totfact> 0.51572339E+04</totfact>
</mgrwt>
</event>
<event>
 6    4  0.6195789E-003  0.1403882E+03  0.7818608E-02  0.1212808E+00
         21   -1    0    0  501  502  0.00000000000E+00  0.00000000000E+00  0.22160441516E+03  0.22160441516E+03  0.00000000000E+00 0.  1.
          4   -1    0    0  502    0 -0.00000000000E+00 -0.00000000000E+00 -0.11526624967E+03  0.11527324586E+03  0.12700000000E+01 0. -1.
         25    2    1    2    0    0 -0.63120856146E+02 -0.99747992254E+01 -0.64483683959E+02  0.15448945896E+03  0.12500043333E+03 0.  0.
    9000005    1    3    3    0    0 -0.85997290238E+02 -0.23429708962E+02 -0.49202555565E+01  0.89273143246E+02  0.10000000000E+01 0.  0.
    9000005    1    3    3    0    0  0.22876434092E+02  0.13454909737E+02 -0.59563428402E+02  0.65216315718E+02  0.10000000000E+01 0.  0.
          4    1    1    2  501    0  0.63120856146E+02  0.99747992254E+01  0.17082184945E+03  0.18238820206E+03  0.12700000000E+01 0.  1.
<mgrwt>
<rscale>  1 0.14038820E+03</rscale>
<asrwt>0</asrwt>
<pdfrwt beam="1">  1       21 0.34092987E-01 0.14038820E+03</pdfrwt>
<pdfrwt beam="2">  1        4 0.17734087E-01 0.14038820E+03</pdfrwt>
<totfact> 0.95686583E+03</totfact>
</mgrwt>
</event>
<event>
 6    4  0.6195789E-003  0.1274350E+03  0.7818608E-02  0.1231312E+00
         -4   -1    0    0    0  501 -0.00000000000E+00  0.00000000000E+00  0.81588814747E+01  0.82571330932E+01  0.12700000000E+01 0. -1.
         21   -1    0    0  501  502  0.00000000000E+00 -0.00000000000E+00 -0.81206094150E+03  0.81206094150E+03  0.00000000000E+00 0. -1.
         25    2    1    2    0    0 -0.23138948380E+01 -0.24737036980E+02 -0.52239379008E+03  0.53771270653E+03  0.12498963056E+03 0.  0.
    9000005    1    3    3    0    0  0.43879270089E+02  0.12249652566E+02 -0.86024744427E+02  0.97348348652E+02  0.10000000000E+01 0.  0.
    9000005    1    3    3    0    0 -0.46193164927E+02 -0.36986689546E+02 -0.43636904565E+03  0.44036435788E+03  0.10000000000E+01 0.  0.
         -4    1    1    2    0  502  0.23138948380E+01  0.24737036980E+02 -0.28150826995E+03  0.28260536806E+03  0.12700000000E+01 0.  1.
<mgrwt>
<rscale>  1 0.12743501E+03</rscale>
<asrwt>0</asrwt>
<pdfrwt beam="2">  1       21 0.12493249E+00 0.12743501E+03</pdfrwt>
<pdfrwt beam="1">  1       -4 0.12628464E-02 0.12743501E+03</pdfrwt>
<totfact> 0.40329722E+04</totfact>
</mgrwt>
</event>
<event>
 6    4  0.6195789E-003  0.1279684E+03  0.7818608E-02  0.1230502E+00
         21   -1    0    0  501  502  0.00000000000E+00  0.00000000000E+00  0.35131582306E+01  0.35131582306E+01  0.00000000000E+00 0. -1.
         -4   -1    0    0    0  501 -0.00000000000E+00 -0.00000000000E+00 -0.20017799798E+04  0.20017803826E+04  0.12700000000E+01 0.  1.
         25    2    1    2    0    0  0.17993302113E+02  0.20744051780E+02 -0.18552862776E+04  0.18596943532E+04  0.12498736277E+03 0.  0.
    9000005    1    3    3    0    0  0.20138326054E+02  0.49005981094E+02 -0.33680961650E+03  0.34095286497E+03  0.10000000000E+01 0.  0.
    9000005    1    3    3    0    0 -0.21450239412E+01 -0.28261929315E+02 -0.15184766611E+04  0.15187414883E+04  0.10000000000E+01 0.  0.
         -4    1    1    2    0  502 -0.17993302113E+02 -0.20744051780E+02 -0.14298054392E+03  0.14559918766E+03  0.12700000000E+01 0. -1.
<mgrwt>
<rscale>  1 0.12796842E+03</rscale>
<asrwt>0</asrwt>
<pdfrwt beam="1">  1       21 0.54048685E-03 0.12796842E+03</pdfrwt>
<pdfrwt beam="2">  1       -4 0.30798329E+00 0.12796842E+03</pdfrwt>
<totfact> 0.13572671E+04</totfact>
</mgrwt>
</event>
<event>
 6    4  0.6195789E-003  0.1287477E+03  0.7818608E-02  0.1229326E+00
         -4   -1    0    0    0  501 -0.00000000000E+00  0.00000000000E+00  0.82943978892E+03  0.82944076120E+03  0.12700000000E+01 0.  1.
         21   -1    0    0  501  502  0.00000000000E+00 -0.00000000000E+00 -0.23024356345E+02  0.23024356345E+02  0.00000000000E+00 0. -1.
         25    2    1    2    0    0  0.28937845298E+01 -0.30699830730E+02  0.81109552717E+03  0.82125022076E+03  0.12500046920E+03 0.  0.
    9000005    1    3    3    0    0 -0.35550860746E+02  0.93929186831E+01  0.64622692613E+03  0.64727299548E+03  0.10000000000E+01 0.  0.
    9000005    1    3    3    0    0  0.38444645275E+02 -0.40092749414E+02  0.16486860104E+03  0.17397722528E+03  0.10000000000E+01 0.  0.
         -4    1    1    2    0  502 -0.28937845298E+01  0.30699830730E+02 -0.46800946033E+01  0.31214896785E+02  0.12700000000E+01 0. -1.
<mgrwt>
<rscale>  1 0.12874770E+03</rscale>
<asrwt>0</asrwt>
<pdfrwt beam="2">  1       21 0.35422093E-02 0.12874770E+03</pdfrwt>
<pdfrwt beam="1">  1       -4 0.12760887E+00 0.12874770E+03</pdfrwt>
<totfact> 0.93310352E+03</totfact>
</mgrwt>
</event>
<event>
 6    4  0.6195789E-003  0.1301458E+03  0.7818608E-02  0.1227240E+00
         21   -1    0    0  501  502  0.00000000000E+00  0.00000000000E+00  0.15638118239E+02  0.15638118239E+02  0.00000000000E+00 0. -1.
          4   -1    0    0  502    0 -0.00000000000E+00 -0.00000000000E+00 -0.13869792967E+04  0.13869798781E+04  0.12700000000E+01 0.  1.
         25    2    1    2    0    0 -0.18584175521E+02  0.31086147523E+02 -0.13576568278E+04  0.13638804887E+04  0.12500482078E+03 0.  0.
    9000005    1    3    3    0    0  0.36416624511E+02  0.36034479514E+00 -0.14224308040E+03  0.14683458145E+03  0.10000000000E+01 0.  0.
    9000005    1    3    3    0    0 -0.55000800033E+02  0.30725802728E+02 -0.12154137474E+04  0.12170459072E+04  0.10000000000E+01 0.  0.
          4    1    1    2  501    0  0.18584175521E+02 -0.31086147523E+02 -0.13684350633E+02  0.38737507662E+02  0.12700000000E+01 0. -1.
<mgrwt>
<rscale>  1 0.13014579E+03</rscale>
<asrwt>0</asrwt>
<pdfrwt beam="1">  1       21 0.24058647E-02 0.13014579E+03</pdfrwt>
<pdfrwt beam="2">  1        4 0.21338541E+00 0.13014579E+03</pdfrwt>
<totfact> 0.45079296E+03</totfact>
</mgrwt>
</event>
<event>
 6    4  0.6195789E-003  0.1405590E+03  0.7818608E-02  0.1212579E+00
         -4   -1    0    0    0  501 -0.00000000000E+00  0.00000000000E+00  0.91563433346E+02  0.91572240478E+02  0.12700000000E+01 0.  1.
         21   -1    0    0  501  502  0.00000000000E+00 -0.00000000000E+00 -0.11605646991E+03  0.11605646991E+03  0.00000000000E+00 0. -1.
         25    2    1    2    0    0 -0.56884242149E+02 -0.29915835634E+02 -0.27711064118E+02  0.14326456798E+03  0.12500423648E+03 0.  0.
    9000005    1    3    3    0    0  0.11391778775E+02  0.38142241849E+02 -0.24601458438E+02  0.46806356344E+02  0.10000000000E+01 0.  0.
    9000005    1    3    3    0    0 -0.68276020924E+02 -0.68058077483E+02 -0.31096056794E+01  0.96458211633E+02  0.10000000000E+01 0.  0.
         -4    1    1    2    0  502  0.56884242149E+02  0.29915835634E+02  0.32180275565E+01  0.64364142407E+02  0.12700000000E+01 0. -1.
<mgrwt>
<rscale>  1 0.14055900E+03</rscale>
<asrwt>0</asrwt>
<pdfrwt beam="2">  1       21 0.17854842E-01 0.14055900E+03</pdfrwt>
<pdfrwt beam="1">  1       -4 0.14087894E-01 0.14055900E+03</pdfrwt>
<totfact> 0.48808627E+04</totfact>
</mgrwt>
</event>
<event>
 6    4  0.6195789E-003  0.1278853E+03  0.7818608E-02  0.1230628E+00
          4   -1    0    0  502    0 -0.00000000000E+00  0.00000000000E+00  0.47937497767E+02  0.47954317763E+02  0.12700000000E+01 0.  1.
         21   -1    0    0  501  502  0.00000000000E+00 -0.00000000000E+00 -0.53041756656E+03  0.53041756656E+03  0.00000000000E+00 0. -1.
         25    2    1    2    0    0  0.44506163065E+01 -0.26491796019E+02 -0.38467243577E+02  0.13354537309E+03  0.12503205430E+03 0.  0.
    9000005    1    3    3    0    0  0.41930245618E+02 -0.44486507009E+01  0.30471799545E+02  0.52033321614E+02  0.10000000000E+01 0.  0.
    9000005    1    3    3    0    0 -0.37479629311E+02 -0.22043145318E+02 -0.68939043122E+02  0.81512051474E+02  0.10000000000E+01 0.  0.
          4    1    1    2  501    0 -0.44506163065E+01  0.26491796019E+02 -0.44401282522E+03  0.44482651124E+03  0.12700000000E+01 0. -1.
<mgrwt>
<rscale>  1 0.12788525E+03</rscale>
<asrwt>0</asrwt>
<pdfrwt beam="2">  1       21 0.81602703E-01 0.12788525E+03</pdfrwt>
<pdfrwt beam="1">  1        4 0.73764104E-02 0.12788525E+03</pdfrwt>
<totfact> 0.68565366E+03</totfact>
</mgrwt>
</event>
<event>
 6    4  0.6195789E-003  0.1375250E+03  0.7818608E-02  0.1216699E+00
          4   -1    0    0  502    0 -0.00000000000E+00  0.00000000000E+00  0.65832417359E+02  0.65844666263E+02  0.12700000000E+01 0.  1.
         21   -1    0    0  501  502  0.00000000000E+00 -0.00000000000E+00 -0.24601245726E+03  0.24601245726E+03  0.00000000000E+00 0. -1.
         25    2    1    2    0    0 -0.47469356628E+02  0.32165377079E+02 -0.16611777609E+02  0.13852466658E+03  0.12500072317E+03 0.  0.
    9000005    1    3    3    0    0 -0.43936525970E+02  0.27903915999E+02 -0.68665206281E+02  0.86168192485E+02  0.10000000000E+01 0.  0.
    9000005    1    3    3    0    0 -0.35328306571E+01  0.42614610800E+01  0.52053428672E+02  0.52356474093E+02  0.10000000000E+01 0.  0.
          4    1    1    2  501    0  0.47469356628E+02 -0.32165377079E+02 -0.16356826229E+03  0.17333245694E+03  0.12700000000E+01 0. -1.
<mgrwt>
<rscale>  1 0.13752502E+03</rscale>
<asrwt>0</asrwt>
<pdfrwt beam="2">  1       21 0.37848071E-01 0.13752502E+03</pdfrwt>
<pdfrwt beam="1">  1        4 0.10129259E-01 0.13752502E+03</pdfrwt>
<totfact> 0.20474156E+04</totfact>
</mgrwt>
</event>
<event>
 6    4  0.6195789E-003  0.1276069E+03  0.7818608E-02  0.1231050E+00
          4   -1    0    0  502    0 -0.00000000000E+00  0.00000000000E+00  0.84306514079E+03  0.84306609736E+03  0.12700000000E+01 0.  1.
         21   -1    0    0  501  502  0.00000000000E+00 -0.00000000000E+00 -0.20247654432E+02  0.20247654432E+02  0.00000000000E+00 0. -1.
         25    2    1    2    0    0  0.15769445761E+02  0.20288072581E+02  0.82739928788E+03  0.83718164293E+03  0.12499296122E+03 0.  0.
    9000005    1    3    3    0    0 -0.89257113989E+01 -0.10336514427E+02  0.61859558211E+01  0.15025907756E+02  0.10000000000E+01 0.  0.
    9000005    1    3    3    0    0  0.24695157159E+02  0.30624587008E+02  0.82121333206E+03  0.82215573517E+03  0.10000000000E+01 0.  0.
          4    1    1    2  501    0 -0.15769445761E+02 -0.20288072581E+02 -0.45818015231E+01  0.26132108867E+02  0.12700000000E+01 0. -1.
<mgrwt>
<rscale>  1 0.12760690E+03</rscale>
<asrwt>0</asrwt>
<pdfrwt beam="2">  1       21 0.31150244E-02 0.12760690E+03</pdfrwt>
<pdfrwt beam="1">  1        4 0.12970544E+00 0.12760690E+03</pdfrwt>
<totfact> 0.11072135E+04</totfact>
</mgrwt>
</event>
<event>
 6    4  0.6195789E-003  0.1284347E+03  0.7818608E-02  0.1229797E+00
         -4   -1    0    0    0  501 -0.00000000000E+00  0.00000000000E+00  0.15206233191E+04  0.15206238494E+04  0.12700000000E+01 0. -1.
         21   -1    0    0  501  502  0.00000000000E+00 -0.00000000000E+00 -0.41268121603E+01  0.41268121603E+01  0.00000000000E+00 0. -1.
         25    2    1    2    0    0  0.29455086081E+02 -0.14970397405E+00  0.12785145481E+04  0.12849493894E+04  0.12501143611E+03 0.  0.
    9000005    1    3    3    0    0 -0.48837548703E+02 -0.86599176893E+01  0.47431653364E+03  0.47690384191E+03  0.10000000000E+01 0.  0.
    9000005    1    3    3    0    0  0.78292634783E+02  0.85102137153E+01  0.80419801443E+03  0.80804554748E+03  0.10000000000E+01 0.  0.
         -4    1    1    2    0  502 -0.29455086081E+02  0.14970397405E+00  0.23798195882E+03  0.23980127217E+03  0.12700000000E+01 0.  1.
<mgrwt>
<rscale>  1 0.12843474E+03</rscale>
<asrwt>0</asrwt>
<pdfrwt beam="2">  1       21 0.63489539E-03 0.12843474E+03</pdfrwt>
<pdfrwt beam="1">  1       -4 0.23395667E+00 0.12843474E+03</pdfrwt>
<totfact> 0.28204858E+04</totfact>
</mgrwt>
</event>
<event>
 6    4  0.6195789E-003  0.1275632E+03  0.7818608E-02  0.1231117E+00
         21   -1    0    0  501  502  0.00000000000E+00  0.00000000000E+00  0.61618114463E+02  0.61618114463E+02  0.00000000000E+00 0. -1.
          4   -1    0    0  502    0 -0.00000000000E+00 -0.00000000000E+00 -0.97074674735E+02  0.97082981901E+02  0.12700000000E+01 0. -1.
         25    2    1    2    0    0  0.11090282774E+02 -0.22912572742E+02 -0.37959693501E+02  0.13309135334E+03  0.12499755854E+03 0.  0.
    9000005    1    3    3    0    0  0.17969835711E+02 -0.14390255799E+02 -0.83303991490E+02  0.86432340334E+02  0.10000000000E+01 0.  0.
    9000005    1    3    3    0    0 -0.68795529365E+01 -0.85223169437E+01  0.45344297990E+02  0.46659013008E+02  0.10000000000E+01 0.  0.
          4    1    1    2  501    0 -0.11090282774E+02  0.22912572742E+02  0.25031332291E+01  0.25609743022E+02  0.12700000000E+01 0.  1.
<mgrwt>
<rscale>  1 0.12756320E+03</rscale>
<asrwt>0</asrwt>
<pdfrwt beam="1">  1       21 0.94797099E-02 0.12756320E+03</pdfrwt>
<pdfrwt beam="2">  1        4 0.14936211E-01 0.12756320E+03</pdfrwt>
<totfact> 0.13481150E+05</totfact>
</mgrwt>
</event>
<event>
 6    4  0.6195789E-003  0.1275727E+03  0.7818608E-02  0.1231103E+00
         21   -1    0    0  501  502  0.00000000000E+00  0.00000000000E+00  0.12284557940E+03  0.12284557940E+03  0.00000000000E+00 0. -1.
          4   -1    0    0  502    0 -0.00000000000E+00 -0.00000000000E+00 -0.52204847993E+02  0.52220293508E+02  0.12700000000E+01 0. -1.
         25    2    1    2    0    0 -0.11623442791E+02  0.22639610135E+02  0.36933701014E+02  0.13281148654E+03  0.12500854498E+03 0.  0.
    9000005    1    3    3    0    0  0.34531364137E+02 -0.34886105136E+02 -0.25237944314E+01  0.49161214174E+02  0.10000000000E+01 0.  0.
    9000005    1    3    3    0    0 -0.46154806929E+02  0.57525715271E+02  0.39457495446E+02  0.83650272366E+02  0.10000000000E+01 0.  0.
          4    1    1    2  501    0  0.11623442791E+02 -0.22639610135E+02  0.33707030391E+02  0.42254386365E+02  0.12700000000E+01 0.  1.
<mgrwt>
<rscale>  1 0.12757270E+03</rscale>
<asrwt>0</asrwt>
<pdfrwt beam="1">  1       21 0.18899320E-01 0.12757270E+03</pdfrwt>
<pdfrwt beam="2">  1        4 0.80332082E-02 0.12757270E+03</pdfrwt>
<totfact> 0.11248266E+05</totfact>
</mgrwt>
</event>
<event>
 6    4  0.6195789E-003  0.1268706E+03  0.7818608E-02  0.1232174E+00
         -4   -1    0    0    0  501 -0.00000000000E+00  0.00000000000E+00  0.48396360134E+02  0.48413020710E+02  0.12700000000E+01 0. -1.
         21   -1    0    0  501  502  0.00000000000E+00 -0.00000000000E+00 -0.33115199109E+03  0.33115199109E+03  0.00000000000E+00 0.  1.
         25    2    1    2    0    0  0.20112254152E+02 -0.81521133274E+01 -0.36035511016E+02  0.13188903355E+03  0.12500079759E+03 0.  0.
    9000005    1    3    3    0    0 -0.87377310026E+01 -0.63356776332E+02 -0.24710042895E+02  0.68571242297E+02  0.10000000000E+01 0.  0.
    9000005    1    3    3    0    0  0.28849985155E+02  0.55204663005E+02 -0.11325468121E+02  0.63317791252E+02  0.10000000000E+01 0.  0.
         -4    1    1    2    0  502 -0.20112254152E+02  0.81521133274E+01 -0.24672011994E+03  0.24767597825E+03  0.12700000000E+01 0.  1.
<mgrwt>
<rscale>  1 0.12687064E+03</rscale>
<asrwt>0</asrwt>
<pdfrwt beam="2">  1       21 0.50946459E-01 0.12687064E+03</pdfrwt>
<pdfrwt beam="1">  1       -4 0.74470629E-02 0.12687064E+03</pdfrwt>
<totfact> 0.18579216E+04</totfact>
</mgrwt>
</event>
<event>
 6    4  0.6195789E-003  0.1339072E+03  0.7818608E-02  0.1221771E+00
          4   -1    0    0  502    0 -0.00000000000E+00  0.00000000000E+00  0.73910342094E+03  0.73910451205E+03  0.12700000000E+01 0.  1.
         21   -1    0    0  501  502  0.00000000000E+00 -0.00000000000E+00 -0.20759883633E+02  0.20759883633E+02  0.00000000000E+00 0. -1.
         25    2    1    2    0    0 -0.48017797686E+02 -0.88226867424E+00  0.69246830976E+03  0.70529675332E+03  0.12499865174E+03 0.  0.
    9000005    1    3    3    0    0 -0.13939856020E+02 -0.42205120024E+02  0.89309911237E+02  0.99763981412E+02  0.10000000000E+01 0.  0.
    9000005    1    3    3    0    0 -0.34077941666E+02  0.41322851350E+02  0.60315839852E+03  0.60553277191E+03  0.10000000000E+01 0.  0.
          4    1    1    2  501    0  0.48017797686E+02  0.88226867424E+00  0.25875227544E+02  0.54567642363E+02  0.12700000000E+01 0. -1.
<mgrwt>
<rscale>  1 0.13390724E+03</rscale>
<asrwt>0</asrwt>
<pdfrwt beam="2">  1       21 0.31938288E-02 0.13390724E+03</pdfrwt>
<pdfrwt beam="1">  1        4 0.11371127E+00 0.13390724E+03</pdfrwt>
<totfact> 0.14658088E+04</totfact>
</mgrwt>
</event>
<event>
 6    4  0.6195789E-003  0.1437737E+03  0.7818608E-02  0.1208340E+00
         -4   -1    0    0    0  501 -0.00000000000E+00  0.00000000000E+00  0.10825390468E+03  0.10826135404E+03  0.12700000000E+01 0. -1.
         21   -1    0    0  501  502  0.00000000000E+00 -0.00000000000E+00 -0.13167829902E+03  0.13167829902E+03  0.00000000000E+00 0. -1.
         25    2    1    2    0    0  0.45016401026E+02 -0.54948138562E+02  0.34982243444E+02  0.14796833943E+03  0.12500039130E+03 0.  0.
    9000005    1    3    3    0    0 -0.24274395919E+02  0.27087237748E+02  0.87682691399E+01  0.37427894541E+02  0.10000000000E+01 0.  0.
    9000005    1    3    3    0    0  0.69290796945E+02 -0.82035376310E+02  0.26213974304E+02  0.11054044489E+03  0.10000000000E+01 0.  0.
         -4    1    1    2    0  502 -0.45016401026E+02  0.54948138562E+02 -0.58406637791E+02  0.91971313630E+02  0.12700000000E+01 0.  1.
<mgrwt>
<rscale>  1 0.14377368E+03</rscale>
<asrwt>0</asrwt>
<pdfrwt beam="2">  1       21 0.20258200E-01 0.14377368E+03</pdfrwt>
<pdfrwt beam="1">  1       -4 0.16655491E-01 0.14377368E+03</pdfrwt>
<totfact> 0.28908738E+04</totfact>
</mgrwt>
</event>
<event>
 6    4  0.6195789E-003  0.1278303E+03  0.7818608E-02  0.1230711E+00
         21   -1    0    0  501  502  0.00000000000E+00  0.00000000000E+00  0.12235801017E+03  0.12235801017E+03  0.00000000000E+00 0.  1.
          4   -1    0    0  502    0 -0.00000000000E+00 -0.00000000000E+00 -0.79937258108E+02  0.79947346009E+02  0.12700000000E+01 0. -1.
         25    2    1    2    0    0 -0.46983183678E+01  0.26328956456E+02 -0.24562707713E+02  0.13016878482E+03  0.12500119115E+03 0.  0.
    9000005    1    3    3    0    0 -0.23592630413E+02 -0.41504269332E+02  0.14153917759E+02  0.49805119922E+02  0.10000000000E+01 0.  0.
    9000005    1    3    3    0    0  0.18894312046E+02  0.67833225787E+02 -0.38716625472E+02  0.80363664901E+02  0.10000000000E+01 0.  0.
          4    1    1    2  501    0  0.46983183678E+01 -0.26328956456E+02  0.66983459770E+02  0.72136571351E+02  0.12700000000E+01 0.  1.
<mgrwt>
<rscale>  1 0.12783030E+03</rscale>
<asrwt>0</asrwt>
<pdfrwt beam="1">  1       21 0.18824309E-01 0.12783030E+03</pdfrwt>
<pdfrwt beam="2">  1        4 0.12299323E-01 0.12783030E+03</pdfrwt>
<totfact> 0.55353549E+04</totfact>
</mgrwt>
</event>
<event>
 6    4  0.6195789E-003  0.1514856E+03  0.7818608E-02  0.1198659E+00
         21   -1    0    0  501  502  0.00000000000E+00  0.00000000000E+00  0.19645068269E+03  0.19645068269E+03  0.00000000000E+00 0. -1.
          4   -1    0    0  502    0 -0.00000000000E+00 -0.00000000000E+00 -0.81426862145E+02  0.81436765522E+02  0.12700000000E+01 0.  1.
         25    2    1    2    0    0  0.82937821313E+02  0.21074741198E+02  0.24750685428E+02  0.15349420585E+03  0.12500019152E+03 0.  0.
    9000005    1    3    3    0    0  0.61032487959E+02 -0.37393017113E+02  0.48738763530E+02  0.86600631555E+02  0.10000000000E+01 0.  0.
    9000005    1    3    3    0    0  0.21905333353E+02  0.58467758310E+02 -0.23988078103E+02  0.66893574297E+02  0.10000000000E+01 0.  0.
          4    1    1    2  501    0 -0.82937821313E+02 -0.21074741198E+02  0.90273135114E+02  0.12439324236E+03  0.12700000000E+01 0. -1.
<mgrwt>
<rscale>  1 0.15148556E+03</rscale>
<asrwt>0</asrwt>
<pdfrwt beam="1">  1       21 0.30223182E-01 0.15148556E+03</pdfrwt>
<pdfrwt beam="2">  1        4 0.12528287E-01 0.15148556E+03</pdfrwt>
<totfact> 0.22358473E+04</totfact>
</mgrwt>
</event>
<event>
 6    4  0.6195789E-003  0.1445863E+03  0.7818608E-02  0.1207288E+00
         21   -1    0    0  501  502  0.00000000000E+00  0.00000000000E+00  0.13569202855E+04  0.13569202855E+04  0.00000000000E+00 0. -1.
         -4   -1    0    0    0  501 -0.00000000000E+00 -0.00000000000E+00 -0.11509409825E+02  0.11579266580E+02  0.12700000000E+01 0.  1.
         25    2    1    2    0    0 -0.59244860662E+01 -0.72455978762E+02  0.51499218874E+03  0.53490386057E+03  0.12498086732E+03 0.  0.
    9000005    1    3    3    0    0  0.29040031418E+02  0.26684680184E+02  0.14246009251E+03  0.14782176274E+03  0.10000000000E+01 0.  0.
    9000005    1    3    3    0    0 -0.34964517485E+02 -0.99140658946E+02  0.37253209623E+03  0.38708209783E+03  0.10000000000E+01 0.  0.
         -4    1    1    2    0  502  0.59244860662E+01  0.72455978762E+02  0.83041868689E+03  0.83359569147E+03  0.12700000000E+01 0. -1.
<mgrwt>
<rscale>  1 0.14458626E+03</rscale>
<asrwt>0</asrwt>
<pdfrwt beam="1">  1       21 0.20875684E+00 0.14458626E+03</pdfrwt>
<pdfrwt beam="2">  1       -4 0.17760988E-02 0.14458626E+03</pdfrwt>
<totfact> 0.60930778E+03</totfact>
</mgrwt>
</event>
<event>
 6    4  0.6195789E-003  0.1266502E+03  0.7818608E-02  0.1232513E+00
         -4   -1    0    0    0  501 -0.00000000000E+00  0.00000000000E+00  0.29334528845E+02  0.29362007468E+02  0.12700000000E+01 0. -1.
         21   -1    0    0  501  502  0.00000000000E+00 -0.00000000000E+00 -0.19973431280E+03  0.19973431280E+03  0.00000000000E+00 0. -1.
         25    2    1    2    0    0  0.16002546395E+02 -0.12602710577E+02 -0.11896802587E+03  0.17376325199E+03  0.12500146702E+03 0.  0.
    9000005    1    3    3    0    0  0.98568464393E+01 -0.55736009853E+02 -0.11718991348E+03  0.13014659441E+03  0.10000000000E+01 0.  0.
    9000005    1    3    3    0    0  0.61456999555E+01  0.43133299276E+02 -0.17781123853E+01  0.43616657575E+02  0.10000000000E+01 0.  0.
         -4    1    1    2    0  502 -0.16002546395E+02  0.12602710577E+02 -0.51431758094E+02  0.55333068283E+02  0.12700000000E+01 0.  1.
<mgrwt>
<rscale>  1 0.12665021E+03</rscale>
<asrwt>0</asrwt>
<pdfrwt beam="2">  1       21 0.30728357E-01 0.12665021E+03</pdfrwt>
<pdfrwt beam="1">  1       -4 0.45154286E-02 0.12665021E+03</pdfrwt>
<totfact> 0.11466162E+05</totfact>
</mgrwt>
</event>
<event>
 6    4  0.6195789E-003  0.1412251E+03  0.7818608E-02  0.1211690E+00
         21   -1    0    0  501  502  0.00000000000E+00  0.00000000000E+00  0.20989514778E+04  0.20989514778E+04  0.00000000000E+00 0. -1.
          4   -1    0    0  502    0 -0.00000000000E+00 -0.00000000000E+00 -0.62669682627E+01  0.63943561995E+01  0.12700000000E+01 0.  1.
         25    2    1    2    0    0 -0.31737717603E+02 -0.57548477588E+02  0.91560870217E+03  0.92643609226E+03  0.12500171019E+03 0.  0.
    9000005    1    3    3    0    0  0.25607151097E+02  0.21498741115E+02  0.41786631690E+03  0.41920303059E+03  0.10000000000E+01 0.  0.
    9000005    1    3    3    0    0 -0.57344868700E+02 -0.79047218703E+02  0.49774238528E+03  0.50723306167E+03  0.10000000000E+01 0.  0.
          4    1    1    2  501    0  0.31737717603E+02  0.57548477588E+02  0.11770758073E+04  0.11789097417E+04  0.12700000000E+01 0. -1.
<mgrwt>
<rscale>  1 0.14122513E+03</rscale>
<asrwt>0</asrwt>
<pdfrwt beam="1">  1       21 0.32291506E+00 0.14122513E+03</pdfrwt>
<pdfrwt beam="2">  1        4 0.97397926E-03 0.14122513E+03</pdfrwt>
<totfact> 0.33272005E+03</totfact>
</mgrwt>
</event>
<event>
 6    4  0.6195789E-003  0.1271218E+03  0.7818608E-02  0.1231790E+00
         21   -1    0    0  501  502  0.00000000000E+00  0.00000000000E+00  0.40062513654E+03  0.40062513654E+03  0.00000000000E+00 0.  1.
         -4   -1    0    0    0  501 -0.00000000000E+00 -0.00000000000E+00 -0.14067874689E+02  0.14125084009E+02  0.12700000000E+01 0.  1.
         25    2    1    2    0    0 -0.21301011894E+02 -0.90580980795E+01  0.32666612580E+03  0.35052917006E+03  0.12499663623E+03 0.  0.
    9000005    1    3    3    0    0 -0.31998483015E+02  0.10596988964E+02  0.13121237602E+02  0.36185162243E+02  0.10000000000E+01 0.  0.
    9000005    1    3    3    0    0  0.10697471121E+02 -0.19655087044E+02  0.31354488820E+03  0.31434400782E+03  0.10000000000E+01 0.  0.
         -4    1    1    2    0  502  0.21301011894E+02  0.90580980795E+01  0.59891136049E+02  0.64221050488E+02  0.12700000000E+01 0. -1.
<mgrwt>
<rscale>  1 0.12712176E+03</rscale>
<asrwt>0</asrwt>
<pdfrwt beam="1">  1       21 0.61634628E-01 0.12712176E+03</pdfrwt>
<pdfrwt beam="2">  1       -4 0.21688443E-02 0.12712176E+03</pdfrwt>
<totfact> 0.88494487E+04</totfact>
</mgrwt>
</event>
<event>
 6    4  0.6195789E-003  0.1272008E+03  0.7818608E-02  0.1231669E+00
         21   -1    0    0  501  502  0.00000000000E+00  0.00000000000E+00  0.68586046063E+02  0.68586046063E+02  0.00000000000E+00 0.  1.
         -4   -1    0    0    0  501 -0.00000000000E+00 -0.00000000000E+00 -0.13456323632E+03  0.13456922928E+03  0.12700000000E+01 0. -1.
         25    2    1    2    0    0  0.22643938849E+02  0.75289850567E+01 -0.99844195736E+02  0.16170626399E+03  0.12494246199E+03 0.  0.
    9000005    1    3    3    0    0  0.38357046863E+02  0.75854841948E+01  0.17828842733E+02  0.42984534983E+02  0.10000000000E+01 0.  0.
    9000005    1    3    3    0    0 -0.15713108014E+02 -0.56499138055E-01 -0.11767303847E+03  0.11872172901E+03  0.10000000000E+01 0.  0.
         -4    1    1    2    0  502 -0.22643938849E+02 -0.75289850567E+01  0.33867005475E+02  0.41449011357E+02  0.12700000000E+01 0.  1.
<mgrwt>
<rscale>  1 0.12720083E+03</rscale>
<asrwt>0</asrwt>
<pdfrwt beam="1">  1       21 0.10551700E-01 0.12720083E+03</pdfrwt>
<pdfrwt beam="2">  1       -4 0.20703402E-01 0.12720083E+03</pdfrwt>
<totfact> 0.62645043E+04</totfact>
</mgrwt>
</event>
<event>
 6    4  0.6195789E-003  0.1287435E+03  0.7818608E-02  0.1229332E+00
          4   -1    0    0  502    0 -0.00000000000E+00  0.00000000000E+00  0.79774830791E+02  0.79784939229E+02  0.12700000000E+01 0. -1.
         21   -1    0    0  501  502  0.00000000000E+00 -0.00000000000E+00 -0.21009281260E+03  0.21009281260E+03  0.00000000000E+00 0.  1.
         25    2    1    2    0    0  0.30749401423E+02  0.21404439886E+01  0.25321764436E+02  0.13121001503E+03  0.12499907641E+03 0.  0.
    9000005    1    3    3    0    0  0.55822861606E+02 -0.45539105529E+02  0.27916455944E+02  0.77267913928E+02  0.10000000000E+01 0.  0.
    9000005    1    3    3    0    0 -0.25073460183E+02  0.47679549518E+02 -0.25946915076E+01  0.53942101107E+02  0.10000000000E+01 0.  0.
          4    1    1    2  501    0 -0.30749401423E+02 -0.21404439886E+01 -0.15563974624E+03  0.15866773679E+03  0.12700000000E+01 0.  1.
<mgrwt>
<rscale>  1 0.12874345E+03</rscale>
<asrwt>0</asrwt>
<pdfrwt beam="2">  1       21 0.32321971E-01 0.12874345E+03</pdfrwt>
<pdfrwt beam="1">  1        4 0.12274124E-01 0.12874345E+03</pdfrwt>
<totfact> 0.20025012E+04</totfact>
</mgrwt>
</event>
<event>
 6    4  0.6195789E-003  0.1329576E+03  0.7818608E-02  0.1223132E+00
         21   -1    0    0  501  502  0.00000000000E+00  0.00000000000E+00  0.19036190780E+02  0.19036190780E+02  0.00000000000E+00 0. -1.
         -4   -1    0    0    0  501 -0.00000000000E+00 -0.00000000000E+00 -0.73794440837E+03  0.73794550121E+03  0.12700000000E+01 0.  1.
         25    2    1    2    0    0  0.13420729698E+01 -0.45277159433E+02 -0.69118991050E+03  0.70386164140E+03  0.12500358208E+03 0.  0.
    9000005    1    3    3    0    0 -0.48506501053E+02 -0.61015549757E+02 -0.34146094880E+03  0.35024613846E+03  0.10000000000E+01 0.  0.
    9000005    1    3    3    0    0  0.49848574023E+02  0.15738390324E+02 -0.34972896170E+03  0.35361550293E+03  0.10000000000E+01 0.  0.
         -4    1    1    2    0  502 -0.13420729698E+01  0.45277159433E+02 -0.27718307096E+02  0.53120050588E+02  0.12700000000E+01 0. -1.
<mgrwt>
<rscale>  1 0.13295758E+03</rscale>
<asrwt>0</asrwt>
<pdfrwt beam="1">  1       21 0.29286447E-02 0.13295758E+03</pdfrwt>
<pdfrwt beam="2">  1       -4 0.11353325E+00 0.13295758E+03</pdfrwt>
<totfact> 0.16952328E+04</totfact>
</mgrwt>
</event>
<event>
 6    4  0.6195789E-003  0.1282919E+03  0.7818608E-02  0.1230012E+00
         21   -1    0    0  501  502  0.00000000000E+00  0.00000000000E+00  0.78934718268E+03  0.78934718268E+03  0.00000000000E+00 0. -1.
         -4   -1    0    0    0  501 -0.00000000000E+00 -0.00000000000E+00 -0.77914922283E+01  0.78943176490E+01  0.12700000000E+01 0. -1.
         25    2    1    2    0    0 -0.49977572018E+00  0.28869929144E+02  0.62278047171E+03  0.63585715917E+03  0.12500035336E+03 0.  0.
    9000005    1    3    3    0    0  0.38330710945E+02  0.27342784940E+02  0.56026694079E+03  0.56224275561E+03  0.10000000000E+01 0.  0.
    9000005    1    3    3    0    0 -0.38830486665E+02  0.15271442047E+01  0.62513530919E+02  0.73614403564E+02  0.10000000000E+01 0.  0.
         -4    1    1    2    0  502  0.49977572018E+00 -0.28869929144E+02  0.15877521875E+03  0.16138434116E+03  0.12700000000E+01 0.  1.
<mgrwt>
<rscale>  1 0.12829190E+03</rscale>
<asrwt>0</asrwt>
<pdfrwt beam="1">  1       21 0.12143797E+00 0.12829190E+03</pdfrwt>
<pdfrwt beam="2">  1       -4 0.12066800E-02 0.12829190E+03</pdfrwt>
<totfact> 0.46352326E+04</totfact>
</mgrwt>
</event>
<event>
 6    4  0.6195789E-003  0.1279906E+03  0.7818608E-02  0.1230468E+00
         21   -1    0    0  501  502  0.00000000000E+00  0.00000000000E+00  0.51256191707E+03  0.51256191707E+03  0.00000000000E+00 0. -1.
         -4   -1    0    0    0  501 -0.00000000000E+00 -0.00000000000E+00 -0.11778109816E+02  0.11846382184E+02  0.12700000000E+01 0. -1.
         25    2    1    2    0    0  0.25670801914E+02  0.98152031956E+01  0.40395107094E+03  0.42374291292E+03  0.12500504089E+03 0.  0.
    9000005    1    3    3    0    0  0.21127311821E+02 -0.51532082992E+02  0.27852017305E+03  0.28403592322E+03  0.10000000000E+01 0.  0.
    9000005    1    3    3    0    0  0.45434900921E+01  0.61347286188E+02  0.12543089789E+03  0.13970698970E+03  0.10000000000E+01 0.  0.
         -4    1    1    2    0  502 -0.25670801914E+02 -0.98152031956E+01  0.96832736315E+02  0.10066538634E+03  0.12700000000E+01 0.  1.
<mgrwt>
<rscale>  1 0.12799058E+03</rscale>
<asrwt>0</asrwt>
<pdfrwt beam="1">  1       21 0.78855662E-01 0.12799058E+03</pdfrwt>
<pdfrwt beam="2">  1       -4 0.18173900E-02 0.12799058E+03</pdfrwt>
<totfact> 0.67953740E+04</totfact>
</mgrwt>
</event>
<event>
 6    4  0.6195789E-003  0.1268567E+03  0.7818608E-02  0.1232196E+00
         21   -1    0    0  501  502  0.00000000000E+00  0.00000000000E+00  0.10777418842E+03  0.10777418842E+03  0.00000000000E+00 0.  1.
          4   -1    0    0  502    0 -0.00000000000E+00 -0.00000000000E+00 -0.53460414558E+02  0.53475497424E+02  0.12700000000E+01 0.  1.
         25    2    1    2    0    0 -0.70016311011E+01 -0.20545647778E+02  0.57490356645E+02  0.13927583641E+03  0.12498588328E+03 0.  0.
    9000005    1    3    3    0    0  0.28637161912E+02 -0.10001999203E+02  0.86787138041E+02  0.91940928644E+02  0.10000000000E+01 0.  0.
    9000005    1    3    3    0    0 -0.35638793014E+02 -0.10543648576E+02 -0.29296781396E+02  0.47334907763E+02  0.10000000000E+01 0.  0.
          4    1    1    2  501    0  0.70016311011E+01  0.20545647778E+02 -0.31765827875E+01  0.21973849433E+02  0.12700000000E+01 0. -1.
<mgrwt>
<rscale>  1 0.12685668E+03</rscale>
<asrwt>0</asrwt>
<pdfrwt beam="1">  1       21 0.16580644E-01 0.12685668E+03</pdfrwt>
<pdfrwt beam="2">  1        4 0.82264150E-02 0.12685668E+03</pdfrwt>
<totfact> 0.13724830E+05</totfact>
</mgrwt>
</event>
<event>
 6    4  0.6195789E-003  0.1309619E+03  0.7818608E-02  0.1226035E+00
         -4   -1    0    0    0  501 -0.00000000000E+00  0.00000000000E+00  0.96508118955E+01  0.97340161415E+01  0.12700000000E+01 0. -1.
         21   -1    0    0  501  502  0.00000000000E+00 -0.00000000000E+00 -0.14103862483E+04  0.14103862483E+04  0.00000000000E+00 0.  1.
         25    2    1    2    0    0 -0.37402125734E+02 -0.11238955150E+02 -0.45224817414E+03  0.47082845857E+03  0.12500317301E+03 0.  0.
    9000005    1    3    3    0    0  0.37171911035E+02 -0.11626515137E+02 -0.59909009725E+02  0.71463391121E+02  0.10000000000E+01 0.  0.
    9000005    1    3    3    0    0 -0.74574036769E+02  0.38755998728E+00 -0.39233916442E+03  0.39936506745E+03  0.10000000000E+01 0.  0.
         -4    1    1    2    0  502  0.37402125734E+02  0.11238955150E+02 -0.94848726226E+03  0.94929180587E+03  0.12700000000E+01 0.  1.
<mgrwt>
<rscale>  1 0.13096193E+03</rscale>
<asrwt>0</asrwt>
<pdfrwt beam="2">  1       21 0.21698248E+00 0.13096193E+03</pdfrwt>
<pdfrwt beam="1">  1       -4 0.14911847E-02 0.13096193E+03</pdfrwt>
<totfact> 0.70842452E+03</totfact>
</mgrwt>
</event>
<event>
 6    4  0.6195789E-003  0.1267802E+03  0.7818608E-02  0.1232313E+00
          4   -1    0    0  502    0 -0.00000000000E+00  0.00000000000E+00  0.86701400572E+02  0.86710701537E+02  0.12700000000E+01 0. -1.
         21   -1    0    0  501  502  0.00000000000E+00 -0.00000000000E+00 -0.90036853339E+02  0.90036853339E+02  0.00000000000E+00 0.  1.
         25    2    1    2    0    0  0.21062141117E+02 -0.16748668337E+01  0.36247834939E+02  0.13186026789E+03  0.12500722276E+03 0.  0.
    9000005    1    3    3    0    0 -0.32522277369E+02  0.33901094896E+02 -0.15311152026E+02  0.49420786485E+02  0.10000000000E+01 0.  0.
    9000005    1    3    3    0    0  0.53584418486E+02 -0.35575961730E+02  0.51558986965E+02  0.82439481405E+02  0.10000000000E+01 0.  0.
          4    1    1    2  501    0 -0.21062141117E+02  0.16748668337E+01 -0.39583287706E+02  0.44887286986E+02  0.12700000000E+01 0.  1.
<mgrwt>
<rscale>  1 0.12678022E+03</rscale>
<asrwt>0</asrwt>
<pdfrwt beam="2">  1       21 0.13851824E-01 0.12678022E+03</pdfrwt>
<pdfrwt beam="1">  1        4 0.13340081E-01 0.12678022E+03</pdfrwt>
<totfact> 0.83872248E+04</totfact>
</mgrwt>
</event>
<event>
 6    4  0.6195789E-003  0.1277981E+03  0.7818608E-02  0.1230760E+00
         21   -1    0    0  501  502  0.00000000000E+00  0.00000000000E+00  0.28314143015E+02  0.28314143015E+02  0.00000000000E+00 0. -1.
          4   -1    0    0  502    0 -0.00000000000E+00 -0.00000000000E+00 -0.22495383101E+03  0.22495741593E+03  0.12700000000E+01 0. -1.
         25    2    1    2    0    0 -0.26474030566E+01  0.26573592918E+02 -0.18313861638E+03  0.22332065883E+03  0.12497679491E+03 0.  0.
    9000005    1    3    3    0    0  0.30354399467E+02  0.12476243945E+02 -0.18449557613E+03  0.18739440718E+03  0.10000000000E+01 0.  0.
    9000005    1    3    3    0    0 -0.33001802524E+02  0.14097348973E+02  0.13569597486E+01  0.35926251651E+02  0.10000000000E+01 0.  0.
          4    1    1    2  501    0  0.26474030566E+01 -0.26573592918E+02 -0.13501071611E+02  0.29950900123E+02  0.12700000000E+01 0.  1.
<mgrwt>
<rscale>  1 0.12779814E+03</rscale>
<asrwt>0</asrwt>
<pdfrwt beam="1">  1       21 0.43560220E-02 0.12779814E+03</pdfrwt>
<pdfrwt beam="2">  1        4 0.34610749E-01 0.12779814E+03</pdfrwt>
<totfact> 0.10920896E+05</totfact>
</mgrwt>
</event>
<event>
 6    4  0.6195789E-003  0.1429256E+03  0.7818608E-02  0.1209446E+00
         21   -1    0    0  501  502  0.00000000000E+00  0.00000000000E+00  0.20554696065E+03  0.20554696065E+03  0.00000000000E+00 0. -1.
          4   -1    0    0  502    0 -0.00000000000E+00 -0.00000000000E+00 -0.90779292763E+02  0.90788175962E+02  0.12700000000E+01 0.  1.
         25    2    1    2    0    0 -0.46033396675E+02 -0.51797963500E+02 -0.20457872650E+02  0.14438230727E+03  0.12500249384E+03 0.  0.
    9000005    1    3    3    0    0  0.40184451677E+02 -0.11271893440E+02 -0.25599136469E+02  0.48971027417E+02  0.10000000000E+01 0.  0.
    9000005    1    3    3    0    0 -0.86217848353E+02 -0.40526070060E+02  0.51412638192E+01  0.95411279851E+02  0.10000000000E+01 0.  0.
          4    1    1    2  501    0  0.46033396675E+02  0.51797963500E+02  0.13522554054E+03  0.15195282935E+03  0.12700000000E+01 0. -1.
<mgrwt>
<rscale>  1 0.14292560E+03</rscale>
<asrwt>0</asrwt>
<pdfrwt beam="1">  1       21 0.31622609E-01 0.14292560E+03</pdfrwt>
<pdfrwt beam="2">  1        4 0.13967030E-01 0.14292560E+03</pdfrwt>
<totfact> 0.16881638E+04</totfact>
</mgrwt>
</event>
<event>
 6    4  0.6195789E-003  0.1266268E+03  0.7818608E-02  0.1232549E+00
         -4   -1    0    0    0  501 -0.00000000000E+00  0.00000000000E+00  0.39596834523E+03  0.39597038188E+03  0.12700000000E+01 0.  1.
         21   -1    0    0  501  502  0.00000000000E+00 -0.00000000000E+00 -0.17908359702E+02  0.17908359702E+02  0.00000000000E+00 0.  1.
         25    2    1    2    0    0  0.16506810104E+02 -0.11671711886E+02  0.37165432926E+03  0.39263376640E+03  0.12500252167E+03 0.  0.
    9000005    1    3    3    0    0  0.53323969181E+02  0.31954295401E+02  0.25874655583E+03  0.26611144816E+03  0.10000000000E+01 0.  0.
    9000005    1    3    3    0    0 -0.36817159078E+02 -0.43626007287E+02  0.11290777343E+03  0.12652231825E+03  0.10000000000E+01 0.  0.
         -4    1    1    2    0  502 -0.16506810104E+02  0.11671711886E+02  0.64056562706E+01  0.21244975180E+02  0.12700000000E+01 0. -1.
<mgrwt>
<rscale>  1 0.12662675E+03</rscale>
<asrwt>0</asrwt>
<pdfrwt beam="2">  1       21 0.27551326E-02 0.12662675E+03</pdfrwt>
<pdfrwt beam="1">  1       -4 0.60921821E-01 0.12662675E+03</pdfrwt>
<totfact> 0.74574167E+04</totfact>
</mgrwt>
</event>
<event>
 6    4  0.6195789E-003  0.1271013E+03  0.7818608E-02  0.1231821E+00
         21   -1    0    0  501  502  0.00000000000E+00  0.00000000000E+00  0.23834641432E+02  0.23834641432E+02  0.00000000000E+00 0.  1.
          4   -1    0    0  502    0 -0.00000000000E+00 -0.00000000000E+00 -0.26917769555E+03  0.26918069151E+03  0.12700000000E+01 0.  1.
         25    2    1    2    0    0 -0.10954606359E+02 -0.20243082464E+02 -0.23618101190E+03  0.26820925091E+03  0.12499978441E+03 0.  0.
    9000005    1    3    3    0    0  0.10299053441E+02 -0.16465998534E+02 -0.24433835174E+03  0.24511105593E+03  0.10000000000E+01 0.  0.
    9000005    1    3    3    0    0 -0.21253659800E+02 -0.37770839299E+01  0.81573398371E+01  0.23098194976E+02  0.10000000000E+01 0.  0.
          4    1    1    2  501    0  0.10954606359E+02  0.20243082464E+02 -0.91620422104E+01  0.24806082028E+02  0.12700000000E+01 0. -1.
<mgrwt>
<rscale>  1 0.12710127E+03</rscale>
<asrwt>0</asrwt>
<pdfrwt beam="1">  1       21 0.36668679E-02 0.12710127E+03</pdfrwt>
<pdfrwt beam="2">  1        4 0.41414787E-01 0.12710127E+03</pdfrwt>
<totfact> 0.10236641E+05</totfact>
</mgrwt>
</event>
<event>
 6    4  0.6195789E-003  0.1483240E+03  0.7818608E-02  0.1202548E+00
         21   -1    0    0  501  502  0.00000000000E+00  0.00000000000E+00  0.35708092973E+02  0.35708092973E+02  0.00000000000E+00 0.  1.
          4   -1    0    0  502    0 -0.00000000000E+00 -0.00000000000E+00 -0.43094194201E+03  0.43094381337E+03  0.12700000000E+01 0. -1.
         25    2    1    2    0    0  0.40209253020E+02  0.68975562769E+02 -0.33583758099E+03  0.36713335609E+03  0.12500243221E+03 0.  0.
    9000005    1    3    3    0    0 -0.42427155081E-01 -0.13704456037E+02  0.46022883621E+01  0.14491203314E+02  0.10000000000E+01 0.  0.
    9000005    1    3    3    0    0  0.40251680175E+02  0.82680018805E+02 -0.34043986935E+03  0.35264215277E+03  0.10000000000E+01 0.  0.
          4    1    1    2  501    0 -0.40209253020E+02 -0.68975562769E+02 -0.59396268044E+02  0.99518550257E+02  0.12700000000E+01 0.  1.
<mgrwt>
<rscale>  1 0.14832404E+03</rscale>
<asrwt>0</asrwt>
<pdfrwt beam="1">  1       21 0.54935531E-02 0.14832404E+03</pdfrwt>
<pdfrwt beam="2">  1        4 0.66300638E-01 0.14832404E+03</pdfrwt>
<totfact> 0.20175551E+04</totfact>
</mgrwt>
</event>
<event>
 6    4  0.6195789E-003  0.1288382E+03  0.7818608E-02  0.1229190E+00
         21   -1    0    0  501  502  0.00000000000E+00  0.00000000000E+00  0.33220278603E+03  0.33220278603E+03  0.00000000000E+00 0.  1.
          4   -1    0    0  502    0 -0.00000000000E+00 -0.00000000000E+00 -0.21001659568E+02  0.21040023873E+02  0.12700000000E+01 0. -1.
         25    2    1    2    0    0 -0.21814829148E+02  0.22342511139E+02  0.20142844659E+03  0.23910811439E+03  0.12499678674E+03 0.  0.
    9000005    1    3    3    0    0 -0.31470036592E+02 -0.48074341241E+02  0.82150343663E+02  0.10025559562E+03  0.10000000000E+01 0.  0.
    9000005    1    3    3    0    0  0.96552074435E+01  0.70416852381E+02  0.11927810293E+03  0.13885251877E+03  0.10000000000E+01 0.  0.
          4    1    1    2  501    0  0.21814829148E+02 -0.22342511139E+02  0.10977267987E+03  0.11413469552E+03  0.12700000000E+01 0.  1.
<mgrwt>
<rscale>  1 0.12883816E+03</rscale>
<asrwt>0</asrwt>
<pdfrwt beam="1">  1       21 0.51108117E-01 0.12883816E+03</pdfrwt>
<pdfrwt beam="2">  1        4 0.32341626E-02 0.12883816E+03</pdfrwt>
<totfact> 0.70529112E+04</totfact>
</mgrwt>
</event>
<event>
 6    4  0.6195789E-003  0.1365366E+03  0.7818608E-02  0.1218067E+00
          4   -1    0    0  502    0 -0.00000000000E+00  0.00000000000E+00  0.14239902862E+04  0.14239908525E+04  0.12700000000E+01 0.  1.
         21   -1    0    0  501  502  0.00000000000E+00 -0.00000000000E+00 -0.65286797448E+01  0.65286797448E+01  0.00000000000E+00 0.  1.
         25    2    1    2    0    0  0.48288615855E+02 -0.26187402751E+02  0.10833067384E+04  0.10918771556E+04  0.12499865255E+03 0.  0.
    9000005    1    3    3    0    0  0.49249208865E+02 -0.66689544651E+02  0.91548500079E+03  0.91923161750E+03  0.10000000000E+01 0.  0.
    9000005    1    3    3    0    0 -0.96059300973E+00  0.40502141900E+02  0.16782173757E+03  0.17264553813E+03  0.10000000000E+01 0.  0.
          4    1    1    2  501    0 -0.48288615855E+02  0.26187402751E+02  0.33415486807E+03  0.33864237661E+03  0.12700000000E+01 0. -1.
<mgrwt>
<rscale>  1 0.13653657E+03</rscale>
<asrwt>0</asrwt>
<pdfrwt beam="2">  1       21 0.10044134E-02 0.13653657E+03</pdfrwt>
<pdfrwt beam="1">  1        4 0.21908473E+00 0.13653657E+03</pdfrwt>
<totfact> 0.16923259E+04</totfact>
</mgrwt>
</event>
<event>
 6    4  0.6195789E-003  0.1273324E+03  0.7818608E-02  0.1231468E+00
         21   -1    0    0  501  502  0.00000000000E+00  0.00000000000E+00  0.69132438151E+02  0.69132438151E+02  0.00000000000E+00 0.  1.
         -4   -1    0    0    0  501 -0.00000000000E+00 -0.00000000000E+00 -0.10351128165E+03  0.10351907229E+03  0.12700000000E+01 0.  1.
         25    2    1    2    0    0  0.36570203183E+01  0.23978150953E+02 -0.56956011206E+02  0.13949028425E+03  0.12500090667E+03 0.  0.
    9000005    1    3    3    0    0 -0.57170333047E+02  0.24136942259E+02 -0.10503490585E+02  0.62947297613E+02  0.10000000000E+01 0.  0.
    9000005    1    3    3    0    0  0.60827353365E+02 -0.15879130595E+00 -0.46452520621E+02  0.76542986642E+02  0.10000000000E+01 0.  0.
         -4    1    1    2    0  502 -0.36570203183E+01 -0.23978150953E+02  0.22577167708E+02  0.33161226190E+02  0.12700000000E+01 0. -1.
<mgrwt>
<rscale>  1 0.12733245E+03</rscale>
<asrwt>0</asrwt>
<pdfrwt beam="1">  1       21 0.10635760E-01 0.12733245E+03</pdfrwt>
<pdfrwt beam="2">  1       -4 0.15926309E-01 0.12733245E+03</pdfrwt>
<totfact> 0.98504233E+04</totfact>
</mgrwt>
</event>
<event>
 6    4  0.6195789E-003  0.1286368E+03  0.7818608E-02  0.1229493E+00
         21   -1    0    0  501  502  0.00000000000E+00  0.00000000000E+00  0.13860242669E+04  0.13860242669E+04  0.00000000000E+00 0. -1.
         -4   -1    0    0    0  501 -0.00000000000E+00 -0.00000000000E+00 -0.87444738762E+01  0.88362165756E+01  0.12700000000E+01 0.  1.
         25    2    1    2    0    0 -0.23648836511E+02  0.19060402486E+02  0.47621546220E+03  0.49328347202E+03  0.12499940365E+03 0.  0.
    9000005    1    3    3    0    0  0.38816919649E+01  0.60100112347E+02  0.38363037783E+03  0.38833021751E+03  0.10000000000E+01 0.  0.
    9000005    1    3    3    0    0 -0.27530528476E+02 -0.41039709861E+02  0.92585084374E+02  0.10495325451E+03  0.10000000000E+01 0.  0.
         -4    1    1    2    0  502  0.23648836511E+02 -0.19060402486E+02  0.90106433079E+03  0.90157701142E+03  0.12700000000E+01 0. -1.
<mgrwt>
<rscale>  1 0.12863677E+03</rscale>
<asrwt>0</asrwt>
<pdfrwt beam="1">  1       21 0.21323433E+00 0.12863677E+03</pdfrwt>
<pdfrwt beam="2">  1       -4 0.13524067E-02 0.12863677E+03</pdfrwt>
<totfact> 0.86590690E+03</totfact>
</mgrwt>
</event>
<event>
 6    4  0.6195789E-003  0.1267489E+03  0.7818608E-02  0.1232361E+00
          4   -1    0    0  502    0 -0.00000000000E+00  0.00000000000E+00  0.15285992084E+04  0.15285997359E+04  0.12700000000E+01 0. -1.
         21   -1    0    0  501  502  0.00000000000E+00 -0.00000000000E+00 -0.78788478061E+01  0.78788478061E+01  0.00000000000E+00 0.  1.
         25    2    1    2    0    0  0.16833153841E+02  0.12532282663E+02  0.15047438239E+04  0.15100726033E+04  0.12499951457E+03 0.  0.
    9000005    1    3    3    0    0  0.25282083099E+02 -0.14310623601E+02  0.81130763548E+02  0.86181079522E+02  0.10000000000E+01 0.  0.
    9000005    1    3    3    0    0 -0.84489292575E+01  0.26842906264E+02  0.14236130603E+04  0.14238915238E+04  0.10000000000E+01 0.  0.
          4    1    1    2  501    0 -0.16833153841E+02 -0.12532282663E+02  0.15976536654E+02  0.26405980391E+02  0.12700000000E+01 0.  1.
<mgrwt>
<rscale>  1 0.12674893E+03</rscale>
<asrwt>0</asrwt>
<pdfrwt beam="2">  1       21 0.12121317E-02 0.12674893E+03</pdfrwt>
<pdfrwt beam="1">  1        4 0.23517679E+00 0.12674893E+03</pdfrwt>
<totfact> 0.10045593E+04</totfact>
</mgrwt>
</event>
<event>
 6    4  0.6195789E-003  0.1283962E+03  0.7818608E-02  0.1229855E+00
         -4   -1    0    0    0  501 -0.00000000000E+00  0.00000000000E+00  0.15963089023E+03  0.15963594212E+03  0.12700000000E+01 0.  1.
         21   -1    0    0  501  502  0.00000000000E+00 -0.00000000000E+00 -0.39976210291E+02  0.39976210291E+02  0.00000000000E+00 0.  1.
         25    2    1    2    0    0  0.28956787678E+02 -0.47156168133E+01  0.10883349514E+03  0.16831608980E+03  0.12499937530E+03 0.  0.
    9000005    1    3    3    0    0  0.39797157898E+02 -0.58671315787E+02  0.44770382416E+02  0.83854184241E+02  0.10000000000E+01 0.  0.
    9000005    1    3    3    0    0 -0.10840370220E+02  0.53955698974E+02  0.64063112725E+02  0.84461905557E+02  0.10000000000E+01 0.  0.
         -4    1    1    2    0  502 -0.28956787678E+02  0.47156168133E+01  0.10821184799E+02  0.31296062612E+02  0.12700000000E+01 0. -1.
<mgrwt>
<rscale>  1 0.12839617E+03</rscale>
<asrwt>0</asrwt>
<pdfrwt beam="2">  1       21 0.61501863E-02 0.12839617E+03</pdfrwt>
<pdfrwt beam="1">  1       -4 0.24560538E-01 0.12839617E+03</pdfrwt>
<totfact> 0.11661999E+05</totfact>
</mgrwt>
</event>
<event>
 6    4  0.6195789E-003  0.1331973E+03  0.7818608E-02  0.1222787E+00
          4   -1    0    0  502    0 -0.00000000000E+00  0.00000000000E+00  0.40166428184E+01  0.42126380726E+01  0.12700000000E+01 0.  1.
         21   -1    0    0  501  502  0.00000000000E+00 -0.00000000000E+00 -0.28184129652E+04  0.28184129652E+04  0.00000000000E+00 0. -1.
         25    2    1    2    0    0 -0.60745583511E+01  0.45592797390E+02 -0.11653406708E+04  0.11729281285E+04  0.12500364843E+03 0.  0.
    9000005    1    3    3    0    0 -0.49833513594E+02  0.57662855914E+02 -0.93838367615E+03  0.94147400797E+03  0.10000000000E+01 0.  0.
    9000005    1    3    3    0    0  0.43758955243E+02 -0.12070058524E+02 -0.22695699467E+03  0.23145412053E+03  0.10000000000E+01 0.  0.
          4    1    1    2  501    0  0.60745583511E+01 -0.45592797390E+02 -0.16490556516E+04  0.16496974748E+04  0.12700000000E+01 0. -1.
<mgrwt>
<rscale>  1 0.13319728E+03</rscale>
<asrwt>0</asrwt>
<pdfrwt beam="2">  1       21 0.43360560E+00 0.13319728E+03</pdfrwt>
<pdfrwt beam="1">  1        4 0.63303836E-03 0.13319728E+03</pdfrwt>
<totfact> 0.13838607E+03</totfact>
</mgrwt>
</event>
<event>
 6    4  0.6195789E-003  0.1279803E+03  0.7818608E-02  0.1230484E+00
         21   -1    0    0  501  502  0.00000000000E+00  0.00000000000E+00  0.12847204049E+03  0.12847204049E+03  0.00000000000E+00 0.  1.
          4   -1    0    0  502    0 -0.00000000000E+00 -0.00000000000E+00 -0.49728324052E+02  0.49744538524E+02  0.12700000000E+01 0.  1.
         25    2    1    2    0    0 -0.17845725922E+01  0.27395086946E+02  0.47265431966E+02  0.13642937067E+03  0.12500110653E+03 0.  0.
    9000005    1    3    3    0    0  0.39539361484E+02 -0.33564724944E+02  0.65906963666E+01  0.52291386917E+02  0.10000000000E+01 0.  0.
    9000005    1    3    3    0    0 -0.41323934076E+02  0.60959811890E+02  0.40674735599E+02  0.84137983749E+02  0.10000000000E+01 0.  0.
          4    1    1    2  501    0  0.17845725922E+01 -0.27395086946E+02  0.31478284468E+02  0.41787208344E+02  0.12700000000E+01 0. -1.
<mgrwt>
<rscale>  1 0.12798028E+03</rscale>
<asrwt>0</asrwt>
<pdfrwt beam="1">  1       21 0.19764929E-01 0.12798028E+03</pdfrwt>
<pdfrwt beam="2">  1        4 0.76522416E-02 0.12798028E+03</pdfrwt>
<totfact> 0.11227977E+05</totfact>
</mgrwt>
</event>
<event>
 6    4  0.6195789E-003  0.1269952E+03  0.7818608E-02  0.1231984E+00
         21   -1    0    0  501  502  0.00000000000E+00  0.00000000000E+00  0.51852427279E+01  0.51852427279E+01  0.00000000000E+00 0. -1.
         -4   -1    0    0    0  501 -0.00000000000E+00 -0.00000000000E+00 -0.21664051329E+04  0.21664055051E+04  0.12700000000E+01 0. -1.
         25    2    1    2    0    0  0.86719049489E+00  0.22426155714E+02 -0.21261227255E+04  0.21299121161E+04  0.12499637557E+03 0.  0.
    9000005    1    3    3    0    0  0.25825140231E+02  0.24358211954E+01 -0.19865552532E+04  0.19867248539E+04  0.10000000000E+01 0.  0.
    9000005    1    3    3    0    0 -0.24957949736E+02  0.19990334519E+02 -0.13956747229E+03  0.14318726218E+03  0.10000000000E+01 0.  0.
         -4    1    1    2    0  502 -0.86719049489E+00 -0.22426155714E+02 -0.35097164648E+02  0.41678631765E+02  0.12700000000E+01 0.  1.
<mgrwt>
<rscale>  1 0.12699519E+03</rscale>
<asrwt>0</asrwt>
<pdfrwt beam="1">  1       21 0.79773001E-03 0.12699519E+03</pdfrwt>
<pdfrwt beam="2">  1       -4 0.33330494E+00 0.12699519E+03</pdfrwt>
<totfact> 0.52587394E+03</totfact>
</mgrwt>
</event>
<event>
 6    4  0.6195789E-003  0.1330385E+03  0.7818608E-02  0.1223015E+00
         21   -1    0    0  501  502  0.00000000000E+00  0.00000000000E+00  0.22051691516E+03  0.22051691516E+03  0.00000000000E+00 0. -1.
          4   -1    0    0  502    0 -0.00000000000E+00 -0.00000000000E+00 -0.93396510557E+02  0.93405144849E+02  0.12700000000E+01 0.  1.
         25    2    1    2    0    0  0.29270412795E+02  0.34886790593E+02 -0.41416670268E+02  0.13933625380E+03  0.12500162329E+03 0.  0.
    9000005    1    3    3    0    0 -0.72660740613E+01 -0.42339744391E+02 -0.31592354641E+02  0.53334104090E+02  0.10000000000E+01 0.  0.
    9000005    1    3    3    0    0  0.36536486857E+02  0.77226534984E+02 -0.98243156267E+01  0.86002149711E+02  0.10000000000E+01 0.  0.
          4    1    1    2  501    0 -0.29270412795E+02 -0.34886790593E+02  0.16853707487E+03  0.17458580621E+03  0.12700000000E+01 0. -1.
<mgrwt>
<rscale>  1 0.13303853E+03</rscale>
<asrwt>0</asrwt>
<pdfrwt beam="1">  1       21 0.33925679E-01 0.13303853E+03</pdfrwt>
<pdfrwt beam="2">  1        4 0.14369639E-01 0.13303853E+03</pdfrwt>
<totfact> 0.13923708E+04</totfact>
</mgrwt>
</event>
<event>
 6    4  0.6195789E-003  0.1529923E+03  0.7818608E-02  0.1196844E+00
         -4   -1    0    0    0  501 -0.00000000000E+00  0.00000000000E+00  0.30016994735E+02  0.30043849170E+02  0.12700000000E+01 0.  1.
         21   -1    0    0  501  502  0.00000000000E+00 -0.00000000000E+00 -0.48884268138E+03  0.48884268138E+03  0.00000000000E+00 0.  1.
         25    2    1    2    0    0 -0.56470024706E+02 -0.67766415071E+02 -0.31440009693E+03  0.34964848942E+03  0.12500197799E+03 0.  0.
    9000005    1    3    3    0    0 -0.62512039468E+02  0.88314672110E+01 -0.74055930907E+02  0.97319221093E+02  0.10000000000E+01 0.  0.
    9000005    1    3    3    0    0  0.60420147618E+01 -0.76597882282E+02 -0.24034416602E+03  0.25232926833E+03  0.10000000000E+01 0.  0.
         -4    1    1    2    0  502  0.56470024706E+02  0.67766415071E+02 -0.14442558972E+03  0.16923804113E+03  0.12700000000E+01 0. -1.
<mgrwt>
<rscale>  1 0.15299230E+03</rscale>
<asrwt>0</asrwt>
<pdfrwt beam="2">  1       21 0.75206565E-01 0.15299230E+03</pdfrwt>
<pdfrwt beam="1">  1       -4 0.46201919E-02 0.15299230E+03</pdfrwt>
<totfact> 0.17796122E+04</totfact>
</mgrwt>
</event>
<event>
 6    4  0.6195789E-003  0.1275391E+03  0.7818608E-02  0.1231154E+00
         21   -1    0    0  501  502  0.00000000000E+00  0.00000000000E+00  0.89267784911E+03  0.89267784911E+03  0.00000000000E+00 0. -1.
          4   -1    0    0  502    0 -0.00000000000E+00 -0.00000000000E+00 -0.31488997043E+02  0.31514597170E+02  0.12700000000E+01 0.  1.
         25    2    1    2    0    0 -0.25299259615E+02  0.90479034131E+00  0.98667181113E+02  0.16124960258E+03  0.12500140207E+03 0.  0.
    9000005    1    3    3    0    0  0.29619785064E+01 -0.32383887348E+02  0.11115683976E+03  0.11582025946E+03  0.10000000000E+01 0.  0.
    9000005    1    3    3    0    0 -0.28261238122E+02  0.33288677689E+02 -0.12489658649E+02  0.45429343112E+02  0.10000000000E+01 0.  0.
          4    1    1    2  501    0  0.25299259615E+02 -0.90479034131E+00  0.76252167095E+03  0.76294284370E+03  0.12700000000E+01 0. -1.
<mgrwt>
<rscale>  1 0.12753910E+03</rscale>
<asrwt>0</asrwt>
<pdfrwt beam="1">  1       21 0.13733503E+00 0.12753910E+03</pdfrwt>
<pdfrwt beam="2">  1        4 0.48465005E-02 0.12753910E+03</pdfrwt>
<totfact> 0.39422691E+03</totfact>
</mgrwt>
</event>
<event>
 6    4  0.6195789E-003  0.1319406E+03  0.7818608E-02  0.1224604E+00
          4   -1    0    0  502    0 -0.00000000000E+00  0.00000000000E+00  0.16661183081E+03  0.16661667104E+03  0.12700000000E+01 0.  1.
         21   -1    0    0  501  502  0.00000000000E+00 -0.00000000000E+00 -0.96125883211E+02  0.96125883211E+02  0.00000000000E+00 0. -1.
         25    2    1    2    0    0 -0.14863794839E+02 -0.39515766975E+02  0.13297015808E+03  0.18732161753E+03  0.12500358882E+03 0.  0.
    9000005    1    3    3    0    0 -0.72506405823E+01 -0.66023875759E+02  0.14322502005E+03  0.15788011378E+03  0.10000000000E+01 0.  0.
    9000005    1    3    3    0    0 -0.76131542564E+01  0.26508108784E+02 -0.10254861971E+02  0.29441503751E+02  0.10000000000E+01 0.  0.
          4    1    1    2  501    0  0.14863794839E+02  0.39515766975E+02 -0.62484210475E+02  0.75420936717E+02  0.12700000000E+01 0. -1.
<mgrwt>
<rscale>  1 0.13194061E+03</rscale>
<asrwt>0</asrwt>
<pdfrwt beam="2">  1       21 0.14788597E-01 0.13194061E+03</pdfrwt>
<pdfrwt beam="1">  1        4 0.25633607E-01 0.13194061E+03</pdfrwt>
<totfact> 0.23374906E+04</totfact>
</mgrwt>
</event>
<event>
 6    4  0.6195789E-003  0.1519651E+03  0.7818608E-02  0.1198079E+00
         21   -1    0    0  501  502  0.00000000000E+00  0.00000000000E+00  0.10355543154E+03  0.10355543154E+03  0.00000000000E+00 0.  1.
         -4   -1    0    0    0  501 -0.00000000000E+00 -0.00000000000E+00 -0.26454143710E+03  0.26454448557E+03  0.12700000000E+01 0. -1.
         25    2    1    2    0    0 -0.86202642466E+02  0.61047703868E+01 -0.21713812926E+03  0.26503276576E+03  0.12500094384E+03 0.  0.
    9000005    1    3    3    0    0 -0.11525550721E+03 -0.14214684038E+02 -0.15828740846E+03  0.19632063789E+03  0.10000000000E+01 0.  0.
    9000005    1    3    3    0    0  0.29052864747E+02  0.20319454425E+02 -0.58850720797E+02  0.68712127870E+02  0.10000000000E+01 0.  0.
         -4    1    1    2    0  502  0.86202642466E+02 -0.61047703868E+01  0.56152123700E+02  0.10306715134E+03  0.12700000000E+01 0.  1.
<mgrwt>
<rscale>  1 0.15196513E+03</rscale>
<asrwt>0</asrwt>
<pdfrwt beam="1">  1       21 0.15931605E-01 0.15196513E+03</pdfrwt>
<pdfrwt beam="2">  1       -4 0.40699515E-01 0.15196513E+03</pdfrwt>
<totfact> 0.85483298E+03</totfact>
</mgrwt>
</event>
<event>
 6    4  0.6195789E-003  0.1349129E+03  0.7818608E-02  0.1220343E+00
         21   -1    0    0  501  502  0.00000000000E+00  0.00000000000E+00  0.27832576087E+03  0.27832576087E+03  0.00000000000E+00 0. -1.
         -4   -1    0    0    0  501 -0.00000000000E+00 -0.00000000000E+00 -0.75264711972E+02  0.75275426058E+02  0.12700000000E+01 0.  1.
         25    2    1    2    0    0  0.40131785197E+02  0.31087210976E+02 -0.93194522855E+01  0.13523437385E+03  0.12499803523E+03 0.  0.
    9000005    1    3    3    0    0  0.78585736994E+02  0.31406209016E+01 -0.28923792037E+02  0.83804339412E+02  0.10000000000E+01 0.  0.
    9000005    1    3    3    0    0 -0.38453951797E+02  0.27946590074E+02  0.19604339751E+02  0.51430034442E+02  0.10000000000E+01 0.  0.
         -4    1    1    2    0  502 -0.40131785197E+02 -0.31087210976E+02  0.21238050119E+03  0.21836681308E+03  0.12700000000E+01 0. -1.
<mgrwt>
<rscale>  1 0.13491287E+03</rscale>
<asrwt>0</asrwt>
<pdfrwt beam="1">  1       21 0.42819347E-01 0.13491287E+03</pdfrwt>
<pdfrwt beam="2">  1       -4 0.11580234E-01 0.13491287E+03</pdfrwt>
<totfact> 0.12720754E+04</totfact>
</mgrwt>
</event>
<event>
 6    4  0.6195789E-003  0.1276783E+03  0.7818608E-02  0.1230942E+00
          4   -1    0    0  502    0 -0.00000000000E+00  0.00000000000E+00  0.27752735707E+03  0.27753026289E+03  0.12700000000E+01 0.  1.
         21   -1    0    0  501  502  0.00000000000E+00 -0.00000000000E+00 -0.28023803992E+02  0.28023803992E+02  0.00000000000E+00 0.  1.
         25    2    1    2    0    0  0.11388920422E+02  0.23355825896E+02  0.24866107830E+03  0.27952476079E+03  0.12500623155E+03 0.  0.
    9000005    1    3    3    0    0  0.59793651447E+02  0.73596244999E+01  0.20060540198E+03  0.20945875997E+03  0.10000000000E+01 0.  0.
    9000005    1    3    3    0    0 -0.48404731025E+02  0.15996201396E+02  0.48055676316E+02  0.70066000820E+02  0.10000000000E+01 0.  0.
          4    1    1    2  501    0 -0.11388920422E+02 -0.23355825896E+02  0.84247477578E+00  0.26029306088E+02  0.12700000000E+01 0. -1.
<mgrwt>
<rscale>  1 0.12767835E+03</rscale>
<asrwt>0</asrwt>
<pdfrwt beam="2">  1       21 0.43113547E-02 0.12767835E+03</pdfrwt>
<pdfrwt beam="1">  1        4 0.42698952E-01 0.12767835E+03</pdfrwt>
<totfact> 0.73696540E+04</totfact>
</mgrwt>
</event>
<event>
 6    4  0.6195789E-003  0.1332258E+03  0.7818608E-02  0.1222746E+00
         21   -1    0    0  501  502  0.00000000000E+00  0.00000000000E+00  0.86076786789E+01  0.86076786789E+01  0.00000000000E+00 0.  1.
          4   -1    0    0  502    0 -0.00000000000E+00 -0.00000000000E+00 -0.17295383613E+04  0.17295388276E+04  0.12700000000E+01 0. -1.
         25    2    1    2    0    0  0.74097665882E+01 -0.45492311711E+02 -0.16367655364E+04  0.16421785960E+04  0.12499865945E+03 0.  0.
    9000005    1    3    3    0    0  0.42109558120E+02  0.25705604360E+02 -0.85137450996E+03  0.85280334732E+03  0.10000000000E+01 0.  0.
    9000005    1    3    3    0    0 -0.34699791532E+02 -0.71197916071E+02 -0.78539102644E+03  0.78937524866E+03  0.10000000000E+01 0.  0.
          4    1    1    2  501    0 -0.74097665882E+01  0.45492311711E+02 -0.84165146210E+02  0.95967910274E+02  0.12700000000E+01 0.  1.
<mgrwt>
<rscale>  1 0.13322582E+03</rscale>
<asrwt>0</asrwt>
<pdfrwt beam="1">  1       21 0.13242586E-02 0.13322582E+03</pdfrwt>
<pdfrwt beam="2">  1        4 0.26608999E+00 0.13322582E+03</pdfrwt>
<totfact> 0.58085831E+03</totfact>
</mgrwt>
</event>
<event>
 6    4  0.6195789E-003  0.1265979E+03  0.7818608E-02  0.1232593E+00
         21   -1    0    0  501  502  0.00000000000E+00  0.00000000000E+00  0.26778519662E+02  0.26778519662E+02  0.00000000000E+00 0. -1.
         -4   -1    0    0    0  501 -0.00000000000E+00 -0.00000000000E+00 -0.20418416147E+03  0.20418811106E+03  0.12700000000E+01 0. -1.
         25    2    1    2    0    0 -0.17969924521E+02 -0.88929383693E+01 -0.14184831451E+03  0.19012622224E+03  0.12500013405E+03 0.  0.
    9000005    1    3    3    0    0 -0.51542584494E+02 -0.21072986442E+02 -0.14064125709E+02  0.57441347528E+02  0.10000000000E+01 0.  0.
    9000005    1    3    3    0    0  0.33572659974E+02  0.12180048072E+02 -0.12778418880E+03  0.13268487471E+03  0.10000000000E+01 0.  0.
         -4    1    1    2    0  502  0.17969924521E+02  0.88929383693E+01 -0.35557327299E+02  0.40840408479E+02  0.12700000000E+01 0.  1.
<mgrwt>
<rscale>  1 0.12659793E+03</rscale>
<asrwt>0</asrwt>
<pdfrwt beam="1">  1       21 0.41197723E-02 0.12659793E+03</pdfrwt>
<pdfrwt beam="2">  1       -4 0.31415568E-01 0.12659793E+03</pdfrwt>
<totfact> 0.14400094E+05</totfact>
</mgrwt>
</event>
<event>
 6    4  0.6195789E-003  0.1281157E+03  0.7818608E-02  0.1230279E+00
          4   -1    0    0  502    0 -0.00000000000E+00  0.00000000000E+00  0.43104872278E+02  0.43123577242E+02  0.12700000000E+01 0.  1.
         21   -1    0    0  501  502  0.00000000000E+00 -0.00000000000E+00 -0.15553546556E+03  0.15553546556E+03  0.00000000000E+00 0.  1.
         25    2    1    2    0    0  0.15904414856E+02  0.23136451408E+02 -0.65330723943E+02  0.14381146868E+03  0.12500155694E+03 0.  0.
    9000005    1    3    3    0    0 -0.18368945758E+02  0.32052170178E+02 -0.92210433169E+02  0.99340443761E+02  0.10000000000E+01 0.  0.
    9000005    1    3    3    0    0  0.34273360615E+02 -0.89157187708E+01  0.26879709226E+02  0.44471024916E+02  0.10000000000E+01 0.  0.
          4    1    1    2  501    0 -0.15904414856E+02 -0.23136451408E+02 -0.47099869340E+02  0.54847574126E+02  0.12700000000E+01 0. -1.
<mgrwt>
<rscale>  1 0.12811571E+03</rscale>
<asrwt>0</asrwt>
<pdfrwt beam="2">  1       21 0.23928533E-01 0.12811571E+03</pdfrwt>
<pdfrwt beam="1">  1        4 0.66333565E-02 0.12811571E+03</pdfrwt>
<totfact> 0.99431252E+04</totfact>
</mgrwt>
</event>
<event>
 6    4  0.6195789E-003  0.1289811E+03  0.7818608E-02  0.1228975E+00
         -4   -1    0    0    0  501 -0.00000000000E+00  0.00000000000E+00  0.17006942049E+03  0.17007416231E+03  0.12700000000E+01 0.  1.
         21   -1    0    0  501  502  0.00000000000E+00 -0.00000000000E+00 -0.57106071887E+02  0.57106071887E+02  0.00000000000E+00 0. -1.
         25    2    1    2    0    0 -0.31793757878E+02 -0.18968520759E+00  0.13635065224E+03  0.18769026215E+03  0.12500102047E+03 0.  0.
    9000005    1    3    3    0    0  0.48090272505E+02 -0.76120766958E+01  0.49042822645E+02  0.69114517102E+02  0.10000000000E+01 0.  0.
    9000005    1    3    3    0    0 -0.79884030382E+02  0.74223914882E+01  0.87307829598E+02  0.11857574505E+03  0.10000000000E+01 0.  0.
         -4    1    1    2    0  502  0.31793757878E+02  0.18968520759E+00 -0.23387303641E+02  0.39489972044E+02  0.12700000000E+01 0. -1.
<mgrwt>
<rscale>  1 0.12898114E+03</rscale>
<asrwt>0</asrwt>
<pdfrwt beam="2">  1       21 0.87855496E-02 0.12898114E+03</pdfrwt>
<pdfrwt beam="1">  1       -4 0.26165977E-01 0.12898114E+03</pdfrwt>
<totfact> 0.56304208E+04</totfact>
</mgrwt>
</event>
<event>
 6    4  0.6195789E-003  0.1276293E+03  0.7818608E-02  0.1231016E+00
         -4   -1    0    0    0  501 -0.00000000000E+00  0.00000000000E+00  0.40280223713E+03  0.40280423922E+03  0.12700000000E+01 0.  1.
         21   -1    0    0  501  502  0.00000000000E+00 -0.00000000000E+00 -0.18202008856E+02  0.18202008856E+02  0.00000000000E+00 0.  1.
         25    2    1    2    0    0 -0.16582137798E+02 -0.19741663152E+02  0.36990314812E+03  0.39130241629E+03  0.12499816577E+03 0.  0.
    9000005    1    3    3    0    0 -0.21528156144E+02 -0.25137844716E+02  0.15048264822E+02  0.36370634007E+02  0.10000000000E+01 0.  0.
    9000005    1    3    3    0    0  0.49460183465E+01  0.53961815647E+01  0.35485488330E+03  0.35493178228E+03  0.10000000000E+01 0.  0.
         -4    1    1    2    0  502  0.16582137798E+02  0.19741663152E+02  0.14697080152E+02  0.29703831788E+02  0.12700000000E+01 0. -1.
<mgrwt>
<rscale>  1 0.12762931E+03</rscale>
<asrwt>0</asrwt>
<pdfrwt beam="2">  1       21 0.28003094E-02 0.12762931E+03</pdfrwt>
<pdfrwt beam="1">  1       -4 0.61973130E-01 0.12762931E+03</pdfrwt>
<totfact> 0.70128453E+04</totfact>
</mgrwt>
</event>
<event>
 6    4  0.6195789E-003  0.1275398E+03  0.7818608E-02  0.1231153E+00
         21   -1    0    0  501  502  0.00000000000E+00  0.00000000000E+00  0.16573084655E+03  0.16573084655E+03  0.00000000000E+00 0.  1.
          4   -1    0    0  502    0 -0.00000000000E+00 -0.00000000000E+00 -0.35978136666E+02  0.36000544690E+02  0.12700000000E+01 0.  1.
         25    2    1    2    0    0  0.16160701664E+02 -0.19468652121E+02  0.96529369102E+02  0.15995101347E+03  0.12500484358E+03 0.  0.
    9000005    1    3    3    0    0 -0.19055135661E+02 -0.38215242121E+02  0.10986360103E+03  0.11787499208E+03  0.10000000000E+01 0.  0.
    9000005    1    3    3    0    0  0.35215837326E+02  0.18746590000E+02 -0.13334231932E+02  0.42076021395E+02  0.10000000000E+01 0.  0.
          4    1    1    2  501    0 -0.16160701664E+02  0.19468652121E+02  0.33223340785E+02  0.41780377770E+02  0.12700000000E+01 0. -1.
<mgrwt>
<rscale>  1 0.12753983E+03</rscale>
<asrwt>0</asrwt>
<pdfrwt beam="1">  1       21 0.25497053E-01 0.12753983E+03</pdfrwt>
<pdfrwt beam="2">  1        4 0.55371960E-02 0.12753983E+03</pdfrwt>
<totfact> 0.11820551E+05</totfact>
</mgrwt>
</event>
<event>
 6    4  0.6195789E-003  0.1271343E+03  0.7818608E-02  0.1231771E+00
          4   -1    0    0  502    0 -0.00000000000E+00  0.00000000000E+00  0.27923106649E+03  0.27923395459E+03  0.12700000000E+01 0. -1.
         21   -1    0    0  501  502  0.00000000000E+00 -0.00000000000E+00 -0.21750564071E+02  0.21750564071E+02  0.00000000000E+00 0. -1.
         25    2    1    2    0    0  0.16278643069E+02  0.16464215369E+02  0.18188577325E+03  0.22191340771E+03  0.12500824534E+03 0.  0.
    9000005    1    3    3    0    0  0.24003859268E+02  0.64015723878E+02  0.14792418718E+03  0.16296245983E+03  0.10000000000E+01 0.  0.
    9000005    1    3    3    0    0 -0.77252161994E+01 -0.47551508509E+02  0.33961586071E+02  0.58950947875E+02  0.10000000000E+01 0.  0.
          4    1    1    2  501    0 -0.16278643069E+02 -0.16464215369E+02  0.75594729175E+02  0.79071110951E+02  0.12700000000E+01 0.  1.
<mgrwt>
<rscale>  1 0.12713428E+03</rscale>
<asrwt>0</asrwt>
<pdfrwt beam="2">  1       21 0.33462408E-02 0.12713428E+03</pdfrwt>
<pdfrwt beam="1">  1        4 0.42961697E-01 0.12713428E+03</pdfrwt>
<totfact> 0.11071811E+05</totfact>
</mgrwt>
</event>
<event>
 6    4  0.6195789E-003  0.1270601E+03  0.7818608E-02  0.1231884E+00
         21   -1    0    0  501  502  0.00000000000E+00  0.00000000000E+00  0.32257763685E+02  0.32257763685E+02  0.00000000000E+00 0. -1.
         -4   -1    0    0    0  501 -0.00000000000E+00 -0.00000000000E+00 -0.68103238130E+03  0.68103356545E+03  0.12700000000E+01 0.  1.
         25    2    1    2    0    0  0.79357573648E+01  0.21098972692E+02 -0.67021656988E+03  0.68215432365E+03  0.12504450344E+03 0.  0.
    9000005    1    3    3    0    0  0.63079601782E+02  0.32120045163E+02 -0.36699879210E+03  0.37376442696E+03  0.10000000000E+01 0.  0.
    9000005    1    3    3    0    0 -0.55143844417E+02 -0.11021072471E+02 -0.30321777778E+03  0.30838989669E+03  0.10000000000E+01 0.  0.
         -4    1    1    2    0  502 -0.79357573648E+01 -0.21098972692E+02  0.21441952269E+02  0.31137005487E+02  0.12700000000E+01 0. -1.
<mgrwt>
<rscale>  1 0.12706011E+03</rscale>
<asrwt>0</asrwt>
<pdfrwt beam="1">  1       21 0.49627331E-02 0.12706011E+03</pdfrwt>
<pdfrwt beam="2">  1       -4 0.10477622E+00 0.12706011E+03</pdfrwt>
<totfact> 0.84990726E+03</totfact>
</mgrwt>
</event>
<event>
 6    4  0.6195789E-003  0.1568133E+03  0.7818608E-02  0.1192342E+00
         21   -1    0    0  501  502  0.00000000000E+00  0.00000000000E+00  0.30494633614E+03  0.30494633614E+03  0.00000000000E+00 0. -1.
         -4   -1    0    0    0  501 -0.00000000000E+00 -0.00000000000E+00 -0.10461262155E+03  0.10462033018E+03  0.12700000000E+01 0.  1.
         25    2    1    2    0    0 -0.46778704436E+02 -0.82325993023E+02 -0.30779306711E+02  0.15980546470E+03  0.12499841803E+03 0.  0.
    9000005    1    3    3    0    0  0.33719377572E+02 -0.23024965676E+02  0.22371678717E+02  0.46568631898E+02  0.10000000000E+01 0.  0.
    9000005    1    3    3    0    0 -0.80498082008E+02 -0.59301027346E+02 -0.53150985429E+02  0.11323683280E+03  0.10000000000E+01 0.  0.
         -4    1    1    2    0  502  0.46778704436E+02  0.82325993023E+02  0.23111302131E+03  0.24976120162E+03  0.12700000000E+01 0. -1.
<mgrwt>
<rscale>  1 0.15681333E+03</rscale>
<asrwt>0</asrwt>
<pdfrwt beam="1">  1       21 0.46914820E-01 0.15681333E+03</pdfrwt>
<pdfrwt beam="2">  1       -4 0.16095046E-01 0.15681333E+03</pdfrwt>
<totfact> 0.60296736E+03</totfact>
</mgrwt>
</event>
<event>
 6    4  0.6195789E-003  0.1325618E+03  0.7818608E-02  0.1223703E+00
          4   -1    0    0  502    0 -0.00000000000E+00  0.00000000000E+00  0.11721297551E+04  0.11721304431E+04  0.12700000000E+01 0. -1.
         21   -1    0    0  501  502  0.00000000000E+00 -0.00000000000E+00 -0.18188896200E+02  0.18188896200E+02  0.00000000000E+00 0.  1.
         25    2    1    2    0    0 -0.44142565375E+02 -0.87654114333E+00  0.11342318585E+04  0.11419520777E+04  0.12499321765E+03 0.  0.
    9000005    1    3    3    0    0 -0.84417935642E+02  0.18160818310E+02  0.82886321675E+03  0.83334952766E+03  0.10000000000E+01 0.  0.
    9000005    1    3    3    0    0  0.40275370268E+02 -0.19037359453E+02  0.30536864176E+03  0.30860255001E+03  0.10000000000E+01 0.  0.
          4    1    1    2  501    0  0.44142565375E+02  0.87654114333E+00  0.19709000391E+02  0.48367261641E+02  0.12700000000E+01 0.  1.
<mgrwt>
<rscale>  1 0.13256183E+03</rscale>
<asrwt>0</asrwt>
<pdfrwt beam="2">  1       21 0.27982927E-02 0.13256183E+03</pdfrwt>
<pdfrwt beam="1">  1        4 0.18033106E+00 0.13256183E+03</pdfrwt>
<totfact> 0.56822052E+03</totfact>
</mgrwt>
</event>
<event>
 6    4  0.6195789E-003  0.1274852E+03  0.7818608E-02  0.1231236E+00
         -4   -1    0    0    0  501 -0.00000000000E+00  0.00000000000E+00  0.10411959360E+03  0.10412733873E+03  0.12700000000E+01 0.  1.
         21   -1    0    0  501  502  0.00000000000E+00 -0.00000000000E+00 -0.13588774148E+03  0.13588774148E+03  0.00000000000E+00 0. -1.
         25    2    1    2    0    0 -0.16743014593E+02 -0.18648832007E+02  0.62842867967E+02  0.14213267785E+03  0.12499745832E+03 0.  0.
    9000005    1    3    3    0    0 -0.54092233096E+02  0.32774241340E+02  0.38608195991E+02  0.74106095393E+02  0.10000000000E+01 0.  0.
    9000005    1    3    3    0    0  0.37349218504E+02 -0.51423073347E+02  0.24234671976E+02  0.68026582459E+02  0.10000000000E+01 0.  0.
         -4    1    1    2    0  502  0.16743014593E+02  0.18648832007E+02 -0.94611015845E+02  0.97882402362E+02  0.12700000000E+01 0. -1.
<mgrwt>
<rscale>  1 0.12748518E+03</rscale>
<asrwt>0</asrwt>
<pdfrwt beam="2">  1       21 0.20905806E-01 0.12748518E+03</pdfrwt>
<pdfrwt beam="1">  1       -4 0.16019451E-01 0.12748518E+03</pdfrwt>
<totfact> 0.28838990E+04</totfact>
</mgrwt>
</event>
<event>
 6    4  0.6195789E-003  0.1268896E+03  0.7818608E-02  0.1232145E+00
         21   -1    0    0  501  502  0.00000000000E+00  0.00000000000E+00  0.26553561728E+02  0.26553561728E+02  0.00000000000E+00 0.  1.
          4   -1    0    0  502    0 -0.00000000000E+00 -0.00000000000E+00 -0.21306656299E+03  0.21307034792E+03  0.12700000000E+01 0.  1.
         25    2    1    2    0    0 -0.66561700623E+01 -0.20770896248E+02 -0.14476305780E+03  0.19250273171E+03  0.12500089633E+03 0.  0.
    9000005    1    3    3    0    0  0.58977612778E+02 -0.13618498831E+02 -0.76101361647E+02  0.97243198034E+02  0.10000000000E+01 0.  0.
    9000005    1    3    3    0    0 -0.65633782840E+02 -0.71523974172E+01 -0.68661696150E+02  0.95259533680E+02  0.10000000000E+01 0.  0.
          4    1    1    2  501    0  0.66561700623E+01  0.20770896248E+02 -0.41749943462E+02  0.47121177934E+02  0.12700000000E+01 0. -1.
<mgrwt>
<rscale>  1 0.12688955E+03</rscale>
<asrwt>0</asrwt>
<pdfrwt beam="1">  1       21 0.40851633E-02 0.12688955E+03</pdfrwt>
<pdfrwt beam="2">  1        4 0.32782099E-01 0.12688955E+03</pdfrwt>
<totfact> 0.13470939E+05</totfact>
</mgrwt>
</event>
<event>
 6    4  0.6195789E-003  0.1268613E+03  0.7818608E-02  0.1232189E+00
         -4   -1    0    0    0  501 -0.00000000000E+00  0.00000000000E+00  0.29764295313E+03  0.29764566257E+03  0.12700000000E+01 0.  1.
         21   -1    0    0  501  502  0.00000000000E+00 -0.00000000000E+00 -0.15126161297E+03  0.15126161297E+03  0.00000000000E+00 0. -1.
         25    2    1    2    0    0 -0.98284739244E+01  0.19293952005E+02  0.28323364672E+03  0.31034673933E+03  0.12499977797E+03 0.  0.
    9000005    1    3    3    0    0 -0.59618739828E+02  0.40805203461E+02  0.15007973868E+03  0.16656646340E+03  0.10000000000E+01 0.  0.
    9000005    1    3    3    0    0  0.49790265903E+02 -0.21511251456E+02  0.13315390804E+03  0.14378027593E+03  0.10000000000E+01 0.  0.
         -4    1    1    2    0  502  0.98284739244E+01 -0.19293952005E+02 -0.13685230657E+03  0.13856053621E+03  0.12700000000E+01 0. -1.
<mgrwt>
<rscale>  1 0.12686134E+03</rscale>
<asrwt>0</asrwt>
<pdfrwt beam="2">  1       21 0.23271017E-01 0.12686134E+03</pdfrwt>
<pdfrwt beam="1">  1       -4 0.45791842E-01 0.12686134E+03</pdfrwt>
<totfact> 0.33169660E+03</totfact>
</mgrwt>
</event>
<event>
 6    4  0.6195789E-003  0.1266145E+03  0.7818608E-02  0.1232567E+00
          4   -1    0    0  502    0 -0.00000000000E+00  0.00000000000E+00  0.83755464720E+02  0.83765092792E+02  0.12700000000E+01 0. -1.
         21   -1    0    0  501  502  0.00000000000E+00 -0.00000000000E+00 -0.79548782925E+02  0.79548782925E+02  0.00000000000E+00 0. -1.
         25    2    1    2    0    0  0.19377518695E+02 -0.55265715771E+01  0.30428575792E+02  0.13021958846E+03  0.12500084708E+03 0.  0.
    9000005    1    3    3    0    0 -0.32739647620E+01  0.48456377689E+02  0.48797615050E+02  0.68854532302E+02  0.10000000000E+01 0.  0.
    9000005    1    3    3    0    0  0.22651483457E+02 -0.53982949266E+02 -0.18369039258E+02  0.61365056160E+02  0.10000000000E+01 0.  0.
          4    1    1    2  501    0 -0.19377518695E+02  0.55265715771E+01 -0.26221893997E+02  0.33094287256E+02  0.12700000000E+01 0.  1.
<mgrwt>
<rscale>  1 0.12661454E+03</rscale>
<asrwt>0</asrwt>
<pdfrwt beam="2">  1       21 0.12238274E-01 0.12661454E+03</pdfrwt>
<pdfrwt beam="1">  1        4 0.12886977E-01 0.12661454E+03</pdfrwt>
<totfact> 0.11097323E+05</totfact>
</mgrwt>
</event>
<event>
 6    4  0.6195789E-003  0.1396280E+03  0.7818608E-02  0.1213830E+00
         21   -1    0    0  501  502  0.00000000000E+00  0.00000000000E+00  0.30305286227E+03  0.30305286227E+03  0.00000000000E+00 0.  1.
         -4   -1    0    0    0  501 -0.00000000000E+00 -0.00000000000E+00 -0.34623272712E+02  0.34646557020E+02  0.12700000000E+01 0.  1.
         25    2    1    2    0    0 -0.57334662156E+02 -0.24183440651E+02  0.21097913916E+03  0.25299836004E+03  0.12499548287E+03 0.  0.
    9000005    1    3    3    0    0  0.24881680815E+01  0.37175733331E+02  0.12945996598E+03  0.13471862871E+03  0.10000000000E+01 0.  0.
    9000005    1    3    3    0    0 -0.59822830238E+02 -0.61359173981E+02  0.81519173177E+02  0.11827973134E+03  0.10000000000E+01 0.  0.
         -4    1    1    2    0  502  0.57334662156E+02  0.24183440651E+02  0.57450450398E+02  0.84701059245E+02  0.12700000000E+01 0. -1.
<mgrwt>
<rscale>  1 0.13962798E+03</rscale>
<asrwt>0</asrwt>
<pdfrwt beam="1">  1       21 0.46623516E-01 0.13962798E+03</pdfrwt>
<pdfrwt beam="2">  1       -4 0.53286533E-02 0.13962798E+03</pdfrwt>
<totfact> 0.38824946E+04</totfact>
</mgrwt>
</event>
<event>
 6    4  0.6195789E-003  0.1298014E+03  0.7818608E-02  0.1227751E+00
         21   -1    0    0  501  502  0.00000000000E+00  0.00000000000E+00  0.23545940750E+02  0.23545940750E+02  0.00000000000E+00 0.  1.
          4   -1    0    0  502    0 -0.00000000000E+00 -0.00000000000E+00 -0.54270586318E+03  0.54270734916E+03  0.12700000000E+01 0. -1.
         25    2    1    2    0    0  0.20947349240E+02  0.28004032883E+02 -0.51488983317E+03  0.53099901555E+03  0.12500158766E+03 0.  0.
    9000005    1    3    3    0    0 -0.43654661074E+02 -0.19478386035E+02 -0.23689214974E+03  0.24166925241E+03  0.10000000000E+01 0.  0.
    9000005    1    3    3    0    0  0.64602010314E+02  0.47482418918E+02 -0.27799768344E+03  0.28932976314E+03  0.10000000000E+01 0.  0.
          4    1    1    2  501    0 -0.20947349240E+02 -0.28004032883E+02 -0.42700892577E+01  0.35254274353E+02  0.12700000000E+01 0.  1.
<mgrwt>
<rscale>  1 0.12980144E+03</rscale>
<asrwt>0</asrwt>
<pdfrwt beam="1">  1       21 0.36224524E-02 0.12980144E+03</pdfrwt>
<pdfrwt beam="2">  1        4 0.83495960E-01 0.12980144E+03</pdfrwt>
<totfact> 0.24130968E+04</totfact>
</mgrwt>
</event>
<event>
 6    4  0.6195789E-003  0.1353530E+03  0.7818608E-02  0.1219722E+00
         21   -1    0    0  501  502  0.00000000000E+00  0.00000000000E+00  0.62537248871E+03  0.62537248871E+03  0.00000000000E+00 0.  1.
          4   -1    0    0  502    0 -0.00000000000E+00 -0.00000000000E+00 -0.15088126414E+02  0.15141481390E+02  0.12700000000E+01 0. -1.
         25    2    1    2    0    0  0.52051926825E+02  0.40952858355E+00  0.35400622739E+03  0.37899979050E+03  0.12494343268E+03 0.  0.
    9000005    1    3    3    0    0  0.37096058530E+01  0.51678869375E+02  0.74532723753E+02  0.90777715467E+02  0.10000000000E+01 0.  0.
    9000005    1    3    3    0    0  0.48342320972E+02 -0.51269340791E+02  0.27947350363E+03  0.28822207503E+03  0.10000000000E+01 0.  0.
          4    1    1    2  501    0 -0.52051926825E+02 -0.40952858355E+00  0.25627813491E+03  0.26151417960E+03  0.12700000000E+01 0.  1.
<mgrwt>
<rscale>  1 0.13535299E+03</rscale>
<asrwt>0</asrwt>
<pdfrwt beam="1">  1       21 0.96211132E-01 0.13535299E+03</pdfrwt>
<pdfrwt beam="2">  1        4 0.23254541E-02 0.13535299E+03</pdfrwt>
<totfact> 0.29726777E+04</totfact>
</mgrwt>
</event>
<event>
 6    4  0.6195789E-003  0.1273318E+03  0.7818608E-02  0.1231469E+00
         -4   -1    0    0    0  501 -0.00000000000E+00  0.00000000000E+00  0.29201710519E+02  0.29229314005E+02  0.12700000000E+01 0. -1.
         21   -1    0    0  501  502  0.00000000000E+00 -0.00000000000E+00 -0.24253223207E+03  0.24253223207E+03  0.00000000000E+00 0. -1.
         25    2    1    2    0    0  0.21815773868E+02  0.10516068268E+02 -0.11871685093E+03  0.17408926112E+03  0.12500745762E+03 0.  0.
    9000005    1    3    3    0    0 -0.12718150239E+01 -0.52489076932E+02 -0.23337063694E+02  0.57465983438E+02  0.10000000000E+01 0.  0.
    9000005    1    3    3    0    0  0.23087588892E+02  0.63005145200E+02 -0.95379787241E+02  0.11662327768E+03  0.10000000000E+01 0.  0.
         -4    1    1    2    0  502 -0.21815773868E+02 -0.10516068268E+02 -0.94613670619E+02  0.97672284960E+02  0.12700000000E+01 0.  1.
<mgrwt>
<rscale>  1 0.12733177E+03</rscale>
<asrwt>0</asrwt>
<pdfrwt beam="2">  1       21 0.37312650E-01 0.12733177E+03</pdfrwt>
<pdfrwt beam="1">  1       -4 0.44949501E-02 0.12733177E+03</pdfrwt>
<totfact> 0.79060818E+04</totfact>
</mgrwt>
</event>
<event>
 6    4  0.6195789E-003  0.1527973E+03  0.7818608E-02  0.1197077E+00
          4   -1    0    0  502    0 -0.00000000000E+00  0.00000000000E+00  0.96438478724E+03  0.96438562347E+03  0.12700000000E+01 0.  1.
         21   -1    0    0  501  502  0.00000000000E+00 -0.00000000000E+00 -0.24421719617E+02  0.24421719617E+02  0.00000000000E+00 0.  1.
         25    2    1    2    0    0  0.69254293902E+02 -0.54097454495E+02  0.84778837657E+03  0.86144770122E+03  0.12499727469E+03 0.  0.
    9000005    1    3    3    0    0  0.51137339876E+02 -0.20330639606E+02  0.79111747220E+03  0.79302977072E+03  0.10000000000E+01 0.  0.
    9000005    1    3    3    0    0  0.18116954025E+02 -0.33766814889E+02  0.56670904374E+02  0.68417930496E+02  0.10000000000E+01 0.  0.
          4    1    1    2  501    0 -0.69254293902E+02  0.54097454495E+02  0.92174691053E+02  0.12735964187E+03  0.12700000000E+01 0. -1.
<mgrwt>
<rscale>  1 0.15279729E+03</rscale>
<asrwt>0</asrwt>
<pdfrwt beam="2">  1       21 0.37571884E-02 0.15279729E+03</pdfrwt>
<pdfrwt beam="1">  1        4 0.14836947E+00 0.15279729E+03</pdfrwt>
<totfact> 0.58955434E+03</totfact>
</mgrwt>
</event>
<event>
 6    4  0.6195789E-003  0.1276679E+03  0.7818608E-02  0.1230958E+00
         21   -1    0    0  501  502  0.00000000000E+00  0.00000000000E+00  0.68726710150E+03  0.68726710150E+03  0.00000000000E+00 0. -1.
          4   -1    0    0  502    0 -0.00000000000E+00 -0.00000000000E+00 -0.27590783727E+02  0.27619997225E+02  0.12700000000E+01 0.  1.
         25    2    1    2    0    0  0.20575107273E+02 -0.15832397516E+02  0.12201463638E+03  0.17659749601E+03  0.12500041703E+03 0.  0.
    9000005    1    3    3    0    0  0.73193935816E+02 -0.24117136182E+01  0.73747750169E+02  0.10393699658E+03  0.10000000000E+01 0.  0.
    9000005    1    3    3    0    0 -0.52618828543E+02 -0.13420683898E+02  0.48266886213E+02  0.72660499435E+02  0.10000000000E+01 0.  0.
          4    1    1    2  501    0 -0.20575107273E+02  0.15832397516E+02  0.53766168139E+03  0.53828960271E+03  0.12700000000E+01 0. -1.
<mgrwt>
<rscale>  1 0.12766794E+03</rscale>
<asrwt>0</asrwt>
<pdfrwt beam="1">  1       21 0.10573339E+00 0.12766794E+03</pdfrwt>
<pdfrwt beam="2">  1        4 0.42470739E-02 0.12766794E+03</pdfrwt>
<totfact> 0.92162115E+03</totfact>
</mgrwt>
</event>
<event>
 6    4  0.6195789E-003  0.1305113E+03  0.7818608E-02  0.1226699E+00
         21   -1    0    0  501  502  0.00000000000E+00  0.00000000000E+00  0.12526805636E+03  0.12526805636E+03  0.00000000000E+00 0.  1.
          4   -1    0    0  502    0 -0.00000000000E+00 -0.00000000000E+00 -0.61886463203E+02  0.61899492952E+02  0.12700000000E+01 0. -1.
         25    2    1    2    0    0 -0.19284337737E+02 -0.32157213779E+02  0.23860689605E+02  0.13267455162E+03  0.12500892792E+03 0.  0.
    9000005    1    3    3    0    0 -0.19412809344E+02 -0.45895234317E+02 -0.42129507260E+02  0.65261972707E+02  0.10000000000E+01 0.  0.
    9000005    1    3    3    0    0  0.12847160706E+00  0.13738020539E+02  0.65990196864E+02  0.67412578911E+02  0.10000000000E+01 0.  0.
          4    1    1    2  501    0  0.19284337737E+02  0.32157213779E+02  0.39520903550E+02  0.54492997691E+02  0.12700000000E+01 0.  1.
<mgrwt>
<rscale>  1 0.13051132E+03</rscale>
<asrwt>0</asrwt>
<pdfrwt beam="1">  1       21 0.19272009E-01 0.13051132E+03</pdfrwt>
<pdfrwt beam="2">  1        4 0.95224919E-02 0.13051132E+03</pdfrwt>
<totfact> 0.81994177E+04</totfact>
</mgrwt>
</event>
<event>
 6    4  0.6195789E-003  0.1306384E+03  0.7818608E-02  0.1226512E+00
         21   -1    0    0  501  502  0.00000000000E+00  0.00000000000E+00  0.16561451552E+02  0.16561451552E+02  0.00000000000E+00 0. -1.
         -4   -1    0    0    0  501 -0.00000000000E+00 -0.00000000000E+00 -0.44936905715E+03  0.44937085177E+03  0.12700000000E+01 0. -1.
         25    2    1    2    0    0 -0.21557669594E+02  0.31248476809E+02 -0.37161825786E+03  0.39391182292E+03  0.12500077696E+03 0.  0.
    9000005    1    3    3    0    0 -0.49715265917E+02  0.55978187648E+02 -0.13527683636E+03  0.15461561245E+03  0.10000000000E+01 0.  0.
    9000005    1    3    3    0    0  0.28157596323E+02 -0.24729710839E+02 -0.23634142150E+03  0.23929621047E+03  0.10000000000E+01 0.  0.
         -4    1    1    2    0  502  0.21557669594E+02 -0.31248476809E+02 -0.61189347735E+02  0.72020480403E+02  0.12700000000E+01 0.  1.
<mgrwt>
<rscale>  1 0.13063841E+03</rscale>
<asrwt>0</asrwt>
<pdfrwt beam="1">  1       21 0.25479156E-02 0.13063841E+03</pdfrwt>
<pdfrwt beam="2">  1       -4 0.69137584E-01 0.13063841E+03</pdfrwt>
<totfact> 0.65026184E+04</totfact>
</mgrwt>
</event>
<event>
 6    4  0.6195789E-003  0.1273602E+03  0.7818608E-02  0.1231426E+00
         21   -1    0    0  501  502  0.00000000000E+00  0.00000000000E+00  0.31047511501E+03  0.31047511501E+03  0.00000000000E+00 0. -1.
          4   -1    0    0  502    0 -0.00000000000E+00 -0.00000000000E+00 -0.19570383131E+02  0.19611547514E+02  0.12700000000E+01 0.  1.
         25    2    1    2    0    0 -0.22812403135E+00  0.24478756236E+02  0.21051832582E+03  0.24604590618E+03  0.12498544273E+03 0.  0.
    9000005    1    3    3    0    0  0.20636465858E+02  0.18869188599E+02 -0.58614300305E+01  0.28587870916E+02  0.10000000000E+01 0.  0.
    9000005    1    3    3    0    0 -0.20864589889E+02  0.56095676367E+01  0.21637975585E+03  0.21745803526E+03  0.10000000000E+01 0.  0.
          4    1    1    2  501    0  0.22812403135E+00 -0.24478756236E+02  0.80386406058E+02  0.84040756341E+02  0.12700000000E+01 0. -1.
<mgrwt>
<rscale>  1 0.12736021E+03</rscale>
<asrwt>0</asrwt>
<pdfrwt beam="1">  1       21 0.47765399E-01 0.12736021E+03</pdfrwt>
<pdfrwt beam="2">  1        4 0.30141947E-02 0.12736021E+03</pdfrwt>
<totfact> 0.90406616E+04</totfact>
</mgrwt>
</event>
<event>
 6    4  0.6195789E-003  0.1305458E+03  0.7818608E-02  0.1226648E+00
         -4   -1    0    0    0  501 -0.00000000000E+00  0.00000000000E+00  0.21421977319E+02  0.21459590216E+02  0.12700000000E+01 0. -1.
         21   -1    0    0  501  502  0.00000000000E+00 -0.00000000000E+00 -0.34292920197E+03  0.34292920197E+03  0.00000000000E+00 0. -1.
         25    2    1    2    0    0  0.18442233618E+02 -0.32821854375E+02 -0.21630966500E+03  0.25265012582E+03  0.12499929919E+03 0.  0.
    9000005    1    3    3    0    0 -0.38535852272E+02 -0.20441100175E+02 -0.17705646231E+03  0.18235361618E+03  0.10000000000E+01 0.  0.
    9000005    1    3    3    0    0  0.56978085890E+02 -0.12380754199E+02 -0.39253202691E+02  0.70296509641E+02  0.10000000000E+01 0.  0.
         -4    1    1    2    0  502 -0.18442233618E+02  0.32821854375E+02 -0.10519755964E+03  0.11173866636E+03  0.12700000000E+01 0.  1.
<mgrwt>
<rscale>  1 0.13054583E+03</rscale>
<asrwt>0</asrwt>
<pdfrwt beam="2">  1       21 0.52758337E-01 0.13054583E+03</pdfrwt>
<pdfrwt beam="1">  1       -4 0.32987631E-02 0.13054583E+03</pdfrwt>
<totfact> 0.64106392E+04</totfact>
</mgrwt>
</event>
<event>
 6    4  0.6195789E-003  0.1281704E+03  0.7818608E-02  0.1230196E+00
         21   -1    0    0  501  502  0.00000000000E+00  0.00000000000E+00  0.15720149300E+02  0.15720149300E+02  0.00000000000E+00 0. -1.
         -4   -1    0    0    0  501 -0.00000000000E+00 -0.00000000000E+00 -0.54020211493E+03  0.54020360780E+03  0.12700000000E+01 0. -1.
         25    2    1    2    0    0 -0.19635287350E+02 -0.20409174897E+02 -0.50623800907E+03  0.52221124043E+03  0.12500231545E+03 0.  0.
    9000005    1    3    3    0    0  0.83552363369E+01  0.35396446005E+02 -0.50642359318E+02  0.62356771255E+02  0.10000000000E+01 0.  0.
    9000005    1    3    3    0    0 -0.27990523687E+02 -0.55805620903E+02 -0.45559564976E+03  0.45985446917E+03  0.10000000000E+01 0.  0.
         -4    1    1    2    0  502  0.19635287350E+02  0.20409174897E+02 -0.18243956556E+02  0.33712516669E+02  0.12700000000E+01 0.  1.
<mgrwt>
<rscale>  1 0.12817042E+03</rscale>
<asrwt>0</asrwt>
<pdfrwt beam="1">  1       21 0.24184848E-02 0.12817042E+03</pdfrwt>
<pdfrwt beam="2">  1       -4 0.83112070E-01 0.12817042E+03</pdfrwt>
<totfact> 0.47200261E+04</totfact>
</mgrwt>
</event>
<event>
 6    4  0.6195789E-003  0.1504692E+03  0.7818608E-02  0.1199898E+00
          4   -1    0    0  502    0 -0.00000000000E+00  0.00000000000E+00  0.23645825405E+03  0.23646166457E+03  0.12700000000E+01 0.  1.
         21   -1    0    0  501  502  0.00000000000E+00 -0.00000000000E+00 -0.13360284496E+03  0.13360284496E+03  0.00000000000E+00 0.  1.
         25    2    1    2    0    0 -0.27904855253E+02 -0.79015455457E+02  0.19447924753E+03  0.24589259717E+03  0.12497547149E+03 0.  0.
    9000005    1    3    3    0    0  0.45706482859E+02 -0.13601197649E+02  0.92793934385E+02  0.10433498652E+03  0.10000000000E+01 0.  0.
    9000005    1    3    3    0    0 -0.73611338112E+02 -0.65414257808E+02  0.10168531315E+03  0.14155761065E+03  0.10000000000E+01 0.  0.
          4    1    1    2  501    0  0.27904855253E+02  0.79015455457E+02 -0.91623838444E+02  0.12417191236E+03  0.12700000000E+01 0. -1.
<mgrwt>
<rscale>  1 0.15046924E+03</rscale>
<asrwt>0</asrwt>
<pdfrwt beam="2">  1       21 0.20554284E-01 0.15046924E+03</pdfrwt>
<pdfrwt beam="1">  1        4 0.36378919E-01 0.15046924E+03</pdfrwt>
<totfact> 0.66621955E+03</totfact>
</mgrwt>
</event>
<event>
 6    4  0.6195789E-003  0.1309744E+03  0.7818608E-02  0.1226017E+00
         21   -1    0    0  501  502  0.00000000000E+00  0.00000000000E+00  0.50334604396E+03  0.50334604396E+03  0.00000000000E+00 0.  1.
         -4   -1    0    0    0  501 -0.00000000000E+00 -0.00000000000E+00 -0.17666703289E+02  0.17712292486E+02  0.12700000000E+01 0. -1.
         25    2    1    2    0    0  0.36110217162E+02 -0.15013623349E+02  0.25077555766E+03  0.28291813228E+03  0.12499973033E+03 0.  0.
    9000005    1    3    3    0    0  0.50964208978E+02 -0.10517367652E+02  0.27058398996E+02  0.58661082289E+02  0.10000000000E+01 0.  0.
    9000005    1    3    3    0    0 -0.14853991816E+02 -0.44962556967E+01  0.22371715867E+03  0.22425704999E+03  0.10000000000E+01 0.  0.
         -4    1    1    2    0  502 -0.36110217162E+02  0.15013623349E+02  0.23490378301E+03  0.23814020417E+03  0.12700000000E+01 0.  1.
<mgrwt>
<rscale>  1 0.13097438E+03</rscale>
<asrwt>0</asrwt>
<pdfrwt beam="1">  1       21 0.77437842E-01 0.13097438E+03</pdfrwt>
<pdfrwt beam="2">  1       -4 0.27215848E-02 0.13097438E+03</pdfrwt>
<totfact> 0.37996436E+04</totfact>
</mgrwt>
</event>
<event>
 6    4  0.6195789E-003  0.1287271E+03  0.7818608E-02  0.1229357E+00
         21   -1    0    0  501  502  0.00000000000E+00  0.00000000000E+00  0.28384807865E+02  0.28384807865E+02  0.00000000000E+00 0. -1.
          4   -1    0    0  502    0 -0.00000000000E+00 -0.00000000000E+00 -0.22575275234E+03  0.22575632458E+03  0.12700000000E+01 0. -1.
         25    2    1    2    0    0 -0.22991333359E+02 -0.20673259056E+02 -0.16618432722E+03  0.21020918582E+03  0.12495873774E+03 0.  0.
    9000005    1    3    3    0    0  0.36687223448E+01 -0.70431711442E+02 -0.10914253633E+03  0.12995067809E+03  0.10000000000E+01 0.  0.
    9000005    1    3    3    0    0 -0.26660055704E+02  0.49758452386E+02 -0.57041790893E+02  0.80258507725E+02  0.10000000000E+01 0.  0.
          4    1    1    2  501    0  0.22991333359E+02  0.20673259056E+02 -0.31183617250E+02  0.43931946626E+02  0.12700000000E+01 0.  1.
<mgrwt>
<rscale>  1 0.12872712E+03</rscale>
<asrwt>0</asrwt>
<pdfrwt beam="1">  1       21 0.43668934E-02 0.12872712E+03</pdfrwt>
<pdfrwt beam="2">  1        4 0.34733654E-01 0.12872712E+03</pdfrwt>
<totfact> 0.10813383E+05</totfact>
</mgrwt>
</event>
<event>
 6    4  0.6195789E-003  0.1323455E+03  0.7818608E-02  0.1224016E+00
         21   -1    0    0  501  502  0.00000000000E+00  0.00000000000E+00  0.64126126270E+02  0.64126126270E+02  0.00000000000E+00 0. -1.
          4   -1    0    0  502    0 -0.00000000000E+00 -0.00000000000E+00 -0.15945510227E+03  0.15946015972E+03  0.12700000000E+01 0.  1.
         25    2    1    2    0    0  0.15198059740E+02 -0.40736834090E+02 -0.11548264702E+03  0.17564617724E+03  0.12499946857E+03 0.  0.
    9000005    1    3    3    0    0  0.47262147296E+02 -0.27334197540E+02 -0.12762777116E+03  0.13881900768E+03  0.10000000000E+01 0.  0.
    9000005    1    3    3    0    0 -0.32064087556E+02 -0.13402636550E+02  0.12145124137E+02  0.36827169558E+02  0.10000000000E+01 0.  0.
          4    1    1    2  501    0 -0.15198059740E+02  0.40736834090E+02  0.20153671026E+02  0.47940108754E+02  0.12700000000E+01 0. -1.
<mgrwt>
<rscale>  1 0.13234552E+03</rscale>
<asrwt>0</asrwt>
<pdfrwt beam="1">  1       21 0.98655579E-02 0.13234552E+03</pdfrwt>
<pdfrwt beam="2">  1        4 0.24532911E-01 0.13234552E+03</pdfrwt>
<totfact> 0.52000979E+04</totfact>
</mgrwt>
</event>
<event>
 6    4  0.6195789E-003  0.1315640E+03  0.7818608E-02  0.1225153E+00
          4   -1    0    0  502    0 -0.00000000000E+00  0.00000000000E+00  0.10997561903E+03  0.10998295177E+03  0.12700000000E+01 0.  1.
         21   -1    0    0  501  502  0.00000000000E+00 -0.00000000000E+00 -0.87166947396E+02  0.87166947396E+02  0.00000000000E+00 0. -1.
         25    2    1    2    0    0  0.75930319533E+01 -0.40343862864E+02  0.57315407333E+02  0.14350654810E+03  0.12499516801E+03 0.  0.
    9000005    1    3    3    0    0  0.43045612111E+02 -0.69953966863E+02  0.51469391969E+02  0.96935960879E+02  0.10000000000E+01 0.  0.
    9000005    1    3    3    0    0 -0.35452580158E+02  0.29610103999E+02  0.58460153638E+01  0.46570587223E+02  0.10000000000E+01 0.  0.
          4    1    1    2  501    0 -0.75930319533E+01  0.40343862864E+02 -0.34506735699E+02  0.53643351067E+02  0.12700000000E+01 0. -1.
<mgrwt>
<rscale>  1 0.13156395E+03</rscale>
<asrwt>0</asrwt>
<pdfrwt beam="2">  1       21 0.13410300E-01 0.13156395E+03</pdfrwt>
<pdfrwt beam="1">  1        4 0.16920602E-01 0.13156395E+03</pdfrwt>
<totfact> 0.58990101E+04</totfact>
</mgrwt>
</event>
<event>
 6    4  0.6195789E-003  0.1451107E+03  0.7818608E-02  0.1206613E+00
         21   -1    0    0  501  502  0.00000000000E+00  0.00000000000E+00  0.32755217467E+03  0.32755217467E+03  0.00000000000E+00 0. -1.
          4   -1    0    0  502    0 -0.00000000000E+00 -0.00000000000E+00 -0.69371030398E+02  0.69382654594E+02  0.12700000000E+01 0. -1.
         25    2    1    2    0    0  0.73005202890E+02 -0.10181149607E+02  0.18636814742E+02  0.14630260036E+03  0.12499481810E+03 0.  0.
    9000005    1    3    3    0    0  0.34394053812E+02 -0.55929935577E+02 -0.27019351982E+02  0.71008126386E+02  0.10000000000E+01 0.  0.
    9000005    1    3    3    0    0  0.38611149078E+02  0.45748785969E+02  0.45656166724E+02  0.75294473972E+02  0.10000000000E+01 0.  0.
          4    1    1    2  501    0 -0.73005202890E+02  0.10181149607E+02  0.23954432953E+03  0.25063222890E+03  0.12700000000E+01 0.  1.
<mgrwt>
<rscale>  1 0.14511072E+03</rscale>
<asrwt>0</asrwt>
<pdfrwt beam="1">  1       21 0.50392641E-01 0.14511072E+03</pdfrwt>
<pdfrwt beam="2">  1        4 0.10673550E-01 0.14511072E+03</pdfrwt>
<totfact> 0.10528708E+04</totfact>
</mgrwt>
</event>
<event>
 6    4  0.6195789E-003  0.1268601E+03  0.7818608E-02  0.1232191E+00
         21   -1    0    0  501  502  0.00000000000E+00  0.00000000000E+00  0.74529634101E+02  0.74529634101E+02  0.00000000000E+00 0. -1.
         -4   -1    0    0    0  501 -0.00000000000E+00 -0.00000000000E+00 -0.10017466462E+03  0.10018271474E+03  0.12700000000E+01 0.  1.
         25    2    1    2    0    0  0.62807948894E+01 -0.20746350339E+02 -0.54941667317E+02  0.13824640220E+03  0.12499448579E+03 0.  0.
    9000005    1    3    3    0    0 -0.36791308961E+02 -0.39838637778E+02 -0.70201405130E+02  0.88712765470E+02  0.10000000000E+01 0.  0.
    9000005    1    3    3    0    0  0.43072103850E+02  0.19092287439E+02  0.15259737813E+02  0.49533636731E+02  0.10000000000E+01 0.  0.
         -4    1    1    2    0  502 -0.62807948894E+01  0.20746350339E+02  0.29296636794E+02  0.36465946639E+02  0.12700000000E+01 0. -1.
<mgrwt>
<rscale>  1 0.12686008E+03</rscale>
<asrwt>0</asrwt>
<pdfrwt beam="1">  1       21 0.11466098E-01 0.12686008E+03</pdfrwt>
<pdfrwt beam="2">  1       -4 0.15412938E-01 0.12686008E+03</pdfrwt>
<totfact> 0.91341365E+04</totfact>
</mgrwt>
</event>
<event>
 6    4  0.6195789E-003  0.1430420E+03  0.7818608E-02  0.1209293E+00
         21   -1    0    0  501  502  0.00000000000E+00  0.00000000000E+00  0.56260835720E+03  0.56260835720E+03  0.00000000000E+00 0.  1.
          4   -1    0    0  502    0 -0.00000000000E+00 -0.00000000000E+00 -0.27930735766E+02  0.27959594068E+02  0.12700000000E+01 0. -1.
         25    2    1    2    0    0  0.37207868736E+02  0.58750585817E+02  0.18400426614E+03  0.23306344523E+03  0.12499977085E+03 0.  0.
    9000005    1    3    3    0    0 -0.29089796379E+02 -0.12407645907E+02  0.90811737650E+01  0.32918591211E+02  0.10000000000E+01 0.  0.
    9000005    1    3    3    0    0  0.66297665115E+02  0.71158231724E+02  0.17492309238E+03  0.20014485402E+03  0.10000000000E+01 0.  0.
          4    1    1    2  501    0 -0.37207868736E+02 -0.58750585817E+02  0.35067335529E+03  0.35750450604E+03  0.12700000000E+01 0.  1.
<mgrwt>
<rscale>  1 0.14304195E+03</rscale>
<asrwt>0</asrwt>
<pdfrwt beam="1">  1       21 0.86555124E-01 0.14304195E+03</pdfrwt>
<pdfrwt beam="2">  1        4 0.42993668E-02 0.14304195E+03</pdfrwt>
<totfact> 0.14491236E+04</totfact>
</mgrwt>
</event>
<event>
 6    4  0.6195789E-003  0.1335772E+03  0.7818608E-02  0.1222242E+00
         21   -1    0    0  501  502  0.00000000000E+00  0.00000000000E+00  0.76326951337E+02  0.76326951337E+02  0.00000000000E+00 0.  1.
          4   -1    0    0  502    0 -0.00000000000E+00 -0.00000000000E+00 -0.11259798945E+03  0.11260515143E+03  0.12700000000E+01 0.  1.
         25    2    1    2    0    0 -0.33446180637E+02  0.33116506280E+02 -0.45182003906E+02  0.14101166664E+03  0.12501010625E+03 0.  0.
    9000005    1    3    3    0    0  0.93539808512E+01  0.35519769526E+02 -0.78523335253E+02  0.86695243031E+02  0.10000000000E+01 0.  0.
    9000005    1    3    3    0    0 -0.42800161488E+02 -0.24032632459E+01  0.33341331347E+02  0.54316423608E+02  0.10000000000E+01 0.  0.
          4    1    1    2  501    0  0.33446180637E+02 -0.33116506280E+02  0.89109657905E+01  0.47920436128E+02  0.12700000000E+01 0. -1.
<mgrwt>
<rscale>  1 0.13357723E+03</rscale>
<asrwt>0</asrwt>
<pdfrwt beam="1">  1       21 0.11742608E-01 0.13357723E+03</pdfrwt>
<pdfrwt beam="2">  1        4 0.17324131E-01 0.13357723E+03</pdfrwt>
<totfact> 0.71798257E+04</totfact>
</mgrwt>
</event>
<event>
 6    4  0.6195789E-003  0.1432635E+03  0.7818608E-02  0.1209004E+00
         -4   -1    0    0    0  501 -0.00000000000E+00  0.00000000000E+00  0.95647224528E+03  0.95647308843E+03  0.12700000000E+01 0.  1.
         21   -1    0    0  501  502  0.00000000000E+00 -0.00000000000E+00 -0.12174794268E+02  0.12174794268E+02  0.00000000000E+00 0. -1.
         25    2    1    2    0    0 -0.29608659173E+02 -0.63419616975E+02  0.70048192615E+03  0.71498207188E+03  0.12500285489E+03 0.  0.
    9000005    1    3    3    0    0  0.50552746546E+01 -0.67956754100E+02  0.16722214255E+03  0.18057663522E+03  0.10000000000E+01 0.  0.
    9000005    1    3    3    0    0 -0.34663933827E+02  0.45371371254E+01  0.53325978360E+03  0.53440543666E+03  0.10000000000E+01 0.  0.
         -4    1    1    2    0  502  0.29608659173E+02  0.63419616975E+02  0.24381552486E+03  0.25366581082E+03  0.12700000000E+01 0. -1.
<mgrwt>
<rscale>  1 0.14326351E+03</rscale>
<asrwt>0</asrwt>
<pdfrwt beam="2">  1       21 0.18730460E-02 0.14326351E+03</pdfrwt>
<pdfrwt beam="1">  1       -4 0.14715468E+00 0.14326351E+03</pdfrwt>
<totfact> 0.18715134E+04</totfact>
</mgrwt>
</event>
<event>
 6    4  0.6195789E-003  0.1376365E+03  0.7818608E-02  0.1216545E+00
          4   -1    0    0  502    0 -0.00000000000E+00  0.00000000000E+00  0.11054603955E+03  0.11055333446E+03  0.12700000000E+01 0. -1.
         21   -1    0    0  501  502  0.00000000000E+00 -0.00000000000E+00 -0.10804995154E+03  0.10804995154E+03  0.00000000000E+00 0.  1.
         25    2    1    2    0    0 -0.86151311257E+01  0.56981090803E+02  0.47362543599E+02  0.14555756791E+03  0.12499091905E+03 0.  0.
    9000005    1    3    3    0    0  0.47195636003E+02 -0.12047677611E+02  0.13621695255E+02  0.50587796702E+02  0.10000000000E+01 0.  0.
    9000005    1    3    3    0    0 -0.55810767128E+02  0.69028768414E+02  0.33740848344E+02  0.94969771207E+02  0.10000000000E+01 0.  0.
          4    1    1    2  501    0  0.86151311257E+01 -0.56981090803E+02 -0.44866455589E+02  0.73045718084E+02  0.12700000000E+01 0.  1.
<mgrwt>
<rscale>  1 0.13763646E+03</rscale>
<asrwt>0</asrwt>
<pdfrwt beam="2">  1       21 0.16623069E-01 0.13763646E+03</pdfrwt>
<pdfrwt beam="1">  1        4 0.17008218E-01 0.13763646E+03</pdfrwt>
<totfact> 0.39886438E+04</totfact>
</mgrwt>
</event>
<event>
 6    4  0.6195789E-003  0.1292502E+03  0.7818608E-02  0.1228572E+00
          4   -1    0    0  502    0 -0.00000000000E+00  0.00000000000E+00  0.95703133008E+03  0.95703217274E+03  0.12700000000E+01 0.  1.
         21   -1    0    0  501  502  0.00000000000E+00 -0.00000000000E+00 -0.13177499200E+02  0.13177499200E+02  0.00000000000E+00 0. -1.
         25    2    1    2    0    0 -0.26111457281E+02  0.19961388816E+02  0.92131358520E+03  0.93033560994E+03  0.12500143842E+03 0.  0.
    9000005    1    3    3    0    0 -0.48245642574E+02  0.46595766635E+02  0.27386444703E+03  0.28196017953E+03  0.10000000000E+01 0.  0.
    9000005    1    3    3    0    0  0.22134185292E+02 -0.26634377819E+02  0.64744913817E+03  0.64837543040E+03  0.10000000000E+01 0.  0.
          4    1    1    2  501    0  0.26111457281E+02 -0.19961388816E+02  0.22540245684E+02  0.39874061999E+02  0.12700000000E+01 0. -1.
<mgrwt>
<rscale>  1 0.12925024E+03</rscale>
<asrwt>0</asrwt>
<pdfrwt beam="2">  1       21 0.20273083E-02 0.12925024E+03</pdfrwt>
<pdfrwt beam="1">  1        4 0.14724031E+00 0.12925024E+03</pdfrwt>
<totfact> 0.16279617E+04</totfact>
</mgrwt>
</event>
<event>
 6    4  0.6195789E-003  0.1279643E+03  0.7818608E-02  0.1230508E+00
         21   -1    0    0  501  502  0.00000000000E+00  0.00000000000E+00  0.24184676757E+03  0.24184676757E+03  0.00000000000E+00 0. -1.
          4   -1    0    0  502    0 -0.00000000000E+00 -0.00000000000E+00 -0.72702093901E+02  0.72713185582E+02  0.12700000000E+01 0.  1.
         25    2    1    2    0    0 -0.27353992322E+02  0.99356144680E+00 -0.14589893975E+02  0.12879334607E+03  0.12500253167E+03 0.  0.
    9000005    1    3    3    0    0  0.84777665732E+01  0.36070046113E+01 -0.65678466400E+02  0.66329058165E+02  0.10000000000E+01 0.  0.
    9000005    1    3    3    0    0 -0.35831758895E+02 -0.26134431645E+01  0.51088572426E+02  0.62464287903E+02  0.10000000000E+01 0.  0.
          4    1    1    2  501    0  0.27353992322E+02 -0.99356144680E+00  0.18373456765E+03  0.18576660709E+03  0.12700000000E+01 0. -1.
<mgrwt>
<rscale>  1 0.12796430E+03</rscale>
<asrwt>0</asrwt>
<pdfrwt beam="1">  1       21 0.37207195E-01 0.12796430E+03</pdfrwt>
<pdfrwt beam="2">  1        4 0.11186047E-01 0.12796430E+03</pdfrwt>
<totfact> 0.17787661E+04</totfact>
</mgrwt>
</event>
<event>
 6    4  0.6195789E-003  0.1326553E+03  0.7818608E-02  0.1223568E+00
         -4   -1    0    0    0  501 -0.00000000000E+00  0.00000000000E+00  0.76602840709E+02  0.76613367663E+02  0.12700000000E+01 0.  1.
         21   -1    0    0  501  502  0.00000000000E+00 -0.00000000000E+00 -0.10564587527E+03  0.10564587527E+03  0.00000000000E+00 0.  1.
         25    2    1    2    0    0  0.24404328247E+02 -0.37099077013E+02 -0.74479542514E+01  0.13286417085E+03  0.12500201247E+03 0.  0.
    9000005    1    3    3    0    0  0.17954374590E+02 -0.79288558455E+02 -0.27326449676E+02  0.85771614889E+02  0.10000000000E+01 0.  0.
    9000005    1    3    3    0    0  0.64499536570E+01  0.42189481443E+02  0.19878495424E+02  0.47092555961E+02  0.10000000000E+01 0.  0.
         -4    1    1    2    0  502 -0.24404328247E+02  0.37099077013E+02 -0.21595080308E+02  0.49395072081E+02  0.12700000000E+01 0. -1.
<mgrwt>
<rscale>  1 0.13265525E+03</rscale>
<asrwt>0</asrwt>
<pdfrwt beam="2">  1       21 0.16253212E-01 0.13265525E+03</pdfrwt>
<pdfrwt beam="1">  1       -4 0.11786449E-01 0.13265525E+03</pdfrwt>
<totfact> 0.78222253E+04</totfact>
</mgrwt>
</event>
<event>
 6    4  0.6195789E-003  0.1283377E+03  0.7818608E-02  0.1229943E+00
          4   -1    0    0  502    0 -0.00000000000E+00  0.00000000000E+00  0.38141182280E+02  0.38162320235E+02  0.12700000000E+01 0.  1.
         21   -1    0    0  501  502  0.00000000000E+00 -0.00000000000E+00 -0.18913640176E+03  0.18913640176E+03  0.00000000000E+00 0. -1.
         25    2    1    2    0    0  0.24711197676E+02  0.15305231257E+02 -0.81681843268E+02  0.15212658343E+03  0.12500272186E+03 0.  0.
    9000005    1    3    3    0    0  0.61361833413E+02  0.39291038297E+02 -0.80097089671E+02  0.10828482841E+03  0.10000000000E+01 0.  0.
    9000005    1    3    3    0    0 -0.36650635736E+02 -0.23985807040E+02 -0.15847535967E+01  0.43841755019E+02  0.10000000000E+01 0.  0.
          4    1    1    2  501    0 -0.24711197676E+02 -0.15305231257E+02 -0.69313376217E+02  0.75172138569E+02  0.12700000000E+01 0. -1.
<mgrwt>
<rscale>  1 0.12833773E+03</rscale>
<asrwt>0</asrwt>
<pdfrwt beam="2">  1       21 0.29097908E-01 0.12833773E+03</pdfrwt>
<pdfrwt beam="1">  1        4 0.58698282E-02 0.12833773E+03</pdfrwt>
<totfact> 0.83672457E+04</totfact>
</mgrwt>
</event>
<event>
 6    4  0.6195789E-003  0.1396756E+03  0.7818608E-02  0.1213766E+00
          4   -1    0    0  502    0 -0.00000000000E+00  0.00000000000E+00  0.32242447499E+03  0.32242697618E+03  0.12700000000E+01 0.  1.
         21   -1    0    0  501  502  0.00000000000E+00 -0.00000000000E+00 -0.31838782702E+02  0.31838782702E+02  0.00000000000E+00 0. -1.
         25    2    1    2    0    0  0.61055472779E+02 -0.12537336390E+02  0.18771967770E+03  0.23398281987E+03  0.12499730814E+03 0.  0.
    9000005    1    3    3    0    0 -0.20089201797E+02 -0.44967357304E+02  0.92083827226E+02  0.10443213341E+03  0.10000000000E+01 0.  0.
    9000005    1    3    3    0    0  0.81144674576E+02  0.32430020914E+02  0.95635850470E+02  0.12955068647E+03  0.10000000000E+01 0.  0.
          4    1    1    2  501    0 -0.61055472779E+02  0.12537336390E+02  0.10286601459E+03  0.12028293901E+03  0.12700000000E+01 0. -1.
<mgrwt>
<rscale>  1 0.13967563E+03</rscale>
<asrwt>0</asrwt>
<pdfrwt beam="2">  1       21 0.48982745E-02 0.13967563E+03</pdfrwt>
<pdfrwt beam="1">  1        4 0.49605904E-01 0.13967563E+03</pdfrwt>
<totfact> 0.44552899E+04</totfact>
</mgrwt>
</event>
<event>
 6    4  0.6195789E-003  0.1275605E+03  0.7818608E-02  0.1231121E+00
         21   -1    0    0  501  502  0.00000000000E+00  0.00000000000E+00  0.45491604136E+02  0.45491604136E+02  0.00000000000E+00 0.  1.
          4   -1    0    0  502    0 -0.00000000000E+00 -0.00000000000E+00 -0.17344120613E+03  0.17344585578E+03  0.12700000000E+01 0. -1.
         25    2    1    2    0    0 -0.22712304923E+02  0.11453030442E+02 -0.14115140470E+03  0.19025085684E+03  0.12499859511E+03 0.  0.
    9000005    1    3    3    0    0  0.14067119453E+02  0.36763467966E+02  0.28549327121E+01  0.39478944608E+02  0.10000000000E+01 0.  0.
    9000005    1    3    3    0    0 -0.36779424376E+02 -0.25310437524E+02 -0.14400633741E+03  0.15077191223E+03  0.10000000000E+01 0.  0.
          4    1    1    2  501    0  0.22712304923E+02 -0.11453030442E+02  0.13201802697E+02  0.28686603069E+02  0.12700000000E+01 0.  1.
<mgrwt>
<rscale>  1 0.12756045E+03</rscale>
<asrwt>0</asrwt>
<pdfrwt beam="1">  1       21 0.69987083E-02 0.12756045E+03</pdfrwt>
<pdfrwt beam="2">  1        4 0.26684984E-01 0.12756045E+03</pdfrwt>
<totfact> 0.80183111E+04</totfact>
</mgrwt>
</event>
<event>
 6    4  0.6195789E-003  0.1294997E+03  0.7818608E-02  0.1228200E+00
         21   -1    0    0  501  502  0.00000000000E+00  0.00000000000E+00  0.44156603918E+02  0.44156603918E+02  0.00000000000E+00 0. -1.
         -4   -1    0    0    0  501 -0.00000000000E+00 -0.00000000000E+00 -0.20521953361E+03  0.20522346327E+03  0.12700000000E+01 0.  1.
         25    2    1    2    0    0  0.33417182033E+02  0.51919174296E+01 -0.17063422664E+03  0.21421066732E+03  0.12500602639E+03 0.  0.
    9000005    1    3    3    0    0  0.51566835985E+01  0.62004579908E+02 -0.11032137745E+03  0.12666082913E+03  0.10000000000E+01 0.  0.
    9000005    1    3    3    0    0  0.28260498435E+02 -0.56812662478E+02 -0.60312849191E+02  0.87549838190E+02  0.10000000000E+01 0.  0.
         -4    1    1    2    0  502 -0.33417182033E+02 -0.51919174296E+01  0.95712969413E+01  0.35169399864E+02  0.12700000000E+01 0. -1.
<mgrwt>
<rscale>  1 0.12949969E+03</rscale>
<asrwt>0</asrwt>
<pdfrwt beam="1">  1       21 0.67933237E-02 0.12949969E+03</pdfrwt>
<pdfrwt beam="2">  1       -4 0.31573943E-01 0.12949969E+03</pdfrwt>
<totfact> 0.61626043E+04</totfact>
</mgrwt>
</event>
<event>
 6    4  0.6195789E-003  0.1266680E+03  0.7818608E-02  0.1232485E+00
         -4   -1    0    0    0  501 -0.00000000000E+00  0.00000000000E+00  0.15635152426E+03  0.15635668211E+03  0.12700000000E+01 0.  1.
         21   -1    0    0  501  502  0.00000000000E+00 -0.00000000000E+00 -0.41570327796E+02  0.41570327796E+02  0.00000000000E+00 0.  1.
         25    2    1    2    0    0 -0.19527435703E+02 -0.62435758343E+01  0.12228026713E+03  0.17606032416E+03  0.12499788410E+03 0.  0.
    9000005    1    3    3    0    0 -0.33531036006E+02  0.40262149820E+02  0.94963543760E+01  0.53259288676E+02  0.10000000000E+01 0.  0.
    9000005    1    3    3    0    0  0.14003600303E+02 -0.46505725655E+02  0.11278391276E+03  0.12280103549E+03  0.10000000000E+01 0.  0.
         -4    1    1    2    0  502  0.19527435703E+02  0.62435758343E+01 -0.74990706659E+01  0.21866685739E+02  0.12700000000E+01 0. -1.
<mgrwt>
<rscale>  1 0.12666797E+03</rscale>
<asrwt>0</asrwt>
<pdfrwt beam="2">  1       21 0.63954351E-02 0.12666797E+03</pdfrwt>
<pdfrwt beam="1">  1       -4 0.24055969E-01 0.12666797E+03</pdfrwt>
<totfact> 0.11313414E+05</totfact>
</mgrwt>
</event>
<event>
 6    4  0.6195789E-003  0.1309939E+03  0.7818608E-02  0.1225988E+00
         21   -1    0    0  501  502  0.00000000000E+00  0.00000000000E+00  0.12065854197E+02  0.12065854197E+02  0.00000000000E+00 0.  1.
          4   -1    0    0  502    0 -0.00000000000E+00 -0.00000000000E+00 -0.72766123608E+03  0.72766234435E+03  0.12700000000E+01 0. -1.
         25    2    1    2    0    0 -0.38742670978E+02 -0.57925100565E+01 -0.65197178135E+03  0.66500120763E+03  0.12499941899E+03 0.  0.
    9000005    1    3    3    0    0 -0.77855485487E+02 -0.28247328196E+02 -0.48602439351E+03  0.49303153982E+03  0.10000000000E+01 0.  0.
    9000005    1    3    3    0    0  0.39112814510E+02  0.22454818140E+02 -0.16594738784E+03  0.17196966781E+03  0.10000000000E+01 0.  0.
          4    1    1    2  501    0  0.38742670978E+02  0.57925100565E+01 -0.63623600534E+02  0.74726990921E+02  0.12700000000E+01 0.  1.
<mgrwt>
<rscale>  1 0.13099390E+03</rscale>
<asrwt>0</asrwt>
<pdfrwt beam="1">  1       21 0.18562848E-02 0.13099390E+03</pdfrwt>
<pdfrwt beam="2">  1        4 0.11195314E+00 0.13099390E+03</pdfrwt>
<totfact> 0.36684010E+04</totfact>
</mgrwt>
</event>
<event>
 6    4  0.6195789E-003  0.1275467E+03  0.7818608E-02  0.1231142E+00
         21   -1    0    0  501  502  0.00000000000E+00  0.00000000000E+00  0.17177077821E+03  0.17177077821E+03  0.00000000000E+00 0.  1.
         -4   -1    0    0    0  501 -0.00000000000E+00 -0.00000000000E+00 -0.40411173463E+02  0.40431124652E+02  0.12700000000E+01 0.  1.
         25    2    1    2    0    0  0.17139679950E+02 -0.18697553032E+02  0.69323392814E+02  0.14516854095E+03  0.12499922149E+03 0.  0.
    9000005    1    3    3    0    0  0.24974246183E+02 -0.10261320804E+02  0.10460733995E+03  0.10804028530E+03  0.10000000000E+01 0.  0.
    9000005    1    3    3    0    0 -0.78345662330E+01 -0.84362322279E+01 -0.35283947134E+02  0.37128255650E+02  0.10000000000E+01 0.  0.
         -4    1    1    2    0  502 -0.17139679950E+02  0.18697553032E+02  0.62036211939E+02  0.67033361916E+02  0.12700000000E+01 0. -1.
<mgrwt>
<rscale>  1 0.12754675E+03</rscale>
<asrwt>0</asrwt>
<pdfrwt beam="1">  1       21 0.26426273E-01 0.12754675E+03</pdfrwt>
<pdfrwt beam="2">  1       -4 0.62189996E-02 0.12754675E+03</pdfrwt>
<totfact> 0.91499780E+04</totfact>
</mgrwt>
</event>
<event>
 6    4  0.6195789E-003  0.1359919E+03  0.7818608E-02  0.1218826E+00
         -4   -1    0    0    0  501 -0.00000000000E+00  0.00000000000E+00  0.15294020475E+02  0.15346659646E+02  0.12700000000E+01 0. -1.
         21   -1    0    0  501  502  0.00000000000E+00 -0.00000000000E+00 -0.99421702188E+03  0.99421702188E+03  0.00000000000E+00 0.  1.
         25    2    1    2    0    0  0.19450761365E+02  0.49835269565E+02 -0.31016458681E+03  0.33866777589E+03  0.12502761816E+03 0.  0.
    9000005    1    3    3    0    0  0.70918697292E+02  0.11773674705E+02 -0.15844548647E+03  0.17399440572E+03  0.10000000000E+01 0.  0.
    9000005    1    3    3    0    0 -0.51467935927E+02  0.38061594860E+02 -0.15171910034E+03  0.16467337016E+03  0.10000000000E+01 0.  0.
         -4    1    1    2    0  502 -0.19450761365E+02 -0.49835269565E+02 -0.66875841460E+03  0.67089590564E+03  0.12700000000E+01 0.  1.
<mgrwt>
<rscale>  1 0.13599188E+03</rscale>
<asrwt>0</asrwt>
<pdfrwt beam="2">  1       21 0.15295646E+00 0.13599188E+03</pdfrwt>
<pdfrwt beam="1">  1       -4 0.23570379E-02 0.13599188E+03</pdfrwt>
<totfact> 0.93249371E+03</totfact>
</mgrwt>
</event>
<event>
 6    4  0.6195789E-003  0.1280609E+03  0.7818608E-02  0.1230362E+00
         21   -1    0    0  501  502  0.00000000000E+00  0.00000000000E+00  0.64300917139E+03  0.64300917139E+03  0.00000000000E+00 0. -1.
          4   -1    0    0  502    0 -0.00000000000E+00 -0.00000000000E+00 -0.24215592898E+02  0.24248872951E+02  0.12700000000E+01 0.  1.
         25    2    1    2    0    0 -0.17283361794E+02  0.21815734449E+02  0.14829885057E+03  0.19593910480E+03  0.12499977138E+03 0.  0.
    9000005    1    3    3    0    0  0.38205932873E+02  0.13086602300E+02  0.34118884252E+01  0.40541256136E+02  0.10000000000E+01 0.  0.
    9000005    1    3    3    0    0 -0.55489294667E+02  0.87291321486E+01  0.14488696215E+03  0.15539784867E+03  0.10000000000E+01 0.  0.
          4    1    1    2  501    0  0.17283361794E+02 -0.21815734449E+02  0.47049472792E+03  0.47131893953E+03  0.12700000000E+01 0. -1.
<mgrwt>
<rscale>  1 0.12806086E+03</rscale>
<asrwt>0</asrwt>
<pdfrwt beam="1">  1       21 0.98924475E-01 0.12806086E+03</pdfrwt>
<pdfrwt beam="2">  1        4 0.37281328E-02 0.12806086E+03</pdfrwt>
<totfact> 0.13258761E+04</totfact>
</mgrwt>
</event>
<event>
 6    4  0.6195789E-003  0.1276846E+03  0.7818608E-02  0.1230932E+00
          4   -1    0    0  502    0 -0.00000000000E+00  0.00000000000E+00  0.10922131927E+02  0.10995720341E+02  0.12700000000E+01 0. -1.
         21   -1    0    0  501  502  0.00000000000E+00 -0.00000000000E+00 -0.58200832583E+03  0.58200832583E+03  0.00000000000E+00 0. -1.
         25    2    1    2    0    0 -0.16213441168E+02 -0.20392380023E+02 -0.39845169892E+03  0.41841021296E+03  0.12499850039E+03 0.  0.
    9000005    1    3    3    0    0 -0.35201283874E+02  0.25998245620E+02 -0.33349474092E+03  0.33635514176E+03  0.10000000000E+01 0.  0.
    9000005    1    3    3    0    0  0.18987842706E+02 -0.46390625643E+02 -0.64956958001E+02  0.82055071208E+02  0.10000000000E+01 0.  0.
          4    1    1    2  501    0  0.16213441168E+02  0.20392380023E+02 -0.17263449498E+03  0.17459383321E+03  0.12700000000E+01 0.  1.
<mgrwt>
<rscale>  1 0.12768457E+03</rscale>
<asrwt>0</asrwt>
<pdfrwt beam="2">  1       21 0.89539771E-01 0.12768457E+03</pdfrwt>
<pdfrwt beam="1">  1        4 0.16860947E-02 0.12768457E+03</pdfrwt>
<totfact> 0.57216646E+04</totfact>
</mgrwt>
</event>
<event>
 6    4  0.6195789E-003  0.1271702E+03  0.7818608E-02  0.1231716E+00
          4   -1    0    0  502    0 -0.00000000000E+00  0.00000000000E+00  0.16036977554E+03  0.16037480415E+03  0.12700000000E+01 0.  1.
         21   -1    0    0  501  502  0.00000000000E+00 -0.00000000000E+00 -0.79208196579E+02  0.79208196579E+02  0.00000000000E+00 0. -1.
         25    2    1    2    0    0 -0.15618539632E+02  0.17469587802E+02  0.13218211733E+03  0.18342399865E+03  0.12499250323E+03 0.  0.
    9000005    1    3    3    0    0  0.28835794200E+01  0.41334867468E+02 -0.60872641796E+01  0.41892016949E+02  0.10000000000E+01 0.  0.
    9000005    1    3    3    0    0 -0.18502119052E+02 -0.23865279666E+02  0.13826938151E+03  0.14153198171E+03  0.10000000000E+01 0.  0.
          4    1    1    2  501    0  0.15618539632E+02 -0.17469587802E+02 -0.51020538371E+02  0.56159002073E+02  0.12700000000E+01 0. -1.
<mgrwt>
<rscale>  1 0.12717017E+03</rscale>
<asrwt>0</asrwt>
<pdfrwt beam="2">  1       21 0.12185876E-01 0.12717017E+03</pdfrwt>
<pdfrwt beam="1">  1        4 0.24673443E-01 0.12717017E+03</pdfrwt>
<totfact> 0.35300344E+04</totfact>
</mgrwt>
</event>
<event>
 6    4  0.6195789E-003  0.1270962E+03  0.7818608E-02  0.1231829E+00
         21   -1    0    0  501  502  0.00000000000E+00  0.00000000000E+00  0.25819126013E+02  0.25819126013E+02  0.00000000000E+00 0. -1.
          4   -1    0    0  502    0 -0.00000000000E+00 -0.00000000000E+00 -0.26059468965E+03  0.26059778429E+03  0.12700000000E+01 0. -1.
         25    2    1    2    0    0  0.67064452040E+01  0.21994529365E+02 -0.23017382077E+03  0.26293234800E+03  0.12499878449E+03 0.  0.
    9000005    1    3    3    0    0  0.98791368842E+01 -0.37783215513E+02 -0.19011373336E+02  0.43446530773E+02  0.10000000000E+01 0.  0.
    9000005    1    3    3    0    0 -0.31726916802E+01  0.59777744878E+02 -0.21116244744E+03  0.21948581722E+03  0.10000000000E+01 0.  0.
          4    1    1    2  501    0 -0.67064452040E+01 -0.21994529365E+02 -0.46017428697E+01  0.23484562306E+02  0.12700000000E+01 0.  1.
<mgrwt>
<rscale>  1 0.12709615E+03</rscale>
<asrwt>0</asrwt>
<pdfrwt beam="1">  1       21 0.39721732E-02 0.12709615E+03</pdfrwt>
<pdfrwt beam="2">  1        4 0.40094132E-01 0.12709615E+03</pdfrwt>
<totfact> 0.95574368E+04</totfact>
</mgrwt>
</event>
<event>
 6    4  0.6195789E-003  0.1280343E+03  0.7818608E-02  0.1230402E+00
         21   -1    0    0  501  502  0.00000000000E+00  0.00000000000E+00  0.18956409450E+03  0.18956409450E+03  0.00000000000E+00 0.  1.
         -4   -1    0    0    0  501 -0.00000000000E+00 -0.00000000000E+00 -0.34797192629E+02  0.34820360637E+02  0.12700000000E+01 0.  1.
         25    2    1    2    0    0 -0.27333093948E+02  0.45150360018E+01  0.98102068477E+02  0.16129721539E+03  0.12500116911E+03 0.  0.
    9000005    1    3    3    0    0  0.39572117009E+02 -0.57117186318E+01 -0.24662266568E+01  0.40070668178E+02  0.10000000000E+01 0.  0.
    9000005    1    3    3    0    0 -0.66905210958E+02  0.10226754634E+02  0.10056829513E+03  0.12122654721E+03  0.10000000000E+01 0.  0.
         -4    1    1    2    0  502  0.27333093948E+02 -0.45150360018E+01  0.56664833396E+02  0.63087239746E+02  0.12700000000E+01 0. -1.
<mgrwt>
<rscale>  1 0.12803428E+03</rscale>
<asrwt>0</asrwt>
<pdfrwt beam="1">  1       21 0.29163706E-01 0.12803428E+03</pdfrwt>
<pdfrwt beam="2">  1       -4 0.53555238E-02 0.12803428E+03</pdfrwt>
<totfact> 0.96590766E+04</totfact>
</mgrwt>
</event>
<event>
 6    4  0.6195789E-003  0.1301449E+03  0.7818608E-02  0.1227241E+00
         -4   -1    0    0    0  501 -0.00000000000E+00  0.00000000000E+00  0.20655019881E+02  0.20694026826E+02  0.12700000000E+01 0.  1.
         21   -1    0    0  501  502  0.00000000000E+00 -0.00000000000E+00 -0.50595303448E+03  0.50595303448E+03  0.00000000000E+00 0.  1.
         25    2    1    2    0    0 -0.20045972850E+02 -0.30169936816E+02 -0.19717576956E+03  0.23625403952E+03  0.12500248387E+03 0.  0.
    9000005    1    3    3    0    0  0.34380925001E+02 -0.58587350551E+02 -0.90442816826E+02  0.11311688099E+03  0.10000000000E+01 0.  0.
    9000005    1    3    3    0    0 -0.54426897851E+02  0.28417413735E+02 -0.10673295274E+03  0.12313715854E+03  0.10000000000E+01 0.  0.
         -4    1    1    2    0  502  0.20045972850E+02  0.30169936816E+02 -0.28812224504E+03  0.29039302178E+03  0.12700000000E+01 0. -1.
<mgrwt>
<rscale>  1 0.13014487E+03</rscale>
<asrwt>0</asrwt>
<pdfrwt beam="2">  1       21 0.77838923E-01 0.13014487E+03</pdfrwt>
<pdfrwt beam="1">  1       -4 0.31808187E-02 0.13014487E+03</pdfrwt>
<totfact> 0.29416831E+04</totfact>
</mgrwt>
</event>
<event>
 6    4  0.6195789E-003  0.1267991E+03  0.7818608E-02  0.1232284E+00
         21   -1    0    0  501  502  0.00000000000E+00  0.00000000000E+00  0.10472436760E+02  0.10472436760E+02  0.00000000000E+00 0. -1.
         -4   -1    0    0    0  501 -0.00000000000E+00 -0.00000000000E+00 -0.77943371315E+03  0.77943474781E+03  0.12700000000E+01 0.  1.
         25    2    1    2    0    0  0.18975027716E+02 -0.96510183125E+01 -0.75211849341E+03  0.76273208439E+03  0.12499924240E+03 0.  0.
    9000005    1    3    3    0    0 -0.36072953809E+02 -0.34373910971E+02 -0.53699835688E+03  0.53930609031E+03  0.10000000000E+01 0.  0.
    9000005    1    3    3    0    0  0.55047981525E+02  0.24722892659E+02 -0.21512013652E+03  0.22342599408E+03  0.10000000000E+01 0.  0.
         -4    1    1    2    0  502 -0.18975027716E+02  0.96510183125E+01 -0.16842782982E+02  0.27175100181E+02  0.12700000000E+01 0. -1.
<mgrwt>
<rscale>  1 0.12679907E+03</rscale>
<asrwt>0</asrwt>
<pdfrwt beam="1">  1       21 0.16111436E-02 0.12679907E+03</pdfrwt>
<pdfrwt beam="2">  1       -4 0.11991892E+00 0.12679907E+03</pdfrwt>
<totfact> 0.38945824E+04</totfact>
</mgrwt>
</event>
<event>
 6    4  0.6195789E-003  0.1361732E+03  0.7818608E-02  0.1218573E+00
          4   -1    0    0  502    0 -0.00000000000E+00  0.00000000000E+00  0.29833031113E+03  0.29833301433E+03  0.12700000000E+01 0. -1.
         21   -1    0    0  501  502  0.00000000000E+00 -0.00000000000E+00 -0.95591357400E+02  0.95591357400E+02  0.00000000000E+00 0.  1.
         25    2    1    2    0    0  0.48592671486E+02 -0.23603165728E+02  0.27312425855E+03  0.30518846475E+03  0.12499912500E+03 0.  0.
    9000005    1    3    3    0    0  0.80528533939E+02 -0.42101325931E+02  0.23572669797E+03  0.25263697781E+03  0.10000000000E+01 0.  0.
    9000005    1    3    3    0    0 -0.31935862453E+02  0.18498160203E+02  0.37397560581E+02  0.52551486933E+02  0.10000000000E+01 0.  0.
          4    1    1    2  501    0 -0.48592671486E+02  0.23603165728E+02 -0.70385304816E+02  0.88735906986E+02  0.12700000000E+01 0.  1.
<mgrwt>
<rscale>  1 0.13617319E+03</rscale>
<asrwt>0</asrwt>
<pdfrwt beam="2">  1       21 0.14706363E-01 0.13617319E+03</pdfrwt>
<pdfrwt beam="1">  1        4 0.45897827E-01 0.13617319E+03</pdfrwt>
<totfact> 0.77102266E+03</totfact>
</mgrwt>
</event>
<event>
 6    4  0.6195789E-003  0.1304792E+03  0.7818608E-02  0.1226746E+00
          4   -1    0    0  502    0 -0.00000000000E+00  0.00000000000E+00  0.26126041825E+03  0.26126350499E+03  0.12700000000E+01 0. -1.
         21   -1    0    0  501  502  0.00000000000E+00 -0.00000000000E+00 -0.36177764287E+02  0.36177764287E+02  0.00000000000E+00 0.  1.
         25    2    1    2    0    0 -0.62831586631E+01  0.36890696966E+02  0.22488611356E+03  0.25999726931E+03  0.12499765747E+03 0.  0.
    9000005    1    3    3    0    0 -0.55083952446E+02  0.51915538106E+02  0.16328299575E+03  0.17997722527E+03  0.10000000000E+01 0.  0.
    9000005    1    3    3    0    0  0.48800793783E+02 -0.15024841140E+02  0.61603117813E+02  0.80020044048E+02  0.10000000000E+01 0.  0.
          4    1    1    2  501    0  0.62831586631E+01 -0.36890696966E+02  0.19654039669E+00  0.37443999967E+02  0.12700000000E+01 0.  1.
<mgrwt>
<rscale>  1 0.13047918E+03</rscale>
<asrwt>0</asrwt>
<pdfrwt beam="2">  1       21 0.55658101E-02 0.13047918E+03</pdfrwt>
<pdfrwt beam="1">  1        4 0.40195861E-01 0.13047918E+03</pdfrwt>
<totfact> 0.54260492E+04</totfact>
</mgrwt>
</event>
<event>
 6    4  0.6195789E-003  0.1290534E+03  0.7818608E-02  0.1228867E+00
          4   -1    0    0  502    0 -0.00000000000E+00  0.00000000000E+00  0.15301908635E+03  0.15302435652E+03  0.12700000000E+01 0.  1.
         21   -1    0    0  501  502  0.00000000000E+00 -0.00000000000E+00 -0.45516679495E+02  0.45516679495E+02  0.00000000000E+00 0.  1.
         25    2    1    2    0    0 -0.52500760215E+01  0.31659515348E+02  0.10491716669E+03  0.16632016425E+03  0.12499958784E+03 0.  0.
    9000005    1    3    3    0    0  0.38313001336E+02  0.97452206131E+01  0.11037075477E+03  0.11724145557E+03  0.10000000000E+01 0.  0.
    9000005    1    3    3    0    0 -0.43563077358E+02  0.21914294735E+02 -0.54535880847E+01  0.49078708679E+02  0.10000000000E+01 0.  0.
          4    1    1    2  501    0  0.52500760215E+01 -0.31659515348E+02  0.25852401710E+01  0.32220871761E+02  0.12700000000E+01 0. -1.
<mgrwt>
<rscale>  1 0.12905342E+03</rscale>
<asrwt>0</asrwt>
<pdfrwt beam="2">  1       21 0.70025662E-02 0.12905342E+03</pdfrwt>
<pdfrwt beam="1">  1        4 0.23543166E-01 0.12905342E+03</pdfrwt>
<totfact> 0.10109939E+05</totfact>
</mgrwt>
</event>
<event>
 6    4  0.6195789E-003  0.1281599E+03  0.7818608E-02  0.1230212E+00
         -4   -1    0    0    0  501 -0.00000000000E+00  0.00000000000E+00  0.48179206373E+03  0.48179373759E+03  0.12700000000E+01 0. -1.
         21   -1    0    0  501  502  0.00000000000E+00 -0.00000000000E+00 -0.51676969481E+02  0.51676969481E+02  0.00000000000E+00 0.  1.
         25    2    1    2    0    0 -0.21315133069E+02 -0.18607146194E+02  0.46853088246E+03  0.48574286958E+03  0.12499754694E+03 0.  0.
    9000005    1    3    3    0    0 -0.44365579250E+02  0.77566786064E+01  0.56669224750E+02  0.72393865203E+02  0.10000000000E+01 0.  0.
    9000005    1    3    3    0    0  0.23050446181E+02 -0.26363824801E+02  0.41186165771E+03  0.41334900438E+03  0.10000000000E+01 0.  0.
         -4    1    1    2    0  502  0.21315133069E+02  0.18607146194E+02 -0.38415788209E+02  0.47727837485E+02  0.12700000000E+01 0.  1.
<mgrwt>
<rscale>  1 0.12815985E+03</rscale>
<asrwt>0</asrwt>
<pdfrwt beam="2">  1       21 0.79503033E-02 0.12815985E+03</pdfrwt>
<pdfrwt beam="1">  1       -4 0.74123182E-01 0.12815985E+03</pdfrwt>
<totfact> 0.83188064E+03</totfact>
</mgrwt>
</event>
<event>
 6    4  0.6195789E-003  0.1439597E+03  0.7818608E-02  0.1208098E+00
         21   -1    0    0  501  502  0.00000000000E+00  0.00000000000E+00  0.17592682802E+03  0.17592682802E+03  0.00000000000E+00 0. -1.
         -4   -1    0    0    0  501 -0.00000000000E+00 -0.00000000000E+00 -0.23318439474E+03  0.23318785314E+03  0.12700000000E+01 0.  1.
         25    2    1    2    0    0  0.49833945963E+02  0.51146107143E+02 -0.20180200310E+03  0.24788796676E+03  0.12500019664E+03 0.  0.
    9000005    1    3    3    0    0  0.86723430116E+02  0.57891188371E+02 -0.12799396524E+03  0.16509330138E+03  0.10000000000E+01 0.  0.
    9000005    1    3    3    0    0 -0.36889484153E+02 -0.67450812274E+01 -0.73808037862E+02  0.82794665377E+02  0.10000000000E+01 0.  0.
         -4    1    1    2    0  502 -0.49833945963E+02 -0.51146107143E+02  0.14454443638E+03  0.16122671440E+03  0.12700000000E+01 0. -1.
<mgrwt>
<rscale>  1 0.14395970E+03</rscale>
<asrwt>0</asrwt>
<pdfrwt beam="1">  1       21 0.27065666E-01 0.14395970E+03</pdfrwt>
<pdfrwt beam="2">  1       -4 0.35875141E-01 0.14395970E+03</pdfrwt>
<totfact> 0.40626665E+03</totfact>
</mgrwt>
</event>
<event>
 6    4  0.6195789E-003  0.1267219E+03  0.7818608E-02  0.1232402E+00
         21   -1    0    0  501  502  0.00000000000E+00  0.00000000000E+00  0.21398432027E+03  0.21398432027E+03  0.00000000000E+00 0. -1.
          4   -1    0    0  502    0 -0.00000000000E+00 -0.00000000000E+00 -0.46535452556E+02  0.46552779129E+02  0.12700000000E+01 0.  1.
         25    2    1    2    0    0  0.14936627868E+02 -0.14506783617E+02  0.42201316732E+02  0.13356422218E+03  0.12499960276E+03 0.  0.
    9000005    1    3    3    0    0 -0.53888344761E+02 -0.22218764756E+01  0.32492554236E+02  0.62973458829E+02  0.10000000000E+01 0.  0.
    9000005    1    3    3    0    0  0.68824972629E+02 -0.12284907141E+02  0.97087624968E+01  0.70590763348E+02  0.10000000000E+01 0.  0.
          4    1    1    2  501    0 -0.14936627868E+02  0.14506783617E+02  0.12524755098E+03  0.12697287722E+03  0.12700000000E+01 0. -1.
<mgrwt>
<rscale>  1 0.12672194E+03</rscale>
<asrwt>0</asrwt>
<pdfrwt beam="1">  1       21 0.32920664E-01 0.12672194E+03</pdfrwt>
<pdfrwt beam="2">  1        4 0.71609232E-02 0.12672194E+03</pdfrwt>
<totfact> 0.47568004E+04</totfact>
</mgrwt>
</event>
<event>
 6    4  0.6195789E-003  0.1295031E+03  0.7818608E-02  0.1228195E+00
         21   -1    0    0  501  502  0.00000000000E+00  0.00000000000E+00  0.79694951398E+02  0.79694951398E+02  0.00000000000E+00 0.  1.
         -4   -1    0    0    0  501 -0.00000000000E+00 -0.00000000000E+00 -0.95548998096E+02  0.95557437896E+02  0.12700000000E+01 0.  1.
         25    2    1    2    0    0 -0.23986906971E+02  0.23863023482E+02 -0.37795499849E+02  0.13490569349E+03  0.12500492283E+03 0.  0.
    9000005    1    3    3    0    0 -0.32279652726E+02  0.23364729992E+02 -0.81330740107E+02  0.90573593691E+02  0.10000000000E+01 0.  0.
    9000005    1    3    3    0    0  0.82927457556E+01  0.49829348942E+00  0.43535240258E+02  0.44332099802E+02  0.10000000000E+01 0.  0.
         -4    1    1    2    0  502  0.23986906971E+02 -0.23863023482E+02  0.21941453151E+02  0.40346695801E+02  0.12700000000E+01 0. -1.
<mgrwt>
<rscale>  1 0.12950307E+03</rscale>
<asrwt>0</asrwt>
<pdfrwt beam="1">  1       21 0.12260762E-01 0.12950307E+03</pdfrwt>
<pdfrwt beam="2">  1       -4 0.14701273E-01 0.12950307E+03</pdfrwt>
<totfact> 0.88355226E+04</totfact>
</mgrwt>
</event>
<event>
 6    4  0.6195789E-003  0.1281810E+03  0.7818608E-02  0.1230180E+00
         -4   -1    0    0    0  501 -0.00000000000E+00  0.00000000000E+00  0.11474442630E+04  0.11474449658E+04  0.12700000000E+01 0.  1.
         21   -1    0    0  501  502  0.00000000000E+00 -0.00000000000E+00 -0.15455879550E+02  0.15455879550E+02  0.00000000000E+00 0. -1.
         25    2    1    2    0    0 -0.15567387021E+02 -0.23720978507E+02  0.11267533978E+04  0.11340209850E+04  0.12500138652E+03 0.  0.
    9000005    1    3    3    0    0  0.29337144958E+02 -0.60156027100E+02  0.47272731060E+03  0.47744269379E+03  0.10000000000E+01 0.  0.
    9000005    1    3    3    0    0 -0.44904531979E+02  0.36435048593E+02  0.65402608716E+03  0.65657829117E+03  0.10000000000E+01 0.  0.
         -4    1    1    2    0  502  0.15567387021E+02  0.23720978507E+02  0.52349856544E+01  0.28879860367E+02  0.12700000000E+01 0. -1.
<mgrwt>
<rscale>  1 0.12818102E+03</rscale>
<asrwt>0</asrwt>
<pdfrwt beam="2">  1       21 0.23778285E-02 0.12818102E+03</pdfrwt>
<pdfrwt beam="1">  1       -4 0.17653389E+00 0.12818102E+03</pdfrwt>
<totfact> 0.78287094E+03</totfact>
</mgrwt>
</event>
<event>
 6    4  0.6195789E-003  0.1280418E+03  0.7818608E-02  0.1230391E+00
          4   -1    0    0  502    0 -0.00000000000E+00  0.00000000000E+00  0.13996234518E+02  0.14053735471E+02  0.12700000000E+01 0.  1.
         21   -1    0    0  501  502  0.00000000000E+00 -0.00000000000E+00 -0.57254062601E+03  0.57254062601E+03  0.00000000000E+00 0. -1.
         25    2    1    2    0    0 -0.22264746915E+02  0.16532353461E+02 -0.29496668068E+03  0.32155877858E+03  0.12500267079E+03 0.  0.
    9000005    1    3    3    0    0  0.50859589836E+02  0.77943673375E+01 -0.15617634621E+03  0.16443692151E+03  0.10000000000E+01 0.  0.
    9000005    1    3    3    0    0 -0.73124336752E+02  0.87379861240E+01 -0.13879033447E+03  0.15712185707E+03  0.10000000000E+01 0.  0.
          4    1    1    2  501    0  0.22264746915E+02 -0.16532353461E+02 -0.26357771081E+03  0.26503558290E+03  0.12700000000E+01 0. -1.
<mgrwt>
<rscale>  1 0.12804181E+03</rscale>
<asrwt>0</asrwt>
<pdfrwt beam="2">  1       21 0.88083176E-01 0.12804181E+03</pdfrwt>
<pdfrwt beam="1">  1        4 0.21577983E-02 0.12804181E+03</pdfrwt>
<totfact> 0.40676696E+04</totfact>
</mgrwt>
</event>
<event>
 6    4  0.6195789E-003  0.1297817E+03  0.7818608E-02  0.1227780E+00
         21   -1    0    0  501  502  0.00000000000E+00  0.00000000000E+00  0.20108817927E+03  0.20108817927E+03  0.00000000000E+00 0.  1.
          4   -1    0    0  502    0 -0.00000000000E+00 -0.00000000000E+00 -0.35993841797E+02  0.36016240049E+02  0.12700000000E+01 0.  1.
         25    2    1    2    0    0  0.15895587251E+02 -0.31073890512E+02  0.15184221962E+03  0.19974818968E+03  0.12500009302E+03 0.  0.
    9000005    1    3    3    0    0  0.24001473018E+02 -0.78143882450E+02  0.10180445298E+03  0.13056677877E+03  0.10000000000E+01 0.  0.
    9000005    1    3    3    0    0 -0.81058857670E+01  0.47069991938E+02  0.50037766633E+02  0.69181410904E+02  0.10000000000E+01 0.  0.
          4    1    1    2  501    0 -0.15895587251E+02  0.31073890512E+02  0.13252117857E+02  0.37356229645E+02  0.12700000000E+01 0. -1.
<mgrwt>
<rscale>  1 0.12978166E+03</rscale>
<asrwt>0</asrwt>
<pdfrwt beam="1">  1       21 0.30936642E-01 0.12978166E+03</pdfrwt>
<pdfrwt beam="2">  1        4 0.55395457E-02 0.12978166E+03</pdfrwt>
<totfact> 0.81766551E+04</totfact>
</mgrwt>
</event>
<event>
 6    4  0.6195789E-003  0.1321592E+03  0.7818608E-02  0.1224287E+00
         21   -1    0    0  501  502  0.00000000000E+00  0.00000000000E+00  0.71202516356E+02  0.71202516356E+02  0.00000000000E+00 0.  1.
          4   -1    0    0  502    0 -0.00000000000E+00 -0.00000000000E+00 -0.10996957433E+03  0.10997690748E+03  0.12700000000E+01 0.  1.
         25    2    1    2    0    0  0.22380399887E+02  0.36616725508E+02 -0.40456270963E+02  0.13821277134E+03  0.12499757363E+03 0.  0.
    9000005    1    3    3    0    0 -0.20248949371E+02 -0.21089681257E+02  0.26942481578E+02  0.39770490564E+02  0.10000000000E+01 0.  0.
    9000005    1    3    3    0    0  0.42629349258E+02  0.57706406764E+02 -0.67398752540E+02  0.98442280773E+02  0.10000000000E+01 0.  0.
          4    1    1    2  501    0 -0.22380399887E+02 -0.36616725508E+02  0.16892129904E+01  0.42966652494E+02  0.12700000000E+01 0. -1.
<mgrwt>
<rscale>  1 0.13215922E+03</rscale>
<asrwt>0</asrwt>
<pdfrwt beam="1">  1       21 0.10954233E-01 0.13215922E+03</pdfrwt>
<pdfrwt beam="2">  1        4 0.16919831E-01 0.13215922E+03</pdfrwt>
<totfact> 0.84516121E+04</totfact>
</mgrwt>
</event>
<event>
 6    4  0.6195789E-003  0.1272471E+03  0.7818608E-02  0.1231599E+00
         -4   -1    0    0    0  501 -0.00000000000E+00  0.00000000000E+00  0.60954889321E+02  0.60968118161E+02  0.12700000000E+01 0.  1.
         21   -1    0    0  501  502  0.00000000000E+00 -0.00000000000E+00 -0.36963705874E+03  0.36963705874E+03  0.00000000000E+00 0. -1.
         25    2    1    2    0    0  0.15143672459E+02 -0.18361117139E+02 -0.64244583765E+01  0.12740920361E+03  0.12500148023E+03 0.  0.
    9000005    1    3    3    0    0 -0.92462241198E+01  0.48634187570E+02 -0.22385999418E+02  0.54340683019E+02  0.10000000000E+01 0.  0.
    9000005    1    3    3    0    0  0.24389896579E+02 -0.66995304709E+02  0.15961541041E+02  0.73068520586E+02  0.10000000000E+01 0.  0.
         -4    1    1    2    0  502 -0.15143672459E+02  0.18361117139E+02 -0.30225771104E+03  0.30319597329E+03  0.12700000000E+01 0. -1.
<mgrwt>
<rscale>  1 0.12724713E+03</rscale>
<asrwt>0</asrwt>
<pdfrwt beam="2">  1       21 0.56867239E-01 0.12724713E+03</pdfrwt>
<pdfrwt beam="1">  1       -4 0.93788609E-02 0.12724713E+03</pdfrwt>
<totfact> 0.10076744E+04</totfact>
</mgrwt>
</event>
<event>
 6    4  0.6195789E-003  0.1277324E+03  0.7818608E-02  0.1230860E+00
         21   -1    0    0  501  502  0.00000000000E+00  0.00000000000E+00  0.87571214688E+03  0.87571214688E+03  0.00000000000E+00 0.  1.
         -4   -1    0    0    0  501 -0.00000000000E+00 -0.00000000000E+00 -0.36574234543E+02  0.36596277576E+02  0.12700000000E+01 0. -1.
         25    2    1    2    0    0 -0.20193243121E+02  0.16941103236E+02  0.75832082642E+02  0.14854656982E+03  0.12498324128E+03 0.  0.
    9000005    1    3    3    0    0  0.19561089214E+02  0.47277356708E+02 -0.71350922220E+01  0.51669083692E+02  0.10000000000E+01 0.  0.
    9000005    1    3    3    0    0 -0.39754332335E+02 -0.30336253471E+02  0.82967174864E+02  0.96877486130E+02  0.10000000000E+01 0.  0.
         -4    1    1    2    0  502  0.20193243121E+02 -0.16941103236E+02  0.76330582970E+03  0.76376185464E+03  0.12700000000E+01 0.  1.
<mgrwt>
<rscale>  1 0.12773245E+03</rscale>
<asrwt>0</asrwt>
<pdfrwt beam="1">  1       21 0.13472493E+00 0.12773245E+03</pdfrwt>
<pdfrwt beam="2">  1       -4 0.56285725E-02 0.12773245E+03</pdfrwt>
<totfact> 0.32518485E+03</totfact>
</mgrwt>
</event>
<event>
 6    4  0.6195789E-003  0.1301819E+03  0.7818608E-02  0.1227186E+00
          4   -1    0    0  502    0 -0.00000000000E+00  0.00000000000E+00  0.37221809488E+03  0.37222026148E+03  0.12700000000E+01 0. -1.
         21   -1    0    0  501  502  0.00000000000E+00 -0.00000000000E+00 -0.19209853887E+02  0.19209853887E+02  0.00000000000E+00 0. -1.
         25    2    1    2    0    0  0.36241305890E+02  0.30243974941E+01  0.24472729907E+03  0.27719809483E+03  0.12499901453E+03 0.  0.
    9000005    1    3    3    0    0 -0.26671830933E+02  0.44599231447E+02  0.12888009682E+03  0.13896602954E+03  0.10000000000E+01 0.  0.
    9000005    1    3    3    0    0  0.62913136823E+02 -0.41574833953E+02  0.11584720226E+03  0.13823206529E+03  0.10000000000E+01 0.  0.
          4    1    1    2  501    0 -0.36241305890E+02 -0.30243974941E+01  0.10828094192E+03  0.11423202054E+03  0.12700000000E+01 0.  1.
<mgrwt>
<rscale>  1 0.13018192E+03</rscale>
<asrwt>0</asrwt>
<pdfrwt beam="2">  1       21 0.29553624E-02 0.13018192E+03</pdfrwt>
<pdfrwt beam="1">  1        4 0.57267713E-01 0.13018192E+03</pdfrwt>
<totfact> 0.75973727E+04</totfact>
</mgrwt>
</event>
<event>
 6    4  0.6195789E-003  0.1332683E+03  0.7818608E-02  0.1222685E+00
         21   -1    0    0  501  502  0.00000000000E+00  0.00000000000E+00  0.26667848683E+03  0.26667848683E+03  0.00000000000E+00 0. -1.
          4   -1    0    0  502    0 -0.00000000000E+00 -0.00000000000E+00 -0.41849024528E+02  0.41868290554E+02  0.12700000000E+01 0.  1.
         25    2    1    2    0    0 -0.15202676822E+02  0.43641723524E+02  0.77567563193E+02  0.15419846595E+03  0.12499887450E+03 0.  0.
    9000005    1    3    3    0    0 -0.28370734489E+02  0.57436960840E+02  0.10366129011E+03  0.12186289884E+03  0.10000000000E+01 0.  0.
    9000005    1    3    3    0    0  0.13168057667E+02 -0.13795237316E+02 -0.26093726921E+02  0.32335567104E+02  0.10000000000E+01 0.  0.
          4    1    1    2  501    0  0.15202676822E+02 -0.43641723524E+02  0.14726189911E+03  0.15434831144E+03  0.12700000000E+01 0. -1.
<mgrwt>
<rscale>  1 0.13326830E+03</rscale>
<asrwt>0</asrwt>
<pdfrwt beam="1">  1       21 0.41027459E-01 0.13326830E+03</pdfrwt>
<pdfrwt beam="2">  1        4 0.64400262E-02 0.13326830E+03</pdfrwt>
<totfact> 0.36823006E+04</totfact>
</mgrwt>
</event>
<event>
 6    4  0.6195789E-003  0.1271137E+03  0.7818608E-02  0.1231802E+00
         21   -1    0    0  501  502  0.00000000000E+00  0.00000000000E+00  0.61224240742E+02  0.61224240742E+02  0.00000000000E+00 0.  1.
         -4   -1    0    0    0  501 -0.00000000000E+00 -0.00000000000E+00 -0.11131706480E+03  0.11132430919E+03  0.12700000000E+01 0.  1.
         25    2    1    2    0    0 -0.11528685020E+02 -0.19942386324E+02 -0.67241606932E+02  0.14380306324E+03  0.12500911145E+03 0.  0.
    9000005    1    3    3    0    0 -0.55314546784E+02  0.26687269362E+02 -0.44730706317E+02  0.75985166444E+02  0.10000000000E+01 0.  0.
    9000005    1    3    3    0    0  0.43785861764E+02 -0.46629655686E+02 -0.22510900615E+02  0.67817896799E+02  0.10000000000E+01 0.  0.
         -4    1    1    2    0  502  0.11528685020E+02  0.19942386324E+02  0.17148782875E+02  0.28745486683E+02  0.12700000000E+01 0. -1.
<mgrwt>
<rscale>  1 0.12711368E+03</rscale>
<asrwt>0</asrwt>
<pdfrwt beam="1">  1       21 0.94191141E-02 0.12711368E+03</pdfrwt>
<pdfrwt beam="2">  1       -4 0.17127273E-01 0.12711368E+03</pdfrwt>
<totfact> 0.10716213E+05</totfact>
</mgrwt>
</event>
<event>
 6    4  0.6195789E-003  0.1378175E+03  0.7818608E-02  0.1216296E+00
         -4   -1    0    0    0  501 -0.00000000000E+00  0.00000000000E+00  0.52607810947E+03  0.52607964241E+03  0.12700000000E+01 0. -1.
         21   -1    0    0  501  502  0.00000000000E+00 -0.00000000000E+00 -0.22229362977E+02  0.22229362977E+02  0.00000000000E+00 0.  1.
         25    2    1    2    0    0 -0.10883899864E+01  0.58038654335E+02  0.44410920853E+03  0.46500177110E+03  0.12499595206E+03 0.  0.
    9000005    1    3    3    0    0  0.48569979749E+02 -0.13471183670E+02  0.14747076987E+03  0.15584974715E+03  0.10000000000E+01 0.  0.
    9000005    1    3    3    0    0 -0.49658369735E+02  0.71509838005E+02  0.29663843866E+03  0.30915202394E+03  0.10000000000E+01 0.  0.
         -4    1    1    2    0  502  0.10883899864E+01 -0.58038654335E+02  0.59739537959E+02  0.83307234291E+02  0.12700000000E+01 0.  1.
<mgrwt>
<rscale>  1 0.13781748E+03</rscale>
<asrwt>0</asrwt>
<pdfrwt beam="2">  1       21 0.34199024E-02 0.13781748E+03</pdfrwt>
<pdfrwt beam="1">  1       -4 0.80937993E-01 0.13781748E+03</pdfrwt>
<totfact> 0.28632458E+04</totfact>
</mgrwt>
</event>
<event>
 6    4  0.6195789E-003  0.1294680E+03  0.7818608E-02  0.1228247E+00
         21   -1    0    0  501  502  0.00000000000E+00  0.00000000000E+00  0.55816081771E+02  0.55816081771E+02  0.00000000000E+00 0.  1.
         -4   -1    0    0    0  501 -0.00000000000E+00 -0.00000000000E+00 -0.12011533758E+03  0.12012205135E+03  0.12700000000E+01 0.  1.
         25    2    1    2    0    0  0.16394793654E+02  0.29395026934E+02 -0.57074157478E+02  0.14149002994E+03  0.12501644793E+03 0.  0.
    9000005    1    3    3    0    0  0.44016894288E+02  0.17014599995E+02  0.25420598327E+02  0.53611476524E+02  0.10000000000E+01 0.  0.
    9000005    1    3    3    0    0 -0.27622100635E+02  0.12380426939E+02 -0.82494755804E+02  0.87878553413E+02  0.10000000000E+01 0.  0.
         -4    1    1    2    0  502 -0.16394793654E+02 -0.29395026934E+02 -0.72250983304E+01  0.34448103189E+02  0.12700000000E+01 0. -1.
<mgrwt>
<rscale>  1 0.12946802E+03</rscale>
<asrwt>0</asrwt>
<pdfrwt beam="1">  1       21 0.85870895E-02 0.12946802E+03</pdfrwt>
<pdfrwt beam="2">  1       -4 0.18480911E-01 0.12946802E+03</pdfrwt>
<totfact> 0.11024483E+05</totfact>
</mgrwt>
</event>
<event>
 6    4  0.6195789E-003  0.1279335E+03  0.7818608E-02  0.1230555E+00
         21   -1    0    0  501  502  0.00000000000E+00  0.00000000000E+00  0.59378592199E+02  0.59378592199E+02  0.00000000000E+00 0.  1.
         -4   -1    0    0    0  501 -0.00000000000E+00 -0.00000000000E+00 -0.45756592704E+03  0.45756768952E+03  0.12700000000E+01 0. -1.
         25    2    1    2    0    0  0.20310989692E+01 -0.27167928400E+02 -0.44485939694E+03  0.46288968197E+03  0.12499901173E+03 0.  0.
    9000005    1    3    3    0    0 -0.23179172490E+02 -0.21842553423E+02 -0.43357215719E+03  0.43474151708E+03  0.10000000000E+01 0.  0.
    9000005    1    3    3    0    0  0.25210271459E+02 -0.53253749767E+01 -0.11287239742E+02  0.28148164890E+02  0.10000000000E+01 0.  0.
         -4    1    1    2    0  502 -0.20310989692E+01  0.27167928400E+02  0.46672062092E+02  0.54056599750E+02  0.12700000000E+01 0.  1.
<mgrwt>
<rscale>  1 0.12793348E+03</rscale>
<asrwt>0</asrwt>
<pdfrwt beam="1">  1       21 0.91351682E-02 0.12793348E+03</pdfrwt>
<pdfrwt beam="2">  1       -4 0.70395937E-01 0.12793348E+03</pdfrwt>
<totfact> 0.73137381E+03</totfact>
</mgrwt>
</event>
<event>
 6    4  0.6195789E-003  0.1298627E+03  0.7818608E-02  0.1227660E+00
          4   -1    0    0  502    0 -0.00000000000E+00  0.00000000000E+00  0.40146130057E+03  0.40146330935E+03  0.12700000000E+01 0.  1.
         21   -1    0    0  501  502  0.00000000000E+00 -0.00000000000E+00 -0.29718890624E+02  0.29718890624E+02  0.00000000000E+00 0.  1.
         25    2    1    2    0    0 -0.24260075720E+01  0.35120364267E+02  0.37397871523E+03  0.39588433233E+03  0.12499999856E+03 0.  0.
    9000005    1    3    3    0    0  0.21908242443E+02  0.42342856719E+01  0.26665487666E+01  0.22494682581E+02  0.10000000000E+01 0.  0.
    9000005    1    3    3    0    0 -0.24334250015E+02  0.30886078596E+02  0.37131216647E+03  0.37338964975E+03  0.10000000000E+01 0.  0.
          4    1    1    2  501    0  0.24260075720E+01 -0.35120364267E+02 -0.22363052844E+01  0.35297867646E+02  0.12700000000E+01 0. -1.
<mgrwt>
<rscale>  1 0.12986272E+03</rscale>
<asrwt>0</asrwt>
<pdfrwt beam="2">  1       21 0.45721373E-02 0.12986272E+03</pdfrwt>
<pdfrwt beam="1">  1        4 0.61765515E-01 0.12986272E+03</pdfrwt>
<totfact> 0.31480139E+04</totfact>
</mgrwt>
</event>
<event>
 6    4  0.6195789E-003  0.1268070E+03  0.7818608E-02  0.1232272E+00
          4   -1    0    0  502    0 -0.00000000000E+00  0.00000000000E+00  0.69709313143E+02  0.69720880939E+02  0.12700000000E+01 0.  1.
         21   -1    0    0  501  502  0.00000000000E+00 -0.00000000000E+00 -0.15237953606E+03  0.15237953606E+03  0.00000000000E+00 0. -1.
         25    2    1    2    0    0  0.59149820343E+01 -0.20493707101E+02  0.98079438015E+01  0.12718570126E+03  0.12500011121E+03 0.  0.
    9000005    1    3    3    0    0  0.54270165390E+02  0.18574918353E+02 -0.16469571694E+02  0.59686893328E+02  0.10000000000E+01 0.  0.
    9000005    1    3    3    0    0 -0.48355183356E+02 -0.39068625455E+02  0.26277515496E+02  0.67498807937E+02  0.10000000000E+01 0.  0.
          4    1    1    2  501    0 -0.59149820343E+01  0.20493707101E+02 -0.92478166723E+02  0.94914715738E+02  0.12700000000E+01 0. -1.
<mgrwt>
<rscale>  1 0.12680697E+03</rscale>
<asrwt>0</asrwt>
<pdfrwt beam="2">  1       21 0.23443005E-01 0.12680697E+03</pdfrwt>
<pdfrwt beam="1">  1        4 0.10725807E-01 0.12680697E+03</pdfrwt>
<totfact> 0.46443451E+04</totfact>
</mgrwt>
</event>
<event>
 6    4  0.6195789E-003  0.1283497E+03  0.7818608E-02  0.1229925E+00
          4   -1    0    0  502    0 -0.00000000000E+00  0.00000000000E+00  0.66550465777E+03  0.66550586956E+03  0.12700000000E+01 0.  1.
         21   -1    0    0  501  502  0.00000000000E+00 -0.00000000000E+00 -0.10826719321E+02  0.10826719321E+02  0.00000000000E+00 0.  1.
         25    2    1    2    0    0 -0.22834701019E+02  0.18078687957E+02  0.60721386367E+03  0.62063057972E+03  0.12500151091E+03 0.  0.
    9000005    1    3    3    0    0  0.26811197628E+02 -0.33283063206E+02  0.38132442083E+03  0.38371332598E+03  0.10000000000E+01 0.  0.
    9000005    1    3    3    0    0 -0.49645898647E+02  0.51361751163E+02  0.22588944284E+03  0.23691725374E+03  0.10000000000E+01 0.  0.
          4    1    1    2  501    0  0.22834701019E+02 -0.18078687957E+02  0.47464074782E+02  0.55702009154E+02  0.12700000000E+01 0. -1.
<mgrwt>
<rscale>  1 0.12834968E+03</rscale>
<asrwt>0</asrwt>
<pdfrwt beam="2">  1       21 0.16656497E-02 0.12834968E+03</pdfrwt>
<pdfrwt beam="1">  1        4 0.10239112E+00 0.12834968E+03</pdfrwt>
<totfact> 0.53673520E+04</totfact>
</mgrwt>
</event>
<event>
 6    4  0.6195789E-003  0.1303727E+03  0.7818608E-02  0.1226904E+00
         21   -1    0    0  501  502  0.00000000000E+00  0.00000000000E+00  0.54606294719E+03  0.54606294719E+03  0.00000000000E+00 0.  1.
          4   -1    0    0  502    0 -0.00000000000E+00 -0.00000000000E+00 -0.15876992664E+02  0.15927705298E+02  0.12700000000E+01 0. -1.
         25    2    1    2    0    0  0.19857265526E+02 -0.31391626468E+02  0.27766142489E+03  0.30674567962E+03  0.12496919575E+03 0.  0.
    9000005    1    3    3    0    0  0.30814980884E+02  0.17733386461E+00  0.40467481374E+01  0.31096151927E+02  0.10000000000E+01 0.  0.
    9000005    1    3    3    0    0 -0.10957715358E+02 -0.31568960332E+02  0.27361467675E+03  0.27564952769E+03  0.10000000000E+01 0.  0.
          4    1    1    2  501    0 -0.19857265526E+02  0.31391626468E+02  0.25252452964E+03  0.25524497287E+03  0.12700000000E+01 0.  1.
<mgrwt>
<rscale>  1 0.13037272E+03</rscale>
<asrwt>0</asrwt>
<pdfrwt beam="1">  1       21 0.84009670E-01 0.13037272E+03</pdfrwt>
<pdfrwt beam="2">  1        4 0.24466293E-02 0.13037272E+03</pdfrwt>
<totfact> 0.37348896E+04</totfact>
</mgrwt>
</event>
<event>
 6    4  0.6195789E-003  0.1269897E+03  0.7818608E-02  0.1231992E+00
         -4   -1    0    0    0  501 -0.00000000000E+00  0.00000000000E+00  0.10571047735E+02  0.10647062985E+02  0.12700000000E+01 0. -1.
         21   -1    0    0  501  502  0.00000000000E+00 -0.00000000000E+00 -0.16655616749E+04  0.16655616749E+04  0.00000000000E+00 0.  1.
         25    2    1    2    0    0  0.20587628796E+02 -0.87898716419E+01 -0.37304793475E+03  0.39406998103E+03  0.12500110408E+03 0.  0.
    9000005    1    3    3    0    0  0.22678019455E+02  0.31379572922E+02 -0.33944570778E+03  0.34164800408E+03  0.10000000000E+01 0.  0.
    9000005    1    3    3    0    0 -0.20903906587E+01 -0.40169444563E+02 -0.33602226978E+02  0.52421976952E+02  0.10000000000E+01 0.  0.
         -4    1    1    2    0  502 -0.20587628796E+02  0.87898716419E+01 -0.12819426924E+04  0.12821387569E+04  0.12700000000E+01 0.  1.
<mgrwt>
<rscale>  1 0.12698972E+03</rscale>
<asrwt>0</asrwt>
<pdfrwt beam="2">  1       21 0.25624017E+00 0.12698972E+03</pdfrwt>
<pdfrwt beam="1">  1       -4 0.16322002E-02 0.12698972E+03</pdfrwt>
<totfact> 0.36397174E+03</totfact>
</mgrwt>
</event>
<event>
 6    4  0.6195789E-003  0.1268861E+03  0.7818608E-02  0.1232151E+00
         21   -1    0    0  501  502  0.00000000000E+00  0.00000000000E+00  0.15460019003E+02  0.15460019003E+02  0.00000000000E+00 0. -1.
         -4   -1    0    0    0  501 -0.00000000000E+00 -0.00000000000E+00 -0.36980821677E+03  0.36981039749E+03  0.12700000000E+01 0. -1.
         25    2    1    2    0    0 -0.13068313878E+02 -0.17440027712E+02 -0.32336905165E+03  0.34737245100E+03  0.12500056302E+03 0.  0.
    9000005    1    3    3    0    0  0.96232103189E+01  0.16471560368E+02  0.22233225387E+01  0.19231787252E+02  0.10000000000E+01 0.  0.
    9000005    1    3    3    0    0 -0.22691524197E+02 -0.33911588080E+02 -0.32559237418E+03  0.32814066375E+03  0.10000000000E+01 0.  0.
         -4    1    1    2    0  502  0.13068313878E+02  0.17440027712E+02 -0.30979146123E+02  0.37897965495E+02  0.12700000000E+01 0.  1.
<mgrwt>
<rscale>  1 0.12688608E+03</rscale>
<asrwt>0</asrwt>
<pdfrwt beam="1">  1       21 0.23784647E-02 0.12688608E+03</pdfrwt>
<pdfrwt beam="2">  1       -4 0.56897746E-01 0.12688608E+03</pdfrwt>
<totfact> 0.10932433E+05</totfact>
</mgrwt>
</event>
<event>
 6    4  0.6195789E-003  0.1424691E+03  0.7818608E-02  0.1210045E+00
          4   -1    0    0  502    0 -0.00000000000E+00  0.00000000000E+00  0.46460986676E+02  0.46478341008E+02  0.12700000000E+01 0.  1.
         21   -1    0    0  501  502  0.00000000000E+00 -0.00000000000E+00 -0.36554374122E+03  0.36554374122E+03  0.00000000000E+00 0. -1.
         25    2    1    2    0    0  0.23232291078E+02 -0.64279377263E+02 -0.80074965479E+02  0.16343022029E+03  0.12500343642E+03 0.  0.
    9000005    1    3    3    0    0  0.45826653690E+02 -0.61524148667E+02 -0.10475227191E+03  0.12984352710E+03  0.10000000000E+01 0.  0.
    9000005    1    3    3    0    0 -0.22594362613E+02 -0.27552285958E+01  0.24677306436E+02  0.33586693190E+02  0.10000000000E+01 0.  0.
          4    1    1    2  501    0 -0.23232291078E+02  0.64279377263E+02 -0.23900778906E+03  0.24859186194E+03  0.12700000000E+01 0. -1.
<mgrwt>
<rscale>  1 0.14246907E+03</rscale>
<asrwt>0</asrwt>
<pdfrwt beam="2">  1       21 0.56237499E-01 0.14246907E+03</pdfrwt>
<pdfrwt beam="1">  1        4 0.71493487E-02 0.14246907E+03</pdfrwt>
<totfact> 0.16325333E+04</totfact>
</mgrwt>
</event>
<event>
 6    4  0.6195789E-003  0.1284803E+03  0.7818608E-02  0.1229728E+00
         -4   -1    0    0    0  501 -0.00000000000E+00  0.00000000000E+00  0.77556833069E+02  0.77567230553E+02  0.12700000000E+01 0.  1.
         21   -1    0    0  501  502  0.00000000000E+00 -0.00000000000E+00 -0.22734451812E+03  0.22734451812E+03  0.00000000000E+00 0. -1.
         25    2    1    2    0    0  0.21999960719E+02  0.19965286635E+02  0.22189807915E+02  0.13038243329E+03  0.12499832156E+03 0.  0.
    9000005    1    3    3    0    0 -0.34771436930E+02  0.48775216584E+02  0.28607551126E+02  0.66388753268E+02  0.10000000000E+01 0.  0.
    9000005    1    3    3    0    0  0.56771397648E+02 -0.28809929949E+02 -0.64177432111E+01  0.63993680020E+02  0.10000000000E+01 0.  0.
         -4    1    1    2    0  502 -0.21999960719E+02 -0.19965286635E+02 -0.17197749297E+03  0.17452931539E+03  0.12700000000E+01 0. -1.
<mgrwt>
<rscale>  1 0.12848031E+03</rscale>
<asrwt>0</asrwt>
<pdfrwt beam="2">  1       21 0.34976080E-01 0.12848031E+03</pdfrwt>
<pdfrwt beam="1">  1       -4 0.11932893E-01 0.12848031E+03</pdfrwt>
<totfact> 0.18006486E+04</totfact>
</mgrwt>
</event>
<event>
 6    4  0.6195789E-003  0.1280503E+03  0.7818608E-02  0.1230378E+00
         -4   -1    0    0    0  501 -0.00000000000E+00  0.00000000000E+00  0.47850345818E+03  0.47850514354E+03  0.12700000000E+01 0.  1.
         21   -1    0    0  501  502  0.00000000000E+00 -0.00000000000E+00 -0.13067264732E+02  0.13067264732E+02  0.00000000000E+00 0.  1.
         25    2    1    2    0    0  0.24936646285E+02 -0.12196493732E+02  0.34568817076E+03  0.36864237684E+03  0.12500519916E+03 0.  0.
    9000005    1    3    3    0    0 -0.38449668234E+02 -0.26122141743E+02  0.24116842678E+03  0.24560935111E+03  0.10000000000E+01 0.  0.
    9000005    1    3    3    0    0  0.63386314519E+02  0.13925648011E+02  0.10451974398E+03  0.12303302574E+03  0.10000000000E+01 0.  0.
         -4    1    1    2    0  502 -0.24936646285E+02  0.12196493732E+02  0.11974802270E+03  0.12293003143E+03  0.12700000000E+01 0. -1.
<mgrwt>
<rscale>  1 0.12805034E+03</rscale>
<asrwt>0</asrwt>
<pdfrwt beam="2">  1       21 0.20103488E-02 0.12805034E+03</pdfrwt>
<pdfrwt beam="1">  1       -4 0.73620780E-01 0.12805034E+03</pdfrwt>
<totfact> 0.83117510E+04</totfact>
</mgrwt>
</event>
<event>
 6    4  0.6195789E-003  0.1526992E+03  0.7818608E-02  0.1197195E+00
          4   -1    0    0  502    0 -0.00000000000E+00  0.00000000000E+00  0.11215655826E+03  0.11216374842E+03  0.12700000000E+01 0. -1.
         21   -1    0    0  501  502  0.00000000000E+00 -0.00000000000E+00 -0.15546955434E+03  0.15546955434E+03  0.00000000000E+00 0.  1.
         25    2    1    2    0    0 -0.78001406901E+02 -0.40097220728E+02  0.27185601546E+02  0.15510032201E+03  0.12500018547E+03 0.  0.
    9000005    1    3    3    0    0 -0.75457230547E+02 -0.50747059561E+02  0.67538541923E+02  0.11327626557E+03  0.10000000000E+01 0.  0.
    9000005    1    3    3    0    0 -0.25441763543E+01  0.10649838833E+02 -0.40352940377E+02  0.41824056445E+02  0.10000000000E+01 0.  0.
          4    1    1    2  501    0  0.78001406901E+02  0.40097220728E+02 -0.70498597630E+02  0.11253298075E+03  0.12700000000E+01 0.  1.
<mgrwt>
<rscale>  1 0.15269922E+03</rscale>
<asrwt>0</asrwt>
<pdfrwt beam="2">  1       21 0.23918393E-01 0.15269922E+03</pdfrwt>
<pdfrwt beam="1">  1        4 0.17255807E-01 0.15269922E+03</pdfrwt>
<totfact> 0.20009621E+04</totfact>
</mgrwt>
</event>
<event>
 6    4  0.6195789E-003  0.1279999E+03  0.7818608E-02  0.1230454E+00
         21   -1    0    0  501  502  0.00000000000E+00  0.00000000000E+00  0.47361156570E+02  0.47361156570E+02  0.00000000000E+00 0. -1.
          4   -1    0    0  502    0 -0.00000000000E+00 -0.00000000000E+00 -0.12844476928E+03  0.12845104770E+03  0.12700000000E+01 0.  1.
         25    2    1    2    0    0 -0.27441100228E+02 -0.26477705702E+01 -0.71384641065E+02  0.14655972366E+03  0.12499584373E+03 0.  0.
    9000005    1    3    3    0    0 -0.38771321063E+02 -0.58923517539E+02 -0.41264707147E+02  0.81724979732E+02  0.10000000000E+01 0.  0.
    9000005    1    3    3    0    0  0.11330220835E+02  0.56275746969E+02 -0.30119933917E+02  0.64834743929E+02  0.10000000000E+01 0.  0.
          4    1    1    2  501    0  0.27441100228E+02  0.26477705702E+01 -0.96989716419E+01  0.29252480607E+02  0.12700000000E+01 0. -1.
<mgrwt>
<rscale>  1 0.12799994E+03</rscale>
<asrwt>0</asrwt>
<pdfrwt beam="1">  1       21 0.72863317E-02 0.12799994E+03</pdfrwt>
<pdfrwt beam="2">  1        4 0.19762527E-01 0.12799994E+03</pdfrwt>
<totfact> 0.12955656E+05</totfact>
</mgrwt>
</event>
<event>
 6    4  0.6195789E-003  0.1270030E+03  0.7818608E-02  0.1231972E+00
         21   -1    0    0  501  502  0.00000000000E+00  0.00000000000E+00  0.90396082050E+02  0.90396082050E+02  0.00000000000E+00 0. -1.
          4   -1    0    0  502    0 -0.00000000000E+00 -0.00000000000E+00 -0.63394098951E+02  0.63406818891E+02  0.12700000000E+01 0. -1.
         25    2    1    2    0    0  0.22414030496E+02 -0.12150034488E+01  0.13850561230E+02  0.12775606248E+03  0.12500363378E+03 0.  0.
    9000005    1    3    3    0    0 -0.15282148425E+02  0.55938978962E+02  0.12178886784E+02  0.59262456168E+02  0.10000000000E+01 0.  0.
    9000005    1    3    3    0    0  0.37696178921E+02 -0.57153982410E+02  0.16716744469E+01  0.68493606315E+02  0.10000000000E+01 0.  0.
          4    1    1    2  501    0 -0.22414030496E+02  0.12150034488E+01  0.13151421868E+02  0.26046838457E+02  0.12700000000E+01 0.  1.
<mgrwt>
<rscale>  1 0.12700305E+03</rscale>
<asrwt>0</asrwt>
<pdfrwt beam="1">  1       21 0.13907089E-01 0.12700305E+03</pdfrwt>
<pdfrwt beam="2">  1        4 0.97546031E-02 0.12700305E+03</pdfrwt>
<totfact> 0.14186738E+05</totfact>
</mgrwt>
</event>
<event>
 6    4  0.6195789E-003  0.1278434E+03  0.7818608E-02  0.1230691E+00
          4   -1    0    0  502    0 -0.00000000000E+00  0.00000000000E+00  0.35978123805E+02  0.36000531836E+02  0.12700000000E+01 0.  1.
         21   -1    0    0  501  502  0.00000000000E+00 -0.00000000000E+00 -0.32157216115E+03  0.32157216115E+03  0.00000000000E+00 0. -1.
         25    2    1    2    0    0 -0.41954116514E+01  0.26487148595E+02 -0.81261299724E+02  0.15148375325E+03  0.12499903258E+03 0.  0.
    9000005    1    3    3    0    0 -0.27478621474E+02  0.33505634658E+02  0.19713999871E+02  0.47616635568E+02  0.10000000000E+01 0.  0.
    9000005    1    3    3    0    0  0.23283209823E+02 -0.70184860628E+01 -0.10097529959E+03  0.10386711768E+03  0.10000000000E+01 0.  0.
          4    1    1    2  501    0  0.41954116514E+01 -0.26487148595E+02 -0.20433273762E+03  0.20608893974E+03  0.12700000000E+01 0. -1.
<mgrwt>
<rscale>  1 0.12784338E+03</rscale>
<asrwt>0</asrwt>
<pdfrwt beam="2">  1       21 0.49472639E-01 0.12784338E+03</pdfrwt>
<pdfrwt beam="1">  1        4 0.55370127E-02 0.12784338E+03</pdfrwt>
<totfact> 0.32024586E+04</totfact>
</mgrwt>
</event>
<event>
 6    4  0.6195789E-003  0.1285127E+03  0.7818608E-02  0.1229679E+00
         21   -1    0    0  501  502  0.00000000000E+00  0.00000000000E+00  0.27428698974E+02  0.27428698974E+02  0.00000000000E+00 0.  1.
         -4   -1    0    0    0  501 -0.00000000000E+00 -0.00000000000E+00 -0.23407163670E+03  0.23407508198E+03  0.12700000000E+01 0. -1.
         25    2    1    2    0    0  0.15803587490E+02  0.25315428504E+02 -0.18189416837E+03  0.22271281832E+03  0.12499954663E+03 0.  0.
    9000005    1    3    3    0    0  0.55128659689E+02 -0.17160492155E+02 -0.13943078114E+03  0.15091585185E+03  0.10000000000E+01 0.  0.
    9000005    1    3    3    0    0 -0.39325072199E+02  0.42475920659E+02 -0.42463387230E+02  0.71796966470E+02  0.10000000000E+01 0.  0.
         -4    1    1    2    0  502 -0.15803587490E+02 -0.25315428504E+02 -0.24748769352E+02  0.38790962637E+02  0.12700000000E+01 0.  1.
<mgrwt>
<rscale>  1 0.12851269E+03</rscale>
<asrwt>0</asrwt>
<pdfrwt beam="1">  1       21 0.42197999E-02 0.12851269E+03</pdfrwt>
<pdfrwt beam="2">  1       -4 0.36013547E-01 0.12851269E+03</pdfrwt>
<totfact> 0.10673754E+05</totfact>
</mgrwt>
</event>
<event>
 6    4  0.6195789E-003  0.1299492E+03  0.7818608E-02  0.1227531E+00
          4   -1    0    0  502    0 -0.00000000000E+00  0.00000000000E+00  0.74335286227E+02  0.74346134254E+02  0.12700000000E+01 0. -1.
         21   -1    0    0  501  502  0.00000000000E+00 -0.00000000000E+00 -0.21389611061E+03  0.21389611061E+03  0.00000000000E+00 0.  1.
         25    2    1    2    0    0 -0.21419082151E+02  0.28331599199E+02  0.13927219018E+02  0.13069336686E+03  0.12500132847E+03 0.  0.
    9000005    1    3    3    0    0  0.16196691047E+02 -0.41141202328E+02 -0.14780790580E+02  0.46630495387E+02  0.10000000000E+01 0.  0.
    9000005    1    3    3    0    0 -0.37615773198E+02  0.69472801527E+02  0.28708009597E+02  0.84062871473E+02  0.10000000000E+01 0.  0.
          4    1    1    2  501    0  0.21419082151E+02 -0.28331599199E+02 -0.15348804340E+03  0.15754887800E+03  0.12700000000E+01 0.  1.
<mgrwt>
<rscale>  1 0.12994918E+03</rscale>
<asrwt>0</asrwt>
<pdfrwt beam="2">  1       21 0.32907094E-01 0.12994918E+03</pdfrwt>
<pdfrwt beam="1">  1        4 0.11437322E-01 0.12994918E+03</pdfrwt>
<totfact> 0.21834049E+04</totfact>
</mgrwt>
</event>
<event>
 6    4  0.6195789E-003  0.1276111E+03  0.7818608E-02  0.1231044E+00
          4   -1    0    0  502    0 -0.00000000000E+00  0.00000000000E+00  0.39278984160E+03  0.39279189473E+03  0.12700000000E+01 0. -1.
         21   -1    0    0  501  502  0.00000000000E+00 -0.00000000000E+00 -0.15324518931E+02  0.15324518931E+02  0.00000000000E+00 0. -1.
         25    2    1    2    0    0  0.47572965407E+01  0.25241940552E+02  0.33485119255E+03  0.35834328417E+03  0.12499920290E+03 0.  0.
    9000005    1    3    3    0    0 -0.53103620379E+02 -0.17118067422E+02  0.15328073049E+03  0.16312266878E+03  0.10000000000E+01 0.  0.
    9000005    1    3    3    0    0  0.57860916920E+02  0.42360007974E+02  0.18157046205E+03  0.19522061539E+03  0.10000000000E+01 0.  0.
          4    1    1    2  501    0 -0.47572965407E+01 -0.25241940552E+02  0.42614130119E+02  0.49773129487E+02  0.12700000000E+01 0.  1.
<mgrwt>
<rscale>  1 0.12761108E+03</rscale>
<asrwt>0</asrwt>
<pdfrwt beam="2">  1       21 0.23576186E-02 0.12761108E+03</pdfrwt>
<pdfrwt beam="1">  1        4 0.60433405E-01 0.12761108E+03</pdfrwt>
<totfact> 0.97861557E+04</totfact>
</mgrwt>
</event>
<event>
 6    4  0.6195789E-003  0.1322711E+03  0.7818608E-02  0.1224124E+00
         21   -1    0    0  501  502  0.00000000000E+00  0.00000000000E+00  0.29862354490E+03  0.29862354490E+03  0.00000000000E+00 0. -1.
          4   -1    0    0  502    0 -0.00000000000E+00 -0.00000000000E+00 -0.36444215076E+02  0.36466336703E+02  0.12700000000E+01 0.  1.
         25    2    1    2    0    0 -0.20286274425E+02  0.38189794963E+02  0.96172079005E+02  0.16353810052E+03  0.12500259266E+03 0.  0.
    9000005    1    3    3    0    0  0.47699472368E+02  0.40990597381E+02  0.34718537687E+02  0.71845985253E+02  0.10000000000E+01 0.  0.
    9000005    1    3    3    0    0 -0.67985746792E+02 -0.28008024188E+01  0.61453541319E+02  0.91692115265E+02  0.10000000000E+01 0.  0.
          4    1    1    2  501    0  0.20286274425E+02 -0.38189794963E+02  0.16600725082E+03  0.17155178109E+03  0.12700000000E+01 0. -1.
<mgrwt>
<rscale>  1 0.13227109E+03</rscale>
<asrwt>0</asrwt>
<pdfrwt beam="1">  1       21 0.45942082E-01 0.13227109E+03</pdfrwt>
<pdfrwt beam="2">  1        4 0.56087119E-02 0.13227109E+03</pdfrwt>
<totfact> 0.36633144E+04</totfact>
</mgrwt>
</event>
<event>
 6    4  0.6195789E-003  0.1269238E+03  0.7818608E-02  0.1232093E+00
         -4   -1    0    0    0  501 -0.00000000000E+00  0.00000000000E+00  0.24517366606E+02  0.24550237581E+02  0.12700000000E+01 0. -1.
         21   -1    0    0  501  502  0.00000000000E+00 -0.00000000000E+00 -0.51578406999E+03  0.51578406999E+03  0.00000000000E+00 0.  1.
         25    2    1    2    0    0 -0.22014296638E+02 -0.21983498048E+00 -0.14233454650E+03  0.19070601840E+03  0.12499993896E+03 0.  0.
    9000005    1    3    3    0    0  0.29608015894E+02 -0.37781994167E+02 -0.18637620117E+02  0.51502180264E+02  0.10000000000E+01 0.  0.
    9000005    1    3    3    0    0 -0.51622312532E+02  0.37562159186E+02 -0.12369692638E+03  0.13920383813E+03  0.10000000000E+01 0.  0.
         -4    1    1    2    0  502  0.22014296638E+02  0.21983498048E+00 -0.34893215688E+03  0.34962828917E+03  0.12700000000E+01 0.  1.
<mgrwt>
<rscale>  1 0.12692384E+03</rscale>
<asrwt>0</asrwt>
<pdfrwt beam="2">  1       21 0.79351394E-01 0.12692384E+03</pdfrwt>
<pdfrwt beam="1">  1       -4 0.37745514E-02 0.12692384E+03</pdfrwt>
<totfact> 0.21475171E+04</totfact>
</mgrwt>
</event>
<event>
 6    4  0.6195789E-003  0.1288192E+03  0.7818608E-02  0.1229218E+00
         21   -1    0    0  501  502  0.00000000000E+00  0.00000000000E+00  0.91256176861E+02  0.91256176861E+02  0.00000000000E+00 0. -1.
          4   -1    0    0  502    0 -0.00000000000E+00 -0.00000000000E+00 -0.13918099464E+03  0.13918678877E+03  0.12700000000E+01 0.  1.
         25    2    1    2    0    0 -0.28721587241E+02 -0.11964313765E+02 -0.10449247521E+03  0.16587062523E+03  0.12500525014E+03 0.  0.
    9000005    1    3    3    0    0 -0.74459370812E+02 -0.13615616831E+02 -0.90531233466E+02  0.11801053833E+03  0.10000000000E+01 0.  0.
    9000005    1    3    3    0    0  0.45737783570E+02  0.16513030661E+01 -0.13961241742E+02  0.47860086907E+02  0.10000000000E+01 0.  0.
          4    1    1    2  501    0  0.28721587241E+02  0.11964313765E+02  0.56567657431E+02  0.64572340400E+02  0.12700000000E+01 0. -1.
<mgrwt>
<rscale>  1 0.12881920E+03</rscale>
<asrwt>0</asrwt>
<pdfrwt beam="1">  1       21 0.14039412E-01 0.12881920E+03</pdfrwt>
<pdfrwt beam="2">  1        4 0.21413586E-01 0.12881920E+03</pdfrwt>
<totfact> 0.35575330E+04</totfact>
</mgrwt>
</event>
<event>
 6    4  0.6195789E-003  0.1269556E+03  0.7818608E-02  0.1232044E+00
         21   -1    0    0  501  502  0.00000000000E+00  0.00000000000E+00  0.11527830574E+02  0.11527830574E+02  0.00000000000E+00 0.  1.
          4   -1    0    0  502    0 -0.00000000000E+00 -0.00000000000E+00 -0.90342689061E+03  0.90342778326E+03  0.12700000000E+01 0. -1.
         25    2    1    2    0    0 -0.68075280361E+00 -0.22186838685E+02 -0.88117003347E+03  0.89026869126E+03  0.12499998208E+03 0.  0.
    9000005    1    3    3    0    0  0.49228313537E+02 -0.45703090280E+02 -0.36258601118E+03  0.36875712171E+03  0.10000000000E+01 0.  0.
    9000005    1    3    3    0    0 -0.49909066341E+02  0.23516251595E+02 -0.51858402230E+03  0.52151156955E+03  0.10000000000E+01 0.  0.
          4    1    1    2  501    0  0.68075280361E+00  0.22186838685E+02 -0.10729026562E+02  0.24686922574E+02  0.12700000000E+01 0.  1.
<mgrwt>
<rscale>  1 0.12695556E+03</rscale>
<asrwt>0</asrwt>
<pdfrwt beam="1">  1       21 0.17735124E-02 0.12695556E+03</pdfrwt>
<pdfrwt beam="2">  1        4 0.13899420E+00 0.12695556E+03</pdfrwt>
<totfact> 0.23289371E+04</totfact>
</mgrwt>
</event>
<event>
 6    4  0.6195789E-003  0.1295329E+03  0.7818608E-02  0.1228150E+00
          4   -1    0    0  502    0 -0.00000000000E+00  0.00000000000E+00  0.69423135876E+02  0.69434751348E+02  0.12700000000E+01 0.  1.
         21   -1    0    0  501  502  0.00000000000E+00 -0.00000000000E+00 -0.10608904523E+03  0.10608904523E+03  0.00000000000E+00 0.  1.
         25    2    1    2    0    0 -0.24844818568E+02 -0.23165526862E+02 -0.58866508044E+01  0.12966660193E+03  0.12499947341E+03 0.  0.
    9000005    1    3    3    0    0 -0.16251215184E+02 -0.29917203116E+02  0.56689724326E+02  0.66135209090E+02  0.10000000000E+01 0.  0.
    9000005    1    3    3    0    0 -0.85936033840E+01  0.67516762541E+01 -0.62576375130E+02  0.63531392837E+02  0.10000000000E+01 0.  0.
          4    1    1    2  501    0  0.24844818568E+02  0.23165526862E+02 -0.30779258549E+02  0.45857194651E+02  0.12700000000E+01 0. -1.
<mgrwt>
<rscale>  1 0.12953291E+03</rscale>
<asrwt>0</asrwt>
<pdfrwt beam="2">  1       21 0.16321392E-01 0.12953291E+03</pdfrwt>
<pdfrwt beam="1">  1        4 0.10681961E-01 0.12953291E+03</pdfrwt>
<totfact> 0.91465650E+04</totfact>
</mgrwt>
</event>
<event>
 6    4  0.6195789E-003  0.1301074E+03  0.7818608E-02  0.1227296E+00
         21   -1    0    0  501  502  0.00000000000E+00  0.00000000000E+00  0.20467352083E+03  0.20467352083E+03  0.00000000000E+00 0.  1.
         -4   -1    0    0    0  501 -0.00000000000E+00 -0.00000000000E+00 -0.12717995304E+03  0.12718629390E+03  0.12700000000E+01 0. -1.
         25    2    1    2    0    0  0.36043954311E+02 -0.89988288288E+00 -0.91498605679E+02  0.15905951373E+03  0.12501182998E+03 0.  0.
    9000005    1    3    3    0    0 -0.38675611750E+02  0.23922702641E+02 -0.11733516913E+02  0.46976313872E+02  0.10000000000E+01 0.  0.
    9000005    1    3    3    0    0  0.74719566061E+02 -0.24822585524E+02 -0.79765088767E+02  0.11208319986E+03  0.10000000000E+01 0.  0.
         -4    1    1    2    0  502 -0.36043954311E+02  0.89988288288E+00  0.16899217347E+03  0.17280030100E+03  0.12700000000E+01 0.  1.
<mgrwt>
<rscale>  1 0.13010739E+03</rscale>
<asrwt>0</asrwt>
<pdfrwt beam="1">  1       21 0.31488234E-01 0.13010739E+03</pdfrwt>
<pdfrwt beam="2">  1       -4 0.19566937E-01 0.13010739E+03</pdfrwt>
<totfact> 0.93211031E+03</totfact>
</mgrwt>
</event>
<event>
 6    4  0.6195789E-003  0.1377049E+03  0.7818608E-02  0.1216451E+00
          4   -1    0    0  502    0 -0.00000000000E+00  0.00000000000E+00  0.38363729275E+03  0.38363939486E+03  0.12700000000E+01 0. -1.
         21   -1    0    0  501  502  0.00000000000E+00 -0.00000000000E+00 -0.26648500815E+02  0.26648500815E+02  0.00000000000E+00 0. -1.
         25    2    1    2    0    0  0.53448133587E+02  0.21930582605E+02  0.29491130922E+03  0.32547704615E+03  0.12499989531E+03 0.  0.
    9000005    1    3    3    0    0  0.95238901038E+01  0.70643726973E+02  0.17118132130E+03  0.18543269778E+03  0.10000000000E+01 0.  0.
    9000005    1    3    3    0    0  0.43924243484E+02 -0.48713144368E+02  0.12372998792E+03  0.14004434837E+03  0.10000000000E+01 0.  0.
          4    1    1    2  501    0 -0.53448133587E+02 -0.21930582605E+02  0.62077482715E+02  0.84810849528E+02  0.12700000000E+01 0.  1.
<mgrwt>
<rscale>  1 0.13770486E+03</rscale>
<asrwt>0</asrwt>
<pdfrwt beam="2">  1       21 0.40997696E-02 0.13770486E+03</pdfrwt>
<pdfrwt beam="1">  1        4 0.59023608E-01 0.13770486E+03</pdfrwt>
<totfact> 0.41840036E+04</totfact>
</mgrwt>
</event>
<event>
 6    4  0.6195789E-003  0.1266413E+03  0.7818608E-02  0.1232526E+00
          4   -1    0    0  502    0 -0.00000000000E+00  0.00000000000E+00  0.79256726183E+02  0.79266900691E+02  0.12700000000E+01 0. -1.
         21   -1    0    0  501  502  0.00000000000E+00 -0.00000000000E+00 -0.69536021483E+02  0.69536021483E+02  0.00000000000E+00 0. -1.
         25    2    1    2    0    0 -0.18171963895E+00  0.20326878936E+02  0.15613685941E+02  0.12760020638E+03  0.12499924179E+03 0.  0.
    9000005    1    3    3    0    0  0.46118925247E+01 -0.26789191266E+02 -0.43833532035E+02  0.51587875048E+02  0.10000000000E+01 0.  0.
    9000005    1    3    3    0    0 -0.47936121636E+01  0.47116070202E+02  0.59447217976E+02  0.76012331328E+02  0.10000000000E+01 0.  0.
          4    1    1    2  501    0  0.18171963895E+00 -0.20326878936E+02 -0.58929812413E+01  0.21202715798E+02  0.12700000000E+01 0.  1.
<mgrwt>
<rscale>  1 0.12664133E+03</rscale>
<asrwt>0</asrwt>
<pdfrwt beam="2">  1       21 0.10697849E-01 0.12664133E+03</pdfrwt>
<pdfrwt beam="1">  1        4 0.12195017E-01 0.12664133E+03</pdfrwt>
<totfact> 0.15467658E+05</totfact>
</mgrwt>
</event>
<event>
 6    4  0.6195789E-003  0.1266841E+03  0.7818608E-02  0.1232461E+00
         21   -1    0    0  501  502  0.00000000000E+00  0.00000000000E+00  0.33021830401E+02  0.33021830401E+02  0.00000000000E+00 0.  1.
         -4   -1    0    0    0  501 -0.00000000000E+00 -0.00000000000E+00 -0.26235006333E+03  0.26235313726E+03  0.12700000000E+01 0.  1.
         25    2    1    2    0    0 -0.19480009912E+02  0.63780544391E+01 -0.24062498547E+03  0.27193611354E+03  0.12501486253E+03 0.  0.
    9000005    1    3    3    0    0  0.22636588289E+02  0.28265231266E+02 -0.21491480452E+03  0.21794657976E+03  0.10000000000E+01 0.  0.
    9000005    1    3    3    0    0 -0.42116598200E+02 -0.21887176827E+02 -0.25710180945E+02  0.53989533779E+02  0.10000000000E+01 0.  0.
         -4    1    1    2    0  502  0.19480009912E+02 -0.63780544391E+01  0.11296752535E+02  0.23438854120E+02  0.12700000000E+01 0. -1.
<mgrwt>
<rscale>  1 0.12668412E+03</rscale>
<asrwt>0</asrwt>
<pdfrwt beam="1">  1       21 0.50802817E-02 0.12668412E+03</pdfrwt>
<pdfrwt beam="2">  1       -4 0.40363663E-01 0.12668412E+03</pdfrwt>
<totfact> 0.62511764E+04</totfact>
</mgrwt>
</event>
<event>
 6    4  0.6195789E-003  0.1268708E+03  0.7818608E-02  0.1232174E+00
         21   -1    0    0  501  502  0.00000000000E+00  0.00000000000E+00  0.11667316793E+03  0.11667316793E+03  0.00000000000E+00 0.  1.
          4   -1    0    0  502    0 -0.00000000000E+00 -0.00000000000E+00 -0.47400126347E+02  0.47417136963E+02  0.12700000000E+01 0.  1.
         25    2    1    2    0    0  0.21618057895E+02  0.19625999741E+01  0.61575423277E+02  0.14102391260E+03  0.12500007579E+03 0.  0.
    9000005    1    3    3    0    0 -0.23977091752E+02 -0.15681566137E+01 -0.30125448856E+02  0.38547408640E+02  0.10000000000E+01 0.  0.
    9000005    1    3    3    0    0  0.45595149647E+02  0.35307565878E+01  0.91700872133E+02  0.10247650396E+03  0.10000000000E+01 0.  0.
          4    1    1    2  501    0 -0.21618057895E+02 -0.19625999741E+01  0.76976183012E+01  0.23066392291E+02  0.12700000000E+01 0. -1.
<mgrwt>
<rscale>  1 0.12687084E+03</rscale>
<asrwt>0</asrwt>
<pdfrwt beam="1">  1       21 0.17949718E-01 0.12687084E+03</pdfrwt>
<pdfrwt beam="2">  1        4 0.72941674E-02 0.12687084E+03</pdfrwt>
<totfact> 0.14485086E+05</totfact>
</mgrwt>
</event>
<event>
 6    4  0.6195789E-003  0.1351633E+03  0.7818608E-02  0.1219989E+00
         -4   -1    0    0    0  501 -0.00000000000E+00  0.00000000000E+00  0.89894907568E+03  0.89894997278E+03  0.12700000000E+01 0.  1.
         21   -1    0    0  501  502  0.00000000000E+00 -0.00000000000E+00 -0.16133087605E+02  0.16133087605E+02  0.00000000000E+00 0.  1.
         25    2    1    2    0    0  0.50971038015E+02 -0.67741915447E+01  0.83154678818E+03  0.84246019797E+03  0.12500075140E+03 0.  0.
    9000005    1    3    3    0    0  0.88115161986E+02  0.53155008609E+01  0.42698428051E+03  0.43601503658E+03  0.10000000000E+01 0.  0.
    9000005    1    3    3    0    0 -0.37144123971E+02 -0.12089692406E+02  0.40456250767E+03  0.40644516139E+03  0.10000000000E+01 0.  0.
         -4    1    1    2    0  502 -0.50971038015E+02  0.67741915447E+01  0.51269199897E+02  0.72622862416E+02  0.12700000000E+01 0. -1.
<mgrwt>
<rscale>  1 0.13516332E+03</rscale>
<asrwt>0</asrwt>
<pdfrwt beam="2">  1       21 0.24820142E-02 0.13516332E+03</pdfrwt>
<pdfrwt beam="1">  1       -4 0.13830373E+00 0.13516332E+03</pdfrwt>
<totfact> 0.13783468E+04</totfact>
</mgrwt>
</event>
<event>
 6    4  0.6195789E-003  0.1305522E+03  0.7818608E-02  0.1226639E+00
         21   -1    0    0  501  502  0.00000000000E+00  0.00000000000E+00  0.18553628391E+03  0.18553628391E+03  0.00000000000E+00 0. -1.
          4   -1    0    0  502    0 -0.00000000000E+00 -0.00000000000E+00 -0.53750168654E+02  0.53765170234E+02  0.12700000000E+01 0.  1.
         25    2    1    2    0    0  0.20873717166E+02  0.31352731179E+02  0.34593250206E+02  0.13505764504E+03  0.12500067481E+03 0.  0.
    9000005    1    3    3    0    0 -0.49340103780E+02  0.22539142952E+02  0.34484622106E+02  0.64285674671E+02  0.10000000000E+01 0.  0.
    9000005    1    3    3    0    0  0.70213820946E+02  0.88135882274E+01  0.10862810023E+00  0.70771970365E+02  0.10000000000E+01 0.  0.
          4    1    1    2  501    0 -0.20873717166E+02 -0.31352731179E+02  0.97192865052E+02  0.10424380911E+03  0.12700000000E+01 0. -1.
<mgrwt>
<rscale>  1 0.13055219E+03</rscale>
<asrwt>0</asrwt>
<pdfrwt beam="1">  1       21 0.28544043E-01 0.13055219E+03</pdfrwt>
<pdfrwt beam="2">  1        4 0.82707451E-02 0.13055219E+03</pdfrwt>
<totfact> 0.49585294E+04</totfact>
</mgrwt>
</event>
<event>
 6    4  0.6195789E-003  0.1317502E+03  0.7818608E-02  0.1224882E+00
         21   -1    0    0  501  502  0.00000000000E+00  0.00000000000E+00  0.10302133736E+03  0.10302133736E+03  0.00000000000E+00 0.  1.
          4   -1    0    0  502    0 -0.00000000000E+00 -0.00000000000E+00 -0.11078431503E+03  0.11079159425E+03  0.12700000000E+01 0. -1.
         25    2    1    2    0    0 -0.41065742652E+02 -0.68343309623E+01 -0.61851806468E+02  0.14554641273E+03  0.12500003598E+03 0.  0.
    9000005    1    3    3    0    0 -0.68567428662E+02 -0.38262070495E+02 -0.10308478957E+02  0.79200650567E+02  0.10000000000E+01 0.  0.
    9000005    1    3    3    0    0  0.27501686010E+02  0.31427739533E+02 -0.51543327511E+02  0.66345762158E+02  0.10000000000E+01 0.  0.
          4    1    1    2  501    0  0.41065742652E+02  0.68343309623E+01  0.54088828803E+02  0.68266518884E+02  0.12700000000E+01 0.  1.
<mgrwt>
<rscale>  1 0.13175019E+03</rscale>
<asrwt>0</asrwt>
<pdfrwt beam="1">  1       21 0.15849437E-01 0.13175019E+03</pdfrwt>
<pdfrwt beam="2">  1        4 0.17044903E-01 0.13175019E+03</pdfrwt>
<totfact> 0.43114685E+04</totfact>
</mgrwt>
</event>
<event>
 6    4  0.6195789E-003  0.1266388E+03  0.7818608E-02  0.1232530E+00
         -4   -1    0    0    0  501 -0.00000000000E+00  0.00000000000E+00  0.23467912606E+03  0.23468256243E+03  0.12700000000E+01 0. -1.
         21   -1    0    0  501  502  0.00000000000E+00 -0.00000000000E+00 -0.25298720632E+02  0.25298720632E+02  0.00000000000E+00 0. -1.
         25    2    1    2    0    0  0.15029398875E+02 -0.13662913471E+02  0.20183863792E+03  0.23827761535E+03  0.12499931272E+03 0.  0.
    9000005    1    3    3    0    0 -0.52403888957E+02 -0.35269131165E+00  0.12285777035E+03  0.13357141799E+03  0.10000000000E+01 0.  0.
    9000005    1    3    3    0    0  0.67433287833E+02 -0.13310222160E+02  0.78980867571E+02  0.10470619735E+03  0.10000000000E+01 0.  0.
         -4    1    1    2    0  502 -0.15029398875E+02  0.13662913471E+02  0.75417675039E+01  0.21703667712E+02  0.12700000000E+01 0.  1.
<mgrwt>
<rscale>  1 0.12663880E+03</rscale>
<asrwt>0</asrwt>
<pdfrwt beam="2">  1       21 0.38921111E-02 0.12663880E+03</pdfrwt>
<pdfrwt beam="1">  1       -4 0.36107196E-01 0.12663880E+03</pdfrwt>
<totfact> 0.12119880E+05</totfact>
</mgrwt>
</event>
<event>
 6    4  0.6195789E-003  0.1317975E+03  0.7818608E-02  0.1224813E+00
         21   -1    0    0  501  502  0.00000000000E+00  0.00000000000E+00  0.12094260345E+04  0.12094260345E+04  0.00000000000E+00 0. -1.
         -4   -1    0    0    0  501 -0.00000000000E+00 -0.00000000000E+00 -0.86712225282E+01  0.87637320894E+01  0.12700000000E+01 0. -1.
         25    2    1    2    0    0  0.21406173887E+02 -0.35888719160E+02  0.11152575014E+04  0.11230181981E+04  0.12499741706E+03 0.  0.
    9000005    1    3    3    0    0  0.20099599211E+02  0.40190174732E+02  0.65244906967E+03  0.65399543771E+03  0.10000000000E+01 0.  0.
    9000005    1    3    3    0    0  0.13065746755E+01 -0.76078893893E+02  0.46280843178E+03  0.46902276039E+03  0.10000000000E+01 0.  0.
         -4    1    1    2    0  502 -0.21406173887E+02  0.35888719160E+02  0.85497310551E+02  0.95171568522E+02  0.12700000000E+01 0.  1.
<mgrwt>
<rscale>  1 0.13179749E+03</rscale>
<asrwt>0</asrwt>
<pdfrwt beam="1">  1       21 0.18606541E+00 0.13179749E+03</pdfrwt>
<pdfrwt beam="2">  1       -4 0.13412026E-02 0.13179749E+03</pdfrwt>
<totfact> 0.13014389E+04</totfact>
</mgrwt>
</event>
<event>
 6    4  0.6195789E-003  0.1569065E+03  0.7818608E-02  0.1192234E+00
          4   -1    0    0  502    0 -0.00000000000E+00  0.00000000000E+00  0.10519504777E+03  0.10520271373E+03  0.12700000000E+01 0.  1.
         21   -1    0    0  501  502  0.00000000000E+00 -0.00000000000E+00 -0.76924545395E+03  0.76924545395E+03  0.00000000000E+00 0. -1.
         25    2    1    2    0    0  0.92356514837E+02  0.21456661870E+02  0.41702251374E+02  0.16235369311E+03  0.12501811759E+03 0.  0.
    9000005    1    3    3    0    0  0.12003892059E+03  0.41006299990E+01  0.16847197011E+02  0.12128885221E+03  0.10000000000E+01 0.  0.
    9000005    1    3    3    0    0 -0.27682405754E+02  0.17356031871E+02  0.24855054363E+02  0.41064840899E+02  0.10000000000E+01 0.  0.
          4    1    1    2  501    0 -0.92356514837E+02 -0.21456661870E+02 -0.70575265755E+03  0.71209447457E+03  0.12700000000E+01 0. -1.
<mgrwt>
<rscale>  1 0.15690648E+03</rscale>
<asrwt>0</asrwt>
<pdfrwt beam="2">  1       21 0.11834545E+00 0.15690648E+03</pdfrwt>
<pdfrwt beam="1">  1        4 0.16184524E-01 0.15690648E+03</pdfrwt>
<totfact> 0.75962944E+02</totfact>
</mgrwt>
</event>
<event>
 6    4  0.6195789E-003  0.1283083E+03  0.7818608E-02  0.1229988E+00
         21   -1    0    0  501  502  0.00000000000E+00  0.00000000000E+00  0.96473018773E+01  0.96473018773E+01  0.00000000000E+00 0. -1.
          4   -1    0    0  502    0 -0.00000000000E+00 -0.00000000000E+00 -0.89553601945E+03  0.89553691997E+03  0.12700000000E+01 0.  1.
         25    2    1    2    0    0 -0.28777168200E+02 -0.33235239959E+01 -0.84706397669E+03  0.85672656378E+03  0.12499541292E+03 0.  0.
    9000005    1    3    3    0    0 -0.25379331361E+02  0.56288527882E+02 -0.56784847677E+03  0.57119646480E+03  0.10000000000E+01 0.  0.
    9000005    1    3    3    0    0 -0.33978368392E+01 -0.59612051878E+02 -0.27921549993E+03  0.28553009898E+03  0.10000000000E+01 0.  0.
          4    1    1    2  501    0  0.28777168200E+02  0.33235239959E+01 -0.38824740879E+02  0.48457658070E+02  0.12700000000E+01 0. -1.
<mgrwt>
<rscale>  1 0.12830832E+03</rscale>
<asrwt>0</asrwt>
<pdfrwt beam="1">  1       21 0.14842002E-02 0.12830832E+03</pdfrwt>
<pdfrwt beam="2">  1        4 0.13778128E+00 0.12830832E+03</pdfrwt>
<totfact> 0.31695830E+04</totfact>
</mgrwt>
</event>
<event>
 6    4  0.6195789E-003  0.1266123E+03  0.7818608E-02  0.1232571E+00
         21   -1    0    0  501  502  0.00000000000E+00  0.00000000000E+00  0.42529693594E+03  0.42529693594E+03  0.00000000000E+00 0. -1.
          4   -1    0    0  502    0 -0.00000000000E+00 -0.00000000000E+00 -0.17796224211E+02  0.17841482455E+02  0.12700000000E+01 0. -1.
         25    2    1    2    0    0  0.20272362551E+02 -0.15293108182E+01  0.21460811653E+03  0.24917328323E+03  0.12496949197E+03 0.  0.
    9000005    1    3    3    0    0 -0.50222961774E+02  0.80824280078E+01  0.57968745943E+02  0.77130065720E+02  0.10000000000E+01 0.  0.
    9000005    1    3    3    0    0  0.70495324325E+02 -0.96117388260E+01  0.15663937058E+03  0.17204321751E+03  0.10000000000E+01 0.  0.
          4    1    1    2  501    0 -0.20272362551E+02  0.15293108182E+01  0.19289259521E+03  0.19396513517E+03  0.12700000000E+01 0.  1.
<mgrwt>
<rscale>  1 0.12661233E+03</rscale>
<asrwt>0</asrwt>
<pdfrwt beam="1">  1       21 0.65430290E-01 0.12661233E+03</pdfrwt>
<pdfrwt beam="2">  1        4 0.27415083E-02 0.12661233E+03</pdfrwt>
<totfact> 0.54115789E+04</totfact>
</mgrwt>
</event>
<event>
 6    4  0.6195789E-003  0.1269666E+03  0.7818608E-02  0.1232027E+00
         21   -1    0    0  501  502  0.00000000000E+00  0.00000000000E+00  0.24340669687E+02  0.24340669687E+02  0.00000000000E+00 0. -1.
          4   -1    0    0  502    0 -0.00000000000E+00 -0.00000000000E+00 -0.26816636191E+03  0.26816936916E+03  0.12700000000E+01 0.  1.
         25    2    1    2    0    0  0.19767706160E+02 -0.10230596431E+02 -0.23754535370E+03  0.26934793916E+03  0.12500035982E+03 0.  0.
    9000005    1    3    3    0    0  0.48766873999E+02  0.29519944851E+02 -0.51254221054E+02  0.76665704976E+02  0.10000000000E+01 0.  0.
    9000005    1    3    3    0    0 -0.28999167839E+02 -0.39750541282E+02 -0.18629113265E+03  0.19268223418E+03  0.10000000000E+01 0.  0.
          4    1    1    2  501    0 -0.19767706160E+02  0.10230596431E+02 -0.62803385199E+01  0.23162099691E+02  0.12700000000E+01 0. -1.
<mgrwt>
<rscale>  1 0.12696660E+03</rscale>
<asrwt>0</asrwt>
<pdfrwt beam="1">  1       21 0.37447183E-02 0.12696660E+03</pdfrwt>
<pdfrwt beam="2">  1        4 0.41259144E-01 0.12696660E+03</pdfrwt>
<totfact> 0.99591163E+04</totfact>
</mgrwt>
</event>
<event>
 6    4  0.6195789E-003  0.1673463E+03  0.7818608E-02  0.1180644E+00
          4   -1    0    0  502    0 -0.00000000000E+00  0.00000000000E+00  0.12878929452E+03  0.12879555615E+03  0.12700000000E+01 0.  1.
         21   -1    0    0  501  502  0.00000000000E+00 -0.00000000000E+00 -0.17206304840E+03  0.17206304840E+03  0.00000000000E+00 0. -1.
         25    2    1    2    0    0 -0.65200717229E+02  0.90162463139E+02  0.26625444426E+02  0.16945116903E+03  0.12499752440E+03 0.  0.
    9000005    1    3    3    0    0 -0.65337349736E+02  0.14314371070E+02 -0.31448709639E+02  0.73918142750E+02  0.10000000000E+01 0.  0.
    9000005    1    3    3    0    0  0.13663250676E+00  0.75848092069E+02  0.58074154065E+02  0.95533026275E+02  0.10000000000E+01 0.  0.
          4    1    1    2  501    0  0.65200717229E+02 -0.90162463139E+02 -0.69899198305E+02  0.13140743552E+03  0.12700000000E+01 0. -1.
<mgrwt>
<rscale>  1 0.16734630E+03</rscale>
<asrwt>0</asrwt>
<pdfrwt beam="2">  1       21 0.26471238E-01 0.16734630E+03</pdfrwt>
<pdfrwt beam="1">  1        4 0.19814580E-01 0.16734630E+03</pdfrwt>
<totfact> 0.12977242E+04</totfact>
</mgrwt>
</event>
<event>
 6    4  0.6195789E-003  0.1274419E+03  0.7818608E-02  0.1231302E+00
         -4   -1    0    0    0  501 -0.00000000000E+00  0.00000000000E+00  0.22859643567E+03  0.22859996348E+03  0.12700000000E+01 0.  1.
         21   -1    0    0  501  502  0.00000000000E+00 -0.00000000000E+00 -0.26053917731E+02  0.26053917731E+02  0.00000000000E+00 0.  1.
         25    2    1    2    0    0 -0.11785917866E+02  0.21845766008E+02  0.18316225162E+03  0.22313637853E+03  0.12500115060E+03 0.  0.
    9000005    1    3    3    0    0  0.56138772420E+02  0.75782885616E+01  0.66273521871E+02  0.87190434840E+02  0.10000000000E+01 0.  0.
    9000005    1    3    3    0    0 -0.67924690286E+02  0.14267477446E+02  0.11688872975E+03  0.13594594369E+03  0.10000000000E+01 0.  0.
         -4    1    1    2    0  502  0.11785917866E+02 -0.21845766008E+02  0.19380266315E+02  0.31517502675E+02  0.12700000000E+01 0. -1.
<mgrwt>
<rscale>  1 0.12744188E+03</rscale>
<asrwt>0</asrwt>
<pdfrwt beam="2">  1       21 0.40082952E-02 0.12744188E+03</pdfrwt>
<pdfrwt beam="1">  1       -4 0.35171333E-01 0.12744188E+03</pdfrwt>
<totfact> 0.12155074E+05</totfact>
</mgrwt>
</event>
<event>
 6    4  0.6195789E-003  0.1284937E+03  0.7818608E-02  0.1229708E+00
         21   -1    0    0  501  502  0.00000000000E+00  0.00000000000E+00  0.12210442830E+04  0.12210442830E+04  0.00000000000E+00 0. -1.
          4   -1    0    0  502    0 -0.00000000000E+00 -0.00000000000E+00 -0.71412750145E+01  0.72533239851E+01  0.12700000000E+01 0.  1.
         25    2    1    2    0    0 -0.19794156438E+02 -0.22251840341E+02  0.59684097976E+03  0.61051600107E+03  0.12499471755E+03 0.  0.
    9000005    1    3    3    0    0  0.13521252905E+02 -0.45020963669E+02  0.53243002375E+03  0.53450205017E+03  0.10000000000E+01 0.  0.
    9000005    1    3    3    0    0 -0.33315409343E+02  0.22769123328E+02  0.64410956007E+02  0.76013950895E+02  0.10000000000E+01 0.  0.
          4    1    1    2  501    0  0.19794156438E+02  0.22251840341E+02  0.61706202822E+03  0.61778160591E+03  0.12700000000E+01 0. -1.
<mgrwt>
<rscale>  1 0.12849371E+03</rscale>
<asrwt>0</asrwt>
<pdfrwt beam="1">  1       21 0.18785280E+00 0.12849371E+03</pdfrwt>
<pdfrwt beam="2">  1        4 0.11073286E-02 0.12849371E+03</pdfrwt>
<totfact> 0.16915460E+04</totfact>
</mgrwt>
</event>
<event>
 6    4  0.6195789E-003  0.1321647E+03  0.7818608E-02  0.1224279E+00
         -4   -1    0    0    0  501 -0.00000000000E+00  0.00000000000E+00  0.21248676698E+04  0.21248680493E+04  0.12700000000E+01 0. -1.
         21   -1    0    0  501  502  0.00000000000E+00 -0.00000000000E+00 -0.36154530007E+01  0.36154530007E+01  0.00000000000E+00 0. -1.
         25    2    1    2    0    0  0.17242581542E+02  0.39404348429E+02  0.16316757142E+04  0.16370195931E+04  0.12497000656E+03 0.  0.
    9000005    1    3    3    0    0  0.65027357192E+02  0.31686886214E+02  0.62365494604E+03  0.62783684796E+03  0.10000000000E+01 0.  0.
    9000005    1    3    3    0    0 -0.47784775650E+02  0.77174622152E+01  0.10080207682E+04  0.10091827451E+04  0.10000000000E+01 0.  0.
         -4    1    1    2    0  502 -0.17242581542E+02 -0.39404348429E+02  0.48957650256E+03  0.49146390921E+03  0.12700000000E+01 0.  1.
<mgrwt>
<rscale>  1 0.13216471E+03</rscale>
<asrwt>0</asrwt>
<pdfrwt beam="2">  1       21 0.55622524E-03 0.13216471E+03</pdfrwt>
<pdfrwt beam="1">  1       -4 0.32691891E+00 0.13216471E+03</pdfrwt>
<totfact> 0.10075308E+04</totfact>
</mgrwt>
</event>
<event>
 6    4  0.6195789E-003  0.1267702E+03  0.7818608E-02  0.1232328E+00
         -4   -1    0    0    0  501 -0.00000000000E+00  0.00000000000E+00  0.38721901875E+02  0.38742722992E+02  0.12700000000E+01 0.  1.
         21   -1    0    0  501  502  0.00000000000E+00 -0.00000000000E+00 -0.18399535356E+03  0.18399535356E+03  0.00000000000E+00 0.  1.
         25    2    1    2    0    0  0.13996332478E+02 -0.15796279367E+02 -0.70546306214E+02  0.14507741125E+03  0.12500101668E+03 0.  0.
    9000005    1    3    3    0    0 -0.10482947851E+02 -0.65963121289E+02 -0.56547735567E+02  0.87519551893E+02  0.10000000000E+01 0.  0.
    9000005    1    3    3    0    0  0.24479280328E+02  0.50166841922E+02 -0.13998570647E+02  0.57557859359E+02  0.10000000000E+01 0.  0.
         -4    1    1    2    0  502 -0.13996332478E+02  0.15796279367E+02 -0.74727145466E+02  0.77660665296E+02  0.12700000000E+01 0. -1.
<mgrwt>
<rscale>  1 0.12677016E+03</rscale>
<asrwt>0</asrwt>
<pdfrwt beam="2">  1       21 0.28306978E-01 0.12677016E+03</pdfrwt>
<pdfrwt beam="1">  1       -4 0.59591544E-02 0.12677016E+03</pdfrwt>
<totfact> 0.85944473E+04</totfact>
</mgrwt>
</event>
<event>
 6    4  0.6195789E-003  0.1414562E+03  0.7818608E-02  0.1211383E+00
         21   -1    0    0  501  502  0.00000000000E+00  0.00000000000E+00  0.34050602187E+02  0.34050602187E+02  0.00000000000E+00 0. -1.
         -4   -1    0    0    0  501 -0.00000000000E+00 -0.00000000000E+00 -0.32047582084E+03  0.32047833725E+03  0.12700000000E+01 0.  1.
         25    2    1    2    0    0  0.16667967216E+02 -0.64084440584E+02 -0.21249127751E+03  0.25526929401E+03  0.12500093116E+03 0.  0.
    9000005    1    3    3    0    0 -0.52201021083E+01  0.21058583463E+02 -0.13898500250E+03  0.14067176093E+03  0.10000000000E+01 0.  0.
    9000005    1    3    3    0    0  0.21888069324E+02 -0.85143024047E+02 -0.73506275012E+02  0.11459753308E+03  0.10000000000E+01 0.  0.
         -4    1    1    2    0  502 -0.16667967216E+02  0.64084440584E+02 -0.73933941144E+02  0.99259645421E+02  0.12700000000E+01 0. -1.
<mgrwt>
<rscale>  1 0.14145625E+03</rscale>
<asrwt>0</asrwt>
<pdfrwt beam="1">  1       21 0.52385543E-02 0.14145625E+03</pdfrwt>
<pdfrwt beam="2">  1       -4 0.49305987E-01 0.14145625E+03</pdfrwt>
<totfact> 0.40342943E+04</totfact>
</mgrwt>
</event>
<event>
 6    4  0.6195789E-003  0.1530413E+03  0.7818608E-02  0.1196785E+00
         21   -1    0    0  501  502  0.00000000000E+00  0.00000000000E+00  0.45101497647E+02  0.45101497647E+02  0.00000000000E+00 0. -1.
         -4   -1    0    0    0  501 -0.00000000000E+00 -0.00000000000E+00 -0.33292522925E+03  0.33292765156E+03  0.12700000000E+01 0.  1.
         25    2    1    2    0    0  0.20743565183E+02  0.85852896268E+02 -0.21291421217E+03  0.26221004760E+03  0.12498252688E+03 0.  0.
    9000005    1    3    3    0    0 -0.43469145344E+02  0.11254181572E+01 -0.39247163018E+02  0.58584750302E+02  0.10000000000E+01 0.  0.
    9000005    1    3    3    0    0  0.64212710527E+02  0.84727478110E+02 -0.17366704915E+03  0.20362529730E+03  0.10000000000E+01 0.  0.
         -4    1    1    2    0  502 -0.20743565183E+02 -0.85852896268E+02 -0.74909519440E+02  0.11581910161E+03  0.12700000000E+01 0. -1.
<mgrwt>
<rscale>  1 0.15304133E+03</rscale>
<asrwt>0</asrwt>
<pdfrwt beam="1">  1       21 0.69386921E-02 0.15304133E+03</pdfrwt>
<pdfrwt beam="2">  1       -4 0.51220827E-01 0.15304133E+03</pdfrwt>
<totfact> 0.23337208E+04</totfact>
</mgrwt>
</event>
<event>
 6    4  0.6195789E-003  0.1314243E+03  0.7818608E-02  0.1225357E+00
         -4   -1    0    0    0  501 -0.00000000000E+00  0.00000000000E+00  0.10746273857E+04  0.10746281361E+04  0.12700000000E+01 0.  1.
         21   -1    0    0  501  502  0.00000000000E+00 -0.00000000000E+00 -0.74701277673E+01  0.74701277673E+01  0.00000000000E+00 0.  1.
         25    2    1    2    0    0 -0.24808217820E+01  0.40524984164E+02  0.92363489148E+03  0.93293824450E+03  0.12499570584E+03 0.  0.
    9000005    1    3    3    0    0  0.41005523786E+02  0.17906367459E+02  0.77772584487E+03  0.77901256778E+03  0.10000000000E+01 0.  0.
    9000005    1    3    3    0    0 -0.43486345568E+02  0.22618616705E+02  0.14590904660E+03  0.15392567672E+03  0.10000000000E+01 0.  0.
         -4    1    1    2    0  502  0.24808217820E+01 -0.40524984164E+02  0.14352236643E+03  0.14916001939E+03  0.12700000000E+01 0. -1.
<mgrwt>
<rscale>  1 0.13142433E+03</rscale>
<asrwt>0</asrwt>
<pdfrwt beam="2">  1       21 0.11492513E-02 0.13142433E+03</pdfrwt>
<pdfrwt beam="1">  1       -4 0.16533553E+00 0.13142433E+03</pdfrwt>
<totfact> 0.29969300E+04</totfact>
</mgrwt>
</event>
<event>
 6    4  0.6195789E-003  0.1281688E+03  0.7818608E-02  0.1230198E+00
         21   -1    0    0  501  502  0.00000000000E+00  0.00000000000E+00  0.27321155465E+03  0.27321155465E+03  0.00000000000E+00 0. -1.
         -4   -1    0    0    0  501 -0.00000000000E+00 -0.00000000000E+00 -0.33414095990E+02  0.33438222304E+02  0.12700000000E+01 0.  1.
         25    2    1    2    0    0 -0.21224475120E+02  0.18762704650E+02  0.96136793867E+02  0.16021714077E+03  0.12499892653E+03 0.  0.
    9000005    1    3    3    0    0 -0.73389558263E+02  0.22670810874E+01  0.56384828038E+02  0.92581940743E+02  0.10000000000E+01 0.  0.
    9000005    1    3    3    0    0  0.52165083143E+02  0.16495623563E+02  0.39751965829E+02  0.67635200032E+02  0.10000000000E+01 0.  0.
         -4    1    1    2    0  502  0.21224475120E+02 -0.18762704650E+02  0.14366066479E+03  0.14643263618E+03  0.12700000000E+01 0. -1.
<mgrwt>
<rscale>  1 0.12816883E+03</rscale>
<asrwt>0</asrwt>
<pdfrwt beam="1">  1       21 0.42032545E-01 0.12816883E+03</pdfrwt>
<pdfrwt beam="2">  1       -4 0.51427133E-02 0.12816883E+03</pdfrwt>
<totfact> 0.50278833E+04</totfact>
</mgrwt>
</event>
<event>
 6    4  0.6195789E-003  0.1300441E+03  0.7818608E-02  0.1227390E+00
         21   -1    0    0  501  502  0.00000000000E+00  0.00000000000E+00  0.49014526593E+02  0.49014526593E+02  0.00000000000E+00 0. -1.
          4   -1    0    0  502    0 -0.00000000000E+00 -0.00000000000E+00 -0.19224028771E+03  0.19224448267E+03  0.12700000000E+01 0. -1.
         25    2    1    2    0    0  0.34803733711E+02 -0.84347865565E+01 -0.15611007904E+03  0.20317930269E+03  0.12501610600E+03 0.  0.
    9000005    1    3    3    0    0  0.47486066890E+01  0.15867854066E+02  0.18202199789E+02  0.24630431082E+02  0.10000000000E+01 0.  0.
    9000005    1    3    3    0    0  0.30055127022E+02 -0.24302640622E+02 -0.17431227883E+03  0.17854887161E+03  0.10000000000E+01 0.  0.
          4    1    1    2  501    0 -0.34803733711E+02  0.84347865565E+01  0.12884317927E+02  0.38079706576E+02  0.12700000000E+01 0.  1.
<mgrwt>
<rscale>  1 0.13004412E+03</rscale>
<asrwt>0</asrwt>
<pdfrwt beam="1">  1       21 0.75406964E-02 0.13004412E+03</pdfrwt>
<pdfrwt beam="2">  1        4 0.29577017E-01 0.13004412E+03</pdfrwt>
<totfact> 0.58352753E+04</totfact>
</mgrwt>
</event>
<event>
 6    4  0.6195789E-003  0.1297236E+03  0.7818608E-02  0.1227866E+00
         21   -1    0    0  501  502  0.00000000000E+00  0.00000000000E+00  0.84046363457E+03  0.84046363457E+03  0.00000000000E+00 0. -1.
         -4   -1    0    0    0  501 -0.00000000000E+00 -0.00000000000E+00 -0.18285662627E+02  0.18329712428E+02  0.12700000000E+01 0.  1.
         25    2    1    2    0    0 -0.19782741646E+02  0.28504965008E+02  0.21842395650E+03  0.25404181623E+03  0.12499731887E+03 0.  0.
    9000005    1    3    3    0    0 -0.58248578797E+02  0.37250019680E+02  0.62518987730E+02  0.93220623925E+02  0.10000000000E+01 0.  0.
    9000005    1    3    3    0    0  0.38465837151E+02 -0.87450546723E+01  0.15590496876E+03  0.16082119231E+03  0.10000000000E+01 0.  0.
         -4    1    1    2    0  502  0.19782741646E+02 -0.28504965008E+02  0.60375401545E+03  0.60475153077E+03  0.12700000000E+01 0. -1.
<mgrwt>
<rscale>  1 0.12972363E+03</rscale>
<asrwt>0</asrwt>
<pdfrwt beam="1">  1       21 0.12930207E+00 0.12972363E+03</pdfrwt>
<pdfrwt beam="2">  1       -4 0.28166418E-02 0.12972363E+03</pdfrwt>
<totfact> 0.10816473E+04</totfact>
</mgrwt>
</event>
<event>
 6    4  0.6195789E-003  0.1279757E+03  0.7818608E-02  0.1230491E+00
         -4   -1    0    0    0  501 -0.00000000000E+00  0.00000000000E+00  0.85918619301E+02  0.85928004996E+02  0.12700000000E+01 0. -1.
         21   -1    0    0  501  502  0.00000000000E+00 -0.00000000000E+00 -0.70446029045E+02  0.70446029045E+02  0.00000000000E+00 0. -1.
         25    2    1    2    0    0  0.24570212613E+02  0.12223055388E+02  0.10030924214E+02  0.12836826570E+03  0.12499877507E+03 0.  0.
    9000005    1    3    3    0    0 -0.34002721645E+01  0.36923295757E+02  0.57225312365E+02  0.68195513017E+02  0.10000000000E+01 0.  0.
    9000005    1    3    3    0    0  0.27970484777E+02 -0.24700240369E+02 -0.47194388151E+02  0.60172752687E+02  0.10000000000E+01 0.  0.
         -4    1    1    2    0  502 -0.24570212613E+02 -0.12223055388E+02  0.54416660421E+01  0.28005768337E+02  0.12700000000E+01 0.  1.
<mgrwt>
<rscale>  1 0.12797575E+03</rscale>
<asrwt>0</asrwt>
<pdfrwt beam="2">  1       21 0.10837851E-01 0.12797575E+03</pdfrwt>
<pdfrwt beam="1">  1       -4 0.13219852E-01 0.12797575E+03</pdfrwt>
<totfact> 0.13183323E+05</totfact>
</mgrwt>
</event>
<event>
 6    4  0.6195789E-003  0.1288801E+03  0.7818608E-02  0.1229127E+00
         21   -1    0    0  501  502  0.00000000000E+00  0.00000000000E+00  0.98030240553E+02  0.98030240553E+02  0.00000000000E+00 0.  1.
         -4   -1    0    0    0  501 -0.00000000000E+00 -0.00000000000E+00 -0.65665360141E+02  0.65677640201E+02  0.12700000000E+01 0.  1.
         25    2    1    2    0    0 -0.16819340154E+02  0.26503361286E+02  0.29088651281E+02  0.13212204627E+03  0.12499906846E+03 0.  0.
    9000005    1    3    3    0    0  0.35740421930E+01  0.59955196193E+01 -0.48656934243E+02  0.49165203986E+02  0.10000000000E+01 0.  0.
    9000005    1    3    3    0    0 -0.20393382347E+02  0.20507841666E+02  0.77745585524E+02  0.82956842285E+02  0.10000000000E+01 0.  0.
         -4    1    1    2    0  502  0.16819340154E+02 -0.26503361286E+02  0.32762291308E+01  0.31585834483E+02  0.12700000000E+01 0. -1.
<mgrwt>
<rscale>  1 0.12888012E+03</rscale>
<asrwt>0</asrwt>
<pdfrwt beam="1">  1       21 0.15081575E-01 0.12888012E+03</pdfrwt>
<pdfrwt beam="2">  1       -4 0.10103941E-01 0.12888012E+03</pdfrwt>
<totfact> 0.11583031E+05</totfact>
</mgrwt>
</event>
<event>
 6    4  0.6195789E-003  0.1278575E+03  0.7818608E-02  0.1230670E+00
          4   -1    0    0  502    0 -0.00000000000E+00  0.00000000000E+00  0.11294096606E+04  0.11294103747E+04  0.12700000000E+01 0.  1.
         21   -1    0    0  501  502  0.00000000000E+00 -0.00000000000E+00 -0.18988784440E+02  0.18988784440E+02  0.00000000000E+00 0. -1.
         25    2    1    2    0    0  0.24093170093E+02  0.11897712161E+02  0.11139538178E+04  0.11212674254E+04  0.12500197805E+03 0.  0.
    9000005    1    3    3    0    0 -0.39621447201E+02 -0.30608361664E+02  0.36811709757E+03  0.37150764246E+03  0.10000000000E+01 0.  0.
    9000005    1    3    3    0    0  0.63714617294E+02  0.42506073825E+02  0.74583672026E+03  0.74975978290E+03  0.10000000000E+01 0.  0.
          4    1    1    2  501    0 -0.24093170093E+02 -0.11897712161E+02 -0.35329416416E+01  0.27131733753E+02  0.12700000000E+01 0. -1.
<mgrwt>
<rscale>  1 0.12785746E+03</rscale>
<asrwt>0</asrwt>
<pdfrwt beam="2">  1       21 0.29213523E-02 0.12785746E+03</pdfrwt>
<pdfrwt beam="1">  1        4 0.17375860E+00 0.12785746E+03</pdfrwt>
<totfact> 0.58387701E+03</totfact>
</mgrwt>
</event>
<event>
 6    4  0.6195789E-003  0.1287609E+03  0.7818608E-02  0.1229306E+00
         21   -1    0    0  501  502  0.00000000000E+00  0.00000000000E+00  0.11489252277E+02  0.11489252277E+02  0.00000000000E+00 0.  1.
         -4   -1    0    0    0  501 -0.00000000000E+00 -0.00000000000E+00 -0.55499372242E+03  0.55499517550E+03  0.12700000000E+01 0.  1.
         25    2    1    2    0    0 -0.28823141078E+02 -0.11109975949E+02 -0.43362139568E+03  0.45233492939E+03  0.12500067413E+03 0.  0.
    9000005    1    3    3    0    0 -0.73799329662E+02 -0.85479876623E+01 -0.17983184840E+03  0.19457621347E+03  0.10000000000E+01 0.  0.
    9000005    1    3    3    0    0  0.44976188584E+02 -0.25619882868E+01 -0.25378954728E+03  0.25775871592E+03  0.10000000000E+01 0.  0.
         -4    1    1    2    0  502  0.28823141078E+02  0.11109975949E+02 -0.10988307446E+03  0.11414949838E+03  0.12700000000E+01 0. -1.
<mgrwt>
<rscale>  1 0.12876092E+03</rscale>
<asrwt>0</asrwt>
<pdfrwt beam="1">  1       21 0.17675775E-02 0.12876092E+03</pdfrwt>
<pdfrwt beam="2">  1       -4 0.85389149E-01 0.12876092E+03</pdfrwt>
<totfact> 0.73797949E+04</totfact>
</mgrwt>
</event>
<event>
 6    4  0.6195789E-003  0.1272400E+03  0.7818608E-02  0.1231609E+00
         21   -1    0    0  501  502  0.00000000000E+00  0.00000000000E+00  0.25188174519E+02  0.25188174519E+02  0.00000000000E+00 0. -1.
         -4   -1    0    0    0  501 -0.00000000000E+00 -0.00000000000E+00 -0.23957955997E+03  0.23958292606E+03  0.12700000000E+01 0. -1.
         25    2    1    2    0    0 -0.13668323075E+02  0.19504866793E+02 -0.19959633277E+03  0.23670387114E+03  0.12499105437E+03 0.  0.
    9000005    1    3    3    0    0 -0.22534376117E+01 -0.29521368155E+02  0.12427968770E+01  0.29650188918E+02  0.10000000000E+01 0.  0.
    9000005    1    3    3    0    0 -0.11414885463E+02  0.49026234948E+02 -0.20083912965E+03  0.20705368222E+03  0.10000000000E+01 0.  0.
         -4    1    1    2    0  502  0.13668323075E+02 -0.19504866793E+02 -0.14795052683E+02  0.28067229435E+02  0.12700000000E+01 0.  1.
<mgrwt>
<rscale>  1 0.12724004E+03</rscale>
<asrwt>0</asrwt>
<pdfrwt beam="1">  1       21 0.38751037E-02 0.12724004E+03</pdfrwt>
<pdfrwt beam="2">  1       -4 0.36861116E-01 0.12724004E+03</pdfrwt>
<totfact> 0.11737295E+05</totfact>
</mgrwt>
</event>
<event>
 6    4  0.6195789E-003  0.1274052E+03  0.7818608E-02  0.1231357E+00
         21   -1    0    0  501  502  0.00000000000E+00  0.00000000000E+00  0.17229308109E+03  0.17229308109E+03  0.00000000000E+00 0.  1.
          4   -1    0    0  502    0 -0.00000000000E+00 -0.00000000000E+00 -0.48220799255E+02  0.48237520467E+02  0.12700000000E+01 0.  1.
         25    2    1    2    0    0 -0.16199188687E+02 -0.18569067722E+02  0.40951799915E+02  0.13382505730E+03  0.12499948822E+03 0.  0.
    9000005    1    3    3    0    0  0.21258871551E+02 -0.21680462515E+02  0.76357054627E+02  0.82178962429E+02  0.10000000000E+01 0.  0.
    9000005    1    3    3    0    0 -0.37458060238E+02  0.31113947929E+01 -0.35405254712E+02  0.51646094872E+02  0.10000000000E+01 0.  0.
          4    1    1    2  501    0  0.16199188687E+02  0.18569067722E+02  0.83120481923E+02  0.86705544260E+02  0.12700000000E+01 0. -1.
<mgrwt>
<rscale>  1 0.12740524E+03</rscale>
<asrwt>0</asrwt>
<pdfrwt beam="1">  1       21 0.26506628E-01 0.12740524E+03</pdfrwt>
<pdfrwt beam="2">  1        4 0.74202308E-02 0.12740524E+03</pdfrwt>
<totfact> 0.68133060E+04</totfact>
</mgrwt>
</event>
<event>
 6    4  0.6195789E-003  0.1266644E+03  0.7818608E-02  0.1232491E+00
         21   -1    0    0  501  502  0.00000000000E+00  0.00000000000E+00  0.17532487386E+03  0.17532487386E+03  0.00000000000E+00 0. -1.
         -4   -1    0    0    0  501 -0.00000000000E+00 -0.00000000000E+00 -0.31185448218E+02  0.31211297322E+02  0.12700000000E+01 0. -1.
         25    2    1    2    0    0  0.18260654185E+02  0.92628807392E+01  0.13072666389E+03  0.18202561165E+03  0.12499844076E+03 0.  0.
    9000005    1    3    3    0    0 -0.48899573183E+02 -0.19945082920E+02  0.63611782592E+02  0.82682727789E+02  0.10000000000E+01 0.  0.
    9000005    1    3    3    0    0  0.67160227368E+02  0.29207963659E+02  0.67114881302E+02  0.99342883859E+02  0.10000000000E+01 0.  0.
         -4    1    1    2    0  502 -0.18260654185E+02 -0.92628807392E+01  0.13412761745E+02  0.24510559531E+02  0.12700000000E+01 0.  1.
<mgrwt>
<rscale>  1 0.12666437E+03</rscale>
<asrwt>0</asrwt>
<pdfrwt beam="1">  1       21 0.26973057E-01 0.12666437E+03</pdfrwt>
<pdfrwt beam="2">  1       -4 0.48001036E-02 0.12666437E+03</pdfrwt>
<totfact> 0.13353699E+05</totfact>
</mgrwt>
</event>
<event>
 6    4  0.6195789E-003  0.1284319E+03  0.7818608E-02  0.1229801E+00
          4   -1    0    0  502    0 -0.00000000000E+00  0.00000000000E+00  0.50759357933E+02  0.50775243158E+02  0.12700000000E+01 0.  1.
         21   -1    0    0  501  502  0.00000000000E+00 -0.00000000000E+00 -0.80835424411E+03  0.80835424411E+03  0.00000000000E+00 0. -1.
         25    2    1    2    0    0 -0.28750307613E+02  0.66438139591E+01 -0.31243118283E+02  0.13217747780E+03  0.12499613092E+03 0.  0.
    9000005    1    3    3    0    0 -0.71758140256E+02 -0.23112470353E+02 -0.11496813463E+02  0.76266596218E+02  0.10000000000E+01 0.  0.
    9000005    1    3    3    0    0  0.43007832643E+02  0.29756284312E+02 -0.19746304820E+02  0.55910881578E+02  0.10000000000E+01 0.  0.
          4    1    1    2  501    0  0.28750307613E+02 -0.66438139591E+01 -0.72635176789E+03  0.72695200947E+03  0.12700000000E+01 0. -1.
<mgrwt>
<rscale>  1 0.12843190E+03</rscale>
<asrwt>0</asrwt>
<pdfrwt beam="2">  1       21 0.12436218E+00 0.12843190E+03</pdfrwt>
<pdfrwt beam="1">  1        4 0.78104316E-02 0.12843190E+03</pdfrwt>
<totfact> 0.23230868E+03</totfact>
</mgrwt>
</event>
<event>
 6    4  0.6195789E-003  0.1292619E+03  0.7818608E-02  0.1228555E+00
         -4   -1    0    0    0  501 -0.00000000000E+00  0.00000000000E+00  0.17397803650E+03  0.17398267180E+03  0.12700000000E+01 0.  1.
         21   -1    0    0  501  502  0.00000000000E+00 -0.00000000000E+00 -0.17305669460E+04  0.17305669460E+04  0.00000000000E+00 0. -1.
         25    2    1    2    0    0  0.22395688940E+02  0.24125641257E+02  0.14979004773E+03  0.19785269918E+03  0.12500007490E+03 0.  0.
    9000005    1    3    3    0    0  0.14578617942E+02  0.50421339193E+02  0.76076639757E+01  0.53044548243E+02  0.10000000000E+01 0.  0.
    9000005    1    3    3    0    0  0.78170709987E+01 -0.26295697936E+02  0.14218238375E+03  0.14480815094E+03  0.10000000000E+01 0.  0.
         -4    1    1    2    0  502 -0.22395688940E+02 -0.24125641257E+02 -0.17063789572E+04  0.17066969186E+04  0.12700000000E+01 0. -1.
<mgrwt>
<rscale>  1 0.12926187E+03</rscale>
<asrwt>0</asrwt>
<pdfrwt beam="2">  1       21 0.26624108E+00 0.12926187E+03</pdfrwt>
<pdfrwt beam="1">  1       -4 0.26766243E-01 0.12926187E+03</pdfrwt>
<totfact> 0.31309523E+01</totfact>
</mgrwt>
</event>
<event>
 6    4  0.6195789E-003  0.1308140E+03  0.7818608E-02  0.1226253E+00
          4   -1    0    0  502    0 -0.00000000000E+00  0.00000000000E+00  0.84908206038E+03  0.84908301017E+03  0.12700000000E+01 0.  1.
         21   -1    0    0  501  502  0.00000000000E+00 -0.00000000000E+00 -0.19694778978E+02  0.19694778978E+02  0.00000000000E+00 0. -1.
         25    2    1    2    0    0 -0.63211520289E+01  0.38037503899E+02  0.81822416672E+03  0.82861516105E+03  0.12500195781E+03 0.  0.
    9000005    1    3    3    0    0 -0.46400403224E+02  0.31285680163E+02  0.16713859046E+03  0.17626145246E+03  0.10000000000E+01 0.  0.
    9000005    1    3    3    0    0  0.40079251195E+02  0.67518237360E+01  0.65108557626E+03  0.65235370859E+03  0.10000000000E+01 0.  0.
          4    1    1    2  501    0  0.63211520289E+01 -0.38037503899E+02  0.11163114678E+02  0.40162628090E+02  0.12700000000E+01 0. -1.
<mgrwt>
<rscale>  1 0.13081398E+03</rscale>
<asrwt>0</asrwt>
<pdfrwt beam="2">  1       21 0.30299667E-02 0.13081398E+03</pdfrwt>
<pdfrwt beam="1">  1        4 0.13063120E+00 0.13081398E+03</pdfrwt>
<totfact> 0.11415142E+04</totfact>
</mgrwt>
</event>
<event>
 6    4  0.6195789E-003  0.1310773E+03  0.7818608E-02  0.1225866E+00
         21   -1    0    0  501  502  0.00000000000E+00  0.00000000000E+00  0.23989642417E+03  0.23989642417E+03  0.00000000000E+00 0.  1.
          4   -1    0    0  502    0 -0.00000000000E+00 -0.00000000000E+00 -0.32323571458E+02  0.32348511121E+02  0.12700000000E+01 0. -1.
         25    2    1    2    0    0  0.16293500980E+02 -0.35926034420E+02  0.12693311831E+03  0.18246443748E+03  0.12500038519E+03 0.  0.
    9000005    1    3    3    0    0  0.25922147494E+02  0.41228737666E+02  0.26518040902E+02  0.55461455386E+02  0.10000000000E+01 0.  0.
    9000005    1    3    3    0    0 -0.96286465138E+01 -0.77154772086E+02  0.10041507741E+03  0.12700298210E+03  0.10000000000E+01 0.  0.
          4    1    1    2  501    0 -0.16293500980E+02  0.35926034420E+02  0.80639734400E+02  0.89780497813E+02  0.12700000000E+01 0.  1.
<mgrwt>
<rscale>  1 0.13107728E+03</rscale>
<asrwt>0</asrwt>
<pdfrwt beam="1">  1       21 0.36907141E-01 0.13107728E+03</pdfrwt>
<pdfrwt beam="2">  1        4 0.49750343E-02 0.13107728E+03</pdfrwt>
<totfact> 0.68919669E+04</totfact>
</mgrwt>
</event>
<event>
 6    4  0.6195789E-003  0.1278095E+03  0.7818608E-02  0.1230743E+00
         21   -1    0    0  501  502  0.00000000000E+00  0.00000000000E+00  0.10292095933E+03  0.10292095933E+03  0.00000000000E+00 0. -1.
          4   -1    0    0  502    0 -0.00000000000E+00 -0.00000000000E+00 -0.64641922589E+02  0.64654397035E+02  0.12700000000E+01 0.  1.
         25    2    1    2    0    0 -0.16600281555E+02  0.20840021398E+02  0.92371490727E+01  0.12814288271E+03  0.12500159049E+03 0.  0.
    9000005    1    3    3    0    0 -0.37231668069E+02  0.66737953071E+02 -0.24711692030E+01  0.76467366664E+02  0.10000000000E+01 0.  0.
    9000005    1    3    3    0    0  0.20631386513E+02 -0.45897931673E+02  0.11708318276E+02  0.51675516042E+02  0.10000000000E+01 0.  0.
          4    1    1    2  501    0  0.16600281555E+02 -0.20840021398E+02  0.29041887666E+02  0.39432473658E+02  0.12700000000E+01 0. -1.
<mgrwt>
<rscale>  1 0.12780952E+03</rscale>
<asrwt>0</asrwt>
<pdfrwt beam="1">  1       21 0.15833994E-01 0.12780952E+03</pdfrwt>
<pdfrwt beam="2">  1        4 0.99464735E-02 0.12780952E+03</pdfrwt>
<totfact> 0.10878962E+05</totfact>
</mgrwt>
</event>
<event>
 6    4  0.6195789E-003  0.1280728E+03  0.7818608E-02  0.1230344E+00
         -4   -1    0    0    0  501 -0.00000000000E+00  0.00000000000E+00  0.17560144122E+03  0.17560603366E+03  0.12700000000E+01 0.  1.
         21   -1    0    0  501  502  0.00000000000E+00 -0.00000000000E+00 -0.58728232238E+02  0.58728232238E+02  0.00000000000E+00 0. -1.
         25    2    1    2    0    0 -0.30238663846E+00 -0.27906970584E+02  0.14583842200E+03  0.19409141673E+03  0.12499496898E+03 0.  0.
    9000005    1    3    3    0    0  0.10632431667E+02 -0.76623512435E+02  0.98818959182E+02  0.12550058946E+03  0.10000000000E+01 0.  0.
    9000005    1    3    3    0    0 -0.10934818305E+02  0.48716541852E+02  0.47019462817E+02  0.68590827265E+02  0.10000000000E+01 0.  0.
         -4    1    1    2    0  502  0.30238663846E+00  0.27906970584E+02 -0.28965213015E+02  0.40242849176E+02  0.12700000000E+01 0. -1.
<mgrwt>
<rscale>  1 0.12807276E+03</rscale>
<asrwt>0</asrwt>
<pdfrwt beam="2">  1       21 0.90351128E-02 0.12807276E+03</pdfrwt>
<pdfrwt beam="1">  1       -4 0.27017016E-01 0.12807276E+03</pdfrwt>
<totfact> 0.50489023E+04</totfact>
</mgrwt>
</event>
<event>
 6    4  0.6195789E-003  0.1362768E+03  0.7818608E-02  0.1218428E+00
         21   -1    0    0  501  502  0.00000000000E+00  0.00000000000E+00  0.75939713528E+03  0.75939713528E+03  0.00000000000E+00 0. -1.
         -4   -1    0    0    0  501 -0.00000000000E+00 -0.00000000000E+00 -0.12625871266E+02  0.12689583335E+02  0.12700000000E+01 0.  1.
         25    2    1    2    0    0  0.49772664057E+00 -0.54281185547E+02  0.44252631397E+03  0.46303446193E+03  0.12499871816E+03 0.  0.
    9000005    1    3    3    0    0  0.12754182269E+02 -0.89645241860E+02  0.22906173399E+03  0.24631121885E+03  0.10000000000E+01 0.  0.
    9000005    1    3    3    0    0 -0.12256455629E+02  0.35364056313E+02  0.21346457998E+03  0.21672324308E+03  0.10000000000E+01 0.  0.
         -4    1    1    2    0  502 -0.49772664057E+00  0.54281185547E+02  0.30424495004E+03  0.30905225668E+03  0.12700000000E+01 0. -1.
<mgrwt>
<rscale>  1 0.13627683E+03</rscale>
<asrwt>0</asrwt>
<pdfrwt beam="1">  1       21 0.11683029E+00 0.13627683E+03</pdfrwt>
<pdfrwt beam="2">  1       -4 0.19474249E-02 0.13627683E+03</pdfrwt>
<totfact> 0.24665980E+04</totfact>
</mgrwt>
</event>
<event>
 6    4  0.6195789E-003  0.1320609E+03  0.7818608E-02  0.1224429E+00
          4   -1    0    0  502    0 -0.00000000000E+00  0.00000000000E+00  0.33340271615E+03  0.33340513499E+03  0.12700000000E+01 0.  1.
         21   -1    0    0  501  502  0.00000000000E+00 -0.00000000000E+00 -0.33518365542E+02  0.33518365542E+02  0.00000000000E+00 0. -1.
         25    2    1    2    0    0 -0.34007111940E+02 -0.25651045366E+02  0.29600957622E+03  0.32413230322E+03  0.12500248391E+03 0.  0.
    9000005    1    3    3    0    0 -0.68515094363E+02  0.94274703422E+01  0.97051458916E+02  0.11917709944E+03  0.10000000000E+01 0.  0.
    9000005    1    3    3    0    0  0.34507982422E+02 -0.35078515708E+02  0.19895811730E+03  0.20495520378E+03  0.10000000000E+01 0.  0.
          4    1    1    2  501    0  0.34007111940E+02  0.25651045366E+02  0.38747743867E+01  0.42791197312E+02  0.12700000000E+01 0. -1.
<mgrwt>
<rscale>  1 0.13206090E+03</rscale>
<asrwt>0</asrwt>
<pdfrwt beam="2">  1       21 0.51566718E-02 0.13206090E+03</pdfrwt>
<pdfrwt beam="1">  1        4 0.51294760E-01 0.13206090E+03</pdfrwt>
<totfact> 0.37909570E+04</totfact>
</mgrwt>
</event>
<event>
 6    4  0.6195789E-003  0.1331572E+03  0.7818608E-02  0.1222845E+00
         -4   -1    0    0    0  501 -0.00000000000E+00  0.00000000000E+00  0.12506490448E+03  0.12507135256E+03  0.12700000000E+01 0.  1.
         21   -1    0    0  501  502  0.00000000000E+00 -0.00000000000E+00 -0.81390138840E+02  0.81390138840E+02  0.00000000000E+00 0. -1.
         25    2    1    2    0    0 -0.53175269561E+01  0.45581013672E+02  0.73129555269E+02  0.15191699184E+03  0.12499974262E+03 0.  0.
    9000005    1    3    3    0    0 -0.29084858153E+02  0.56091844145E+02 -0.10748544366E+02  0.64099572225E+02  0.10000000000E+01 0.  0.
    9000005    1    3    3    0    0  0.23767331197E+02 -0.10510830473E+02  0.83878099635E+02  0.87817419615E+02  0.10000000000E+01 0.  0.
         -4    1    1    2    0  502  0.53175269561E+01 -0.45581013672E+02 -0.29454789632E+02  0.54544499562E+02  0.12700000000E+01 0. -1.
<mgrwt>
<rscale>  1 0.13315720E+03</rscale>
<asrwt>0</asrwt>
<pdfrwt beam="2">  1       21 0.12521560E-01 0.13315720E+03</pdfrwt>
<pdfrwt beam="1">  1       -4 0.19242013E-01 0.13315720E+03</pdfrwt>
<totfact> 0.53121291E+04</totfact>
</mgrwt>
</event>
<event>
 6    4  0.6195789E-003  0.1294859E+03  0.7818608E-02  0.1228221E+00
          4   -1    0    0  502    0 -0.00000000000E+00  0.00000000000E+00  0.20230322668E+03  0.20230721299E+03  0.12700000000E+01 0. -1.
         21   -1    0    0  501  502  0.00000000000E+00 -0.00000000000E+00 -0.32961036139E+02  0.32961036139E+02  0.00000000000E+00 0. -1.
         25    2    1    2    0    0 -0.32844005102E+02 -0.78756466720E+01  0.13220832743E+03  0.18505578881E+03  0.12500339454E+03 0.  0.
    9000005    1    3    3    0    0 -0.34406645538E+02  0.52463086954E+02  0.95922091970E+02  0.11462216399E+03  0.10000000000E+01 0.  0.
    9000005    1    3    3    0    0  0.15626404353E+01 -0.60338733626E+02  0.36286235461E+02  0.70433624816E+02  0.10000000000E+01 0.  0.
          4    1    1    2  501    0  0.32844005102E+02  0.78756466720E+01  0.37133863113E+02  0.50212460320E+02  0.12700000000E+01 0.  1.
<mgrwt>
<rscale>  1 0.12948592E+03</rscale>
<asrwt>0</asrwt>
<pdfrwt beam="2">  1       21 0.50709287E-02 0.12948592E+03</pdfrwt>
<pdfrwt beam="1">  1        4 0.31125761E-01 0.12948592E+03</pdfrwt>
<totfact> 0.10391488E+05</totfact>
</mgrwt>
</event>
<event>
 6    4  0.6195789E-003  0.1291244E+03  0.7818608E-02  0.1228761E+00
         21   -1    0    0  501  502  0.00000000000E+00  0.00000000000E+00  0.44390062808E+01  0.44390062808E+01  0.00000000000E+00 0.  1.
          4   -1    0    0  502    0 -0.00000000000E+00 -0.00000000000E+00 -0.20066821548E+04  0.20066825567E+04  0.12700000000E+01 0.  1.
         25    2    1    2    0    0 -0.23042619212E+02  0.22740939428E+02 -0.18869397335E+04  0.18913526060E+04  0.12500003966E+03 0.  0.
    9000005    1    3    3    0    0 -0.45895028424E+02  0.30996037203E+02 -0.36149249956E+03  0.36571154643E+03  0.10000000000E+01 0.  0.
    9000005    1    3    3    0    0  0.22852409211E+02 -0.82550977743E+01 -0.15254472339E+04  0.15256410596E+04  0.10000000000E+01 0.  0.
          4    1    1    2  501    0  0.23042619212E+02 -0.22740939428E+02 -0.11530341509E+03  0.11976895699E+03  0.12700000000E+01 0. -1.
<mgrwt>
<rscale>  1 0.12912445E+03</rscale>
<asrwt>0</asrwt>
<pdfrwt beam="1">  1       21 0.68292296E-03 0.12912445E+03</pdfrwt>
<pdfrwt beam="2">  1        4 0.30873483E+00 0.12912445E+03</pdfrwt>
<totfact> 0.93494746E+03</totfact>
</mgrwt>
</event>
<event>
 6    4  0.6195789E-003  0.1304875E+03  0.7818608E-02  0.1226734E+00
         -4   -1    0    0    0  501 -0.00000000000E+00  0.00000000000E+00  0.18922560509E+03  0.18922986688E+03  0.12700000000E+01 0.  1.
         21   -1    0    0  501  502  0.00000000000E+00 -0.00000000000E+00 -0.68944755600E+02  0.68944755600E+02  0.00000000000E+00 0. -1.
         25    2    1    2    0    0  0.19008279667E+02 -0.32267809205E+02  0.15806027288E+03  0.20496349641E+03  0.12499783515E+03 0.  0.
    9000005    1    3    3    0    0 -0.51006462572E+02  0.38551834342E+01  0.71428495581E+02  0.87860979077E+02  0.10000000000E+01 0.  0.
    9000005    1    3    3    0    0  0.70014742239E+02 -0.36122992639E+02  0.86631777296E+02  0.11710251733E+03  0.10000000000E+01 0.  0.
         -4    1    1    2    0  502 -0.19008279667E+02  0.32267809205E+02 -0.37779423388E+02  0.53211126076E+02  0.12700000000E+01 0. -1.
<mgrwt>
<rscale>  1 0.13048749E+03</rscale>
<asrwt>0</asrwt>
<pdfrwt beam="2">  1       21 0.10606886E-01 0.13048749E+03</pdfrwt>
<pdfrwt beam="1">  1       -4 0.29112859E-01 0.13048749E+03</pdfrwt>
<totfact> 0.33249875E+04</totfact>
</mgrwt>
</event>
<event>
 6    4  0.6195789E-003  0.1265934E+03  0.7818608E-02  0.1232600E+00
         21   -1    0    0  501  502  0.00000000000E+00  0.00000000000E+00  0.12835746158E+03  0.12835746158E+03  0.00000000000E+00 0.  1.
          4   -1    0    0  502    0 -0.00000000000E+00 -0.00000000000E+00 -0.76676359219E+02  0.76686876081E+02  0.12700000000E+01 0. -1.
         25    2    1    2    0    0  0.17540050860E+02  0.96342975882E+01 -0.22169442515E+02  0.12851990396E+03  0.12500163383E+03 0.  0.
    9000005    1    3    3    0    0  0.11460542494E+02 -0.25081709368E+02  0.44926434639E+02  0.52724005050E+02  0.10000000000E+01 0.  0.
    9000005    1    3    3    0    0  0.60795083658E+01  0.34716006956E+02 -0.67095877155E+02  0.75795898914E+02  0.10000000000E+01 0.  0.
          4    1    1    2  501    0 -0.17540050860E+02 -0.96342975882E+01  0.73850544876E+02  0.76524433697E+02  0.12700000000E+01 0.  1.
<mgrwt>
<rscale>  1 0.12659337E+03</rscale>
<asrwt>0</asrwt>
<pdfrwt beam="1">  1       21 0.19747302E-01 0.12659337E+03</pdfrwt>
<pdfrwt beam="2">  1        4 0.11797655E-01 0.12659337E+03</pdfrwt>
<totfact> 0.54353217E+04</totfact>
</mgrwt>
</event>
<event>
 6    4  0.6195789E-003  0.1269045E+03  0.7818608E-02  0.1232123E+00
         21   -1    0    0  501  502  0.00000000000E+00  0.00000000000E+00  0.55555091537E+02  0.55555091537E+02  0.00000000000E+00 0.  1.
          4   -1    0    0  502    0 -0.00000000000E+00 -0.00000000000E+00 -0.10106156261E+03  0.10106954208E+03  0.12700000000E+01 0.  1.
         25    2    1    2    0    0  0.99854628170E+01  0.19462210291E+02 -0.31970704999E+02  0.13086969312E+03  0.12500505390E+03 0.  0.
    9000005    1    3    3    0    0 -0.14473294520E+02 -0.27991852118E+02  0.33754370519E+02  0.46188500391E+02  0.10000000000E+01 0.  0.
    9000005    1    3    3    0    0  0.24458757337E+02  0.47454062409E+02 -0.65725075518E+02  0.84681192726E+02  0.10000000000E+01 0.  0.
          4    1    1    2  501    0 -0.99854628170E+01 -0.19462210291E+02 -0.13535766071E+02  0.25754940501E+02  0.12700000000E+01 0. -1.
<mgrwt>
<rscale>  1 0.12690449E+03</rscale>
<asrwt>0</asrwt>
<pdfrwt beam="1">  1       21 0.85469372E-02 0.12690449E+03</pdfrwt>
<pdfrwt beam="2">  1        4 0.15549663E-01 0.12690449E+03</pdfrwt>
<totfact> 0.15030617E+05</totfact>
</mgrwt>
</event>
<event>
 6    4  0.6195789E-003  0.1281347E+03  0.7818608E-02  0.1230250E+00
         -4   -1    0    0    0  501 -0.00000000000E+00  0.00000000000E+00  0.69033463230E+02  0.69045144257E+02  0.12700000000E+01 0.  1.
         21   -1    0    0  501  502  0.00000000000E+00 -0.00000000000E+00 -0.10416305433E+03  0.10416305433E+03  0.00000000000E+00 0.  1.
         25    2    1    2    0    0 -0.21294674833E+02  0.18442016008E+02  0.33417499767E-01  0.12813468969E+03  0.12499970582E+03 0.  0.
    9000005    1    3    3    0    0 -0.45538523569E+02  0.18565318772E+01 -0.51518992340E+02  0.68792517116E+02  0.10000000000E+01 0.  0.
    9000005    1    3    3    0    0  0.24243848736E+02  0.16585484131E+02  0.51552409840E+02  0.59342172573E+02  0.10000000000E+01 0.  0.
         -4    1    1    2    0  502  0.21294674833E+02 -0.18442016008E+02 -0.35163008604E+02  0.45073508903E+02  0.12700000000E+01 0. -1.
<mgrwt>
<rscale>  1 0.12813469E+03</rscale>
<asrwt>0</asrwt>
<pdfrwt beam="2">  1       21 0.16025085E-01 0.12813469E+03</pdfrwt>
<pdfrwt beam="1">  1       -4 0.10622027E-01 0.12813469E+03</pdfrwt>
<totfact> 0.95318001E+04</totfact>
</mgrwt>
</event>
<event>
 6    4  0.6195789E-003  0.2144515E+03  0.7818608E-02  0.1138089E+00
         21   -1    0    0  501  502  0.00000000000E+00  0.00000000000E+00  0.79687298042E+03  0.79687298042E+03  0.00000000000E+00 0. -1.
          4   -1    0    0  502    0 -0.00000000000E+00 -0.00000000000E+00 -0.78734555176E+02  0.78744797153E+02  0.12700000000E+01 0.  1.
         25    2    1    2    0    0  0.16637062278E+03 -0.51833860825E+02  0.10611649339E+03  0.23927008077E+03  0.12499411237E+03 0.  0.
    9000005    1    3    3    0    0  0.15177544590E+03  0.33591840267E+00  0.46571203185E+02  0.15876326964E+03  0.10000000000E+01 0.  0.
    9000005    1    3    3    0    0  0.14595176880E+02 -0.52169779228E+02  0.59545290200E+02  0.80506811127E+02  0.10000000000E+01 0.  0.
          4    1    1    2  501    0 -0.16637062278E+03  0.51833860825E+02  0.61202193186E+03  0.63634769681E+03  0.12700000000E+01 0. -1.
<mgrwt>
<rscale>  1 0.21445154E+03</rscale>
<asrwt>0</asrwt>
<pdfrwt beam="1">  1       21 0.12259584E+00 0.21445154E+03</pdfrwt>
<pdfrwt beam="2">  1        4 0.12113875E-01 0.21445154E+03</pdfrwt>
<totfact> 0.11496201E+03</totfact>
</mgrwt>
</event>
<event>
 6    4  0.6195789E-003  0.1325787E+03  0.7818608E-02  0.1223679E+00
         21   -1    0    0  501  502  0.00000000000E+00  0.00000000000E+00  0.11470585075E+03  0.11470585075E+03  0.00000000000E+00 0.  1.
         -4   -1    0    0    0  501 -0.00000000000E+00 -0.00000000000E+00 -0.68642347403E+02  0.68654094976E+02  0.12700000000E+01 0.  1.
         25    2    1    2    0    0 -0.27105574410E+02 -0.34887270490E+02  0.27385865832E+02  0.13537764847E+03  0.12500115300E+03 0.  0.
    9000005    1    3    3    0    0 -0.53241986782E+01 -0.80471570983E+02  0.72364750761E+01  0.80977696927E+02  0.10000000000E+01 0.  0.
    9000005    1    3    3    0    0 -0.21781375732E+02  0.45584300493E+02  0.20149390756E+02  0.54399951544E+02  0.10000000000E+01 0.  0.
         -4    1    1    2    0  502  0.27105574410E+02  0.34887270490E+02  0.18677637511E+02  0.47982297250E+02  0.12700000000E+01 0. -1.
<mgrwt>
<rscale>  1 0.13257874E+03</rscale>
<asrwt>0</asrwt>
<pdfrwt beam="1">  1       21 0.17647054E-01 0.13257874E+03</pdfrwt>
<pdfrwt beam="2">  1       -4 0.10561806E-01 0.13257874E+03</pdfrwt>
<totfact> 0.81122659E+04</totfact>
</mgrwt>
</event>
<event>
 6    4  0.6195789E-003  0.1319529E+03  0.7818608E-02  0.1224586E+00
         21   -1    0    0  501  502  0.00000000000E+00  0.00000000000E+00  0.34345439712E+02  0.34345439712E+02  0.00000000000E+00 0.  1.
         -4   -1    0    0    0  501 -0.00000000000E+00 -0.00000000000E+00 -0.22439222951E+03  0.22439582341E+03  0.12700000000E+01 0.  1.
         25    2    1    2    0    0  0.16092094289E+02  0.39084425175E+02 -0.15690994724E+03  0.20501779502E+03  0.12500006778E+03 0.  0.
    9000005    1    3    3    0    0 -0.17034631845E+02  0.16813012666E+02  0.15177445630E+02  0.28358613028E+02  0.10000000000E+01 0.  0.
    9000005    1    3    3    0    0  0.33126726134E+02  0.22271412510E+02 -0.17208739287E+03  0.17665918199E+03  0.10000000000E+01 0.  0.
         -4    1    1    2    0  502 -0.16092094289E+02 -0.39084425175E+02 -0.33136842562E+02  0.53723468101E+02  0.12700000000E+01 0. -1.
<mgrwt>
<rscale>  1 0.13195289E+03</rscale>
<asrwt>0</asrwt>
<pdfrwt beam="1">  1       21 0.52839139E-02 0.13195289E+03</pdfrwt>
<pdfrwt beam="2">  1       -4 0.34523964E-01 0.13195289E+03</pdfrwt>
<totfact> 0.79761897E+04</totfact>
</mgrwt>
</event>
<event>
 6    4  0.6195789E-003  0.1465103E+03  0.7818608E-02  0.1204828E+00
         21   -1    0    0  501  502  0.00000000000E+00  0.00000000000E+00  0.24132359528E+03  0.24132359528E+03  0.00000000000E+00 0.  1.
          4   -1    0    0  502    0 -0.00000000000E+00 -0.00000000000E+00 -0.51561335339E+02  0.51576973564E+02  0.12700000000E+01 0. -1.
         25    2    1    2    0    0  0.22914777099E+02 -0.72907164750E+02  0.11919378773E+03  0.18887141980E+03  0.12499885000E+03 0.  0.
    9000005    1    3    3    0    0 -0.49023450649E+02 -0.34725080056E+02  0.75344773641E+02  0.96368899618E+02  0.10000000000E+01 0.  0.
    9000005    1    3    3    0    0  0.71938227749E+02 -0.38182084694E+02  0.43849014091E+02  0.92502520182E+02  0.10000000000E+01 0.  0.
          4    1    1    2  501    0 -0.22914777099E+02  0.72907164750E+02  0.70568472212E+02  0.10402914905E+03  0.12700000000E+01 0.  1.
<mgrwt>
<rscale>  1 0.14651025E+03</rscale>
<asrwt>0</asrwt>
<pdfrwt beam="1">  1       21 0.37126706E-01 0.14651025E+03</pdfrwt>
<pdfrwt beam="2">  1        4 0.79339733E-02 0.14651025E+03</pdfrwt>
<totfact> 0.32194501E+04</totfact>
</mgrwt>
</event>
<event>
 6    4  0.6195789E-003  0.1324853E+03  0.7818608E-02  0.1223814E+00
         21   -1    0    0  501  502  0.00000000000E+00  0.00000000000E+00  0.33511781949E+03  0.33511781949E+03  0.00000000000E+00 0. -1.
          4   -1    0    0  502    0 -0.00000000000E+00 -0.00000000000E+00 -0.23535694868E+02  0.23569934937E+02  0.12700000000E+01 0. -1.
         25    2    1    2    0    0 -0.43949513562E+02 -0.31872472192E-01  0.25117044817E+03  0.28396999008E+03  0.12498320075E+03 0.  0.
    9000005    1    3    3    0    0 -0.41244070225E+02 -0.47551908821E+02  0.60022010319E+02  0.86982176818E+02  0.10000000000E+01 0.  0.
    9000005    1    3    3    0    0 -0.27054433367E+01  0.47520036349E+02  0.19114843785E+03  0.19698781326E+03  0.10000000000E+01 0.  0.
          4    1    1    2  501    0  0.43949513562E+02  0.31872472192E-01  0.60411676452E+02  0.74717764353E+02  0.12700000000E+01 0.  1.
<mgrwt>
<rscale>  1 0.13248532E+03</rscale>
<asrwt>0</asrwt>
<pdfrwt beam="1">  1       21 0.51556584E-01 0.13248532E+03</pdfrwt>
<pdfrwt beam="2">  1        4 0.36236953E-02 0.13248532E+03</pdfrwt>
<totfact> 0.58092695E+04</totfact>
</mgrwt>
</event>
<event>
 6    4  0.6195789E-003  0.1329986E+03  0.7818608E-02  0.1223073E+00
         21   -1    0    0  501  502  0.00000000000E+00  0.00000000000E+00  0.62457993683E+02  0.62457993683E+02  0.00000000000E+00 0. -1.
         -4   -1    0    0    0  501 -0.00000000000E+00 -0.00000000000E+00 -0.16470402896E+03  0.16470892525E+03  0.12700000000E+01 0. -1.
         25    2    1    2    0    0 -0.10575769645E+02  0.44180996603E+02 -0.21803186805E+02  0.13477388816E+03  0.12499925844E+03 0.  0.
    9000005    1    3    3    0    0 -0.26382826312E+00 -0.21907330717E+02  0.38760757326E+02  0.44535346108E+02  0.10000000000E+01 0.  0.
    9000005    1    3    3    0    0 -0.10311941382E+02  0.66088327319E+02 -0.60563944131E+02  0.90238542052E+02  0.10000000000E+01 0.  0.
         -4    1    1    2    0  502  0.10575769645E+02 -0.44180996603E+02 -0.80442848472E+02  0.92393030769E+02  0.12700000000E+01 0.  1.
<mgrwt>
<rscale>  1 0.13299858E+03</rscale>
<asrwt>0</asrwt>
<pdfrwt beam="1">  1       21 0.96089222E-02 0.13299858E+03</pdfrwt>
<pdfrwt beam="2">  1       -4 0.25340451E-01 0.13299858E+03</pdfrwt>
<totfact> 0.51325561E+04</totfact>
</mgrwt>
</event>
<event>
 6    4  0.6195789E-003  0.1268731E+03  0.7818608E-02  0.1232171E+00
         21   -1    0    0  501  502  0.00000000000E+00  0.00000000000E+00  0.45197304520E+03  0.45197304520E+03  0.00000000000E+00 0. -1.
         -4   -1    0    0    0  501 -0.00000000000E+00 -0.00000000000E+00 -0.14276279633E+02  0.14332657122E+02  0.12700000000E+01 0.  1.
         25    2    1    2    0    0 -0.21647007718E+02  0.18092830010E+01  0.28367395536E+03  0.31075344289E+03  0.12499969150E+03 0.  0.
    9000005    1    3    3    0    0  0.39131599662E+02 -0.37654050174E+02  0.12717218813E+03  0.13828548377E+03  0.10000000000E+01 0.  0.
    9000005    1    3    3    0    0 -0.60778607380E+02  0.39463333175E+02  0.15650176722E+03  0.17246795913E+03  0.10000000000E+01 0.  0.
         -4    1    1    2    0  502  0.21647007718E+02 -0.18092830010E+01  0.15402281021E+03  0.15555225943E+03  0.12700000000E+01 0. -1.
<mgrwt>
<rscale>  1 0.12687312E+03</rscale>
<asrwt>0</asrwt>
<pdfrwt beam="1">  1       21 0.69534304E-01 0.12687312E+03</pdfrwt>
<pdfrwt beam="2">  1       -4 0.22008250E-02 0.12687312E+03</pdfrwt>
<totfact> 0.66707621E+04</totfact>
</mgrwt>
</event>
<event>
 6    4  0.6195789E-003  0.1297951E+03  0.7818608E-02  0.1227760E+00
         -4   -1    0    0    0  501 -0.00000000000E+00  0.00000000000E+00  0.66652399053E+02  0.66664497295E+02  0.12700000000E+01 0.  1.
         21   -1    0    0  501  502  0.00000000000E+00 -0.00000000000E+00 -0.17346847583E+03  0.17346847583E+03  0.00000000000E+00 0. -1.
         25    2    1    2    0    0 -0.18328416490E+02 -0.29772697025E+02 -0.21910002308E+01  0.12981360093E+03  0.12499770464E+03 0.  0.
    9000005    1    3    3    0    0 -0.71754895500E+02 -0.12075328645E+02  0.56043086659E+01  0.72986210107E+02  0.10000000000E+01 0.  0.
    9000005    1    3    3    0    0  0.53426479010E+02 -0.17697368380E+02 -0.77953088967E+01  0.56827390823E+02  0.10000000000E+01 0.  0.
         -4    1    1    2    0  502  0.18328416490E+02  0.29772697025E+02 -0.10462507655E+03  0.11031937220E+03  0.12700000000E+01 0. -1.
<mgrwt>
<rscale>  1 0.12979511E+03</rscale>
<asrwt>0</asrwt>
<pdfrwt beam="2">  1       21 0.26687457E-01 0.12979511E+03</pdfrwt>
<pdfrwt beam="1">  1       -4 0.10255504E-01 0.12979511E+03</pdfrwt>
<totfact> 0.39321108E+04</totfact>
</mgrwt>
</event>
<event>
 6    4  0.6195789E-003  0.1275348E+03  0.7818608E-02  0.1231160E+00
         -4   -1    0    0    0  501 -0.00000000000E+00  0.00000000000E+00  0.27845022924E+03  0.27845312544E+03  0.12700000000E+01 0.  1.
         21   -1    0    0  501  502  0.00000000000E+00 -0.00000000000E+00 -0.44408464556E+02  0.44408464556E+02  0.00000000000E+00 0. -1.
         25    2    1    2    0    0 -0.22654866782E+02 -0.11313607712E+02  0.25811217028E+03  0.28790106892E+03  0.12499556923E+03 0.  0.
    9000005    1    3    3    0    0  0.46795575546E+02 -0.26437577332E+01  0.50967086895E+02  0.69249254814E+02  0.10000000000E+01 0.  0.
    9000005    1    3    3    0    0 -0.69450442328E+02 -0.86698499788E+01  0.20714508339E+03  0.21865181410E+03  0.10000000000E+01 0.  0.
         -4    1    1    2    0  502  0.22654866782E+02  0.11313607712E+02 -0.24070405596E+02  0.34960521076E+02  0.12700000000E+01 0. -1.
<mgrwt>
<rscale>  1 0.12753483E+03</rscale>
<asrwt>0</asrwt>
<pdfrwt beam="2">  1       21 0.68320716E-02 0.12753483E+03</pdfrwt>
<pdfrwt beam="1">  1       -4 0.42840115E-01 0.12753483E+03</pdfrwt>
<totfact> 0.33676324E+04</totfact>
</mgrwt>
</event>
